default_name
296299
  95.5630837  67.0376608  79.8688674  95.0757134  66.2966823  79.3856268
  96.5685345  67.1074436  79.8033033  95.0760837  68.3486608  79.4038674
  94.3108393  68.1967757  78.6426629  95.9077766  68.9081420  78.9756529
  94.5300837  68.9956608  80.6538674  93.4424573  69.0178981  80.5855110
  94.9109476  70.0153544  80.7110403  94.9870837  68.1886608  81.8268674
  94.2060105  68.1735292  82.5869956  95.9158045  68.5504340  82.2681132
  95.1910837  66.7796608  81.2618674  96.0174911  66.2482049  81.7337820
  93.9060837  65.9476608  81.3938674  92.9460837  66.1756608  80.6508674
  93.8980837  65.0106608  82.3438674  94.7126548  64.9067391  82.9318926
  92.7740837  64.0786608  82.5368674  92.4450721  63.6965028  81.5705311
  93.1940837  62.8906608  83.4178674  93.5525251  63.2793913  84.3710241
  92.3238816  62.2568866  83.5886851  94.2950837  62.0466608  82.7918674
  94.4610837  62.0096608  81.5708674  95.0520837  61.3586608  83.6338674
  95.7995809  60.7797456  83.2786140  94.8781734  61.4162727  84.6271130
  91.5610837  64.7776608  83.1538674  91.7080837  65.7846608  83.8488674
  90.3760837  64.2156608  82.9068674  90.3564799  63.3485641  82.3893171
  89.0900837  64.8536608  83.2528674  89.1159799  65.8206456  82.7505041
  87.9310837  64.0416608  82.6868674  87.8865433  63.0739728  83.1865636
  86.9965619  64.5781383  82.8510655  88.0800958  63.8913337  81.6176170
  88.8680837  65.1146608  84.7518674  88.1990837  66.0896608  85.1158674
  89.4200837  64.2456608  85.6048674  89.8721692  63.4221297  85.2340378
  89.3420837  64.4006608  87.0678674  88.3002073  64.4925593  87.3747018
  89.9550837  63.1796608  87.7708674  90.9904913  63.1149585  87.4364365
  89.9316458  63.3913923  88.8398484  89.2370837  61.8306608  87.4948674
  89.4591092  61.1906798  88.3488169  88.1742378  62.0723759  87.4892516
  89.6010837  61.0966608  86.1978674  90.4860837  61.5876608  85.4628674
  88.9860837  60.0316608  85.9668674  90.0200837  65.6746608  87.5918674
  89.5520837  66.2606608  88.5658674  91.1010837  66.0996608  86.9328674
  91.3794152  65.6028938  86.0986891  91.9440837  67.2166608  87.3948674
  91.7653393  67.4160243  88.4514675  93.4290837  66.8446608  87.2078674
  93.6413739  66.8625241  86.1388898  94.0287236  67.6041374  87.7095918
  93.7760837  65.4646608  87.7738674  93.3150837  65.1376608  88.8878674
  94.5130837  64.7086608  87.1028674  91.6670837  68.5676608  86.6958674
  92.4240837  69.5216608  86.8898674  90.5860837  68.6616608  85.9138674
  89.9381032  67.8884857  85.8646658  90.3410837  69.8356608  85.0538674
  91.2914249  70.2345254  84.6991028  89.4850837  69.4526608  83.8378674
  88.6603672  68.8393630  84.2009208  89.0910804  70.3761959  83.4136690
  90.2500837  68.6906608  82.7688674  91.0918275  69.3124449  82.4639857
  90.6229132  67.7737048  83.2252577  89.2660837  68.2726608  81.3178674
  89.1190837  69.8736608  80.5278674  90.1119925  70.2519492  80.2847027
  88.5341076  69.7758012  79.6133582  88.6215757  70.5687989  81.2041588
  89.6800837  71.0136608  85.7778674  88.7670837  70.8276608  86.5818674
  90.1560837  72.2216608  85.4688674  91.0048915  72.2681186  84.9234626
  89.5490837  73.4786608  85.9188674  88.8156769  73.2903726  86.7029345
  90.6320837  74.4386608  86.4738674  90.1462177  75.3379628  86.8524044
  91.4180837  73.7706608  87.6028674  91.9046421  72.8714727  87.2249502
  92.1731775  74.4611526  87.9785715  90.7374561  73.5025545  88.4109303
  91.5380837  74.8226608  85.4298674  92.2032097  75.4164225  85.7857533
  88.7860837  74.1236608  84.7438674  88.6690837  73.5166608  83.6728674
  88.2640837  75.3386608  84.9448674  88.2530243  75.7189807  85.8804601
  87.5790837  76.0906608  83.8758674  86.8260955  75.4559910  83.4086392
  86.8850837  77.3436608  84.4398674  86.3955692  77.8641192  83.6167041
  86.1355736  77.0237620  85.1637454  87.8060837  78.2166608  85.0688674
  87.3393806  78.9842479  85.4073907  88.4570837  76.4716608  82.6568674
  87.9130837  76.6846608  81.5668674  89.7670837  76.6206608  82.8858674
  90.1001622  76.5179305  83.8338149  90.7360837  76.9636608  81.8428674
  90.3024742  77.6950140  81.1608084  92.0010837  77.5646608  82.4658674
  92.3851986  76.8351947  83.1789132  92.7227226  77.6991670  81.6601097
  91.7760837  78.8936608  83.1718674  91.5464049  79.6476854  82.4190093
  90.9271236  78.7844019  83.8467238  93.0020837  79.3256608  83.9648674
  93.2529964  78.5318393  84.6684221  93.8285589  79.4679874  83.2686050
  92.7530837  80.6196608  84.7278674  92.5945158  81.4134493  83.9978971
  91.8495734  80.4885650  85.3233354  93.8880837  80.9866608  85.6218674
  94.7253008  81.1086049  85.0702362  93.6730080  81.8485781  86.1024305
  94.0349069  80.2514420  86.2986210  91.1020837  75.7336608  81.0138674
  91.3250837  75.8336608  79.8058674  91.1740837  74.5756608  81.6658674
  91.1309690  74.5491376  82.6745978  91.3520837  73.3216608  80.9498674
  92.2236063  73.3929924  80.2991298  91.5630837  72.1616608  81.9238674
  90.7547855  72.1900854  82.6545830  91.5093911  71.2307009  81.3594821
  92.8940837  72.2406608  82.6408674  93.9070837  72.5466608  81.9788674
  92.9330837  71.9936608  83.8628674  90.1210837  73.0746608  80.0858674
  90.2170837  72.5256608  78.9888674  88.9620837  73.4896608  80.5878674
  88.9164827  73.8267629  81.5388574  87.7220837  73.4026608  79.8248674
  87.6611856  72.4325460  79.3316454  86.5080837  73.5606608  80.7458674
  86.7602992  74.3575945  81.4454268  85.6564794  73.8671332  80.1384592
  86.1520837  72.3046608  81.5178674  86.0090837  71.0856608  80.8708674
  86.1603480  71.0427703  79.7922669  85.6810837  69.9386608  81.5688674
  85.5831599  68.9861686  81.0480301  85.4770837  70.0036608  82.9258674
  85.1470837  68.8636608  83.6158674  85.0873985  68.0884270  83.0527955
  85.6030837  71.2016608  83.5918674  85.4445232  71.2510958  84.6691395
  85.9320837  72.3446608  82.8888674  86.0227580  73.2977826  83.4098637
  87.6790837  74.4406608  78.6968674  87.0240837  74.2226608  77.6738674
  88.3700837  75.5656608  78.8888674  88.7354243  75.7796838  79.8058297
  88.5670837  76.5456608  77.8158674  87.7142571  76.5144100  77.1377750
  88.6980837  77.9656608  78.3718674  88.7018331  77.8899397  79.4592273
  89.6537144  78.3654711  78.0327188  87.5820837  78.8886608  77.9348674
  86.2490837  78.5476608  78.1388674  86.0185140  77.5998326  78.6252406
  85.2240837  79.3866608  77.7368674  84.1839726  79.1049177  77.9008538
  85.5260837  80.5856608  77.1198674  84.5070837  81.4286608  76.7168674
  83.6337114  81.0826479  76.9145933  86.8440837  80.9466608  76.9088674
  87.0834147  81.8934933  76.4247917  87.8610837  80.1006608  77.3148674
  88.9014888  80.3807982  77.1500028  89.7970837  76.1906608  76.9838674
  90.5540837  77.0706608  76.5588674  89.9880837  74.8866608  76.7898674
  89.4356047  74.2444698  77.3398283  90.9660837  74.3336608  75.8528674
  91.0015577  74.9567516  74.9592240  92.3690837  74.2826608  76.4708674
  92.3298289  73.7464341  77.4190337  93.0646325  73.7803968  75.7985261
  92.9570837  75.6366608  76.7658674  92.9830837  76.6246608  75.7918674
  92.5713614  76.4097604  74.8057627  93.5230837  77.8706608  76.0598674
  93.5322589  78.6394213  75.2871943  94.0510837  78.1396608  77.3088674
  94.4774397  79.1192538  77.5250107  94.0370837  77.1616608  78.2848674
  94.4529136  77.3698304  79.2706925  93.4950837  75.9176608  78.0108674
  93.4881791  75.1448819  78.7795449  90.4920837  72.9276608  75.4718674
  91.0410837  72.2956608  74.5688674  89.4600837  72.4636608  76.1808674
  89.1038401  73.0401707  76.9297506  88.8590837  71.1416608  75.9748674
  88.8986933  70.8800132  74.9174787  89.6160837  70.0746608  76.7718674
  90.6823932  70.2470377  76.6256842  89.3687901  70.2037761  77.8255633
  89.2680837  68.6596608  76.3398674  88.4900837  68.5106608  75.3748674
  89.7700837  67.7006608  76.9678674  87.3680837  71.1776608  76.3698674
  86.9440837  70.6046608  77.3758674  86.6040837  71.8776608  75.5388674
  87.0972580  72.3291391  74.7818695  85.1380837  72.0616608  75.6298674
  84.8903489  72.5791848  76.5566335  84.6220837  72.8896608  74.4558674
  84.9166639  72.4009552  73.5271647  83.5345391  72.9362841  74.5121971
  85.1480837  74.1906608  74.4868674  84.8096672  74.6904994  73.7403854
  84.3400837  70.7726608  75.6368674  83.3590837  70.6576608  76.3628674
  84.7530837  69.8176608  74.8078674  85.4845337  70.0179735  74.1408179
  84.0820837  68.5156608  74.7338674  83.0015078  68.6571325  74.7548578
  84.4570837  67.7846608  73.4328674  85.5169275  67.9623351  73.2504878
  84.2895241  66.7190533  73.5894066  83.6550837  68.2506608  72.2378674
  82.3020837  67.9416608  72.1268674  81.8315690  67.3553943  72.9161753
  81.5570837  68.3636608  71.0418674  80.4956338  68.1252240  70.9742373
  82.1620837  69.1006608  70.0478674  81.4210837  69.5036608  68.9698674
  80.5057726  69.2178541  69.0159074  83.5010837  69.4216608  70.1258674
  83.9768432  70.0058938  69.3381967  84.2420837  68.9956608  71.2158674
  85.3016706  69.2419933  71.2843954  84.3010837  67.6066608  75.9588674
  83.6620837  66.5606608  76.0588674  85.1900837  67.9956608  76.8768674
  85.8263401  68.7495940  76.6603912  85.3430837  67.3026608  78.1638674
  85.3973703  66.2400415  77.9272402  86.6410837  67.7166608  78.8438674
  86.5982396  68.7764241  79.0951961  86.7770619  67.1330590  79.7543723
  87.4784265  67.5372780  78.1694949  84.1610837  67.5056608  79.1228674
  83.9790837  66.7136608  80.0508674  83.3820837  68.5656608  78.9138674
  83.6193191  69.2182583  78.1804267  82.1740837  68.8156608  79.7008674
  82.4259945  68.8142404  80.7613570  81.5490837  70.1726608  79.3468674
  81.6248820  70.3147795  78.2688339  80.5015591  70.2133675  79.6454225
  82.2210837  71.3486608  79.9818674  82.4650837  72.5216608  79.2958674
  82.2338993  72.6800846  78.3255296  83.0430837  73.3896608  80.1088674
  83.3180859  74.3831008  79.7545374  83.1820837  72.8226608  81.2948674
  83.5945846  73.2487002  82.1124451  82.6720837  71.5476608  81.2428674
  82.6906739  70.9165819  82.1314028  81.1230837  67.7496608  79.4268674
  80.7950837  67.5076608  78.2668674  80.5800837  67.1546608  80.4918674
  80.9617789  67.3190040  81.4124104  79.5200837  66.1526608  80.3478674
  79.8228653  65.4267580  79.5932234  79.2330837  65.4016608  81.6688674
  78.5088268  64.6002612  81.5228884  80.1739926  64.9803248  82.0227975
  78.7000837  66.2676608  82.7858674  77.3530837  66.5856608  82.8648674
  76.6736322  66.2087871  82.1003991  76.8690837  67.3676608  83.8928674
  75.8102034  67.6235348  83.9303061  77.7240837  67.8256608  84.8728674
  77.3453279  68.4404473  85.6893730  79.0640837  67.5026608  84.8168674
  79.7432231  67.8642609  85.5889524  79.5450837  66.7226608  83.7848674
  80.6017141  66.4574397  83.7489518  78.2490837  66.7676608  79.7588674
  77.5220837  66.0936608  79.0338674  78.0000837  68.0396608  80.0738674
  78.6567806  68.5322640  80.6622471  76.8200837  68.7546608  79.6068674
  75.9455093  68.2340360  79.9969553  76.8596608  69.7606993  80.0245030
  76.7050837  68.8506608  78.1028674  75.5940837  68.8216608  77.5738674
  77.8460837  68.9446608  77.4168674  78.7225592  69.0148224  77.9138257
  77.8710837  69.0016608  75.9528674  77.1641620  69.7421459  75.5786447
  79.2870837  69.3106608  75.3958674  79.9823955  68.5583704  75.7682934
  79.2880837  69.2926608  73.8678674  78.5933010  70.0450594  73.4946733
  80.2911904  69.5119015  73.5020652  78.9804728  68.3081646  73.5153877
  79.8260837  70.6616608  75.9248674  79.8593089  70.5735315  77.0107910
  80.8402905  70.7590159  75.5375613  79.0190837  71.8876608  75.5418674
  78.0048179  71.7912369  75.9292525  79.4859259  72.7772396  75.9647233
  78.9857977  71.9767199  74.4560219  77.3670837  67.6746608  75.3768674
  76.5180837  67.6616608  74.4828674  77.8850837  66.5706608  75.9048674
  78.6452982  66.6457983  76.5655698  77.4740837  65.2366608  75.4698674
  77.4141604  65.2048756  74.3819804  78.4860837  64.1866608  75.9348674
  78.6088031  64.3032974  77.0116381  78.1856284  63.1627016  75.7127543
  79.8370837  64.3766608  75.3278674  80.1800837  63.8496608  74.1048674
  79.5725098  63.2802137  73.5333049  81.4170837  64.2066608  73.8068674
  81.8815317  63.8765137  72.8776796  81.8800837  64.9596608  74.7858674
  82.7988547  65.3765873  74.8320422  80.9070837  65.0906608  75.7448674
  81.0957519  65.6921661  76.6340787  76.0570837  64.8926608  75.9118674
  75.3370837  64.1926608  75.2008674  75.6590837  65.4066608  77.0698674
  76.3342526  65.8602385  77.6686275  74.2800837  65.2856608  77.5458674
  74.0141303  64.2340186  77.6527158  74.1300837  65.9686608  78.9068674
  74.9678446  65.6456521  79.5248654  74.1967296  67.0434972  78.7383887
  72.8260837  65.6476608  79.6148674  72.0185479  65.9624047  78.9538660
  72.7753334  64.5687509  79.7614178  72.6850837  66.3446608  80.9498674
  73.7130837  66.7036608  81.5808674  71.5270837  66.5196608  81.3738674
  73.2710837  65.8726608  76.5468674  72.2680837  65.2316608  76.2288674
  73.5500837  67.0836608  76.0648674  74.3416970  67.5858614  76.4406897
  72.7250837  67.7456608  75.0528674  71.6955736  67.8138115  75.4043834
  73.2460837  69.1706608  74.7738674  73.3171218  69.6821887  75.7337591
  74.2415371  69.0715289  74.3410331  72.3580837  69.9816608  73.8288674
  72.3010761  69.4288353  72.8911921  71.3682098  70.0292964  74.2827173
  72.8590837  71.3926608  73.5558674  73.9580837  71.7696608  74.0278674
  72.1380837  72.1366608  72.8558674  72.6720837  66.9486608  73.7408674
  71.6200837  66.8626608  73.1068674  73.8150837  66.3956608  73.3358674
  74.6618599  66.5843298  73.8530458  73.9080837  65.5686608  72.1248674
  73.4483029  66.0946743  71.2882011  75.3770837  65.2696608  71.7708674
  75.8697972  64.9581984  72.6919124  75.3720009  64.4401907  71.0637228
  76.1300837  66.4476608  71.1658674  75.5118856  66.8621550  70.3695468
  76.2614600  67.1942447  71.9491010  77.7500837  66.0016608  70.4908674
  78.6740837  65.6516608  71.9808674  78.1945349  64.8369704  72.5234644
  79.6919429  65.3631903  71.7184780  78.6999132  66.5411347  72.6103673
  73.1350837  64.2596608  72.2738674  72.4260837  63.8526608  71.3588674
  73.2810837  63.6106608  73.4248674  73.9318596  63.9657402  74.1108037
  72.5980837  62.3406608  73.7048674  72.6900107  61.6728647  72.8483062
  73.2240837  61.6596608  74.9258674  73.2296129  62.4469875  75.6796481
  72.5791368  60.8454702  75.2563778  74.6510837  61.1326608  74.7268674
  75.1958860  61.8403049  74.1019425  75.3770837  60.9656608  76.0558674
  74.8330867  60.2577575  76.6811985  76.3845712  60.5907736  75.8755084
  75.4337366  61.9288045  76.5630606  74.6450837  59.8236608  73.9508674
  74.1917082  59.9827604  72.9724823  75.6687350  59.4715153  73.8234591
  74.0705036  59.0777557  74.5000325  71.0820837  62.5006608  73.8978674
  70.3170837  61.6246608  73.4948674  70.6560837  63.6076608  74.5098674
  71.3202189  64.1958660  74.9926079  69.2220837  63.9356608  74.6198674
  68.6566287  63.0275487  74.8288946  68.9700837  64.9386608  75.7468674
  69.6955517  65.7467244  75.6529060  67.9633506  65.3392897  75.6281881
  69.1010837  64.2986608  77.1158674  68.3728684  63.4898130  77.1756039
  70.1074026  63.8874693  77.1955286  68.8640837  65.2756608  78.2488674
  69.6113434  66.0679116  78.2036936  67.8690864  65.7092617  78.1485184
  68.9700837  64.5556608  79.5818674  68.0923770  63.9178429  79.6863658
  69.8671066  63.9369864  79.5555794  69.0450837  65.4866608  80.7358674
  68.2137774  66.0597357  80.7606591  69.1139382  64.9560987  81.5925254
  69.8585553  66.0774793  80.6394482  68.5820837  64.4206608  73.3128674
  67.3540837  64.4656608  73.2128674  69.4020837  64.7886608  72.3278674
  70.3780090  64.9484595  72.5331323  68.9320837  65.0246608  70.9598674
  68.0253822  65.6293714  70.9776614  70.0080837  65.7736608  70.1478674
  70.2635878  66.6736774  70.7071410  70.8832585  65.1273662  70.0809906
  69.5520837  66.1606608  68.7408674  68.5160837  65.6586608  68.2508674
  70.2560837  66.9826608  68.1118674  68.5890837  63.6616608  70.3408674
  69.4580837  62.9716608  69.8068674  67.3160837  63.2846608  70.4288674
  66.6431210  63.9006340  70.8622235  66.8670837  61.9506608  70.0028674
  67.5842096  61.1999785  70.3349906  65.4990837  61.6186608  70.6018674
  64.8449341  62.4730609  70.4281205  65.1081189  60.7490505  70.0736397
  65.5590837  61.3216608  72.0908674  66.1287402  60.4022075  72.2257674
  66.0849473  62.1477968  72.5694758  64.1900837  61.1636608  72.7188674
  64.0080837  61.6396608  73.8598674  63.2970837  60.5696608  72.0738674
  66.8290837  61.7646608  68.4878674  67.1340837  60.6806608  68.0028674
  66.4550837  62.8116608  67.7528674  66.1103138  63.6415971  68.2137782
  66.4620837  62.7826608  66.2828674  65.8368238  61.9820612  65.8876591
  65.9770837  64.1296608  65.6878674  66.4829640  64.9379670  66.2159067
  66.2750837  64.2336608  64.1918674  65.7691285  63.4258982  63.6630670
  65.9188134  65.1926575  63.8157062  67.3500628  64.1566737  64.0287885
  64.4850837  64.3126608  65.9478674  64.2998958  64.3097938  67.0220179
  64.1559020  65.2620428  65.5254781  63.9318723  63.4970855  65.4821476
  67.8650837  62.4406608  65.7688674  68.0270837  61.5836608  64.8958674
  68.8650837  63.1186608  66.3268674  68.6490015  63.8587953  66.9792543
  70.2680837  62.8616608  66.0108674  70.4446652  62.9895312  64.9428939
  71.1520837  63.8486608  66.7738674  70.8071686  64.8463768  66.5023983
  70.9649018  63.6759470  67.8336942  72.6430837  63.7356608  66.4978674
  72.9056820  62.6831474  66.3912911  72.8737432  64.2626923  65.5720510
  73.4430837  64.3446608  67.6408674  74.4106053  64.6896642  67.2762120
  72.8974522  65.1840864  68.0718550  73.6660837  63.3406608  68.6888674
  72.8450002  63.0613840  69.2064828  74.8340837  62.7696608  68.9908674
  75.9520837  63.1076608  68.3608674  75.9270179  63.8109437  67.6363918
  76.8228932  62.6600670  68.6087591  74.8860837  61.8556608  69.9568674
  74.0439625  61.6013284  70.4531001  75.7674280  61.4205630  70.1892913
  70.6860837  61.4326608  66.3598674  71.1050837  60.6786608  65.4878674
  70.5600837  61.0736608  67.6338674  70.1244876  61.7083958  68.2876769
  71.1340837  59.8316608  68.1508674  72.1514960  59.7092913  67.7793877
  71.1690837  59.8306608  69.6988674  70.1443401  59.8082958  70.0696781
  71.9290837  58.6226608  70.2338674  72.9541166  58.6445876  69.8638318
  71.9360278  58.6505213  71.3234888  71.4413899  57.7077496  69.8974259
  71.8050837  61.0276608  70.1688674  71.8250437  61.0237076  71.1286519
  70.4130837  58.5866608  67.6148674  71.0760837  57.6236608  67.2158674
  69.0760837  58.6176608  67.5868674  68.5863008  59.4048553  67.9875377
  68.2810837  57.4876608  67.0738674  68.6663144  56.5621680  67.5018388
  66.7920837  57.6116608  67.4318674  66.5244479  58.5974169  67.0514003
  66.2653950  56.8470735  66.8608112  66.3960837  57.5096608  68.9068674
  66.9152026  58.2810168  69.4757490  64.8930837  57.7016608  69.0468674
  64.3732500  56.9303402  68.4785926  64.6132812  57.6286643  70.0978112
  64.6145602  58.6837074  68.6646246  66.8130837  56.1756608  69.5108674
  67.8950675  56.0656246  69.4380481  66.5146210  56.1414861  70.5586524
  66.3285133  55.3635180  68.9689130  68.4200837  57.2796608  65.5638674
  68.3220837  56.1376608  65.1008674  68.6290837  58.3546608  64.7998674
  68.5596853  59.2811607  65.1959496  68.8870837  58.2306608  63.3578674
  68.1218503  57.5938240  62.9140703  68.8710837  59.5976608  62.6368674
  69.5980859  60.2530146  63.1165335  69.2210837  59.4456608  61.1578674
  68.4942019  58.7907655  60.6773941  69.2018209  60.4236812  60.6770306
  70.2173498  59.0139092  61.0622373  67.5650837  60.1836608  62.7418674
  67.5581722  61.0323713  62.2932663  70.2230837  57.5186608  63.1078674
  70.3150837  56.6636608  62.2228674  71.2450837  57.8776608  63.8838674
  71.1754558  58.7093327  64.4527023  72.5190837  57.1516608  63.8668674
  72.8866358  57.1077827  62.8416458  73.5890837  57.8276608  64.7448674
  73.0690428  58.2896270  65.5840598  74.2519013  57.0454753  65.1149469
  74.4060837  58.8796608  64.0148674  73.9710837  60.1996608  63.9328674
  73.0286069  60.4688626  64.4096979  74.7100837  61.1646608  63.2618674
  74.3581894  62.1951000  63.2121969  75.9010837  60.8136608  62.6638674
  76.6260837  61.7666608  61.9978674  76.2114747  62.6323696  62.0135911
  76.3580837  59.5066608  62.7268674  77.2980483  59.2287963  62.2500463
  75.6140837  58.5516608  63.3998674  75.9702307  57.5229923  63.4555492
  72.3150837  55.6946608  64.2818674  72.8210837  54.7916608  63.6108674
  71.5610837  55.4616608  65.3568674  71.2097833  56.2233964  65.9194029
  71.2990837  54.0876608  65.8038674  72.2492187  53.5641936  65.9102855
  70.5630837  54.0426608  67.1448674  71.0186004  54.7813409  67.8043790
  69.5212127  54.3088530  66.9666917  70.6310837  52.6676608  67.7988674
  70.2481391  51.9375480  67.0858530  71.6771068  52.4499720  68.0146207
  69.8240837  52.5926608  69.0818674  70.0727783  51.6666194  69.6002277
  70.0855464  53.4426990  69.7120830  68.3800837  52.6186608  68.8338674
  68.0871951  52.5931882  67.8676031  67.4420837  52.6656608  69.7828674
  67.7700837  52.6936608  71.0748674  68.7428475  52.6792735  71.3462042
  67.0442871  52.7291286  71.7763380  66.1600837  52.6926608  69.4388674
  65.9019375  52.6775157  68.4625318  65.4488411  52.7282237  70.1550852
  70.5220837  53.2886608  64.7528674  70.8680837  52.1446608  64.4738674
  69.4890837  53.8986608  64.1758674  69.2046966  54.8101491  64.5051278
  68.6840837  53.2536608  63.1338674  68.3077577  52.2994432  63.5025770
  67.4870837  54.1336608  62.7368674  67.8439652  55.1486699  62.5622500
  67.0574018  53.7368803  61.8170638  66.3980837  54.1766608  63.8048674
  66.4480837  53.4566608  64.8018674  65.4090837  55.0296608  63.5938674
  64.6583679  55.1038728  64.2654462  65.4093331  55.6027184  62.7621789
  69.4950837  52.8806608  61.8898674  69.2610837  51.8296608  61.3028674
  70.4520837  53.7246608  61.5048674  70.5540148  54.6141519  61.9723232
  71.3190837  53.4396608  60.3518674  70.7035064  53.2620521  59.4700404
  72.2620837  54.6146608  60.0628674  72.7150043  54.4616345  59.0833036
  71.6761016  55.5336866  60.0520761  73.2810837  54.7156608  61.0438674
  73.8531063  55.4580206  60.8358004  72.1300837  52.1456608  60.5238674
  72.3620837  51.4286608  59.5528674  72.5330837  51.8486608  61.7578674
  72.3640817  52.5059780  62.5058458  73.2780837  50.6246608  62.0638674
  73.8481279  50.3134788  61.1884734  74.2530837  50.8576608  63.2268674
  73.6595915  50.9345428  64.1378863  74.9004143  49.9828533  63.2883095
  75.1050837  52.1086608  63.0698674  75.5217761  52.0899089  62.0628338
  74.4396583  52.9659993  63.1712667  76.4450837  52.2556608  64.2618674
  76.5020837  54.0376608  64.4308674  75.5404444  54.3995864  64.7946787
  77.2842021  54.3111444  65.1391034  76.7163465  54.4883763  63.4618224
  72.3280837  49.4676608  62.3858674  72.4410837  48.3896608  61.7928674
  71.3880837  49.7016608  63.3018674  71.3263665  50.6210209  63.7154702
  70.4880837  48.6436608  63.8078674  71.0806185  47.7891184  64.1346074
  69.6500837  49.1466608  64.9998674  69.3510128  50.1848716  64.8557354
  68.7612363  48.5213827  65.0839960  70.3540837  49.0806608  66.3378674
  71.7460837  49.1776608  66.4558674  72.3497913  49.2959606  65.5560662
  72.3590837  49.1246608  67.7018674  73.4447147  49.1893014  67.7748583
  71.5920837  48.9896608  68.8528674  72.0739217  48.9505432  69.8298024
  70.2110837  48.9046608  68.7568674  69.6049724  48.8012918  69.6568919
  69.5990837  48.9516608  67.5068674  68.5137873  48.8875171  67.4286555
  69.5580837  48.0566608  62.7418674  69.3080837  46.8516608  62.7488674
  69.0570837  48.8996608  61.8388674  69.2053600  49.8925335  61.9498505
  68.2120837  48.4406608  60.7248674  67.6410789  47.5660602  61.0365187
  67.2290837  49.5396608  60.2898674  67.7777861  50.4084981  59.9263476
  66.5780781  49.1651157  59.4999258  66.3340837  50.0266608  61.3878674
  65.9040837  49.4246608  62.5218674  65.0940837  50.3216608  63.1758674
  64.6334616  50.0486615  64.1252870  65.0250837  51.4336608  62.4678674
  64.4978467  52.2635549  62.6989447  65.7710837  51.2856608  61.3858674
  65.8570130  52.1008765  60.6674380  68.9930837  47.9436608  59.4928674
  68.3770837  47.5846608  58.4938674  70.3280837  47.9296608  59.5568674
  70.7746957  48.2796433  60.3924207  71.1800837  47.4686608  58.4528674
  70.6100736  46.8193723  57.7883283  71.6920837  48.6676608  57.6458674
  72.2729414  49.3072997  58.3103714  72.3316624  48.3041635  56.8415609
  70.5750837  49.4866608  57.0418674  70.1140837  49.1966608  55.9468674
  70.1390837  50.5186608  57.7518674  69.3937634  51.0970297  57.3911920
  70.5544050  50.7213885  58.6499267  72.3620837  46.6486608  58.9808674
  73.5120837  46.8966608  58.6178674  72.0620837  45.6626608  59.8268674
  71.0959238  45.5261340  60.0876255  73.0850837  44.8056608  60.4578674
  73.7979366  45.4251559  61.0020786  72.4380837  43.8216608  61.4428674
  71.6309207  43.3150510  60.9137799  73.1999235  43.0946462  61.7242034
  71.8860837  44.4846608  62.6918674  72.7183263  44.6750834  63.3695195
  71.4322491  45.4315984  62.3995570  70.8510837  43.6226608  63.3918674
  70.2045593  43.1618408  62.6450408  71.3591805  42.8446331  63.9616130
  70.0210837  44.4116608  64.3098674  69.0993453  44.6490348  63.9720047
  70.3800837  44.8266608  65.5288674  71.5860837  44.5536608  66.0328674
  72.2492905  44.0217265  65.4876126  71.8295674  44.8803471  66.9570381
  69.5160837  45.5316608  66.2548674  68.6027232  45.7453134  65.8804010
  69.7776065  45.8498911  67.1770572  73.9370837  44.0266608  59.4568674
  75.1150837  43.7706608  59.7218674  73.3460837  43.6496608  58.3218674
  72.3433297  43.7357053  58.2371325  74.0840837  42.9776608  57.2368674
  74.5484363  42.0718245  57.6266577  73.1500837  42.5896608  56.0638674
  73.6660458  41.9532946  55.3448956  72.2936407  42.0540306  56.4733863
  72.5990837  43.7536608  55.2898674  71.5890837  44.5636608  55.7708674
  71.3030837  45.4916608  54.8718674  70.5341535  46.2385075  55.0695166
  72.0810837  45.3056608  53.8198674  72.0838440  45.8624171  52.9771844
  72.8970837  44.2226608  54.0528674  73.6112419  43.9049256  53.2931808
  75.2970837  43.7766608  56.7408674  76.3170837  43.1896608  56.3878674
  75.1860837  45.1046608  56.7428674  74.2931687  45.5266520  56.9543513
  76.3000837  45.9826608  56.3788674  76.7870733  45.6059557  55.4794044
  75.7980837  47.4076608  56.1048674  75.3743822  47.7046007  57.0642437
  76.6702978  48.0240322  55.8870858  74.7490837  47.5986608  55.0018674
  73.8386709  47.0618514  55.2684853  74.4380837  49.0786608  54.8498674
  75.3479852  49.6161016  54.5827801  73.6927788  49.2152427  54.0663071
  74.0501423  49.4675044  55.7913569  75.2000837  47.0086608  53.6708674
  75.3771257  45.9395451  53.7881163  74.4252086  47.1680128  52.9210163
  76.1209079  47.4958863  53.3502537  77.4030837  46.0206608  57.4448674
  78.5640837  46.2576608  57.1188674  77.0370837  45.7906608  58.7068674
  76.0589018  45.6396887  58.9080313  77.9810837  45.8456608  59.8348674
  78.8810851  46.3865856  59.5424685  77.3370837  46.5716608  61.0248674
  76.2986057  46.2547131  61.1208191  77.8682918  46.3598131  61.9527891
  77.3180837  48.0586608  60.8728674  76.3080837  48.6816608  60.1538674
  75.5174465  48.0786514  59.7073560  76.2990837  50.0616608  60.0008674
  75.4990485  50.5430255  59.4384331  77.3100837  50.8286608  60.5648674
  77.3065093  51.9120266  60.4448444  78.3240837  50.2146608  61.2808674
  79.1184158  50.8122345  61.7281283  78.3270837  48.8376608  61.4278674
  79.1276904  48.3507490  61.9846850  78.5420837  44.5046608  60.3068674
  79.5490837  44.4946608  61.0098674  77.9130837  43.3896608  59.9368674
  77.1019427  43.4409625  59.3372694  78.3050837  42.0776608  60.4668674
  78.3034252  42.1087184  61.5564232  77.3300837  40.9856608  60.0058674
  76.3505400  41.2406054  60.4103380  77.2951837  41.0275050  58.9172301
  77.7110837  39.5776608  60.4478674  78.3396050  39.1438933  59.6701093
  78.2835933  39.6628346  61.3714909  76.4990837  38.6796608  60.6818674
  75.6705255  39.0620425  60.0857345  76.7508748  37.6726218  60.3493419
  76.0920837  38.6426608  62.1548674  76.9484049  38.2823210  62.7249287
  75.8576720  39.6630135  62.4582329  74.9140837  37.7626608  62.4168674
  75.1312391  36.8170468  62.1362298  74.6940789  37.7792416  63.4024753
  74.1203730  38.0966397  61.8890603  79.7510837  41.7046608  60.1088674
  80.1210837  41.6896608  58.9358674  80.5450837  41.4246608  61.1478674
  80.1618375  41.5945676  62.0667544  81.9640837  41.0376608  61.0428674
  82.4019743  40.9753419  62.0390940  82.1070837  39.6646608  60.3548674
  81.6658945  39.7534346  59.3621084  83.1680976  39.4332743  60.2610065
  81.4110837  38.5496608  61.1208674  81.5880837  38.4726608  62.3618674
  80.6980837  37.7386608  60.4818674  82.8880837  42.0836608  60.3888674
  83.9160837  41.7296608  59.8108674  82.5370837  43.3626608  60.5138674
  81.6849452  43.5976928  61.0024563  83.3260837  44.4506608  59.9308674
  84.0251166  44.0466409  59.1985968  82.4150837  45.4636608  59.2308674
  81.7898375  45.9051766  60.0069023  83.0682589  46.2291734  58.8119966
  81.5320837  44.8946608  58.1318674  80.8707299  44.1555302  58.5839712
  80.9376000  45.7122969  57.7242374  82.3290837  44.2446608  57.0168674
  83.0907269  44.9470221  56.6782125  82.8104087  43.3489479  57.4094539
  81.4340837  43.8676608  55.8498674  80.5413072  43.3821130  56.2439410
  81.1495135  44.7801015  55.3258723  82.1230837  42.9466608  54.9038674
  82.3864743  42.1009287  55.3891121  81.4998772  42.7179223  54.1426891
  82.9501477  43.3965516  54.5382686  84.1630837  45.1786608  60.9808674
  83.8940837  45.0986608  62.1838674  85.1820837  45.8826608  60.4928674
  85.3893889  45.8013640  59.5077203  86.0270837  46.7466608  61.3078674
  85.9554879  46.5066474  62.3687005  87.5070837  46.6496608  60.8788674
  87.5902933  46.9480880  59.8338236  88.3840837  47.5596608  61.7398674
  88.3017503  47.2615313  62.7850664  89.4222533  47.4742510  61.4189163
  88.0542405  48.5927517  61.6301944  87.9760837  45.2016608  60.9538674
  87.3687290  44.5875770  60.2889438  89.0210611  45.1414466  60.6497356
  87.8743956  44.8387760  61.9766455  85.5170837  48.1776608  61.1428674
  85.5690837  48.7226608  60.0438674  85.0230837  48.7666608  62.2318674
  85.0497663  48.2639440  63.1074605  84.4120837  50.0996608  62.2138674
  84.2790146  50.4778748  61.2002866  83.0380837  50.0946608  62.9238674
  83.1797370  49.7705764  63.9548877  82.4050837  51.4846608  62.9098674
  82.2626847  51.8092510  61.8791082  81.4403200  51.4502295  63.4159760
  83.0598805  52.1878556  63.4245128  82.1120837  49.0716608  62.2808674
  82.5556505  48.0791249  62.3597543  81.1493412  49.0804703  62.7918946
  81.9672900  49.3218618  61.2298988  85.3310837  51.1166608  62.8958674
  85.8900837  50.8336608  63.9588674  85.4840837  52.2896608  62.2738674
  85.1062136  52.3965338  61.3433344  86.1930837  53.4256608  62.8708674
  86.6942157  53.1090727  63.7856012  87.2450837  53.9706608  61.8998674
  87.9273969  53.1289942  61.7809330  86.7434957  54.1677832  60.9524223
  88.0370837  55.2146608  62.3278674  87.3389624  56.0275122  62.5278674
  88.8480837  54.9256608  63.5778674  89.5468033  54.1131709  63.3784935
  89.4027043  55.8185862  63.8662785  88.1779838  54.6373862  64.3877836
  88.9410837  55.6946608  61.2048674  88.3364737  55.9471147  60.3337686
  89.4913699  56.5766607  61.5325296  89.6448251  54.9050303  60.9415599
  85.1910837  54.5266608  63.2168674  84.4900837  55.0266608  62.3308674
  85.1260837  54.8956608  64.4978674  85.6227487  54.3501129  65.1876506
  84.3180837  56.0316608  64.9588674  83.5676857  56.2829752  64.2093055
  83.6030837  55.6756608  66.2678674  83.0182859  54.7754469  66.0788548
  84.3687314  55.4610482  67.0134042  82.6750837  56.7906608  66.7908674
  82.5390837  57.8866608  66.1808674  82.0680837  56.5526608  67.8568674
  85.2240837  57.2556608  65.1338674  86.0350837  57.3066608  66.0548674
  85.0780837  58.2326608  64.2438674  84.3883472  58.1338162  63.5127090
  85.9170837  59.4296608  64.2478674  86.9036485  59.2312549  64.6667042
  86.0910837  59.9876608  62.8168674  85.1036641  60.1117285  62.3722228
  86.8160837  61.3266608  62.8238674  87.8038324  61.2032900  63.2679769
  86.9207715  61.6890907  61.8012309  86.2433675  62.0474728  63.4074150
  86.8410837  58.9816608  61.9598674  86.2783234  58.0491626  61.9168555
  86.9610480  59.3798349  60.9523132  87.8226399  58.7933259  62.3948136
  85.2880837  60.4756608  65.1708674  84.2410837  61.0456608  64.8448674
  85.9360837  60.7276608  66.3078674  86.8316517  60.2914977  66.4746582
  85.4000837  61.6146608  67.3288674  86.2076776  61.9513249  67.9789047
  84.9337053  62.4773563  66.8531081  84.3640837  60.8926608  68.1638674
  83.1830837  61.2336608  68.1318674  84.8140837  59.8966608  68.9218674
  85.8097789  59.7440637  68.9953832  83.9110837  58.9226608  69.5528674
  83.0654657  58.7206919  68.8954193  84.6540837  57.5996608  69.8198674
  84.0297378  56.9759376  70.4596024  84.8148343  57.0954335  68.8669697
  85.9040837  57.8236608  70.4528674  86.3409516  56.9824896  70.6051084
  83.2010837  59.4056608  70.8238674  82.1790837  58.8306608  71.2008674
  83.7450837  60.4386608  71.4748674  84.6392787  60.7894189  71.1626440
  83.1050837  61.0896608  72.6238674  83.7499150  61.9117471  72.9344570
  82.1490178  61.4872047  72.2832852  82.8640837  60.1716608  73.8148674
  83.8140837  59.6466608  74.3948674  81.5910837  59.9726608  74.1688674
  80.8584922  60.4774194  73.6907171  81.2140837  59.0656608  75.2568674
  81.8979150  59.1760509  76.0984658  79.7730837  59.3246608  75.7538674
  79.5314563  58.5882516  76.5202994  79.6350837  60.7186608  76.3318674
  79.8761192  61.4556767  75.5658328  78.6111427  60.8714190  76.6729082
  80.3185879  60.8330087  77.1732040  78.8500837  59.1536608  74.6738674
  77.9572474  59.3154683  74.9873351  81.3020837  57.5846608  74.8728674
  81.1650837  56.7196608  75.7438674  81.5070837  57.2956608  73.5848674
  81.6438452  58.0555661  72.9337610  81.5430837  55.9276608  73.0708674
  82.2644377  55.8953677  72.2543475  81.8784205  55.2754348  73.8772482
  80.1990837  55.4346608  72.5628674  80.0790837  54.2686608  72.2048674
  79.1950837  56.3156608  72.5118674  79.3619482  57.2663946  72.8091227
  77.8110837  55.9176608  72.1818674  77.4951257  55.0828636  72.8074739
  76.7990837  57.0956608  72.3368674  76.8797099  57.4800723  73.3536405
  77.0700837  58.2256608  71.3418674  76.9891753  57.8420942  70.3247975
  76.3405641  59.0221827  71.4883417  78.0738741  58.6189752  71.5025153
  75.3430837  56.6236608  72.1828674  74.7151011  57.5106082  72.2669085
  75.2522442  56.2085797  71.1790968  74.8970837  55.5916608  73.1978674
  74.9872071  56.0062098  74.2019225  73.8582794  55.3208672  73.0090403
  75.5243523  54.7041817  73.1141122  77.6800837  55.2566608  70.8048674
  77.0480837  54.2036608  70.6888674  78.2930837  55.8466608  69.7808674
  78.7758145  56.7245520  69.9088410  78.1920837  55.3006608  68.4248674
  77.1690203  54.9692090  68.2471593  78.5600837  56.3456608  67.3638674
  79.6199304  56.5206016  67.5488539  78.4325822  55.9013368  66.3767405
  77.8020837  57.6816608  67.4258674  78.0095230  58.1608873  68.3826389
  78.2390837  58.6026608  66.2908674  78.0315211  58.1242770  65.3337020
  77.6905538  59.5425138  66.3532540  79.3078476  58.8001596  66.3735618
  76.2940837  57.4886608  67.3988674  75.9889164  56.8867549  68.2548357
  75.8020461  58.4602098  67.4446132  76.0087404  56.9804680  66.4777712
  79.0350837  54.0316608  68.2618674  78.6660837  53.1506608  67.4818674
  80.1480837  53.9366608  68.9948674  80.4563820  54.7295239  69.5393117
  80.9600837  52.7106608  69.0268674  81.2940773  52.4765089  68.0160655
  82.1890837  52.8666608  69.9238674  81.8957545  53.2317010  70.9081452
  82.7044051  51.9120183  70.0297054  83.4140837  54.0286608  69.3058674
  84.2678872  53.8802611  70.3147754  80.1690837  51.5226608  69.5368674
  80.2670837  50.4256608  68.9838674  79.4070837  51.7486608  70.6048674
  79.4400874  52.6504485  71.0585071  78.6080837  50.6936608  71.2198674
  79.1993276  49.7805650  71.2890480  78.1610837  51.0976608  72.6338674
  77.6504020  52.0580582  72.5635806  77.4639202  50.3416087  72.9950438
  79.3330837  51.2146608  73.6058674  79.9097056  50.2948970  73.5076700
  79.9343102  52.0578570  73.2657954  78.8960837  51.4586608  75.3398674
  78.0030837  53.0116608  75.2358674  77.1417294  52.8927729  74.5785750
  77.6635556  53.3034017  76.2297027  78.6607651  53.7834843  74.8360613
  77.4230837  50.2976608  70.3378674  77.0620837  49.1226608  70.3008674
  76.8370837  51.2586608  69.6218674  77.0762041  52.2275413  69.7774029
  75.8180837  50.9476608  68.6168674  75.0023151  50.4056938  69.0952945
  75.2460837  52.2166608  67.9578674  76.0957337  52.8469221  67.6952558
  74.6768902  51.9817609  67.0584560  74.3390837  53.0556608  68.8388674
  73.6280837  52.5256608  69.9198674  73.7426667  51.4697364  70.1648049
  72.7840837  53.3266608  70.6778674  72.2441841  52.9008776  71.5236320
  72.6280837  54.6656608  70.3598674  71.9680927  55.2963622  70.9554574
  73.3100837  55.2006608  69.2868674  73.1880673  56.2540161  69.0345685
  74.1510837  54.3986608  68.5288674  74.6789718  54.8185985  67.6726627
  76.3970837  50.0526608  67.5228674  75.7770837  49.0526608  67.1478674
  77.5790837  50.4166608  67.0168674  77.9869850  51.2967399  67.2982508
  78.2770837  49.6186608  65.9938674  77.6106130  49.5413512  65.1348335
  79.5600837  50.3136608  65.5538674  80.2413645  50.3903445  66.4012612
  80.0327300  49.7360711  64.7594519  79.3250665  51.3123391  65.1857536
  78.5790837  48.1926608  66.4708674  78.3890837  47.2296608  65.7228674
  79.0320837  48.0676608  67.7158674  79.2598969  48.8988891  68.2424223
  79.2900837  46.7636608  68.3308674  79.9814932  46.2263005  67.6817941
  79.9400837  46.9376608  69.6958674  79.2560904  47.4662114  70.3598609
  80.1703717  45.9588731  70.1166316  80.8600050  47.5127009  69.5901654
  78.0170837  45.9146608  68.4498674  78.0330837  44.7296608  68.1148674
  76.9230837  46.5246608  68.9068674  76.9865391  47.4665153  69.2660092
  75.6390837  45.8216608  69.0198674  75.7977721  44.8470094  69.4813562
  74.6470837  46.6156608  69.8798674  74.5814979  47.6188755  69.4587284
  73.6780612  46.1234449  69.7972905  75.0480837  46.7066608  71.3518674
  75.7481849  45.8959559  71.5536513  75.5489829  47.6635614  71.4986437
  73.8620837  46.6026608  72.3048674  74.0979347  47.1806635  73.1983919
  72.9943799  47.0383153  71.8094941  73.5520837  45.1616608  72.6988674
  72.5885842  45.1604011  73.2085414  73.4776696  44.5787666  71.7808282
  74.5870837  44.5566608  73.5898674  74.6558900  45.0963855  74.4407861
  74.3252873  43.6071931  73.8136391  75.4798750  44.5573420  73.1176149
  75.0100837  45.4576608  67.6668674  74.2580837  44.4876608  67.5838674
  75.3380837  46.2186608  66.6198674  75.8428987  47.0776527  66.7853787
  74.9150837  45.9126608  65.2458674  73.8698847  45.6124293  65.3201597
  75.0020837  47.1606608  64.3798674  76.0437757  47.4683129  64.2886088
  74.5992658  46.9455516  63.3901371  74.4256252  47.9634419  64.8395818
  75.6860837  44.7596608  64.5798674  75.3660837  44.3976608  63.4468674
  76.7000837  44.2096608  65.2578674  77.0118477  44.6609862  66.1059287
  77.3850837  42.9786608  64.8298674  77.3493099  42.3013166  65.6831108
  76.7875964  42.5684769  64.0157068  78.8300837  43.1146608  64.3648674
  79.3900837  42.1556608  63.8238674  79.4460837  44.2776608  64.5778674
  78.9489627  45.0363913  65.0220498  80.8130837  44.5196608  64.1178674
  80.8697225  44.2305824  63.0684271  81.1680837  45.9966608  64.2358674
  81.1246350  46.2988476  65.2822399  82.1751497  46.1605851  63.8524001
  80.4587919  46.5886871  63.6574997  81.8230837  43.6676608  64.8818674
  81.6570837  43.4106608  66.0678674  82.8600837  43.2276608  64.1748674
  82.9011806  43.4525525  63.1910818  83.9280837  42.3996608  64.7438674
  83.5014044  41.6048655  65.3557043  84.7510837  41.7606608  63.6118674
  84.0796279  41.0777977  63.0913442  85.0341481  42.5723285  62.9416659
  85.9990837  41.0076608  64.0518674  86.7816770  41.7348164  64.2684161
  85.7627458  40.4485499  64.9572079  86.4840837  40.0456608  62.9728674
  87.4051640  39.5756390  63.3175261  85.7211782  39.2817990  62.8225681
  86.7460837  40.7086608  61.6878674  86.0175291  40.6224024  60.9937010
  87.8530837  41.3926608  61.3708674  88.8510837  41.5566608  62.2458674
  88.7777670  41.1586910  63.1712564  89.6735486  42.0777386  61.9772988
  87.9600837  41.9336608  60.1558674  87.2093144  41.8232247  59.4893470
  88.7913567  42.4511280  59.9082555  84.8290837  43.2426608  65.6448674
  85.1400837  42.8536608  66.7728674  85.2410837  44.3926608  65.1138674
  84.9295444  44.6163024  64.1795083  86.1250837  45.3326608  65.7908674
  86.1836694  45.1022342  66.8546204  87.5310837  45.2246608  65.1878674
  87.7500534  44.1616477  65.0870970  87.4859189  45.6811169  64.1990762
  88.6270837  45.8926608  66.0048674  88.3016833  46.9053025  66.2431363
  88.7543001  45.3259790  66.9272501  89.9560837  45.9486608  65.2548674
  89.7493990  46.2947652  64.2421522  90.5918866  46.6734605  65.7633155
  90.6680837  44.6016608  65.1958674  89.9988556  43.8931358  64.7077827
  91.5667859  44.7269897  64.5919417  91.0430837  44.0836608  66.5428674
  90.2104247  43.9670493  67.1024927  91.5092746  43.1932358  66.4433209
  91.6635451  44.7398472  66.9951351  85.5740837  46.7536608  65.6198674
  85.1750837  47.1356608  64.5228674  85.5330837  47.5206608  66.7058674
  85.7399118  47.1124027  67.6062267  85.1730837  48.9406608  66.6528674
  85.1016248  49.2924941  65.6236900  83.8340837  49.2386608  67.3718674
  83.9331583  48.9790612  68.4258558  83.4730837  50.7166608  67.2438674
  83.3733768  50.9769174  66.1900999  82.5293834  50.9063248  67.7552946
  84.2584083  51.3233887  67.6946979  82.7090837  48.3646608  66.8248674
  82.9584486  47.3142777  66.9752491  81.7813889  48.5958691  67.3483410
  82.5827063  48.5586637  65.7597418  86.2980837  49.7346608  67.3098674
  86.6830837  49.4396608  68.4338674  86.8310837  50.7236608  66.5998674
  86.5276068  50.8639885  65.6468148  87.8610837  51.6126608  67.1378674
  88.0978783  51.3267679  68.1627054  89.1490837  51.5896608  66.2868674
  88.8936954  51.8199033  65.2525243  90.1550837  52.6196608  66.8048674
  90.4113250  52.3897894  67.8390822  91.0560978  52.5882479  66.1922602
  89.7154862  53.6157237  66.7527911  89.7730837  50.1846608  66.3038674
  90.2777045  50.0701104  67.2632093  88.9532183  49.4694580  66.2374958
  90.7580837  49.9286608  65.1818674  91.5785292  50.6432334  65.2478605
  91.1514559  48.9156979  65.2670957  90.2540431  50.0425834  64.2221464
  87.3030837  53.0276608  67.1748674  86.8520837  53.5376608  66.1558674
  87.3220837  53.6466608  68.3528674  87.6041865  53.1330841  69.1755195
  86.9490837  55.0486608  68.5068674  86.4453071  55.3950702  67.6044768
  86.2802831  55.1582727  69.3605596  88.1840837  55.8936608  68.7368674
  89.0590837  55.4956608  69.5048674  88.2710837  57.0376608  68.0588674
  87.5952612  57.2350010  67.3346989  89.3340837  58.0206608  68.3058674
  90.0140876  57.6226251  69.0590351  90.1290837  58.3786608  67.0338674
  89.4458140  58.7836163  66.2873730  91.2020837  59.4166608  67.3578674
  91.8860496  59.0122256  68.1040064  91.7567845  59.6614828  66.4520694
  90.7301028  60.3179499  67.7490337  90.7870837  57.1286608  66.4328674
  91.5847309  56.8249540  67.1108216  90.0264800  56.3488187  66.3950812
  91.3590837  57.3446608  65.0438674  92.1201397  58.1240959  65.0809417
  91.8066344  56.4172848  64.6864161  90.5618885  57.6479630  64.3652015
  88.7020837  59.2866608  68.8738674  87.7650837  59.8296608  68.2838674
  89.2310837  59.7456608  70.0078674  90.0069321  59.2419409  70.4133608
  88.7260837  60.9276608  70.7118674  88.2684461  61.6196628  70.0049019
  87.6640837  60.5036608  71.7428674  86.8408441  60.0737690  71.1722811
  88.1259471  59.7281329  72.3538819  87.1320837  61.6126608  72.6458674
  86.3238105  61.1874852  73.2408640  87.9349396  61.9405678  73.3061693
  86.6100837  62.7976608  71.8588674  85.5600837  62.6606608  71.1968674
  87.2580837  63.8596608  71.8898674  89.8860837  61.6466608  71.4058674
  90.6220837  61.0216608  72.1778674  90.0230837  62.9466608  71.1328674
  89.3732810  63.3725358  70.4875100  91.1090837  63.7716608  71.6718674
  91.9993054  63.1619845  71.8264615  91.4510837  64.8976608  70.6898674
  92.1890949  65.5647646  71.1353012  91.8529332  64.4752199  69.7689110
  90.0590837  65.9466608  70.1958674  90.7611185  66.7393448  69.3910709
  90.7860837  64.3636608  73.0448674  91.6890837  64.5806608  73.8538674
  89.5060837  64.6386608  73.2918674  88.8287936  64.4752439  72.5606545
  89.0320837  65.1776608  74.5708674  89.6276332  66.0449586  74.8558488
  87.5750837  65.6076608  74.4438674  87.4987263  66.3632459  73.6619724
  86.9753591  64.7397991  74.1695565  87.1010837  66.1406608  75.6598674
  86.1837126  66.4044339  75.5576234  89.1300837  64.1616608  75.7028674
  89.0890837  62.9526608  75.4658674  89.2050837  64.6746608  76.9338674
  89.2745764  65.6763371  77.0430219  89.2900837  63.8366608  78.1348674
  89.9724104  63.0059155  77.9548903  89.8100837  64.6486608  79.3298674
  90.0708926  63.9536122  80.1279811  90.7021815  65.1892773  79.0136468
  88.8420837  65.5706608  79.8038674  89.2021235  66.0581480  80.5483990
  87.9590837  63.1516608  78.4908674  87.9030837  62.3546608  79.4338674
  86.8850837  63.4576608  77.7488674  86.8996513  64.2771524  77.1586804
  85.6370837  62.6756608  77.8288674  85.2503138  62.6310104  78.8469610
  84.5380837  63.2386608  76.8808674  84.4515047  64.3109885  77.0561319
  84.8720837  62.9886608  75.4118674  84.9583715  61.9164543  75.2357185
  84.0800502  63.3968958  74.7840715  85.8165697  63.4739331  75.1657858
  83.1470837  62.6756608  77.2218674  82.5178494  62.8179742  76.3432823
  83.2690255  61.6093081  77.4119243  82.4950837  63.3296608  78.4198674
  82.3723805  64.3960233  78.2303554  81.5188132  62.8775465  78.5947609
  83.1235583  63.1873589  79.2989975  85.9200837  61.1916608  77.5228674
  85.2440837  60.3046608  78.0388674  86.9290837  60.9506608  76.6818674
  87.3073029  61.7398205  76.1776090  87.4770837  59.6156608  76.3998674
  86.7727936  59.0329855  75.8060964  88.7850837  59.7626608  75.6058674
  88.6010904  60.4150491  74.7522661  89.5350637  60.2160337  76.2540055
  89.2540837  58.5076608  75.1478674  90.0697914  58.6306800  74.6568611
  87.7420837  58.7356608  77.6318674  87.5520837  57.5266608  77.5728674
  88.1920837  59.3416608  78.7268674  88.4151006  60.3258371  78.6849180
  88.4180837  58.6256608  79.9998674  89.1644104  57.8454278  79.8504278
  88.9200837  59.5826608  81.0928674  88.1527408  60.3405832  81.2504675
  89.0459173  58.9986973  82.0045979  90.2360837  60.2596608  80.7388674
  90.9780837  59.7426608  79.8688674  90.5210837  61.3216608  81.3378674
  87.1550837  57.9286608  80.5088674  87.2220837  56.8186608  81.0408674
  86.0150837  58.5956608  80.3418674  86.0514823  59.5533302  80.0230512
  84.7160837  58.0346608  80.7008674  84.8020690  57.4664338  81.6270552
  83.6880837  59.1526608  80.9058674  83.5908164  59.7627199  80.0078328
  82.7369047  58.6641954  81.1174333  84.0710837  60.0286608  82.0678674
  83.9090837  59.5806608  83.3788674  83.4779860  58.5938818  83.5477507
  84.2860837  60.3676608  84.4588674  84.1491696  60.0093977  85.4791634
  84.8440837  61.6146608  84.2318674  85.2200837  62.4006608  85.3048674
  85.0492291  61.9843756  86.1528739  85.0220837  62.0776608  82.9398674
  85.4539178  63.0628482  82.7637265  84.6480837  61.2816608  81.8658674
  84.8042302  61.6336915  80.8461651  84.2260837  57.0106608  79.6818674
  83.6210837  56.0106608  80.0668674  84.4940837  57.2496608  78.3978674
  84.8990098  58.1345464  78.1274756  84.1410837  56.2926608  77.3398674
  83.0560630  56.1902498  77.3583412  84.5560837  56.8206608  75.9758674
  85.6409187  56.9199562  75.9388066  84.2286434  56.1264418  75.2019533
  84.0966410  57.7946639  75.8075537  84.7420837  54.9026608  77.5668674
  84.0770837  53.8966608  77.3318674  85.9880837  54.8626608  78.0338674
  86.5057228  55.7243362  78.1321762  86.6750837  53.6016608  78.3288674
  86.6172650  52.9141789  77.4849925  88.1720837  53.8266608  78.6848674
  88.2317597  54.6020923  79.4485715  88.8240837  52.5486608  79.2058674
  88.7652034  51.7728503  78.4424853  89.8695153  52.7445910  79.4441629
  88.3037923  52.2146089  80.1035354  88.9400837  54.3436608  77.4728674
  88.5091531  55.2898471  77.1455566  89.9854691  54.4948866  77.7419396
  88.8752876  53.6162682  76.6636688  85.9480837  52.8486608  79.4518674
  85.6880837  51.6556608  79.3218674  85.6180837  53.5516608  80.5338674
  85.9425774  54.5040295  80.6221674  84.8430837  52.9736608  81.6418674
  85.3275435  52.0616781  81.9907018  84.7490837  53.9566608  82.8128674
  84.3703990  54.8966139  82.4113885  84.0262680  53.5457862  83.5177216
  86.0670837  54.2056608  83.5268674  86.3431811  53.3087179  84.0812720
  86.8348678  54.4241422  82.7846575  85.9440837  55.3746608  84.4858674
  85.6893234  56.2663939  83.9131475  85.1447250  55.1579281  85.1944942
  87.2380837  55.6116608  85.2408674  87.4171507  54.7720895  85.9125486
  88.0582287  55.6863516  84.5268066  87.1530837  56.8686608  86.0308674
  86.3934509  56.7994898  86.6928893  88.0204869  57.0133766  86.5276260
  86.9875849  57.6468072  85.4086155  83.4310837  52.5546608  81.2248674
  82.9480837  51.5006608  81.6498674  82.7790837  53.3806608  80.4068674
  83.1901553  54.2759720  80.1842977  81.4330837  53.0846608  79.8938674
  80.7695720  52.8533704  80.7271477  80.8550837  54.2796608  79.0888674
  81.6295561  54.6441232  78.4139896  79.6230837  53.8776608  78.2798674
  78.8479509  53.5135026  78.9541511  79.2498551  54.7425183  77.7313944
  79.8911802  53.0897316  77.5760272  80.4790837  55.4126608  80.0498674
  79.5161077  55.1489927  80.4871969  81.2396037  55.4297536  80.8305188
  80.3840837  56.7796608  79.4088674  79.6233844  56.7634738  78.6283712
  80.1134414  57.5176168  80.1640315  81.3468805  57.0442337  78.9716909
  81.4320837  51.8006608  79.0608674  80.5920837  50.9216608  79.2728674
  82.3770837  51.7056608  78.1268674  82.9625058  52.5067468  77.9380781
  82.5420837  50.5086608  77.2888674  81.6334877  50.2690001  76.7364950
  83.7080837  50.6856608  76.2748674  84.5432753  51.1520491  76.7973961
  84.1610837  49.3556608  75.6768674  83.3264920  48.8888633  75.1537444
  84.9765682  49.5311442  74.9752328  84.5040112  48.6962401  76.4741546
  83.3020837  51.6476608  75.1668674  83.0560881  52.6175679  75.5991501
  84.1273795  51.7624359  74.4641490  82.4316956  51.2526915  74.6429165
  82.7430837  49.2526608  78.1488674  82.1260837  48.2206608  77.8848674
  83.5970837  49.3546608  79.1658674  84.1264106  50.2073544  79.2791197
  83.8470837  48.2526608  80.0988674  84.1176537  47.3528223  79.5464348
  84.9970837  48.6096608  81.0468674  85.8281390  48.9354719  80.4213329
  84.6521334  49.4451833  81.6559744  85.4600837  47.4736608  81.9568674
  84.5884677  47.0258758  82.4342299  85.9690167  46.7223964  81.3529707
  86.4120837  47.9956608  83.0258674  87.3907685  48.1294584  82.5650276
  86.0360395  48.9606890  83.3655890  86.5360837  47.0516608  84.2158674
  86.9290852  47.6110862  85.0648041  85.5456121  46.6683696  84.4611285
  87.4420837  45.9186608  83.9088674  88.3600461  46.2735889  83.6819954
  87.5054000  45.3108137  84.7129899  87.0778760  45.3999017  83.1225209
  82.5940837  47.8866608  80.9108674  82.2780837  46.7066608  81.0628674
  81.8910837  48.9006608  81.4158674  82.2314973  49.8427950  81.2870223
  80.6840837  48.7006608  82.2338674  80.9740011  48.0473429  83.0568029
  80.2060837  50.0306608  82.8118674  79.9036762  50.6924166  82.0002463
  79.3572526  49.8559982  83.4729869  81.0156127  50.4943496  83.3755649
  79.5420837  48.0116608  81.4778674  78.7420837  47.2976608  82.0858674
  79.4780837  48.2166608  80.1628674  80.1033279  48.8862646  79.7376618
  78.4630837  47.5806608  79.3188674  77.6201414  47.2477972  79.9244656
  77.9560837  48.5906608  78.2888674  78.7985870  48.9784402  77.7162291
  77.2648824  48.0811457  77.6174993  77.2340837  49.7536608  78.9348674
  76.1080837  49.6106608  79.3898674  77.8830837  50.9056608  78.9888674
  77.4424887  51.7107068  79.4106217  78.8160137  50.9745261  78.6080786
  78.9480837  46.2906608  78.6358674  78.2920837  45.7976608  77.7178674
  80.0720837  45.7396608  79.1048674  80.6077226  46.2720596  79.7754953
  80.6370837  44.4736608  78.6068674  81.6266035  44.3197533  79.0372886
  79.7430837  43.2866608  78.9948674  78.8030837  43.4082665  78.4566191
  80.2458699  42.3840459  78.6476030  79.4620837  43.1686608  80.4848674
  80.2927385  43.6197342  81.0276807  78.5450686  43.7149662  80.7056290
  79.3030837  41.7116608  80.9168674  78.8702007  41.1601430  80.0822780
  80.2951631  41.3172907  81.1367543  78.4120837  41.5576608  82.1438674
  77.3797042  41.6870942  81.8189980  78.5484834  40.5454015  82.5244270
  78.7200837  42.5396608  83.2228674  78.5933375  43.4776998  82.8705638
  78.0989878  42.3867911  84.0045135  79.6765364  42.4196068  83.5243379
  80.9410837  44.4586608  77.0988674  80.7430837  43.4426608  76.4228674
  81.4330837  45.5866608  76.5878674  81.5131507  46.3990245  77.1826395
  81.7720837  45.7286608  75.1658674  81.5654502  44.8002764  74.6334163
  80.9250837  46.8476608  74.5468674  81.0933376  47.6966143  75.2094893
  81.3070163  47.0817340  73.5531686  79.4210837  46.5566608  74.4608674
  79.0642875  46.2354072  75.4394344  78.6640837  47.8046608  74.0298674
  79.0200324  48.1262690  73.0511093  77.5984606  47.5824957  73.9733806
  78.8308326  48.6002943  74.7559959  79.1190837  45.3946608  73.5208674
  79.6200768  44.4959581  73.8806436  78.0432536  45.2223385  73.4893106
  79.4777318  45.6338566  72.5197401  83.2690837  45.9676608  74.9048674
  83.6580837  46.2326608  73.7688674  84.1040837  45.8456608  75.9378674
  83.7300403  45.7076373  76.8658439  85.5510837  46.0916608  75.7968674
  85.7023805  46.9823777  75.1870872  86.2390837  46.3066608  77.1648674
  87.3045768  46.3961626  76.9531760  85.8755224  47.2388526  77.5972349
  86.0110837  45.1656608  78.1518674  84.9240837  44.5396608  78.1308674
  86.9170837  44.9156608  78.9798674  86.3050837  45.0506608  74.9418674
  87.4150837  45.3316608  74.4828674  85.7070837  43.8736608  74.7338674
  84.8817475  43.6595603  75.2752364  86.2410837  42.8366608  73.8358674
  87.3222284  42.7676153  73.9561095  85.6190837  41.4596608  74.1608674
  86.1622306  40.6517964  73.6705147  85.6594449  41.3205824  75.2412045
  84.1770837  41.3126608  73.7618674  83.1680837  42.0936608  74.2868674
  82.0120837  41.7276608  73.7648674  81.0898877  42.2353905  74.0474695
  82.2300837  40.7276608  72.9288674  81.5301267  40.2442405  72.3843816
  83.5740837  40.4436608  72.9148674  83.9540779  39.6365711  72.2885194
  86.0610837  43.1686608  72.3468674  86.7410837  42.6016608  71.4928674
  85.1230837  44.0696608  72.0368674  84.5357751  44.4194992  72.7803598
  84.8570837  44.5306608  70.6578674  85.4301887  43.9680745  69.9208826
  83.3470837  44.4036608  70.3148674  82.7792730  44.9395086  71.0754970
  83.0200837  44.9796608  68.9338674  83.5872107  44.4439715  68.1726152
  81.9537690  44.8691598  68.7367304  83.2862281  46.0363548  68.9080492
  82.9140837  42.9496608  70.3908674  83.0843224  42.5715354  71.3989061
  81.8541466  42.8725288  70.1486205  83.4926337  42.3600784  69.6796899
  85.3220837  45.9826608  70.4238674  85.9040837  46.2836608  69.3738674
  85.0510837  46.8696608  71.3848674  84.6175565  46.5394602  72.2352327
  85.3390837  48.3046608  71.2618674  85.4848934  48.6145733  70.2270761
  84.1930837  49.1506608  71.8758674  84.0555560  48.8475586  72.9138050
  84.5130837  50.6416608  71.8198674  84.6502997  50.9456228  70.7821392
  83.6904894  51.2070426  72.2577972  85.4273646  50.8388469  72.3796082
  82.8600837  48.8676608  71.1858674  82.6091255  47.8128713  71.2978552
  82.0786460  49.4767531  71.6402475  82.9398825  49.1111157  70.1264040
  86.6460837  48.6576608  71.9758674  86.8090837  48.3346608  73.1508674
  87.5700837  49.3106608  71.2718674  87.4793756  49.3664407  70.2674970
  88.7340837  49.9456608  71.9018674  88.6853948  49.8001885  72.9810182
  90.0890837  49.4036608  71.3908674  90.8847806  50.0482464  71.7643325
  90.3270837  47.9756608  71.8668674  89.5319821  47.3303530  71.4933826
  91.2875105  47.6223384  71.4915770  90.3322281  47.9514615  72.9565869
  90.1230837  49.4426608  69.9638674  90.9667707  49.1048564  69.6545442
  88.6900837  51.4416608  71.6308674  88.3510837  51.8646608  70.5308674
  89.0350837  52.2296608  72.6438674  89.2626661  51.8079687  73.5329576
  89.0900837  53.6786608  72.5338674  88.6548839  54.0354232  71.6003681
  88.3800837  54.3576608  73.7248674  88.8536817  54.0299163  74.6502802
  88.4730837  55.8706608  73.6168674  87.9992542  56.1992192  72.6918617
  87.9660717  56.3279374  74.4665366  89.5207238  56.1715667  73.6146294
  86.9160837  53.8966608  73.8438674  86.9468683  52.8222940  74.0252211
  86.5062282  54.4007484  74.7190895  86.0390837  54.1806608  72.6408674
  86.4480766  53.6764871  71.7652913  85.0301070  53.8150969  72.8317291
  86.0074385  55.2549420  72.4591583  90.5600837  54.0946608  72.5038674
  91.3570837  53.6266608  73.3218674  90.9040837  54.9616608  71.5518674
  90.2184244  55.2028086  70.8505698  92.2280837  55.5726608  71.4648674
  92.9067737  55.1167783  72.1857351  92.8260837  55.4446608  70.0398674
  92.1086667  55.8410933  69.3213589  94.1410837  56.2196608  69.9278674
  94.8592055  55.8234645  70.6458022  94.5406843  56.1144058  68.9192339
  93.9612266  57.2738453  70.1386885  93.0440837  53.9666608  69.6808674
  93.9083439  53.6248508  70.2503593  92.1565615  53.4252425  70.0083884
  93.2770837  53.7086608  68.2068674  94.1647709  54.2494190  67.8787029
  93.4214282  52.6407966  68.0427639  92.4129887  54.0498131  67.6367316
  92.0830837  57.0486608  71.8328674  91.3030837  57.7656608  71.2038674
  92.8320837  57.4956608  72.8458674  93.3611584  56.8452793  73.4090577
  92.8600837  58.9066608  73.2098674  91.9053539  59.3642945  72.9507119
  93.1010837  59.0946608  74.7048674  92.3659179  58.4920480  75.2382418
  94.1025831  58.7272450  74.9287083  92.9830837  60.5476608  75.1468674
  93.8152768  61.1055391  74.7175339  92.0433496  60.9470633  74.7654497
  93.0120837  60.6796608  76.6558674  92.2482792  60.0274183  77.0792837
  93.9933957  60.3704400  77.0157405  92.7460837  62.1116608  77.0808674
  93.5069273  62.7582828  76.6437203  91.7628920  62.4120755  76.7186739
  92.7860837  62.2316608  78.5658674  93.6971891  61.9537461  78.9016503
  92.6073101  63.1896656  78.8311348  92.0808583  61.6328872  78.9711159
  93.9300837  59.6426608  72.4028674  95.1240837  59.4866608  72.6468674
  93.4890837  60.4476608  71.4428674  92.4995553  60.4972757  71.2467265
  94.3920837  61.2726608  70.6518674  94.8703884  61.9967074  71.3114736
  95.1517305  60.6298681  70.2070599  93.6670837  62.0146608  69.5488674
  92.4760837  61.8036608  69.3208674  94.3980837  62.8946608  68.8738674
  95.3107823  63.1549799  69.2192869  93.9120837  63.5316608  67.6488674
  92.8907109  63.8790520  67.8044824  94.7870837  64.7366608  67.2528674
  95.7326271  64.6235337  67.7831968  94.9611324  64.6568289  66.1798185
  94.1890837  66.0976608  67.5688674  93.3113244  66.2488626  66.9405542
  93.8919570  66.1146373  68.6174519  95.2010837  67.2146608  67.3078674
  95.6698899  67.4650169  68.2595194  95.9546817  66.8247550  66.6236430
  94.5680837  68.4686608  66.7068674  93.5762222  68.5881600  67.1427930
  95.1886710  69.3228934  66.9775282  94.4520837  68.3896608  65.2238674
  93.8767166  67.5984258  64.9728701  94.0297909  69.2376374  64.8735755
  95.3710974  68.2793576  64.8197063  93.9060837  62.5056608  66.5158674
  94.8540837  61.7306608  66.3778674  92.8530837  62.5216608  65.6998674
  92.0769752  63.1331675  65.9091863  92.7490837  61.6386608  64.5268674
  92.7826608  60.5841866  64.8008307  91.4440837  61.9036608  63.7408674
  91.3243679  62.9817448  63.6336192  91.4650837  61.2546608  62.3598674
  91.5843152  60.1764437  62.4663231  90.5287569  61.4669489  61.8437993
  92.2972028  61.6563707  61.7816731  90.2370837  61.4206608  64.5338674
  90.1910696  61.9505492  65.4852890  89.3272002  61.6149298  63.9660020
  90.3278114  60.3502898  64.7187330  93.9550837  61.8126608  63.6028674
  94.5220837  60.8286608  63.1248674  94.3640837  63.0636608  63.3998674
  93.8605740  63.8212041  63.8388497  95.4570837  63.3946608  62.4888674
  95.3717070  62.7982111  61.5805405  95.4130837  64.8846608  62.1048674
  95.5074919  65.4504391  63.0317338  96.2827917  65.0721738  61.4751477
  94.1450837  65.3226608  61.3668674  94.4416408  66.1546473  60.7281552
  93.8214380  64.4866737  60.7468044  92.9890837  65.7626608  62.2758674
  93.0530837  65.5266608  63.5098674  92.0010837  66.3326608  61.7458674
  96.8570837  63.0376608  63.0218674  97.8320837  63.1746608  62.2808674
  96.9580837  62.5996608  64.2838674  96.1156213  62.5426634  64.8380404
  98.2420837  62.2496608  64.9238674  99.0673131  62.4174058  64.2318000
  98.4540837  63.1286608  66.1608674  97.5542096  63.0404361  66.7695891
  99.3019031  62.7111897  66.7040250  98.7190837  64.5956608  65.8578674
  99.6866634  64.6639689  65.3606508  97.9376573  64.9384896  65.1796785
  98.7270837  65.4706608  67.1078674  98.8160837  64.9266608  68.2378674
  98.6460837  66.7156608  66.9578674  98.4080837  60.7806608  65.3498674
  99.4910837  60.4106608  65.7898674  97.3710837  59.9516608  65.2298674
  96.4871490  60.2944562  64.8816577  97.4420837  58.5556608  65.7058674
  98.3822246  58.3392719  66.2132235  96.2660837  58.1736608  66.6528674
  96.3864393  57.1361009  66.9644494  96.2510837  59.0756608  67.8838674
  96.1302867  60.1134117  67.5730910  95.4221494  58.7923248  68.5324729
  97.1900894  58.9663785  68.4264790  94.9130837  58.1916608  65.9488674
  94.9223426  57.4785993  65.1245133  94.1308867  57.9176676  66.6568188
  94.7177765  59.1915978  65.5614634  97.5360837  57.5536608  64.5538674
  97.1920837  57.8686608  63.4108674  98.0260837  56.3566608  64.8768674
  98.4221028  56.2369684  65.7982479  98.0190837  55.2076608  63.9698674
  97.6883140  55.5220912  62.9800068  99.4240837  54.6066608  63.8488674
  99.7283068  54.3292719  64.8581260  99.3232044  53.7079280  63.2404244
 100.4780837  55.5206608  63.2338674 100.5363181  56.4055395  63.8676648
 101.4279302  54.9870411  63.2676439 100.1830837  55.9426608  61.7978674
 100.6750837  57.0156608  61.3868674  99.4620837  55.2216608  61.0728674
  97.0690837  54.1556608  64.5258674  96.9310837  54.0306608  65.7398674
  96.4020837  53.4176608  63.6408674  96.4718950  53.6369018  62.6574249
  95.5330837  52.3016608  64.0468674  95.1302557  52.4938066  65.0413063
  94.3640837  52.1376608  63.0678674  94.8558772  52.0020476  62.1046190
  93.8470449  51.2186321  63.3438333  93.3500837  53.2836608  62.9668674
  93.8645624  54.1934018  62.6573778  92.2800837  52.9376608  61.9498674
  91.7648225  52.0282205  62.2589354  91.5631966  53.7560335  61.8832368
  92.7419198  52.7796355  60.9752722  92.6950837  53.6036608  64.2988674
  93.4591587  53.8961377  65.0191077  91.9868744  54.4219657  64.1687987
  92.1683622  52.7229154  64.6662240  96.3510837  51.0086608  64.1028674
  97.4120837  50.9296608  63.4908674  95.8670837  49.9946608  64.8458674
  94.6760837  49.9996608  65.7178674  93.8175653  50.3559863  65.1485886
  94.8536186  50.6660834  66.5619416  94.5330837  48.5686608  66.1398674
  93.8243614  48.0647867  65.4826592  94.1688947  48.5268809  67.1663771
  95.8890837  47.9726608  66.0338674  95.8092426  46.9069781  65.8192870
  96.4857311  48.1177163  66.9344619  96.5410837  48.6916608  64.8558674
  97.6055665  48.8764098  65.0002370  96.3330837  47.8816608  63.5688674
  97.0910837  46.9426608  63.3078674  95.2980837  48.2346608  62.8038674
  94.6588371  48.9305832  63.1604556  95.0030837  47.6206608  61.5108674
  95.6979305  46.8111250  61.2873969  93.5590837  47.0656608  61.4448674
  93.3730227  46.6665744  60.4477663  93.3790837  45.9626608  62.4728674
  93.5645410  46.3611265  63.4703300  92.3605735  45.5781137  62.4193800
  94.0827475  45.1558570  62.2678636  92.5070837  48.1556608  61.6538674
  92.6115911  48.9154913  60.8793755  91.5113500  47.7157178  61.5985116
  92.6473940  48.6138190  62.6329001  95.2450837  48.6486608  60.4108674
  95.1330837  49.8556608  60.6418674  95.5780837  48.1626608  59.2208674
  95.6363837  47.1617805  59.0986419  95.9350837  49.0216608  58.0908674
  96.6276913  49.8008660  58.4090390  96.6150837  48.1736608  57.0068674
  97.4162167  47.6307561  57.5084047  95.8604013  47.4678744  56.6598516
  97.1860837  48.9346608  55.8138674  97.5401793  48.1803077  55.1112519
  96.3698057  49.4974824  55.3610748  98.3250837  49.8816608  56.1568674
  98.6540837  50.7336608  55.3068674  98.9060837  49.7776608  57.2548674
  94.7300837  49.7766608  57.5028674  94.8560837  50.9456608  57.1258674
  93.5820837  49.0986608  57.4178674  93.5627175  48.1433347  57.7450927
  92.3450837  49.6726608  56.8698674  92.4293875  50.7589996  56.8405405
  92.0840837  49.1626608  55.4468674  91.9940912  48.0789317  55.5212436
  91.1276319  49.5859416  55.1400560  93.1450837  49.5126608  54.4188674
  94.1169774  49.2162635  54.8134205  92.9377924  48.9530276  53.5067583
  93.1570837  51.0026608  54.1078674  92.1911985  51.2755632  53.6827922
  93.3116309  51.5494193  55.0380662  94.2600837  51.3546608  53.1248674
  95.1830011  50.8656128  53.4365664  93.9786042  51.0001347  52.1333132
  94.4690837  52.8286608  53.0838674  94.7303367  53.1573127  54.0024721
  95.2045151  53.0462467  52.4266787  93.6141282  53.2819850  52.7946490
  91.1390837  49.3076608  57.7208674  91.1690837  48.3356608  58.4808674
  90.0750837  50.0946608  57.5568674  90.1866125  50.9439551  57.0217413
  88.7770837  49.8286608  58.1708674  88.7433784  48.8410966  58.6309544
  88.4040837  50.8866608  59.2408674  87.4865477  50.5787323  59.7422724
  89.5240837  51.0176608  60.2668674  90.4418980  51.3260309  59.7662420
  89.2491486  51.7638046  61.0123743  89.6831096  50.0569385  60.7565868
  88.0860837  52.2456608  58.6168674  87.2442616  52.1435500  57.9320237
  87.8301811  52.9560535  59.4029690  88.9567669  52.6076622  58.0700890
  87.7140837  49.7586608  57.0808674  87.8600837  50.3656608  56.0148674
  86.6510837  49.0116608  57.3658674  86.5993375  48.5735278  58.2744164
  85.5650837  48.7666608  56.4138674  85.9610635  48.7396822  55.3986968
  84.8880837  47.4226608  56.7118674  84.4470966  47.4910201  57.7063304
  84.0995619  47.2695346  55.9750596  85.8610837  46.2476608  56.6668674
  86.5360837  46.0716608  55.6228674  85.9400837  45.5016608  57.6738674
  84.5180837  49.8726608  56.4578674  83.9480837  50.2306608  55.4338674
  84.2510837  50.3916608  57.6548674  84.7565697  50.0538299  58.4613744
  83.2300837  51.4146608  57.8568674  82.9276561  51.8644617  56.9111846
  81.9860837  50.8336608  58.5728674  82.2883258  50.4365316  59.5419074
  80.9270837  51.9196608  58.7748674  80.6239868  52.3169737  57.8061697
  80.0601451  51.4931188  59.2794266  81.3417203  52.7235490  59.3830938
  81.4150837  49.6446608  57.7838674  81.0528320  50.0405709  56.8351158
  82.2441044  48.9615202  57.5990888  80.2950837  48.9016608  58.4808674
  79.4654602  49.5840882  58.6655768  79.9555820  48.0801819  57.8499869
  80.6567325  48.5050392  59.4295514  83.7980837  52.5666608  58.6838674
  84.5090837  52.3436608  59.6618674  83.4940837  53.7916608  58.2688674
  83.1243910  53.9200488  57.3377696  83.7240837  54.9746608  59.0908674
  84.2500935  54.6898643  60.0020775  84.5330837  56.0626608  58.3478674
  84.1229471  56.1802183  57.3448377  84.4610837  57.4036608  59.0898674
  84.8714971  57.2870005  60.0928888  85.0383380  58.1516648  58.5463895
  83.4221928  57.7263579  59.1582142  85.9940837  55.6136608  58.2038674
  86.4040392  55.5519275  59.2119479  85.9740619  54.6188707  57.7587928
  86.8630837  56.5276608  57.3598674  86.8839674  57.5225856  57.8046015
  87.8763603  56.1283034  57.3164684  86.4539884  56.5895305  56.3514464
  82.3630837  55.5146608  59.5278674  81.4680837  55.6956608  58.7048674
  82.2250837  55.7646608  60.8268674  82.9336163  55.4346802  61.4665500
  81.0510837  56.4286608  61.3788674  80.3946079  56.7641136  60.5759913
  80.2560837  55.5196608  62.3498674  79.4156896  56.0828023  62.7557117
  79.7340837  54.2826608  61.6168674  80.5739881  53.7187232  61.2111142
  79.1780198  53.6548222  62.3130803  79.0777567  54.5917397  60.8033539
  81.0970837  55.0926608  63.5638674  81.9864440  54.5916447  63.1816083
  81.3903524  56.0009633  64.0902509  80.3690837  54.1696608  64.5178674
  80.0758866  53.2608732  63.9922817  81.0266825  53.9124375  65.3482284
  79.4797932  54.6701913  64.9009226  81.5290837  57.7066608  62.0548674
  82.6050837  57.7306608  62.6598674  80.7580837  58.7796608  61.9198674
  79.9172639  58.7477654  61.3612047  81.1250837  60.0446608  62.5448674
  81.4597618  59.8594318  63.5655437  82.2530837  60.7396608  61.7788674
  83.0817261  60.0423737  61.6554098  81.8841423  61.0419038  60.7987494
  82.7010837  61.8866608  62.4908674  83.4076477  62.3123416  61.9997839
  79.9560837  60.9966608  62.6368674  79.1830837  61.1376608  61.6898674
  79.8400837  61.6416608  63.7908674  80.3099647  61.2880371  64.6120017
  78.9910837  62.8016608  63.9338674  78.3551054  62.9009837  63.0542279
  78.1020837  62.6736608  65.1658674  77.7933235  61.6309204  65.2397515
  78.7065784  62.9354575  66.0342848  76.8730837  63.5626608  65.1188674
  76.5140625  63.6339307  64.0921614  76.1138265  63.0825533  65.7362202
  77.1530837  64.9516608  65.6528674  76.9640837  65.1596608  66.8768674
  77.5900837  65.8166608  64.8588674  79.9230837  64.0056608  63.9778674
  80.5500837  64.2866608  64.9928674  80.0030837  64.6876608  62.8388674
  79.3667729  64.4274009  62.0989535  80.9840837  65.7486608  62.5728674
  81.6573529  65.8588584  63.4229641  81.8170837  65.3896608  61.3288674
  82.4602107  66.2222656  61.0438128  82.4304948  64.5151838  61.5459314
  80.9910837  65.0466608  60.1138674  80.6100837  63.8006608  59.7138674
  80.9412889  62.9653708  60.3308711  79.8590837  63.8776608  58.5698674
  79.4643654  63.0919626  58.0729013  79.7350837  65.1906608  58.2068674
  79.0700837  65.7656608  57.1198674  78.5519763  65.1100770  56.4199580
  79.1130837  67.1346608  57.0028674  78.6057059  67.6201738  56.1692339
  79.8010837  67.9296608  57.9398674  79.8294694  69.0148571  57.8416704
  80.4650837  67.3536608  59.0188674  80.9847652  68.0111152  59.7158506
  80.4370837  65.9606608  59.1608674  80.3560837  67.1316608  62.3738674
  81.0780837  68.1276608  62.2418674  79.0250837  67.1936608  62.3708674
  78.4899206  66.3941391  62.6782190  78.3050837  68.3716608  61.9178674
  78.7984488  68.7912622  61.0411549  76.8660837  68.0096608  61.5428674
  76.4185882  67.5326919  62.4148466  76.3454120  68.9440340  61.3332305
  76.7480837  67.0846608  60.3438674  75.7656888  67.2614506  59.9059789
  77.5203321  67.3869212  59.6364968  76.9290837  65.3266608  60.7038674
  75.4360837  65.0246608  61.6428674  74.5664394  65.2579887  61.0285581
  75.3992877  63.9767909  61.9407189  75.4317837  65.6549824  62.5321241
  78.2840837  69.4376608  63.0018674  77.8520837  69.1746608  64.1238674
  78.7450837  70.6366608  62.6588674  79.1954685  70.7642234  61.7638922
  78.6220837  71.7886608  63.5398674  78.5234370  71.4460872  64.5699215
  79.5130126  72.4098525  63.4478567  77.4100837  72.6116608  63.1778674
  76.6410837  72.2526608  62.2758674  77.2470837  73.7256608  63.8828674
  77.8309379  73.9024557  64.6878253  76.2240837  74.7086608  63.5408674
  75.2396367  74.2436627  63.5932129  76.2570837  75.8976608  64.5108674
  77.2233678  76.3823668  64.3713882  75.4622743  76.5787270  64.2066853
  76.0800837  75.5356608  65.9718674  75.0040837  74.7536608  66.3928674
  74.2898348  74.3973734  65.6505688  74.8350837  74.4286608  67.7278674
  73.9868941  73.8213961  68.0439463  75.7510837  74.8826608  68.6658674
  75.5940837  74.5576608  69.9968674  74.8194983  74.0150149  70.1616476
  76.8250837  75.6586608  68.2748674  77.5443235  76.0167848  69.0114418
  76.9850837  75.9816608  66.9348674  77.8295606  76.5941688  66.6189673
  76.4730837  75.1976608  62.1068674  77.6260837  75.3716608  61.6978674
  75.3980837  75.3916608  61.3468674  74.4845366  75.2186965  61.7413473
  75.4860837  75.7496608  59.9268674  74.4927230  75.7468533  59.4781741
  76.0880837  77.1536608  59.7768674  75.7313873  77.7983190  60.5801623
  77.1760032  77.0969583  59.8131468  75.6820837  78.0026608  58.2358674
  76.3637589  79.1125535  58.5048572  76.2760837  74.7006608  59.1208674
  76.9690837  75.0306608  58.1558674  76.1620837  73.4396608  59.5518674
  75.6291348  73.3184803  60.4012083  76.8670837  72.2736608  58.9988674
  76.5499278  71.3771238  59.5315331  76.5690837  72.0866608  57.4998674
  75.4834645  72.1768859  57.4625920  77.0211883  72.9234381  56.9674153
  76.9970837  70.7646608  56.8358674  78.0864792  70.7459611  56.8047446
  76.4890837  69.5346608  57.5798674  75.3996737  69.5524222  57.6109998
  76.8226825  68.6340629  57.0643714  76.8811950  69.5368865  58.5968945
  76.5250837  70.7366608  55.3938674  76.9665518  71.5719265  54.8502347
  76.8306373  69.7992331  54.9291442  75.4385579  70.8186833  55.3650090
  78.3770837  72.2326608  59.2738674  78.8600837  71.2696608  59.8808674
  79.1140837  73.2636608  58.8508674  78.6509454  74.0786458  58.4748335
  80.5880837  73.2116608  58.8018674  80.9331201  72.1784345  58.8405009
  81.0740837  73.8416608  57.4918674  80.7421182  74.8784063  57.4365783
  82.1617847  73.8052554  57.4311930  80.5500837  73.1546608  56.2568674
  80.8490837  71.8216608  56.0108674  81.4649685  71.2749935  56.7249688
  80.3740837  71.1836608  54.8718674  80.6189102  70.1365114  54.6939945
  79.5930837  71.8736608  53.9658674  79.2184743  71.3738319  53.0725932
  79.2860837  73.2046608  54.1948674  78.6688645  73.7526119  53.4829052
  79.7640837  73.8396608  55.3298674  79.5271982  74.8885672  55.5081382
  81.3570837  73.8276608  59.9868674  82.5810837  73.7016608  60.0418674
  80.6700837  74.4686608  60.9348674  79.6714780  74.5934558  60.8493568
  81.3520837  75.0746608  62.0878674  82.1130095  75.7705745  61.7346037
  80.3660837  75.8376608  62.9768674  79.7948993  76.5036017  62.3300520
  79.6976722  75.0971081  63.4160801  81.0190837  76.6426608  64.0778674
  81.8000837  77.7576608  63.7808674  81.9362886  78.0409943  62.7371865
  82.4000837  78.5036608  64.7868674  83.0051119  79.3755896  64.5383058
  82.2210837  78.1416608  66.1058674  82.8240837  78.8826608  67.0908674
  83.3371664  79.6173869  66.7465951  81.4490837  77.0396608  66.4288674
  81.3067153  76.7537450  67.4710209  80.8550837  76.2976608  65.4188674
  80.2473053  75.4275680  65.6671498  82.0910837  73.9946608  62.8888674
  81.6350837  72.8536608  62.9618674  83.2420837  74.3686608  63.4498674
  83.4824954  75.3469866  63.3778941  84.2290837  73.4466608  64.0518674
  84.8989282  74.0311524  64.6825632  83.5970837  72.3316608  64.9058674
  83.1043989  71.6538164  64.2088108  84.4230143  71.8135778  65.3932365
  82.5980837  72.7926608  65.9558674  83.1217255  73.4244938  66.6732844
  81.8290327  73.3773145  65.4510509  81.9530837  71.6316608  66.6828674
  82.6900837  70.7046608  67.0968674  80.7120837  71.6496608  66.8448674
  85.1920837  72.8126608  63.0378674  86.2880837  72.4136608  63.4218674
  84.7860837  72.7116608  61.7688674  83.8334375  72.9737838  61.5594490
  85.6060837  72.1426608  60.6888674  85.0124707  72.0788407  59.7769190
  86.8380837  73.0136608  60.4118674  87.5019446  72.9725506  61.2754054
  87.3572770  72.6240736  59.5362189  86.4570837  74.3496608  60.1758674
  87.2388513  74.8798569  60.0046031  86.0140837  70.6956608  60.9538674
  87.1450837  70.2956608  60.6708674  85.0790837  69.9166608  61.4918674
  84.1859907  70.3064186  61.7575231  85.3410837  68.5156608  61.7998674
  86.3799095  68.3980621  62.1082678  84.4380837  68.0256608  62.9298674
  84.3159345  68.8456581  63.6375278  83.4702869  67.7730774  62.4966573
  85.0000837  66.8156608  63.6508674  85.2088908  66.0493708  62.9043421
  85.9306452  67.1162973  64.1322977  83.8880837  66.1476608  64.8848674
  84.3070837  64.4066608  64.7768674  85.3624464  64.2710615  65.0133448
  83.7010533  63.8419423  65.4853311  84.1126945  64.0476538  63.7662102
  85.2040837  67.6036608  60.5818674  85.7230837  66.4936608  60.6038674
  84.5210837  68.0496608  59.5248674  83.9797283  68.9005746  59.5794507
  84.4860837  67.2806608  58.2728674  84.0437178  66.3034698  58.4665407
  83.6600837  67.9866608  57.1918674  82.6952230  68.1443035  57.6738340
  84.1310213  68.9505398  56.9988519  83.4530837  67.2426608  55.8628674
  84.4160753  67.1689104  55.3575864  82.8850837  65.8446608  56.0798674
  81.9218100  65.9176240  56.5847227  82.7534456  65.3518470  55.1165882
  83.5733061  65.2635388  56.6936652  82.5380837  68.0366608  54.9508674
  82.9832914  69.0104935  54.7470551  82.4009575  67.4971248  54.0137449
  81.5713487  68.1739177  55.4353083  85.9000837  67.0176608  57.7518674
  86.1850837  65.9156608  57.2898674  86.7690837  68.0246608  57.8628674
  86.4342271  68.9131223  58.2072602  88.1840837  67.9146608  57.4778674
  88.2601455  67.7916025  56.3975108  88.9640837  69.1756608  57.8848674
  88.9386463  69.2785250  58.9697043  89.9955421  69.0472365  57.5566892
  88.4110837  70.4486608  57.2628674  87.2090837  70.7186608  57.3328674
  89.2890837  71.2456608  56.6688674  88.9767717  72.1046073  56.2390165
  90.2659897  70.9899958  56.6490972  88.8710837  66.6946608  58.1118674
  89.6850837  66.0216608  57.4698674  88.5480837  66.4366608  59.3778674
  87.9716510  67.1000978  59.8755379  89.0480837  65.2726608  60.1038674
  90.1305586  65.2009481  59.9980156  88.7040837  65.3726608  61.6088674
  87.6208738  65.4357905  61.7126512  89.2190837  64.1606608  62.3808674
  90.3023506  64.0971316  62.2779284  88.9601880  64.2636164  63.4346569
  88.7629771  63.2545623  61.9820530  89.2930837  66.5576608  62.1558674
  89.0794421  66.6194196  63.0897536  88.5070837  63.9586608  59.5268674
  89.2570837  62.9976608  59.3878674  87.2140837  63.9226608  59.2028674
  86.6255762  64.7114935  59.4298060  86.5870837  62.7346608  58.5978674
  86.7951492  61.8427264  59.1888505  85.0460837  62.8916608  58.4608674
  84.8407328  63.8136652  57.9169574  84.4250837  61.7126608  57.7158674
  84.6296338  60.7902880  58.2594561  83.3474417  61.8574058  57.6394677
  84.8541685  61.6473131  56.7160086  84.3970837  63.0296608  59.8288674
  84.7971725  63.9085597  60.3344046  83.3189636  63.1383803  59.7108133
  84.6091824  62.1411163  60.4235133  87.2180837  62.4206608  57.2328674
  87.4400837  61.2546608  56.9128674  87.5130837  63.4606608  56.4468674
  87.2530156  64.3918038  56.7391628  88.1440837  63.2946608  55.1308674
  87.5954743  62.5453036  54.5602618  88.1470837  64.6136608  54.3358674
  88.8098633  65.2282381  54.9450613  88.6228904  64.4073865  53.3771396
  86.8250837  65.3636608  54.1008674  86.4506839  65.7290613  55.0571143
  87.0370837  66.5376608  53.1578674  87.4110652  66.1729779  52.2011840
  86.0907014  67.0560160  53.0036948  87.7616603  67.2266906  53.5918342
  85.7200837  64.4586608  53.5748674  85.5280541  63.6628847  54.2945649
  84.8111269  65.0419992  53.4278470  86.0286262  64.0220824  52.6249728
  89.5710837  62.7596608  55.2668674  89.9920837  61.8976608  54.4888674
  90.3110837  63.2766608  56.2488674  89.9797366  64.0893210  56.7487592
  91.6360837  62.7386608  56.5928674  92.2965861  62.8119505  55.7288857
  92.2600837  63.5246608  57.7558674  92.3550708  64.5563745  57.4172770
  91.5590372  63.4794060  58.5892855  93.6140837  63.0146608  58.2068674
  93.7210837  61.9046608  59.0568674  92.8081123  61.4150612  59.3957994
  94.9540837  61.4286608  59.4658674  95.0207594  60.5520330  60.1102120
  96.1080837  62.0686608  59.0458674  97.3320837  61.5996608  59.4688674
  97.2621131  60.8342698  60.0440895  96.0330837  63.1746608  58.2138674
  96.9425351  63.6785680  57.8866424  94.7920837  63.6406608  57.7968674
  94.7282982  64.5077559  57.1394653  91.5480837  61.2496608  56.9438674
  92.3650837  60.4516608  56.4708674  90.5630837  60.8966608  57.7728674
  89.9886277  61.6207343  58.1800739  90.3240837  59.5086608  58.1798674
  91.2536520  59.1323927  58.6069790  89.2390837  59.4456608  59.2448674
  88.2998185  59.8107450  58.8294225  89.1131638  58.4146630  59.5754548
  89.5259470  60.0663819  60.0936984  89.9580837  58.6066608  57.0068674
  90.3980837  57.4576608  56.9408674  89.1560837  59.1406608  56.0878674
  88.7718425  60.0589827  56.2585803  88.7610837  58.4396608  54.8658674
  88.3200065  57.4739379  55.1127062  87.7220837  59.2726608  54.1018674
  86.8568540  59.3496220  54.7603153  88.1668372  60.2590728  53.9703928
  87.2820837  58.7286608  52.7458674  88.1430426  58.2848427  52.2459913
  86.5193979  57.9655320  52.9009380  86.7160837  59.8406608  51.8848674
  86.2827193  59.4006759  50.9866984  85.9382177  60.3565925  52.4477513
  87.7320837  60.8166608  51.4858674  88.6916860  60.5702934  51.6822495
  87.4830837  61.9876608  50.8908674  86.2370837  62.3736608  50.6108674
  85.4601737  61.7743165  50.8502357  86.0764228  63.2634550  50.1608075
  88.4940837  62.7906608  50.5688674  89.4424271  62.5113020  50.7755159
  88.3084779  63.6758336  50.1192918  89.9590837  58.1426608  53.9648674
  90.1310837  57.0056608  53.5298674  90.7640837  59.1656608  53.6818674
  90.5674058  60.0748722  54.0752524  91.9250837  59.0286608  52.7868674
  91.5921721  58.6358017  51.8261745  92.6260837  60.3806608  52.5498674
  92.8945169  60.7766173  53.5292863  93.5321550  60.1914707  51.9742442
  91.7540837  61.3996608  51.8088674  90.7500837  61.0236608  51.1618674
  92.0950837  62.5986608  51.8728674  92.9550837  58.0506608  53.3448674
  93.5340837  57.2716608  52.5958674  93.1700837  58.0946608  54.6578674
  92.6408786  58.7405157  55.2261214  94.1940837  57.2796608  55.3068674
  95.0848404  57.2290647  54.6806951  94.5770837  57.8986608  56.6528674
  94.7644942  58.9569433  56.4711681  93.7119820  57.7904971  57.3070843
  95.7940837  57.2756608  57.3158674  95.5688803  56.2361649  57.5542631
  96.6308816  57.3148774  56.6184912  96.1610837  58.0186608  58.5888674
  96.5127757  59.0129194  58.3134376  95.2640613  58.1079544  59.2016290
  97.2440837  57.2986608  59.3778674  97.1009535  57.5195617  60.4356089
  97.1325822  56.2270328  59.2127003  98.6070837  57.7246608  58.9628674
  98.7107568  58.7175502  59.1162366  99.2960864  57.2260783  59.5076525
  98.7400690  57.5196661  57.9828719  93.7560837  55.8266608  55.5128674
  94.5170837  54.9046608  55.2058674  92.5410837  55.6336608  56.0308674
  91.9106226  56.4172384  56.1237341  92.1100837  54.3286608  56.5468674
  92.9260157  53.6094847  56.4751735  91.7010837  54.4586608  58.0138674
  90.9595706  55.2523574  58.1049890  91.2805930  53.5247404  58.3868020
  92.8180837  54.8146608  58.9238674  94.0030837  54.1526608  59.0728674
  94.1535830  53.2698057  58.4515649  94.7780837  54.7746608  60.0158674
  95.6995558  54.4828982  60.3088920  94.0940837  55.8566608  60.5028674
  94.4600837  56.7896608  61.4738674  95.4336329  56.6912822  61.9540989
  93.5580837  57.7826608  61.7638674  93.8077787  58.5341947  62.5128328
  92.3110837  57.8546608  61.1138674  91.5998621  58.6451678  61.3533709
  91.9520837  56.9286608  60.1558674  90.9777070  57.0326286  59.6784981
  92.8510837  55.9066608  59.8368674  90.9810837  53.6226608  55.8108674
  90.8520837  52.4166608  55.9638674  90.1470837  54.3296608  55.0518674
  90.2708039  55.3220682  54.9107287  88.9770837  53.6806608  54.4458674
  88.4709813  53.0813593  55.2027011  87.9850837  54.6976608  53.8848674
  87.8310738  55.3867826  54.7152235  88.4615073  55.2256235  53.0588069
  86.6290837  54.1416608  53.4228674  86.8096421  53.3730854  52.6713413
  85.8460837  53.5436608  54.5808674  85.6647278  54.3118069  55.3326389
  84.8929581  53.1605909  54.2162995  86.4184270  52.7292621  55.0250278
  85.8230837  55.2336608  52.7368674  86.3725586  55.6016064  51.8703844
  84.8639921  54.8292232  52.4133326  85.6541794  56.0539565  53.4344957
  89.3970837  52.7156608  53.3408674  90.0840837  53.1066608  52.3968674
  88.9750837  51.4596608  53.4718674  88.4768876  51.1921336  54.3087241
  89.2400837  50.4306608  52.4618674  90.3074794  50.3968576  52.2436405
  88.8030837  49.0606608  52.9718674  87.7344649  49.0760750  53.1861481
  89.0099871  48.3067087  52.2123626  89.3521638  48.8190865  53.8819510
  88.5110837  50.7596608  51.1578674  87.5430837  51.5216608  51.1758674
  88.9770837  50.1996608  50.0198674  90.2270837  49.4476608  49.8018674
  90.3520266  48.7180526  50.6019683  91.0689433  50.1400046  49.8074769
  90.0250837  48.8056608  48.4648674  89.6402577  47.7965836  48.6124179
  90.9836526  48.7564770  47.9483134  89.0570837  49.6526608  47.7108674
  88.4100804  48.9915541  47.1343055  89.5392520  50.3638714  47.0402014
  88.2280837  50.4056608  48.7668674  88.1840136  51.4749551  48.5600684
  86.8060837  49.8476608  48.8708674  86.6070837  48.7686608  49.4348674
  85.8350837  50.6096608  48.3688674  86.0922124  51.4888747  47.9434652
  84.4040837  50.2966608  48.5138674  83.8087694  51.1189666  48.1169880
  84.0390837  49.0076608  47.7458674  84.5405360  48.1784371  48.2448994
  82.9597063  48.8689133  47.8074584  84.4640837  49.0506608  46.2778674
  84.4340837  50.1416608  45.6678674  84.8210837  47.9846608  45.7278674
  83.9480837  50.2206608  49.9838674  82.9850837  49.5176608  50.3058674
  84.6320837  50.9596608  50.8628674  85.4380769  51.4761668  50.5408490
  84.2660837  51.0556608  52.2758674  83.9295592  50.0854998  52.6414329
  85.1231693  51.3869203  52.8621871  83.1430837  52.0586608  52.4348674
  82.9280837  52.8936608  51.5528674  82.4360837  51.9826608  53.5588674
  82.7129735  51.3212478  54.2701791  81.2350837  52.7926608  53.7918674
  80.9239322  53.2731141  52.8642638  80.0900837  51.9056608  54.2918674
  80.4080349  51.6266867  55.2964468  79.1876160  52.5138929  54.3527426
  79.7990837  50.6416608  53.4798674  80.6933623  50.0189215  53.4561506
  78.6560837  49.8626608  54.1108674  77.7612703  50.4846323  54.1345141
  78.4591258  48.9657985  53.5235461  78.9272244  49.5782596  55.1275774
  79.4860837  50.9786608  52.0298674  80.3387285  51.4898586  51.5829074
  79.2837006  50.0604727  51.4784393  78.6112261  51.6274695  51.9877927
  81.4980837  53.9106608  54.7968674  82.3410837  53.7706608  55.6818674
  80.7700837  55.0166608  54.6438674  80.1849882  55.0980478  53.8246369
  80.8200837  56.1456608  55.5768674  81.3897337  55.8525895  56.4587445
  81.4630837  57.3996608  54.9418674  80.8030867  57.7755275  54.1600563
  81.6810837  58.4886608  55.9908674  82.3414014  58.1136642  56.7728257
  82.1345344  59.3612405  55.5206677  80.7230793  58.7691779  56.4286308
  82.8100837  57.0456608  54.2968674  83.4497596  56.6601997  55.0908040
  82.6159291  56.2555090  53.5715649  83.5020837  58.2026608  53.6088674
  83.6969973  58.9930702  54.3336857  84.4451442  57.8609405  53.1822958
  82.8631652  58.5883811  52.8144476  79.3880837  56.4316608  56.0398674
  78.4630837  56.4326608  55.2258674  79.2180837  56.6466608  57.3458674
  80.0323543  56.6339664  57.9432799  77.9100837  56.8976608  57.9588674
  77.1433521  56.9656274  57.1871147  77.5470837  55.7536608  58.9098674
  78.4077935  55.4571042  59.5093106  76.7433464  56.0842691  59.5677462
  77.0540837  54.5096608  58.2188674  77.9160837  53.7296608  57.4548674
  78.9581357  54.0326541  57.3527765  77.4630837  52.5766608  56.8258674
  78.1481110  51.9789638  56.2245383  76.1410837  52.1866608  56.9628674
  75.7815520  51.2817129  56.4730653  75.2750837  52.9516608  57.7258674
  74.2331219  52.6501168  57.8330449  75.7320837  54.0996608  58.3528674
  75.0521570  54.6956236  58.9616595  77.9410837  58.2166608  58.7528674
  78.6500837  58.2966608  59.7538674  77.2180837  59.2596608  58.3318674
  77.0260837  60.4776608  59.1398674  77.9948034  60.8348193  59.4893244
  76.3941358  60.2456477  59.9971367  76.3700837  61.4316608  58.1878674
  77.1211382  62.0015713  57.6408589  75.7152629  62.1171064  58.7258965
  75.5850837  60.5506608  57.2768674  75.4612458  61.0878920  56.3365771
  74.6099723  60.2272449  57.6410919  76.4920837  59.3376608  57.0668674
  75.9722674  58.3940531  56.9010546  77.4450837  59.6006608  55.9108674
  78.6270837  59.8716608  56.1318674  76.9220837  59.5246608  54.6918674
  75.9791864  59.1797853  54.5818457  77.7140837  59.7836608  53.4828674
  78.7182209  60.0998123  53.7654553  77.8230837  58.5206608  52.6148674
  78.2891459  58.8051402  51.6714922  78.4720499  57.8230830  53.1443277
  76.4830837  57.8556608  52.3378674  75.4230837  58.5166608  52.4088674
  76.5010837  56.6436608  52.0348674  77.2520837  60.9836608  52.6398674
  77.9030837  61.3116608  51.6488674  76.1510837  61.6286608  53.0238674
  75.6272100  61.2939228  53.8198612  75.6310837  62.7766608  52.2858674
  76.4327329  63.2435540  51.7136187  74.5330837  62.3326608  51.3168674
  74.9478510  61.5184336  50.7226439  73.7103466  61.9558190  51.9244808
  74.0200837  63.4256608  50.3908674  73.5713548  64.2094794  51.0010899
  74.8674634  63.8346337  49.8406030  72.9860837  62.8936608  49.4078674
  73.4935974  62.3725136  48.5961196  72.3201058  62.2014604  49.9230678
  72.1840837  63.9816608  48.8388674  71.2752124  64.1214821  49.2566020
  72.5550837  64.7836608  47.8328674  73.7380837  64.6466608  47.2318674
  74.3749280  63.9241510  47.5360203  73.9915193  65.2660706  46.4754274
  71.7240837  65.7446608  47.4188674  70.8257234  65.8584604  47.8661910
  71.9981196  66.3528507  46.6605086  75.1080837  63.8516608  53.2368674
  74.3840837  63.5516608  54.1868674  75.5010837  65.0956608  52.9738674
  76.1887625  65.2392662  52.2482127  75.0130837  66.2596608  53.7038674
  74.1094844  66.0141301  54.2618299  76.0650837  66.7576608  54.6788674
  76.9729521  67.0161980  54.1338596  75.6907112  67.6393117  55.1990953
  76.2878864  65.9754920  55.4045879  74.6500837  67.3556608  52.7068674
  75.3390837  67.5436608  51.7018674  73.5610837  68.0656608  52.9928674
  73.0271272  67.8350031  53.8185712  73.0860837  69.1496608  52.1438674
  73.8584077  69.4136725  51.4214322  71.8090837  68.7526608  51.3768674
  71.3497458  69.6540822  50.9712218  72.1330837  67.7896608  50.2368674
  72.5920590  66.8877390  50.6418098  71.2151394  67.5253067  49.7118968
  72.8236504  68.2675840  49.5420238  70.8890837  68.1226608  52.2718674
  70.0945546  67.8760998  51.7927730  72.8040837  70.3796608  52.9988674
  72.2530837  70.2566608  54.0878674  73.1880837  71.5526608  52.4918674
  73.6520115  71.5513780  51.5947227  72.9880837  72.8306608  53.1648674
  72.6108993  72.6662372  54.1742217  74.3140837  73.5876608  53.2558674
  74.9986730  72.8324769  53.6420462  74.5954996  73.8441634  52.2345391
  74.3870837  74.8396608  54.1348674  73.6250075  75.5403888  53.7938091
  74.1590837  74.5186608  55.6038674  74.9211043  73.8182947  55.9457897
  74.2196087  75.4354721  56.1902926  73.1728966  74.0718250  55.7298561
  75.7330837  75.5276608  53.9638674  75.8637747  75.8173679  52.9212318
  75.7704723  76.4158230  54.5946378  76.5307860  74.8434448  54.2530362
  71.9710837  73.6486608  52.3738674  72.1130837  73.8156608  51.1618674
  70.9430837  74.1386608  53.0648674  70.8661857  73.9178392  54.0474273
  69.9040837  74.9656608  52.4578674  70.1052067  75.0814203  51.3928564
  68.5280837  74.3256608  52.6278674  68.3390813  74.2447625  53.6983032
  67.7953131  74.9967373  52.1797563  68.4150837  72.9656608  51.9948674
  68.8200837  71.8266608  52.6838674  69.2191354  71.9350188  53.6923890
  68.7230837  70.5726608  52.1098674  69.0453780  69.6884115  52.6597141
  68.2190837  70.4446608  50.8318674  68.1260837  69.1956608  50.2708674
  68.4369808  68.4987468  50.8533222  67.8080837  71.5576608  50.1248674
  67.4072556  71.4549266  49.1164613  67.9080837  72.8106608  50.7058674
  67.5878211  73.6944105  50.1540356  69.8860837  76.3486608  53.0838674
  70.3610837  76.5406608  54.1968674  69.3330837  77.3026608  52.3428674
  69.1257326  77.1061113  51.3741192  69.0810837  78.6496608  52.8448674
  69.1613856  78.6933101  53.9310283  70.0420837  79.7036608  52.2338674
  71.0652747  79.3645216  52.3956204  69.8020837  79.9026608  50.7368674
  68.7791682  80.2422672  50.5743488  70.4974943  80.6490553  50.3529405
  69.9582652  78.9587122  50.2146892  69.9140837  81.0276608  52.9728674
  70.1663287  80.8838143  54.0234780  70.5942111  81.7570881  52.5330240
  68.8898894  81.3918340  52.8922153  67.6210837  79.0136608  52.5718674
  67.0440837  78.5976608  51.5688674  67.0350837  79.7686608  53.4908674
  67.5170704  79.9419792  54.3613552  65.6770837  80.2836608  53.3368674
  65.4178785  80.4206603  52.2870374  64.6410837  79.3326608  53.9818674
  64.7667855  78.3433061  53.5420076  64.8140837  79.2406608  55.5098674
  64.6880515  80.2296243  55.9505109  64.0660903  78.5624695  55.9205516
  65.8106927  78.8647022  55.7412249  63.3150837  79.7716608  53.6628674
  62.6762393  79.1786595  54.0651455  65.6380837  81.6936608  53.9228674
  66.6700837  82.2056608  54.3448674  64.4690837  82.3246608  53.9228674
  63.6505684  81.8578061  53.5593035  64.3280837  83.6996608  54.4008674
  65.2173451  83.9883546  54.9611971  64.1640837  84.6496608  53.2278674
  63.2725065  84.3789175  52.6622809  64.0633094  85.6701264  53.5974546
  65.0385323  84.5829076  52.5805785  63.1420837  83.8196608  55.3298674
  62.1260837  83.1446608  55.1308674  63.2670837  84.6926608  56.3308674
  64.1165606  85.2317926  56.4193272  62.2330837  84.8556608  57.3518674
  61.2738993  84.4775524  56.9981749  62.6140837  84.1416608  58.6678674
  61.8239312  84.2984900  59.4021453  62.7890837  82.6486608  58.4218674
  63.5794433  82.4910073  57.6879889  63.0575067  82.1550142  59.3558711
  61.8557088  82.2300630  58.0454550  63.8930837  84.7406608  59.2928674
  64.7305898  84.4375600  58.6645249  63.7893274  85.8252364  59.2607754
  64.1470837  84.3006608  60.7178674  64.2514192  83.2161625  60.7506913
  65.0629391  84.7645148  61.0841291  63.3101550  84.6038371  61.3469416
  61.8970837  86.3026608  57.6888674  62.7110837  87.2156608  57.5128674
  60.6760837  86.4746608  58.1868674  59.9944725  85.7424018  58.0479350
  60.2730837  87.6586608  58.9198674  60.7171397  88.5482723  58.4732077
  58.7510837  87.7966608  58.8738674  58.4607103  87.7284893  57.8254709
  58.3416387  86.9466818  59.4197525  58.2080837  89.0906608  59.4678674
  58.8988605  89.8867953  59.1902022  57.2358920  89.2785347  59.0121857
  58.0600837  89.0536608  60.9768674  57.7390837  87.9756608  61.5228674
  58.2620837  90.1086608  61.6118674  60.7590837  87.4646608  60.3558674
  60.6620837  86.3616608  60.8988674  61.2840837  88.5276608  60.9648674
  61.3617059  89.3990615  60.4601546  61.8350837  88.4586608  62.3188674
  61.1478596  87.9350893  62.9834689  63.1720837  87.6866608  62.2838674
  63.1230626  86.9402621  61.4910338  63.9461246  88.4167775  62.0474560
  63.5040837  87.0056608  63.5998674  62.5880837  86.7196608  64.3928674
  64.6960837  86.7296608  63.8338674  62.0190837  89.8466608  62.9738674
  63.0350837  90.1026608  63.6178674  61.0200837  90.7206608  62.8398674
  60.2131282  90.4659964  62.2884437  61.0940837  92.0886608  63.3778674
  61.9835881  92.5874767  62.9930768  59.8500837  92.9066608  62.9618674
  59.9246810  93.0137752  61.8797117  58.9956607  92.2753960  63.2059288
  59.6630837  94.2896608  63.6008674  58.8971203  94.8015768  63.0183359
  59.2956328  94.1187853  64.6127387  60.9250837  95.1546608  63.6558674
  60.6632798  96.1012236  64.1287061  61.6622063  94.6349756  64.2679762
  61.5180837  95.4336608  62.3398674  60.8991845  95.3345566  61.5478816
  62.7920837  95.7816608  62.1158674  63.1950837  96.0236608  60.8758674
  62.5405045  95.9441674  60.1108139  64.1547403  96.2863500  60.7022205
  63.6800837  95.8736608  63.1018674  63.3976669  95.6778637  64.0516065
  64.6327075  96.1388953  62.8963017  61.2870837  92.1076608  64.9018674
  62.2450837  92.7046608  65.3948674  60.3830837  91.4536608  65.6278674
  59.6344164  90.9757246  65.1470623  60.3690837  91.4696608  67.0978674
  60.2168244  92.4856527  67.4621155  59.2190837  90.5836608  67.6148674
  58.3054266  91.0010235  67.1916202  59.3929108  89.5923043  67.1964219
  59.0750837  90.4776608  69.1298674  59.8401213  89.7958202  69.5012320
  59.2243593  91.4641778  69.5687329  57.7050837  89.9546608  69.5588674
  56.7250837  90.7036608  69.5858674  57.6340837  88.6686608  69.9018674
  56.7507418  88.2748235  70.1929011  58.4639482  88.0938934  69.8691767
  61.7120837  91.0436608  67.7128674  62.2510837  91.7326608  68.5748674
  62.2570837  89.9276608  67.2488674  61.7726750  89.3745103  66.5564282
  63.5050837  89.4106608  67.7968674  63.5087625  89.5436278  68.8787202
  63.6720837  87.9176608  67.4858674  62.6791687  87.4680189  67.4922787
  64.0979639  87.8424678  66.4853315  64.5640837  87.1866608  68.4708674
  64.1310837  86.9226608  69.7768674  63.1366601  87.2530505  70.0769737
  64.9440837  86.2526608  70.6838674  64.5995338  86.0606649  71.6999997
  66.2100837  85.8336608  70.2878674  67.0270837  85.1666608  71.1688674
  66.6256579  85.0421507  72.0319747  66.6580837  86.0756608  69.0018674
  67.6471767  85.7386804  68.6916419  65.8410837  86.7516608  68.1038674
  66.1923974  86.9519024  67.0916510  64.7170837  90.2166608  67.3148674
  65.6820837  90.3666608  68.0648674  64.6730837  90.7446608  66.0898674
  63.9500811  90.4789093  65.4366120  65.7260837  91.6546608  65.6288674
  66.6942354  91.1825274  65.7958156  65.5990837  91.9986608  64.1408674
  65.3673634  91.0788364  63.6039055  64.7733814  92.7014866  64.0297299
  66.8690837  92.6136608  63.5688674  67.1931229  93.4070024  64.2424462
  67.6325200  91.8366613  63.5296380  66.6580837  93.1846608  62.1808674
  66.3690074  92.3776346  61.5076345  65.8602201  93.9261592  62.2220157
  67.9310837  93.8386608  61.6698674  68.2829061  94.5302887  62.4353558
  68.6735718  93.0548163  61.5202065  67.7240837  94.5746608  60.3948674
  67.0364268  95.3013142  60.5334399  68.5967168  94.9887784  60.0997097
  67.3984845  93.9338804  59.6853008  65.7590837  92.9376608  66.4598674
  66.8440837  93.4366608  66.7668674  64.5860837  93.4686608  66.8148674
  63.7249926  93.1136738  66.4242198  64.5150837  94.6156608  67.7288674
  65.0743725  95.4462560  67.2982786  63.0640837  95.0746608  67.9768674
  62.4646953  94.1732952  68.1048236  63.0455427  95.6565475  68.8983684
  62.4870837  95.9126608  66.8328674  63.2420837  96.3646608  65.9468674
  61.2510837  96.1356608  66.8298674  65.1860837  94.2726608  69.0598674
  65.9720837  95.0606608  69.5788674  64.8830837  93.0826608  69.5768674
  64.2145179  92.5077867  69.0842836  65.4020837  92.6006608  70.8578674
  65.2392248  93.3387398  71.6432435  64.6560837  91.3126608  71.2328674
  63.5918220  91.5050081  71.0970417  64.9875823  90.5748772  70.5021936
  64.8980837  90.7836608  72.6278674  64.4740837  91.4986608  73.7498674
  63.9701561  92.4545530  73.6069463  64.6850837  91.0106608  75.0308674
  64.3589963  91.5816600  75.9001940  65.3170837  89.7846608  75.2018674
  65.5250837  89.2946608  76.4688674  65.1954145  89.8787263  77.1557337
  65.7410837  89.0486608  74.1058674  66.2389782  88.0883821  74.2402792
  65.5260837  89.5456608  72.8288674  65.8470411  88.9718067  71.9595125
  66.9290837  92.3736608  70.8648674  67.5960837  92.7076608  71.8448674
  67.4710837  91.8256608  69.7748674  66.8724383  91.6245804  68.9866481
  68.8910837  91.4456608  69.6878674  69.3060837  91.3168448  70.6875077
  69.0320837  90.1236608  68.9248674  68.6059470  90.2915825  67.9357724
  70.1014026  89.9339425  68.8317862  68.3600837  88.9246608  69.5678674
  67.3067409  89.1731655  69.6975405  68.4529932  88.0891214  68.8740779
  68.9610837  88.5346608  70.9178674  69.0350905  89.4379454  71.5234240
  68.2787147  87.8320653  71.3962308  70.3330837  87.8986608  70.7888674
  70.2473262  87.0007862  70.1768483  71.0036106  88.6068630  70.3020999
  70.8800837  87.5366608  72.1278674  70.2591241  86.8800999  72.5789070
  71.7916050  87.1161081  72.0166721  70.9600291  88.3685751  72.6949885
  69.8210837  92.4716608  69.0308674  71.0090837  92.5176608  69.3648674
  69.3060837  93.2616608  68.0848674  68.3281305  93.1813823  67.8455723
  70.1370837  94.1906608  67.3118674  71.1874943  94.0811749  67.5815888
  69.9710837  93.9756608  65.7898674  68.9475402  94.2242014  65.5093560
  70.9410837  94.8576608  65.0078674  71.9649212  94.6093641  65.2875211
  70.8057383  94.6890424  63.9395275  70.7461875  95.9052459  65.2373886
  70.1770837  92.4976608  65.4148674  69.3898368  91.9381055  65.9200811
  70.0353635  92.4299305  64.3362444  71.5290837  91.9146608  65.7848674
  71.6713355  91.9816205  66.8634687  71.5711610  90.8697320  65.4775360
  72.3168629  92.4734474  65.2796334  69.8470837  95.6436608  67.6748674
  70.7380837  96.3496608  68.1568674  68.6120837  96.0856608  67.4578674
  67.9220468  95.4790461  67.0383832  68.2570837  97.4916608  67.6838674
  69.0427955  98.1361362  67.2896495  66.9400837  97.8396608  66.9818674
  66.1703474  97.1496174  67.3274761  66.6243670  98.8640133  67.1796673
  67.0100837  97.6926608  65.4918674  67.7380837  98.5516608  64.6928674
  68.2623541  99.3449498  65.0333565  67.6370837  98.1706608  63.4308674
  68.1358158  98.7295075  62.6389990  66.8810837  97.0886608  63.3838674
  66.4790837  96.7656608  64.6588674  65.8474618  95.8932983  64.8266131
  68.2270837  97.8856608  69.1648674  68.3450837  99.0686608  69.4898674
  68.0920837  96.8986608  70.0488674  67.8668962  95.9771691  69.7021067
  68.1770837  97.0946608  71.5048674  67.3551884  97.7188267  71.8555869
  68.0860837  95.7296608  72.1978674  67.1084777  95.2857177  72.0099835
  68.8634453  95.0762855  71.8017491  68.2640837  95.7566608  73.6708674
  67.2930837  95.9136608  74.6088674  66.2727062  96.0359506  74.2455843
  67.8400837  95.8816608  75.8638674  67.3286777  95.9743043  76.7298816
  69.1920837  95.7006608  75.7548674  70.1730837  95.6036608  76.7458674
  69.8702850  95.6782042  77.7903074  71.4690837  95.4186608  76.3338674
  72.2624240  95.3407048  77.0772610  71.8010837  95.3266608  74.9698674
  72.8329682  95.1752595  74.6530213  70.8270837  95.4256608  73.9888674
  71.1353027  95.3591804  72.9454681  69.4940837  95.6136608  74.3808674
  69.4460837  97.8436608  71.9588674  69.3900837  98.6346608  72.9008674
  70.5710837  97.6026608  71.2818674  70.5727698  96.8838673  70.5723377
  71.8430837  98.2896608  71.5858674  72.0626675  98.2068537  72.6503040
  72.9960837  97.6566608  70.7968674  72.7671993  97.6543230  69.7311725
  73.9015385  98.2376130  70.9722131  73.3170837  96.2366608  71.1708674
  72.9510837  95.1086608  70.4938674  72.3608067  95.2510777  69.5886657
  73.4290837  93.9946608  71.1318674  73.2910008  93.0400043  70.8324286
  74.1300837  94.3866608  72.2408674  74.8050837  93.6206608  73.1968674
  74.8053068  92.5361637  73.0874846  75.4290837  94.2886608  74.2198674
  75.9603221  93.7236364  74.9857872  75.4000837  95.6886608  74.3048674
  75.9010191  96.2113350  75.1197140  74.7290837  96.4546608  73.3488674
  74.7300330  97.5389723  73.4600803  74.0820837  95.7966608  72.2958674
  71.8450837  99.8196608  71.3348674  72.7260837 100.5226608  71.8258674
  70.8750837 100.3256608  70.5758674  70.2251761  99.7019119  70.1190777
  70.7480837 101.7686608  70.3268674  71.7192857 102.1831248  70.0565239
  69.7650837 102.0326608  69.1778674  68.8046450 101.6221049  69.4894771
  69.6827434 103.1152490  69.0813123  70.1630837 101.4306608  67.8318674
  70.9723863 102.0353848  67.4226743  70.5260029 100.4209551  68.0239179
  69.0150837 101.3756608  66.8318674  69.1520837 100.6776608  65.8058674
  67.9710837 102.0206608  67.0658674  70.2980837 102.5736608  71.5588674
  70.5380837 103.7806608  71.6178674  69.6320837 101.9176608  72.5138674
  69.4246009 100.9386863  72.3772689  69.1190837 102.5776608  73.7268674
  69.7355914 103.4424313  73.9722027  67.6730837 103.0546608  73.4918674
  67.6194225 103.5018240  72.4992624  67.0090101 102.1915044  73.5373345
  67.2060837 104.0826608  74.5148674  67.5300837 104.0106608  75.7038674
  66.4280837 105.0506608  74.0488674  66.0843756 105.7640410  74.6758070
  66.1829831 105.0698877  73.0692467  69.2120837 101.6316608  74.9378674
  68.2610837 100.9156608  75.2638674  70.3750837 101.6416608  75.5878674
  71.1172963 102.2224912  75.2247478  70.6480837 100.8266608  76.7768674
  69.8752833 100.0789560  76.9552382  72.0140837 100.1066608  76.6518674
  72.7887393 100.8547938  76.4836268  72.3370837  99.3156608  77.9178674
  71.5630571  98.5669695  78.0865242  73.3013155  98.8208360  77.8016519
  72.3777173  99.9938699  78.7702071  72.0230837  99.1996608  75.4198674
  71.8531320  99.7990928  74.5254963  72.9885066  98.6994586  75.3433426
  71.2340304  98.4533006  75.5117483  70.6220837 101.7516608  77.9928674
  71.6350837 102.3816608  78.3158674  69.4510837 101.8426608  78.6348674
  68.6771398 101.3140866  78.2584109  69.1930837 102.7476608  79.7718674
  68.1268713 102.7514954  79.9983083  69.9600837 102.2966608  81.0258674
  71.0267654 102.3560803  80.8096295  69.7117078 102.9981881  81.8222774
  69.6130837 100.8936608  81.4648674  68.5110837 100.6486608  82.2908674
  67.9071468 101.4931365  82.6228622  68.1810837  99.3616608  82.6878674
  67.3184137  99.1836277  83.3299004  68.9570837  98.2966608  82.2588674
  68.6430837  97.0126608  82.6488674  67.8694330  96.9714295  83.2157574
  70.0530837  98.5176608  81.4388674  70.6624293  97.6790605  81.1018985
  70.3730837  99.8076608  81.0478674  71.2335663  99.9838823  80.4024095
  69.4900837 104.2106608  79.4278674  70.0830837 104.9466608  80.2188674
  69.0600837 104.6156608  78.2328674  68.5399164 103.9636472  77.6633030
  69.3040837 105.9606608  77.7028674  68.4539435 106.1950058  77.0622091
  69.3066357 106.6313497  78.5620934  70.5920837 106.1626608  76.9118674
  70.7570837 107.2106608  76.2858674  71.4980837 105.1796608  76.9278674
  71.2912789 104.3339308  77.4397970  72.8110837 105.3006608  76.2868674
  73.0103853 106.3464128  76.0528143  73.9160837 104.7876608  77.2138674
  73.7541553 103.7376320  77.4574201  74.8877354 104.9030417  76.7335754
  73.9920837 105.5236608  78.5178674  74.2650837 106.8866608  78.5438674
  74.4305615 107.4133932  77.6040430  74.3280837 107.5756608  79.7448674
  74.5407297 108.6446931  79.7520995  74.1200837 106.9026608  80.9378674
  74.1704656 107.4407446  81.8844546  73.8480837 105.5456608  80.9268674
  73.6842172 105.0151309  81.8648365  73.7840837 104.8616608  79.7238674
  73.5688398 103.7931592  79.7152398  72.8870837 104.5666608  74.9508674
  72.3270837 103.4836608  74.7848674  73.6010837 105.1806608  74.0138674
  74.0000460 106.0796939  74.2433623  73.8140837 104.6536608  72.6768674
  72.9375442 104.1082190  72.3271948  74.0630837 105.8416608  71.7318674
  73.2359194 106.5416455  71.8498497  74.9892140 106.3164996  72.0557669
  74.1830837 105.4426608  70.2738674  73.7900837 104.3186608  69.8928674
  74.6740837 106.2856608  69.4958674  75.0020837 103.6866608  72.6708674
  76.1410837 104.1036608  72.8628674  74.7240837 102.3966608  72.4668674
  73.7584074 102.1007880  72.4721554  75.7670837 101.3716608  72.2988674
  76.7502557 101.8285151  72.4118107  75.6180837 100.2596608  73.3508674
  74.6772547  99.7523942  73.1372777  76.4465070  99.5688837  73.1938896
  75.6210837 100.7346608  74.7968674  76.4262619 101.4598125  74.9149519
  74.6650707 101.2180646  74.9980188  75.8620837  99.3826608  75.9718674
  75.8930837 100.2976608  77.5108674  74.9495173 100.8284142  77.6376833
  76.0354023  99.6069717  78.3420080  76.7132300 101.0153427  77.4910184
  75.7290837 100.7766608  70.8808674  75.9530837  99.5816608  70.6928674
  75.4670837 101.6286608  69.8888674  75.2475008 102.5867990  70.1209319
  75.4260837 101.2276608  68.4778674  74.6830136 100.4426855  68.3372980
  75.0500837 102.4206608  67.5958674  75.7164563 103.2520170  67.8258537
  75.1711416 102.1371648  66.5503651  73.7150837 102.8116608  67.8248674
  73.4998922 103.5597306  67.2630097  76.7260837 100.6266608  67.9408674
  76.6840837  99.8306608  67.0048674  77.8720837 101.0126608  68.5018674
  77.8884735 101.7523085  69.1894370  79.1480837 100.4456608  68.0618674
  79.2362414 100.5527856  66.9807330  80.3320837 101.1526608  68.7208674
  81.2705717 100.7219120  68.3718760  80.3128527 102.2173646  68.4881962
  80.3660837 101.0346608  70.5178674  81.4832733 101.7373514  70.6822195
  79.2100837  98.9386608  68.3068674  79.8820837  98.2286608  67.5608674
  78.5050837  98.4596608  69.3378674  78.1509541  99.1077231  70.0268571
  78.3130837  97.0206608  69.5708674  79.2313732  96.4743889  69.3553893
  77.8630837  96.7226608  71.0298674  77.0409149  97.3914988  71.2844151
  77.4050837  95.2726608  71.1808674  78.2269171  94.6031827  70.9269193
  77.0965652  95.0939294  72.2109024  76.5646101  95.0851007  70.5126426
  79.0170837  97.0346608  71.9938674  79.8299365  96.3551752  71.7376048
  79.3242397  98.0606238  71.7910013  78.6830837  96.8896608  73.4618674
  78.3762644  95.8637695  73.6656044  79.5613724  97.1313500  74.0604444
  77.8705654  97.5692169  73.7190003  77.3310837  96.4196608  68.5548674
  77.5860837  95.3386608  68.0218674  76.2150837  97.1086608  68.3028674
  76.0160421  97.9326348  68.8520017  75.2370837  96.6996608  67.2738674
  74.7122501  95.8023306  67.6016592  74.2060837  97.8106608  67.0338674
  73.7736647  98.0558417  68.0039186  74.7530929  98.6727316  66.6521413
  73.0950837  97.4446608  66.0618674  73.5520203  97.1409480  65.1200243
  72.5370697  96.6073859  66.4810253  72.1500837  98.6096608  65.8138674
  71.2322271  98.2187276  65.3747667  71.9234634  99.0769118  66.7722093
  72.7590837  99.6416608  64.8788674  73.5512642 100.1627853  65.4164359
  73.1852737  99.1169971  64.0237713  71.7500837 100.6286608  64.4028674
  71.3553553 101.1152386  65.1950361  72.1946229 101.2939125  63.7864868
  71.0161621 100.1460256  63.9043481  75.8940837  96.3566608  65.9368674
  75.5840837  95.3306608  65.3288674  76.8040837  97.2266608  65.5018674
  77.0178912  98.0353612  66.0678968  77.4520837  97.1036608  64.1928674
  76.6929652  96.9935476  63.4184558  78.2970837  98.3486608  63.8788674
  79.0703723  98.4266392  64.6430947  78.7630173  98.1934347  62.9057740
  77.4780837  99.6366608  63.8508674  76.2500837  99.5876608  63.6058674
  78.0810837 100.7106608  64.0808674  78.3180837  95.8466608  64.0608674
  78.5410837  95.3786608  62.9428674  78.8020837  95.3176608  65.1868674
  78.7115285  95.8348377  66.0496693  79.5340837  94.0516608  65.2108674
  79.9647067  93.8369803  64.2328207  80.6720837  94.0806608  66.2558674
  80.2323730  94.1118897  67.2527518  81.5580837  92.8456608  66.1298674
  81.9985460  92.8139886  65.1333280  82.3514810  92.8893921  66.8759966
  80.9583319  91.9497113  66.2900983  81.5180837  95.3416608  66.0788674
  80.8899831  96.2226806  66.2107606  82.3167109  95.3510980  66.8206256
  81.9516011  95.3515620  65.0788346  78.6080837  92.8566608  65.4708674
  78.7760837  91.8036608  64.8508674  77.6450837  93.0126608  66.3808674
  77.6022836  93.8760874  66.9031335  76.6840837  91.9476608  66.7128674
  77.2695040  91.0846746  67.0301010  75.7990837  92.3866608  67.8698674
  75.1999789  93.2445364  67.5645432  75.1398516  91.5668186  68.1551253
  76.4224554  92.6635994  68.7200509  75.8110837  91.5116608  65.5328674
  75.4260837  90.3436608  65.4328674  75.5060837  92.4526608  64.6438674
  75.7612095  93.4105793  64.8372643  74.7090837  92.1746608  63.4478674
  73.8548103  91.5262588  63.6425234  74.2160837  93.5016608  62.8028674
  73.8619686  94.1573694  63.5983227  75.3280837  94.2036608  62.0208674
  75.6824134  93.5487023  61.2248897  74.9413946  95.1257281  61.5868581
  76.1537855  94.4373832  62.6929460  72.9830837  93.2726608  61.9278674
  73.2940173  92.6722835  61.0729006  72.2593358  92.7129014  62.5202843
  72.3480837  94.5576608  61.4378674  73.0711344  95.1177819  60.8449409
  71.4790817  94.3227739  60.8232432  72.0364548  95.1584011  62.2923253
  75.4630837  91.2916608  62.4338674  74.8360837  90.6756608  61.5748674
  76.7950837  91.2346608  62.5588674  77.2189506  91.8124538  63.2706198
  77.6700837  90.4066608  61.7238674  77.2047725  90.2503764  60.7506460
  79.0360837  91.0866608  61.5128674  79.5998514  90.8874354  62.4242260
  79.4952765  90.5559322  60.6788595  79.0440837  92.5846608  61.2278674
  78.4079719  93.0589617  61.9751968  80.0699772  92.9314828  61.3517996
  78.5510837  92.9496608  59.8388674  78.9556827  92.2389436  59.1182568
  77.4622204  92.9025906  59.8227258  79.0040837  94.3586608  59.4718674
  78.6168423  95.0377043  60.2315019  80.0937540  94.3711800  59.4955576
  78.5320837  94.7956608  58.1288674  77.5223853  94.7845435  58.1068416
  78.8625910  95.7320008  57.9441179  78.8911514  94.1668225  57.4247851
  77.9390837  89.0136608  62.3188674  78.7190837  88.2466608  61.7558674
  77.3450837  88.6976608  63.4678674  76.8002339  89.3910031  63.9603250
  77.4880837  87.3776608  64.0678674  78.2679326  86.8250531  63.5438829
  77.8680837  87.4756608  65.5478674  77.1447607  88.1337382  66.0293621
  77.7884845  86.4755234  65.9738828  79.2840837  88.0176608  65.7778674
  79.8860916  87.6916180  64.9297026  79.2113411  89.1052250  65.7744288
  79.9440837  87.5546608  67.0798674  81.0630837  88.0496608  67.3718674
  79.3670837  86.7046608  67.8148674  76.1640837  86.6486608  63.8918674
  75.1300837  87.1616608  64.3218674  76.1800837  85.4696608  63.2348674
  77.2870837  84.8046608  62.5228674  77.8937544  84.2443114  63.2342460
  77.9059101  85.5542678  62.0296715  76.5830837  83.9226608  61.5528674
  77.1966892  83.0443605  61.3524280  76.4161516  84.4682553  60.6241255
  75.2930837  83.5496608  62.1878674  75.4510703  82.6500844  62.7827637
  74.4908844  83.3743506  61.4710395  74.9280837  84.7236608  63.1048674
  74.1799619  85.3861909  62.6695906  74.4280837  84.2076608  64.4498674
  75.2340837  83.8516608  65.3028674  73.1110837  84.1936608  64.6278674
  72.5129084  84.5812313  63.9122735  72.4900837  83.6496608  65.8258674
  73.1980898  83.6961922  66.6533101  71.2340837  84.4396608  66.2108674
  70.7062561  84.5502864  65.2636298  70.6385848  83.8281719  66.8887777
  71.4590837  85.8206608  66.8338674  72.1834408  85.7192174  67.6420239
  71.9790837  86.8246608  65.8078674  71.2550013  86.9269915  64.9995779
  72.1262499  87.7921912  66.2877921  72.9277646  86.4725896  65.4027119
  70.1680837  86.3206608  67.4698674  69.8513929  85.6241559  68.2461968
  70.3364023  87.3032414  67.9106684  69.3915108  86.3928126  66.7084033
  72.1170837  82.1976608  65.5548674  71.4790837  81.9016608  64.5408674
  72.5290837  81.2986608  66.4438674  73.1904221  81.5622757  67.1602738
  72.0740837  79.9216608  66.4008674  71.7562421  79.6434262  65.3960483
  73.1600837  78.9296608  66.8668674  73.4946950  79.2166559  67.8637467
  72.6120837  77.5056608  66.9048674  72.2776773  77.2177697  65.9081769
  73.3948539  76.8232812  67.2361220  71.7718027  77.4575261  67.5974802
  74.3730837  79.0166608  65.9558674  74.7775914  80.0284276  65.9842127
  75.1332515  78.3124015  66.2938960  74.0797845  78.7716538  64.9350599
  70.8550837  79.8616608  67.3058674  70.9850837  79.9736608  68.5238674
  69.6760837  79.7156608  66.7058674  69.6243909  79.7062356  65.6972355
  68.4240837  79.6506608  67.4668674  68.5570161  79.0308191  68.3535604
  68.0060837  81.0646608  67.9128674  68.8583667  81.7253446  67.7540915
  67.1762451  81.3852140  67.2830154  67.5840837  81.1226608  69.3778674
  66.8790837  80.1896608  69.8488674  67.9570837  82.1106608  70.0568674
  67.2920837  78.9726608  66.6788674  67.4000837  78.7696608  65.4628674
  66.2190837  78.6206608  67.3878674  66.1890534  78.8391506  68.3734940
  65.0830837  77.9076608  66.7998674  65.4165159  77.1944939  66.0460006
  64.2550837  77.1526608  67.8608674  63.9157977  77.8645798  68.6133005
  63.0440837  76.4696608  67.2228674  63.3826153  75.7572086  66.4705980
  62.4763014  75.9441868  67.9907221  62.4092110  77.2202259  66.7520275
  65.1180837  76.1286608  68.5838674  65.9470669  76.6353951  69.0779415
  64.5166971  75.6064911  69.3280264  65.5094737  75.4096369  67.8642012
  64.1740837  78.8986608  66.0818674  63.6790837  79.8466608  66.6918674
  63.9550837  78.6616608  64.7898674  64.4280445  77.8852753  64.3498298
  63.0950837  79.4976608  63.9708674  62.9208448  80.4707735  64.4299879
  63.7000837  79.7156608  62.5668674  63.8938699  78.7425465  62.1156527
  62.7510837  80.5076608  61.6768674  62.5571767  81.4811469  62.1272292
  63.2034095  80.6458377  60.6948241  61.8125671  79.9635796  61.5707366
  65.0470837  80.4236608  62.6788674  65.7300711  79.8147080  63.2711569
  65.4641081  80.5719826  61.6827796  64.9106796  81.3907762  63.1627914
  61.7220837  78.8346608  63.8668674  61.6120837  77.6676608  63.4938674
  60.6860837  79.5936608  64.2088674  60.8600430  80.5103530  64.5955364
  59.3050837  79.1586608  64.0588674  59.1656185  78.1790557  64.5160572
  58.3730837  80.1616608  64.7538674  58.8107783  80.3606748  65.7320883
  58.3534582  81.0825375  64.1710287  56.9530837  79.6426608  64.9298674
  56.3910837  79.0376608  63.9948674  56.3800837  79.8696608  66.0148674
  58.9880837  79.0826608  62.5578674  59.1960837  80.0666608  61.8408674
  58.4780837  77.9276608  62.0738674  58.1890837  76.6696608  62.7908674
  57.6994017  76.8966201  63.7378633  59.1218946  76.1394104  62.9826939
  57.2950837  75.9286608  61.8438674  56.2552250  76.1811666  62.0513130
  57.4400137  74.8557235  61.9699714  57.6970837  76.3616608  60.4798674
  56.8760399  76.3038031  59.7652777  58.5273956  75.7488776  60.1288994
  58.1520837  77.8216608  60.6358674  59.0848723  77.9881957  60.0971003
  57.0750837  78.8056608  60.1178674  56.9870837  79.0256608  58.9078674
  56.2830837  79.3926608  61.0168674  56.2817447  79.0657007  61.9724796
  55.3600837  80.4726608  60.6498674  54.7154756  80.1403552  59.8361398
  54.4800837  80.8726608  61.8398674  55.1632713  81.1585270  62.6396389
  53.9130311  81.7459939  61.5176243  53.5200837  79.8036608  62.3498674
  52.8647362  79.4932138  61.5360842  54.0933545  78.9458295  62.7014185
  52.6760837  80.3596608  63.5008674  53.2344283  81.1875115  63.9379184
  51.7494920  80.7358224  63.0672436  52.3510837  79.3366608  64.5858674
  53.0813073  78.5313715  64.5059719  52.4634920  79.8341038  65.5492022
  50.9760837  78.7726608  64.4758674  50.8718545  78.3113010  63.5834644
  50.8252768  78.1058123  65.2192854  50.2992771  79.5186440  64.5503041
  56.0810837  81.7296608  60.1188674  55.4840837  82.5116608  59.3778674
  57.3450837  81.9246608  60.5058674  57.7582613  81.2943083  61.1782061
  58.1360837  83.0746608  60.0528674  57.5047341  83.9618535  60.0040211
  59.2880837  83.3466608  61.0248674  59.8190699  82.4045278  61.1610235
  59.9475863  84.0684860  60.5430742  58.8520837  83.8846608  62.3828674
  58.4512145  84.8919520  62.2698670  58.0736601  83.2253487  62.7668807
  59.9940837  83.9256608  63.3878674  59.9770837  83.2066608  64.3878674
  61.0040837  84.7466608  63.1148674  61.7858644  84.8095988  63.7512314
  60.9847066  85.3034563  62.2724277  58.6960837  82.9446608  58.6268674
  59.1250837  83.9456608  58.0528674  58.6990837  81.7306608  58.0678674
  58.3668464  80.9406402  58.6022691  59.2010837  81.4906608  56.7118674
  60.2338593  81.8313841  56.6385084  59.1520837  79.9956608  56.3668674
  58.1105555  79.7342122  56.5538509  59.3646584  79.8999241  55.3020921
  60.0630837  79.0536608  57.1548674  59.9850580  79.2853434  58.2170990
  59.6500837  77.6096608  56.9198674  59.7282976  77.3770832  55.8578462
  60.3052142  76.9471775  57.4855712  58.6201864  77.4678676  57.2474442
  61.5240837  79.2636608  56.7768674  61.8122737  80.2919107  56.9953807
  62.1503261  78.5813822  57.3516872  61.6563199  79.0681352  55.7127329
  58.3970837  82.2666608  55.6678674  57.1890837  82.0876608  55.5568674
  59.0850837  83.1316608  54.9238674  60.0541685  83.2891687  55.1608596
  58.4960837  83.9276608  53.8458674  57.4073454  83.9488724  53.8938057
  59.0220837  85.3796608  53.9168674  60.1113555  85.3460640  53.8954775
  58.5170837  86.2356608  52.7588674  57.4278303  86.2701120  52.7798701
  58.9139427  87.2464288  52.8534795  58.8482535  85.8027323  51.8149388
  58.6180837  86.0006608  55.2438674  59.0439583  85.4198587  56.0620372
  58.9887655  87.0244520  55.2943278  57.5313640  86.0036842  55.3283186
  58.7540837  83.3076608  52.4558674  58.0110837  83.5816608  51.5058674
  59.7830837  82.4666608  52.3398674  60.3186860  82.2244372  53.1611817
  60.1810837  81.8906608  51.0598674  59.4476226  82.1275226  50.2891338
  61.5600837  82.4336608  50.6138674  61.7912560  82.0289722  49.6285315
  61.5590837  83.9556608  50.5498674  61.3284289  84.3611060  51.5350132
  62.5412117  84.3071839  50.2337104  60.8068917  84.2892792  49.8350202
  62.5850837  82.0026608  51.5238674  63.4339430  82.3461150  51.2356358
  60.2700837  80.3716608  51.1178674  60.1460837  79.7656608  52.1808674
  60.5000837  79.7706608  49.9538674  60.2940298  80.2607748  49.0951303
  60.9450837  78.3786608  49.8688674  60.3840487  77.7703672  50.5783163
  60.7180837  77.8176608  48.4518674  60.9774418  76.7593374  48.4798734
  59.6668678  77.9266589  48.1851007  61.5650837  78.4986608  47.3828674
  62.1340837  79.5696608  47.5968674  61.6260837  77.8836608  46.2088674
  62.1714508  78.2852361  45.4595932  61.1268738  77.0167373  46.0698210
  62.4170837  78.2596608  50.3148674  63.0060837  79.2236608  50.8178674
  62.9940837  77.0716608  50.1648674  62.4430764  76.2876604  49.8457535
  64.4010837  76.8436608  50.4888674  64.8182803  77.7215470  50.9821848
  64.5430837  75.6496608  51.4198674  64.1379183  74.7608772  50.9361270
  65.5967845  75.4898354  51.6484956  63.9964741  75.8412280  52.3432412
  65.1960837  76.6186608  49.2118674  64.6700837  76.0916608  48.2278674
  66.4620837  77.0236608  49.2388674  66.8001489  77.5246217  50.0480951
  67.3780837  76.8106608  48.1258674  66.8879282  76.2246189  47.3484347
  67.8070837  78.1506608  47.5298674  66.9425370  78.7844446  47.3324433
  68.4943935  78.6718280  48.1962682  68.6690837  77.9786608  45.9588674
  68.8700448  79.2793764  45.7674208  68.6040837  76.0226608  48.5888674
  69.2370837  76.3626608  49.5928674  68.9180837  74.9646608  47.8478674
  68.3167165  74.7177071  47.0749051  70.0890837  74.1286608  48.1098674
  70.1363860  73.8688938  49.1674036  69.9960837  72.8346608  47.2908674
  69.1150874  72.3585069  47.7212420  69.7771275  73.1475786  46.2699655
  71.1600837  71.8396608  47.2808674  72.0607841  72.3579441  46.9518961
  71.3890837  71.2556608  48.6648674  70.4889093  70.7367870  48.9943441
  72.2210403  70.5522933  48.6298929  71.6218032  72.0583862  49.3645630
  70.8800837  70.7366608  46.2718674  70.7675721  71.1718844  45.2788815
  71.7095847  70.0295557  46.2662209  69.9621359  70.2169112  46.5463325
  71.3350837  74.9166608  47.7248674  71.4620837  75.3296608  46.5768674
  72.2350837  75.1366608  48.6818674  72.0057526  74.9040994  49.6375984
  73.4940837  75.8576608  48.4208674  73.5736904  76.1173085  47.3652420
  73.6230837  77.1436608  49.2808674  74.5927393  77.6055902  49.0951534
  72.5170837  78.1226608  48.9158674  71.5470608  77.6615762  49.1017629
  72.6131534  79.0229414  49.5227991  72.5975609  78.3858252  47.8611793
  73.5900837  76.8396608  50.7808674  72.5758423  76.5249601  51.0265881
  74.2795105  76.0147597  50.9606682  73.9770837  78.0196608  51.6498674
  73.2877779  78.8448547  51.4709478  73.9307324  77.7292685  52.6994498
  74.9914459  78.3346558  51.4050260  74.7740837  75.0116608  48.5318674
  75.8420837  75.4816608  48.1478674  74.6820837  73.7826608  49.0398674
  73.8147490  73.4584440  49.4432447  75.8440837  72.8886608  49.0788674
  76.3982433  72.9609635  48.1430369  76.7780837  73.2756608  50.2328674
  76.8911671  74.3590851  50.1940964  76.2682726  72.9968580  51.1550722
  78.1540837  72.6196608  50.1948674  78.6568211  72.8309105  51.1386521
  78.0142033  71.5436547  50.0912021  79.0050837  73.1346608  49.0398674
  78.5234086  72.8594328  48.1016043  79.0686213  74.2205310  49.1102114
  80.4040837  72.5416608  49.0838674  80.9366116  72.9822675  49.9267080
  80.3155353  71.4655689  49.2331475  81.1570837  72.8076608  47.8278674
  81.2396195  73.8047384  47.6895788  82.0785590  72.3996397  47.8949654
  80.6640188  72.3990987  47.0468020  75.4270837  71.4286608  49.2188674
  74.6720837  71.0886608  50.1278674  75.9060837  70.5906608  48.2978674
  76.3812700  70.9852028  47.4987216  75.8190837  69.1316608  48.4038674
  75.0910996  68.8654168  49.1701914  75.3830837  68.5086608  47.0788674
  76.1649261  68.7256908  46.3510489  75.3229236  67.4317967  47.2364893
  74.0540837  69.0176608  46.5588674  73.3212071  68.9677311  47.3641622
  74.2034177  70.0575107  46.2681603  73.5490837  68.2266608  45.3658674
  73.4010837  66.9896608  45.4978674  73.2810837  68.8416608  44.3068674
  77.1950837  68.5926608  48.7288674  78.1610837  68.9426608  48.0498674
  77.2860837  67.7356608  49.7428674  76.4747389  67.5566002  50.3171114
  78.5400837  67.0686608  50.0878674  79.3502972  67.3888291  49.4327753
  78.9430837  67.3576608  51.5468674  78.1317437  67.0426126  52.2030467
  80.2170837  66.6096608  51.9198674  81.0290429  66.9245425  51.2643731
  80.4793543  66.8310697  52.9544169  80.0555159  65.5375193  51.8080183
  79.1340837  68.8516608  51.7458674  78.2021806  69.3706698  51.5216171
  79.4187983  69.0475654  52.7796269  79.9185014  69.2101588  51.0793324
  78.4060837  65.5616608  49.8738674  77.5700837  64.9236608  50.5098674
  79.2150837  65.0176608  48.9608674  79.7063819  65.6298130  48.3252613
  79.4130837  63.5686608  48.8248674  78.5700551  63.0424406  49.2726332
  79.5170837  63.1616608  47.3478674  78.5830005  63.4424199  46.8612853
  80.3389999  63.7275418  46.9093101  79.7670837  61.6556608  47.1478674
  79.8530837  60.8906608  48.1368674  79.8770837  61.2346608  45.9728674
  80.7010837  63.2326608  49.5708674  81.7970837  63.5426608  49.1048674
  80.5660837  62.5716608  50.7148674  79.6461715  62.2964812  51.0281358
  81.6950837  62.3806608  51.6258674  82.2948741  63.2907328  51.6368016
  81.2090837  62.0626608  53.0698674  80.6391171  61.1338315  53.0471834
  82.3830837  61.9146608  54.0308674  82.9532966  62.8433169  54.0544409
  82.0093145  61.6929362  55.0304851  83.0273047  61.1017525  53.6958171
  80.3000837  63.2016608  53.5758674  80.9490892  64.0547097  53.7738576
  79.6201872  63.4448490  52.7593506  79.4990837  62.8776608  54.8198674
  80.1783584  62.6348046  55.6370006  78.8921790  63.7397358  55.0966211
  78.8494577  62.0249418  54.6224940  82.7140837  61.3506608  51.0848674
  83.8680837  61.3466608  51.5248674  82.3110837  60.5136608  50.1208674
  81.3305268  60.4518524  49.8868007  83.2500837  59.5996608  49.4448674
  83.8728288  59.1083523  50.1924661  82.5110837  58.5216608  48.6358674
  81.9167828  59.0281046  47.8753279  83.2737980  57.9107303  48.1530311
  81.6110837  57.6366608  49.4728674  82.1440837  56.7036608  50.3658674
  83.2271995  56.6127467  50.4476867  81.3190837  55.8996608  51.1418674
  81.7470627  55.1762837  51.8358857  79.9410837  56.0226608  51.0298674
  79.1010837  55.2406608  51.7888674  79.5719771  54.6376240  52.3686999
  79.3910837  56.9356608  50.1498674  78.3087039  57.0263163  50.0585656
  80.2210837  57.7376608  49.3818674  79.7912886  58.4633838  48.6914311
  84.2590837  60.3216608  48.5348674  85.4010837  59.8746608  48.4088674
  83.8370837  61.4226608  47.9068674  82.8994558  61.7564852  48.0786654
  84.6660837  62.1426608  46.9228674  85.6392836  61.6640654  46.8136540
  83.9710837  62.1636608  45.5488674  84.5836067  62.7357730  44.8520148
  83.7870837  60.7496608  45.0188674  83.1742314  60.1770364  45.7150089
  83.2943433  60.7865029  44.0472972  84.7606496  60.2708362  44.9140002
  82.6940837  62.8066608  45.6658674  82.2622424  62.8188945  44.8085672
  85.0400837  63.5916608  47.2668674  85.9150837  64.1546608  46.6118674
  84.3920837  64.1976608  48.2618674  83.6747379  63.7026857  48.7722732
  84.6140837  65.6216608  48.5718674  84.6168386  66.2447607  47.6775307
  83.5530837  66.1766608  49.5598674  82.5638998  65.8974451  49.1970271
  83.7540837  65.6206608  50.9678674  84.7429435  65.8998822  51.3315882
  82.9938489  66.0304693  51.6328490  83.6691335  64.5342037  50.9455926
  83.5590837  67.6996608  49.5718674  83.3333624  68.0722876  48.5727172
  82.8062982  68.0609712  50.2724874  84.5418935  68.0572335  49.8789952
  86.0350837  65.8746608  49.0968674  86.6140837  65.0226608  49.7678674
  86.5810837  67.0436608  48.7608674  86.0454565  67.6693229  48.1762737
  87.9290837  67.4456608  49.1518674  88.3996081  66.6565474  49.7383877
  88.7790837  67.7016608  47.9058674  88.3735888  68.5773293  47.3990363
  89.7973645  67.9111769  48.2334453  88.7880837  66.5146608  46.9428674
  88.5279810  65.6320587  47.5272141  88.0098226  66.7023328  46.2031439
  90.1220837  66.2796608  46.2308674  90.9062308  66.7333451  46.8369885
  90.2835255  65.2031135  46.1753523  90.1590837  66.8716608  44.8268674
  89.9380852  67.9348733  44.9208855  91.1743385  66.7439448  44.4513071
  89.1930837  66.2446608  43.8738674  88.2522314  66.3632715  44.2214707
  89.2764021  66.6875471  42.9699815  89.3979612  65.2595454  43.7862778
  87.8710837  68.6876608  50.0308674  86.8710837  69.4126608  50.0238674
  88.9460837  68.9336608  50.7808674  89.7136321  68.2772859  50.7689975
  89.0240837  70.0846608  51.7008674  88.1978136  70.0786150  52.4117403
  90.3600837  70.1046608  52.4928674  91.1805937  69.9808741  51.7860864
  90.5420837  71.4136608  53.2598674  89.7221397  71.5379281  53.9672219
  91.4878186  71.3896750  53.8012644  90.5463029  72.2484647  52.5590206
  90.4260837  68.9226608  53.4558674  90.3612822  67.9911532  52.8935539
  91.3683373  68.9513343  54.0030745  89.5958364  68.9800371  54.1597837
  88.8220837  71.4056608  50.9468674  88.0880837  72.2766608  51.4158674
  89.4560837  71.5326608  49.7798674  90.1501683  70.8445475  49.5252186
  89.2740837  72.6996608  48.8998674  89.5883593  73.6033029  49.4221325
  90.1140837  72.5566608  47.6118674  90.0471046  73.5097317  47.0872068
  91.1437434  72.3875579  47.9269947  89.6760837  71.4296608  46.6778674
  89.4119286  70.5852862  47.3145420  88.7933182  71.7625709  46.1319783
  90.7540837  71.0016608  45.6878674  91.0060837  71.7416608  44.7058674
  91.3420837  69.9076608  45.8768674  87.7990837  73.0056608  48.5518674
  87.4270837  74.1736608  48.4308674  86.9720837  71.9656608  48.4178674
  87.3400324  71.0296115  48.5101980  85.5480837  72.1256608  48.0818674
  85.4518503  72.7953100  47.2272282  84.9000837  70.7766608  47.7248674
  84.9628126  70.1471763  48.6125124  83.8531132  70.9603237  47.4835779
  85.5760837  70.0706608  46.5518674  86.1280837  70.7386608  45.6488674
  85.5400837  68.8226608  46.5358674  84.7250837  72.7776608  49.2028674
  83.6540837  73.3316608  48.9418674  85.2200837  72.6996608  50.4398674
  86.0773503  72.1868996  50.5890967  84.5360837  73.2646608  51.6068674
  83.4570438  73.1643217  51.4898032  84.9610837  72.5256608  52.8788674
  86.0012746  72.8256564  53.0057720  84.3683942  72.9116434  53.7082265
  84.8700837  70.9936608  52.8548674  85.5198604  70.6101902  52.0682026
  85.3030837  70.4186608  54.1948674  84.6534354  70.8013411  54.9820216
  85.2336225  69.3313210  54.1637525  86.3329194  70.7106950  54.4004273
  83.4640837  70.5276608  52.4998674  83.1933922  70.9060362  51.5141405
  83.4331799  69.4381318  52.4913304  82.7580897  70.9048628  53.2397255
  84.7770837  74.7686608  51.7728674  84.1900837  75.3866608  52.6598674
  85.6600837  75.3366608  50.9518674  86.2860905  74.7376838  50.4327899
  85.7770837  76.7776608  50.7738674  85.2387962  77.3070959  51.5600253
  87.2560837  77.2246608  50.8008674  87.8135350  76.6076458  50.0961399
  87.4110837  78.6996608  50.4208674  86.8542460  79.3173716  51.1254699
  88.4654037  78.9745216  50.4518505  87.0241067  78.8586940  49.4143597
  87.7950837  77.0086608  52.1128674  88.7139729  77.2859986  52.1309468
  85.1350837  77.0746608  49.4178674  85.7190837  76.7786608  48.3668674
  83.9300837  77.6456608  49.4468674  83.5566764  77.9777817  50.3245701
  83.1070837  77.7906608  48.2418674  83.7411974  77.8623849  47.3582076
  82.1980837  76.5716608  48.0928674  81.6187743  76.6181752  47.1707306
  82.8077078  75.6680798  48.0931680  81.2100837  76.4236608  49.2138674
  81.5670837  75.7846608  50.3908674  82.5717305  75.3744696  50.4934738
  80.6590837  75.6646608  51.4328674  80.9510883  75.1574461  52.3524147
  79.3820837  76.1886608  51.3058674  78.6668864  76.0919326  52.1227128
  79.0160837  76.8356608  50.1388674  78.0150772  77.2540549  50.0338319
  79.9270837  76.9506608  49.1018674  79.6431257  77.4599351  48.1809399
  82.2440837  79.0426608  48.2748674  82.0290837  79.6256608  49.3288674
  81.7570837  79.4336608  47.1008674  82.1407400  79.0216884  46.2623056
  80.7040837  80.4336608  46.9608674  80.3109371  80.6972600  47.9427281
  81.2230837  81.7146608  46.2778674  81.5339938  81.4687206  45.2625110
  80.1430837  82.7826608  46.2318674  79.8319741  83.0294738  47.2469505
  80.5350581  83.6757788  45.7452511  79.2864304  82.4098955  45.6703590
  82.3560837  82.2196608  46.9958674  82.6765961  83.0170402  46.5680144
  79.5960837  79.8106608  46.1198674  79.8510837  79.3796608  44.9988674
  78.3840837  79.7456608  46.6718674  78.2511042  80.1078783  47.6052560
  77.2240837  79.1816608  45.9728674  77.5451792  78.7366841  45.0310645
  76.5540837  78.1066608  46.8148674  76.2259105  78.5485737  47.7556727
  75.6896532  77.7220066  46.2736640  77.4490837  77.0526608  47.0788674
  77.0093406  76.3850162  47.6103525  76.1900837  80.2546608  45.6958674
  75.9640837  81.1206608  46.5398674  75.5210837  80.1776608  44.5328674
  75.6100837  79.1646608  43.4588674  75.3058340  78.1955496  43.8542859
  76.6398301  79.1056303  43.1063950  74.6660837  79.6806608  42.3968674
  73.7657782  79.0662831  42.3874248  75.1543050  79.6238686  41.4239768
  74.3570837  81.0926608  42.7548674  73.3325966  81.2854261  42.4364862
  75.0156379  81.8556676  42.3398653  74.4380837  81.1076608  44.2758674
  74.6920724  82.0783414  44.7017396  73.1440837  80.5986608  44.9068674
  73.0340837  79.4126608  45.2018674  72.1890837  81.4956608  45.1278674
  72.3878012  82.4769347  44.9947803  70.8600837  81.1156608  45.6168674
  70.6300441  80.1025578  45.2870138  70.7930837  81.1596608  47.1578674
  69.8671449  80.6972143  47.4997442  71.6434109  80.6275440  47.5843595
  70.8200837  82.5536608  47.7388674  69.6470837  83.2846608  47.8988674
  68.6998714  82.8307557  47.6075620  69.6690837  84.5696608  48.4188674
  68.7400581  85.1287006  48.5306109  70.8670837  85.1406608  48.7948674
  70.8904133  86.1504912  49.2044990  72.0440837  84.4246608  48.6498674
  72.9922447  84.8709952  48.9496616  72.0170837  83.1386608  48.1228674
  72.9443394  82.5774760  48.0072451  69.7920837  82.0276608  45.0208674
  70.0790837  83.1676608  44.6378674  68.5690837  81.5036608  44.9538674
  68.4616462  80.5254202  45.1810280  67.3820837  82.2576608  44.5628674
  67.5335337  83.3152274  44.7790038  67.1020837  82.0996608  43.0678674
  67.8581380  82.6266112  42.4857983  67.1037725  81.0445544  42.7942844
  65.5050837  82.7556608  42.5268674  65.6508384  82.4360311  41.2441006
  66.2130837  81.7166608  45.3788674  66.0090837  80.5026608  45.4228674
  65.4690837  82.6056608  46.0368674  65.6844814  83.5886225  45.9503264
  64.3350837  82.2156608  46.8728674  64.2499073  81.1299873  46.9193131
  64.5530837  82.7496608  48.2888674  64.5529486  83.8321938  48.1615043
  63.6942853  82.4552059  48.8920768  65.8440837  82.3186608  48.9938674
  66.6863752  82.4919306  48.3240738  66.0460837  83.1096608  50.2768674
  65.2043551  82.9365213  50.9474004  66.9680003  82.7879715  50.7613120
  66.1108880  84.1722607  50.0428114  65.8150837  80.8286608  49.2878674
  65.7194798  80.2752587  48.3536803  66.7388078  80.5385379  49.7885308
  64.9661240  80.6014783  49.9326576  63.0620837  82.8166608  46.3038674
  63.0280837  84.0126608  46.0368674  62.0370837  81.9836608  46.1088674
  62.1777913  80.9945292  46.2569195  60.7170837  82.4386608  45.6588674
  60.8311735  83.3067049  45.0095739  59.9940837  81.3326608  44.8768674
  60.7156309  80.9107277  44.1772665  59.6995379  80.5703366  45.5981195
  58.7610837  81.8116608  44.1098674  58.0664040  82.2699206  44.8137984
  59.0827606  82.5557003  43.3811485  58.0410837  80.6926608  43.3758674
  57.9980837  79.5516608  43.8388674  57.4640837  81.0186608  42.2278674
  56.9710452  80.3154182  41.6963937  57.5201393  81.9687940  41.8899235
  59.8800837  82.8506608  46.8708674  59.7140837  82.0706608  47.8088674
  59.3490837  84.0726608  46.8388674  59.5667515  84.6736188  46.0568383
  58.5140837  84.6106608  47.9178674  58.8867808  84.3423072  48.9063928
  58.4340837  86.1606608  47.8208674  58.1379672  86.4260366  46.8059832
  57.4300837  86.7366608  48.8088674  57.7258064  86.4720735  49.8240731
  57.4036845  87.8218315  48.7098319  56.4406220  86.3292212  48.6013579
  59.8110837  86.7846608  48.0408674  60.5019413  86.4187105  47.2813293
  59.7345556  87.8696062  47.9691986  60.1806239  86.5115108  49.0292651
  57.1110837  83.9766608  47.8618674  56.4710837  83.9846608  46.8108674
  56.6410837  83.4506608  48.9948674  57.2226524  83.4815103  49.8200496
  55.3410837  82.7496608  49.0788674  55.0458819  82.3955052  48.0911787
  55.4470837  81.5456608  50.0188674  55.9667864  81.8774818  50.9177017
  54.4325129  81.2425171  50.2774211  56.1870837  80.3686608  49.4128674
  55.6884843  80.0856769  48.4858185  57.2097508  80.6767976  49.1953685
  56.2070837  79.1756608  50.3638674  56.9492137  79.3634354  51.1398074
  55.2217475  79.0794522  50.8198892  56.5550837  77.8856608  49.6298674
  55.7489834  77.6598246  48.9317980  57.4804920  78.0447025  49.0763111
  56.7300837  76.7446608  50.5718674  55.8725530  76.5968471  51.0845972
  56.9590469  75.9101657  50.0510087  57.4772742  76.9535441  51.2185305
  54.1530837  83.6176608  49.5148674  53.0030837  83.2926608  49.2028674
  54.4290837  84.6976608  50.2448674  55.3916053  84.9070412  50.4680519
  53.3830837  85.5916608  50.7628674  52.5277766  85.5941667  50.0871880
  52.9160837  85.1156608  52.1418674  51.9824950  85.6345049  52.3593807
  52.7263421  84.0452258  52.0627024  53.9130837  85.3726608  53.2648674
  54.9093582  85.1407852  52.8883414  53.8603768  86.4299509  53.5246012
  53.6310837  84.5346608  54.4978674  52.5974561  84.6822710  54.8107957
  53.7938235  83.4815924  54.2683849  54.5130837  84.9156608  55.5998674
  54.9635244  85.8151541  55.5097873  54.7580837  84.1886608  56.6878674
  54.1920837  83.0006608  56.8668674  53.5617694  82.6345066  56.1677716
  54.3945533  82.4687993  57.7012708  55.5920837  84.6596608  57.6138674
  56.0298210  85.5604986  57.4835700  55.7827941  84.1137368  58.4419346
  53.9110837  87.0126608  50.8658674  55.1240837  87.2266608  50.8568674
  52.9990837  87.9736608  50.9808674  52.0180420  87.7578143  50.8756682
  53.3770837  89.3536608  51.2578674  54.1379435  89.6685752  50.5437102
  52.1770837  90.2996608  51.1438674  51.3723856  89.9246519  51.7762664
  52.4890008  91.2821877  51.4980547  51.6510837  90.4396608  49.7158674
  52.0790837  89.7416608  48.7918674  50.7030837  91.3466608  49.5398674
  50.3107970  91.4908023  48.6203925  50.3764403  91.8903548  50.3258710
  53.9310837  89.4156608  52.6748674  53.2780837  88.9566608  53.6148674
  55.1430837  89.9496608  52.8268674  55.6957518  90.2027819  52.0202777
  55.7340837  90.1256608  54.1578674  55.0075308  90.5892622  54.8251708
  56.1500837  88.7626608  54.7518674  55.6525529  87.9900390  54.1656782
  57.2299560  88.6609509  54.6440204  55.7690837  88.6096608  56.2228674
  55.7570837  89.6256608  56.9648674  55.4910837  87.4586608  56.6368674
  56.9380837  91.0676608  54.1388674  57.3050837  91.6156608  53.0908674
  57.5070837  91.2746608  55.3248674  56.9906777  91.0238501  56.1558416
  58.8200837  91.8726608  55.4848674  59.1171034  92.3689742  54.5609889
  58.7970837  92.9076608  56.6098674  58.5284287  92.4222436  57.5481072
  59.8080643  93.3081203  56.6850372  57.8300837  94.0326608  56.3308674
  58.1870837  95.0896608  55.4938674  59.1834476  95.0991810  55.0519761
  57.2950837  96.1206608  55.2198674  57.5922557  96.9448793  54.5714427
  56.0190837  96.0976608  55.7758674  55.1340837  97.1236608  55.5018674
  55.5037795  97.7929047  54.9213183  55.6380837  95.0496608  56.6018674
  54.6395174  95.0265331  57.0382513  56.5390837  94.0246608  56.8718674
  56.2445259  93.1954982  57.5151599  59.8180837  90.7636608  55.7878674
  59.4970837  89.8276608  56.5158674  61.0180837  90.8676608  55.2198674
  61.1998176  91.6441945  54.6001355  62.0760837  89.8716608  55.4148674
  61.7550775  89.0646253  56.0734629  62.5250837  89.2616608  54.0698674
  62.7984977  90.0733891  53.3957449  63.7180837  88.3286608  54.2518674
  63.4452728  87.5163638  54.9255504  64.0084206  87.9165123  53.2854624
  64.5542477  88.8854697  54.6748276  61.3640837  88.5226608  53.4198674
  60.5440174  89.2182765  53.2417889  61.6899497  88.0955162  52.4714695
  61.0256431  87.7241991  54.0801837  63.2550837  90.5276608  56.1298674
  63.7920837  91.5316608  55.6498674  63.6490837  89.9486608  57.2678674
  63.1562366  89.1277600  57.5893061  64.7180837  90.4956608  58.1148674
  65.0571102  91.4570087  57.7289006  64.1800837  90.6996608  59.5238674
  63.8486139  89.7643343  59.9748567  64.9656435  91.1401287  60.1378575
  63.0190837  91.6356608  59.5798674  61.7150837  91.2056608  59.4738674
  60.9060837  92.2466608  59.5428674  59.8255791  92.1131696  59.4900586
  61.6390837  93.3376608  59.6738674  61.2904287  94.2826667  59.7480519
  62.9660837  92.9836608  59.6938674  63.7336508  93.7516850  59.7891604
  66.0060837  89.6746608  58.1868674  67.0470837  90.1866608  58.6268674
  65.9470837  88.4126608  57.7718674  65.0870461  88.0353220  57.4003165
  67.0960837  87.5266608  57.8878674  67.9934036  88.0984937  57.6513861
  67.2160837  86.9996608  59.3108674  66.3288611  86.4171872  59.5591827
  68.0998360  86.3667006  59.3911395  67.3056043  87.8371861  60.0027031
  67.0200837  86.3646608  56.9238674  65.9410837  85.9946608  56.4518674
  68.1910837  85.8136608  56.6248674  69.0412850  86.3045669  56.8620768
  68.3010837  84.5326608  55.9578674  67.3706996  84.3136618  55.4339171
  69.4410837  84.5386608  54.9448674  70.3130496  84.8041222  55.5426174
  69.5660671  83.5310250  54.5484466  69.2970837  85.5266608  53.7878674
  69.2301515  86.5431154  54.1757344  70.5150837  85.4076608  52.8878674
  70.5824295  84.3915313  52.4992233  70.4240172  86.1082812  52.0578441
  71.4139965  85.6376620  53.4598426  68.0030837  85.3006608  53.0088674
  67.1501455  85.4274029  53.6755999  67.9376594  86.0225424  52.1947987
  67.9965755  84.2905061  52.5994236  68.5550837  83.4976608  57.0328674
  69.1330837  83.8056608  58.0778674  68.1020837  82.2786608  56.7808674
  67.6112972  82.0973440  55.9169507  68.2580837  81.1876608  57.7258674
  68.9353736  81.4628481  58.5343534  66.9050837  80.7656608  58.3378674
  66.2333776  80.4733521  57.5307331  67.0780837  79.5976608  59.3028674
  67.7493453  79.8893835  60.1105843  66.1087161  79.3222844  59.7183126
  67.5000272  78.7452474  58.7704608  66.2630837  81.9426608  59.0518674
  66.0961771  82.7522183  58.3413318  65.3095054  81.6327644  59.4793627
  66.9222239  82.2888063  59.8479946  68.8950837  80.0216608  56.9858674
  68.4020837  79.6066608  55.9338674  69.9950837  79.5136608  57.5328674
  70.4124235  79.9651473  58.3341705  70.6530837  78.3396608  56.9828674
  70.2608597  78.1192245  55.9900596  72.1520837  78.5646608  56.8738674
  72.5608313  78.7775557  57.8616433  72.6259246  77.6698445  56.4702849
  72.3461735  79.4081918  56.2113843  70.3550837  77.1366608  57.8648674
  70.2980837  77.2546608  59.0938674  70.1430837  75.9886608  57.2278674
  70.0236403  75.9952513  56.2249770  70.0250837  74.7176608  57.9288674
  70.6534040  74.7311555  58.8194463  68.5760837  74.4626608  58.3558674
  68.5751580  73.5528347  58.9561297  68.2812669  75.3079117  58.9777468
  67.5960837  74.3126608  57.2108674  67.4000837  73.0766608  56.5908674
  67.9630955  72.2148746  56.9492552  66.5090837  72.9336608  55.5378674
  66.3737890  71.9638614  55.0590289  65.7890837  74.0266608  55.0988674
  64.9030837  73.8736608  54.0608674  64.8700097  72.9748165  53.7253310
  65.9600837  75.2626608  55.6948674  65.3955329  76.1266156  55.3442040
  66.8580837  75.3996608  56.7468674  66.9946593  76.3701369  57.2239663
  70.5280837  73.6066608  57.0228674  70.7730837  73.8336608  55.8348674
  70.6550837  72.4046608  57.5748674  70.4513172  72.2775847  58.5559027
  71.1790837  71.2676608  56.8238674  71.0781818  71.4512698  55.7541919
  72.6680837  71.0546608  57.1478674  73.1032198  70.2840398  56.5115506
  73.1932398  71.9963440  56.9880431  72.9430837  70.6436608  58.5728674
  72.8770837  69.3086608  58.9428674  72.6111449  68.5705782  58.1861570
  73.1400837  68.9056608  60.2398674  73.0718869  67.8530595  60.5146044
  73.4910837  69.8466608  61.1898674  73.7033686  69.5388179  62.2137169
  73.5730837  71.1906608  60.8358674  73.8503535  71.9343740  61.5829365
  73.3020837  71.5836608  59.5328674  73.3699092  72.6356275  59.2556207
  70.3960837  69.9836608  57.0488674  69.6840837  69.8456608  58.0428674
  70.5410837  69.0596608  56.0998674  71.0592154  69.3091557  55.2695715
  70.0040837  67.7016608  56.2008674  69.5116283  67.5802578  57.1656722
  68.9840837  67.4146608  55.0898674  69.4960490  67.4889680  54.1304565
  68.6058318  66.4009331  55.2217072  67.8070837  68.3756608  55.0878674
  67.5490837  69.0816608  56.0628674  67.0810837  68.4006608  53.9788674
  66.2846717  69.0184271  53.9141175  67.3277478  67.8018258  53.2038485
  71.1510837  66.7106608  56.0628674  72.1550837  67.0046608  55.4088674
  70.9820837  65.5346608  56.6668674  70.1530898  65.4087681  57.2299121
  71.9570837  64.4386608  56.6088674  72.7363829  64.7123476  55.8976097
  72.5980837  64.1966608  58.0178674  71.9654833  64.6984333  58.7500842
  72.7380837  62.7216608  58.3918674  73.3709744  62.2192889  57.6603125
  73.1896507  62.6382267  59.3804152  71.7536313  62.2538474  58.4020279
  74.0060837  64.7756608  58.0728674  74.4381303  64.4829989  59.0298342
  74.5747657  64.3185585  57.2630786  74.0560837  66.2676608  57.9378674
  73.4879666  66.7255095  58.7476312  75.0920931  66.6029084  57.9867845
  73.6245996  66.5610692  56.9808759  71.2230837  63.2056608  56.0848674
  70.0960837  62.9536608  56.4968674  71.8770837  62.4546608  55.1968674
  72.7806786  62.7719346  54.8760044  71.3380837  61.2086608  54.6378674
  70.4400716  60.9180253  55.1830320  70.9750837  61.3946608  53.1588674
  71.9092253  61.5863465  52.6309134  70.5546267  60.4477635  52.8201914
  69.9900837  62.5186608  52.8708674  69.0253654  62.2370248  53.2928870
  70.3547867  63.4177893  53.3675150  69.8320837  62.7906608  51.3818674
  69.7120837  61.8196608  50.6068674  69.8250837  63.9736608  50.9768674
  72.3590837  60.0696608  54.7788674  73.5610837  60.2826608  54.5888674
  71.8700837  58.8746608  55.1208674  70.8873316  58.8081876  55.3442034
  72.6780837  57.6546608  55.1738674  73.7370930  57.9096878  55.1343733
  72.4050837  56.8876608  56.4808674  71.3485876  56.6375983  56.5777382
  72.9953673  55.9713821  56.4709338  72.7880837  57.6336608  57.7328674
  72.0370837  58.7186608  58.1828674  71.1628447  59.0325735  57.6125475
  72.3900837  59.3966608  59.3408674  71.8016090  60.2521870  59.6723384
  73.4920837  58.9856608  60.0768674  73.7711667  59.5121146  60.9895880
  74.2390837  57.9006608  59.6468674  75.1073584  57.5743556  60.2193394
  73.8810837  57.2296608  58.4868674  74.4616565  56.3694525  58.1535854
  72.2400837  56.8196608  53.9618674  71.3790837  55.9426608  54.0798674
  72.8250837  57.1066608  52.7978674  73.6068553  57.7458115  52.7774002
  72.3110837  56.5856608  51.5118674  71.2231608  56.6437237  51.4779318
  72.8850837  57.3436608  50.2908674  72.4183623  56.9502627  49.3878119
  72.6150837  58.8486608  50.3908674  73.0819242  59.2428857  51.2935004
  73.0309916  59.3517280  49.5179166  71.5399961  59.0234757  50.4324237
  74.2920837  57.0956608  50.1808674  74.6419498  57.5683267  49.4220651
  72.5330837  55.0896608  51.2708674  71.8660837  54.5066608  50.4158674
  73.4660837  54.4806608  52.0018674  74.0684029  55.0321735  52.5961272
  73.7150837  53.0336608  51.9068674  73.6157949  52.7107635  50.8705382
  75.1340837  52.6936608  52.3938674  75.2187624  53.0567592  53.4181175
  75.2260364  51.6075810  52.3851778  76.2430837  53.3036608  51.5458674
  75.9956304  54.3506878  51.3709327  77.1727051  53.2401567  52.1114409
  76.4130837  52.5896608  50.2048674  77.0933620  51.7487437  50.3396967
  75.4405683  52.2209185  49.8787658  76.9550837  53.4706608  49.1638674
  77.9232185  53.3216026  48.9177048  76.2750837  54.4276608  48.5258674
  74.9960837  54.6756608  48.8058674  74.5230035  54.1330801  49.5143173
  74.5056327  55.4050698  48.3083537  76.8840837  55.1596608  47.5958674
  77.8552363  54.9877550  47.3781263  76.3722569  55.8836616  47.1121787
  72.6880837  52.1806608  52.6588674  72.6740837  50.9646608  52.4878674
  71.8470837  52.8046608  53.4868674  71.9799977  53.7871447  53.6796328
  70.7570837  52.1026608  54.1728674  71.1398580  51.1955373  54.6405319
  70.1430837  52.9916608  55.2588674  69.7946315  53.9310639  54.8296797
  69.3092478  52.4819069  55.7415356  71.2890837  53.4396608  56.5808674
  70.4207625  54.1682718  57.2765991  69.6670837  51.6606608  53.1948674
  69.3840837  52.3526608  52.2178674  69.0600837  50.5086608  53.4748674
  69.3598749  49.9792235  54.2810440  68.0190837  49.9346608  52.6128674
  68.4019072  49.8269551  51.5980054  67.5870837  48.5476608  53.1258674
  68.4365114  47.8648880  53.1060345  67.2078530  48.6254760  54.1448026
  66.5020837  47.9066608  52.3118674  66.5900837  47.7456608  50.9438674
  65.4930837  47.1576608  50.4988674  65.3685979  46.9456559  49.4369558
  64.6980837  46.9256608  51.5278674  63.7901534  46.4848793  51.4894736
  65.3050837  47.3826608  52.6738674  64.8022991  47.2790169  53.6354114
  66.8210837  50.8786608  52.5118674  66.3660837  51.1876608  51.4118674
  66.3340837  51.3346608  53.6648674  66.6986837  50.9553198  54.5269965
  65.2680837  52.3366608  53.7428674  64.6458134  52.2929746  52.8490160
  64.3840837  52.0626608  54.9708674  64.2445993  50.9824126  55.0121860
  64.9574437  52.3879201  55.8389485  63.0240837  52.7506608  54.9738674
  62.6229368  52.7016088  55.9861795  63.1723126  53.7932268  54.6924668
  62.0420837  52.0976608  54.0058674  62.5659568  51.8999737  53.0706798
  61.7095841  51.1555120  54.4416416  60.8330837  52.9856608  53.7328674
  60.1165647  52.3974293  53.1595571  60.3966676  53.2510698  54.6957787
  61.1710837  54.2316608  52.9788674  61.5750949  53.9859464  52.0863994
  60.3317891  54.7736398  52.8307350  61.8346899  54.7770801  53.5101336
  65.9020837  53.7296608  53.8238674  67.0550837  53.8686608  54.2478674
  65.1550837  54.7506608  53.3978674  64.2547555  54.5717328  52.9765681
  65.6220837  56.1366608  53.4758674  66.5804045  56.2225029  52.9636647
  64.6270837  57.1056608  52.8208674  64.3001900  56.6519845  51.8852299
  63.7756377  57.2012617  53.4946627  65.2110837  58.4896608  52.5388674
  65.8110063  58.7817896  53.4007575  65.8520848  58.4099436  51.6608783
  64.1360837  59.5406608  52.2888674  64.6129940  60.4568244  51.9405861
  63.4544938  59.1723347  51.5221403  63.3630837  59.8436608  53.4988674
  63.5861381  59.2972841  54.3185128  62.4020837  60.7686608  53.5908674
  62.0660837  61.5236608  52.5398674  62.5428879  61.3977329  51.6584481
  61.3369920  62.2164898  52.6321318  61.7680837  60.9476608  54.7508674
  62.0173628  60.3843624  55.5512767  61.0416988  61.6456604  54.8233949
  65.8440837  56.5136608  54.9418674  64.9200837  56.4376608  55.7518674
  67.0770837  56.9036608  55.2618674  67.7581465  57.0081285  54.5233965
  67.5020837  57.1526608  56.6348674  66.6343728  57.2421576  57.2884477
  68.3860837  56.0006608  57.1458674  69.3044145  55.9836834  56.5589426
  68.7300837  56.1716608  58.6238674  67.8122107  56.1882638  59.2115179
  69.3550340  55.3404945  58.9505155  69.2688904  57.1084539  58.7660175
  67.6940837  54.7586608  56.9668674  68.2428455  54.0379193  57.2846606
  68.2660837  58.4746608  56.7048674  69.2070837  58.7056608  55.9428674
  67.8530837  59.3326608  57.6298674  67.1332450  59.0599269  58.2837388
  68.4080837  60.6686608  57.7358674  69.3920260  60.5992970  58.1997051
  68.5083034  61.0828144  56.7326066  67.5390837  61.5866608  58.5618674
  66.4530837  61.2056608  58.9888674  68.0330837  62.7936608  58.8058674
  69.0017418  62.9904238  58.5982975  67.2460837  63.8236608  59.4798674
  66.1868013  63.6258936  59.3158303  67.5120837  63.8536608  60.9968674
  66.8734942  64.5783784  61.5019288  67.3073806  62.8563255  61.3861219
  68.9290837  64.1846608  61.3838674  69.3390837  65.5046608  61.5248674
  68.6248589  66.3047761  61.3304496  70.6390837  65.8116608  61.9078674
  70.9482324  66.8525918  62.0026855  71.5410837  64.7956608  62.1688674
  72.5621354  65.0299230  62.4699898  71.1410837  63.4756608  62.0458674
  71.8476276  62.6718112  62.2525597  69.8420837  63.1756608  61.6598674
  69.5265748  62.1362145  61.5698372  67.4730837  65.1846608  58.8488674
  68.4510837  65.3926608  58.1278674  66.5370837  66.0906608  59.1198674
  65.7277650  65.7994180  59.6492823  66.6140837  67.4726608  58.6858674
  67.5200703  67.6336821  58.1016075  65.4050837  67.8066608  57.8138674
  65.4547530  67.2027243  56.9078360  64.4999033  67.5567566  58.3673078
  65.3810837  69.1806608  57.4648674  64.6120260  69.3586487  56.9185430
  66.6370837  68.3686608  59.9108674  66.0400837  68.0346608  60.9328674
  67.3240837  69.5026608  59.8028674  67.9005999  69.6503998  58.9868395
  67.3420837  70.5176608  60.8588674  66.8342596  70.1476515  61.7495452
  68.7880837  70.9006608  61.2388674  68.7583773  71.6451858  62.0344177
  69.5610837  69.6776608  61.7168674  69.5916163  68.9328307  60.9216344
  70.5778162  69.9696904  61.9796847  69.0675702  69.2543403  62.5917072
  69.4520837  71.4746608  60.1108674  70.3503376  71.7103753  60.3541347
  66.5480837  71.7706608  60.4608674  66.7430837  72.8436608  61.0308674
  65.6190837  71.6206608  59.5188674  65.4665125  70.7095060  59.1106783
  64.8230837  72.7386608  59.0298674  65.4793884  73.5701927  58.7731224
  64.0270837  72.3386608  57.7808674  63.7548373  73.2440407  57.2384024
  64.6609634  71.7148681  57.1506458  62.8520837  71.6226608  58.1248674
  62.3758372  71.3863268  57.3255331  63.8550837  73.2226608  60.1038674
  63.5100837  72.4556608  61.0088674  63.3960837  74.4876608  59.9988674
  63.9240837  75.5416608  59.1098674  63.6141741  75.3375504  58.0849795
  65.0126550  75.5481818  59.1652661  63.3160837  76.7996608  59.6558674
  63.1616067  77.5165957  58.8494927  63.9762263  77.2344391  60.4063879
  62.0290837  76.3806608  60.2618674  61.2436802  76.2857621  59.5120444
  61.7059959  77.0719584  61.0402128  62.3330837  75.0096608  60.8738674
  62.7603818  75.0824187  61.8739779  61.0530837  74.1596608  60.9248674
  60.4150837  74.0996608  61.9698674  60.6960837  73.5166608  59.8108674
  61.2253375  73.6741096  58.9651726  59.5040837  72.6506608  59.7388674
  58.7157042  73.0484188  60.3778865  58.9820837  72.5886608  58.2968674
  59.8259481  72.3397249  57.6534211  58.2422540  71.7895426  58.2503691
  58.3500837  73.8946608  57.8238674  57.3366498  73.9106197  58.2248634
  58.9192492  74.7243658  58.2430804  58.2980837  74.0296608  56.3108674
  59.3740837  74.0476608  55.6798674  57.1840837  74.1416608  55.7508674
  59.7230837  71.2256608  60.2738674  58.7620837  70.4616608  60.3948674
  60.9740837  70.8706608  60.5718674  61.7158045  71.5368537  60.4101990
  61.3270837  69.5566608  61.1068674  60.5718181  68.8224522  60.8264910
  62.6760837  69.1106608  60.5408674  63.4485019  69.7946860  60.8924054
  62.8923856  68.1041757  60.8990592  62.6530837  69.1126608  59.1268674
  63.5075306  68.8302613  58.7925459  61.4050837  69.6166608  62.6328674
  61.5210837  70.7076608  63.1988674  61.3560837  68.4476608  63.3098674
  61.0830837  67.1006608  62.7748674  61.9923872  66.6966647  62.3298341
  60.3042994  67.1638801  62.0148692  60.6420837  66.3306608  63.9818674
  60.8883805  65.2756535  63.8618815  59.5663421  66.4386026  64.1205396
  61.3860837  66.9356608  65.1158674  62.3926520  66.5231529  65.1848352
  60.8700469  66.7939299  66.0654557  61.4570837  68.4296608  64.7768674
  60.6038597  68.9884412  65.1614080  62.7480837  69.0296608  65.3288674
  63.7360837  69.1526608  64.6078674  62.7200837  69.3996608  66.6068674
  61.8736248  69.2721454  67.1429145  63.8610837  70.0336608  67.2568674
  64.0975695  70.9703640  66.7521292  63.5480837  70.3356608  68.7318674
  62.7221781  71.0469599  68.7375768  63.2305119  69.4071334  69.2062988
  64.7210837  70.9176608  69.4958674  64.9810837  72.2906608  69.4678674
  64.3192531  72.9380419  68.8925611  66.0580837  72.8336608  70.1548674
  66.2419959  73.9077220  70.1289708  66.9040837  72.0016608  70.8758674
  67.9720837  72.5546608  71.5468674  68.0272636  73.5074987  71.4436459
  66.6720837  70.6316608  70.9188674  67.3351856  69.9766067  71.4839343
  65.5840837  70.0976608  70.2338674  65.3925991  69.0251080  70.2664899
  65.1120837  69.1576608  67.1648674  65.0300837  67.9306608  67.2988674
  66.2470837  69.7986608  66.8928674  66.1896206  70.7237407  66.4915889
  67.5720837  69.2276608  67.1318674  67.4980410  68.3576762  67.7843579
  68.3010837  68.8106608  65.8328674  69.0905307  68.1050323  66.0916379
  67.3460837  68.1616608  64.8388674  66.5565665  68.8668986  64.5792490
  67.8929799  67.8817080  63.9385174  66.9044996  67.2714043  65.2866926
  68.9340837  69.9476608  65.2328674  69.3826577  69.6767470  64.4285121
  68.3980837  70.2866608  67.8548674  68.0370837  71.4646608  67.8598674
  69.5160837  69.8756608  68.4448674  69.7482690  68.8928620  68.4620718
  70.3780837  70.8076608  69.1828674  69.7632297  71.4864489  69.7738838
  71.3150837  70.0486608  70.1268674  71.7174635  70.7349813  70.8719539
  70.7798998  69.2421258  70.6280455  72.4860837  69.4246608  69.4448674
  72.3820837  68.2776608  68.6888674  71.5257503  67.7633581  68.5395841
  73.5690837  67.9676608  68.1998674  73.6974280  67.0896906  67.5667836
  74.4380837  68.8686608  68.6168674  75.4250431  68.8844839  68.4029498
  73.7860837  69.7926608  69.3958674  74.3391164  70.6235393  69.8339278
  71.1710837  71.7546608  68.2688674  71.7270837  72.7466608  68.7458674
  71.2340837  71.4466608  66.9738674  70.9509750  70.5283963  66.6628382
  71.7620837  72.3886608  65.9758674  72.7011143  72.8112545  66.3332682
  72.0190837  71.6846608  64.6418674  71.1641763  71.0696732  64.3607574
  72.2111324  72.4185235  63.8591396  73.1940837  70.7856608  64.6768674
  74.5030837  71.1606608  64.6428674  74.7069112  72.2299691  64.5868858
  75.3130837  70.0556608  64.6888674  76.3229574  70.0654256  64.6762440
  74.5300837  68.9356608  64.7588674  74.8940837  67.5956608  64.8258674
  75.9558802  67.3493193  64.8275208  73.8920837  66.6646608  64.8858674
  74.1432206  65.6053451  64.9395373  72.5390837  67.0446608  64.8798674
  71.7443414  66.3001848  64.9271921  72.1730837  68.3916608  64.8128674
  71.1122917  68.6411717  64.7890916  73.1850837  69.3576608  64.7578674
  70.8390837  73.5836608  65.7368674  71.3070837  74.6646608  65.3838674
  69.5380837  73.3796608  65.9428674  69.2519390  72.4275706  66.1210384
  68.5010837  74.3746608  65.6558674  67.5542670  73.8598836  65.4926444
  68.3200837  75.3896608  66.8148674  68.0939687  76.3424367  66.3361302
  67.4471641  75.0464203  67.3701127  69.4900837  75.5676608  67.7698674
  69.8469024  74.5729689  68.0370179  70.2727492  76.1011289  67.2304709
  69.1320837  76.3366608  69.0378674  69.7606787  77.2261989  69.0789695
  68.0861249  76.6345824  68.9649816  69.3380837  75.5096608  70.3038674
  68.4739263  74.8592272  70.4390290  70.2341437  74.9014790  70.1802117
  69.4930837  76.3846608  71.5008674  68.6627029  76.9479901  71.6158776
  69.6275221  75.8116150  72.3216261  70.2940310  76.9871501  71.3760108
  68.6890837  74.9356608  64.2308674  68.7680837  74.1296608  63.3028674
  68.7490837  76.2536608  64.0318674  68.5358433  76.8812552  64.7939390
  69.0740837  76.8326608  62.7248674  69.6127664  76.0970861  62.1274981
  67.8040837  77.2476608  61.9648674  67.2948056  77.9773915  62.5943338
  68.1399884  77.7313542  61.0476386  66.8380837  76.1106608  61.6178674
  66.2714261  76.3995728  60.7326953  67.4334045  75.2253187  61.3945636
  65.8550837  75.7686608  62.7368674  65.3920837  76.6496608  63.4598674
  65.5280837  74.4826608  62.8758674  64.8820303  74.2045289  63.6006839
  65.9280882  73.7931578  62.2556389  69.9900837  78.0396608  62.9238674
  70.1290837  78.5276608  64.0378674  70.6160837  78.5036608  61.8458674
  70.4878326  78.0298469  60.9631719  71.5260837  79.6396608  61.8938674
  71.6874439  79.9199712  62.9347748  72.8930837  79.3006608  61.2558674
  72.7336537  79.0611943  60.2045168  73.8680837  80.4686608  61.3688674
  74.0283802  80.7084206  62.4200191  74.8182650  80.1951335  60.9101327
  73.4551822  81.3380920  60.8572990  73.4700837  78.1746608  61.9258674
  74.3185657  77.9659842  61.5282084  70.8820837  80.8306608  61.1828674
  70.5590837  80.7486608  59.9958674  70.7410837  81.9366608  61.9178674
  71.1046021  81.9235559  62.8600893  70.0540837  83.1416608  61.4568674
  69.5015267  82.9706677  60.5329945  69.0670837  83.6526608  62.5368674
  69.6293702  83.8749253  63.4438027  68.3370837  84.9086608  62.0708674
  67.7741618  84.6870456  61.1641665  67.6523334  85.2419705  62.8506892
  69.0624652  85.6955967  61.8643359  68.0710837  82.5566608  62.8938674
  68.6070485  81.6896740  63.2801026  67.3815726  82.9249605  63.6534919
  67.5109639  82.2700243  62.0038078  71.0730837  84.2296608  61.1098674
  71.9450837  84.5356608  61.9168674  70.9460837  84.7966608  59.9068674
  70.1812368  84.4891830  59.3232871  71.8370837  85.8406608  59.3918674
  72.6455342  86.0199541  60.1006417  72.4460837  85.4106608  58.0528674
  71.6627418  85.1378472  57.3457272  73.0340923  86.2322406  57.6437799
  73.3690837  84.2276608  58.1498674  72.8650837  82.9316608  58.1248674
  71.7892307  82.7826846  58.0329635  73.7100837  81.8386608  58.2148674
  73.2991004  80.8291396  58.2070973  75.0790837  82.0286608  58.3148674
  75.7487935  81.1710814  58.3792594  75.5960837  83.3146608  58.3328674
  76.6723459  83.4677800  58.4123310  74.7450837  84.4056608  58.2498674
  75.1522661  85.4166706  58.2625812  71.0370837  87.1176608  59.1758674
  70.2900837  87.2256608  58.1998674  71.1830837  88.0816608  60.0818674
  71.7222426  87.9178690  60.9200675  70.5000837  89.3666608  59.9368674
  69.4811106  89.1953112  59.5898338  70.4430837  90.1306608  61.2718674
  71.4432055  90.1516774  61.7047807  70.1250057  91.1479679  61.0438047
  69.4790837  89.5106608  62.2598674  68.1130837  89.4856608  61.9978674
  67.7482714  89.9324669  61.0730022  67.2220837  88.9076608  62.8858674
  66.1542287  88.9026068  62.6673224  67.6900837  88.3396608  64.0528674
  66.7980837  87.7636608  64.9258674  65.8889459  87.8158017  64.6219770
  69.0440837  88.3466608  64.3398674  69.4156390  87.8980804  65.2611832
  69.9300837  88.9296608  63.4458674  70.9978751  88.9390089  63.6645779
  71.1530837  90.2236608  58.8568674  72.3360837  90.0856608  58.5688674
  70.3550837  91.1056608  58.2688674  69.3819888  91.1236366  58.5387980
  70.8110837  92.0556608  57.2528674  71.8467009  91.8419022  56.9884744
  69.9480837  91.9506608  55.9838674  69.1428163  92.6773367  56.0915045
  70.5852931  92.2365296  55.1470022  69.3560837  90.5726608  55.7228674
  70.1844169  89.8760825  55.5934699  68.7777621  90.2893189  56.6022783
  68.2960837  90.5066608  54.2718674  66.8350837  91.3706608  54.8278674
  67.1008218  92.3885083  55.1132947  66.1009523  91.3995810  54.0226871
  66.4106062  90.8519132  55.6874144  70.6660837  93.4316608  57.8958674
  69.8700837  93.5826608  58.8228674  71.4240837  94.4246608  57.4278674
  72.1104865  94.2597797  56.7055345  71.3410837  95.7696608  58.0168674
  71.4294304  95.6798192  59.0995597  72.4420837  96.7166608  57.5108674
  73.3339426  96.1244593  57.3059664  72.0950353  97.1811492  56.5878788
  72.7770837  97.8066608  58.5368674  71.8580453  98.0330769  59.0774272
  73.5062172  97.3780576  59.2244450  73.3390837  99.0856608  57.9348674
  72.9230837 100.1796608  58.3868674  74.1930837  99.0066608  57.0208674
  69.9650837  96.3816608  57.7658674  69.3310837  96.8896608  58.6878674
  69.5210837  96.3136608  56.5138674  70.1499054  95.9916621  55.7920644
  68.1750837  96.7356608  56.1238674  67.7638710  97.4155335  56.8700419
  68.2290837  97.4626608  54.7758674  68.7978363  96.8444331  54.0813069
  67.2089530  97.5760048  54.4090071  68.8790837  98.8246608  54.8868674
  68.3100837  99.6846608  55.5938674  69.9470837  99.0386608  54.2738674
  67.2570837  95.5236608  56.0598674  67.6890837  94.4086608  56.3098674
  65.9860837  95.7536608  55.7518674  65.6568449  96.7071272  55.7008484
  65.0220837  94.6736608  55.5318674  65.5293295  93.7120250  55.6096978
  63.8960837  94.7186608  56.5698674  63.2006884  93.9174274  56.3197681
  64.3576386  94.5103572  57.5351014  63.1490837  96.0286608  56.6418674
  62.0540837  96.2776608  55.8118674  61.7411862  95.5079186  55.1063948
  61.3660837  97.4836608  55.8748674  60.5181624  97.6733175  55.2167173
  61.7680837  98.4516608  56.7858674  61.0880837  99.6396608  56.8578674
  60.3578829  99.6921385  56.2368581  62.8490837  98.2256608  57.6218674
  63.1645256  98.9865908  58.3357178  63.5320837  97.0196608  57.5458674
  64.3841515  96.8337382  58.1997125  64.4520837  94.7716608  54.1288674
  64.5810837  95.8016608  53.4658674  63.8300837  93.6856608  53.6838674
  63.8350955  92.8481762  54.2483971  63.1350837  93.6516608  52.4038674
  63.4465914  94.5010783  51.7959595  63.4530837  92.3686608  51.6468674
  62.9821736  91.5908789  52.2480315  62.9494987  92.4366854  50.6825672
  64.9190837  92.0236608  51.4298674  65.4293308  91.9726605  52.3917134
  65.0180837  90.6826608  50.7348674  64.5084269  90.7330187  49.7726757
  66.0668749  90.4311173  50.5771853  64.5503413  89.9167935  51.3535472
  65.6080837  93.0996608  50.6168674  65.5450365  94.0511224  51.1449254
  66.6551856  92.8329575  50.4735203  65.1206403  93.1904531  49.6461694
  61.6360837  93.7206608  52.6258674  61.1240837  93.2306608  53.6338674
  60.9480837  94.3446608  51.6748674  61.4562486  94.8482975  50.9619734
  59.4970837  94.3546608  51.6228674  59.0867922  93.8466322  52.4956028
  58.9540837  95.7916608  51.5908674  59.2612235  96.2606105  50.6560671
  57.4300837  95.8046608  51.6898674  57.1221850  95.3362585  52.6246922
  57.0726111  96.8340724  51.6648824  57.0062396  95.2529403  50.8507838
  59.5100837  96.5316608  52.6868674  59.1728661  97.4303265  52.6700001
  59.1370837  93.5916608  50.3588674  59.3950837  94.0616608  49.2558674
  58.5560837  92.4086608  50.5348674  58.2841536  92.1292843  51.4665874
  58.3690837  91.4546608  49.4428674  58.6589802  91.8701279  48.4777528
  59.1740837  90.1486608  49.6828674  59.0235924  89.4800510  48.8352752
  60.6620837  90.4536608  49.8318674  60.8134238  91.1218976  50.6796036
  61.2087372  89.5256329  49.9993029  61.0283023  90.9315891  48.9232585
  58.6720837  89.3666608  50.8958674  57.6274409  89.0939286  50.7460656
  59.2689934  88.4629307  51.0186286  58.7612108  89.9845046  51.7894144
  56.8930837  91.1336608  49.2208674  56.0930837  91.1586608  50.1548674
  56.5520837  90.8316608  47.9718674  57.2521094  90.9115097  47.2482048
  55.2140837  90.3926608  47.5938674  54.5661604  90.3926021  48.4703916
  54.6150837  91.3276608  46.5438674  55.2169182  91.2208557  45.6413780
  53.6013435  90.9786486  46.3473445  54.5760837  92.7886608  46.9558674
  54.1411118  92.8551395  47.9531040  55.5974594  93.1685768  46.9794792
  53.7480837  93.6196608  45.9848674  54.0954743  94.6517184  46.0325741
  53.9045791  93.2303024  44.9788810  52.2640837  93.5676608  46.3238674
  51.9959748  92.5311486  46.5284665  52.0959296  94.1690438  47.2172664
  51.4250837  94.0856608  45.2138674  51.5804284  93.5282748  44.3860457
  50.4510431  94.0348289  45.4760905  51.6730657  95.0462383  45.0244081
  55.3060837  88.9886608  47.0238674  56.3500837  88.6056608  46.4918674
  54.2070837  88.2396608  47.1368674  53.4162714  88.6324639  47.6271947
  54.0830837  86.8806608  46.5898674  54.6853554  86.1722173  47.1586168
  52.6100837  86.4146608  46.6228674  52.0372392  87.0379373  45.9362265
  52.4710837  84.9426608  46.2138674  53.0433231  84.3186826  46.9003752
  51.4209656  84.6527035  46.2495873  52.8500613  84.8092139  45.2006209
  52.0850837  86.6026608  47.9418674  51.1697970  86.3141061  47.9660900
  54.5620837  86.8076608  45.1398674  54.1810837  87.6446608  44.3198674
  55.4090837  85.8196608  44.8488674  55.7183236  85.2097009  45.5921163
  55.9140837  85.5766608  43.4958674  56.0100761  84.4960295  43.3904122
  55.1498688  85.9416957  42.8097010  57.2430837  86.2276608  43.1478674
  57.8600837  85.8576608  42.1468674  57.6930837  87.1886608  43.9558674
  57.1270610  87.4938293  44.7347061  58.9540837  87.8916608  43.6948674
  59.0892758  88.0189999  42.6208064  58.9470837  89.2766608  44.3558674
  58.8305419  89.1331934  45.4300808  59.9095502  89.7471961  44.1549822
  57.8250837  90.1726608  43.8378674  57.9455994  90.2649715  42.7584900
  56.8917536  89.6534603  44.0556401  57.7920837  91.5616608  44.4658674
  57.5500837  92.5406608  43.7198674  57.9890837  91.6866608  45.7008674
  60.1330837  87.0356608  44.1608674  59.9450837  86.0586608  44.8908674
  61.3380837  87.4016608  43.7248674  61.4302213  88.2685531  43.2148599
  62.5320837  86.5696608  43.9028674  62.3016391  85.7108830  44.5333396
  63.0160837  86.0606608  42.5388674  63.1354130  86.9280492  41.8896393
  63.9852913  85.5860197  42.6920098  62.0610837  85.0666608  41.8878674
  62.1079537  84.1616683  42.4935840  61.0547661  85.4828710  41.9346972
  62.4050837  84.7266608  40.4358674  62.9020837  85.6026608  39.6848674
  62.1500837  83.5676608  40.0328674  63.6710837  87.3066608  44.6138674
  64.0520837  88.4066608  44.2118674  64.2060837  86.6866608  45.6658674
  63.7860686  85.8235268  45.9800112  65.3970837  87.1746608  46.3658674
  65.5905845  88.2197584  46.1241495  65.2710837  87.0156608  47.8958674
  65.1551371  85.9580351  48.1326895  66.5140837  87.5616608  48.5988674
  66.6304412  88.6194275  48.3628778  66.4054270  87.4401885  49.6766146
  67.3938483  87.0151956  48.2590303  64.0070837  87.7026608  48.4228674
  64.2026941  88.7747813  48.4427419  63.2035733  87.4934892  47.7166679
  63.5970837  87.2386608  49.8058674  64.3999645  87.4479361  50.5127523
  62.6950950  87.7671536  50.1144300  63.4008458  86.1666429  49.7866786
  66.5620837  86.3186608  45.8928674  66.4630837  85.1006608  45.9398674
  67.6530837  86.9356608  45.4398674  67.6658073  87.9404434  45.3381356
  68.8020837  86.1726608  44.9448674  68.8037235  85.1846234  45.4051702
  68.7500837  86.0026608  43.4138674  69.4558992  85.2470185  43.0690073
  67.7368163  85.7002569  43.1494036  69.0440837  87.2566608  42.6308674
  70.3500837  87.5736608  42.2548674  71.1619834  86.9092412  42.5506131
  70.6230837  88.7176608  41.5138674  71.6506915  88.9576757  41.2408914
  69.5880837  89.5536608  41.1218674  69.7979644  90.4501009  40.5383906
  68.2820837  89.2456608  41.4748674  67.4663975  89.9008033  41.1690171
  68.0130837  88.0996608  42.2198674  66.9859213  87.8528284  42.4884022
  70.1400837  86.7406608  45.3918674  70.2170837  87.8356608  45.9408674
  71.1880837  85.9596608  45.1618674  71.0566738  85.0597693  44.7225201
  72.5340837  86.3576608  45.5238674  72.8964183  87.0516980  44.7654973
  72.4885312  86.8647558  46.4876510  73.4930837  85.1956608  45.6248674
  73.3110837  84.1776608  44.9638674  74.5220837  85.3686608  46.4498674
  74.6271896  86.2607889  46.9115595  75.5210837  84.3346608  46.7058674
  75.1315950  83.3638866  46.3992810  76.8340837  84.6036608  45.9398674
  77.5635351  83.8438786  46.2204596  76.6120837  84.5606608  44.4478674
  75.8830446  85.3205289  44.1664391  77.5538919  84.7535566  43.9341674
  76.2387305  83.5767926  44.1637700  77.3480837  85.8896608  46.2978674
  78.1642202  86.0525918  45.8193539  75.8420837  84.2506608  48.1928674
  75.7820837  85.2526608  48.9018674  76.1770837  83.0446608  48.6478674
  76.0875918  82.2533825  48.0266032  76.6490837  82.8056608  50.0118674
  76.7441781  83.7626302  50.5249616  75.7000837  81.8836608  50.8128674
  75.5793984  80.9452332  50.2716751  76.2690837  81.6006608  52.2008674
  76.3896241  82.5386387  52.7428712  75.5866443  80.9504526  52.7482305
  77.2378403  81.1105366  52.1039748  74.3210837  82.5366608  50.9508674
  74.4251600  83.3462030  51.6733010  74.0682822  82.9514391  49.9750858
  73.2220837  81.5986608  51.3998674  73.4739746  81.1838164  52.3758566
  72.2823221  82.1464060  51.4700278  73.1170983  80.7890507  50.6776420
  78.0270837  82.1676608  49.8998674  78.1740837  81.1006608  49.2988674
  79.0270837  82.8406608  50.4648674  78.8228433  83.7304326  50.8969453
  80.4030837  82.3586608  50.4918674  80.5152911  81.5303921  49.7922391
  81.0798366  83.1654689  50.2105036  80.7590837  81.8796608  51.8838674
  80.3090837  82.4606608  52.8708674  81.5560837  80.8146608  51.9528674
  81.8985897  80.4099694  51.0932082  81.9760837  80.2146608  53.2158674
  81.8202403  80.9207903  54.0314611  81.1660837  78.9566608  53.4998674
  81.0676389  78.4206746  52.5558724  81.7459047  78.3550979  54.1998887
  79.7950837  79.2166608  54.0758674  79.8898617  79.8810432  54.9347702
  79.1740619  79.6917687  53.3164555  79.0170837  77.6786608  54.5998674
  79.9990837  77.3116608  56.0538674  79.9015338  78.1245167  56.7734841
  79.6482467  76.3835500  56.5051151  81.0454596  77.2034317  55.7684112
  83.4360837  79.8266608  53.1348674  83.8840837  79.3096608  52.1188674
  84.1690837  80.0656608  54.2128674  83.7839581  80.6052279  54.9748680
  85.5520837  79.6146608  54.3148674  85.6475504  78.6184561  53.8829396
  86.4900837  80.5706608  53.5578674  87.4672080  80.0884466  53.5296380
  86.0967787  80.6531188  52.5446488  86.6280837  81.9626608  54.1638674
  85.6753765  82.2316524  54.6200398  87.4003517  81.9247642  54.9321565
  87.0030837  83.0066608  53.1178674  87.3276750  83.9188712  53.6184787
  87.8151202  82.6232298  52.5000673  85.8620837  83.3266608  52.2498674
  85.8395180  82.8398553  51.3652146  84.8760837  84.1906608  52.5298674
  83.8900837  84.3656608  51.6488674  83.8941619  83.8480791  50.7815770
  83.1438828  85.0149592  51.8530620  84.8500837  84.8876608  53.6698674
  85.5891103  84.7686373  54.3479332  84.0915267  85.5302436  53.8481293
  85.9380837  79.5176608  55.7838674  85.3100837  80.1716608  56.6268674
  86.9590837  78.6986608  56.1048674  87.7350837  77.7806608  55.2528674
  87.9777088  78.2772058  54.3133588  87.1429199  76.8884642  55.0493329
  88.9510837  77.4836608  56.0778674  89.7343411  78.2127604  55.8704532
  89.3201783  76.4820267  55.8574139  88.4820837  77.5776608  57.4798674
  89.3443284  77.8516745  58.0877733  88.0202072  76.6792912  57.8893815
  87.4710837  78.7236608  57.4658674  86.6409836  78.5951790  58.1605073
  88.1660837  80.0466608  57.7468674  88.7720837  80.6246608  56.8408674
  88.0600837  80.5206608  58.9858674  87.4452430  80.0606838  59.6419859
  88.7610837  81.7286608  59.4218674  88.5619675  82.5446027  58.7271080
  88.2830837  82.1456608  60.8168674  87.1945686  82.2025146  60.8181475
  88.6075337  81.3856626  61.5276662  88.8370837  83.4826608  61.2528674
  89.8110837  83.5426608  62.0048674  88.2290837  84.5626608  60.7748674
  88.5593815  85.4810400  61.0348343  87.4393002  84.4604739  60.1536584
  90.2770837  81.4786608  59.4048674  90.7420837  80.4186608  59.8318674
  91.0320837  82.4486608  58.8898674  90.5906508  83.3035661  58.5826652
  92.4760837  82.2886608  58.6618674  92.5990645  81.3713024  58.0861691
  93.0200837  83.4546608  57.8428674  92.9122356  84.3792506  58.4099675
  94.0740958  83.2845862  57.6232462  92.4632464  83.5346224  56.9092521
  93.2770837  82.1266608  59.9598674  94.2570837  81.3846608  59.9838674
  92.8460837  82.8066608  61.0258674  92.0438854  83.4129324  60.9309368
  93.5180837  82.7396608  62.3308674  94.5976917  82.7240153  62.1815322
  93.1610837  83.9506608  63.2058674  92.1055569  83.8398991  63.4542503
  93.7592381  83.8523221  64.1117597  93.3960837  85.3246608  62.5888674
  92.7367548  85.4143585  61.7255363  93.1213744  86.0709870  63.3342760
  94.8380837  85.5506608  62.1518674  95.4927107  85.3913351  63.0087092
  95.0834618  84.8326433  61.3693458  95.0320837  86.9666608  61.6208674
  94.8196786  87.6650657  62.4303210  96.0719560  87.0742539  61.3123409
  94.1360837  87.2606608  60.4618674  93.1724561  87.1614384  60.7476581
  94.2971302  88.2053792  60.1430084  94.3330365  86.6138859  59.7115402
  93.1510837  81.4576608  63.0828674  94.0020837  80.8456608  63.7348674
  91.8760837  81.0736608  63.0048674  91.2237564  81.6498598  62.4924583
  91.3680837  79.8816608  63.6738674  92.1896390  79.2313439  63.9742572
  90.5980837  80.3056608  64.9248674  91.2260791  80.9909751  65.4941347
  89.6872683  80.8191100  64.6168329  90.2190837  79.1406608  65.8178674
  90.3150837  77.9676608  65.4378674  89.7740837  79.4656608  67.0238674
  89.5033875  78.7394761  67.6715395  89.7078621  80.4379104  67.2892842
  90.4830837  79.0846608  62.7038674  89.3370837  79.4596608  62.4428674
  91.0200837  77.9786608  62.1848674  91.9564056  77.7144627  62.4561606
  90.3430837  77.1826608  61.1478674  90.0574996  77.8300034  60.3187182
  91.2690837  76.0766608  60.6118674  91.6568440  75.4987382  61.4507636
  90.6793330  75.4268002  59.9653573  92.4460837  76.6226608  59.8108674
  93.5950837  75.9606608  59.9288674  92.3260837  77.6156608  59.0868674
  93.1218658  77.9568074  58.5668196  91.4327378  78.0818476  59.0182839
  89.0000837  76.5676608  61.5768674  88.1760837  76.2566608  60.7188674
  88.7810837  76.3946608  62.8808674  89.5363104  76.5366780  63.5362781
  87.4980837  75.8886608  63.3938674  87.1425988  75.0751418  62.7614778
  87.6620837  75.3616608  64.8238674  87.9935037  76.1911198  65.4485736
  86.6861292  75.0172369  65.1658980  88.6680837  74.2176608  64.9218674
  88.5310340  73.5757207  64.0516771  89.6688726  74.6490156  64.9004985
  88.4980837  73.3966608  66.1878674  88.6696206  74.0331674  67.0559304
  87.4844532  72.9975895  66.2252138  89.4430837  72.2806608  66.2308674
  90.2461729  72.4050382  66.8305986  89.3260837  71.1346608  65.5498674
  88.2870837  70.9106608  64.7358674  87.5725739  71.6163330  64.6281526
  88.2224866  70.0370194  64.2331969  90.2620837  70.1916608  65.6828674
  91.0499357  70.3492217  66.2948837  90.1779237  69.3251480  65.1708406
  86.3500837  76.9116608  63.3198674  85.1830837  76.5256608  63.3428674
  86.6810837  78.2006608  63.2278674  87.6425770  78.4744513  63.3716338
  85.6860837  79.2536608  62.9838674  84.7498579  78.9973718  63.4797468
  86.1770837  80.5966608  63.5298674  87.1442265  80.8020863  63.0710271
  85.4640521  81.3658658  63.2332034  86.3240837  80.5986608  65.0458674
  85.6610837  79.7906608  65.7368674  87.1070837  81.4266608  65.5478674
  85.3490837  79.3926608  61.5048674  86.0940837  78.9206608  60.6418674
  84.2180837  80.0376608  61.2268674  83.6629371  80.3970982  61.9902260
  83.7390837  80.2506608  59.8598674  84.4432546  79.8188578  59.1486792
  82.3780837  79.5846608  59.6648674  81.7923854  79.9887966  60.4905374
  81.9804954  79.9580026  58.7211305  82.2980837  78.0616608  59.6828674
  82.7069773  77.6843354  60.6201680  80.8420837  77.6356608  59.5568674
  80.4326071  78.0122519  58.6195271  80.7789672  76.5475591  59.5691848
  80.2706408  78.0417060  60.3915413  83.1390837  77.4596608  58.5698674
  84.1799025  77.7564708  58.6990942  83.0647272  76.3727629  58.6048715
  82.7768197  77.8172556  57.6060263  83.5890837  81.7306608  59.5508674
  82.9920837  82.4696608  60.3338674  84.1300837  82.1486608  58.4068674
  84.7888927  81.5497853  57.9299835  83.8180837  83.4506608  57.8118674
  83.3970143  84.1051438  58.5750527  85.0700837  84.1146608  57.2348674
  85.5113387  83.4171323  56.5229353  84.7586963  85.0187171  56.7115891
  86.0980837  84.4726608  58.2968674  85.7980837  84.4006608  59.5118674
  87.2250837  84.8376608  57.9018674  82.7970837  83.2436608  56.6998674
  82.9110837  82.2966608  55.9218674  81.7960837  84.1196608  56.6458674
  81.7418577  84.8372877  57.3545072  80.7880837  84.1106608  55.5928674
  80.9714767  83.2704385  54.9231714  79.3810837  83.9746608  56.1728674
  79.1577597  84.7793739  56.8733404  78.6728905  84.0073786  55.3449230
  79.1290837  82.6876608  56.9028674  79.5820837  82.5096608  58.2048674
  80.1404465  83.3113245  58.6882577  79.3310837  81.3286608  58.8888674
  79.7004748  81.1989029  59.9061254  78.6110837  80.3146608  58.2788674
  78.4139477  79.3857686  58.8140278  78.1410837  80.4826608  56.9858674
  77.5726591  79.6884295  56.5019353  78.3960837  81.6666608  56.3068674
  78.0202772  81.8053826  55.2931487  80.8360837  85.4186608  54.8278674
  81.2330837  86.4486608  55.3758674  80.4290837  85.3696608  53.5638674
  80.3721754  84.4773780  53.0940884  80.0800837  86.5726608  52.8108674
  79.9384864  87.4032699  53.5023426  81.1580837  86.9666608  51.7818674
  81.2011235  86.2022726  51.0060075  80.8300837  88.3236608  51.1448674
  80.7873297  89.0886914  51.9201092  81.6035323  88.5826518  50.4218183
  79.8660733  88.2649043  50.6395634  82.4380837  87.0386608  52.4238674
  83.1059207  87.2842261  51.7794361  78.7620837  86.3046608  52.0958674
  78.6620837  85.3476608  51.3208674  77.7540837  87.1256608  52.3828674
  77.8662393  87.8079079  53.1191142  76.4670837  87.0456608  51.7058674
  76.4797313  86.2063550  51.0105221  75.2980837  86.8746608  52.6958674
  75.2751194  87.7302458  53.3708098  73.9740837  86.7856608  51.9428674
  73.9961185  85.9299791  51.2680163  73.1578236  86.6650890  52.6551051
  73.8210923  87.6982406  51.3667677  75.5070837  85.6086608  53.5358674
  75.5781397  84.7783204  52.8333102  76.4602571  85.7313428  54.0501719
  74.4160837  85.3186608  54.5538674  73.4626263  85.1953872  54.0402309
  74.6574582  84.4039439  55.0952828  74.3447422  86.1484113  55.2570916
  76.2700837  88.3036608  50.8688674  76.2210837  89.4066608  51.4108674
  76.1850837  88.1256608  49.5498674  76.4631110  87.2381024  49.1561158
  75.7250837  89.1756608  48.6388674  75.8225252  90.1453586  49.1270175
  76.5440837  89.1936608  47.3498674  76.6758060  88.1634224  47.0191753
  75.9756487  89.7452127  46.6010202  77.8970837  89.8406608  47.5318674
  78.7450837  89.2766608  48.2458674  78.1210837  90.9236608  46.9548674
  74.2590837  88.9146608  48.3258674  73.8990837  87.8096608  47.9408674
  73.4220837  89.9346608  48.4958674  73.7936017  90.8380823  48.7525839
  71.9730837  89.7976608  48.3458674  71.7305137  88.8354404  47.8948785
  71.3030837  89.8766608  49.7198674  71.9039931  89.2061243  50.3341866
  71.4089531  90.8975446  50.0868660  69.8300837  89.4566608  49.7958674
  69.6231567  88.7438255  48.9976519  69.5280837  88.8136608  51.1398674
  69.7343438  89.5260979  51.9386095  68.4784688  88.5219351  51.1759986
  70.1545935  87.9312533  51.2700321  68.8840837  90.6276608  49.5588674
  69.0653138  91.0473065  48.5693460  67.8526948  90.2808421  49.6225453
  69.0566432  91.3935967  50.3149524  71.4370837  90.8976608  47.4458674
  71.7920837  92.0636608  47.6298674  70.5920837  90.5146608  46.4888674
  70.4230224  89.5267640  46.3640573  69.9040837  91.4526608  45.6038674
  70.0576781  92.4722859  45.9572406  70.4420837  91.3436608  44.1848674
  70.4283922  90.2900611  43.9058702  69.7770702  91.9021012  43.5260796
  71.8450837  91.8796608  44.0538674  72.2460837  92.7396608  44.8658674
  72.5470837  91.4396608  43.1278674  68.4120837  91.1546608  45.5928674
  68.0030837  89.9916608  45.6068674  67.6060837  92.2116608  45.5798674
  67.9994691  93.1369436  45.6757788  66.1540837  92.0846608  45.4588674
  65.9118120  91.1847635  44.8935457  65.4970837  91.9876608  46.8378674
  65.8795772  91.1063477  47.3527317  65.6957741  92.8743275  47.4399009
  64.0060837  91.8356608  46.7768674  63.4440837  90.6266608  46.4068674
  64.0985537  89.7867685  46.1737368  62.0720837  90.4756608  46.3308674
  61.6423658  89.5149965  46.0470237  61.2440837  91.5466608  46.6158674
  60.1619336  91.4319396  46.5534980  61.7900837  92.7626608  46.9798674
  61.1414370  93.6087290  47.2068611  63.1650837  92.9046608  47.0558674
  63.5991716  93.8640409  47.3373944  65.6220837  93.2956608  44.7058674
  65.9390837  94.4246608  45.0688674  64.8440837  93.0476608  43.6508674
  64.7644881  92.0966904  43.3200816  64.1260837  94.0996608  42.9228674
  64.2231914  95.0421557  43.4617298  64.6880837  94.2846608  41.5048674
  64.5924562  93.3236552  40.9994735  64.0556174  95.0203770  41.0080697
  66.1410837  94.7446608  41.4508674  66.1877178  95.6116210  40.7918484
  66.4307936  95.0395797  42.4594273  67.0960837  93.6666608  40.9418674
  68.0831784  93.8526879  41.3651132  66.7329945  92.6963919  41.2807537
  67.1870837  93.6716608  39.4168674  66.1696519  93.6260877  39.0284655
  67.6469397  94.6142197  39.1198583  67.9810837  92.5356608  38.8648674
  67.5548942  91.6621737  39.1396082  68.0018606  92.5978194  37.8569961
  68.9240106  92.5779504  39.2243109  62.6420837  93.7316608  42.8608674
  62.2540837  92.8476608  42.1028674  61.8280837  94.3966608  43.6778674
  62.2178099  95.0964946  44.2930466  60.3850837  94.1576608  43.7248674
  60.1283948  93.4197882  42.9647661  60.1274765  93.7685169  44.7099080
  59.5920837  95.4216608  43.4718674  60.1650837  96.4856608  43.2198674
  58.2670837  95.2896608  43.5318674  57.8734836  94.3663092  43.6441180
  57.3460837  96.4286608  43.3968674  57.5145347  96.9223678  42.4398006
  55.8840837  95.9646608  43.4588674  55.8175797  95.2342008  44.2651580
  55.2846678  96.8393316  43.7113580  55.3620837  95.3476608  42.1728674
  55.4926941  96.0637177  41.3615079  55.9310800  94.4440016  41.9543604
  53.8900837  94.9836608  42.2668674  53.0370837  95.8536608  42.4478674
  53.5860837  93.6926608  42.1478674  52.6219341  93.3968774  42.2029045
  54.3210542  93.0151896  42.0031171  57.5590837  97.4966608  44.4648674
  57.4710837  98.6866608  44.1698674  57.8360837  97.0586608  45.6938674
  57.9983315  96.0708136  45.8277814  57.8760837  97.9346608  46.8678674
  57.4907299  98.9230083  46.6173265  57.0040837  97.3356608  47.9778674
  57.5314066  96.4176289  48.2371882  57.0186464  98.0154503  48.8297912
  55.5550837  97.0056608  47.6138674  55.5472789  96.3886482  46.7153490
  54.8760837  96.2536608  48.7518674  54.8830903  96.8702693  49.6506687
  53.8463666  96.0273976  48.4751212  55.4123646  95.3245877  48.9450680
  54.7850837  98.2696608  47.2598674  55.2585341  98.7575196  46.4078475
  53.7576217  98.0103231  47.0045892  54.7867980  98.9477694  48.1132517
  59.2760837  98.1796608  47.4318674  59.4250837  98.9776608  48.3568674
  60.2930837  97.5096608  46.8898674  60.1539887  96.9638448  46.0515138
  61.6210837  97.5116608  47.5038674  61.8761627  98.5077665  47.8655402
  61.6150837  96.5466608  48.6918674  60.9355284  96.9237972  49.4561134
  61.2753386  95.5670233  48.3557369  63.1950837  96.2716608  49.5188674
  62.7299988  95.4185878  50.4270859  62.7180837  97.1096608  46.5178674
  62.5790837  96.1196608  45.7958674  63.7940837  97.8956608  46.4918674
  63.7585872  98.7732118  46.9906094  65.0220837  97.5556608  45.7728674
  64.9379455  96.5458251  45.3713056  65.2760837  98.5226608  44.6148674
  64.8745361  99.4923240  44.9091664  66.3560287  98.6001958  44.4891408
  64.6430837  98.0896608  43.3018674  65.0767094  97.1309588  43.0173323
  63.5747108  97.9662927  43.4792336  64.8580837  99.0966608  42.1798674
  66.0020837  99.5846608  42.0168674  63.8820837  99.3946608  41.4548674
  66.1700837  97.6286608  46.7578674  66.3590837  98.6536608  47.4078674
  66.9270837  96.5436608  46.8768674  66.7076836  95.7169820  46.3396847
  68.0730837  96.4976608  47.7818674  68.4562113  97.5057335  47.9403027
  67.6720837  95.9096608  49.1338674  66.7609124  96.4456233  49.3995932
  67.4484366  94.8492006  49.0176509  68.7170837  96.0936608  50.2458674
  69.7127073  95.9705402  49.8196329  68.5990837  97.4796608  50.8678674
  67.6038107  97.6033633  51.2947492  69.3469957  97.5910319  51.6529310
  68.7619136  98.2374621  50.1014968  68.5890837  95.0136608  51.3158674
  68.7362359  94.0332923  50.8627412  69.3429508  95.1739533  52.0866411
  67.5964862  95.0610458  51.7637554  69.1720837  95.6516608  47.1778674
  68.9090837  94.5826608  46.6458674  70.4000837  96.1466608  47.2648674
  70.5175146  97.0921772  47.5999912  71.5850837  95.3986608  46.8858674
  71.3427940  94.3409586  46.7826151  72.1180837  95.9096608  45.5498674
  71.3708442  95.7164740  44.7801849  72.2868872  96.9835053  45.6302622
  73.3280837  95.2676608  45.2028674  73.6402724  95.6069055  44.3608157
  72.6100837  95.5956608  47.9978674  73.0180837  96.7246608  48.2628674
  73.0110837  94.5096608  48.6588674  72.6232439  93.6056310  48.4299356
  73.9510837  94.5986608  49.7788674  74.5729884  95.4875054  49.6726174
  73.1880837  94.6906608  51.1038674  73.8846779  94.8276341  51.9309672
  72.4872245  95.5250575  51.0778206  72.2100837  93.2276608  51.5098674
  71.7376622  93.6919153  52.6632034  74.9450837  93.4446608  49.8318674
  74.7080837  92.3766608  49.2818674  76.0650837  93.7026608  50.5008674
  76.1810522  94.6309102  50.8816609  77.1320837  92.7316608  50.7098674
  76.7835646  91.7330700  50.4463336  78.3360837  93.0756608  49.8338674
  77.9735935  93.4210822  48.8656814  78.8995387  93.8743254  50.3163126
  79.1770837  91.9496608  49.6488674  79.9228834  92.1946569  49.0962739
  77.5080837  92.7916608  52.1878674  77.7470837  93.8796608  52.7248674
  77.5460837  91.6326608  52.8418674  77.4237790  90.7700368  52.3309654
  77.7540837  91.5586608  54.2888674  78.1940557  92.4865292  54.6543589
  76.4190837  91.3196608  55.0298674  76.0719775  90.3109183  54.8061351
  76.5900837  91.4746608  56.5318674  76.9367505  92.4833705  56.7564256
  75.6345672  91.3008296  57.0267108  77.3217653  90.7511194  56.8913538
  75.4330837  92.2526608  54.5718674  74.6069176  92.0987015  55.0359217
  78.7060837  90.4186608  54.6328674  78.4620837  89.2766608  54.2488674
  79.7790837  90.7386608  55.3538674  80.0005622  91.7127545  55.5028241
  80.6740837  89.7316608  55.9158674  80.6536167  88.8357976  55.2952954
  82.1140837  90.2546608  55.9738674  82.0823752  91.2207852  56.4775513
  82.7122848  89.5584790  56.5617334  82.7390837  90.4216608  54.5948674
  82.2910837  89.7616608  53.6258674  83.7020837  91.2096608  54.4848674
  80.2040837  89.3496608  57.3158674  79.9420837  90.2256608  58.1368674
  80.0820837  88.0446608  57.5738674  80.2003093  87.3845015  56.8186775
  79.7620837  87.5256608  58.9068674  79.6146071  88.3636773  59.5881002
  78.4920837  86.6696608  58.9018674  78.7017927  85.7725879  58.3193027
  78.3387348  86.3966409  59.9459193  77.2460837  87.3366608  58.3678674
  77.0130837  87.4196608  56.9958674  77.7526993  87.0064634  56.3100568
  75.8650837  88.0146608  56.4998674  75.6992447  88.0766067  55.4243387
  74.9240837  88.5246608  57.3748674  73.8010837  89.1066608  56.8588674
  73.7824061  89.1000988  55.8990717  75.1230837  88.4516608  58.7458674
  74.3848382  88.8589433  59.4366748  76.2740837  87.8536608  59.2348674
  76.4349931  87.7795003  60.3103712  80.8970837  86.6746608  59.4578674
  81.7160837  86.1456608  58.7088674  80.9170837  86.5396608  60.7788674
  80.2685278  87.0795564  61.3338335  81.8690837  85.6816608  61.4698674
  82.3251096  84.9902993  60.7612357  82.9760837  86.5206608  62.1168674
  82.5000145  87.3743599  62.5992108  83.4582769  85.8997342  62.8718773
  84.0200837  87.0156608  61.1248674  84.3021171  86.1807510  60.4833974
  83.5681509  87.8015871  60.5197404  85.2580837  87.5606608  61.8208674
  85.6187846  86.8209905  62.5356273  86.0300991  87.7514453  61.0754193
  84.9780837  88.8096608  62.5378674  84.0215778  89.1329116  62.5113201
  85.8780837  89.5336608  63.2128674  87.1570837  89.1516608  63.2898674
  87.4556241  88.3021434  62.8323808  87.8188481  89.7143614  63.8051688
  85.4980837  90.6606608  63.8188674  84.5349184  90.9597259  63.7643458
  86.1754605  91.2091836  64.3291439  81.1350837  84.8526608  62.5148674
  80.5270837  85.4026608  63.4308674  81.1610837  83.5326608  62.3378674
  81.4570696  83.1605197  61.4467991  80.7420837  82.5986608  63.3698674
  80.0298826  83.0877435  64.0344476  80.0730837  81.3616608  62.7598674
  79.3898060  81.7076362  61.9842826  80.8573318  80.7543546  62.3079445
  79.3050837  80.5246608  63.7768674  80.0499980  80.1044171  64.4525883
  78.6678114  81.2182121  64.3254771  78.2870837  79.1846608  63.1048674
  77.1720837  80.0846608  62.0398674  77.7444366  80.6144383  61.2783906
  76.4863018  79.3873678  61.5586333  76.6038057  80.8024339  62.6314442
  82.0060837  82.2366608  64.1468674  82.9240837  81.6176608  63.6028674
  82.0630837  82.6696608  65.4048674  81.2966398  83.2207391  65.7639993
  83.2240837  82.4426608  66.2738674  83.7233564  81.5164097  65.9894648
  84.2270837  83.6016608  66.1438674  85.0163524  83.4258356  66.8747845
  84.6457618  83.5518188  65.1387184  83.6220837  84.9776608  66.3728674
  82.7742937  85.0869933  65.6965544  83.2715906  85.0214767  67.4040496
  84.6150837  86.1036608  66.1268674  85.3857402  86.0872377  66.8975280
  85.0778786  85.9765588  65.1482125  83.9420837  87.4066608  66.1628674
  82.9446620  87.3845742  66.0055098  84.5260837  88.5876608  66.3898674
  83.7790837  89.6946608  66.3938674  82.7851747  89.6301169  66.2262994
  84.2114631  90.5913506  66.5644402  85.8400837  88.6896608  66.6228674
  86.4146279  87.8590263  66.6296107  86.2511337  89.5968014  66.7908925
  82.7770837  82.2596608  67.7268674  81.6000837  82.0026608  68.0028674
  83.5680837  82.3486608  68.6658674  80.7430837  60.4126608  68.6918674
  79.9350837  60.9296608  69.8408674  78.4410837  60.8956608  69.4888674
  78.0750837  61.0116608  68.3048674  80.3880837  62.3496608  70.2068674
  80.3830837  63.3456608  69.0258674  80.8850837  65.0286608  69.4628674
  79.6930837  66.1006608  68.6138674  82.3320837  65.2756608  68.4078674
  83.6230837  64.8396608  69.0798674  84.6370837  64.8306608  68.0858674
  84.0400837  65.8636608  70.1258674  84.0510837  65.3256608  71.4368674
  85.4090837  66.3576608  69.6708674  86.3330837  66.4206608  70.7268674
  85.8250837  65.2466608  68.7278674  77.5780837  60.7586608  70.3698674
  90.3980837  63.7626608  66.7398674  89.6040837  63.0726608  67.6408674
  88.4170837  63.6496608  68.0468674  88.0290837  64.8596608  67.5718674
  88.8270837  65.5556608  66.6628674  90.0290837  64.9906608  66.2398674
  90.8370837  65.6136608  65.3778674  88.1990837  66.7126608  66.3718674
  87.0340837  66.7686608  67.0618674  86.9210837  65.6226608  67.8108674
  83.2995122  64.9919643  71.6089367  86.1411354  65.8398050  71.3024918
  91.5735290  65.2422574  65.1330780  90.6209682  66.3862643  65.0676466
  82.2168248  64.7784635  67.5829600  82.3959942  66.2132394  68.1676661
  81.5998598  60.3754890  68.7508767  80.3506584  60.1532510  67.9725219
  80.9752730  63.0122250  68.3342068  79.4910305  63.3741398  68.6458728
  79.9002655  67.0293215  68.8030707  79.7434314  65.9471807  67.6573184
  78.7974729  65.8999255  68.9258555  79.8098629  62.6920060  70.9062303
  81.2843999  62.3060852  70.5759413  80.0758511  60.3611864  70.6140889
  86.3908288  67.4941626  67.0324687  83.4967830  63.9723156  69.4944968
  83.4059311  66.5954392  70.1861400  85.3781624  67.2509317  69.2931877
  89.8747726  62.2051043  67.9786058  86.2230381  64.5072112  69.2123977
  94.4540837  90.1796608  72.7348674  93.8309767  90.6575939  73.3700193
  95.4379397  90.1073613  72.9514308  94.0170837  88.7826608  72.5548674
  93.1940365  88.5753091  73.2387526  94.8505514  88.1164917  72.7776909
  93.5990837  88.7156608  71.1098674  92.5101780  88.7118477  71.0612057
  93.9848428  87.7926807  70.6769714  94.1710837  89.9076608  70.4188674
  93.4978900  90.2556406  69.6354011  95.1512946  89.7006122  69.9894287
  94.2940837  90.9756608  71.5128674  95.1953911  91.5782345  71.4004046
  93.0620837  91.8946608  71.5218674  92.2150837  91.7946608  72.4158674
  92.9840837  92.7826608  70.5288674  93.7591255  92.8669079  69.8867521
  91.8290837  93.6756608  70.3488674  91.5792474  94.1426446  71.3015516
  92.1360837  94.7826608  69.3238674  92.4895565  94.3265502  68.3991407
  91.2109946  95.3255904  69.1301214  93.1870837  95.7706608  69.8118674
  94.1210837  96.1186608  68.9358674  93.1500837  96.2246608  70.9538674
  93.8572955  96.8788806  71.2570963  92.4126600  95.9411361  71.5830898
  90.6070837  92.8756608  69.8898674  90.7520837  91.8286608  69.2538674
  89.4160837  93.3906608  70.1998674  89.3846017  94.2722001  70.6917989
  88.1460837  92.6786608  69.9578674  88.2795102  91.7036861  70.4266114
  86.9980837  93.3976608  70.6498674  86.8463344  94.3720501  70.1854995
  86.0880628  92.8051449  70.5555963  87.2360394  93.5317487  71.7050910
  87.8030837  92.4396608  68.4788674  87.1220837  91.4606608  68.1578674
  88.2650837  93.3276608  67.5948674  88.7054879  94.1723337  67.9305327
  88.0880837  93.1626608  66.1438674  87.0424084  92.9504803  65.9210633
  88.4970837  94.4436608  65.4038674  89.5491996  94.6130880  65.6328781
  88.3861604  94.2371964  64.3393635  87.6760837  95.7106608  65.7738674
  87.7197801  96.3627982  64.9015668  86.6543030  95.3569911  65.9116390
  88.1190837  96.4916608  67.0188674  89.1000837  96.0696608  67.6678674
  87.4640837  97.5206608  67.2968674  88.8580837  91.9606608  65.5658674
  88.4390837  91.3886608  64.5548674  89.9680837  91.5826608  66.2098674
  90.2386352  92.0921214  67.0389338  90.8460837  90.4956608  65.7398674
  90.7438741  90.3685377  64.6621420  92.3130837  90.8396608  66.0578674
  92.4090395  90.8652199  67.1433343  92.9430633  90.0458336  65.6565394
  92.7530837  92.1806608  65.4768674  92.4100837  92.4816608  64.3128674
  93.4580837  92.9326608  66.1878674  90.5380837  89.0996608  66.3218674
  91.1180837  88.1116608  65.8668674  89.6310837  89.0116608  67.2988674
  89.0760359  89.8205743  67.5390343  89.4760837  87.7896608  68.1128674
  90.4581800  87.3872254  68.3611250  88.7260837  88.0966608  69.4198674
  87.8114884  88.6256936  69.1520260  88.4714771  87.1415941  69.8793487
  89.5260837  88.9346608  70.4038674  90.4197922  88.3681968  70.6656012
  89.8152960  89.8528824  69.8926655  88.6270837  89.3526608  71.9098674
  88.6820837  87.7846608  72.7718674  89.7201346  87.5012210  72.9456812
  88.1661745  87.8765885  73.7276329  88.1934769  87.0200857  72.1678893
  88.7890837  86.6126608  67.4058674  87.9210837  86.8006608  66.5478674
  89.2070837  85.4056608  67.7938674  89.9967428  85.3761891  68.4228899
  88.6210837  84.1356608  67.3538674  87.8268933  84.3091725  66.6277445
  89.7040837  83.2456608  66.6988674  89.2435907  82.3136775  66.3710662
  90.3280837  83.9486608  65.5058674  90.7892120  84.8805698  65.8329850
  91.0867938  83.3052554  65.0603479  89.5567005  84.1653913  64.7668841
  90.7300837  82.9326608  67.6528674  91.3963045  82.3807365  67.2367787
  88.0030837  83.4186608  68.5688674  87.9640837  83.9866608  69.6668674
  87.5290837  82.1836608  68.3808674  87.4522029  81.8246179  67.4399759
  86.9660837  81.3786608  69.4868674  86.2594406  81.9824180  70.0562811
  86.2270837  80.1366608  68.9418674  85.8017342  79.5995403  69.7896165
  85.4237434  80.4820036  68.2911119  87.0850837  79.2696608  68.2148674
  86.5833222  78.5153756  67.8972370  87.9500837  80.9646608  70.6188674
  87.4970837  80.5886608  71.7108674  89.2530837  80.9896608  70.3178674
  89.5174259  81.2005904  69.3661683  90.3120837  80.6856608  71.2808674
  89.9588940  79.9475497  72.0009703  91.5370837  80.1176608  70.5588674
  91.1927369  79.2809462  69.9510572  91.9207896  80.9043140  69.9092164
  92.6430837  79.6456608  71.4908674  92.8930820  80.4602305  72.1706305
  92.2726409  78.7956589  72.0639040  93.8840837  79.2326608  70.7178674
  93.6174712  78.4192836  70.0430086  94.2310197  80.0871798  70.1368922
  94.9890837  78.7736608  71.6508674  95.1978926  79.5723577  72.3626136
  94.6461703  77.8894180  72.1881051  96.2280837  78.4456608  70.8968674
  96.5462413  79.2650050  70.3993229  96.9445884  78.1439129  71.5415916
  96.0349172  77.7052962  70.2375905  90.7110837  81.9286608  72.0788674
  90.9560837  81.8436608  73.2828674  90.7890837  83.0786608  71.4118674
  90.6787167  83.1040617  70.4082374  91.0450837  84.3336608  72.1118674
  91.9610685  84.2428010  72.6956615  91.2050837  85.4926608  71.1298674
  90.2692316  85.5911537  70.5797955  91.3861156  86.4016162  71.7035637
  92.3380837  85.2776608  70.1588674  93.4110837  84.8196608  70.5968674
  92.1590837  85.5716608  68.9608674  89.8750837  84.6136608  73.0378674
  90.0470837  85.1226608  74.1438674  88.6800837  84.2726608  72.5668674
  88.6070927  83.8648882  71.6457305  87.4570837  84.4996608  73.3188674
  87.4017585  85.5415485  73.6343167  86.2410837  84.1876608  72.4508674
  86.5916239  83.4769466  71.7024650  85.4826233  83.7138177  73.0740131
  85.6440837  85.3936608  71.7598674  85.4540837  86.5816608  72.4448674
  85.7508289  86.6377143  73.4921972  84.8990837  87.6846608  71.8238674
  84.7686652  88.6174817  72.3724456  84.5090837  87.6006608  70.5068674
  83.9520837  88.6946608  69.8848674  83.8834164  89.4592819  70.4612691
  84.6750837  86.4276608  69.8088674  84.3672816  86.3610786  68.7653516
  85.2340837  85.3316608  70.4348674  85.3599630  84.3971438  69.8881202
  87.3760837  83.6636608  74.5898674  86.5390837  83.9226608  75.4468674
  88.2320837  82.6566608  74.7168674  88.8935652  82.4386407  73.9854244
  88.1410837  81.7526608  75.8598674  87.0925463  81.5879258  76.1079217
  88.7880837  80.4036608  75.5548674  89.3040972  80.5067965  74.6003034
  89.5081542  80.1417620  76.3301142  87.7510837  79.3216608  75.4488674
  86.4140837  79.6166608  75.6778674  86.1388619  80.6427295  75.9218659
  85.4430837  78.6426608  75.6018674  84.3944248  78.8914212  75.7647615
  85.8040837  77.3536608  75.3118674  84.8220837  76.4006608  75.2508674
  83.9462586  76.7528145  75.4255608  87.1270837  77.0246608  75.0938674
  87.4111726  75.9977233  74.8640990  88.0950837  78.0096608  75.1688674
  89.1430283  77.7573970  75.0067708  88.6890837  82.3316608  77.1618674
  87.9490837  82.4616608  78.1418674  89.9730837  82.6786608  77.1878674
  90.5974770  82.4576572  76.4253782  90.5210837  83.3596608  78.3548674
  90.3440265  82.7504711  79.2412296  92.0280837  83.5966608  78.2168674
  92.5587310  82.6547595  78.0778183  92.2144167  84.2476000  77.3626671
  92.6480837  84.2676608  79.4128674  92.3270837  83.8576608  80.6968674
  91.6169744  83.0416218  80.8307520  92.8950837  84.4696608  81.8018674
  92.6262613  84.1424561  82.8062440  93.8030837  85.4956608  81.6298674
  94.2545818  85.9804885  82.4954259  94.1390837  85.9076608  80.3528674
  94.8559382  86.7167671  80.2129857  93.5660837  85.2936608  79.2538674
  93.8351530  85.6155341  78.2478360  89.7790837  84.6796608  78.5108674
  89.5350837  85.1376608  79.6308674  89.3960837  85.2716608  77.3798674
  89.6638225  84.8726503  76.4914948  88.6650837  86.5366608  77.3788674
  88.6662242  86.9670240  78.3803091  89.3240837  87.5276608  76.4208674
  90.3992155  87.3506247  76.4500066  88.9513388  87.3323253  75.4153798
  89.0400837  88.9656608  76.7928674  88.2690837  89.1706608  77.7528674
  89.5750837  89.8806608  76.1278674  87.1830837  86.3256608  77.0268674
  86.6800837  86.8186608  76.0178674  86.5190837  85.5716608  77.8958674
  87.0884369  85.1014553  78.5849560  85.0620837  85.3116608  77.8938674
  84.7684211  84.8683569  76.9423722  84.6850837  84.3446608  79.0218674
  84.8931342  84.8253728  79.9777597  83.6200204  84.1239539  78.9509554
  85.4250837  83.1376608  78.9288674  85.1711027  82.5506472  79.6447645
  84.1920837  86.5656608  78.0038674  83.1460837  86.6456608  77.3618674
  84.6240837  87.5376608  78.8048674  85.4022469  87.3653765  79.4252540
  83.9220837  88.8236608  78.9088674  82.8492466  88.6470521  78.9858679
  84.3810837  89.6066608  80.1488674  85.4604285  89.4814796  80.2351441
  84.1503175  90.6581074  79.9776745  83.7180837  89.1476608  81.4248674
  82.3620837  89.3886608  81.6528674  81.7867418  89.9207256  80.8952473
  81.7460837  88.9636608  82.8188674  80.6845002  89.1479139  82.9837704
  82.4910837  88.2966608  83.7788674  81.8930837  87.8846608  84.9368674
  80.9605878  88.1090832  84.9779230  83.8340837  88.0456608  83.5788674
  84.4148816  87.5162756  84.3341990  84.4420837  88.4706608  82.4108674
  85.5026356  88.2791425  82.2476176  84.0150837  89.7126608  77.6568674
  83.3070837  90.7096608  77.5708674  84.8800837  89.3676608  76.7018674
  85.5953219  88.6821215  76.8982588  84.8870837  90.0246608  75.3878674
  84.9602439  91.0928813  75.5919548  86.1010837  89.6006608  74.5818674
  86.0376630  88.5349834  74.3618459  86.1324652  90.1626116  73.6484185
  87.0062870  89.7994262  75.1556257  83.6140837  89.7916608  74.5648674
  83.3050837  90.5916608  73.6798674  82.8970837  88.6996608  74.8398674
  83.2468538  88.0333797  75.5135363  81.6200837  88.4126608  74.1758674
  81.7474247  88.4670985  73.0947014  81.1250837  87.0116608  74.5398674
  81.2068498  86.8335638  75.6121057  80.0836268  86.9122520  74.2339501
  81.8760837  85.9096608  73.8648674  81.7780837  85.6666608  72.5118674
  81.2134101  86.2050233  71.8704555  82.5330837  84.6296608  72.1988674
  82.5910533  84.2758037  71.1695357  83.1180837  84.1926608  73.2998674
  83.7567618  83.4127939  73.3630966  82.7190837  84.9716608  74.3578674
  83.0912677  84.7611984  75.3605069  80.5230837  89.4106608  74.5398674
  80.2000837  89.5556608  75.7158674  79.9370837  90.0496608  73.5238674
  80.2982576  89.9495894  72.5859770  78.8710837  91.0266608  73.7568674
  79.2058553  91.7375090  74.5123288  78.4920837  91.8076608  72.4768674
  77.7427416  92.5717933  72.6834762  79.3970857  92.2806812  72.0956547
  77.9450837  90.9586608  71.3578674  76.6110837  90.5806608  71.3348674
  75.9551734  90.8965228  72.1461089  76.1100837  89.8126608  70.2998674
  75.0625692  89.5113085  70.3007375  76.9380837  89.4276608  69.2648674
  76.5472035  88.8220601  68.4472120  78.2650837  89.8116608  69.2668674
  78.9220931  89.5089137  68.4515251  78.7590837  90.5796608  70.3028674
  79.8022232  90.8957814  70.2976096  77.6440837  90.3996608  74.4258674
  76.9670837  91.0756608  75.1978674  77.3800837  89.1256608  74.1318674
  77.9794957  88.6509975  73.4719436  76.2660837  88.3806608  74.7168674
  75.3493053  88.8552539  74.3670419  76.3223289  87.3658143  74.3231384
  76.2440837  88.3216608  76.2308674  75.1700837  88.3516608  76.8268674
  77.4250837  88.2526608  76.8488674  78.2697933  88.2148690  76.2964755
  77.5460837  88.1936608  78.3088674  76.8652848  87.4592394  78.7392594
  79.0000837  87.8846608  78.7688674  79.6675956  88.6345363  78.3443501
  79.1110837  87.9086608  80.2928674  78.4441547  87.1586793  80.7181133
  80.1376806  87.6894934  80.5864065  78.8306976  88.8949510  80.6626165
  79.5100837  86.5406608  78.1978674  79.6053974  86.6805936  77.1210968
  80.4967865  86.3772558  78.6312448  78.6310837  85.3366608  78.4748674
  77.6442855  85.4991434  78.0413601  79.0804939  84.4482668  78.0311492
  78.5356728  85.1958070  79.5515089  77.0970837  89.5246608  78.9168674
  76.3720837  89.5426608  79.9128674  77.5310837  90.6256608  78.3098674
  78.1978123  90.5466754  77.5553254  77.1520837  91.9666608  78.7648674
  77.2179136  92.0225275  79.8514421  78.0900837  93.0146608  78.1638674
  78.0871276  92.8776925  77.0825117  77.8070806  94.0403525  78.4004380
  79.5050837  92.8476608  78.6118674  79.9850837  93.4066608  79.7758674
  79.4441754  93.9872581  80.4007071  81.2490837  93.0626608  79.9358674
  81.8142581  93.4146011  80.7988940  81.6030837  92.2916608  78.9248674
  82.5146722  91.8813499  78.7808142  80.5270837  92.1316608  78.0888674
  80.6172201  91.5112677  77.1971897  75.6970837  92.2756608  78.4548674
  75.0120837  92.8936608  79.2588674  75.2330837  91.8216608  77.2938674
  75.8891772  91.4816675  76.6053580  73.8060837  91.8366608  76.9478674
  73.4584511  92.8658577  76.8584001  73.5710837  91.1236608  75.6148674
  74.3423230  91.4689564  74.9263472  73.6976122  90.0562301  75.7956497
  72.1990837  91.3756608  75.0068674  71.4538886  91.1312834  75.7638778
  72.1287620  92.4342979  74.7569845  71.9470837  90.5456608  73.7638674
  72.9110837  90.2506608  73.0108674  70.7730837  90.1906608  73.5348674
  72.9590837  91.1776608  78.0458674  71.9680837  91.7496608  78.4968674
  73.3650837  89.9866608  78.4798674  74.1415443  89.5213251  78.0319042
  72.6630837  89.2856608  79.5548674  71.6126483  89.1724938  79.2867670
  73.2600837  87.8926608  79.7978674  73.4072192  87.4205427  78.8264999
  74.2252952  88.0258289  80.2864707  72.3690837  87.0056608  80.6648674
  72.1229632  87.5675210  81.5658883  71.4599343  86.8214297  80.0924991
  73.0000837  85.6806608  81.0518674  72.3660837  84.9456608  81.8348674
  74.1090837  85.3606608  80.5788674  72.6710837  90.0956608  80.8568674
  71.6450837  90.2096608  81.5248674  73.8280837  90.6536608  81.2018674
  74.6514849  90.4819378  80.6427422  73.9680837  91.4646608  82.4128674
  73.5842937  90.9135197  83.2713823  75.4360837  91.8036608  82.6668674
  75.8636059  92.1337551  81.7201036  75.4624450  92.6250887  83.3828711
  76.2420837  90.6376608  83.2058674  75.7042610  90.1915321  84.0424180
  76.3644034  89.8961805  82.4163441  77.8630837  91.1776608  83.7658674
  78.6230837  91.6516608  82.2108674  78.0371935  92.4448153  81.7463919
  79.6361348  92.0092705  82.3951050  78.6582071  90.7892134  81.5452458
  73.1510837  92.7486608  82.3588674  72.5050837  93.1116608  83.3358674
  73.1890837  93.4276608  81.2148674  73.8068518  93.1164955  80.4789067
  72.4420837  94.6716608  81.0148674  72.5839183  95.3295828  81.8722593
  72.9320837  95.3946608  79.7568674  72.9075952  94.6237824  78.9866427
  72.2524527  96.2019498  79.4839460  74.3590837  95.9476608  79.8818674
  74.9486281  95.2462607  80.4722708  75.0130837  96.1376608  78.5158674
  74.4243175  96.8393380  77.9250186  76.0214501  96.5303212  78.6466948
  75.0611802  95.1791978  77.9990156  74.3730837  97.2486608  80.6808674
  73.9803993  97.0656285  81.6810662  75.3954631  97.6193232  80.7546980
  73.7533970  97.9911345  80.1780552  70.9250837  94.4496608  80.9618674
  70.1690837  95.2626608  81.4838674  70.4890837  93.3486608  80.3538674
  71.1311473  92.7983262  79.8016124  69.0620837  92.9686608  80.3538674
  68.4506934  93.8510966  80.1651665  68.7670837  91.9246608  79.2648674
  69.5251652  91.1439382  79.3271886  67.7855639  91.4939520  79.4628794
  68.7810837  92.5346608  77.8708674  68.0288615  93.3232885  77.8527330
  69.7679024  92.9709015  77.7159967  68.4910837  91.5326608  76.7648674
  69.2686020  90.7688102  76.7550369  67.5238998  91.0635756  76.9454602
  68.4650837  92.2476608  75.4198674  67.5948363  92.9038974  75.4309814
  69.3725127  92.8492735  75.3675795  68.3950837  91.3496608  74.2308674
  67.5540931  90.7924115  74.2789062  68.3821611  91.9067820  73.3885201
  69.2016020  90.7417854  74.2201480  68.5480837  92.4886608  81.7248674
  67.3350837  92.4376608  81.9418674  69.4580837  92.1276608  82.6298674
  70.4113925  91.9665425  82.3377327  69.1160837  91.9076608  84.0388674
  68.2296095  91.2776522  84.1120231  70.2750837  91.2096608  84.7638674
  70.5329422  90.3279755  84.1771482  71.1210109  91.8969289  84.7768940
  69.9410837  90.7916608  86.1848674  68.9610837  91.2646608  86.8018674
  70.7020837  89.9606608  86.7018674  68.7960837  93.2716608  84.6628674
  69.6860837  93.9676608  85.1458674  67.5150837  93.6366608  84.6358674
  66.8310064  93.0139023  84.2305165  67.0680837  94.9606608  85.0928674
  67.7464198  95.7244106  84.7125445  65.6530837  95.2696608  84.5928674
  65.0058978  94.4473459  84.8979047  65.3233384  96.1893587  85.0761103
  65.5820837  95.4366608  83.0868674  66.2860959  96.2169917  82.7978150
  65.8922698  94.4878541  82.6490893  64.2030837  95.7936608  82.5878674
  63.5710837  96.7136608  83.1498674  63.7550837  95.1586608  81.6148674
  67.1330837  95.1236608  86.6058674  67.4170837  96.2166608  87.0928674
  66.8770837  94.0406608  87.3358674  66.5554097  93.1993358  86.8789238
  66.9820837  94.0406608  88.7968674  66.3499106  94.8093073  89.2414333
  66.5920837  92.6686608  89.4008674  67.1422447  91.8885154  88.8747539
  66.9190837  92.6056608  90.8878674  66.3688964  93.3852694  91.4147500
  66.6335917  91.6304167  91.2821943  67.9890017  92.7561700  91.0318259
  65.1080837  92.3856608  89.1738674  64.8995601  92.3730697  88.1040724
  64.8521855  91.4177222  89.6048090  64.5121785  93.1639886  89.6505262
  68.4080837  94.4286608  89.1928674  68.6060837  95.2876608  90.0488674
  69.3870837  93.8136608  88.5358674  69.1554289  93.0696607  87.8932949
  70.7970837  94.1416608  88.7368674  71.0580862  94.0496304  89.7911479
  71.6700837  93.1796608  87.9318674  71.3574774  92.1729412  88.2091619
  71.4368049  93.3556850  86.8817738  73.1690837  93.3226608  88.1488674
  73.4172527  94.3786078  88.2560537  73.4530539  92.7893208  89.0560672
  73.9240837  92.7426608  86.9628674  74.9525571  92.5204070  87.2473752
  73.4370071  91.8296649  86.6203849  73.9400837  93.7096608  85.8588674
  73.0390423  93.9095399  85.4486577  75.0110837  94.3456608  85.3828674
  76.2320837  94.1106608  85.8638674  76.3582268  93.4371117  86.6058375
  77.0253415  94.6072581  85.4840875  74.8630837  95.2186608  84.3848674
  73.9452220  95.3899288  83.9997736  75.6695838  95.7042702  84.0190262
  71.1250837  95.5836608  88.3358674  71.6200837  96.3596608  89.1508674
  70.8440837  95.9266608  87.0818674  70.3671040  95.2715860  86.4789854
  71.2960837  97.1936608  86.5088674  72.3399276  97.3731887  86.7662754
  71.1590837  97.1996608  84.9708674  70.1009365  97.1434139  84.7154052
  71.7670837  98.4786608  84.3618674  72.8253982  98.5353688  84.6165323
  71.6555687  98.4540630  83.2778663  71.2508006  99.3521921  84.7599820
  71.8210837  96.0466608  84.4278674  71.7362952  96.0497570  83.4716239
  70.5870837  98.4156608  87.1018674  71.2440837  99.4196608  87.3778674
  69.2690837  98.3306608  87.2968674  68.7633490  97.5152228  86.9816016
  68.5020837  99.4486608  87.8728674  68.8386506 100.3789618  87.4153064
  66.9890837  99.3046608  87.6378674  66.7790222  98.2979184  87.9990366
  66.4922720 100.0316340  88.2803532  66.4680837  99.4516608  86.2008674
  67.0452717  98.8020148  85.5429047  64.9970837  99.0636608  86.1338674
  64.4191520  99.7132159  86.7912652  64.6385234  99.1718045  85.1102268
  64.8791451  98.0278382  86.4520850  66.6600837 100.8646608  85.6678674
  67.7211031 101.1142898  85.6726277  66.2779239 100.9241882  84.6487935
  66.1188928 101.5686551  86.3000092  68.7730837  99.6526608  89.3618674
  68.7030837 100.7866608  89.8308674  69.0750837  98.5866608  90.1048674
  68.9923717  97.6516723  89.7319671  69.4620837  98.7426608  91.5098674
  68.6986876  99.3401744  92.0081675  69.6000837  97.3956608  92.2558674
  70.3860893  96.8096390  91.7795545  69.9530837  97.6206608  93.7288674
  69.1672577  98.2062593  94.2059958  70.0446955  96.6581781  94.2321898
  70.8989212  98.1579304  93.7983906  68.3630837  96.6816608  92.1938674
  68.4523434  95.8460316  92.6579330  70.7700837  99.5316608  91.5958674
  70.8660837 100.4836608  92.3728674  71.7610837  99.1486608  90.7898674
  71.7041366  98.2704576  90.2942713  73.0050837  99.9286608  90.6868674
  73.4575885 100.0092620  91.6752206  74.0180837  99.2726608  89.7348674
  73.4439466  98.7958553  88.9404353  74.6402548 100.0604752  89.3101892
  74.8970837  98.2446608  90.4068674  74.4860837  96.9196608  90.5308674
  73.5163087  96.6333722  90.1238359  75.2830837  95.9716608  91.1568674
  74.9500445  94.9373860  91.2432529  76.5120837  96.3486608  91.6718674
  77.2950837  95.4096608  92.2928674  76.8930176  94.5380870  92.3102358
  76.9440837  97.6606608  91.5628674  77.9114586  97.9574654  91.9680751
  76.1380837  98.5986608  90.9338674  76.4720907  99.6324379  90.8452998
  72.7440837 101.3886608  90.2788674  73.3300837 102.2986608  90.8638674
  71.8570837 101.6076608  89.3058674  71.4460459 100.8338749  88.8034706
  71.5270837 102.9706608  88.8748674  72.4518328 103.5179576  88.6920984
  70.6870837 102.9846608  87.5908674  71.1101893 102.2468021  86.9092183
  69.6707532 102.6931160  87.8557712  70.6630837 104.3536608  86.9088674
  70.3226135 105.0858767  87.6410154  71.6816967 104.5927421  86.6033026
  69.7480837 104.3886608  85.6938674  69.8996270 105.3285022  85.1629891
  69.9994854 103.5561532  85.0367313  68.3370837 104.2826608  86.0658674
  68.1370450 104.2569244  87.0555247  67.3170837 104.2256608  85.2088674
  67.5130837 104.2646608  83.8888674  68.4514498 104.3389106  83.5227307
  66.7221008 104.2197391  83.2624269  66.0800837 104.1206608  85.6798674
  65.9240211 104.0851381  86.6771049  65.3009030 104.0767955  85.0387341
  70.8150837 103.7666608  89.9768674  71.1690837 104.9166608  90.2198674
  69.8270837 103.1506608  90.6308674  69.5321245 102.2362460  90.3195090
  69.1020837 103.7746608  91.7548674  68.6403103 104.7025156  91.4173028
  68.0000837 102.8446608  92.2948674  68.4309934 101.8563495  92.4550450
  67.6494410 103.2460245  93.2456865  66.8070837 102.7096608  91.3528674
  66.6640837 103.4516608  90.3828674  65.9430837 101.7496608  91.6418674
  65.1326575 101.6104970  91.0554012  66.0981511 101.1606460  92.4475451
  70.0270837 104.1736608  92.9078674  69.8460837 105.2376608  93.4998674
  71.0190837 103.3366608  93.2128674  71.0946439 102.4512345  92.7328567
  71.9680837 103.6246608  94.2958674  71.4184624 103.7893359  95.2226347
  72.9480837 102.4636608  94.5068674  73.4287306 102.5891147  95.4770938
  72.3850580 101.5303666  94.4988634  73.9340837 102.4276608  93.4938674
  74.5302639 101.6923711  93.6536116  72.7470837 104.9236608  94.0718674
  73.1500837 105.5696608  95.0388674  72.9480837 105.3016608  92.8098674
  72.6866737 104.6762962  92.0610796  73.5940837 106.5666608  92.4628674
  74.2114427 106.9074138  93.2940440  74.4850837 106.3896608  91.2328674
  73.8287659 106.2888760  90.3684667  75.0820706 107.2959807  91.1314230
  75.4070837 105.1816608  91.3128674  75.9926237 105.2753411  92.2274535
  74.7792599 104.2926915  91.3734720  76.5210837 105.0236608  89.9118674
  76.4980837 103.2496608  89.6888674  75.4792653 102.9221430  89.4818890
  77.1429360 102.9796815  88.8525795  76.8580106 102.7642193  90.5960060
  72.5580837 107.6696608  92.2198674  72.6360837 108.7366608  92.8288674
  71.5850837 107.3976608  91.3518674  71.5568729 106.4826490  90.9251862
  70.5910837 108.4006608  90.9228674  71.1036402 109.2977046  90.5754520
  69.7210837 107.8566608  89.7768674  69.4498858 106.8157922  89.9533425
  68.8166770 108.4621247  89.7171847  70.3690837 107.9096608  88.4088674
  71.7530837 107.8136608  88.2338674  72.3940698 107.7047124  89.1087200
  72.3120837 107.8556608  86.9658674  73.3939950 107.7947095  86.8481656
  71.5000837 107.9746608  85.8508674  71.9379267 108.0030946  84.8530774
  70.1270837 108.0576608  86.0068674  69.4834188 108.1504663  85.1321201
  69.5700837 108.0226608  87.2778674  68.4888047 108.0842276  87.4009325
  69.6780837 108.9066608  92.0458674  69.2500837 110.0566608  92.0038674
  69.3740837 108.0556608  93.0298674  69.6328547 107.0834187  92.9410854
  68.5940837 108.4666608  94.2128674  67.9680143 109.3211408  93.9559625
  67.6880837 107.3236608  94.7068674  68.2735836 106.4774952  95.0664407
  67.0667334 107.7053519  95.5170129  66.7530837 106.7866608  93.6658674
  66.3200837 107.5356608  92.5898674  65.5010837 106.8086608  91.8498674
  65.0597816 107.2191705  90.9416641  65.3730837 105.6216608  92.4158674
  64.8061672 104.8588557  92.0740575  66.1400837 105.5846608  93.5558674
  66.1600246 104.6845957  94.1703481  69.4670837 108.9696608  95.3758674
  68.9460837 109.2456608  96.4538674  70.7810837 109.0846608  95.1608674
  71.1521946 108.7855436  94.2704153  71.7200837 109.5866608  96.1738674
  71.1854099 110.1938882  96.9042768  72.3950837 108.4186608  96.9068674
  73.0011133 107.8586135  96.1947056  73.0370755 108.8269492  97.6874103
  71.3980837 107.4706608  97.5458674  70.8650837 107.7426608  98.6228674
  71.1380837 106.3556608  96.8808674  70.4819345 105.6872485  97.2587471
  71.5970982 106.1786716  95.9987782  72.7710837 110.4776608  95.5078674
  73.9760837 110.2786608  95.6818674  72.2990837 111.4646608  94.7468674
  71.3003350 111.5694745  94.6390975  73.1790837 112.3566608  93.9818674
  73.8470787 111.7619575  93.3588025  72.3660837 113.2916608  93.0758674
  71.5763656 113.7276481  93.6877167  73.0394926 114.0791607  92.7375414
  71.7480837 112.5986608  91.8678674  72.5380598 112.0510013  91.3539533
  70.9970445 111.8969499  92.2306952  71.0990837 113.5816608  90.8998674
  70.0609990 113.7392258  91.1925314  71.6352510 114.5298274  90.9399190
  71.1280837 113.0826608  89.5188674  71.8857386 113.4290811  88.9478583
  70.2550837 112.2296608  88.9718674  69.2280837 111.7396608  89.6648674
  69.0965941 112.0129626  90.6282555  68.5857420 111.0971484  89.2236479
  70.4110837 111.8566608  87.7028674  71.1848771 112.2193957  87.1645670
  69.7548759 111.2127772  87.2846522  74.1170837 113.1746608  94.8658674
  75.2190837 113.5126608  94.4408674  73.6740837 113.4996608  96.0798674
  72.7017600 113.3467089  96.3063441  74.5200837 114.1956608  97.0658674
  74.9018048 115.1171394  96.6262478  73.7270837 114.5496608  98.3428674
  74.3288822 115.1637827  99.0127868  72.8280146 115.0965646  98.0588409
  73.2730837 113.3616608  99.1408674  72.1780837 112.5966608  98.7888674
  72.0160837 111.6286608  99.6738674  71.2038852 110.9096847  99.5666014
  72.9590837 111.7406608 100.5928674  73.0841792 111.1377864 101.3934881
  73.7550837 112.8206608 100.2858674  74.5910518 113.0833340 100.9341431
  75.8090837 113.4366608  97.4208674  76.8360837 114.0626608  97.6778674
  75.7550837 112.1036608  97.4248674  74.8685085 111.6378029  97.2942526
  76.9430837 111.2796608  97.6858674  77.4635421 111.6599210  98.5648580
  76.5560837 109.8166608  97.9398674  76.0149093 109.5414909  97.0345989
  77.4758423 109.2352145  98.0036213  75.6840837 109.5266608  99.1628674
  74.7736101 110.1227574  99.1011631  75.3210837 108.0516608  99.2128674
  76.2310919 107.4549052  99.2750510  74.7004626 107.8591522 100.0880078
  74.7709889 107.7815735  98.3114524  76.3760837 109.9486608 100.4528674
  76.5824481 111.0184991 100.4218981  75.7288665 109.7284251 101.3018123
  77.3127385 109.4014115 100.5591458  77.9790837 111.3336608  96.5628674
  79.1750837 111.2596608  96.8398674  77.5230837 111.4626608  95.3138674
  76.5252104 111.5074651  95.1643993  78.4050837 111.4186608  94.1338674
  79.3496120 110.9385060  94.3896347  77.7350837 110.6156608  93.0118674
  76.6953201 110.9312080  92.9257239  78.2374728 110.7565547  92.0548647
  77.7150837 109.1376608  93.2728674  76.7640837 108.5836608  94.1228674
  76.0194078 109.2336877  94.5822393  76.7550837 107.2226608  94.3888674
  76.0021838 106.7989795  95.0535000  77.7070837 106.4006608  93.8068674
  77.7034687 105.3304245  94.0134614  78.6650837 106.9406608  92.9608674
  79.4131674 106.2954678  92.5002189  78.6700837 108.3016608  92.7018674
  79.4275831 108.7285787  92.0445732  78.8740837 112.7806608  93.6128674
  79.8690837 112.8436608  92.8898674  78.1650837 113.8486608  93.9868674
  77.3502765 113.6849318  94.5607850  78.4620837 115.2296608  93.5748674
  78.2516163 115.3676208  92.5143158  77.5730837 116.1896608  94.3808674
  76.5474350 115.9004115  94.1517850  77.7852642 115.9749991  95.4282450
  77.7500837 117.6846608  94.1218674  77.2085241 118.2259002  94.8976727
  78.8132160 117.9140447  94.1942194  77.2330837 118.1056608  92.7558674
  77.9244034 117.7519905  91.9909534  76.2528650 117.6571250  92.5943549
  77.1170837 119.6216608  92.6728674  76.2913036 119.9341713  93.3120269
  78.0465294 120.0537840  93.0436766  76.8720837 120.0916608  91.2798674
  76.0106620 119.6917006  90.9362336  76.8022077 121.0992093  91.2719126
  77.6373643 119.8025529  90.6875318  79.9390837 115.6106608  93.7518674
  80.4450837 115.6386608  94.8738674  80.6110837 115.8996608  92.6328674
  80.1509419 115.7145548  91.7530352  82.0190837 116.3396608  92.6068674
  82.3728251 116.3756459  91.5764931  82.1660837 117.7466608  93.2288674
  81.8080269 117.6745341  94.2558495  83.2213848 118.0194899  93.2308814
  81.3670837 118.8126608  92.4858674  81.3370837 118.7906608  91.2348674
  80.7830837 119.6946608  93.1568674  83.0220837 115.3506608  93.2458674
  84.0570837 115.7616608  93.7698674  82.7180837 114.0566608  93.1798674
  81.8528663 113.7774564  92.7399322  83.5850837 113.0126608  93.7318674
  84.3110077 113.4585781  94.4117875  82.7630837 111.9826608  94.5028674
  82.0952874 111.5154257  93.7791004  83.4688559 111.2409733  94.8768800
  81.9500837 112.5336608  95.6578674  81.3048867 113.3192759  95.2646365
  81.3364766 111.7220416  96.0488440  82.8130837 113.0986608  96.7738674
  83.5030702 112.3264882  97.1141133  83.3790770 113.9471882  96.3894818
  81.9460837 113.5536608  97.9398674  81.4585172 114.4853331  97.6528725
  81.1905126 112.7880141  98.1159256  82.7320837 113.7686608  99.1828674
  83.4319888 114.4783991  99.0200664  82.1147430 114.0683140  99.9239466
  83.1836102 112.9053629  99.4492123  84.3470837 112.2926608  92.6298674
  83.9460837 112.3146608  91.4618674  85.4440837 111.6536608  93.0238674
  85.7647305 111.7790581  93.9733728  86.2180837 110.7946608  92.1428674
  86.0459305 111.0287056  91.0923030  87.7260837 110.9096608  92.4318674
  87.9117323 110.6169952  93.4652989  88.5230837 110.0026608  91.4948674
  88.3382947 110.2950344  90.4611984  89.5865742 110.0975129  91.7141653
  88.2136034 108.9676474  91.6400258  88.1740837 112.3616608  92.3038674
  87.6252016 112.9760522  93.0175575  89.2420439 112.4324607  92.5101395
  87.9756840 112.7158233  91.2922809  85.7490837 109.3566608  92.3598674
  85.8190837 108.8496608  93.4858674  85.2790837 108.7146608  91.2848674
  85.3110078 109.1861948  90.3922668  84.6930837 107.3666608  91.3408674
  84.6533546 106.9782504  92.3585403  83.2610837 107.3516608  90.7488674
  83.3140280 107.6402834  89.6991088  82.6340837 105.9646608  90.8638674
  82.5803749 105.6755247  91.9134467  81.6297151 105.9831718  90.4407818
  83.2438079 105.2434674  90.3196082  82.3880837 108.3946608  91.4298674
  82.8204551 109.3841573  91.2813627  81.3868269 108.3679721  90.9998998
  82.3305002 108.1803192  92.4970331  85.5610837 106.3666608  90.5688674
  86.0540837 106.6916608  89.4918674  85.7390837 105.1646608  91.1268674
  85.3871399 105.0130026  92.0613377  86.4480837 104.0636608  90.4628674
  86.8111897 104.3948312  89.4899443  87.6450837 103.6046608  91.3018674
  88.3352331 104.4416173  91.1955813  87.3198077 103.5321667  92.3396729
  88.3550837 102.2986608  90.8938674  87.6298290 101.4853836  90.9200708
  88.9460837 102.4066608  89.4938674  89.6718206 103.2194848  89.4669985
  89.4401672 101.4703943  89.2342765  88.1497097 102.6074853  88.7772376
  89.4270837 101.9236608  91.9068674  88.9690295 101.7819149  92.8857412
  89.9133826 100.9988429  91.5965023  90.1677414 102.7212524  91.9649435
  85.5000837 102.8826608  90.2318674  84.9970837 102.3006608  91.1908674
  85.2730837 102.5356608  88.9648674  85.6493084 103.1221373  88.2337042
  84.4820837 101.3596608  88.5768674  83.7848675 101.0958582  89.3721013
  83.6820837 101.6716608  87.3078674  83.0764048 102.5512306  87.5260628
  84.3952479 101.9089682  86.5184486  82.7660837 100.5186608  86.8438674
  82.6720837  99.4426608  87.4958674  82.1330837 100.7136608  85.7788674
  85.4390837 100.1906608  88.3458674  86.1500837 100.1556608  87.3398674
  85.4560837  99.2456608  89.2858674  84.8627876  99.3503362  90.0965104
  86.3170837  98.0646608  89.2038674  87.2799982  98.2908022  88.7458772
  86.5670837  97.4496608  90.6048674  85.6024653  97.2555810  91.0738489
  87.3570837  96.1496608  90.5118674  88.3220828  96.3430374  90.0433770
  87.5137847  95.7467437  91.5124688  86.8011929  95.4281211  89.9131458
  87.2820837  98.4466608  91.5018674  86.6696636  99.3416269  91.6117737
  87.4500515  97.9994022  92.4815848  88.2400584  98.7150142  91.0564779
  85.6360837  97.0446608  88.3018674  84.5780837  96.5246608  88.6518674
  86.2460837  96.7626608  87.1508674  87.1288386  97.2054110  86.9391710
  85.6850837  95.8296608  86.1718674  86.4705496  95.5230316  85.4811278
  85.2993173  94.9542635  86.6943263  84.5570837  96.4716608  85.3838674
  83.4050837  96.0356608  85.4668674  84.8980837  97.4996608  84.6058674
  85.8785900  97.7033095  84.4745892  83.9080837  98.4306608  84.0338674
  83.1039489  98.6050914  84.7487383  84.5740837  99.7736608  83.7078674
  83.8976300 100.3547005  83.0810480  84.7540156 100.3085349  84.6404092
  85.8020837  99.5846608  83.0278674  86.1966090 100.4386641  82.8364831
  83.1150837  97.9336608  82.8158674  82.0550837  98.4876608  82.5138674
  83.6270837  96.9186608  82.1208674  84.5561852  96.5913125  82.3438314
  82.8950837  96.2506608  81.0378674  83.5126265  95.4281912  80.6769186
  81.9705728  95.8534332  81.4569010  82.5570837  97.1636608  79.8718674
  83.4500837  97.7436608  79.2498674  81.2590837  97.2976608  79.5928674
  80.5887253  96.7328858  80.0946125  80.7640837  98.2116608  78.5658674
  81.3659939  98.1280016  77.6609893  79.2930837  97.9196608  78.2078674
  78.9441393  98.6819284  77.5112426  79.1510837  96.5516608  77.5718674
  79.4994226  95.7887811  78.2681247  78.1041012  96.3702619  77.3289246
  79.7474385  96.5104855  76.6604037  78.4860837  97.9896608  79.3858674
  77.5714171  97.8072866  79.1584361  80.8510837  99.6816608  78.9708674
  80.6600837 100.5626608  78.1278674  81.1130837  99.9436608  80.2508674
  81.2622147  99.1699166  80.8826737  81.1950837 101.2976608  80.7848674
  81.9674409 101.3124097  81.5538576  81.4796038 101.9658110  79.9720187
  79.8880837 101.7816608  81.3878674  79.7930837 102.9446608  81.7508674
  78.8910837 100.8986608  81.5068674  79.0361675  99.9540262  81.1801940
  77.5410837 101.2806608  81.9668674  77.1430788 102.0873853  81.3513296
  76.5500837 100.0746608  81.9478674  76.5343938  99.6642929  80.9381880
  76.9540837  98.9806608  82.9358674  76.9695473  99.3901856  83.9458926
  76.2352846  98.1627134  82.8869730  77.9459363  98.6078037  82.6803185
  75.1010837 100.5146608  82.2488674  74.4820125  99.6213346  82.1662852
  75.0919962 100.8683417  83.2798508  74.5530837 101.5926608  81.3418674
  74.5614249 101.2395127  80.3106949  73.5307079 101.8303744  81.6357026
  75.1714104 102.4865196  81.4242589  77.5140837 101.9706608  83.3358674
  76.8750837 103.0126608  83.4798674  78.2160837 101.4066608  84.3198674
  78.7305644 100.5553035  84.1449397  78.2130837 101.9496608  85.6818674
  77.1934310 102.2119770  85.9639981  78.7530837 100.9316608  86.6898674
  79.7865602 100.8042226  86.3677103  78.7345792 101.4129621  87.6676745
  78.0740837  99.5596608  86.7828674  78.1648957  99.0488270  85.8242732
  78.7380837  98.7196608  87.8718674  78.6472649  99.2296655  88.8309013
  78.2490265  97.7472871  87.9302899  79.7925403  98.5816589  87.6327500
  76.5780837  99.6836608  87.0498674  76.1090401 100.2424796  86.2400409
  76.1353142  98.6893705  87.1085473  76.4188864 100.2079064  87.9921634
  79.0210837 103.2456608  85.7638674  78.6870837 104.1246608  86.5598674
  80.0770837 103.3526608  84.9518674  80.3800064 102.5445688  84.4271535
  80.8400837 104.5956608  84.8148674  81.2345293 104.8842922  85.7891383
  82.0160837 104.4336608  83.8368674  81.6523580 104.0334257  82.8904981
  82.4849034 105.4025286  83.6648110  83.3370837 103.3266608  84.3738674
  84.0944251 103.4784741  83.2911463  79.9650837 105.7436608  84.3278674
  80.0770837 106.8656608  84.8208674  79.1110837 105.4556608  83.3468674
  79.1258256 104.5393606  82.9222782  78.2160837 106.4686608  82.7818674
  78.7643624 107.3977407  82.6259819  77.6510837 106.0016608  81.4358674
  77.2080241 105.0166811  81.5828793  76.8761108 106.7069614  81.1357541
  78.7130837 105.9226608  80.3488674  79.2430151 106.8750001  80.3308837
  79.4069826 105.1263661  80.6181650  78.0370837 105.5906608  78.7138674
  77.3910837 103.9336608  78.9608674  76.6411961 103.9496341  79.7517609
  76.9356821 103.5790982  78.0362078  78.2036575 103.2649214  79.2447911
  77.0880837 106.8716608  83.7408674  76.6750837 108.0326608  83.7418674
  76.5970837 105.9186608  84.5398674  76.8571250 104.9551823  84.3843454
  75.6530837 106.2186608  85.6238674  74.7822549 106.7259484  85.2086378
  75.1810837 104.9396608  86.3448674  76.0729941 104.3447291  86.5414671
  74.6820248 105.1674618  87.2867521  74.2320837 104.0526608  85.5528674
  73.4440837 104.5306608  84.4968674  73.5194244 105.5791522  84.2086150
  72.5730837 103.6836608  83.8188674  71.9809236 104.0672287  82.9880108
  72.4570837 102.3536608  84.1978674  71.7744540 101.6900456  83.6670836
  73.2110837 101.8706608  85.2528674  73.1213580 100.8267995  85.5535385
  74.0810837 102.7146608  85.9278674  74.6634215 102.3378184  86.7686840
  76.2890837 107.1656608  86.6518674  75.6930837 108.1856608  87.0138674
  77.4980837 106.8296608  87.1028674  77.8997794 105.9476834  86.8185157
  78.2380837 107.6526608  88.0648674  77.6250730 107.7210427  88.9635559
  79.5530837 106.9796608  88.4238674  80.1815866 106.9121476  87.5358774
  80.0651898 107.5655529  89.1871354  79.3566804 105.9780499  88.8063600
  78.4930837 109.0876608  87.5678674  78.3880837 110.0446608  88.3408674
  78.8190837 109.2286608  86.2838674  78.9996920 108.4104625  85.7199245
  78.9910837 110.5486608  85.6688674  79.6788823 111.1247845  86.2878293
  79.5850837 110.4176608  84.2748674  78.9034519 109.8508151  83.6407033
  79.7364219 111.4096120  83.8491565  80.5416817 109.8985378  84.3342883
  77.6710837 111.3176608  85.6088674  77.6420837 112.5226608  85.8778674
  76.5910837 110.6216608  85.2548674  76.6941505 109.6736058  84.9221989
  75.2460837 111.2186608  85.2548674  75.2673170 112.1611529  84.7077322
  74.2260837 110.2876608  84.5878674  74.3753171 109.2941185  85.0105996
  73.2351574 110.6520945  84.8587053  74.3430837 110.2166608  83.0748674
  75.3945536 110.0930219  82.8155889  73.7791193 109.3518179  82.7254493
  73.8040837 111.4716608  82.4148674  72.7644727 111.6015081  82.7156124
  74.3906294 112.3231677  82.7598305  73.8850837 111.3816608  80.9048674
  74.8513563 110.9612817  80.6261213  73.0886392 110.7301105  80.5453435
  73.7360837 112.7316608  80.2928674  74.4742438 113.3354347  80.6255481
  73.7923956 112.6535812  79.2874657  72.8405985 113.1211918  80.5506870
  74.7630837 111.5926608  86.6608674  74.0190837 112.5536608  86.8258674
  75.2020837 110.8316608  87.6598674  75.7112302 109.9864670  87.4441902
  74.8960837 111.1176608  89.0588674  73.8316257 111.3502356  89.0894834
  75.1480837 109.8796608  89.9078674  76.2112133 109.6395031  89.8944547
  74.8323269 110.0713029  90.9333776  74.5814238 109.0403945  89.5045959
  75.6530837 112.3226608  89.6468674  75.3960837 112.6886608  90.7948674
  76.5790837 112.9176608  88.8848674  76.8476527 112.4713248  88.0195615
  77.2260837 114.1896608  89.2438674  77.0932571 114.8484065  88.3856656
  76.6674529 114.5830894  90.0931288  78.7060837 114.1376608  89.6048674
  79.2410837 115.1136608  90.1328674  79.3730837 113.0226608  89.3068674
  78.8824740 112.2548433  88.8711407  80.7830837 112.8376608  89.6538674
  80.9082329 113.1202815  90.6991245  81.1760837 111.3756608  89.4948674
  81.0647383 111.0803559  88.4515567  82.2137348 111.2424733  89.8008767
  80.5315884 110.7557895  90.1181528  81.7110837 113.7296608  88.8208674
  81.4960837 113.9166608  87.6258674  82.7310837 114.2776608  89.4788674
  82.7859347 114.1387129  90.4777589  83.7630837 115.0956608  88.8328674
  83.2992698 115.8920014  88.2507872  84.6740837 115.7326608  89.9008674
  84.0266588 116.3208785  90.5512059  85.1088994 114.9104968  90.4692702
  85.7850837 116.6166608  89.3588674  86.5143605 115.9734559  88.8663800
  85.3462812 117.2945533  88.6267362  86.4780837 117.4276608  90.4518674
  86.7894660 118.3811936  90.0253522  85.7607993 117.6055429  91.2530917
  87.6610837 116.7546608  91.0178674  88.4858227 116.7847367  90.4356299
  87.7370837 116.1336608  92.2018674  86.6890837 116.0406608  93.0218674
  85.8042343 116.4470842  92.7536112  86.7852266 115.5642491  93.9072420
  88.8910837 115.5816608  92.5758674  89.6944473 115.6361393  91.9661633
  88.9569482 115.1113977  93.4672782  84.6180837 114.2706608  87.8718674
  85.0360837 114.7616608  86.8248674  84.8820837 113.0266608  88.2548674
  84.3747197 112.6418833  89.0388492  85.8630837 112.1836608  87.5868674
  85.9131308 112.4230714  86.5246635  87.2400837 112.4316608  88.2098674
  87.1659297 113.3867343  88.7299010  87.3880728 111.6331895  88.9369457
  88.4180837 112.4676608  87.2508674  88.5491162 111.4820506  86.8042089
  88.2215546 113.1983367  86.4662713  89.6930837 112.8596608  88.0058674
  89.3866309 113.4280722  88.8839871  90.1778281 111.9361452  88.3224764
  90.6700837 113.6886608  87.1798674  90.0920093 114.3170592  86.5023381
  91.2398869 114.3192978  87.8623046  91.6100837 112.8346608  86.3878674
  91.0823141 112.2505288  85.7551362  92.2360803 113.4245985  85.8585265
  92.1461394 112.2526015  87.0155221  85.4460837 110.7336608  87.7988674
  85.0840837 110.3486608  88.9138674  85.4690837 109.9486608  86.7268674
  85.6866153 110.3463250  85.8242919  85.1580837 108.5226608  86.7988674
  85.1782971 108.1701901  87.8301070  83.7720837 108.1946608  86.1908674
  83.7959863 108.4116658  85.1229551  83.4220837 106.7266608  86.4028674
  83.3975350 106.5089920  87.4706308  82.4444852 106.5191759  85.9677219
  84.1735432 106.1003464  85.9220966  82.6870837 109.0826608  86.7918674
  82.9187780 110.1282181  86.5888166  81.7239328 108.8315718  86.3475768
  82.6421549 108.9236159  87.8692656  86.2440837 107.7536608  86.0538674
  86.5820837 108.0986608  84.9228674  86.7900837 106.7236608  86.6968674
  86.5089012 106.5347014  87.6483558  87.8010837 105.8626608  86.0898674
  87.9565679 106.1428836  85.0480426  89.1450837 105.9336608  86.8478674
  88.9834352 105.6294663  87.8820027  90.1800837 105.0106608  86.2008674
  90.3426163 105.3145421  85.1667785  91.1193736 105.0757193  86.7500511
  89.8165277 103.9833445  86.2242653  89.6730837 107.3746608  86.8818674
  90.1471028 107.5697892  85.9199259  88.8128839 108.0331164  87.0026645
  90.6650837 107.6326608  87.9938674  91.5258328 106.9748497  87.8734699
  90.9937924 108.6711703  87.9545249  90.1916141 107.4381745  88.9562090
  87.2830837 104.4296608  86.0978674  86.9050837 103.9186608  87.1408674
  87.2550837 103.8006608  84.9278674  87.4916182 104.3149499  84.0914121
  86.8960837 102.3926608  84.7958674  86.4954763 102.0239391  85.7401434
  86.1467457 102.2747634  84.0131209  88.1210837 101.5826608  84.4308674
  88.8660837 101.9726608  83.5298674  88.3450837 100.4766608  85.1368674
  87.7831388 100.2942780  85.9560461  89.3960837  99.5216608  84.7908674
  89.9930410  99.9304553  83.9756201  90.3140837  99.1866608  85.9808674
  89.7193786  98.7283837  86.7710625  91.4160837  98.2196608  85.5468674
  92.0115410  98.6774537  84.7569580  92.0568857  97.9922598  86.3987843
  90.9665404  97.2989303  85.1750269  90.9460837 100.4586608  86.5578674
  91.7157628 100.7862076  85.8590055  90.1629157 101.2145875  86.6155050
  91.5620837 100.2616608  87.9338674  92.3457098  99.5061556  87.8769293
  91.9899241 101.2028582  88.2791199  90.7928625  99.9345331  88.6334287
  88.7430837  98.2376608  84.2818674  87.8450837  97.6856608  84.9268674
  89.2080837  97.7686608  83.1268674  89.9589925  98.2633265  82.6669314
  88.6680837  96.5756608  82.4818674  88.2753702  95.8862472  83.2292523
  87.5260837  96.9776608  81.5368674  86.7619031  97.4421575  82.1600607
  87.9396876  97.7210390  80.8553832  86.9050837  95.8436608  80.7338674
  86.0727186  96.2346963  80.1487517  87.6806175  95.4769555  80.0614287
  86.4180837  94.7096608  81.6068674  87.0360837  93.6286608  81.5668674
  85.4370837  94.9216608  82.3488674  89.7820837  95.8876608  81.7068674
  90.4090837  96.5266608  80.8698674  90.0230837  94.6016608  81.9828674
  89.4873870  94.1483109  82.7092297  91.0850837  93.8386608  81.3248674
  91.9317394  94.4919764  81.1140310  91.5630837  92.6916608  82.2258674
  92.2619529  92.0615576  81.6757301  92.0589233  93.1006232  83.1062042
  90.2710837  91.5856608  82.8458674  91.0859501  90.7935777  83.5368779
  90.6240837  93.3036608  79.9678674  91.3950837  93.2776608  79.0078674
  89.3640837  92.8706608  79.9028674  88.8010758  92.8767386  80.7413687
  88.7670837  92.3496608  78.6678674  89.3311628  91.4858745  78.3160333
  87.3210837  91.9176608  78.9258674  87.3312953  91.0949812  79.6408452
  86.7816328  92.7629775  79.3531055  86.6780837  91.5006608  77.7368674
  85.7764603  91.2378852  77.9359254  88.7720837  93.3566608  77.5158674
  88.7030837  94.5696608  77.7288674  88.8110837  92.8286608  76.2948674
  88.9426233  91.8322499  76.1950576  88.7620837  93.6466608  75.0828674
  89.4289522  94.5027307  75.1854828  89.2040837  92.8256608  73.8718674
  89.3846573  93.4975176  73.0327602  90.1246761  92.2961661  74.1173161
  88.2020837  91.8906608  73.5198674  88.4919744  91.3822410  72.7588993
  87.3850837  94.2846608  74.8118674  87.2610837  95.0846608  73.8828674
  86.3660837  93.9326608  75.6058674  86.4381297  93.0806391  76.1434246
  85.0990837  94.6886608  75.6588674  84.6136745  94.7465973  74.6846393
  84.1120837  94.0696608  76.6948674  84.0799718  92.9923397  76.5322377
  84.5370837  94.3546608  78.1348674  84.5689782  95.4318516  78.2984012
  83.8203061  93.9044888  78.8216539  85.5255296  93.9312089  78.3130877
  82.6700837  94.5416608  76.4578674  82.1048744  94.3280687  77.3650705
  82.7031313  95.6190995  76.2962098  81.9990837  93.8756608  75.2778674
  81.9652471  92.7981712  75.4390233  80.9840947  94.2588130  75.1725538
  82.5635059  94.0892004  74.3701624  85.3280837  96.1806608  75.9568674
  84.5520837  97.0296608  75.5248674  86.3980837  96.4786608  76.6948674
  86.9054483  95.7119860  77.1130663  86.8460837  97.8476608  76.9798674
  86.0937696  98.3776188  77.5640482  88.1470837  97.8026608  77.7838674
  88.0468354  97.0622404  78.5774839  88.9628827  97.5153275  77.1205337
  88.4240837  99.0626608  78.3498674  89.2423066  99.0159755  78.8497990
  87.0630837  98.7296608  75.7428674  86.9130837  99.9486608  75.8268674
  87.4370837  98.1136608  74.6198674  87.6671262  97.1306669  74.6499162
  87.5580837  98.8176608  73.3378674  88.2922832  99.6175551  73.4338852
  88.0100837  97.8666608  72.2118674  87.2559176  97.0854832  72.1165036
  88.0485727  98.4481941  71.2907607  89.3780837  97.2266608  72.4688674
  90.1040837  97.6586608  73.3938674  89.7210837  96.2756608  71.7308674
  86.2280837  99.4586608  72.9348674  86.2050837 100.5936608  72.4628674
  85.1320837  98.7266608  73.1308674  85.2239283  97.7633038  73.4200167
  83.7920837  99.2396608  72.8418674  83.8007839  99.7661616  71.8874983
  82.7720837  98.0966608  72.7618674  82.7443666  97.5265826  73.6904910
  81.8025925  98.5661724  72.5952974  83.0860837  97.1706608  71.6128674
  82.8280837  97.5536608  70.2958674  82.3690485  98.5250252  70.1119184
  83.1450837  96.7226608  69.2298674  82.9310548  97.0292925  68.2060166
  83.7420837  95.4996608  69.4748674  84.0600837  94.6686608  68.4218674
  83.8237095  95.0380497  67.5678892  84.0170837  95.1026608  70.7698674
  84.4819374  94.1354273  70.9608413  83.6990837  95.9406608  71.8288674
  83.9294180  95.6390829  72.8506781  83.3570837 100.2936608  73.8508674
  82.7120837 101.2676608  73.4768674  83.7220837 100.1036608  75.1188674
  84.2126158  99.2570783  75.3694183  83.3720837 101.0456608  76.1858674
  82.2845539 101.1142032  76.2119446  83.8580837 100.5306608  77.5288674
  84.9460914 100.4652141  77.5213753  83.5411229 101.2138133  78.3168640
  83.4364502  99.5426931  77.7139194  83.9170837 102.4476608  75.9378674
  83.2320837 103.4296608  76.2198674  85.1380837 102.5306608  75.4078674
  85.6868212 101.6913359  75.2873669  85.7540837 103.8186608  75.0708674
  85.7254758 104.5008316  75.9205284  87.2290837 103.6546608  74.6158674
  87.2684748 102.8869118  73.8431390  87.7950837 104.9636608  74.0628674
  87.7564495 105.7318222  74.8352251  88.8292843 104.8112348  73.7541668
  87.2034262 105.2820603  73.2045756  88.0950837 103.1646608  75.7718674
  87.7241177 102.2011895  76.1214520  89.1255749 103.0556795  75.4337688
  88.0553118 103.8864428  76.5876797  84.9240837 104.5356608  74.0008674
  84.6760837 105.7286608  74.1158674  84.4980837 103.7976608  72.9768674
  84.8433998 102.8541141  72.8740283  83.5940837 104.3246608  71.9458674
  83.9957135 105.2544732  71.5430751  83.4430837 103.3196608  70.7998674
  83.1633126 102.3657165  71.2468771  82.6299768 103.6764521  70.1676831
  84.6950837 103.1366608  69.9588674  84.8689081 104.0462159  69.3838931
  85.5417413 102.9592973  70.6220530  84.5400837 101.9596608  69.0098674
  84.6394939 101.0395024  69.5856496  83.5450975 102.0048801  68.5670841
  85.5850837 101.9826608  67.9088674  85.2752178 102.6940728  67.1433763
  86.5378818 102.2987491  68.3335594  85.7370837 100.6346608  67.2998674
  84.8544169 100.3417637  66.9059000  86.4354481 100.6712794  66.5711381
  86.0246229  99.9753860  68.0089351  82.2050837 104.6956608  72.4798674
  81.6220837 105.6846608  72.0408674  81.6810837 103.8906608  73.4038674
  82.1742344 103.0425710  73.6439622  80.3730837 104.1366608  74.0278674
  79.6340876 104.3477168  73.2549254  79.9050837 102.9196608  74.8728674
  80.7396413 102.5961591  75.4949291  78.7110837 103.2636608  75.7618674
  77.8759224 103.5868283  75.1404425  78.4181235 102.3835357  76.3342789
  78.9861613 104.0663869  76.4460182  79.5230837 101.7616608  73.9478674
  78.5226936 101.9758644  73.5717862  80.2320255 101.7728794  73.1199935
  79.5340837 100.3986608  74.6018674  78.8249961 100.3865274  75.4296037
  79.2508703  99.6418128  73.8703823  80.5343283 100.1835435  74.9778133
  80.4060837 105.4096608  74.8768674  79.5000837 106.2406608  74.7898674
  81.4480837 105.5476608  75.6928674  82.0967072 104.7808224  75.7993844
  81.6410837 106.7396608  76.5198674  80.7887716 106.9374158  77.1699106
  82.9150837 106.6096608  77.3978674  83.7173946 106.2161612  76.7737244
  83.3460837 107.9506608  77.9968674  82.5444057 108.3445896  78.6215540
  84.2410668 107.8078234  78.6024276  83.5601395 108.6558875  77.1937877
  82.6890837 105.5766608  78.5008674  82.4635880 104.6090657  78.0525222
  83.5884926 105.4930910  79.1109325  81.8537199 105.8898827  79.1270943
  81.6850837 108.0026608  75.6498674  81.0100837 108.9906608  75.9578674
  82.4610837 107.9526608  74.5638674  83.0143133 107.1258633  74.3893901
  82.5900837 109.0846608  73.6378674  82.8122314 109.9907452  74.2015700
  83.7170837 108.8486608  72.6258674  84.5828630 108.4843963  73.1788926
  83.3789005 108.0783340  71.9328098  84.1020837 110.0976608  71.8468674
  83.2052805 110.4995061  71.3753114  84.5031249 110.8303455  72.5471825
  85.1370837 109.7956608  70.7858674  86.0067521 109.3413738  71.2606296
  84.7106561 109.0972939  70.0657684  85.5590837 111.0696608  70.0678674
  84.6778790 111.6888525  69.8999973  86.2681581 111.6101063  70.6949490
  86.1960837 110.7496608  68.7618674  85.5390601 110.2492462  68.1804855
  86.4686781 111.6062629  68.3014056  87.0128934 110.1762639  68.9172283
  81.3000837 109.3846608  72.8798674  80.9480837 110.5486608  72.7038674
  80.6060837 108.3436608  72.4268674  80.9666199 107.4075124  72.5440822
  79.3590837 108.5206608  71.6668674  79.5858789 109.1949103  70.8410038
  78.8780837 107.1936608  71.0938674  78.6383414 106.5108926  71.9090062
  77.9882771 107.3606130  70.4868489  79.6629756 106.7586244  70.4751692
  78.2590837 109.1766608  72.5008674  77.4160837 109.8826608  71.9548674
  78.2910837 108.9586608  73.8168674  78.9487672 108.2835017  74.1797890
  77.3420837 109.5776608  74.7508674  76.4456786 109.9038622  74.2234684
  76.9390837 108.5496608  75.8108674  77.8278078 108.1591909  76.3066517
  76.3049812 109.0492067  76.5433071  76.1690837 107.3906608  75.2148674
  74.9860837 107.5196608  74.9078674  76.8370837 106.2616608  75.0258674
  76.3664547 105.4600981  74.6307657  77.8136866 106.2080690  75.2778111
  77.8560837 110.8746608  75.4038674  77.2680837 111.3416608  76.3768674
  78.9300837 111.4516608  74.8528674  79.4300199 110.9267273  74.1495837
  79.4760837 112.7536608  75.2718674  80.3886948 112.9632173  74.7139013
  78.4650837 113.8876608  75.0068674  77.6958886 113.7899655  75.7729573
  79.0112000 114.8188415  75.1577299  77.8120837 113.8996608  73.6308674
  78.5744475 114.0757885  72.8719990  77.3358005 112.9360745  73.4498762
  76.7640837 115.0046608  73.5638674  76.0925066 114.8775031  74.4129340
  77.2822382 115.9596634  73.6509620  75.9590837 114.9806608  72.2728674
  75.7125673 113.9442006  72.0424751  75.0404303 115.5453815  72.4318184
  76.7160837 115.5746608  71.1368674  77.5671577 115.0512599  70.9891369
  76.1503910 115.5404838  70.3008508  76.9442386 116.5351975  71.3499723
  79.9290837 112.7956608  76.7388674  79.7580837 113.8126608  77.4108674
  80.5060837 111.6966608  77.2228674  80.5788759 110.8824821  76.6296442
  80.9520837 111.5836608  78.6198674  80.7539396 112.5138706  79.1523595
  80.1960837 110.4476608  79.3198674  80.3298252 109.5963446  78.6524296
  80.6778301 110.2389709  80.2750999  78.7000837 110.6896608  79.5448674
  78.2512852 111.0206712  78.6083244  78.0140837 109.4146608  80.0128674
  78.4620635 109.0832704  80.9496670  76.9524927 109.6081221  80.1668087
  78.1355776 108.6379375  79.2578571  78.4590837 111.8156608  80.5378674
  78.9032920 112.7361391  80.1590560  77.3869416 111.9588187  80.6724719
  78.9140100 111.5603529  81.4949248  82.4700837 111.3986608  78.7788674
  82.9480837 111.1636608  79.8878674  83.2230837 111.5466608  77.6888674
  82.7776056 111.6982219  76.7951796  84.6790837 111.3266608  77.7148674
  84.9015721 110.4668254  78.3467545  85.2380837 111.0576608  76.3008674
  86.3197267 110.9845284  76.4140019  84.8459628 110.1069296  75.9396867
  84.9060837 112.1556608  75.3008674  83.7110837 112.4906608  75.1418674
  85.8390837 112.6606608  74.6458674  85.4960837 112.4196608  78.4358674
  86.6770837 112.2086608  78.7158674  84.8820837 113.5666608  78.7388674
  83.9882197 113.7834483  78.3216029  85.5230837 114.5876608  79.5888674
  86.6009453 114.5694087  79.4276828  85.0010837 115.9936608  79.2578674
  83.9125786 116.0214721  79.3076909  85.4150892 116.7143247  79.9630930
  85.3800837 116.4686608  77.8868674  84.5390837 116.3556608  76.7978674
  85.1360837 116.8516608  75.7278674  84.6300606 116.8585537  74.7624701
  86.3370837 117.2776608  76.0808674  87.0199120 117.7032001  75.4703253
  86.5150837 117.0486608  77.4258674  87.4507188 117.3321843  77.9078452
  85.3840837 114.3136608  81.0938674  86.0570837 114.9616608  81.8948674
  84.5070837 113.3796608  81.4658674  83.8912611 112.9989617  80.7616444
  84.3470837 112.9206608  82.8538674  84.9680744 113.4876040  83.5474417
  82.8680837 113.0376608  83.3038674  82.2498733 112.4635621  82.6137038
  82.6730837 112.5076608  84.7228674  83.2906695 113.0816104  85.4137151
  81.6251561 112.6046103  85.0066788  82.9640577 111.4579592  84.7623938
  82.3980837 114.4836608  83.2078674  82.4838089 114.8264165  82.1767167
  81.3579749 114.5501279  83.5270152  83.0157254 115.1104687  83.8510870
  84.8340837 111.4746608  83.0508674  85.4970837 111.1776608  84.0458674
  84.4930837 110.5886608  82.1178674  83.9869062 110.9110371  81.3054899
  84.7920837 109.1626608  82.2268674  85.0027468 108.8603280  83.2526915
  83.6190837 108.3086608  81.6908674  83.4284229 108.5889732  80.6549270
  83.9450837 106.8186608  81.7628674  84.1354245 106.5374838  82.7986332
  83.1026224 106.2429428  81.3795814  84.8302515 106.6104140  81.1618575
  82.3340837 108.6136608  82.4488674  82.0828114 109.6675963  82.3297701
  81.5241638 108.0006503  82.0534593  82.4741611 108.3913691  83.5067264
  86.0620837 108.7946608  81.4528674  86.1370837 109.0096608  80.2438674
  87.0410837 108.2336608  82.1648674  86.9458968 108.2153918  83.1702057
  88.2410837 107.6436608  81.5708674  88.3000404 107.8983223  80.5126752
  89.5190837 108.1476608  82.2708674  89.4989663 107.8164007  83.3091170
  90.7850837 107.6066608  81.5848674  90.8061371 107.9379175  80.5466356
  91.6679314 107.9809727  82.1031045  90.7795761 106.5171797  81.6180527
  89.5450837 109.5786608  82.2468674  90.3410575 109.8915915  82.6828726
  88.1750837 106.1216608  81.7108674  87.7930837 105.6016608  82.7618674
  88.5470837 105.4156608  80.6498674  88.7879392 105.8986910  79.7961873
  88.6120837 103.9576608  80.6618674  88.3048169 103.5459176  81.6231966
  87.7490837 103.3416608  79.5388674  88.1044252 103.7117769  78.5771778
  87.8410837 101.8216608  79.5628674  87.4854533 101.4507519  80.5241448
  87.2260637 101.4072610  78.7640408  88.8776728 101.5175466  79.4176196
  86.2850837 103.8116608  79.6288674  86.3131498 104.9012927  79.6327849
  85.7957304 103.4646003  78.7188224  85.5100837 103.3216608  80.8378674
  85.9986091 103.6687426  81.7483492  84.4929400 103.7116965  80.8005856
  85.4811917 102.2320494  80.8343878  90.0690837 103.5406608  80.4708674
  90.7420837 104.0326608  79.5728674  90.5420837 102.6396608  81.3268674
  89.9331240 102.3075342  82.0610059  91.8960837 102.0956608  81.2508674
  92.4380135 102.5564722  80.4249957  92.6640837 102.3316608  82.5628674
  92.0453002 101.9881144  83.3918326  93.9970837 101.5796608  82.5758674
  94.6166399 101.9230239  81.7474034  94.5126282 101.7692497  83.5173400
  93.8126517 100.5103983  82.4721286  92.9130837 103.8256608  82.7498674
  93.7925619 104.0938003  82.1644443  92.0444302 104.3600309  82.3651738
  93.1350837 104.2006608  84.1858674  94.0039133 103.6669994  84.5711472
  93.3070326 105.2745188  84.2590913  92.2557819 103.9332276  84.7718773
  91.7920837 100.6016608  81.0068674  91.1600837  99.8926608  81.7898674
  92.4190837 100.1376608  79.9258674  92.8456799 100.7895005  79.2830455
  92.4700837  98.7216608  79.6058674  91.5534662  98.2377198  79.9430803
  92.6100837  98.5066608  78.0978674  91.9252979  99.1964036  77.6044888
  93.6355334  98.7568663  77.8259296  92.3010837  97.0816608  77.6558674
  92.9391117  96.3984308  78.2164189  91.2559010  96.8679248  77.8795011
  92.5480837  96.8986608  76.1668674  91.8729272  97.5556330  75.6185518
  93.5797102  97.1746376  75.9485028  92.3090837  95.4616608  75.7438674
  93.0685613  94.8308502  76.2057899  91.3224461  95.1550064  76.0911547
  92.3800837  95.3196608  74.2608674  93.2943908  95.6033555  73.9389052
  92.2178059  94.3556949  74.0068288  91.6761324  95.9037780  73.8326634
  93.6350837  98.0726608  80.3538674  94.7960837  98.4096608  80.1168674
  93.3150837  97.1546608  81.2598674  92.3402234  96.9646150  81.4432501
  94.3200837  96.4026608  82.0078674  94.7810025  95.6770520  81.3376846
  95.0787231  97.0983090  82.3665305  93.7220837  95.6686608  83.1948674
  92.5370837  95.8326608  83.5078674  94.5460837  94.8506608  83.8478674
  95.4565636  94.6445773  83.4623089  94.1680837  94.2166608  85.1108674
  93.1424447  93.8554038  85.0356539  95.0800837  93.0336608  85.4518674
  96.0996887  93.3416825  85.2202910  94.9880527  92.8605170  86.5240855
  94.7560837  91.7526608  84.7028674  93.6733633  91.6275957  84.6896005
  95.1225234  91.8507860  83.6810086  95.4000837  90.5356608  85.3588674
  95.4508420  89.7368789  84.6189551  96.4091206  90.8090996  85.6673722
  94.6100837  90.0546608  86.5728674  94.3976729  90.9148902  87.2076805
  93.6729169  89.6213260  86.2235274  95.3660837  89.0376608  87.3528674
  96.2343229  89.4391312  87.6770308  94.8143979  88.7433147  88.1460277
  95.5626377  88.2402861  86.7649394  94.2440837  95.2376608  86.2378674
  95.1960837  96.0106608  86.3168674  93.2610837  95.2026608  87.1298674
  92.4848748  94.5742663  86.9791377  93.2200837  96.0896608  88.2938674
  93.2102480  97.1434281  88.0153411  91.9760837  95.7976608  89.1718674
  91.9162136  94.7218412  89.3365702  92.0550837  96.5136608  90.5158674
  92.1145161  97.5896301  90.3519808  91.1657113  96.2846610  91.1029587
  92.9415773  96.1792274  91.0547414  90.6920837  96.1776608  88.4358674
  90.6157652  95.5993881  87.5150644  89.8320756  95.9642623  89.0706482
  90.7111595  97.2407943  88.1961092  94.5100837  95.9536608  89.1158674
  95.0630837  96.9536608  89.5618674  95.0020837  94.7216608  89.2608674
  94.5012255  93.9479050  88.8478996  96.1870837  94.4276608  90.0778674
  96.1605056  95.0211105  90.9917658  96.2260837  92.9346608  90.4608674
  96.2185997  92.3743646  89.5259282  97.1734723  92.7708889  90.9744175
  95.0740837  92.4576608  91.3508674  95.4670196  91.6594463  91.9805943
  94.7921350  93.3061480  91.9743042  93.8440837  91.9506608  90.5928674
  92.9630837  91.3406608  91.2418674  93.7420837  92.1576608  89.3608674
  97.5370837  94.8296608  89.4428674  98.5770837  94.6816608  90.0878674
  97.5220837  95.3086608  88.1938674  96.6410257  95.3330893  87.7006745
  98.7360837  95.7366608  87.4768674  99.6144055  95.6102911  88.1098609
  98.9120837  94.8816608  86.2198674  98.0396300  95.0450666  85.5872362
  99.8051318  95.2356239  85.7048187  99.0530837  93.3926608  86.5158674
  99.9447087  93.2767634  87.1320439  98.1760444  93.0849933  87.0852898
  99.1800837  92.5246608  85.2718674  98.8420837  92.9826608  84.1548674
  99.6160837  91.3616608  85.4148674  98.7780837  97.2196608  87.0828674
  99.8680837  97.7666608  86.9188674  97.6230837  97.8676608  86.9228674
  96.7474727  97.3920813  87.0878790  97.5820837  99.2546608  86.4198674
  98.3787825  99.4799671  85.7109194  96.2180837  99.6406608  85.7748674
  96.2718124 100.6745095  85.4337380  95.8970837  98.7316608  84.5928674
  95.8427306  97.6976218  84.9333230  94.9397189  99.0219487  84.1601020
  96.6790821  98.8248892  83.8392835  95.0800837  99.6806608  86.7998674
  95.3094133 100.4175887  87.5695734  94.1504597  99.9544424  86.3009262
  94.9695964  98.6984488  87.2593813  97.9160837 100.3116608  87.4728674
  97.7210837 100.1066608  88.6718674  98.4100837 101.4456608  86.9828674
  98.6997853 101.4624506  86.0154531  98.5610837 102.6596608  87.7688674
  98.6109293 102.4116433  88.8291041  99.8490837 103.3896608  87.3758674
 100.6589067 102.6611277  87.4149275  99.7237424 103.7381987  86.3507279
 100.1850837 104.5686608  88.2738674  99.3742867 105.2896955  88.1698582
 100.2188063 104.2063200  89.3013260 101.5080837 105.2396608  87.9288674
 102.2230837 105.6306608  88.8748674 101.8330837 105.3876608  86.7278674
  97.3400837 103.5386608  87.4858674  97.0160837 103.7866608  86.3168674
  96.6540837 103.9826608  88.5418674  96.9344696 103.7140213  89.4742385
  95.4880837 104.8646608  88.3918674  94.8823552 104.5134020  87.5565176
  94.6170837 104.8876608  89.6528674  95.3265215 104.5715039  90.4176171
  94.4003841 105.9488430  89.7754792  93.3280837 104.0866608  89.7938674
  93.5507858 103.0358362  89.9789953  92.5610837 104.6576608  90.9758674
  92.3376017 105.7084096  90.7912558  91.6299765 104.1061371  91.1061043
  93.1649974 104.5683924  91.8788734  92.4350837 104.1256608  88.5708674
  92.9724444 103.7175886  87.7148183  91.5402583 103.5309951  88.7546102
  92.1490730 105.1565013  88.3619065  95.9310837 106.3016608  88.1148674
  96.9000837 106.7616608  88.7128674  95.1980837 107.0286608  87.2458674
  94.2790837 106.4596608  86.2448674  93.4332760 106.0051265  86.7607241
  94.8081491 105.6968747  85.6736002  93.8750837 107.6336608  85.3968674
  92.8183336 107.5492323  85.1433915  94.4681941 107.6395921  84.4823805
  94.1420837 108.8456608  86.2088674  93.3055632 109.0771136  86.8682322
  94.3642989 109.7126179  85.5866895  95.3710837 108.4706608  87.0398674
  96.3093470 108.5976345  86.4998323  95.4010837 109.3096608  88.3148674
  96.0300837 110.3646608  88.3238674  94.7050837 108.8496608  89.3558674
  94.0944470 108.0580261  89.2125611  94.7130837 109.4916608  90.6738674
  95.3959644 110.3408392  90.6997354  93.2980837 109.9806608  91.0818674
  93.3446966 110.4191183  92.0787031  92.7990837 111.0216608  90.0938674
  92.7517593 110.5837745  89.0968133  91.8053681 111.3576005  90.3901345
  93.4816591 111.8714326  90.0849028  92.2940837 108.8366608  91.1798674
  92.6312274 108.1198084  91.9285722  91.3198116 109.2313013  91.4682289
  92.2126928 108.3401556  90.2129346  95.2930837 108.5656608  91.7498674
  95.3120837 107.3386608  91.5918674  95.7610837 109.1656608  92.8418674
  95.7753946 110.1743877  92.8904930  96.2870837 108.4096608  93.9768674
  96.9185348 107.5992743  93.6126663  97.1180837 109.3006608  94.8928674
  96.4792490 110.1249151  95.2100333  97.3968386 108.7029775  95.7607213
  98.3610837 109.8506608  94.2418674  98.8750133 109.0460651  93.7159368
  98.0460985 110.6093078  93.5253912  99.2950837 110.4686608  95.2488674
  99.3890837 111.7066608  95.2898674  99.9220837 109.7096608  96.0158674
  95.1790837 107.7786608  94.8018674  95.3380837 106.6596608  95.2788674
  94.0840837 108.5176608  94.9968674  94.0448062 109.4399106  94.5869748
  92.9520837 108.0716608  95.8138674  93.0194128 106.9961390  95.9776325
  92.9530837 108.7766608  97.1778674  92.8683321 109.8441175  96.9742683
  92.0608849 108.4354931  97.7029255  94.1820837 108.5206608  98.0448674
  95.0655696 108.7644099  97.4548335  94.1278582 109.1841137  98.9079965
  94.2720837 107.0736608  98.5208674  93.3972079 106.8600670  99.1349269
  94.2682100 106.4242652  97.6454419  95.5350837 106.8226608  99.3328674
  96.3734456 107.3068621  98.8320690  95.4044286 107.2571796 100.3239384
  95.8100837 105.3626608  99.4628674  95.9316104 104.9599154  98.5446478
  96.6513243 105.2254841 100.0047132  95.0335463 104.9138702  99.9272764
  91.6150837 108.3216608  95.1278674  91.5000837 109.1956608  94.2668674
  90.6110837 107.5476608  95.5318674  90.8104668 106.7673274  96.1413144
  89.2430837 107.7196608  95.0528674  89.1070502 108.6748724  94.5457532
  88.8140837 106.5816608  94.0898674  87.7843050 106.7505889  93.7750369
  89.7210837 106.5546608  92.8658674  90.7510406 106.3853001  93.1798846
  89.4083483 105.7512459  92.1989180  89.6536372 107.5080962  92.3419271
  88.8020837 105.2186608  94.7758674  88.1010078 105.2374445  95.6102784
  88.4955616 104.4545066  94.0615760  89.8010990 104.9890401  95.1464664
  88.2790837 107.8396608  96.2368674  88.5070837 107.2616608  97.3038674
  87.2120837 108.6066608  96.0358674  87.1044647 109.0737288  95.1468427
  86.1980837 108.8356608  97.0678674  86.6729840 108.8910904  98.0474063
  85.4600837 110.1486608  96.8078674  84.9866104 110.0702426  95.8292087
  84.6932456 110.2661640  97.5735386  86.3850837 111.3556608  96.8278674
  87.0340837 111.5956608  97.8688674  86.4560837 112.0686608  95.8058674
  85.1920837 107.6856608  97.1188674  84.7330837 107.3106608  98.1948674
  84.8420837 107.1526608  95.9478674  85.2520468 107.5280233  95.1045806
  83.8620837 106.0726608  95.8218674  83.6504782 105.6128477  96.7872141
  82.5410837 106.5886608  95.1948674  82.7691410 107.0511352  94.2345510
  81.5440837 105.4476608  94.9868674  81.3151687 104.9849641  95.9468728
  80.6280257 105.8407686  94.5459540  81.9774992 104.7029187  94.3193276
  81.9260837 107.6956608  96.0668674  81.5765052 107.2238123  96.9851564
  82.7243126 108.3997274  96.3018577  80.7800837 108.4336608  95.4118674
  79.9812218 107.7302753  95.1769880  80.4028268 109.1971999  96.0921501
  81.1290291 108.9061887  94.4936875  84.4430837 104.9456608  94.9628674
  85.1500837 105.2046608  93.9868674  84.1660837 103.7026608  95.3538674
  83.7839296 103.5538447  96.2768578  84.4160837 102.5326608  94.5088674
  84.8625052 102.8576448  93.5690842  85.3430837 101.4966608  95.1888674
  85.0090857 101.3518639  96.2162814  85.3120837 100.1566608  94.4488674
  85.6464179 100.3005810  93.4214394  85.9728479  99.4490752  94.9496808
  84.2948846  99.7649924  94.4479078  86.7780837 102.0266608  95.2318674
  87.1215861 102.1032393  94.2002460  86.7382711 103.0213682  95.6757948
  87.7400837 101.1586608  96.0218674  87.7807830 100.1638611  95.5782267
  88.7339501 101.6057935  96.0018349  87.3974664 101.0819882  97.0537756
  83.0720837 101.8886608  94.1908674  82.2920837 101.6186608  95.0948674
  82.8160837 101.6436608  92.9078674  83.4152744 102.0454552  92.2010215
  81.6330837 100.9016608  92.4738674  81.1010722 100.5010799  93.3367683
  80.6680837 101.7706608  91.6308674  79.7623939 101.2011007  91.4224745
  80.3050837 103.0416608  92.3938674  81.2102785 103.6120182  92.6022312
  79.6260156 103.6458080  91.7922252  79.8193429 102.7761690  93.3328398
  81.2650837 102.1286608  90.2608674  82.2521595 102.5545296  90.4409172
  81.3676456 101.1989314  89.7012391  80.4290837 103.1106608  89.4608674
  80.3264644 104.0408673  90.0196920  80.9175474 103.3121427  88.5075010
  79.4419490 102.6852695  89.2800159  82.0770837  99.6426608  91.7268674
  83.0650837  99.6596608  90.9968674  81.3670837  98.5416608  91.9368674
  80.5804048  98.5464202  92.5702811  81.7220837  97.2896608  91.2878674
  81.9425169  97.4741571  90.2364543  82.9560837  96.6596608  91.9438674
  83.7439909  97.4104050  92.0045676  82.6907337  96.3301575  92.9484155
  83.4180837  95.5486608  91.1878674  84.1897031  95.1695703  91.6150603
  80.5810837  96.2976608  91.3388674  79.9710837  96.0786608  92.3888674
  80.2890837  95.7146608  90.1888674  80.5815089  96.1339717  89.3177961
  79.4820837  94.5186608  90.1358674  78.9406659  94.3994847  91.0743572
  78.4720837  94.5986608  88.9978674  78.0903329  95.6192713  88.9710408
  79.0061051  94.3865791  88.0716155  77.3140837  93.6296608  89.1468674
  77.0106873  93.5692189  90.1920460  76.4934132  94.0329216  88.5535886
  77.6670837  92.2496608  88.6448674  77.3410837  91.9456608  87.4708674
  78.3060837  91.4876608  89.4118674  80.4690837  93.3606608  90.0058674
  80.9750837  93.0746608  88.9218674  80.7280837  92.7236608  91.1448674
  80.1891675  92.9925522  91.9556486  81.7670837  91.6956608  91.3078674
  82.3536760  91.6148536  90.3927287  82.7140837  92.0646608  92.4698674
  83.4213100  91.2639609  92.6862238  83.2605596  92.9681657  92.1994179
  81.9970837  92.3646608  93.7568674  81.6220837  93.5916608  94.2038674
  81.8830670  94.4416104  93.5733333  80.9680837  93.4836608  95.4048674
  80.6017431  94.2528382  95.9473249  80.8990837  92.1616608  95.7528674
  80.3340837  91.5516608  96.8808674  79.8558482  92.1829400  97.6297840
  80.4200837  90.1856608  96.9708674  79.9946525  89.6760670  97.8354033
  81.0450837  89.4246608  95.9728674  81.1055470  88.3392509  96.0524224
  81.6060837  90.0296608  94.8528674  82.0834603  89.3928515  94.1080947
  81.5380837  91.4236608  94.7338674  81.1960837  90.3006608  91.5648674
  81.9530837  89.3326608  91.6318674  79.8780837  90.1936608  91.7178674
  79.2808904  90.9845710  91.5231355  79.2630837  88.9686608  92.2078674
  79.8739438  88.5432135  93.0040733  77.8680837  89.2506608  92.7608674
  77.2778077  89.6824746  91.9526531  77.4347615  88.2950596  93.0560931
  77.8660837  90.1976608  93.9518674  76.9293527  90.0453293  94.4879933
  78.7011899  89.9164512  94.5934443  78.0190837  91.9386608  93.5088674
  76.4410837  92.1986608  92.6958674  75.6322624  91.9908885  93.3963942
  76.3718287  93.2326761  92.3580559  76.3590663  91.5306062  91.8385008
  79.1780837  87.9226608  91.1058674  78.7990837  88.2246608  89.9738674
  79.5520837  86.6946608  91.4458674  79.9803701  86.5408841  92.3475452
  79.3680837  85.5466608  90.5618674  79.1207491  85.9036426  89.5621231
  80.2952576  84.9748183  90.5238652  78.2550837  84.6476608  91.0528674
  77.5740837  84.9516608  92.0378674  78.0800837  83.5286608  90.3578674
  78.5976354  83.3872461  89.5021563  77.1480837  82.4886608  90.7828674
  76.1380397  82.8965272  90.8223036  77.1620837  81.3136608  89.8078674
  78.1598469  80.8777815  89.8586334  76.4323438  80.5936480  90.1782204
  76.8390837  81.6656608  88.3748674  75.6930837  82.3886608  88.0508674
  75.0222893  82.7027151  88.8505574  75.4000837  82.7096608  86.7338674
  74.4989227  83.2734479  86.4927143  76.2620837  82.3106608  85.7198674
  75.9820837  82.6286608  84.4128674  75.1676675  83.1272764  84.3143365
  77.4040837  81.5916608  86.0138674  78.0797083  81.2751936  85.2192100
  77.6880837  81.2726608  87.3338674  78.5868011  80.7055195  87.5762681
  77.5640837  82.0126608  92.1758674  78.7580837  81.8346608  92.4418674
  76.5860837  81.8526608  93.0668674  75.6350400  82.0429697  92.7850916
  76.8400837  81.5116608  94.4688674  75.9048571  81.5051900  95.0286964
  77.4750837  80.1176608  94.5588674  77.1014493  79.4809923  93.7569012
  78.5601269  80.1925900  94.4869855  77.1350837  79.2366608  96.0968674
  77.8244948  78.1426700  95.7857488  77.7000837  82.5806608  95.1738674
  78.4570837  82.2696608  96.0948674  77.5660837  83.8336608  94.7178674
  77.0037126  83.9280329  93.8842416  78.2720837  85.0356608  95.2308674
  77.8536212  85.9230713  94.7560086  78.1310837  85.1816608  96.7578674
  77.0600442  85.0474617  96.9094064  78.6700917  84.3607207  97.2307605
  78.5740837  86.5136608  97.3848674  79.6600906  86.5774282  97.3168695
  77.9500837  87.7126608  96.6808674  76.8640223  87.6498301  96.7488499
  78.2908327  88.6320486  97.1570153  78.2484634  87.7148724  95.6325043
  78.2490837  86.5366608  98.8758674  78.7708972  85.7199406  99.3746442
  78.5694588  87.4867173  99.3034814  77.1744501  86.4197737  99.0158635
  79.7420837  85.1676608  94.8288674  80.1590837  86.1996608  94.2988674
  80.5130837  84.1186608  95.0718674  80.0818678  83.2437796  95.3340412
  81.9680837  84.1926608  95.0508674  82.3056064  85.2286359  95.0203184
  82.4970837  83.5426608  96.3348674  82.0811074  82.5396208  96.4295974
  83.5853531  83.4839200  96.3169978  82.1260837  84.2836608  97.5928674
  82.4470837  85.6266608  97.7508674  82.9686315  86.1460039  96.9468957
  82.1120837  86.3066608  98.9138674  82.3666508  87.3606779  99.0249718
  81.4530837  85.6426608  99.9338674  81.1870558  86.1735580 100.8479118
  81.1320837  84.3046608  99.7928674  80.6142880  83.7799666 100.5957894
  81.4680837  83.6336608  98.6338674  81.2183658  82.5784470  98.5231205
  82.6390837  83.5576608  93.8258674  83.8530837  83.6956608  93.6658674
  81.8790837  82.8716608  92.9658674  80.8979410  82.7163591  93.1484592
  82.4650837  82.2756608  91.7598674  83.2674689  81.5971665  92.0495615
  81.4280837  81.4906608  90.9538674  80.9244998  80.8144334  91.6446778
  80.7085592  82.2079255  90.5590056  82.0250837  80.6926608  89.8108674
  82.8260837  79.5796608  90.0608674  83.0167456  79.2903752  91.0943380
  83.3760837  78.8456608  89.0238674  83.9993600  77.9774352  89.2379069
  83.1310837  79.2136608  87.7168674  83.6880837  78.4736608  86.6978674
  84.2180144  77.7384761  87.0145322  82.3400837  80.3116608  87.4368674
  82.1438932  80.6010635  86.4044645  81.7940837  81.0476608  88.4798674
  81.1738224  81.9181745  88.2663682  83.0840837  83.3796608  90.9058674
  82.5640837  84.4946608  90.8718674  84.2010837  83.0476608  90.2488674
  84.4763929  82.0784008  90.3184333  85.1140837  83.9906608  89.5548674
  85.7482474  83.4126276  88.8826968  84.3900837  85.0776608  88.7358674
  83.9482435  85.7580492  89.4638427  85.1664858  85.5993456  88.1762739
  83.3110837  84.5916608  87.7748674  83.7848027  83.9532868  87.0290994
  82.5884602  84.0083007  88.3454859  82.5980837  85.7406608  87.0788674
  83.2970837  86.6366608  86.5508674  81.3430837  85.7536608  87.0558674
  86.1430837  84.6536608  90.4878674  87.1800837  85.1176608  90.0138674
  85.8520837  84.7066608  91.7908674  84.9417717  84.3749292  92.0761488
  86.7130837  85.3226608  92.7998674  86.1846098  85.3708556  93.7519660
  88.0030837  84.5036608  92.9938674  88.5599850  84.5004825  92.0568775
  88.6037999  84.9756120  93.7713648  87.7060837  83.1706608  93.3708674
  88.5237170  82.6808773  93.4857058  87.0270837  86.7896608  92.5138674
  88.1440837  87.2546608  92.7578674  86.0360837  87.5246608  92.0158674
  85.1513783  87.0968550  91.7826768  86.2270837  88.9416608  91.6988674
  87.2283286  89.0892291  91.2941064  85.2090837  89.4246608  90.6698674
  85.0825833  88.6326543  89.9317464  84.2654285  89.5902773  91.1896616
  85.6330837  90.7046608  89.9708674  85.7901406  91.4628334  90.7380755
  86.5749994  90.5048974  89.4599942  84.4340837  91.3086608  88.7818674
  84.7970837  93.0646608  88.8408674  85.8338451  93.2318973  88.5488798
  84.1368658  93.5959189  88.1553181  84.6413933  93.4345382  89.8543034
  86.1910837  89.8476608  92.9348674  86.7240837  90.9536608  92.8828674
  85.5870837  89.4056608  94.0388674  85.0511713  88.5495669  94.0382559
  85.6250837  90.2016608  95.2708674  85.1468850  91.1630130  95.0831789
  84.9030837  89.5146608  96.4338674  83.8926563  89.3748132  96.0497083
  85.3577970  88.5419503  96.6214046  84.8460837  90.3156608  97.7468674
  85.8635641  90.4362594  98.1187417  84.2120837  91.6886608  97.5468674
  83.1943547  91.5688608  97.1754184  84.1909882  92.2216441  98.4974380
  84.7972520  92.2579227  96.8246352  84.1150837  89.5406608  98.8278674
  84.6337647  88.6005095  99.0154440  84.0898318  90.1302225  99.7443174
  83.0959250  89.3338755  98.5012879  87.0650837  90.5166608  95.6648674
  87.3580837  91.6476608  96.0458674  87.9540837  89.5306608  95.5288674
  87.6236339  88.6059182  95.2927460  89.3980837  89.7176608  95.7678674
  89.5717325  89.8707966  96.8329940  90.2060837  88.4876608  95.3088674
  90.0618329  88.3526735  94.2369209  91.2603550  88.6753692  95.5122823
  89.7930837  87.2036608  96.0218674  88.6060837  86.9136608  96.1498674
  90.7740837  86.4286608  96.4818674  90.5510636  85.5680102  96.9610776
  91.7363794  86.7052761  96.3493088  89.9500837  90.9696608  95.0728674
  90.7670837  91.6946608  95.6478674  89.5030837  91.2106608  93.8408674
  88.8894604  90.5379904  93.4037400  89.9300837  92.3726608  93.0578674
  91.0166525  92.4530414  93.0895906  89.4870837  92.2476608  91.5828674
  88.3996914  92.1781910  91.5536749  89.9410837  93.4456608  90.7598674
  91.0284736  93.5155159  90.7882068  89.6121189  93.3238306  89.7278603
  89.5081082  94.3564194  91.1735721  90.0590837  91.0636608  91.0248674
  89.7881923  90.9789575  90.1077832  89.4250837  93.6906608  93.6438674
  90.1710837  94.6676608  93.6858674  88.1710837  93.7066608  94.0948674
  87.5812287  92.8997803  93.9495598  87.5870837  94.8886608  94.7428674
  87.7114012  95.7799857  94.1279006  86.0790837  94.7006608  95.0428674
  85.9546679  93.8063100  95.6534053  85.5080837  95.9076608  95.7858674
  85.6317271  96.8023812  95.1757129  84.4481660  95.7460168  95.9821991
  86.0364706  96.0367971  96.7304481  85.2990837  94.4576608  93.7538674
  85.6754096  93.5591952  93.2647451  84.2422111  94.3282161  93.9870281
  85.4217327  95.3117637  93.0878597  88.3490837  95.2146608  96.0358674
  88.6270837  96.3846608  96.3148674  88.6940837  94.1776608  96.7998674
  88.3914962  93.2509186  96.5358805  89.4350837  94.3356608  98.0548674
  88.9279675  95.0648028  98.6867567  89.5260837  93.0046608  98.8168674
  90.0992691  92.3917691  98.1212227  90.1131928  93.1746199  99.7193733
  88.2210837  92.2786608  99.1838674  87.7720851  91.8799929  98.2741614
  88.4920837  91.1406608 100.1558674  88.9406911  91.5386345 101.0660691
  87.5549739  90.6411471 100.4016562  89.1750787  90.4254807  99.6974617
  87.1740837  93.2336608  99.7478674  86.9408771  93.9973020  99.0058659
  86.2691406  92.6777767  99.9931676  87.5629353  93.7093616 100.6482019
  90.8360837  94.9026608  97.8348674  91.2830837  95.7556608  98.5988674
  91.5240837  94.4226608  96.8008674  91.1777491  93.6119503  96.3080184
  92.8110837  94.9946608  96.3828674  93.5342364  94.9061642  97.1936188
  93.3600837  94.2506608  95.1498674  93.5627694  93.2299213  95.4740720
  92.5666404  94.2431785  94.4025444  94.6180837  94.8486608  94.5458674
  94.5450837  95.9166608  93.6478674  93.5642291  96.3113198  93.3827864
  95.6880837  96.4736608  93.0968674  95.6135487  97.3138840  92.4065260
  96.9310837  95.9566608  93.4278674  98.0560837  96.5156608  92.8708674
  97.8586540  97.2448794  92.2785319  97.0330837  94.8906608  94.3088674
  98.0095054  94.4815846  94.5684013  95.8810837  94.3436608  94.8618674
  95.9541604  93.5058168  95.5552485  92.6620837  96.4916608  96.0888674
  93.4500837  97.3016608  96.5748674  91.6510837  96.8356608  95.2938674
  91.0742960  96.1042292  94.9034534  91.3760837  98.2236608  94.9008674
  92.2870445  98.6248728  94.4567069  90.2690837  98.2566608  93.8548674
  89.3479121  97.8663592  94.2875423  90.1090932  99.2836962  93.5266882
  90.5570386  97.6435723  93.0008746  91.0020837  99.1226608  96.0868674
  91.3600837 100.3036608  96.1158674  90.2700837  98.5566608  97.0438674
  89.9208699  97.6203219  96.8975168  89.9160837  99.2426608  98.2868674
  89.3726333 100.1620234  98.0688462  89.0190837  98.3326608  99.1398674
  88.1188105  98.1596526  98.5502273  89.5636062  97.3953637  99.2541893
  88.6310837  98.8656608 100.5148674  89.4969359  99.3559032 100.9599103
  87.8247743  99.5896627 100.3974437  88.1680837  97.7336608 101.4208674
  87.7607895  98.1616391 102.3368614  87.3901435  97.1689133 100.9070885
  89.2570837  96.8186608 101.7738674  90.1905896  97.1238623 101.5382442
  89.1050837  95.6296608 102.3668674  87.8980837  95.1706608 102.7088674
  87.0770501  95.7274141 102.5190530  87.8120593  94.2689713 103.1556956
  90.1770837  94.8896608 102.6298674  91.0950098  95.2295225 102.3808579
  90.0689825  93.9907783 103.0775539  91.1640837  99.6296608  99.0738674
  91.3450837 100.7906608  99.4298674  92.0130837  98.6406608  99.3398674
  91.7952082  97.7069268  99.0224239  93.2260837  98.8376608 100.1388674
  92.9661098  99.2810798 101.1000606  93.9310837  97.4946608 100.3918674
  94.1390719  97.0394003  99.4235812  94.8705234  97.7073420 100.9020829
  93.0950837  96.5286608 101.2418674  92.0210837  96.9196608 101.7528674
  93.5110837  95.3636608 101.4008674  94.1970837  99.8236608  99.4818674
  94.7910837 100.6596608 100.1638674  94.3290837  99.7366608  98.1588674
  93.7916497  99.0471390  97.6530772  95.2800837 100.5606608  97.4108674
  96.2208462 100.6282153  97.9572204  95.5560837  99.9426608  96.0338674
  95.6167598  98.8631748  96.1721705  94.7029337 100.1796119  95.3981873
  96.8330837 100.4416608  95.3748674  96.7087145 101.4980895  95.1369777
  97.6549898 100.3230681  96.0809185  97.1430837  99.6686608  94.1018674
  96.8497354  98.6313097  94.2629529  96.5417950 100.0952540  93.2990166
  98.6160837  99.7256608  93.7178674  99.1728066  99.1371167  94.4470973
  98.7202450  99.2738576  92.7313972  99.1520837 101.1106608  93.6868674
  99.0560535 101.5293421  94.6009702 100.1279968 101.0882340  93.4276557
  98.6366281 101.6560713  93.0109000  94.8100837 102.0056608  97.2428674
  95.5700837 102.9286608  97.5128674  93.5610837 102.1866608  96.8108674
  92.9392737 101.3922808  96.7617543  93.0670837 103.4906608  96.3358674
  93.8638879 104.2331976  96.3787802  92.5920837 103.3656608  94.8848674
  91.8355019 102.5819408  94.8465774  92.1632751 104.3017065  94.5270384
  93.6520837 102.9826608  93.9108674  94.8330837 103.6296608  93.6748674
  95.0359570 104.5159510  94.2760595  95.5360837 102.9886608  92.6848674
  96.4393774 103.2663198  92.3284048  94.8100837 101.9106608  92.2568674
  95.1020837 100.9596608  91.2758674  96.0431342 101.0437937  90.7323195
  94.1800837  99.9756608  91.0588674  94.3769239  99.2133165  90.3050868
  92.9770837  99.9206608  91.7868674  92.2464112  99.1329774  91.6030955
  92.6850837 100.8656608  92.7588674  91.7463970 100.7731417  93.3051349
  93.6120837 101.8826608  93.0048674  91.9360837 104.1536608  97.1388674
  91.6940837 105.3456608  96.9438674  91.2280837 103.4236608  98.0018674
  91.4180604 102.4432521  98.1528875  90.0870837 104.0266608  98.6998674
  89.4975117 104.5972464  97.9822770  89.1820837 102.9796608  99.3538674
  89.0289200 102.2479191  98.5606498  89.7232648 102.5139965 100.1775056
  87.8230837 103.4816608  99.8548674  88.0044851 104.2248155 100.6313437
  86.9840837 104.1036608  98.7418674  86.8018654 103.3609202  97.9651874
  86.0320156 104.4427827  99.1501116  87.5183486 104.9521116  98.3143248
  87.0610837 102.3476608 100.5208674  87.6364091 101.9697517 101.3660212
  86.0971240 102.7146840 100.8732548  86.9024783 101.5441492  99.8016231
  90.5700837 105.0306608  99.7408674  91.4190837 104.7136608 100.5718674
  90.0320837 106.2466608  99.6718674  89.4176792 106.4752444  98.9035212
  90.3360837 107.2886608 100.6488674  91.4160844 107.4116580 100.7299195
  89.7260837 108.6156608 100.2108674  88.6438534 108.5108940 100.1340459
  89.9648897 109.3856496 100.9444811  90.1328162 108.9004199  99.2405168
  89.8130837 106.8936608 102.0348674  88.9550837 106.0076608 102.1448674
  90.3360837 107.5316608 103.1028674  91.5340837 108.3896608 103.1888674
  91.2923385 109.3886433 102.8259714  92.3301778 107.9644274 102.5777129
  91.8650837 108.3726608 104.6518674  92.3513778 109.3071024 104.9319317
  92.5305131 107.5375531 104.8707287  90.5580837 108.2086608 105.3498674
  90.1026841 109.1960732 105.4255432  90.6148291 107.7583684 106.3408852
  89.7230837 107.3186608 104.4168674  89.7852207 106.2604333 104.6706229
  88.2530837 107.7536608 104.3988674  87.9260837 108.7976608 103.8248674
  87.3820837 106.9296608 104.9758674  87.7195228 106.0550389 105.3517275
  85.9310837 107.1736608 104.9718674  85.4079821 106.3122285 105.3870763
  85.5980837 108.4086608 105.8248674  86.0270591 109.2846735 105.3383686
  84.5130687 108.5072117 105.8584848  86.1430837 108.2986608 107.2468674
  85.7860837 107.3246608 107.9498674  86.9280837 109.1766608 107.6598674
  85.3140837 107.2786608 103.5578674  84.3040837 107.9596608 103.3618674
  85.9140837 106.5836608 102.5888674  86.7792210 106.1037381 102.7921185
  85.3700837 106.4866608 101.2388674  84.9573025 107.4510787 100.9428795
  86.1630404 106.2035493 100.5466486  84.2700837 105.4406608 101.1848674
  84.2160837 104.5426608 102.0288674  83.3990837 105.5556608 100.1848674
  83.5213531 106.2984278  99.5114829  82.2390837 104.6726608 100.0418674
  82.0077412 104.2002284 100.9965335  81.0210837 105.4826608  99.5888674
  81.2347259 105.6915829  98.5406271  80.1432811 104.8403094  99.6592049
  80.7520837 106.7946608 100.3248674  81.6004515 107.4657603 100.1907092
  79.4970837 107.4466608  99.7658674  78.6481427 106.7763012  99.9000909
  79.3075815 108.3820198 100.2924538  79.6347102 107.6496547  98.7038162
  80.6290837 106.5616608 101.8198674  81.5562629 106.1315173 102.1985689
  80.4377945 107.5103115 102.3214365  79.8047506 105.8756137 102.0145809
  82.5010837 103.5416608  99.0478674  83.2700837 103.7106608  98.1028674
  81.8550837 102.3966608  99.2758674  81.3609423 102.2880212 100.1500076
  81.8750837 101.2646608  98.3428674  82.3670137 101.5765837  97.4215595
  82.6110837 100.0356608  98.9298674  82.0535908  99.6785493  99.7957620
  82.7270837  98.9096608  97.8978674  83.2848947  99.2659022  97.0318191
  83.2486960  98.0616806  98.3416589  81.7303229  98.5990099  97.5847171
  84.0210837 100.4296608  99.3928674  84.5556104 100.7828625  98.5110338
  83.9031876 101.2515476 100.0990558  84.8090837  99.3106608 100.0468674
  84.9277949  98.4885466  99.3410800  85.7911430  99.6809505 100.3410518
  84.2753705  98.9572300 100.9291013  80.4250837 100.9246608  97.9908674
  79.5690837 100.8846608  98.8748674  80.1600837 100.7036608  96.6998674
  80.9298960 100.7197689  96.0462399  78.8180837 100.4056608  96.1868674
  78.1131806 100.3352576  97.0152720  78.3490837 101.5126608  95.2378674
  79.1437204 101.8233499  94.5595429  77.5112263 101.1219767  94.6604066
  77.8560837 102.7586608  95.9228674  78.7340837 103.5896608  96.6148674
  79.7883252 103.3185440  96.6711744  78.2830837 104.7476608  97.2268674
  78.9804385 105.3837140  97.7720585  76.9470837 105.0966608  97.1458674
  76.5886434 106.0047479  97.6306335  76.0650837 104.2906608  96.4478674
  75.0127420 104.5663870  96.3796609  76.5190837 103.1336608  95.8358674
  75.8259430 102.5044063  95.2775712  78.8610837  99.0956608  95.3928674
  79.5270837  99.0506608  94.3568674  78.2010837  98.0226608  95.8458674
  78.0650837  96.7916608  95.0528674  79.0516689  96.4644640  94.7247025
  77.4409972  96.9920086  94.1819623  77.4250837  95.8256608  96.0048674
  78.1940945  95.2249949  96.4905855  76.7434207  95.1716308  95.4611012
  76.6860837  96.6626608  96.9898674  76.6506445  96.0970063  97.9209303
  75.6774123  96.9693288  96.7130349  77.5750837  97.8916608  97.1628674
  77.0430260  98.8132691  97.3987720  78.6330837  97.6316608  98.2248674
  79.7840837  97.3656608  97.8848674  78.2360837  97.7026608  99.4928674
  77.2917294  97.9998566  99.6927895  79.1570837  97.4896608 100.6258674
  80.1389766  97.2071521 100.2461643  79.3060837  98.7676608 101.4738674
  79.8375880  98.5029659 102.3879457  79.9077281  99.4676489 100.8940910
  77.9820837  99.4136608 101.8288674  76.9390837  98.7286608 101.8688674
  77.9840837 100.6326608 102.0838674  78.8090837  96.2976608 101.5258674
  79.5430837  96.0116608 102.4718674  77.7110837  95.6016608 101.2308674
  77.1247510  95.8929083 100.4617848  77.2870837  94.4546608 102.0288674
  78.1478363  94.0171957 102.5346623  76.2660837  94.8876608 103.0858674
  76.7484893  95.6470539 103.7012585  75.4260205  95.3326753 102.5526171
  75.7620837  93.7596608 103.9748674  75.2415310  93.0372263 103.3462069
  76.6241480  93.2813338 104.4397874  74.8180837  94.2636608 105.0558674
  75.3841913  94.8200648 105.8028853  74.0681204  94.9161792 104.6087946
  74.1360837  93.1496608 105.7178674  73.1746162  92.9938491 105.4506553
  74.6830837  92.3416608 106.6308674  75.9450837  92.4966608 107.0318674
  76.5080281  93.2391148 106.6420525  76.3324025  91.8709181 107.7236260
  73.9550837  91.3566608 107.1558674  72.9977076  91.2279794 106.8609571
  74.3640353  90.7433149 107.8462760  76.7070837  93.3616608 101.1328674
  75.8840837  93.6426608 100.2648674  77.1560837  92.1266608 101.3548674
  77.9285571  92.0013733 101.9933713  76.6090837  90.9436608 100.6858674
  75.6515598  91.1839649 100.2238056  77.5610837  90.4526608  99.6048674
  78.5216110  90.1993946 100.0535807  77.1410603  89.5692287  99.1240054
  77.7034171  91.2371818  98.8616533  76.3580837  89.8396608 101.7138674
  77.1460837  89.6516608 102.6458674  75.2540837  89.1206608 101.5438674
  74.6119912  89.3641660 100.8032449  74.9040837  88.0106608 102.4268674
  75.7575546  87.7764320 103.0631248  73.7040837  88.3636608 103.3238674
  73.3043645  87.4476794 103.7589570  74.1320837  89.3076608 104.4358674
  74.5315104  90.2241240 104.0015252  73.2718665  89.5472933 105.0609288
  74.9002034  88.8294075 105.0436228  72.6920837  89.0036608 102.5428674
  71.9450443  89.2226714 103.1046207  74.5940837  86.7696608 101.5968674
  73.9670837  86.8736608 100.5538674  75.0590837  85.6116608 102.0628674
  75.6081832  85.6200916 102.9105218  74.8350837  84.3306608 101.3948674
  74.3436421  84.4917547 100.4353712  76.1710837  83.6246608 101.1478674
  76.7724463  84.4010683 100.6749471  76.5859570  83.3912382 102.1284255
  76.1850837  82.3626608 100.2728674  75.4381046  81.6718378 100.6638746
  75.8790837  82.6676608  98.8168674  76.6259571  83.3581120  98.4250051
  75.9007740  81.7435759  98.2392019  74.8905921  83.1205043  98.7399430
  77.5360837  81.6746608 100.3828674  77.7187749  81.3954119 101.4205299
  77.5405742  80.7800272  99.7602023  78.3190380  82.3544995 100.0468602
  73.9300837  83.4646608 102.2718674  74.1680837  83.3276608 103.4748674
  72.8910837  82.8966608 101.6618674  72.7769224  83.0455561 100.6694478
  71.8980837  82.0826608 102.3588674  72.1478630  82.0213022 103.4180863
  70.5060837  82.7026608 102.2198674  70.3015939  82.7960319 101.1533005
  69.7944764  82.0080898 102.6662823  70.3700837  84.0536608 102.8778674
  70.7920837  85.2096608 102.2248674  71.2205596  85.1246429 101.2262284
  70.6740837  86.4556608 102.8258674  71.0077217  87.3508681 102.3010899
  70.1280837  86.5596608 104.0958674  70.0190837  87.8016608 104.6838674
  70.3493291  88.5105582 104.1270892  69.6990837  85.4266608 104.7668674
  69.2679836  85.5062014 105.7648285  69.8210837  84.1826608 104.1598674
  69.4867603  83.2862559 104.6821569  71.8800837  80.6766608 101.7868674
  72.2900837  80.4586608 100.6468674  71.4080837  79.7256608 102.5878674
  71.2945582  79.9184738 103.5727707  71.1440837  78.3736608 102.1138674
  71.1049784  78.3258998 101.0256170  72.2040837  77.3586608 102.6168674
  73.1903670  77.8016555 102.4786638  72.0080837  77.0026608 104.0888674
  71.0221291  76.5591570 104.2277874  72.7731991  76.2895504 104.3957430
  72.0888203  77.9048075 104.6952621  72.1860837  76.1046608 101.7618674
  72.4092780  76.3662764 100.7275350  72.9356838  75.4034454 102.1286049
  71.2003420  75.6424551 101.8145919  69.7260837  77.9586608 102.5108674
  69.2240837  78.3536608 103.5628674  69.0880837  77.1766608 101.6408674
  69.5371677  76.9765842 100.7586020  67.7400837  76.6466608 101.8708674
  67.5678975  76.4738674 102.9332203  66.6560837  77.6176608 101.3458674
  66.7662853  78.5686336 101.8670263  66.7800837  77.8456608  99.8368674
  66.6695175  76.8951350  99.3149713  66.0009972  78.5331643  99.5075313
  67.7581371  78.2712211  99.6123442  65.3520837  77.1046608 101.6448674
  64.6858984  77.7126432 101.3159985  67.6370837  75.2736608 101.2018674
  68.5510837  74.8706608 100.4808674  66.5460837  74.5536608 101.4538674
  65.8121976  74.9460140 102.0262043  66.3900837  73.1706608 100.9688674
  67.2446128  72.9041553 100.3468914  66.3270837  72.2116608 102.1428674
  65.4709827  72.4601417 102.7701220  66.2226012  71.1913111 101.7739904
  67.2423413  72.2935812 102.7291198  65.1430837  73.0416608 100.1058674
  64.1510837  73.7256608 100.3568674  65.2010837  72.1716608  99.0918674
  66.0553061  71.6601525  98.9222715  64.0780837  71.9786608  98.1648674
  63.1474167  72.3179317  98.6196787  64.2980837  72.7226608  96.8218674
  63.4425298  72.5397064  96.1717478  64.4450837  74.2176608  97.0568674
  65.3007738  74.4014470  97.7065734  64.5986373  74.7225336  96.1031245
  63.5413725  74.6022615  97.5296119  65.5280837  72.1866608  96.0698674
  66.4112269  72.4966184  96.6285133  65.4613054  71.0987093  96.0711673
  65.6330837  72.6826608  94.6468674  65.7003718  73.7705798  94.6447827
  66.5242993  72.2631334  94.1801440  64.7504486  72.3726724  94.0874371
  63.7630837  70.5186608  97.8398674  64.6080837  69.6286608  97.9768674
  62.5250837  70.3136608  97.3978674  61.8509746  71.0532441  97.5345886
  62.0880837  69.0966608  96.7308674  62.6001410  68.2306011  97.1501969
  60.5760837  68.9176608  96.9318674  60.4099164  68.8922827  98.0088278
  60.1028887  69.8055675  96.5125726  59.9710837  67.6706608  96.2948674
  60.6399211  66.8395970  96.5186766  59.0091842  67.5028476  96.7793126
  59.7700837  67.7686608  94.7878674  59.4640837  68.8646608  94.2678674
  59.9240837  66.7306608  94.1128674  62.4300837  69.2866608  95.2498674
  62.1980837  70.3626608  94.6958674  62.9680837  68.2466608  94.6118674
  63.1063744  67.3826062  95.1162330  63.4430837  68.3266608  93.2238674
  62.7274664  68.8685175  92.6054967  64.7910837  69.0816608  93.1958674
  64.7989369  69.8074471  94.0090536  65.5686873  68.3371443  93.3665363
  65.0530837  69.7956608  91.8758674  64.0920837  70.0836608  91.1278674
  66.2330837  70.0906608  91.5988674  63.5770837  66.9476608  92.5448674
  64.5070837  66.7086608  91.7788674  62.6240837  66.0586608  92.8108674
  61.8658672  66.3299904  93.4204469  62.6570837  64.6716608  92.3108674
  63.5421318  64.1569733  92.6848806  61.4060837  63.9166608  92.7978674
  61.5369994  63.7977418  93.8734224  60.5677367  64.5864118  92.6062745
  61.1240837  62.5546608  92.1658674  60.3375584  62.0870750  92.7581868
  60.7554396  62.7432689  91.1575864  62.3300837  61.6256608  92.0998674
  61.9977002  60.6549002  91.7321119  63.0537099  62.0491362  91.4033524
  62.9820837  61.4376608  93.3968674  62.4038810  61.6072331  94.2074389
  64.2490837  61.0536608  93.5858674  65.0670837  60.8346608  92.5648674
  64.7340337  60.9582626  91.6194044  66.0192043  60.5453155  92.7376258
  64.7150837  60.8996608  94.8168674  64.1110775  61.0730416  95.6075732
  65.6720943  60.6096237  94.9586701  62.7600837  64.5956608  90.7848674
  63.6900837  63.9846608  90.2488674  61.8030837  65.2266608  90.1108674
  61.1194473  65.7617908  90.6269840  61.6500837  65.1216608  88.6608674
  61.5285269  64.0767061  88.3755729  60.4150837  65.9026608  88.1978674
  59.5994424  65.6220449  88.8642630  60.6452097  66.9597142  88.3312095
  59.9990837  65.6516608  86.7518674  60.7644349  66.0772063  86.1028300
  59.9387448  64.5762145  86.5849048  58.6520837  66.2776608  86.3938674
  57.8570837  66.6356608  87.2668674  58.3890837  66.4006608  85.0968674
  57.5140553  66.8073616  84.7985033  59.0654645  66.0868657  84.4155869
  62.8920837  65.6006608  87.9128674  63.3870837  64.9036608  87.0288674
  63.4030837  66.7716608  88.2828674  62.9536375  67.3280329  88.9959926
  64.5610837  67.3376608  87.5878674  64.4613691  67.1586459  86.5173022
  64.6750837  68.8446608  87.8228674  63.6662950  69.2571964  87.8067777
  65.1105005  68.9893372  88.8115944  65.5280837  69.5536608  86.7858674
  65.0670837  69.7346608  85.4778674  64.0796525  69.3577752  85.2113409
  65.8450837  70.3826608  84.5238674  65.4737272  70.5183388  83.5080979
  67.1030837  70.8606608  84.8738674  67.8870837  71.5026608  83.9438674
  67.4695105  71.5675245  83.0818785  67.5820837  70.6936608  86.1628674
  68.5690136  71.0666532  86.4366310  66.7970837  70.0466608  87.1088674
  67.1667519  69.9148156  88.1257560  65.8710837  66.6346608  87.9498674
  66.7450837  66.4986608  87.0898674  66.0090837  66.1856608  89.1988674
  65.3358553  66.4213464  89.9139304  67.1860837  65.3986608  89.5838674
  68.0824915  65.9759209  89.3573212  67.1960837  65.0436608  91.0738674
  66.9628886  65.9495898  91.6333421  66.4164544  64.3012056  91.2442741
  68.5370837  64.4886608  91.5418674  68.8388938  63.7099447  90.8414298
  69.2625627  65.3017217  91.5151414  68.4760837  63.9106608  92.9458674
  68.3002574  64.7244392  93.6493934  67.6481248  63.2034264  92.9948884
  69.7720837  63.1996608  93.3068674  70.0888534  62.6050992  92.4499812
  70.5288416  63.9531071  93.5253518  69.6000837  62.3136608  94.4878674
  68.8992035  61.6151615  94.2854681  70.4772072  61.8593527  94.6984822
  69.3069721  62.8644642  95.2820968  67.2830837  64.1246608  88.7488674
  68.3720837  63.7666608  88.3098674  66.1530837  63.4556608  88.5298674
  65.3084787  63.7270231  89.0126760  66.1150837  62.2576608  87.6788674
  66.8790352  61.5538466  88.0092049  64.7410837  61.5636608  87.7528674
  63.9725866  62.3348471  87.7001127  64.6566088  60.9074213  86.8866608
  64.5550837  60.7456608  89.0318674  65.4780837  60.7016608  89.8788674
  63.4740837  60.1406608  89.1998674  66.4870837  62.5396608  86.2218674
  67.1340837  61.7166608  85.5798674  66.0820837  63.7016608  85.7178674
  65.4869185  64.2950896  86.2779744  66.4110837  64.1336608  84.3578674
  66.2122692  63.3307409  83.6480141  65.5490837  65.3446608  83.9818674
  64.5222925  65.1219840  84.2720640  65.9293631  66.1633287  84.5928260
  65.5850837  65.7466608  82.5188674  65.1430837  64.8706608  81.5228674
  64.7812594  63.8845547  81.8140330  65.1590837  65.2366608  80.1838674
  64.8222855  64.5369450  79.4189709  65.6070837  66.5026608  79.8198674
  65.6170837  66.8586608  78.4878674  65.2970077  66.1613956  77.9108299
  66.0410837  67.4016608  80.7858674  66.3879495  68.3957407  80.5037511
  66.0300837  67.0216608  82.1278674  66.3703834  67.7180121  82.8942818
  67.9000837  64.4706608  84.1958674  68.4680837  64.2396608  83.1278674
  68.5190837  65.0006608  85.2538674  67.9791586  65.1752589  86.0893886
  69.9240837  65.4356608  85.2278674  70.2539024  65.5681746  84.1974505
  70.0780837  66.7776608  85.9708674  69.4532674  66.7218716  86.8622659
  71.1241935  66.8604387  86.2656591  69.6830837  68.0016608  85.1488674
  68.6249917  67.9306266  84.8968828  69.8545606  68.8974708  85.7457109
  70.5060837  68.0796608  83.8678674  71.4376894  67.5455945  84.0549050
  69.9400422  67.5616357  83.0936927  70.8150837  69.4846608  83.4098674
  69.8955101  69.9855596  83.1072368  71.2826882  70.0434043  84.2205775
  71.7480837  69.4176608  82.2508674  71.3148120  68.9003247  81.4993764
  71.9616852  70.3532930  81.9361187  72.6004164  68.9539316  82.5311945
  70.9440837  64.4236608  85.7788674  72.0730837  64.3706608  85.2878674
  70.5580837  63.6426608  86.7878674  69.6074854  63.7083442  87.1227523
  71.4810837  62.7366608  87.4848674  72.5079926  62.8885288  87.1524617
  71.4030837  62.9216608  89.0258674  70.3938829  62.6717505  89.3532189
  72.4090837  62.0266608  89.7488674  73.4186197  62.2763155  89.4223551
  72.3268752  62.1819445  90.8246134  72.2002554  60.9825024  89.5160085
  71.6230837  64.3946608  89.4068674  70.7622109  64.9471262  89.0303297
  71.6338239  64.4378530  90.4959581  72.9000837  65.0146608  88.8628674
  72.8898586  64.9722497  87.7737409  72.9658360  66.0539289  89.1848886
  73.7614720  64.4629747  89.2393678  71.2020837  61.2876608  87.1088674
  72.0390837  60.6316608  86.4928674  70.0140837  60.8006608  87.4578674
  69.3633997  61.3826477  87.9658052  69.6760837  59.3876608  87.2618674
  70.5316284  58.7624498  87.5173154  68.4950837  58.9936608  88.1598674
  67.6695616  59.6716469  87.9431945  68.1687980  57.9647116  88.0085357
  68.7960837  59.1376608  89.6218674  69.4310837  58.1526608  90.3518674
  69.7214441  57.2595792  89.9801204  69.5930837  58.5656608  91.5968674
  70.0713191  57.9235187  92.3364913  69.0960837  59.7856608  91.6998674
  68.6010837  60.1716608  90.4758674  68.1579988  61.1600902  90.3542769
  69.4400837  59.0016608  85.7928674  69.4510837  57.8246608  85.4578674
  69.2420837  59.9976608  84.9338674  69.0541451  60.9159709  85.3100122
  69.2090837  59.8226608  83.4798674  68.3712978  59.1886381  83.1896449
  69.0380837  61.1956608  82.8158674  68.0670504  61.6118645  83.0841360
  69.8265618  61.8710893  83.1478293  69.0950837  61.1726608  81.3348674
  68.0540837  60.9946608  80.4798674  67.0676608  60.8594279  80.9234682
  68.5010837  61.0266608  79.1808674  67.9229614  60.9267164  78.3587450
  69.8560837  61.2256608  79.1808674  70.7550837  61.3316608  78.1148674
  70.3700486  61.2468389  77.0986726  72.0770837  61.5376608  78.4198674
  72.8077408  61.6237262  77.6156081  72.5130837  61.6406608  79.7478674
  73.5653758  61.8060062  79.9790420  71.6210837  61.5356608  80.8078674
  72.0121863  61.6082201  81.8226948  70.2640837  61.3286608  80.5258674
  70.4490837  59.1056608  82.9078674  70.3360837  58.3406608  81.9468674
  71.6150837  59.3596608  83.4958674  71.6531039  60.0549437  84.2274653
  72.8740837  58.7306608  83.0648674  73.0034003  58.8609215  81.9904333
  74.0680837  59.3726608  83.7838674  73.9056450  59.3595749  84.8616158
  74.9785707  58.8219971  83.5474716  74.3200837  60.7996608  83.4058674
  73.9420837  61.9136608  84.0988674  73.3970092  61.7491687  85.0283489
  74.3500837  63.0446608  83.4428674  74.1961728  63.9934889  83.7529256
  75.0080837  62.6786608  82.2988674  75.6070837  63.4646608  81.3078674
  75.5729581  64.5489831  81.4135993  76.2050837  62.8136608  80.2558674
  76.6759202  63.3950045  79.4631175  76.2250837  61.4126608  80.1758674
  76.7032828  60.9041846  79.3386834  75.6350837  60.6316608  81.1628674
  75.6830875  59.5477690  81.0581062  75.0100837  61.2676608  82.2458674
  72.9270837  57.2016608  83.2538674  73.7230837  56.5346608  82.5968674
  72.0920837  56.6566608  84.1408674  71.5159717  57.2627519  84.7073017
  72.0300837  55.1986608  84.3868674  73.0336495  54.8133902  84.5672044
  71.1580837  54.8916608  85.6148674  70.1849338  55.3493129  85.4370106
  71.0462072  53.8085040  85.6633972  71.7280837  55.4046608  86.9378674
  72.5099227  54.7093004  87.2433221  72.1684872  56.3821172  86.7410862
  70.6910837  55.5286608  88.0558674  69.5860837  54.9376608  87.9558674
  70.9870837  56.2286608  89.0508674  71.5230837  54.3696608  83.1968674
  71.8450837  53.1826608  83.0978674  70.7290837  54.9846608  82.3138674
  70.4642218  55.9451046  82.4796840  70.1590837  54.2966608  81.1488674
  70.8041837  53.4699428  80.8514070  68.7690837  53.7356608  81.4948674
  68.8354910  53.1998792  82.4417715  68.0776776  54.5718683  81.5988603
  68.2260837  52.7826608  80.4318674  68.7630837  52.6716608  79.3278674
  67.1510837  52.0846608  80.7698674  66.7448350  51.4373446  80.1095315
  66.7431930  52.2033531  81.6861851  70.0960837  55.2326608  79.9338674
  69.0600837  55.8416608  79.6538674  71.2140837  55.3126608  79.2158674
  72.0220865  54.7987990  79.5370793  71.3510837  56.1436608  78.0188674
  70.5260353  56.8478126  77.9113286  72.6820837  56.9406608  78.0518674
  73.5119916  56.2340320  78.0571609  72.8030837  57.8556608  76.8418674
  71.9737172  58.5629226  76.8361421  73.7451821  58.4016500  76.8913338
  72.7771390  57.2587039  75.9302365  72.7870837  57.7426608  79.3438674
  72.7578191  57.0643366  80.1965819  73.7257716  58.2966299  79.3529795
  71.9528476  58.4413270  79.4072435  71.2740837  55.2306608  76.7878674
  72.2820837  54.6676608  76.3648674  70.0620837  55.0806608  76.2448674
  69.2970376  55.5637279  76.6936992  69.7550837  54.1766608  75.1228674
  68.6763359  54.1431292  74.9702966  70.4210837  54.6536608  73.8208674
  71.5007599  54.6312958  73.9688489  70.1464643  53.9398796  73.0442075
  70.0010837  56.0366608  73.4018674  68.8190837  56.2426608  72.6938674
  68.2011274  55.3814196  72.4399125  68.4240837  57.5156608  72.3128674
  67.4992099  57.6630559  71.7552072  69.2120837  58.5996608  72.6408674
  68.8190837  59.8646608  72.2658674  67.9880965  59.8722413  71.7852403
  70.3890837  58.4186608  73.3458674  71.0110441  59.2755365  73.6047687
  70.7750837  57.1456608  73.7218674  71.7004160  56.9989654  74.2789498
  70.1160837  52.7176608  75.4288674  70.6240837  51.9966608  74.5638674
  69.8400837  52.2916608  76.6638674  69.3934711  52.9250115  77.3115582
  70.1580837  50.9386608  77.1238674  69.4092455  50.6820424  77.8731921
  70.0463806  50.2833449  76.2600486  71.5450837  50.7396608  77.7208674
  71.8530837  49.6406608  78.1878674  72.3760837  51.7836608  77.7128674
  72.0480071  52.6641428  77.3424401  73.7550837  51.7006608  78.1788674
  74.0221306  50.6587294  78.3554010  74.7120837  52.2806608  77.1348674
  74.4248324  53.3051205  76.8980800  75.7352133  52.2683517  77.5105726
  74.7220837  51.5276608  75.8388674  75.1520837  50.2056608  75.7948674
  75.4851737  49.7266167  76.7155561  75.1610837  49.4986608  74.6038674
  75.4962483  48.4616145  74.5865350  74.7430837  50.1116608  73.4328674
  74.7475612  49.5590292  72.4933579  74.3190837  51.4296608  73.4588674
  73.9928925  51.9140012  72.5384796  74.3090837  52.1356608  74.6578674
  73.9758672  53.1733104  74.6765736  73.9390837  52.4376608  79.5018674
  73.4130837  53.5356608  79.6988674  74.6980837  51.8136608  80.3958674
  75.0726471  50.9072010  80.1547610  75.0030837  52.3576608  81.7058674
  74.1259542  52.8357682  82.1419366  75.4360837  51.2026608  82.6178674
  74.6651626  50.4334706  82.5717557  76.3675989  50.8074772  82.2126397
  75.6490837  51.6186608  84.0608674  75.3510837  52.7746608  84.4368674
  76.1180837  50.7556608  84.8308674  76.1180837  53.3956608  81.5868674
  77.2210837  53.0616608  81.1678674  75.8280837  54.6476608  81.9388674
  74.8678140  54.9024335  82.1207254  76.8510837  55.6986608  82.0028674
  77.8279811  55.2717652  81.7758632  76.5560837  56.8136608  80.9908674
  75.5975158  57.2494213  81.2725757  77.3419315  57.5601173  81.1063926
  76.4990837  56.3586608  79.5418674  77.3477654  55.7041973  79.3430768
  75.5716152  55.8094133  79.3799066  76.5590837  57.7656608  78.4158674
  76.6950837  56.9216608  76.8418674  75.8255242  56.2807306  76.6963552
  76.7429222  57.6562802  76.0380350  77.5996862  56.3136325  76.8320093
  76.9550837  56.2666608  83.4198674  77.1160837  57.4776608  83.6018674
  76.8930837  55.3766608  84.4138674  76.7489550  54.4040983  84.1826782
  76.9470837  55.7556608  85.8358674  76.1757525  56.4965945  86.0460210
  76.7140837  54.5356608  86.7378674  77.3478136  53.7200001  86.3897534
  76.9909635  54.8000675  87.7584195  75.3580837  54.1256608  86.7078674
  75.2416509  53.3630861  87.2792894  78.2460837  56.4426608  86.2618674
  78.2370837  57.2156608  87.2158674  79.3540837  56.1666608  85.5758674
  79.3534869  55.4483844  84.8658125  80.6230837  56.8286608  85.8938674
  80.8138085  56.7589493  86.9647846  81.7820837  56.1706608  85.1478674
  82.7266750  56.6491983  85.4064178  81.8371825  55.1079549  85.3839189
  81.6420837  56.2776608  83.3528674  82.7723264  55.6292552  83.0863716
  80.5960837  58.3376608  85.6078674  81.3510837  59.0956608  86.2258674
  79.7400837  58.7676608  84.6758674  79.3085913  58.1022369  84.0504678
  79.4860837  60.1996608  84.4538674  80.4111700  60.7558438  84.6054424
  78.9380837  60.4866608  83.0328674  78.1272872  59.7884831  82.8248833
  78.4180837  61.9186608  82.9198674  79.2284849  62.6174680  83.1272779
  78.0402462  62.0900801  81.9119215  77.6139721  62.0716248  83.6396629
  80.0490837  60.2546608  82.0018674  80.7645628  61.0683011  82.1209468
  80.5273750  59.3101019  82.2609920  79.5780837  60.2036608  80.5638674
  79.1000643  61.1481129  80.3038531  80.4317388  60.0361858  79.9071144
  78.8628743  59.3899146  80.4438989  78.5530837  60.7586608  85.5348674
  78.7590837  61.8756608  86.0008674  77.5360837  59.9906608  85.9248674
  77.3530528  59.1226344  85.4420328  76.6330837  60.3846608  87.0188674
  76.0645148  61.2677194  86.7272581  75.6520837  59.2556608  87.3398674
  75.1857265  58.9601189  86.4000455  76.2381544  58.4241626  87.7313160
  74.5760837  59.6316608  88.3418674  75.0610993  60.0124801  89.2406651
  73.9570474  60.4147762  87.9041159  73.7050837  58.4406608  88.7028674
  72.7900827  58.8109034  89.1652444  73.4574365  57.9049409  87.7864753
  74.4130837  57.4996608  89.6638674  75.2280917  57.0100277  89.1308365
  74.8193318  58.0874669  90.4869990  73.4830837  56.4696608  90.2018674
  73.1068648  55.9245953  89.4393304  73.9832947  55.8623322  90.8351454
  72.7280338  56.9231415  90.6961891  77.3750837  60.7636608  88.3028674
  77.0410837  61.7626608  88.9418674  78.3710837  59.9566608  88.6678674
  78.5877368  59.1533310  88.0953099  79.1070837  60.1336608  89.9258674
  78.4017800  60.2778899  90.7443073  79.9730837  58.9006608  90.2348674
  80.6547788  58.7586949  89.3962753  80.5469891  59.1107515  91.1374164
  79.1460837  57.6286608  90.4408674  77.9700837  57.7256608  90.8568674
  79.6760837  56.5256608  90.1898674  79.9670837  61.3956608  89.9628674
  80.3420837  61.8406608  91.0468674  80.2810837  61.9636608  88.7968674
  80.1374862  61.4435816  87.9430543  80.9330837  63.2776608  88.7108674
  81.3869296  63.5495019  89.6638761  82.0280837  63.2936608  87.6198674
  81.5485982  63.2566427  86.6416943  82.8830837  64.5586608  87.7208674
  83.3632919  64.5961479  88.6986689  83.6458428  64.5454050  86.9423281
  82.2500279  65.4368173  87.5936547  82.9130837  62.0556608  87.7468674
  82.3040554  61.1593880  87.6290467  83.6811664  62.0766098  86.9737505
  83.3866193  62.0460693  88.7285868  79.9250837  64.4216608  88.4928674
  80.1150837  65.5136608  89.0238674  78.8660837  64.1766608  87.7268674
  78.8049663  63.2987497  87.2312504  77.8100837  65.1786608  87.5048674
  78.3011602  66.0598696  87.0920551  76.8010837  64.6626608  86.4878674
  76.2945950  63.7855332  86.8906285  76.0671385  65.4403649  86.2766781
  77.3182153  64.3921886  85.5672594  77.0830837  65.6086608  88.7908674
  76.7080837  66.7766608  88.9358674  76.8880837  64.6646608  89.7098674
  77.1409220  63.7117914  89.4902950  76.2190837  64.9296608  90.9878674
  75.3431513  65.5692888  90.8796198  75.8090837  63.6046608  91.6888674
  75.3542735  62.9538112  90.9421125  77.0050837  62.8906608  92.3278674
  77.4601651  63.5407572  93.0751132  76.6672245  61.9706218  92.8048162
  77.7397399  62.6520423  91.5588156  74.7000837  63.8446608  92.7148674
  75.1274933  64.4174328  93.5378826  73.9207333  64.4325265  92.2299691
  74.1030837  62.5596608  93.2508674  74.8817977  61.9714336  93.7363498
  73.3222518  62.7951248  93.9740254  73.6750396  61.9865260  92.4284353
  77.0550837  65.8086608  91.9288674  76.4950837  66.4886608  92.7868674
  78.3810837  65.8026608  91.7438674  78.7643085  65.1668647  91.0590306
  79.3110837  66.6576608  92.4998674  78.9370583  66.7807270  93.5162624
  80.7250837  66.0486608  92.5658674  81.1637084  66.2295978  91.5845573
  81.2574727  66.6348285  93.3149131  80.8370837  64.5666608  92.9068674
  80.3120972  64.0140720  92.1276783  81.8956976  64.3079235  92.8846446
  80.2560837  64.2046608  94.2628674  80.5857635  64.9386694  94.9981507
  79.1680751  64.2189568  94.1985840  80.7210837  62.8176608  94.6868674
  80.6218168  62.1522385  93.8292779  81.7706379  62.8869455  94.9727604
  79.9320837  62.2786608  95.8258674  78.9595777  62.2139759  95.5610135
  80.2764240  61.3609744  96.0695504  80.0242769  62.8948869  96.6207667
  79.4500837  68.0616608  91.9018674  80.2700837  68.8376608  92.3778674
  78.6970837  68.3906608  90.8518674  78.1125619  67.6983094  90.4056800
  78.7650837  69.7236608  90.2608674  79.5313438  70.3087565  90.7694023
  79.1140837  69.6486608  88.7738674  78.3828853  69.0088852  88.2797668
  79.0584550  70.6535811  88.3553693  80.5190837  69.0816608  88.5538674
  81.1566904  69.4583146  89.3536739  80.4214494  68.0000130  88.6466291
  81.1410837  69.4206608  87.2078674  80.9380837  70.5436608  86.6908674
  81.8640837  68.5546608  86.6688674  77.4510837  70.4536608  90.5048674
  76.3870837  69.9286608  90.1758674  77.5160837  71.6486608  91.1218674
  78.6600837  72.2796608  91.8028674  79.2459972  72.8515437  91.0833151
  79.2884519  71.5114933  92.2536125  78.0030837  73.1436608  92.8198674
  78.6480362  73.9901439  93.0556675  77.8147904  72.5675657  93.7258263
  76.7320837  73.5876608  92.2018674  76.9256044  74.4590261  91.5762706
  75.9552796  73.8275797  92.9278934  76.2860837  72.4076608  91.3288674
  75.5688105  71.7571215  91.8292833  75.6880837  72.9116608  90.0238674
  76.4270837  73.2366608  89.0888674  74.3590837  72.9596608  89.9808674
  73.8366008  72.6201930  90.7757715  73.6180837  73.4686608  88.8328674
  74.2552186  73.4480879  87.9487095  72.3760837  72.6156608  88.5608674
  72.0048032  72.3912935  89.5608221  71.6497964  73.2351509  88.0347128
  72.5860837  71.3096608  87.7898674  73.0926388  71.5488653  86.8548359
  73.4160837  70.2966608  88.5728674  72.9099052  70.0565969  89.5078816
  73.5351534  69.3889255  87.9813103  74.3969597  70.7197793  88.7895549
  71.2270837  70.7276608  87.4248674  70.6819713  71.4382091  86.8035198
  71.3657207  69.7967155  86.8751203  70.6594022  70.5308698  88.3343233
  73.1960837  74.9026608  89.1118674  72.6550837  75.1896608  90.1758674
  73.4520837  75.7966608  88.1628674  74.0464083  75.5484444  87.3848788
  72.9300837  77.1536608  88.2268674  72.6426063  77.4093177  89.2467181
  73.9540837  78.1976608  87.7258674  74.2311097  77.9554071  86.6998708
  73.3610837  79.6016608  87.7738674  73.0842217  79.8448225  88.7996943
  74.0986210  80.3205409  87.4170053  72.4759115  79.6446604  87.1392630
  75.2260837  78.1366608  88.5598674  75.6657975  77.1424404  88.4806235
  75.9367559  78.8778773  88.1942957  74.9877998  78.3459210  89.6027153
  71.6660837  77.1796608  87.3798674  71.7480837  77.0796608  86.1618674
  70.5070837  77.2806608  88.0268674  70.4987212  77.2322317  89.0356707
  69.2190837  77.3956608  87.3228674  69.3310270  78.0491073  86.4576648
  68.7360837  76.0146608  86.8378674  69.6147819  75.3786593  86.7306718
  68.0799448  75.6008801  87.6036136  67.9820837  76.0786608  85.4958674
  67.2340837  77.0576608  85.2418674  68.1380837  75.1336608  84.6888674
  68.1670837  78.0466608  88.2198674  68.4150837  78.2776608  89.4048674
  67.0010837  78.3516608  87.6538674  66.8541355  78.1606646  86.6730381
  65.9250837  79.0016608  88.4028674  66.3245237  79.7042838  89.1342140
  64.9320837  79.7556608  87.4828674  64.4843591  79.0444293  86.7887552
  63.8310837  80.4236608  88.3088674  64.2780329  81.1354189  89.0029407
  63.1445022  80.9476166  87.6439038  63.2851933  79.6645385  88.8690805
  65.6600837  80.7896608  86.6278674  66.4029598  80.2897972  86.0062777
  64.9418277  81.3056687  85.9907303  66.1560412  81.5129022  87.2752072
  65.1720837  77.9526608  89.2168674  64.6650837  76.9806608  88.6598674
  65.1160837  78.1576608  90.5288674  65.6542442  78.9153063  90.9244125
  64.3370837  77.3176608  91.4318674  64.1856239  76.3123949  91.0386758
  65.0250837  77.2096608  92.8138674  65.2064097  78.2166335  93.1896681
  64.1590837  76.4436608  93.8098674  63.9777009  75.4363693  93.4349473
  64.6723912  76.3865669  94.7697404  63.2077113  76.9601307  93.9373469
  66.3950837  76.5556608  92.6688674  67.0172560  77.1574347  92.0063933
  66.8698910  76.4848887  93.6474628  66.2787078  75.5565453  92.2489557
  62.9410837  77.9206608  91.5758674  62.8000837  79.0996608  91.8878674
  61.9180837  77.1056608  91.3398674  62.1060731  76.1739287  90.9983493
  60.5260837  77.4986608  91.5508674  60.3315508  78.4679043  91.0917126
  59.6000837  76.4556608  90.9068674  59.9664720  76.3099858  89.8906796
  59.6900053  75.5221060  91.4622858  58.1330837  76.8826608  90.8628674
  57.6740837  77.6876608  91.7008674  57.4120837  76.3746608  89.9788674
  60.3050837  77.5636608  93.0688674  60.5950837  76.5886608  93.7598674
  59.8040837  78.7046608  93.5988674  59.4830837  79.9806608  92.9348674
  58.9697814  79.7846307  91.9934890  60.4022071  80.5328152  92.7388146
  58.6070837  80.6676608  93.9348674  57.5714369  80.3563642  93.7983788
  58.6801508  81.7483690  93.8130795  59.1300837  80.2466608  95.2608674
  58.3673009  80.2763245  96.0389301  59.9671711  80.8825584  95.5489967
  59.6140837  78.8026608  95.0588674  60.5977661  78.6544657  95.5044070
  58.6210837  77.8096608  95.6728674  58.7010837  77.5486608  96.8728674
  57.7130837  77.2556608  94.8698674  57.5708234  77.6340945  93.9443139
  56.8450837  76.1516608  95.3138674  56.3066932  76.4470899  96.2143986
  55.8250837  75.7946608  94.2288674  56.3658942  75.6861521  93.2887349
  55.3735573  74.8403279  94.4999258  54.7390837  76.8396608  94.0688674
  54.1597901  76.8780116  94.9913905  55.2137347  77.8059103  93.8980739
  53.8190837  76.5166608  92.9078674  54.4050358  76.4816993  91.9894248
  53.3569581  75.5447064  93.0806218  52.7360837  77.5766608  92.7778674
  52.0307643  77.4456961  93.5985216  53.2069805  78.5564996  92.8570583
  52.0100837  77.4776608  91.4778674  51.5733081  76.5699490  91.4044771
  51.3022007  78.1966170  91.4320034  52.6633989  77.5994141  90.7173054
  57.5970837  74.8796608  95.7308674  57.0290837  74.0356608  96.4228674
  58.8520837  74.7426608  95.2898674  59.1943097  75.4012984  94.6049022
  59.7240837  73.6316608  95.6818674  59.1313341  72.7319444  95.8469657
  60.7470837  73.3486608  94.5708674  61.2693693  74.2835065  94.3674453
  61.4533259  72.6160790  94.9615667  60.1280837  72.8196608  93.2778674
  59.6677093  71.8545199  93.4891952  59.3636326  73.5206867  92.9427866
  61.1470837  72.6386608  92.1588674  60.7740837  73.0446608  90.9478674
  62.2550837  72.1346608  92.3778674  62.9147968  72.0243982  91.6210832
  62.4947269  71.8358321  93.3124122  60.4460837  73.8386608  97.0208674
  61.0630837  72.9026608  97.5268674  60.3790837  75.0416608  97.5918674
  59.9471177  75.8093650  97.0977673  60.9790837  75.3086608  98.9048674
  62.0181513  74.9793951  98.9001906  60.9400837  76.8066608  99.2468674
  59.8960851  77.0746600  99.0845639  61.1906795  76.9442425 100.2987101
  61.8390837  77.7056608  98.3848674  61.7510046  77.3940608  97.3440752
  61.4320837  79.1666608  98.5128674  61.5203519  79.4791364  99.5533800
  62.0842288  79.7817087  97.8927678  60.3997807  79.2869238  98.1842528
  63.3160837  77.5286608  98.7298674  63.6073524  76.4918841  98.5614748
  63.9180930  78.1818310  98.0981597  63.4785796  77.7857453  99.7765773
  60.2850837  74.5046608 100.0038674  59.0650837  74.5776608 100.1548674
  61.0760837  73.7286608 100.7418674  62.0512636  73.6654776 100.4866586
  60.5970837  72.9136608 101.8588674  59.5106619  72.8280996 101.8804542
  61.2020837  71.4956608 101.7748674  62.2882975  71.5838398 101.7963947
  60.7400837  70.6146608 102.9338674  59.6539311  70.5256293 102.9127274
  61.1871427  69.6250631 102.8393414  61.0490051  71.0636790 103.8778228
  60.8390837  70.8666608 100.4388674  61.2357101  71.4787066  99.6288122
  61.2663574  69.8656294 100.3799355  59.7546092  70.8041341 100.3488321
  60.9170837  73.5486608 103.2198674  60.2040837  73.3036608 104.1998674
  61.9810837  74.3476608 103.2848674  62.5090454  74.5277826 102.4428983
  62.4290837  74.9686608 104.5298674  61.7352449  74.7449388 105.3401978
  63.8450837  74.4746608 104.9378674  64.0881669  74.8930879 105.9145606
  63.9090837  72.9566608 105.0068674  63.6665544  72.5375000 104.0303515
  64.9138495  72.6475692 105.2949771  63.1927774  72.5954540 105.7447939
  64.8230837  74.9486608 104.0018674  65.6930302  74.6380190 104.2632008
  62.4810837  76.4896608 104.4058674  62.2670837  77.0486608 103.3338674
  62.7820837  77.1416608 105.5248674  62.6757292  76.6661111 106.4095372
  63.1710837  78.5516608 105.5378674  62.5423347  79.1142280 104.8477283
  63.0050837  79.1456608 106.9518674  63.2057025  80.2151219 106.8878036
  61.9788130  78.9882717 107.2836763  63.9490837  78.5336608 107.9808674
  64.6770837  77.5736608 107.7088674  63.9260837  79.0836608 109.1808674
  64.5275366  78.7253536 109.9088579  63.3071425  79.8601807 109.3653380
  64.6100837  78.7046608 105.0058674  65.2010837  77.7386608 104.5088674
  65.1530837  79.9156608 105.0908674  64.5980326  80.6741993 105.4605116
  66.5150837  80.2046608 104.6518674  66.9349678  79.3641387 104.0993105
  66.5210837  81.4276608 103.7528674  66.1118539  82.2799636 104.2952794
  67.5435072  81.6493020 103.4468843  65.9122044  81.2332101 102.8699437
  67.3990837  80.4456608 105.8628674  66.9370837  80.9826608 106.8698674
  68.6660837  80.0486608 105.7548674  68.9553735  79.5396330 104.9318841
  69.6530837  80.2846608 106.8058674  69.2088267  80.8974842 107.5902030
  70.1270837  78.9706608 107.4228674  69.2830984  78.3657940 107.7544156
  70.7274671  78.3988783 106.7152626  71.1710837  79.2186608 108.8818674
  71.3767930  77.9276745 109.1266864  70.8510837  81.0516608 106.2558674
  71.4520837  80.6446608 105.2558674  71.1840837  82.1546608 106.9268674
  70.5767201  82.4633644 107.6724617  72.3730837  82.9496608 106.6278674
  72.3805121  83.2396281 105.5771710  72.3660837  84.2216608 107.4878674
  71.4436143  84.7007339 107.1597847  72.2490834  83.8737539 108.5142064
  73.5190837  85.2316608 107.4188674  74.4349046  84.7204811 107.7156306
  73.6930837  85.8146608 106.0218674  72.7777656  86.3264329 105.7245782
  74.5209040  86.5237515 106.0240348  73.9052282  85.0114374 105.3162277
  73.2500837  86.3336608 108.4348674  73.1913227  85.9012363 109.4336946
  74.0588735  87.0636721 108.4025592  72.3072384  86.8259751 108.1966066
  73.6310837  82.1356608 106.9148674  73.7600837  81.5656608 107.9938674
  74.5370837  82.0676608 105.9378674  74.3013694  82.4339504 105.0266210
  75.8230837  81.3556608 106.0958674  75.9469999  81.0449898 107.1332813
  75.9200837  80.1136608 105.1688674  76.9401318  79.7300942 105.1907537
  74.9620837  79.0316608 105.6398674  73.9417139  79.4143613 105.6178131
  75.0391763  78.1659356 104.9820852  75.2173842  78.7376619 106.6579467
  75.6140837  80.4686608 103.7138674  74.5429989  80.6589257 103.6454760
  76.1605078  81.3828393 103.4819239  75.9980837  79.3876608 102.7268674
  75.4516737  78.4732444 102.9579054  75.7503707  79.7128679 101.7164329
  77.0691829  79.1971564 102.7943550  77.0730837  82.2336608 105.9248674
  78.1660837  81.8116608 106.2958674  76.9300837  83.4396608 105.3718674
  76.0342232  83.7303783 105.0071531  78.0670837  84.3586608 105.2388674
  78.7044322  84.2963575 106.1209130  78.9000837  83.9836608 104.0038674
  79.0693527  82.9083376 104.0597890  78.2827361  84.2090264 103.1342742
  80.2350837  84.7006608 103.8768674  80.6998799  84.3899964 102.9411575
  80.0432372  85.7732601 103.8480966  81.1680837  84.3836608 105.0358674
  80.7420449  84.8048736 105.9464549  81.2383327  83.3004976 105.1354772
  82.5510837  84.9606608 104.8118674  82.9786386  84.5047678 103.9188618
  82.4599564  86.0364399 104.6618867  83.4360837  84.6966608 105.9738674
  83.5210023  83.6998658 106.1127498  84.3491167  85.0911038 105.7981244
  83.0402983  85.1193827 106.8013692  77.6020837  85.8046608 105.1268674
  76.7840837  86.1096608 104.2698674  78.1090837  86.6676608 106.0118674
  78.6459153  86.2942993 106.7816157  77.9650837  88.1246608 105.9058674
  77.1637264  88.3591883 105.2052088  77.6290837  88.7486608 107.2578674
  78.5039685  88.5977476 107.8902448  77.4916940  89.8147317 107.0769891
  76.4010837  88.1916608 107.9528674  75.5465884  88.3124092 107.2870158
  76.5757798  87.1304601 108.1301626  76.1140837  88.8876608 109.2788674
  76.1940837  90.1336608 109.3388674  75.7990837  88.1876608 110.2628674
  79.2880837  88.7266608 105.4508674  80.3320837  88.4206608 106.0248674
  79.2420837  89.5966608 104.4468674  78.3602965  89.7838929 103.9913515
  80.4320837  90.2826608 103.9578674  81.3164684  89.9943129 104.5260385
  80.6870837  89.9876608 102.4658674  79.8055615  90.2811995 101.8959089
  81.9020837  90.7566608 101.9548674  82.7841467  90.4632932 102.5240785
  82.0589316  90.5300978 100.9002734  81.7322601  91.8266577 102.0747348
  80.8770837  88.4976608 102.2518674  79.9805984  87.9668303 102.5722346
  81.0563677  88.3018572 101.1946929  81.7309775  88.1523344 102.8347191
  80.2500837  91.7796608 104.1568674  79.3490837  92.3696608 103.5678674
  81.0940837  92.3696608 105.0058674  81.6664743  91.7824253 105.5954630
  81.2210837  93.8206608 105.1398674  80.3227623  94.3048473 104.7568776
  81.4020837  94.2166608 106.6128674  80.5012915  93.9173226 107.1486559
  82.2565943  93.6631741 107.0021798  81.6350837  95.7146608 106.8058674
  81.2670837  96.5136608 105.9178674  82.1920837  96.0996608 107.8548674
  82.4360837  94.2216608 104.3078674  83.5720837  93.9516608 104.6948674
  82.1920837  94.8746608 103.1738674  81.2390989  95.1151551 102.9413125
  83.2330837  95.0986608 102.1628674  83.8553365  94.2056121 102.1048608
  82.6070837  95.3846608 100.7698674  81.9635161  96.2601350 100.8562740
  83.6750837  95.6416608  99.7118674  84.3188023  94.7663872  99.6245560
  83.1968333  95.8374896  98.7521652  84.2739931  96.5050413 100.0016620
  81.7790837  94.1736608 100.3278674  82.4892474  93.3841548 100.0820043
  81.1848660  93.8715060 101.1902520  80.8660837  94.4156608  99.1468674
  81.4596711  94.7174242  98.2839116  80.3242803  93.4994609  98.9120782
  80.1552907  95.2047775  99.3921588  84.2710837  96.1566608 102.5868674
  85.3680837  96.1926608 102.0278674  83.9510837  96.9816608 103.5878674
  83.0035992  97.0051716 103.9368941  84.9270837  97.9226608 104.1568674
  85.4473464  98.4375798 103.3492261  84.2380837  98.9716608 105.0448674
  83.7316466  98.4519379 105.8581993  85.0253133  99.6051391 105.4536154
  83.2440837  99.8246608 104.2978674  83.6680837 100.7306608 103.3308674
  84.7350001 100.8238779 103.1281371  82.7600837 101.5066608 102.6308674
  83.1063092 102.2154260 101.8786164  81.4070837 101.3776608 102.8888674
  80.5050837 102.1426608 102.1878674  80.9234538 102.7260639 101.5505237
  80.9630837 100.4886608 103.8448674  79.8975485 100.3929927 104.0536320
  81.8770837  99.7156608 104.5408674  81.5306194  99.0072670 105.2933572
  86.0320837  97.2316608 104.9578674  87.1590837  97.7256608 104.9978674
  85.7050837  96.1096608 105.5998674  84.7846933  95.7178926 105.4602302
  86.6120837  95.4416608 106.5508674  87.5523684  95.9869483 106.6322641
  85.9630837  95.3686608 107.9458674  86.6466178  94.8624167 108.6274820
  85.6630837  96.7696608 108.4738674  84.9791954  97.2763908 107.7929702
  85.2050208  96.6964020 109.4602297  86.5905792  97.3377031 108.5458440
  84.7470837  94.6136608 107.8678674  84.3424363  94.5680503 108.7372237
  87.0610837  94.0226608 106.1798674  88.0780837  93.5626608 106.6948674
  86.3100837  93.3346608 105.3158674  85.4794429  93.7653301 104.9355267
  86.5920837  91.9346608 104.9658674  86.7135885  91.2992854 105.8431553
  85.4730837  91.3326608 104.0668674  84.5103379  91.5255411 104.5401716
  85.4840837  91.9466608 102.6648674  86.4464155  91.7537775 102.1907213
  84.6891100  91.5016097 102.0664972  85.3245716  93.0224750 102.7375403
  85.5810837  89.8136608 103.9908674  85.4863255  89.3916416 104.9913787
  84.7856942  89.4236617 103.3557644  86.5485516  89.5382289 103.5710532
  87.9620837  91.7546608 104.2918674  88.4250837  92.6276608 103.5568674
  88.5920837  90.6146608 104.5588674  88.1600545  89.9683666 105.2036573
  89.8870837  90.2596608 103.9868674  90.2644721  91.0798333 103.3761349
  90.8910837  89.9816608 105.1058674  90.4630147  89.2096810 105.7453229
  91.8022550  89.6042335 104.6417386  91.2190837  91.2066608 105.9418674
  91.7943121  91.8980046 105.3260290  90.2830348  91.6789715 106.2399229
  92.0180837  90.8466608 107.1768674  91.4454414  90.1365444 107.7734530
  92.9571738  90.3871961 106.8684821  92.3090837  92.0846608 108.0058674
  92.9837985  92.7277557 107.4408103  91.3705869  92.6099747 108.1829781
  92.9350837  91.7336608 109.3108674  93.8049442  91.2472638 109.1469756
  93.1149526  92.5775931 109.8357725  92.3098575  91.1381050 109.8347992
  89.7450837  89.0326608 103.1018674  88.7310837  88.3346608 103.1478674
  90.7750837  88.7756608 102.3028674  91.5552583  89.4168778 102.2865065
  90.7860837  87.6456608 101.3728674  89.9133282  87.6568316 100.7199722
  92.0650837  87.6546608 100.4918674  92.9278738  87.7944315 101.1431405
  92.2250837  86.3546608  99.7078674  91.3628310  86.2144249  99.0559817
  93.1318185  86.4026732  99.1048522  92.2950098  85.5173042 100.4021627
  92.0360837  88.8376608  99.5328674  91.9890042  89.7661983 100.1018170
  92.9382127  88.8323342  98.9211202  91.1602484  88.7622329  98.8884111
  90.6390837  86.3176608 102.1328674  89.8680837  85.4486608 101.7188674
  91.3560837  86.1816608 103.2478674  92.0414364  86.8852566 103.4831206
  91.2950837  84.9626608 104.0728674  91.4413390  84.0911364 103.4347813
  92.3800837  84.9586608 105.1688674  92.2719644  84.0100367 105.6947208
  93.3358181  84.9762593 104.6450715  92.3300837  86.1076608 106.1758674
  91.3292431  86.5382396 106.1439193  92.5071420  85.6737806 107.1599901
  93.3610837  87.1986608 105.9088674  93.5500837  87.5726608 104.7208674
  93.9720837  87.6896608 106.8898674  89.9110837  84.6496608 104.6838674
  89.6310837  83.4946608 104.9968674  89.0620837  85.6716608 104.8368674
  89.3894442  86.6078858 104.6460347  87.6770837  85.4986608 105.3108674
  87.6702601  84.8466337 106.1843165  87.0520837  86.8496608 105.7008674
  87.0155331  87.4614073 104.7994633  86.0377762  86.6601160 106.0520838
  87.8350837  87.5856608 106.7828674  88.3960837  86.9276608 107.6878674
  87.8810837  88.8346608 106.7278674  86.7660837  84.8326608 104.2748674
  85.7040837  84.3206608 104.6198674  87.1750837  84.8616608 103.0098674
  88.0248661  85.3577201 102.7820641  86.3990837  84.2796608 101.9178674
  85.3330743  84.3754942 102.1241172  86.7110837  85.0076608 100.6098674
  87.7300512  84.6962251 100.3800580  86.0358978  84.6377651  99.8382450
  86.6430837  86.5426608 100.6568674  87.3555697  86.9077989 101.3965556
  86.9810837  87.1296608  99.2948674  86.2686992  86.7653176  98.5546910
  86.9286652  88.2172798  99.3442420  87.9884324  86.8276085  99.0083128
  85.2770837  87.0226608 101.1218674  85.0766696  86.6367744 102.1213799
  85.2624488  88.1123390 101.1439668  84.5116362  86.6634059 100.4340266
  86.6350837  82.7696608 101.7778674  85.9270837  82.1066608 101.0248674
  87.6290837  82.2346608 102.4888674  88.3305407  82.8459436 102.8817934
  87.7640837  80.7946608 102.7058674  87.1678060  80.2530347 101.9715697
  89.2330837  80.3356608 102.5838674  89.8370430  80.9280871 103.2711552
  89.3890837  78.8556608 102.9168674  88.7857349  78.2625284 102.2296529
  90.4363363  78.5693401 102.8200088  89.0568379  78.6757726 103.9392927
  89.6940837  80.5636608 101.2458674  90.6075346  80.2784797 101.1691887
  87.2180837  80.5256608 104.1068674  87.7760837  81.0106608 105.0938674
  86.1200837  79.7736608 104.1938674  85.7619071  79.3035280 103.3748533
  85.3870837  79.6266608 105.4568674  86.0869974  79.5614483 106.2899145
  84.4720837  80.8426608 105.6778674  84.0283064  80.8154079 106.6730650
  85.0493791  81.7600729 105.5630410  83.3300837  80.9266608 104.6988674
  83.5220837  81.4706608 103.4348674  84.5096705  81.8421830 103.1614746
  82.4750837  81.5446608 102.5238674  82.6394320  81.9799913 101.5381810
  81.2190837  81.0636608 102.8698674  80.3968379  81.1178262 102.1563705
  81.0120837  80.5136608 104.1258674  80.0283026  80.1334518 104.4010328
  82.0620837  80.4476608 105.0348674  81.9008043  80.0181002 106.0235871
  84.5310837  78.3716608 105.5148674  84.2590837  77.7396608 104.5008674
  84.0970837  78.0496608 106.7258674  84.5050737  78.5203602 107.5209055
  83.0980837  77.0176608 106.9718674  82.6223858  76.7485721 106.0287863
  83.7310837  75.7536608 107.5818674  84.2798448  76.0378056 108.4797668
  82.6670837  74.7226608 107.9418674  82.1181753  74.4376646 107.0443283
  83.1445539  73.8414280 108.3702950  81.9767814  75.1507777 108.6687093
  84.6280837  75.1716608 106.6288674  85.0258681  74.3826747 107.0041925
  82.0390837  77.6086608 107.8978674  82.3710837  78.3066608 108.8508674
  80.7740837  77.3456608 107.5898674  80.5769000  76.7620343 106.7894937
  79.6500837  77.8726608 108.3548674  80.0107891  78.3186281 109.2817460
  78.9110837  78.9456608 107.5508674  78.8660504  78.6335906 106.5074675
  77.8992680  79.0442031 107.9440829  79.5750837  80.1906608 107.6418674
  79.0954417  80.8471764 107.1314454  78.6830837  76.7516608 108.6928674
  78.4100837  75.9036608 107.8458674  78.1460837  76.7516608 109.9268674
  78.4410837  77.6496608 111.0618674  78.2943737  78.6829696 110.7474643
  79.4769610  77.5077591 111.3699604  77.4640837  77.2246608 112.1228674
  76.6375756  77.9346927 112.1518173  77.9683110  77.2152293 113.0891837
  76.9940837  75.8546608 111.7528674  75.9596419  75.7839425 112.0890638
  77.5636571  75.0156734 112.1525999  77.0460837  75.8396608 110.2258674
  77.2577935  74.8611788 109.7947639  75.7550837  76.3866608 109.6318674
  75.6760837  77.5806608 109.3578674  74.7660837  75.5276608 109.4168674
  74.9524462  74.5351046 109.4026999  73.4210837  75.9856608 109.0698674
  73.2618295  76.9782403 109.4912024  73.2170837  76.0596608 107.5458674
  72.2374716  76.4704276 107.3014702  73.9936155  76.6985485 107.1252476
  73.3180837  74.7336608 106.8358674  72.1980837  73.9186608 106.6878674
  71.2443550  74.2474407 107.1006689  72.2850837  72.7016608 106.0248674
  71.4035536  72.0677607 105.9290761  73.4960837  72.2926608 105.4838674
  73.5691133  71.3409065 104.9576256  74.6150837  73.0996608 105.6148674
  75.5682967  72.7820284 105.1922625  74.5220837  74.3136608 106.2848674
  75.4012167  74.9504407 106.3835405  72.3380837  75.1386608 109.7368674
  72.5560837  73.9626608 110.0418674  71.1860837  75.7666608 109.9748674
  71.1210035  76.7434905 109.7265376  70.0150837  75.1226608 110.5668674
  70.1276392  74.0396726 110.5162010  69.8540837  75.5296608 112.0338674
  69.5909018  76.5855518 112.0965469  69.0695808  74.9320315 112.4980811
  71.3260837  75.3166608 113.0678674  70.7726294  75.7640011 114.1914657
  68.7910837  75.5736608 109.7748674  68.5380837  76.7756608 109.6708674
  68.0490837  74.6156608 109.2148674  68.3186088  73.6520321 109.3522550
  66.8630837  74.8986608 108.3838674  66.6869204  75.9733148 108.3371303
  67.0850837  74.3766608 106.9608674  67.1734904  73.2996918 107.1037703
  66.1877595  74.5932931 106.3812299  68.3160837  74.8946608 106.2088674
  69.1885707  74.8057330 106.8561379  68.5450837  74.0916608 104.9358674
  67.6731469  74.1804866 104.2878435  69.4234763  74.4751998 104.4168057
  68.7028160  73.0435589 105.1902359  68.1950837  76.3756608 105.8798674
  68.0929939  76.9462822 106.8029428  69.0874775  76.7041197 105.3470922
  67.3179959  76.5387818 105.2536027  65.6160837  74.2456608 108.9708674
  65.5840837  73.0236608 109.1618674  64.5960837  75.0586608 109.2538674
  64.7096136  76.0554746 109.1373661  63.3210837  74.5616608 109.7698674
  63.4969571  73.6727998 110.3757502  62.6260837  75.6126608 110.6348674
  63.3638698  76.0098444 111.3320160  62.2826835  76.4105607 109.9764360
  61.4430837  75.0526608 111.4128674  60.6908549  74.6952794 110.7096384
  61.8039718  74.2177352 112.0135014  60.7990837  76.0716608 112.3358674
  60.5960837  77.2276608 111.9638674  60.4600837  75.6386608 113.5418674
  60.0277399  76.2718377 114.1993377  60.6356705  74.6775340 113.7978087
  62.3990837  74.1556608 108.6278674  62.1400837  74.9436608 107.7228674
  61.8930837  72.9296608 108.7038674  62.1640469  72.3462438 109.4825219
  60.9870837  72.3706608 107.7008674  61.2619904  72.6393131 106.6808912
  60.9520837  70.8226608 107.8138674  60.7395577  70.5573903 108.8495138
  59.8880837  70.2186608 106.9068674  60.1002099  70.4831324 105.8709339
  59.8929231  69.1338168 107.0126529  58.9085404  70.6061443 107.1869620
  62.3250837  70.2226608 107.5078674  63.0572754  70.6092100 108.2167941
  62.2750921  69.1371823 107.5935228  62.6228754  70.4933385 106.4948746
  59.5760837  72.9416608 107.8898674  59.0020837  72.8026608 108.9688674
  59.0160837  73.5636608 106.8488674  59.5590162  73.7334248 106.0142993
  57.6590837  74.1476608 106.9338674  57.3982600  74.3123193 107.9793136
  57.5890837  75.4916608 106.1928674  56.7502421  76.0343484 106.6286818
  58.5179056  76.0133440 106.4235979  57.4130837  75.4136608 104.6838674
  58.0788057  74.6432381 104.2948123  56.3796024  75.1433848 104.4671433
  57.7390837  76.7496608 104.0208674  56.9721088  77.4699923 104.3054214
  58.7081757  77.0874161 104.3881296  57.7850837  76.6306608 102.5048674
  58.5972131  75.9547734 102.2370563  56.8379449  76.2130126 102.1634042
  58.0070837  77.9576608 101.8548674  58.8848799  78.3446397 102.1708119
  58.0319896  77.8412868 100.8519034  57.2544313  78.5839709 102.1025547
  56.5170837  73.2166608 106.4808674  55.3500837  73.5066608 106.7518674
  56.8400837  72.1136608 105.8038674  57.8049541  71.9304765 105.5681386
  55.8190837  71.1646608 105.3438674  55.0101810  71.1071207 106.0721974
  55.2370837  71.6216608 103.9998674  54.2562698  71.1565665 103.9009200
  55.1216263  72.7042525 104.0524485  56.0940837  71.2606608 102.7928674
  57.1369252  71.4436646 103.0518890  55.9530210  70.2003689 102.5831426
  55.7310837  72.0666608 101.5718674  54.6926661  71.8757241 101.3010703
  55.8623318  73.1284682 101.7802861  56.5830837  71.7026608 100.4438674
  57.0555064  70.8122808 100.5082081  56.7740837  72.4476608  99.3528674
  56.1680837  73.6306608  99.2058674  55.5529557  73.9729605  99.9301246
  56.3282914  74.1764271  98.3712584  57.5870837  72.0076608  98.3938674
  58.0512953  71.1168376  98.4989472  57.7356033  72.5668715  97.5660244
  56.3820837  69.7506608 105.2028674  57.5910837  69.5706608 105.0578674
  55.4890837  68.7606608 105.2098674  54.5241550  68.9620523 105.4299884
  55.8610837  67.3746608 104.9268674  56.7038811  67.0902831 105.5568841
  54.6970837  66.4176608 105.2048674  53.8277089  66.7482503 104.6365390
  54.9902287  65.4216758 104.8729336  54.3180837  66.3476608 106.6758674
  54.8210837  67.1026608 107.5018674  53.4150837  65.4366608 107.0038674
  53.1232870  65.3429051 107.9662417  53.0221909  64.8396626 106.2901943
  56.2780837  67.2606608 103.4568674  55.5210837  67.6446608 102.5588674
  57.4950837  66.7696608 103.2218674  58.0985932  66.5276991 103.9947388
  58.0100837  66.6116608 101.8668674  57.2800883  66.0788581 101.2575012
  58.2840837  67.9876608 101.2188674  57.7666870  68.7446023 101.8083073
  59.3584715  68.1665075 101.2613494  57.8130837  68.0626608  99.7688674
  57.7440837  67.0066608  99.1018674  57.5100837  69.1806608  99.2988674
  59.2860837  65.7786608 101.8508674  59.8160837  65.4176608 102.9028674
  59.7530837  65.4666608 100.6458674  59.1593390  65.6046518  99.8405569
  61.0840837  64.9126608 100.4358674  61.4491087  64.4697817 101.3625357
  61.0520837  63.8296608  99.3558674  60.8299018  64.3078503  98.4018919
  62.0494131  63.3914417  99.3184738  60.0390837  62.7486608  99.6228674
  60.3370837  61.6836608 100.4688674  61.3226825  61.6378950 100.9321168
  59.4030837  60.6906608 100.7258674  59.6452471  59.8587638 101.3872343
  58.1540837  60.7626608 100.1328674  57.2290837  59.7856608 100.3828674
  57.5529139  59.1061287 100.9786609  57.8320837  61.8116608  99.2918674
  56.8479764  61.8666972  98.8264598  58.7710837  62.7966608  99.0428674
  58.5258828  63.6291667  98.3833900  62.0300837  66.0396608 100.0168674
  61.6400837  66.9206608  99.2448674  63.2620837  66.0096608 100.5278674
  63.4947993  65.2991207 101.2068929  64.2760837  67.0176608 100.2008674
  63.8813227  67.7837616  99.5335201  64.8220837  67.7036608 101.4708674
  65.0465232  66.9324925 102.2077702  66.0830837  68.5106608 101.1798674
  65.8593061  69.2823792 100.4433383  66.4362369  68.9779476 102.0991205
  66.8562147  67.8492292 100.7888706  63.7470837  68.5956608 102.0788674
  62.8785438  67.9915654 102.3411827  64.1380380  69.0773776 102.9750835
  63.4544381  69.3571492 101.3559602  65.4040837  66.3766608  99.3948674
  66.0170837  65.4026608  99.8368674  65.6650837  66.9446608  98.2178674
  65.1399691  67.7675453  97.9586089  66.6390837  66.4126608  97.2618674
  67.0261100  65.4526372  97.6034294  65.9540837  66.2106608  95.9218674
  65.5639404  67.1502099  95.5305430  66.6680734  65.7910558  95.2131711
  64.8040837  65.2626608  95.9808674  63.5120837  65.6756608  96.2208674
  62.7100837  64.6276608  96.2208674  61.6386050  64.7479116  96.3807798
  63.4390837  63.5456608  96.0068674  63.0959629  62.5968190  95.9614007
  64.7530837  63.9166608  95.8538674  65.5150340  63.1596787  95.6680958
  67.8810837  67.2706608  97.0418674  68.8700837  66.7816608  96.4928674
  67.8350837  68.5396608  97.4448674  67.0100037  68.9007376  97.9019951
  68.9410837  69.4516608  97.1968674  69.8740907  68.9132455  97.3633190
  68.9030837  69.9206608  95.7568674  67.9786232  70.4694797  95.5772271
  69.7552447  70.5723222  95.5638407  68.9480021  69.0581095  95.0919713
  68.9270837  70.6526608  98.1208674  67.8710837  71.0726608  98.6048674
  70.1190837  71.1886608  98.3638674  70.9479316  70.6824730  98.0865869
  70.2840837  72.4806608  99.0068674  69.4061783  72.6954833  99.6161560
  71.5210837  72.5026608  99.9068674  72.3210734  72.1820816  99.2395259
  71.6752425  73.5457208 100.1832023  71.5300837  71.6356608 101.1658674
  71.5014819  70.5821709 100.8875836  72.8010837  71.9176608 101.9518674
  72.8301745  72.9709324 102.2309219  72.8160455  71.3032729 102.8520921
  73.6693033  71.6811856 101.3367458  70.3130837  71.8836608 102.0448674
  69.4066638  71.6554594 101.4841299  70.3647896  71.2448391 102.9265332
  70.2947517  72.9285931 102.3545114  70.4450837  73.5196608  97.9098674
  71.0430837  73.2406608  96.8698674  69.9200837  74.7146608  98.1588674
  69.4304241  74.8527058  99.0313789  69.9910837  75.8266608  97.2248674
  70.5819924  75.5667787  96.3465808  68.5880837  76.2556608  96.7638674
  67.9889571  76.4908619  97.6435417  68.6570837  77.4776608  95.8548674
  69.2557070  77.2430686  94.9746869  67.6503640  77.7578155  95.5448204
  69.1145847  78.3070168  96.3942773  67.9130837  75.0956608  96.0418674
  67.8284245  74.2455610  96.7188203  66.9186541  75.3996845  95.7150969
  68.5087057  74.8108825  95.1745516  70.6980837  76.9846608  97.9158674
  70.3900837  77.2966608  99.0648674  71.6520837  77.5986608  97.2128674
  71.9138634  77.2177984  96.3148058  72.3620837  78.7796608  97.6978674
  72.0847279  78.9877663  98.7312430  73.8640837  78.5616608  97.6328674
  74.1583977  78.3611328  96.6026889  74.3771452  79.4548001  97.9894768
  74.1359510  77.7124082  98.2597306  71.9730837  79.9926608  96.8648674
  71.8140837  79.8946608  95.6478674  71.8130837  81.1286608  97.5328674
  71.8163068  81.1061199  98.5426104  71.5660837  82.4116608  96.8668674
  72.1098093  82.4463157  95.9228013  70.0690837  82.5936608  96.5778674
  69.9619173  83.4821746  95.9556473  69.7669092  81.7140648  96.0094472
  69.1920837  82.7276608  97.8028674  68.9820837  83.9656608  98.3988674
  69.4643333  84.8426212  97.9670395  68.1770837  84.0986608  99.5218674
  68.0272314  85.0748844  99.9829894  67.5590837  82.9806608 100.0528674
  66.7610837  83.1136608 101.1608674  66.7061000  84.0184064 101.4771137
  67.7460837  81.7396608  99.4768674  67.2636794  80.8579554  99.8987466
  68.5540837  81.6186608  98.3538674  68.6977976  80.6435987  97.8883565
  72.1060837  83.5506608  97.7348674  72.4300837  83.3376608  98.9038674
  72.1920837  84.7526608  97.1728674  71.9201026  84.8827155  96.2089113
  72.7450837  85.8966608  97.8978674  72.7514761  85.6841457  98.9669304
  74.1860837  86.1866608  97.4458674  74.6090689  86.9970725  98.0395134
  74.7995972  85.2932562  97.5621839  74.3010837  86.6026608  96.0068674
  74.2140837  87.9406608  95.6508674  74.0642923  88.6891931  96.4289174
  74.3150837  88.3296608  94.3268674  74.2362566  89.3834760  94.0597338
  74.5160837  87.3806608  93.3428674  74.6044956  87.6857477  92.3001761
  74.6050837  86.0426608  93.6818674  74.7592201  85.2916631  92.9070483
  74.4980837  85.6576608  95.0078674  74.5683545  84.6036795  95.2767268
  71.9030837  87.1476608  97.7478674  71.1640837  87.3016608  96.7728674
  72.0240837  88.0296608  98.7358674  72.5265850  87.7519952  99.5668269
  71.4470837  89.3676608  98.6918674  70.8506114  89.4764643  97.7860629
  70.5460837  89.6216608  99.9048674  71.1475999  89.5296785 100.8091997
  70.1501889  90.6347433  99.8339367  69.3790837  88.6486608  99.9958674
  69.2050837  87.7686608  99.1438674  68.5690837  88.8016608 101.0378674
  67.7768245  88.1857915 101.1524541  68.7493252  89.5331332 101.7105946
  72.5790837  90.3916608  98.6608674  73.6830837  90.1286608  99.1468674
  72.2860837  91.5546608  98.0828674  71.3663325  91.6616081  97.6794827
  73.2230837  92.6736608  97.9798674  74.1313433  92.5058787  98.5586703
  73.5920837  92.8996608  96.4978674  72.6723650  92.8608297  95.9141638
  74.2840837  94.2316608  96.2638674  75.2041889  94.2710525  96.8469244
  74.5206287  94.3377546  95.2051459  73.6246531  95.0432487  96.5713986
  74.4730837  91.7526608  95.9918674  73.9509621  90.8274650  96.2357989
  74.5336556  91.8603904  94.9088970  75.8710837  91.7116608  96.5738674
  75.8113265  91.6034694  97.6568372  76.4152490  90.8655763  96.1541957
  76.3940194  92.6363964  96.3299370  72.5450837  93.9066608  98.5738674
  71.3480837  94.1086608  98.3528674  73.3110837  94.7166608  99.3088674
  74.2802277  94.4701310  99.4505799  72.7960837  95.9246608  99.9678674
  71.8537313  96.2238012  99.5089709  72.5520837  95.6566608 101.4588674
  73.4886699  95.2773451 101.8675545  72.3191550  96.6178351 101.9171120
  71.4310837  94.6676608 101.7558674  70.5100672  95.0570348 101.3220272
  71.6925552  93.7281054 101.2690743  71.2280837  94.4276608 103.2458674
  70.6340837  95.2986608 103.9148674  71.6500837  93.3646608 103.7508674
  73.7580837  97.1096608  99.7968674  74.9760837  96.9566608  99.9438674
  73.1960837  98.2796608  99.4838674  72.2003116  98.2973072  99.3158620
  73.9380837  99.5336608  99.3808674  75.0088581  99.3322146  99.3498688
  73.5420837 100.2746608  98.0998674  72.4733477 100.4882751  98.0833905
  74.0997974 101.2099377  98.0517770  73.8510837  99.5226608  96.8308674
  73.0400837  98.4676608  96.4088674  72.1781116  98.1845233  97.0129677
  73.3200837  97.7826608  95.2368674  72.6840923  96.9536386  94.9264839
  74.4100837  98.1516608  94.4578674  74.6301797  97.6163827  93.5342143
  75.2190837  99.2046608  94.8588674  76.0766763  99.4976191  94.2532185
  74.9340837  99.8866608  96.0358674  75.5628416 100.7202912  96.3486353
  73.5540837 100.3516608 100.6148674  72.6240837 101.1536608 100.5718674
  74.2670837 100.1276608 101.7178674  75.0722441  99.5199969 101.6672627
  73.8790837 100.6676608 103.0368674  72.8074646 100.5455342 103.1944007
  74.6310837  99.9676608 104.1918674  74.3172998 100.4167543 105.1341810
  74.3330837  98.4706608 104.2178674  74.6470427  98.0207614 103.2759969
  74.8760719  98.0058199 105.0407805  73.2630581  98.3150109 104.3554135
  76.0410837 100.1746608 104.0488674  76.5031643  99.7381525 104.7682717
  74.0650837 102.1866608 103.1968674  73.4810837 102.7806608 104.1068674
  74.8730837 102.8036608 102.3318674  75.4028084 102.2589181 101.6664754
  75.0480837 104.2656608 102.3338674  75.2628833 104.6013601 103.3483950
  76.2080837 104.6966608 101.4168674  75.8994146 104.4264966 100.4069991
  76.2612603 105.7820409 101.5018516  77.5820837 104.0956608 101.7068674
  77.5366800 103.0327859 101.4695147  78.3032558 104.5833856 101.0510187
  78.0130837 104.2736608 103.1558674  79.1019263 104.2576909 103.2034683
  77.6482625 105.2356977 103.5157143  77.4910837 103.2206608 104.0238674
  77.0552800 102.4338608 103.5643891  77.5540837 103.2246608 105.3548674
  78.1200837 104.2336608 106.0158674  78.5102572 105.0124929 105.5047068
  78.1563529 104.2150379 107.0250440  77.0370837 102.2046608 106.0328674
  76.6034492 101.4398271 105.5357853  77.0803144 102.1992626 107.0419267
  73.7840837 105.0006608 101.8818674  73.5660837 106.1416608 102.2758674
  72.9660837 104.3496608 101.0528674  73.2091404 103.4146499 100.7582873
  71.7690837 104.9696608 100.4788674  72.0380353 105.8961488  99.9715370
  71.1170837 104.0256608  99.4618674  70.8404382 103.0846255  99.9372821
  70.2304004 104.4868022  99.0268487  72.1900837 103.5886608  98.0698674
  71.3081580 102.8057149  97.4549683  70.7350837 105.4076608 101.5258674
  70.5980837 104.7926608 102.5818674  70.0170837 106.4796608 101.1988674
  70.1967789 106.9145335 100.3051702  69.0320837 107.0996608 102.0868674
  69.4727365 107.2979901 103.0638985  68.5690837 108.4296608 101.4788674
  69.4234696 109.1038627 101.4190698  68.1551799 108.2791774 100.4818025
  67.5190837 109.1386608 102.2758674  67.6270837 109.3556608 103.6348674
  66.5620837 110.0146608 104.0588674  66.4559018 110.2790899 105.1109613
  65.7710837 110.2386608 103.0248674  64.8852635 110.7233131 103.0479866
  66.3480837 109.7026608 101.8968674  65.8445093 109.7881728 100.9339543
  67.8450837 106.1646608 102.3408674  67.4720837 105.9276608 103.4928674
  67.2570837 105.6586608 101.2588674  67.4843254 106.0432330 100.3530171
  66.2850837 104.5626608 101.3248674  65.7082547 104.6501551 102.2455803
  65.3140837 104.5906608 100.1318674  65.9110018 104.8588925  99.2601795
  64.9428803 103.5721667 100.0179472  64.1370837 105.5486608 100.2548674
  63.6921073 105.4388050 101.2438207  64.4965326 106.5701068 100.1301812
  63.0860837 105.2446608  99.1868674  63.5360197 105.4324849  98.2119937
  62.8225693 104.1900892  99.2677280  61.8290837 106.0956608  99.3388674
  61.0423568 105.6482990  98.7313900  61.5327016 106.0767538 100.3876283
  62.0460837 107.5056608  98.9098674  62.3203082 107.5234309  97.9379698
  61.1903076 108.0289435  99.0278603  62.7747504 107.9205126  99.4729322
  67.0300837 103.2306608 101.3158674  68.1930837 103.1556608 100.9008674
  66.3410837 102.1836608 101.7658674  65.4496950 102.3381752 102.2149228
  66.8360837 100.8096608 101.6598674  67.8105423 100.7262454 102.1410863
  65.8650837  99.8456608 102.3498674  65.7990993 100.1729221 103.3874826
  64.9002517  99.9869827 101.8628075  66.2460837  98.3646608 102.3058674
  66.6049374  98.1259131 101.3047059  67.0424715  98.1872545 103.0286368
  65.0500837  97.4806608 102.6408674  65.3300616  96.4336606 102.5246695
  64.7432295  97.6620003 103.6709431  63.9120837  97.7656608 101.7528674
  64.1547827  98.0786411 100.8237604  62.6150837  97.6486608 102.0698674
  61.6930837  97.9596608 101.1598674  61.9783455  98.2787951 100.2450565
  60.7130722  97.8748748 101.3889706  62.2150837  97.2306608 103.2748674
  62.9011454  96.9925871 103.9768221  61.2286134  97.1548046 103.4778964
  66.9800837 100.4646608 100.1748674  66.0200837 100.5756608  99.4138674
  68.1870837 100.0656608  99.7818674  68.9019702  99.9244042 100.4812123
  68.5340837  99.8406608  98.3828674  67.6310744  99.7299672  97.7825173
  69.3550837 101.0246608  97.8258674  70.2863285 101.0940631  98.3880656
  69.6670837 100.8406608  96.3508674  68.7362609 100.7716382  95.7879248
  70.2456210 101.6920573  95.9923737  70.2435969  99.9260473  96.2122481
  68.6170837 102.2416608  97.9998674  69.1272598 102.9775318  97.6537250
  69.3420837  98.5556608  98.2698674  70.3390837  98.3806608  98.9668674
  68.9110837  97.6646608  97.3858674  68.1235025  97.8850821  96.7932212
  69.5430837  96.3606608  97.2378674  70.4832435  96.4904061  96.7018031
  69.7441223  95.9586365  98.2308726  68.6750837  95.3846608  96.4788674
  67.6060837  95.7446608  95.9878674  69.1460837  94.1496608  96.3628674
  70.1032234  93.9446074  96.6117370  68.3460837  93.0886608  95.7498674
  67.3054864  93.2038270  96.0531712  68.4190837  93.1366608  94.2038674
  67.6912967  92.4671098  93.7454715  68.2125113  94.1619606  93.8969665
  69.7650837  92.7746608  93.6228674  70.1350837  91.4416608  93.4458674
  69.4420393  90.6551169  93.7444273  71.3690837  91.1096608  92.8968674
  71.6505944  90.0631992  92.7795190  72.2410837  92.1106608  92.4988674
  73.2103481  91.8572171  92.0694576  71.8760837  93.4376608  92.6488674
  72.5579618  94.2270351  92.3325912  70.6420837  93.7646608  93.2018674
  70.3528242  94.8100713  93.3093179  68.7030837  91.7066608  96.2778674
  69.7940837  91.4856608  96.7978674  67.7520837  90.7906608  96.1288674
  66.8650217  91.0820314  95.7437396  67.9160837  89.3926608  96.5048674
  68.8729637  89.2462296  97.0059042  66.7940837  88.9846608  97.4638674
  66.8802032  89.5847529  98.3697218  65.8379802  89.1897768  96.9823143
  66.8680837  87.6126608  97.7988674  66.1527024  87.3908745  98.3994006
  67.8740837  88.5306608  95.2508674  67.1580837  88.8516608  94.3008674
  68.6410837  87.4426608  95.2558674  69.3144341  87.3238035  95.9992190
  68.5840837  86.4266608  94.2008674  68.0289996  86.8047547  93.3423654
  70.0030837  86.0276608  93.7348674  69.9158472  85.2634316  92.9625697
  70.7490837  87.2246608  93.1788674  70.8371264  87.9891791  93.9507870
  71.7442427  86.9164072  92.8583406  70.2029913  87.6302232  92.3271616
  70.7410837  85.4806608  94.8328674  71.6206290  85.2352215  94.5366242
  67.8330837  85.1696608  94.6648674  68.0470837  84.0936608  94.1188674
  66.9320837  85.3046608  95.6388674  66.7521203  86.2102571  96.0482667
  66.2140837  84.1446608  96.1748674  66.9212032  83.3352215  96.3562215
  65.5060837  84.4826608  97.4948674  65.3956435  83.5659587  98.0741423
  66.1235981  85.1897121  98.0488119  64.2310837  85.0506608  97.2638674
  63.8130536  85.2511858  98.1044864  65.1840837  83.6196608  95.1688674
  64.7390837  84.3686608  94.2898674  64.7890837  82.3386608  95.3018674
  65.4120837  81.2966608  96.1418674  65.1491929  81.4682105  97.1856870
  66.4953092  81.3402842  96.0286479  64.8330837  80.0256608  95.6048674
  64.7681857  79.2804299  96.3976589  65.4571787  79.6429101  94.7973349
  63.4890837  80.4006608  95.1028674  62.7663314  80.4526719  95.9171296
  63.1261001  79.7131147  94.3389152  63.6930837  81.7916608  94.4988674
  64.0430597  81.7497247  93.4674332  62.3900837  82.6076608  94.5648674
  61.6700837  82.6956608  93.5648674  62.1050837  83.1976608  95.7258674
  62.6881802  83.0074784  96.5283190  60.9090837  84.0356608  95.9148674
  60.0719689  83.6241742  95.3509377  60.5280837  84.0776608  97.3928674
  61.4161128  84.3428819  97.9665933  59.7665903  84.8459144  97.5270840
  59.9920837  82.7446608  97.8788674  59.0453167  82.5719898  97.3670884
  60.7026388  81.9667084  97.5995812  59.7700837  82.7106608  99.3728674
  60.7600837  82.5056608 100.1138674  58.6010837  82.8756608  99.8018674
  61.0210837  85.4596608  95.3618674  60.0110837  86.1426608  95.2288674
  62.2390837  85.9046608  95.0558674  63.0363719  85.3162172  95.2512261
  62.4770837  87.2206608  94.4588674  61.7442020  87.9388609  94.8265250
  63.8700837  87.7106608  94.8348674  64.6117160  87.1011106  94.3186026
  63.9758124  88.7503793  94.5251791  64.0690837  87.6126608  96.2298674
  64.9498404  87.9246628  96.4501450  62.3610837  87.1566608  92.9338674
  62.4640837  86.0696608  92.3618674  62.1610837  88.3166608  92.2638674
  61.8500837  89.6396608  92.8458674  62.7569925  90.0654773  93.2751656
  61.0997568  89.5209259  93.6275390  61.3390837  90.4306608  91.6778674
  61.5845703  91.4844827  91.8093767  60.2578678  90.3170573  91.5993326
  62.0210837  89.8586608  90.4858674  63.0170477  90.2848328  90.3653179
  61.4477235  90.0120378  89.5716283  62.1290837  88.3576608  90.7908674
  61.2497837  87.7950296  90.4772182  63.3740837  87.7796608  90.1098674
  64.4260837  87.6426608  90.7388674  63.2500837  87.4716608  88.8208674
  62.3571082  87.5851243  88.3628063  64.3550837  86.9036608  88.0528674
  64.6443869  85.9474465  88.4888228  63.9580837  86.6746608  86.5868674
  63.1106863  85.9893466  86.6058765  63.6470606  87.6242233  86.1513267
  65.0780837  86.0736608  85.7468674  65.3350837  84.7026608  85.7728674
  64.7136125  84.0625316  86.3990524  66.3630837  84.1496608  85.0178674
  66.5412630  83.0744822  85.0364427  67.1590837  84.9716608  84.2318674
  68.1770837  84.4166608  83.4928674  68.2412122  83.4646260  83.5983043
  66.9370837  86.3396608  84.1968674  67.5635276  86.9864505  83.5825941
  65.9050837  86.8856608  84.9538674  65.7273978  87.9609612  84.9378398
  65.6270837  87.7566608  88.0938674  65.5820837  88.9876608  88.1288674
  66.7520837  87.0546608  88.0578674  66.6716979  86.0478970  88.0658808
  68.0780837  87.6376608  88.0508674  68.0892033  88.5933532  87.5268182
  68.5270837  87.8716608  89.5198674  67.9290428  87.2246949  90.1616481
  69.9500837  87.5816608  89.7238674  70.5488177  88.2286087  89.0827157
  70.2121636  87.7611693  90.7665514  70.1484372  86.5393510  89.4741740
  68.2930837  89.2286608  89.9098674  68.5761916  89.3537881  90.8185992
  68.9720837  86.6356608  87.2888674  68.7820837  85.4176608  87.4188674
  69.9460837  87.1246608  86.5218674  70.0777449  88.1222836  86.4351881
  70.7650837  86.2366608  85.6798674  70.1182242  85.5326849  85.1563314
  71.5570837  87.0376608  84.6428674  71.8290063  86.3889782  83.8101801
  70.9608514  87.8718989  84.2732003  72.8290837  87.6196608  85.1638674
  72.8580837  88.7106608  86.0028674  72.0410140  89.2056537  86.3307069
  74.1120837  88.9976608  86.3028674  74.3494658  89.8332054  86.9613611
  74.8940837  88.1326608  85.6858674  75.9030066  88.1107108  85.7270109
  74.1160837  87.2566608  84.9708674  74.5833408  86.4581148  84.3945893
  71.6980837  85.2976608  86.4698674  72.1730837  84.3036608  85.9218674
  71.9820837  85.6406608  87.7258674  71.7814959  86.5851484  88.0221899
  72.6170837  84.7256608  88.6908674  73.5417497  84.3324228  88.2684269
  72.9470837  85.4546608  89.9988674  72.1128382  86.0726308  90.3309017
  73.1950064  84.7317953  90.7761061  74.1090837  86.3496608  89.8698674
  75.4100837  85.9696608  89.7678674  75.6134108  84.8989753  89.7876295
  76.2130837  87.0676608  89.6578674  77.2189629  87.0551144  89.5675939
  75.4320837  88.1896608  89.6828674  75.7880837  89.5276608  89.5988674
  76.8440387  89.7756583  89.4913735  74.7800837  90.4626608  89.6568674
  75.0233708  91.5236261  89.5997358  73.4360837  90.0786608  89.7888674
  72.6365462  90.8180930  89.8344658  73.0900837  88.7446608  89.8648674
  72.0345469  88.4980914  89.9795246  74.0980837  87.7746608  89.8098674
  71.7810837  83.5006608  89.0358674  72.3420837  82.4576608  89.3638674
  70.4550837  83.6476608  89.0018674  70.0836385  84.5731833  88.8420681
  69.5140837  82.5626608  89.3008674  68.4959206  82.9518160  89.3019782
  69.6120837  81.4446608  88.2478674  70.5459327  80.9102556  88.4223278
  68.7719854  80.7687464  88.4074747  69.5830837  81.9576608  86.8238674
  68.6271211  82.4590212  86.6726259  70.3924917  82.6797162  86.7161792
  69.7460837  80.8576608  85.7908674  70.6886307  80.3361536  85.9574041
  68.9205380  80.1509818  85.8755932  69.7460837  81.4726608  84.3988674
  68.7478598  81.8621726  84.1990422  70.4641496  82.2926534  84.3892332
  70.1090837  80.4866608  83.3548674  69.4435823  79.7269662  83.3633399
  70.0969798  80.9347883  82.4498065  71.0341998  80.1259240  83.5396058
  69.7530837  82.0716608  90.7348674  69.8950837  82.8986608  91.6398674
  69.7680837  80.7526608  90.9468674  69.4303798  80.1392442  90.2190106
  70.2210837  80.1556608  92.2008674  70.7525878  80.9024040  92.7907633
  69.0360837  79.6406608  93.0178674  68.4936251  78.9452517  92.3773644
  69.4535882  79.1008413  93.8677997  68.0800837  80.7206608  93.5208674
  67.5695276  80.3434021  94.4069312  68.6807116  81.5893641  93.7905018
  67.0320837  81.1506608  92.5008674  66.4840837  80.3266608  91.7738674
  66.7430837  82.4476608  92.4558674  66.0555372  82.7861849  91.7980052
  67.2124193  83.0884352  93.0797533  71.1820837  79.0166608  91.8878674
  71.2810837  78.5856608  90.7388674  71.8940837  78.5486608  92.9108674
  71.8045120  78.9974689  93.8112271  72.8340837  77.4406608  92.7808674
  72.9048629  77.1456902  91.7339281  74.2330837  77.8406608  93.2738674
  74.1741194  78.0821340  94.3351469  75.2300837  76.7086608  93.0658674
  75.2899401  76.4669260  92.0046977  76.2120907  77.0184275  93.4233672
  74.9029077  75.8291652  93.6204338  74.6770837  78.9896608  92.5408674
  75.5513484  79.2447226  92.8445203  72.3100837  76.2486608  93.5718674
  72.0380837  76.3716608  94.7578674  72.1980837  75.1046608  92.8988674
  72.5968598  75.0736211  91.9714443  71.5490837  73.9006608  93.4148674
  71.0500610  74.0668532  94.3695692  70.5060837  73.3716608  92.3958674
  71.0154995  73.1682138  91.4539523  69.8320837  72.0936608  92.8968674
  69.3220333  72.2964463  93.8385826  69.1074642  71.7508900  92.1582638
  70.5856616  71.3214223  93.0513660  69.4720837  74.4466608  92.0938674
  69.9685897  75.3212175  91.6734696  68.7461293  74.0622133  91.3774248
  68.9598870  74.7276084  93.0140977  72.6030837  72.8216608  93.6458674
  73.3090837  72.4496608  92.7148674  72.6970837  72.3256608  94.8818674
  72.1048767  72.7126847  95.6027021  73.6110837  71.2416608  95.2428674
  74.3181037  71.0711629  94.4309854  74.3940837  71.5946608  96.5058674
  73.7232262  71.7752955  97.3457605  75.0600716  70.7656540  96.7452582
  75.2570837  72.8146608  96.3758674  74.7100837  74.0896608  96.5098674
  73.6413838  74.1929411  96.6977862  75.5080837  75.2186608  96.4068674
  75.0674638  76.2105651  96.5072701  76.8680837  75.0846608  96.1758674
  77.4980484  75.9701098  96.0908705  77.4270837  73.8216608  96.0528674
  78.4975794  73.7133435  95.8784925  76.6230837  72.6956608  96.1518674
  77.0615459  71.7025731  96.0537464  72.8020837  69.9746608  95.5048674
  72.0840837  69.8916608  96.5048674  72.9190837  68.9896608  94.6138674
  73.4536032  69.1318645  93.7687838  72.2250837  67.7116608  94.7898674
  71.2313312  67.8974914  95.1973254  72.0770837  66.9546608  93.4598674
  73.0393217  66.9997885  92.9498078  71.8392901  65.9171849  93.6948099
  71.0050837  67.5256608  92.5628674  69.6720837  67.5496608  92.9728674
  69.4178619  67.1416135  93.9511149  68.6810837  68.0776608  92.1648674
  67.6439298  68.0950938  92.4996952  69.0160837  68.5866608  90.9198674
  68.0350837  69.1066608  90.1188674  67.1633756  69.0660265  90.5189592
  70.3300837  68.5726608  90.4848674  70.5941166  68.9757398  89.5071586
  71.3150837  68.0396608  91.3048674  72.3516091  68.0181377  90.9683380
  72.9260837  66.8236608  95.8108674  74.1540837  66.7716608  95.8738674
  72.1210837  66.1276608  96.6028674  71.1260758  66.2902283  96.5426145
  72.6000837  65.1186608  97.5358674  73.6146532  65.3540827  97.8573088
  71.6950837  65.0846608  98.7638674  70.7147170  64.7581973  98.4168777
  72.1114444  64.3329557  99.4344517  71.5560837  66.4036608  99.5058674
  72.3031060  66.4198898 100.2994638  71.7608354  67.2071764  98.7983779
  69.9160837  66.6506608 100.2278674  69.7550837  65.1956608 101.2528674
  70.5544485  65.1822614 101.9937691  68.7904697  65.2128671 101.7601389
  69.8219929  64.3031244 100.6307716  72.5370837  63.7686608  96.8318674
  71.7130837  63.5816608  95.9348674  73.3960837  62.8346608  97.2388674
  74.1250945  63.0795824  97.8935857  73.3640837  61.4626608  96.7128674
  73.4484051  61.4842084  95.6263478  74.5270837  60.6356608  97.2788674
  75.4456227  61.0725798  96.8870931  74.5018548  60.7548256  98.3620402
  74.4810837  59.1476608  96.9288674  73.7959371  58.6683910  97.6281352
  74.0914388  59.0512498  95.9154667  75.8430837  58.4766608  97.0138674
  76.6130837  58.5766608  96.0308674  76.1430837  57.8446608  98.0558674
  72.0230837  60.7926608  97.0248674  71.3490837  60.2866608  96.1298674
  71.6570837  60.8066608  98.3028674  72.3158183  61.1555962  98.9843454
  70.3770837  60.2896608  98.7788674  69.9249726  59.6449767  98.0251584
  70.6020837  59.4676608 100.0568674  71.0766490  60.1205892 100.7893778
  69.6305069  59.1466972 100.4325279  71.4830837  58.2466608  99.8188674
  71.1960837  57.4826608  98.8708674  72.4570837  58.0426608 100.5808674
  69.4310837  61.4766608  99.0068674  69.7410837  62.5916608  98.5928674
  68.2790837  61.2356608  99.6298674  68.0595769  60.2880762  99.9018959
  67.2930837  62.2836608  99.9058674  67.7441267  63.2640822  99.7527878
  66.0880837  62.1476608  98.9698674  65.4061856  62.9662720  99.2000629
  66.4637622  62.2633867  97.9532194  65.3510837  60.8276608  99.0888674
  65.7470837  59.7156608  98.3468674  66.5969242  59.8126375  97.6712446
  65.0810837  58.5006608  98.4558674  65.4051990  57.6389829  97.8722903
  63.9990837  58.3896608  99.3108674  63.3330837  57.1916608  99.4158674
  63.7027179  56.5065115  98.8541373  63.5850837  59.4776608 100.0618674
  62.7354314  59.3882361 100.7387681  64.2590837  60.6876608  99.9488674
  63.9378654  61.5474200 100.5368580  66.8420837  62.2016608 101.3548674
  67.0100837  61.1666608 102.0018674  66.2800837  63.2986608 101.8538674
  66.2715738  64.1437506 101.3008303  65.6690837  63.3326608 103.1788674
  66.0323970  62.4909522 103.7684684  66.0150837  64.6276608 103.9118674
  65.4744019  65.3757764 103.3321387  65.5847761  64.5624568 104.9112091
  67.4820837  65.0286608 104.0158674  67.9140122  65.0615970 103.0156405
  67.6110837  66.3966608 104.6688674  67.1797588  66.3643859 105.6693753
  68.6641543  66.6697606 104.7363926  67.0818934  67.1373669 104.0693573
  68.2840837  63.9866608 104.7798674  68.2215001  63.0288137 104.2634261
  69.3263947  64.3002646 104.8376748  67.8800105  63.8829834 105.7868802
  64.1590837  63.2416608 103.0488674  63.5930837  63.7146608 102.0678674
  63.5230837  62.6366608 104.0478674  64.0722101  62.1344101 104.7307319
  62.0720837  62.6596608 104.2078674  61.6119212  63.1425180 103.3457778
  61.4960837  61.2366608 104.3408674  61.8271811  60.8119661 105.2885537
  59.9680837  61.2586608 104.2988674  59.6362139  61.6828278 103.3512154
  59.5867873  60.2420323 104.3946731  59.5902244  61.8668331 105.1207246
  61.9880837  60.4246608 103.2708674  61.6303608  59.5374876 103.3518509
  61.7980837  63.4606608 105.4768674  62.1940837  63.0516608 106.5608674
  61.1290837  64.6006608 105.3378674  60.7590874  64.8597496 104.4344987
  60.9760837  65.5446608 106.4478674  61.3722462  65.1356387 107.3773056
  61.6760837  66.8946608 106.1638674  61.4683498  67.5824492 106.9835582
  63.1790837  66.6956608 106.0378674  63.3876381  66.0083013 105.2180241
  63.6575740  67.6544354 105.8381207  63.5704302  66.2814623 106.9670548
  61.1320837  67.5736608 104.9118674  60.0661659  67.7649520 105.0356772
  61.6540975  68.5173820 104.7537804  61.2865096  66.9247741 104.0497771
  59.5140837  65.7846608 106.7838674  58.6440837  65.6296608 105.9278674
  59.2670837  66.1506608 108.0408674  60.0300326  66.1325977 108.7024429
  57.9450837  66.5486608 108.5188674  57.2331664  66.5159729 107.6941224
  57.4580837  65.6096608 109.6218674  58.2164778  65.6065680 110.4047646
  56.5308062  66.0248945 110.0166298  57.2140837  64.1866608 109.1478674
  56.6613021  64.2345386 108.2096558  58.1831890  63.7188064 108.9745199
  56.4270837  63.3636608 110.1588674  56.5862854  62.3087123 109.9356242
  56.8141111  63.5865260 111.1531713  54.9400837  63.6716608 110.1138674
  54.7913873  64.7131269 110.3990661  54.5837376  63.5200768 109.0949764
  54.1800837  62.7906608 111.0408674  54.5098342  62.9312828 111.9851077
  53.1970728  63.0170098 110.9903143  54.3173910  61.8255907 110.7765086
  57.9970837  67.9736608 109.0448674  59.0510837  68.4416608 109.4888674
  56.8500837  68.6496608 108.9978674  56.0376873  68.1877269 108.6148159
  56.7100837  70.0336608 109.4568674  57.2652988  70.7161419 108.8133964
  55.2280837  70.4606608 109.4658674  54.7262021  69.9546977 110.2906197
  55.0860837  71.9756608 109.6348674  55.5873555  72.4823312 108.8101788
  54.0296525  72.2440763 109.6371822  55.5400041  72.2807208 110.5777328
  54.6030837  70.0476608 108.2448674  53.6807670  70.3139089 108.2515134
  57.2720837  70.2186608 110.8658674  56.9940837  69.4156608 111.7528674
  58.0830837  71.2586608 111.0488674  58.2973054  71.8570716 110.2639388
  58.6830837  71.5756608 112.3488674  58.7780594  72.6607898 112.3885380
  57.9715173  71.2458250 113.1058224  60.0400837  70.9486608 112.6378674
  60.7160837  71.3606608 113.5758674  60.4500837  69.9626608 111.8428674
  59.8346147  69.6108192 111.1234894  61.7440837  69.3106608 112.0268674
  61.9515048  69.1958059 113.0907678  61.7440837  67.9266608 111.3768674
  61.5293970  68.0537120 110.3157987  62.7394513  67.4989707 111.4969698
  60.7140837  66.9936608 111.9938674  60.8800738  66.9732990 113.0709623
  59.7354759  67.4262001 111.7856953  60.7680837  65.5806608 111.4478674
  60.4510837  64.6456608 112.2108674  61.1070837  65.3886608 110.2628674
  62.8580837  70.1906608 111.4698674  62.5930837  71.1766608 110.7758674
  64.0990837  69.8256608 111.7778674  64.2574110  68.9161149 112.1874502
  65.2440837  70.7126608 111.5988674  64.9676851  71.5769841 110.9950063
  65.7150837  71.2066608 112.9778674  64.8136846  71.3804490 113.5655548
  66.2836000  70.3879690 113.4190397  66.5690837  72.4726608 112.9698674
  66.9971304  72.5918772 113.9651886  67.3682183  72.2954370 112.2500932
  65.8140837  73.7376608 112.5878674  64.5880837  73.8326608 112.8308674
  66.4660837  74.6586608 112.0528674  66.3800837  70.0066608 110.8528674
  66.8940837  68.9926608 111.3228674  66.7510837  70.5376608 109.6848674
  66.2332749  71.3190599 109.3088505  67.8800837  70.0166608 108.9118674
  68.0498118  68.9706254 109.1670176  67.6760837  70.1476608 107.3858674
  67.6192484  71.2039657 107.1230175  68.8430837  69.4976608 106.6368674
  68.9002753  68.4411644 106.8988699  68.6865947  69.5971403 105.5627558
  69.7741597  69.9913891 106.9151281  66.3440837  69.5146608 106.9488674
  66.4580346  68.4348836 107.0447694  65.5822021  69.8624668 107.6464825
  65.9240837  69.8546608 105.5308674  66.6853074  69.5067256 104.8325985
  64.9753537  69.3675183 105.3056945  65.8094772  70.9343098 105.4343112
  69.1170837  70.7976608 109.3238674  69.1290837  72.0226608 109.2498674
  70.1420837  70.0776608 109.7688674  70.0462152  69.0731477 109.8120179
  71.4010837  70.6706608 110.2008674  71.2934324  71.7532227 110.2684700
  71.8080837  70.1336608 111.5728674  71.7942608  69.0444610 111.5334709
  72.8052461  70.4739887 111.8520521  70.8890837  70.5346608 112.6898674
  70.8890837  71.8396608 113.1688674  71.5552447  72.5737223 112.7155650
  70.0520837  72.2126608 114.2138674  70.0555381  73.2417135 114.5732269
  69.2120837  71.2756608 114.7998674  68.5529740  71.5661370 115.6179737
  69.2130837  69.9676608 114.3418674  68.5595343  69.2277387 114.8039157
  70.0470837  69.5996608 113.2938674  70.0488788  68.5706800 112.9342908
  72.5070837  70.3466608 109.2098674  72.4180837  69.3836608 108.4458674
  73.5630837  71.1476608 109.2468674  73.5591734  71.9692575 109.8342879
  74.7470837  70.8746608 108.4538674  75.1742662  69.9368265 108.8089464
  74.4316775  70.7600302 107.4168148  75.8010837  71.9556608 108.5308674
  75.6210837  72.9636608 109.2138674  76.9140837  71.7176608 107.8438674
  77.0561074  70.7966061 107.4545258  77.9500837  72.7246608 107.6348674
  77.5964195  73.6975453 107.9762127  79.2620837  72.3866608 108.3798674
  79.9874044  73.1767482 108.1855171  79.0260837  72.2716608 109.8838674
  78.3011698  71.4814041 110.0790437  79.9656324  72.0333650 110.3824279
  78.6427173  73.2179939 110.2654225  79.8020837  71.1546608 107.8838674
  80.6159624  70.9511475 108.3505409  78.2470837  72.8256608 106.1458674
  78.1450837  71.8356608 105.4238674  78.6190837  74.0216608 105.6988674
  78.5522666  74.8193901 106.3147105  79.0070837  74.2496608 104.3118674
  79.2487357  73.3040973 103.8264673  77.9160837  74.9866608 103.4928674
  77.0401585  74.3400338 103.4406278  77.5240837  76.3246608 104.1148674
  78.3994569  76.9720422 104.1670191  76.7574263  76.7997475 103.5027975
  77.1350983  76.1588335 105.1195021  78.3830837  75.1966608 102.0498674
  79.1000343  76.0176689 102.0551899  78.8821294  74.2812417 101.7319665
  77.2570837  75.5166608 101.0898674  76.7578257  76.4322732 101.4068771
  77.6616338  75.6525889 100.0868908  76.5399192  74.6958464 101.0836555
  80.3470837  74.9796608 104.2908674  80.4910837  76.0386608 104.9008674
  81.3230837  74.3786608 103.6088674  81.1214752  73.4895052 103.1742920
  82.6630837  74.9346608 103.4568674  82.7903768  75.7629158 104.1539249
  83.4003170  74.1615758 103.6734919  82.8790837  75.4396608 102.0478674
  82.2930837  74.9146608 101.1018674  83.7420837  76.4426608 101.9128674
  84.2711933  76.7463570 102.7177966  83.9520837  77.1376608 100.6418674
  83.7175720  76.4888260  99.7979972  83.0190837  78.3426608 100.6038674
  82.1808188  78.1029376 101.2580417  83.5792587  79.1783135 101.0233774
  82.4980837  78.7216608  99.2358674  83.2296163  79.3414462  98.7173822
  82.3029659  77.8235908  98.6497775  80.9640837  79.6496608  99.4268674
  80.7980837  80.2426608  97.7528674  80.7325689  79.3945966  97.0712561
  79.8945117  80.8464564  97.6686708  81.6655862  80.8498282  97.4942395
  85.4080837  77.5976608 100.5088674  85.9490837  78.1986608 101.4308674
  86.0350837  77.2856608  99.3728674  85.5110959  76.8082604  98.6534058
  87.4330837  77.6466608  99.0938674  87.7367223  78.4629714  99.7492602
  88.3700837  76.4496608  99.3328674  88.0053582  75.6451959  98.6941885
  89.3572744  76.7632019  98.9933874  88.4610837  75.9566608 100.7638674
  89.0993978  76.6482723 101.3137124  87.4565594  75.9759266 101.1865515
  89.0310837  74.5436608 100.8708674  89.9476232  74.4946618 100.2829443
  89.2599044  74.3409871 101.9171293  88.1020837  73.5116608 100.3828674
  88.3398143  73.1031664  99.4902780  86.9930837  73.0846608 101.0078674
  86.2470837  72.1346608 100.4388674  86.5219368  71.7472042  99.5475576
  85.4113426  71.8078520 100.9023676  86.6070837  73.5866608 102.1858674
  87.1575613  74.3085868 102.6284704  85.7668694  73.2415442 102.6274930
  87.5820837  78.0286608  97.6298674  86.8160837  77.5456608  96.7988674
  88.5890837  78.8646608  97.2998674  89.4120837  79.7336608  98.1628674
  89.7874553  79.1514512  99.0044305  88.7987945  80.5545847  98.5344307
  90.5080837  80.2046608  97.2538674  91.3814014  79.5645156  97.3788857
  90.7716335  81.2314948  97.5073527  89.9690837  80.1216608  95.8758674
  90.8211461  79.9063422  95.2310987  89.4442223  81.0007895  95.5020321
  89.0230837  78.9226608  95.9038674  88.1526137  79.0210064  95.2552471
  89.7740837  77.6456608  95.5538674  90.4640837  77.0956608  96.4128674
  89.6280837  77.1756608  94.3158674  88.9858683  77.6305928  93.6828622
  90.3220837  75.9676608  93.8538674  90.1616456  75.1557872  94.5632475
  89.7880837  75.5316608  92.4788674  88.7002911  75.5148564  92.5461277
  90.0935729  76.2517440  91.7197517  90.2710837  74.1496608  92.0608674
  91.1700837  74.1076608  91.0868674  89.8200837  73.1346608  92.5858674
  90.1543643  72.2274716  92.2936962  89.1172664  73.2124371  93.3070466
  91.8350837  76.2326608  93.8128674  92.2650837  77.3316608  93.4578674
  92.6250837  75.2356608  94.2108674  92.2049450  74.3634458  94.4986586
  94.0840837  75.3776608  94.3248674  94.2749965  76.2814307  94.9035309
  94.6780837  74.1876608  95.0698674  94.5028826  73.2762449  94.4982681
  95.7504955  74.3360666  95.1963939  94.2061929  74.0985979  96.0483796
  94.7720837  75.5456608  92.9648674  95.7310837  76.3116608  92.8418674
  94.2920837  74.8136608  91.9608674  93.5769149  74.1267916  92.1528144
  94.8220837  74.9026608  90.5968674  95.9057267  75.0171013  90.6237084
  94.4830837  73.6246608  89.8178674  94.6670260  72.7824886  90.4849585
  93.4218230  73.6685894  89.5731310  95.2900837  73.4456608  88.5418674
  95.0523626  74.2680386  87.8671199  96.3490659  73.4807624  88.7976537
  94.9770837  72.1216608  87.8578674  95.4437700  71.3195366  88.4296189
  93.8959646  71.9828615  87.8539177  95.4980837  72.0936608  86.4248674
  95.1514886  72.9941655  85.9178529  96.5875908  72.0922693  86.4576034
  95.0220837  70.8916608  85.6828674  94.0125551  70.8929847  85.6520467
  95.3876900  70.9104760  84.7415502  95.3434999  70.0571275  86.1522765
  94.3260837  76.1446608  89.8348674  95.0280837  76.6506608  88.9528674
  93.1280837  76.6226608  90.1758674  92.6006526  76.1397334  90.8890973
  92.5190837  77.7896608  89.5318674  93.2959136  78.4602579  89.1645337
  91.6550837  77.3466608  88.3478674  92.2556414  76.7128698  87.6953809
  90.8121015  76.7738974  88.7344202  91.1150837  78.5176608  87.5288674
  91.2640837  79.6906608  87.8928674  90.4830837  78.1976608  86.4048674
  90.1024607  78.9263247  85.8181181  90.3861723  77.2272062  86.1423281
  91.6810837  78.5726608  90.5478674  90.5570837  78.1856608  90.8608674
  92.2210837  79.6936608  91.0268674  93.1340974  79.9797728  90.7033782
  91.5780837  80.4836608  92.0878674  91.3760706  79.8450445  92.9477855
  92.4870837  81.6416608  92.5378674  92.7849083  82.2056003  91.6539149
  91.9253045  82.2904340  93.2098774  93.7450837  81.1646608  93.2588674
  93.8040837  80.0446608  93.7828674  94.7630837  82.0256608  93.2948674
  95.6227694  81.7674155  93.7578466  94.6696168  82.9319551  92.8589830
  90.1930837  81.0356608  91.7318674  89.4250837  81.3686608  92.6318674
  89.8720837  81.1266608  90.4398674  90.5691230  80.9247466  89.7373959
  88.5600837  81.6226608  89.9978674  88.2450909  82.4455697  90.6395056
  88.6250837  82.1266608  88.5508674  88.7378491  81.2542936  87.9071604
  87.6761339  82.6172128  88.3341811  89.7750837  83.1036608  88.2918674
  89.8887477  83.7186604  89.1845917  90.6783915  82.5125605  88.1410774
  89.5480837  84.0036608  87.0798674  90.4073749  83.9201896  86.4144726
  88.6512070  83.6702592  86.5577995  89.3780837  85.4126608  87.4538674
  88.4296213  85.7007529  87.6475715  90.3560837  86.3226608  87.5558674
  91.6320837  86.0156608  87.3148674  91.8798256  85.0738084  87.0472146
  92.3443266  86.7265440  87.4012083  90.0540837  87.5696608  87.9068674
  89.0934952  87.8200362  88.0930982  90.7867535  88.2603890  87.9855325
  87.4380837  80.5826608  90.1668674  86.2660837  80.9516608  90.2598674
  87.7990837  79.2986608  90.2188674  88.7526725  79.0466583  90.0014680
  86.8430837  78.2196608  90.5198674  85.8581061  78.4782939  90.1312452
  87.2970837  76.9086608  89.8698674  88.3068852  76.7023559  90.2246048
  86.6272843  76.1145927  90.1999048  87.2970837  76.9726608  88.3468674
  86.6260837  77.8506608  87.7578674  87.9730837  76.1216608  87.7338674
  86.6540837  78.0176608  92.0228674  87.4900837  78.4426608  92.8148674
  85.5500837  77.3676608  92.3988674  84.9193161  77.0320813  91.6849921
  85.1960837  77.1356608  93.8068674  85.9604858  77.5638612  94.4552756
  83.8540837  77.7896608  94.1358674  83.1886588  77.3555991  93.3896105
  83.5747509  77.4277773  95.1253691  83.7360837  79.3106608  94.0988674
  84.0589199  79.6764283  93.1241409  82.2890837  79.7146608  94.3378674
  81.9656566  79.3496183  95.3126688  82.2055205  80.8011287  94.3113081
  81.6577873  79.2831219  93.5611181  84.6500837  79.9446608  95.1328674
  85.6831974  79.6663797  94.9246961  84.5508070  81.0292841  95.0899988
  84.3731673  79.5939935  96.1270750  85.0970837  75.6486608  94.1568674
  84.4860837  74.8706608  93.4218674  85.6930837  75.2766608  95.2878674
  86.3402586  75.9142082  95.7292258  85.4750837  73.9676608  95.9088674
  85.0087248  73.2930627  95.1908660  86.8020837  73.3576608  96.3618674
  87.2945771  74.0779194  97.0151492  86.5757398  72.4523978  96.9252211
  87.7230837  73.0146608  95.1998674  87.2790837  73.0566608  94.0328674
  88.9060837  72.7006608  95.4598674  84.5360837  74.1236608  97.1028674
  84.6460837  75.0826608  97.8648674  83.6070837  73.1826608  97.2468674
  83.5484538  72.4448404  96.5596389  82.6780837  73.1526608  98.3788674
  82.9087321  73.9717123  99.0600833  81.2340837  73.3006608  97.9098674
  80.9359785  72.4932325  97.2410684  80.6031793  73.2872201  98.7986188
  80.9370837  74.5846608  97.1918674  81.2060837  74.7206608  95.8388674
  81.6643399  73.8921392  95.2988182  80.8980837  75.8956608  95.1728674
  81.1230508  75.9962575  94.1110902  80.3040837  76.9426608  95.8568674
  80.0634895  77.8692778  95.3357195  80.0160837  76.8116608  97.2028674
  79.5446276  77.6317932  97.7443580  80.3270837  75.6386608  97.8608674
  80.0941728  75.5297113  98.9201041  82.7670837  71.8266608  99.1188674
  83.1090837  70.8016608  98.5298674  82.4430837  71.8576608 100.4078674
  82.4009946  72.7474558 100.8838849  82.1500837  70.6486608 101.1728674
  82.0002521  69.8113740 100.4912512  83.2800837  70.2926608 102.1448674
  83.3921525  71.1023621 102.8659254  82.9700837  68.9926608 102.8838674
  82.8583291  68.1823496 102.1634464  83.7858517  68.7597438 103.5682441
  82.0444933  69.1067032 103.4481167  84.5070837  70.1476608 101.4208674
  85.2140860  69.9246799 102.0308081  80.8720837  70.8956608 101.9558674
  80.7850837  71.8746608 102.6878674  79.8830837  70.0226608 101.7868674
  79.9866094  69.2901381 101.0992684  78.6260837  70.1066608 102.5248674
  78.6692859  70.9301588 103.2376673  77.4210837  70.3046608 101.5838674
  77.3789571  69.4690850 100.8851980  76.1190837  70.3696608 102.3778674
  76.1602785  71.2053344 103.0764755  75.2822438  70.5096945 101.6936231
  75.9836430  69.4404373 102.9313100  77.6080837  71.5886608 100.7648674
  77.6634774  72.4100612 101.4792438  78.5624730  71.4931836 100.2470598
  76.5130837  71.8696608  99.7568674  75.5583968  71.9657331 100.2740162
  76.7343175  72.7969037  99.2283077  76.4573910  71.0488537  99.0418331
  78.4550837  68.8316608 103.3498674  78.3890837  67.7356608 102.7918674
  78.4160837  68.9946608 104.6738674  78.6367855  69.9052486 105.0509879
  78.0380837  67.9326608 105.6038674  78.1807702  66.9643883 105.1240880
  78.8870837  67.9776608 106.8768674  78.8293551  68.9907290 107.2749370
  78.4466783  67.2816617 107.5908200  80.3410837  67.6086608 106.6418674
  80.8100837  67.6396608 105.4858674  81.0260837  67.2816608 107.6328674
  76.5910837  68.1686608 105.9838674  76.2580837  69.2586608 106.4298674
  75.7350837  67.1646608 105.7908674  76.0445265  66.3438323 105.2902827
  74.3450837  67.2086608 106.2648674  74.1118473  68.2193524 106.5998337
  73.3590837  66.8196608 105.1598674  73.8716646  66.0176513 104.6286981
  72.4708259  66.4206628 105.6496620  72.9480837  67.9066608 104.1668674
  73.8265759  68.4926633 103.8967684  72.3520837  67.2816608 102.9158674
  71.4732159  66.6958363 103.1851251  72.0641517  68.0679680 102.2180732
  73.0909222  66.6323913 102.4461151  71.9540837  68.8706608 104.7868674
  72.4045526  69.3481186 105.6570463  71.6811293  69.6318856 104.0560227
  71.0614101  68.3255531 105.0936090  74.1830837  66.2536608 107.4328674
  74.8020837  65.1906608 107.4648674  73.3470837  66.6456608 108.3878674
  72.9706893  67.5824289 108.3580013  72.9800837  65.7876608 109.5108674
  73.1129436  64.7406203 109.2385558  73.8690837  66.0956608 110.7238674
  74.8979383  66.1737881 110.3725079  73.5493813  67.0566170 111.1269227
  73.7840837  65.0326608 111.8158674  73.2940837  63.9036608 111.5578674
  74.2230837  65.3366608 112.9538674  71.5040837  66.0246608 109.8228674
  71.0950837  67.1556608 110.0838674  70.7040837  64.9616608 109.7538674
  71.0922508  64.0653761 109.4967693  69.2640837  65.0536608 109.9788674
  69.0352780  65.9462970 110.5610596  68.5230837  65.1386608 108.6408674
  68.8100627  66.0582495 108.1308685  68.7539563  64.2839447 108.0050543
  67.0300837  65.1756608 108.7848674  66.3990837  66.3136608 109.2748674
  67.0007293  67.1825831 109.5415067  65.0210837  66.3516608 109.4258674
  64.5349990  67.2503868 109.8054906  64.2610837  65.2406608 109.0918674
  63.1781440  65.2650968 109.2132939  64.8780837  64.0996608 108.6038674
  64.2813246  63.2282917 108.3342478  66.2560837  64.0676608 108.4588674
  66.7440721  63.1672273 108.0857900  68.7470837  63.8686608 110.7958674
  69.0200837  62.7126608 110.4638674  68.0150837  64.1806608 111.8678674
  67.9686250  65.1506527 112.1454581  67.2650837  63.1976608 112.6518674
  67.4044910  62.2085128 112.2156896  67.7350837  63.1606608 114.1088674
  67.6145823  64.1692874 114.5041534  67.0667585  62.4813576 114.6380069
  69.1720837  62.7096608 114.3028674  69.7632228  63.1086893 113.4785910
  69.5312305  63.1284448 115.2429396  69.3090837  61.1926608 114.3378674
  68.9293660  60.8284792 115.2924800  68.7175041  60.7686014 113.5265064
  70.7700837  60.7716608 114.1768674  71.3492016  61.2985530 114.9352260
  70.8246549  59.6984349 114.3593703  71.3280837  61.0756608 112.8238674
  71.2780054  62.0701382 112.6547328  72.2913882  60.7750533 112.7816819
  70.7918660  60.5871870 112.1210424  65.8020837  63.6106608 112.6168674
  65.4350837  64.6656608 113.1378674  64.9750837  62.7816608 111.9918674
  65.3404533  61.9406627 111.5683976  63.5480837  63.0396608 111.8918674
  63.2943359  63.8835497 112.5333989  63.3032182  63.2833214 110.8580542
  62.7400837  61.8386608 112.3178674  63.2830837  60.7926608 112.6718674
  61.4270837  62.0106608 112.2628674  61.0717108  62.9172807 111.9948194
  60.4700837  60.9696608 112.6128674  60.7330052  60.5176057 113.5692239
  59.0700837  61.5876608 112.7308674  59.2127949  62.6126450 113.0731248
  58.6504545  61.5961609 111.7249156  58.1190837  60.8696608 113.6688674
  57.6657052  60.0364644 113.1319013  58.6740264  60.4895655 114.5265785
  57.0130837  61.7826608 114.1718674  55.8380837  61.5876608 113.8538674
  57.3870837  62.7946608 114.9538674  56.6926133  63.4323082 115.3161077
  58.3633218  62.9194443 115.1807807  60.4900837  59.8556608 111.5578674
  60.4680837  58.6726608 111.8958674  60.5610837  60.2566608 110.2878674
  60.6294061  61.2476252 110.1050536  60.5000837  59.3436608 109.1468674
  60.0945604  58.3791531 109.4524407  59.5860837  59.9406608 108.0718674
  60.1270696  60.8346305 107.7616231  59.5263100  59.2442115 107.2355149
  58.1700837  60.3286608 108.5158674  58.2381554  60.9120594 109.4340793
  57.4700837  61.1506608 107.4438674  57.4012201  60.5677121 106.5254299
  56.4679837  61.4130758 107.7830349  58.0388460  62.0609239 107.2540495
  57.3530837  59.0906608 108.8768674  57.8415914  58.5574256 109.6924163
  56.3531721  59.3927114 109.1883854  57.2803098  58.4366394 108.0079261
  61.8610837  59.0236608 108.5128674  61.9300837  58.1726608 107.6348674
  62.9340837  59.6876608 108.9388674  62.8682900  60.3249190 109.7196827
  64.2220837  59.5586608 108.2548674  64.3969598  58.5219739 107.9671210
  64.2130837  60.4216608 106.9918674  63.5408505  59.9828214 106.2545603
  63.8734543  61.4274157 107.2392719  65.8060837  60.6206608 106.1618674
  65.3549334  61.3946213 105.1788381  65.4090837  59.9416608 109.1278674
  65.3080837  60.8166608 109.9948674  66.5370837  59.2846608 108.8598674
  66.5159129  58.5832851 108.1334218  67.7920837  59.4996608 109.5798674
  67.8021726  60.4876060 110.0402604  67.9280837  58.4466608 110.6798674
  66.9994616  58.4680952 111.2502188  68.0248205  57.4827659 110.1802189
  69.1040837  58.6496608 111.6198674  70.0092948  58.4690695 111.0401428
  69.0869906  59.6876908 111.9519830  69.0860837  57.7246608 112.8378674
  70.1390837  57.6056608 113.5028674  68.0380837  57.1056608 113.1388674
  68.9440837  59.4116608 108.5738674  69.1410837  58.3656608 107.9538674
  69.6740837  60.5146608 108.3888674  69.4614540  61.3450605 108.9230248
  70.7610837  60.5816608 107.3968674  71.1821736  59.5877392 107.2455317
  70.2370837  61.1016608 106.0528674  69.3388169  60.5094778 105.8781240
  69.9628181  62.1495214 106.1747961  71.1910837  60.9566608 104.8478674
  72.2007216  60.7842065 105.2206833  70.7750837  59.7966608 103.9568674
  69.7656528  59.9686343 103.5832726  71.4645611  59.7180468 103.1163071
  70.7964344  58.8706601 104.5314692  71.2670837  62.2316608 104.0228674
  71.6304740  63.0479021 104.6472047  71.9495859  62.0834079 103.1860203
  70.2757495  62.4789603 103.6431328  71.9110837  61.4736608 107.8578674
  71.6930837  62.5406608 108.4308674  73.1330837  61.0176608 107.5858674
  73.2196281  60.0860466 107.2054669  74.3520837  61.7806608 107.8308674
  74.1228258  62.8445570 107.8914049  74.9830837  61.3406608 109.1528674
  74.2265066  61.4105275 109.9344100  75.3052214  60.3043105 109.0513512
  76.0930837  62.1476608 109.4978674  76.4630446  61.8440928 110.3300785
  75.3040837  61.5356608 106.6598674  75.7400837  60.4076608 106.4478674
  75.5980837  62.5806608 105.8878674  75.2000216  63.4826782 106.1069801
  76.4530837  62.4666608 104.6968674  77.0624812  61.5652080 104.7610291
  75.5920837  62.3856608 103.4358674  76.2230951  62.3009644 102.5511356
  74.9234814  61.5264015 103.4882541  74.5350837  63.8276608 103.1618674
  73.9857756  63.3851495 102.0343291  77.4220837  63.6376608 104.5668674
  77.2260837  64.6856608 105.1808674  78.4600837  63.4336608 103.7538674
  78.5669124  62.5189378 103.3391762  79.4700837  64.4526608 103.4578674
  79.0748557  65.4444100 103.6777026  80.7170837  64.2216608 104.3158674
  80.4056423  64.0703482 105.3494089  81.2268516  63.3279418 103.9560020
  81.5990837  65.3286608 104.2458674  82.3704639  65.1581823 104.7913118
  79.8280837  64.4016608 101.9678674  80.2460837  63.3596608 101.4678674
  79.6660837  65.5286608 101.2728674  79.4122292  66.3726514 101.7661594
  79.8520837  65.6016608  99.8238674  80.2918374  64.6767567  99.4506807
  78.5050837  65.8316608  99.1068674  78.1650812  66.8439835  99.3252735
  78.6400837  65.6556608  97.5988674  78.9796272  64.6433605  97.3796458
  77.6732285  65.8246838  97.1248197  79.3640760  66.3728978  97.2122063
  77.5330837  64.9076608  99.6018674  76.6963688  65.0529763  99.1542160
  80.7730837  66.7566608  99.4578674  80.5550837  67.8796608  99.9048674
  81.7900837  66.4746608  98.6468674  82.0043055  65.5098926  98.4384672
  82.6360837  67.5136608  98.0638674  82.6101724  68.4018345  98.6951955
  84.0870837  67.0386608  97.9468674  84.0770880  66.1002882  97.3923800
  84.6437921  67.7872667  97.3831608  84.7550837  66.8216608  99.3008674
  84.2970837  67.3836608 100.3238674  85.7610837  66.0836608  99.3398674
  82.0990837  67.8886608  96.6828674  81.8580837  67.0136608  95.8538674
  81.8970837  69.1886608  96.4518674  82.0307405  69.8459115  97.2070208
  81.4620837  69.7026608  95.1548674  81.2571406  68.8674167  94.4851922
  80.1960837  70.5436608  95.2868674  80.4426051  71.4181681  95.8889998
  79.9439354  70.8595299  94.2745690  79.0220837  69.8316608  95.8958674
  78.8430837  69.8026608  97.2758674  79.5743814  70.2989798  97.9138099
  77.7570837  69.1566608  97.8408674  77.6299233  69.1416626  98.9233216
  76.8250837  68.5346608  97.0248674  75.7490837  67.8886608  97.5848674
  75.7435570  67.9312412  98.5439065  76.9800837  68.5556608  95.6498674
  76.2508846  68.0660462  95.0043857  78.0710837  69.2046608  95.0948674
  78.1969240  69.2309465  94.0124750  82.5410837  70.5546608  94.5028674
  83.4000837  71.1196608  95.1838674  82.4780837  70.6426608  93.1768674
  81.8135009  70.0644818  92.6827641  83.3680837  71.4956608  92.3958674
  83.8719064  72.2009452  93.0568030  84.4280837  70.6606608  91.6718674
  83.9406191  69.7544512  91.3123376  84.7797964  71.2451570  90.8217130
  85.6110837  70.2846608  92.5528674  85.9328729  71.1749384  93.0931991
  85.2817003  69.5275892  93.2645212  86.7680837  69.7426608  91.7388674
  87.0545709  70.4796923  90.9886617  87.6128824  69.5511645  92.4004895
  86.4120837  68.4946608  91.0588674  85.4739181  68.1510333  91.2067351
  87.2310837  67.7926608  90.2718674  88.4810837  68.2036608  90.0488674
  88.8138651  69.0547913  90.4789062  89.0885554  67.6616872  89.4510861
  86.7980837  66.6696608  89.6998674  85.8525923  66.3548429  89.8642926
  87.4173807  66.1384822  89.1045362  82.5690837  72.3246608  91.3968674
  81.8090837  71.7896608  90.5888674  82.7470837  73.6366608  91.4778674
  83.3220083  74.0014513  92.2238493  82.1420837  74.5756608  90.5548674
  81.3606880  74.0885719  89.9715456  81.5200837  75.7146608  91.3438674
  80.9996987  75.2626381  92.1882454  82.3436052  76.3271713  91.7109414
  80.5570837  76.5806608  90.5638674  81.1010208  77.3783709  90.0580098
  80.0289076  75.9770191  89.8257964  79.3620837  77.3066608  91.6998674
  78.7520837  78.6126608  90.6728674  78.3129533  78.1900152  89.7691893
  77.9936643  79.1776585  91.2147883  79.5734259  79.2757700  90.4012342
  83.2590837  75.0616608  89.6448674  84.1840837  75.7296608  90.0978674
  83.1790837  74.6816608  88.3718674  82.3362866  74.2233588  88.0560327
  84.2830837  74.8456608  87.4158674  84.8104709  75.7791865  87.6120606
  85.2800837  73.6786608  87.5528674  85.9448825  73.7303125  86.6906181
  85.8518775  73.8589439  88.4631695  84.6400837  72.2926608  87.6198674
  84.1036302  72.2127877  88.5653508  83.9343414  72.2053198  86.7937915
  85.6730837  71.1746608  87.5258674  86.2255663  71.2841454  86.5926605
  86.3610694  71.2601636  88.3669765  85.0570837  69.8396608  87.5548674
  84.1178413  69.7995730  87.9240773  85.6270837  68.7026608  87.1318674
  84.9480837  67.5586608  87.2148674  84.0121894  67.5568611  87.5946024
  85.3725883  66.6988549  86.8976460  86.8610837  68.6826608  86.6168674
  87.3868228  69.5415935  86.5398411  87.2616848  67.8087156  86.3072913
  83.7620837  74.9366608  85.9828674  82.5510837  74.9126608  85.7418674
  84.5370837  75.0436608  85.0308674  80.8550837  96.8976608  85.2188674
  79.9690837  96.3466608  84.1448674  78.5100837  96.3356608  84.6228674
  78.2500837  96.2166608  85.8348674  80.4350837  94.9386608  83.7488674
  80.5620837  93.9526608  84.9308674  81.0790837  92.2826608  84.4598674
  79.9990837  91.1796608  85.4128674  82.6180837  92.0896608  85.3888674
  83.8320837  92.5616608  84.6068674  84.9270837  92.6096608  85.5108674
  84.1920837  91.5436608  83.5338674  84.0740837  92.0716608  82.2248674
  85.6100837  91.0966608  83.8728674  86.4420837  91.0546608  82.7418674
  86.0680837  92.2276608  84.7718674  77.5710837  96.4386608  83.8188674
  90.7440837  93.8706608  86.3548674  89.8540837  94.5276608  85.5218674
  88.6560837  93.9106608  85.2218674  88.3490837  92.6926608  85.7338674
  89.2440837  92.0286608  86.5748674  90.4580837  92.6346608  86.8908674
  91.3570837  92.0446608  87.6828674  88.6800837  90.8546608  86.9238674
  87.4630837  90.7566608  86.3358674  87.2500837  91.8926608  85.5938674
  83.3000837  92.3796608  82.1158674  86.1830837  91.6246608  82.1818674
  92.0990837  92.4416608  87.8618674  91.1940837  91.2676608  88.0138674
  82.5570837  92.5896608  86.2178674  82.7330837  91.1566608  85.6278674
  81.7020837  96.9616608  85.0868674  80.5170837  97.1496608  85.9678674
  81.2000837  94.3096608  85.5678674  79.7070837  93.8986608  85.3858674
  80.2190837  90.2566608  85.2108674  80.1260837  91.3416608  86.3608674
  79.0740837  91.3496608  85.1778674  79.8110837  94.5726608  83.1028674
  81.2950837  95.0076608  83.3048674  80.0250837  96.9136608  83.3598674
  86.8480837  90.0116608  86.4238674  83.6430837  93.4216608  84.2008674
  83.5790837  90.7916608  83.5308674  85.6410837  90.2056608  84.2558674
  90.0670837  95.4006608  85.1578674  86.3990837  92.9766608  84.2528674
  39.2370837  80.4596608  91.1518674  37.9300837  80.4036608  91.2558674
  37.6980837  79.6446608  92.3788674  38.9140837  79.2796608  92.8958674
  39.8910837  79.8156608  92.0898674  39.9330837  81.2096608  90.0348674
  41.0230837  81.1666608  90.0788674  39.6330837  82.2576608  90.0218674
  39.6170837  80.8396608  89.0598674  44.1060837  57.0386608 108.5818674
  43.5710837  56.0676608 107.8818674  42.2220837  56.3326608 107.8828674
  42.0240837  57.4816608 108.6058674  43.2510837  57.9186608 109.0458674
  45.5970837  57.1356608 108.8338674  45.8950837  57.9976608 109.4328674
  46.1510837  57.1646608 107.8948674  45.9700837  56.2356608 109.3228674
  87.1750837  63.8026608  29.3298674  87.2990837  65.0246608  29.7918674
  86.0190837  65.4116608  30.1138674  85.1810837  64.3676608  29.8178674
  85.9470837  63.3426608  29.3148674  88.3610837  62.9886608  28.8528674
  88.1030837  61.9906608  28.4968674  89.1070837  62.8876608  29.6408674
  88.8960837  63.5076608  28.0568674 104.6300837 103.2596608  72.9208674
 103.9050837 102.2326608  72.5428674 102.6520837 102.7516608  72.3118674
 102.7030837 104.0966608  72.5728674 103.9860837 104.4016608  72.9628674
 106.0960837 103.1316608  73.2788674 106.5670837 104.0706608  73.5748674
 106.6660837 102.7106608  72.4508674 106.2400837 102.4096608  74.0838674
  38.0070837  94.4506608 106.8808674  37.2650837  94.4896608 105.7998674
  36.0340837  94.0236608 106.1998674  36.1150837  93.7246608 107.5358674
  37.3940837  94.0076608 107.9528674  39.4580837  94.8846608 106.8878674
  39.9470837  94.7956608 107.8598674  39.5600837  95.9156608 106.5488674
  40.0400837  94.3156608 106.1618674  95.3640837  37.2486608  42.6318674
  96.4040837  37.9646608  42.9878674  96.0070837  38.6196608  44.1298674
  94.7150837  38.2466608  44.3968674  94.3220837  37.3636608  43.4198674
  95.3700837  36.3586608  41.4058674  94.4340837  35.8246608  41.2368674
  96.1760837  35.6266608  41.4578674  95.6020837  36.9326608  40.5078674
  28.1370837  57.5436608  62.1218674  28.0010837  56.2676608  61.8498674
  29.1370837  55.6766608  62.3508674  29.9090837  56.6626608  62.9098674
  29.2450837  57.8566608  62.7508674  27.0940837  58.5726608  61.7378674
  27.3450837  59.5936608  62.0298674  26.1230837  58.3246608  62.1668674
  26.9100837  58.5616608  60.6638674  81.9220837 133.9376608  78.0478674
  82.1610837 134.8436608  78.9658674  80.9990837 135.5726608  79.0538674
  80.1060837 135.0446608  78.1578674  80.7220837 133.9926608  77.5208674
  82.9530837 132.9086608  77.6318674  82.6100837 132.2206608  76.8568674
  83.2860837 132.3206608  78.4868674  83.8660837 133.3906608  77.2798674
 105.5450837  71.6156608  90.3418674 105.1500837  72.6756608  91.0058674
 106.2990837  73.1976608  91.5528674 107.3440837  72.3956608  91.1728674
 106.8350837  71.3836608  90.3938674 104.5840837  70.7296608  89.5758674
 105.0580837  69.8856608  89.0728674 104.0330837  71.3046608  88.8308674
 103.8030837  70.3416608  90.2298674 114.8860837  54.5306608  46.1288674
 114.1190837  54.3246608  47.1728674 112.9790837  55.0526608  46.9228674
 113.1370837  55.6706608  45.7088674 114.3720837  55.3206608  45.2158674
 116.2590837  53.9056608  45.9918674 116.7800837  54.1686608  45.0698674
 116.2010837  52.8186608  46.0518674 116.8980837  54.1756608  46.8328674
  69.8380837 115.0186608 123.3148674  70.9200837 115.3136608 123.9948674
  71.4440837 116.4176608 123.3638674  70.6200837 116.7276608 122.3118674
  69.5920837 115.8136608 122.2998674  68.9430837 113.8506608 123.6748674
  68.0800837 113.7296608 123.0188674  68.5820837 113.9366608 124.6998674
  69.5030837 112.9156608 123.6778674  57.8960837  51.8866608  94.2848674
  56.9700837  51.0406608  94.6698674  56.5560837  50.4206608  93.5138674
  57.2800837  50.9486608  92.4748674  58.1360837  51.8906608  92.9948674
  58.6290837  52.7886608  95.2568674  59.3710837  53.4386608  94.7908674
  59.1260837  52.2056608  96.0328674  57.9300837  53.4136608  95.8128674
  40.1760837  98.3156608  96.8588674  39.8420837  98.0226608  98.0938674
  38.7010837  97.2646608  97.9808674  38.4100837  97.1456608  96.6458674
  39.3720837  97.8296608  95.9428674  41.3940837  99.1506608  96.5208674
  41.5430837  99.3116608  95.4518674  42.3000837  98.7026608  96.9288674
  41.3470837 100.1246608  97.0088674  46.4930837  78.1976608 125.0338674
  46.4610837  79.1346608 124.1148674  46.2490837  80.3026608 124.8098674
  46.1630837  79.9866608 126.1408674  46.3230837  78.6266608 126.2618674
  46.7090837  76.7366608 124.6988674  46.7100837  76.0746608 125.5658674
  47.6450837  76.5936608 124.1588674  45.9520837  76.3806608 123.9988674
 100.8170837  80.6406608  27.9928674 101.4860837  79.6166608  27.5198674
 101.2440837  79.6316608  26.1658674 100.4210837  80.6946608  25.9018674
 100.1580837  81.3306608  27.0918674 100.8080837  80.9966608  29.4658674
 100.2070837  81.8746608  29.7098674 101.8200837  81.1636608  29.8338674
 100.4500837  80.1606608  30.0678674  32.2400837 102.6856608  46.5068674
  31.7960837 102.6446608  45.2728674  32.7300837 103.3366608  44.5388674
  33.7060837 103.7646608  45.4018674  33.3700837 103.3336608  46.6638674
  31.5020837 102.0346608  47.6588674  31.9930837 102.1516608  48.6268674
  31.3570837 100.9686608  47.4778674  30.4870837 102.4216608  47.7428674
  80.4570837 107.9026608 120.0248674  81.4890837 107.7146608 119.2358674
  82.5400837 107.4586608 120.0848674  82.0610837 107.5086608 121.3688674
  80.7180837 107.7966608 121.3058674  79.0740837 108.2176608 119.4938674
  78.3170837 108.3476608 120.2688674  78.7320837 107.4406608 118.8098674
  79.0870837 109.1156608 118.8758674  90.0180837 128.7756608  95.4838674
  89.1230837 127.8426608  95.7078674  87.9320837 128.3876608  95.2898674
  88.1910837 129.6506608  94.8258674  89.5400837 129.8796608  94.9598674
  91.4870837 128.5896608  95.8048674  92.1100837 129.4526608  95.5628674
  91.8930837 127.7206608  95.2868674  91.6290837 128.3516608  96.8588674
  36.3320837 117.2666608  75.6738674  36.4040837 118.3906608  75.0008674
  35.4720837 119.2136608  75.5888674  34.8810837 118.5126608  76.6088674
  35.4500837 117.2616608  76.6438674  37.2020837 116.0686608  75.3508674
  37.0300837 115.2046608  75.9958674  38.2600837 116.3276608  75.4038674
  37.0660837 115.7536608  74.3158674  51.6920837 105.9876608  70.6098674
  52.9190837 105.5476608  70.7598674  53.6930837 106.6816608  70.8428674
  52.8590837 107.7646608  70.7338674  51.5760837 107.2936608  70.5858674
  50.5040837 105.0566608  70.4768674  49.5470837 105.5676608  70.3578674
  50.4310837 104.3906608  71.3368674  50.6340837 104.3766608  69.6348674
  34.6490837 121.5136608  55.5578674  34.0610837 121.2156608  56.6918674
  32.7410837 121.5536608  56.5048674  32.6140837 122.0486608  55.2328674
  33.8550837 122.0136608  54.6408674  36.1310837 121.2966608  55.3278674
  36.4770837 121.5916608  54.3358674  36.4020837 120.2536608  55.4878674
  36.7240837 121.8326608  56.0688674 123.4530837 102.4486608 113.7968674
 124.2670837 102.2066608 112.7968674 123.6860837 101.1646608 112.1128674
 122.5250837 100.8346608 112.7628674 122.3950837 101.6746608 113.8438674
 123.7170837 103.5376608 114.8168674 122.9510837 103.6206608 115.5898674
 123.8190837 104.5086608 114.3328674 124.6800837 103.3906608 115.3048674
  58.4310837  96.1596608  23.4738674  57.3640837  96.9036608  23.6428674
  56.3260837  96.0096608  23.7638674  56.8490837  94.7466608  23.6578674
  58.2050837  94.8676608  23.4708674  59.8150837  96.7496608  23.2958674
  60.6040837  96.0076608  23.1658674  60.0810837  97.3846608  24.1418674
  59.8440837  97.4296608  22.4448674  24.6940837  69.7306608  90.4088674
  24.4820837  69.4546608  89.1438674  23.1170837  69.5186608  88.9928674
  22.5770837  69.8386608  90.2118674  23.6110837  69.9706608  91.1088674
  26.0840837  69.7686608  91.0118674  26.1030837  70.0126608  92.0748674
  26.7180837  70.4836608  90.4868674  26.5970837  68.8176608  90.8708674
  17.7370837  61.8156608  70.5918674  18.6200837  61.4366608  71.4858674
  17.9090837  60.6746608  72.3838674  16.6050837  60.6416608  71.9618674
  16.5170837  61.3826608  70.8068674  18.1010837  62.6846608  69.4058674
  17.2620837  62.9176608  68.7488674  18.8850837  62.2196608  68.8068674
  18.5500837  63.6226608  69.7318674  48.1950837  62.0096608  89.6238674
  47.3000837  62.0506608  88.6658674  48.0310837  62.0756608  87.5008674
  49.3590837  62.0476608  87.8408674  49.4410837  62.0046608  89.2128674
  47.8160837  61.9706608  91.0898674  48.6680837  61.9386608  91.7708674
  47.1750837  61.1156608  91.3058674  47.1990837  62.8286608  91.3568674
  57.5760837 109.9756608 117.8238674  58.1040837 109.3746608 118.8638674
  59.2840837 108.8406608 118.4018674  59.3960837 109.1626608 117.0738674
  58.2850837 109.8936608 116.7228674  56.2510837 110.7066608 117.8928674
  55.9400837 111.1566608 116.9488674  56.2750837 111.4886608 118.6518674
  55.4560837 110.0426608 118.2318674  73.4380837  26.5376608  85.3328674
  74.5920837  26.2006608  85.8598674  74.4830837  24.8536608  86.1168674
  73.2340837  24.4526608  85.7178674  72.5790837  25.5526608  85.2158674
  73.1260837  27.9536608  84.8948674  72.1270837  28.0816608  84.4748674
  73.8520837  28.3046608  84.1608674  73.2400837  28.6526608  85.7238674
 120.1020837  75.7646608  75.9948674 120.8950837  74.9776608  75.3068674
 121.7280837  75.8286608  74.6198674 121.3740837  77.1126608  74.9458674
 120.3260837  77.0476608  75.8328674 119.0140837  75.2316608  76.9048674
 118.4360837  76.0056608  77.4108674 119.4300837  74.5666608  77.6618674
 118.3220837  74.5936608  76.3538674 105.3720837  83.8536608  59.3338674
 105.3180837  84.7936608  58.4208674 104.7640837  84.1846608  57.3188674
 104.5130837  82.8776608  57.6478674 104.9120837  82.6866608  58.9488674
 105.9240837  84.0986608  60.7238674 105.9050837  83.2216608  61.3728674
 105.3840837  84.9036608  61.2218674 106.9490837  84.4666608  60.6768674
  73.4120837  40.1836608  46.5978674  73.2010837  40.4896608  47.8558674
  74.3890837  40.2116608  48.4908674  75.2670837  39.7426608  47.5478674
  74.6160837  39.7326608  46.3368674  72.3470837  40.3396608  45.5328674
  72.6680837  40.0456608  44.5318674  71.9890837  41.3686608  45.4858674
  71.4540837  39.7676608  45.7858674  43.8480837  42.7116608  97.8458674
  42.6610837  42.3646608  98.2838674  41.9580837  43.5426608  98.3718674
  42.7900837  44.5556608  97.9698674  44.0010837  43.9976608  97.6358674
  44.9530837  41.7046608  97.6028674  45.8840837  42.1416608  97.2388674
  44.6360837  40.9396608  96.8938674  45.1730837  41.1396608  98.5088674
  60.0620837  36.0856608  73.6288674  59.1070837  36.1136608  74.5278674
  57.9540837  35.8426608  73.8268674  58.2980837  35.6636608  72.5118674
  59.6600837  35.8246608  72.4078674  61.5150837  36.3366608  73.9768674
  62.1940837  36.2806608  73.1248674  61.8610837  35.6346608  74.7358674
  61.6410837  37.3106608  74.4498674  91.2310837  24.0546608 100.9188674
  90.1080837  24.7056608 101.1118674  89.1210837  23.8326608 100.7168674
  89.7290837  22.6766608 100.2998674  91.0870837  22.8416608 100.4388674
  92.5850837  24.6576608 101.2288674  93.4280837  23.9976608 101.0178674
  92.6470837  24.9656608 102.2728674  92.7340837  25.5866608 100.6778674
  50.7750837  54.1926608  63.8068674  51.7290837  53.4036608  64.2418674
  52.6550837  53.3756608  63.2258674  52.1870837  54.1726608  62.2128674
  50.9760837  54.6886608  62.6088674  49.5400837  54.5046608  64.6268674
  48.8350837  55.1756608  64.1338674  49.8090837  54.9396608  65.5888674
  49.0090837  53.5916608  64.8968674 127.9270837  58.5576608  71.7568674
 127.8770837  57.4226608  71.1018674 126.8770837  57.5946608  70.1738674
 126.3730837  58.8596608  70.3328674 127.0640837  59.4616608  71.3578674
 128.9070837  58.8036608  72.8868674 128.8310837  59.7946608  73.3368674
 129.9340837  58.6586608  72.5508674 128.7870837  58.0606608  73.6758674
  53.3630837 118.1726608  97.1808674  54.0910837 119.2616608  97.1128674
  53.2150837 120.2886608  97.3788674  51.9790837 119.7366608  97.5958674
  52.0980837 118.3726608  97.4628674  53.9420837 116.7916608  96.9498674
  53.2160837 115.9816608  97.0388674  54.7620837 116.5916608  97.6388674
  54.4100837 116.7236608  95.9668674  36.4600837 109.4176608  99.4778674
  36.6630837 110.7136608  99.4308674  35.4350837 111.2516608  99.1248674
  34.5440837 110.2166608  99.0038674  35.2260837 109.0456608  99.2358674
  37.5670837 108.4316608  99.7898674  37.2480837 107.3886608  99.7938674
  38.0270837 108.6516608 100.7528674  38.3910837 108.5336608  99.0828674
  79.3180837  90.7506608 121.6728674  78.6600837  91.8406608 121.3588674
  77.3460837  91.4456608 121.2668674  77.2940837  90.1026608 121.5388674
  78.5750837  89.6766608 121.7968674  80.8200837  90.7356608 121.8748674
  81.2260837  89.7566608 122.1318674  81.1160837  91.4426608 122.6498674
  81.3370837  91.0976608 120.9858674  97.6920837  94.1686608  49.2768674
  96.4430837  93.9076608  49.5798674  96.4380837  92.5816608  49.9438674
  97.7220837  92.1136608  49.8348674  98.5130837  93.1526608  49.4028674
  98.1490837  95.5376608  48.8168674  99.2170837  95.6036608  48.6008674
  97.9030837  96.3006608  49.5558674  97.6020837  95.8546608  47.9288674
 126.8150837  58.5566608  59.1368674 126.8000837  57.2456608  59.0948674
 125.5690837  56.9246608  58.5728674 124.9010837  58.0956608  58.3268674
 125.7220837  59.1346608  58.6978674 128.0040837  59.3406608  59.6538674
 127.8710837  60.4236608  59.6288674 128.9070837  59.0946608  59.0948674
 128.2480837  59.0516608  60.6768674  65.3860837  47.1876608  98.7878674
  66.4630837  46.5746608  99.2208674  67.4940837  47.1136608  98.4878674
  66.9580837  48.0436608  97.6348674  65.6000837  48.0746608  97.8458674
  64.0060837  46.8916608  99.3368674  63.2080837  47.4796608  98.8798674
  63.9710837  47.0496608 100.4148674  63.7590837  45.8356608  99.2238674
 104.2280837  27.9466608  63.8978674 104.5940837  27.2596608  62.8418674
 105.3880837  28.1186608  62.1198674 105.4510837  29.3046608  62.8058674
 104.6970837  29.1706608  63.9478674 103.3320837  27.3676608  64.9748674
 103.1130837  28.0576608  65.7918674 103.7670837  26.4626608  65.3998674
 102.3860837  27.0266608  64.5538674 109.0730837 123.2306608  56.6858674
 109.8410837 122.4776608  57.4358674 109.1440837 121.3026608  57.5878674
 107.9650837 121.4246608  56.8988674 107.9400837 122.6746608  56.3258674
 109.4650837 124.6336608  56.2678674 108.7250837 125.1376608  55.6448674
 110.4160837 124.6306608  55.7348674 109.6610837 125.2596608  57.1388674
  47.3530837  33.3186608  67.9718674  47.0810837  34.6016608  68.0038674
  48.2140837  35.2146608  67.5248674  49.1250837  34.2346608  67.2258674
  48.5490837  33.0216608  67.5208674  46.3620837  32.2646608  68.4208674
  46.7290837  31.2406608  68.3358674  45.4300837  32.3396608  67.8588674
  46.0540837  32.4316608  69.4528674 131.6840837  92.6646608  89.8978674
 132.0130837  93.3026608  88.7998674 132.4740837  92.3256608  87.9488674
 132.3910837  91.1256608  88.6068674 131.8800837  91.3676608  89.8598674
 131.1220837  93.3726608  91.1128674 130.8950837  92.7116608  91.9508674
 130.2160837  93.9246608  90.8598674 131.8040837  94.1466608  91.4648674
  99.6090837  58.2116608  98.6088674 100.2660837  57.7086608  99.6268674
  99.3290837  57.5826608 100.6248674  98.1310837  58.0306608 100.1308674
  98.3350837  58.4306608  98.8308674 100.2730837  58.5146608  97.2808674
  99.6000837  58.9296608  96.5288674 100.7400837  57.6216608  96.8648674
 101.1070837  59.2046608  97.4098674  45.8080837 107.9026608  79.9258674
  45.2740837 108.8146608  79.1478674  46.3420837 109.5296608  78.6578674
  47.4850837 108.9886608  79.1868674  47.1170837 107.9426608  80.0008674
  44.9750837 106.8856608  80.6778674  45.5580837 106.1916608  81.2848674
  44.3570837 106.3036608  79.9938674  44.2480837 107.3776608  81.3258674
  68.4680837  91.6856608  26.1688674  68.2260837  92.1636608  24.9718674
  66.8750837  92.4206608  24.9608674  66.3740837  92.0716608  26.1878674
  67.4180837  91.6006608  26.9498674  69.8550837  91.2666608  26.6128674
  69.9010837  90.8886608  27.6358674  70.5610837  92.0926608  26.5228674
  70.2640837  90.5046608  25.9488674  78.4520837  94.3256608 119.6208674
  78.2570837  95.0106608 118.5188674  78.2170837  94.0666608 117.5198674
  78.3950837  92.8366608 118.0998674  78.5440837  93.0276608 119.4528674
  78.5600837  94.9856608 120.9808674  78.7220837  94.2876608 121.8038674
  77.6690837  95.5736608 121.2018674  79.3640837  95.7216608 120.9948674
 119.1380837  76.8476608  44.9768674 118.6530837  77.9596608  45.4758674
 118.9530837  78.9246608  44.5438674 119.6190837  78.3156608  43.5118674
 119.7260837  76.9786608  43.8118674 119.0250837  75.5166608  45.6928674
 119.4750837  74.6806608  45.1558674 117.9820837  75.2706608  45.8968674
 119.4750837  75.5676608  46.6848674  63.3440837  25.1636608  75.9088674
  63.2900837  23.8916608  75.5908674  64.5980837  23.4656608  75.6198674
  65.3790837  24.5386608  75.9638674  64.5500837  25.6216608  76.1448674
  62.1060837  26.0336608  75.9958674  62.3070837  27.0696608  76.2718674
  61.3900837  25.6236608  76.7088674  61.5600837  26.0306608  75.0528674
  44.6110837  39.9886608 110.4988674  43.7400837  39.2496608 111.1438674
  43.5490837  39.8946608 112.3428674  44.3400837  41.0146608 112.3448674
  45.0140837  41.0546608 111.1478674  45.1090837  39.6356608 109.1118674
  45.8310837  40.3436608 108.7028674  44.2810837  39.5486608 108.4088674
  45.5610837  38.6436608 109.1008674  30.9640837  74.9506608  71.9548674
  30.1720837  74.1206608  72.5918674  30.8810837  72.9446608  72.6668674
  32.0900837  73.1466608  72.0528674  32.1220837  74.4456608  71.6028674
  30.5680837  76.3816608  71.6528674  31.3290837  76.9516608  71.1178674
  30.3200837  76.9206608  72.5678674  29.6450837  76.4186608  71.0738674
  90.1780837  85.6786608 118.6698674  90.5650837  85.2826608 117.4808674
  89.5220837  85.6076608 116.6448674  88.5450837  86.1956608 117.4058674
  88.9890837  86.2306608 118.7068674  91.0410837  85.5096608 119.9038674
  90.5870837  85.8856608 120.8218674  92.0070837  85.9986608 119.7758674
  91.3020837  84.4616608 120.0578674 110.2280837  43.9436608  48.9768674
 109.9080837  45.0346608  49.6308674 108.7960837  45.5206608  48.9828674
 108.5090837  44.6666608  47.9498674 109.4440837  43.6586608  47.9648674
 111.4130837  43.0816608  49.3628674 111.5550837  42.2056608  48.7268674
 111.3290837  42.7426608  50.3958674 112.3360837  43.6606608  49.3558674
 133.3360837 107.1486608  87.7688674 134.5260837 107.6996608  87.7808674
 134.2880837 109.0526608  87.8528674 132.9300837 109.2356608  87.8808674
 132.3360837 107.9966608  87.8248674 133.1340837 105.6486608  87.6938674
 132.0880837 105.3386608  87.6918674 133.6370837 105.1456608  88.5198674
 133.6140837 105.2336608  86.8088674 132.7220837  98.0816608  56.6488674
 131.8450837  97.9136608  55.6878674 130.9050837  98.8966608  55.8918674
 131.2860837  99.6156608  56.9948674 132.4590837  99.0736608  57.4658674
 133.9430837  97.1976608  56.8008674 134.5810837  97.4576608  57.6468674
 134.5520837  97.2136608  55.8968674 133.6570837  96.1496608  56.8988674
  86.1170837 114.0656608 129.4468674  86.5780837 114.2046608 130.6668674
  85.6720837 113.5446608 131.4638674  84.6940837 113.0346608 130.6488674
  85.0010837 113.3826608 129.3548674  86.8210837 114.6506608 128.2398674
  86.3200837 114.4536608 127.2908674  87.8440837 114.2806608 128.1668674
  86.9440837 115.7286608 128.3428674  39.1790837  55.9116608  62.8918674
  38.9500837  55.2456608  63.9988674  37.7260837  54.6496608  63.8048674
  37.2810837  55.0046608  62.5568674  38.2330837  55.8176608  61.9878674
  40.4390837  56.7256608  62.6778674  40.4890837  57.2246608  61.7088674
  41.3280837  56.1056608  62.7888674  40.5530837  57.4806608  63.4558674
 118.9630837  68.1596608  70.7368674 120.0300837  68.9046608  70.5708674
 121.0540837  68.0106608  70.3618674 120.5240837  66.7476608  70.4158674
 119.1760837  66.8676608  70.6588674 117.5920837  68.7496608  70.9988674
 116.8010837  68.0066608  71.1158674 117.3020837  69.4336608  70.2008674
 117.6010837  69.3806608  71.8878674  22.2990837  49.2476608  89.7598674
  23.5190837  48.7786608  89.8748674  23.4120837  47.4386608  89.5838674
  22.0950837  47.1776608  89.3048674  21.3970837  48.3556608  89.4238674
  21.9610837  50.7046608  89.9978674  20.9050837  50.9466608  89.8648674
  22.5440837  51.3526608  89.3428674  22.2590837  51.0166608  90.9988674
 113.2550837  86.2776608 111.8838674 112.2340837  85.4666608 112.0258674
 112.7490837  84.3566608 112.6538674 114.0870837  84.5756608 112.8568674
 114.3910837  85.8196608 112.3528674 113.1290837  87.6386608 111.2298674
 114.0630837  88.2006608 111.1828674 112.3870837  88.2516608 111.7418674
 112.7340837  87.5496608 110.2168674 134.0820837  56.7276608  70.0748674
 134.3810837  55.4496608  70.0768674 133.1710837  54.8036608  69.9738674
 132.1910837  55.7606608  69.9158674 132.8000837  56.9916608  69.9818674
 135.1360837  57.8106608  70.1728674 134.7370837  58.8256608  70.1598674
 135.8650837  57.7196608  69.3678674 135.7350837  57.6916608  71.0768674
 103.7490837  70.3126608  25.3018674 103.7280837  71.4886608  24.7198674
 102.9340837  72.2686608  25.5278674 102.5150837  71.4906608  26.5768674
 103.0520837  70.2356608  26.4098674 104.5200837  69.1376608  24.7348674
 104.4430837  68.2256608  25.3288674 105.5760837  69.3826608  24.6198674
 104.1960837  68.9116608  23.7188674  69.7730837 106.1776608  29.9398674
  71.0700837 106.3206608  30.0748674  71.2330837 106.9226608  31.3008674
  69.9870837 107.1086608  31.8428674  69.0620837 106.6216608  30.9498674
  69.1460837 105.5476608  28.7128674  68.0570837 105.4966608  28.7428674
  69.5310837 104.5396608  28.5518674  69.4370837 106.0816608  27.8078674
  94.1330837 117.5296608  72.4558674  94.5690837 117.7896608  71.2458674
  95.9150837 117.5116608  71.2888674  96.2130837 117.0896608  72.5588674
  95.0510837 117.1086608  73.2928674  92.6810837 117.7036608  72.8518674
  92.4670837 117.4476608  73.8908674  92.0280837 117.1076608  72.2128674
  92.3470837 118.7266608  72.6768674  44.4720837  64.7086608  38.5178674
  44.6330837  66.0106608  38.5558674  43.7400837  66.5026608  37.6338674
  43.0780837  65.4366608  37.0828674  43.5650837  64.2916608  37.6668674
  45.2720837  63.7636608  39.3918674  45.0290837  62.7096608  39.2498674
  45.1440837  64.0046608  40.4468674  46.3420837  63.8916608  39.2268674
 100.0560837  53.3786608  22.1448674  99.0120837  52.5856608  22.1958674
  99.5360837  51.3146608  22.2358674 100.9030837  51.4256608  22.2048674
 101.2150837  52.7636608  22.1458674  99.9290837  54.8876608  22.0878674
 100.8840837  55.4146608  22.0488674  99.3660837  55.2646608  22.9418674
  99.3330837  55.1976608  21.2298674  64.3930837  24.1976608  88.2338674
  64.3760837  25.5086608  88.1978674  65.6910837  25.8836608  88.3468674
  66.4390837  24.7406608  88.4668674  65.5830837  23.6676608  88.3908674
  63.1360837  23.3636608  88.1038674  63.3060837  22.2866608  88.1518674
  62.6150837  23.5846608  87.1718674  62.4100837  23.6276608  88.8728674
  54.2870837  53.3736608  70.6118674  53.5250837  54.3516608  71.0428674
  52.2400837  53.9396608  70.7808674  52.3090837  52.7036608  70.1918674
  53.6370837  52.3596608  70.0928674  55.7980837  53.4166608  70.7078674
  56.2960837  52.5316608  70.3088674  56.1200837  53.5516608  71.7408674
  56.1970837  54.2926608  70.1968674 135.6960837  57.8006608  77.7828674
 136.0420837  57.6186608  76.5308674 136.9730837  58.5986608  76.2758674
 137.1340837  59.3296608  77.4248674 136.3010837  58.7986608  78.3818674
 134.6750837  56.9246608  78.4798674 134.4890837  57.1966608  79.5208674
 134.9740837  55.8766608  78.4498674 133.7230837  56.9356608  77.9498674
  34.5340837  84.3776608  37.9838674  34.8030837  85.1636608  38.9998674
  35.8500837  84.5536608  39.6498674  36.1550837  83.4056608  38.9658674
  35.2950837  83.3126608  37.8968674  33.4300837  84.6796608  36.9908674
  33.3250837  83.9356608  36.1998674  33.5800837  85.6536608  36.5248674
  32.4690837  84.7806608  37.4948674  88.8410837  74.1496608 119.8838674
  88.2970837  74.8486608 120.8518674  87.0340837  74.3246608 120.9988674
  86.8920837  73.3146608 120.0838674  88.0670837  73.2186608 119.3768674
  90.2520837  74.3996608 119.3928674  90.5670837  73.7396608 118.5818674
  90.9710837  74.3066608 120.2058674  90.3720837  75.4296608 119.0588674
 132.9110837  62.8456608  56.4068674 132.9280837  64.1576608  56.3948674
 131.6420837  64.5246608  56.0748674 130.9090837  63.3766608  55.9098674
 131.7470837  62.3086608  56.1288674 134.1410837  62.0186608  56.7188674
 133.9740837  60.9406608  56.6918674 134.5470837  62.2766608  57.6978674
 134.9550837  62.2556608  56.0328674  72.6740837  67.3756608  20.0148674
  73.6960837  68.1116608  19.6488674  73.1420837  69.2946608  19.2168674
  71.7820837  69.1926608  19.3538674  71.5030837  67.9486608  19.8688674
  72.8360837  65.9716608  20.5618674  71.8960837  65.4826608  20.8238674
  73.4790837  65.9676608  21.4428674  73.3660837  65.3346608  19.8538674
  48.1070837 100.2276608  33.3068674  49.1360837 101.0396608  33.2688674
  48.5990837 102.2966608  33.4248674  47.2410837 102.1576608  33.5508674
  46.9460837 100.8166608  33.4718674  48.2500837  98.7256608  33.1698674
  47.3070837  98.1796608  33.2208674  48.9170837  98.3256608  33.9348674
  48.7450837  98.4636608  32.2348674  80.2130837  43.9356608 103.9688674
  81.5060837  43.9386608 104.1918674  81.9290837  42.6816608 103.8268674
  80.8320837  41.9816608 103.3948674  79.7380837  42.8086608 103.4948674
  79.3380837  45.1436608 104.2398674  78.2830837  44.9916608 104.0058674
  79.6890837  46.0126608 103.6828674  79.4150837  45.4566608 105.2808674
  68.5770837  45.5036608 106.7258674  69.8620837  45.4496608 106.4658674
  70.4560837  45.1846608 107.6778674  69.4630837  45.0926608 108.6178674
  68.2610837  45.3006608 107.9828674  67.5410837  45.7776608 105.6548674
  66.5130837  45.7916608 106.0208674  67.6060837  45.0446608 104.8508674
  67.7370837  46.7256608 105.1548674  66.4230837 137.5476608  81.4318674
  65.5840837 137.6236608  82.4378674  64.4820837 136.9066608  82.0338674
  64.7340837 136.4296608  80.7728674  65.9890837 136.8546608  80.4058674
  67.7860837 138.2096608  81.4568674  68.3720837 138.0586608  80.5488674
  68.3750837 137.8586608  82.3048674  67.6960837 139.2816608  81.6318674
  47.6080837  25.1996608  68.8758674  47.1890837  24.5406608  69.9298674
  48.3190837  24.3236608  70.6828674  49.3780837  24.8826608  70.0158674
  48.8970837  25.4406608  68.8548674  46.6730837  25.6456608  67.7698674
  47.1660837  26.1836608  66.9588674  45.8760837  26.2776608  68.1638674
  46.1410837  24.7966608  67.3418674  48.2120837 124.8056608  43.6188674
  47.5710837 124.3586608  42.5648674  47.8140837 125.2906608  41.5828674
  48.6080837 126.2686608  42.1228674  48.8520837 125.9356608  43.4348674
  48.2110837 124.0706608  44.9438674  48.7880837 124.5636608  45.7288674
  48.5900837 123.0556608  44.8288674  47.1940837 123.9256608  45.3088674
  97.3390837 116.3286608  53.3578674  96.0810837 116.2666608  53.7238674
  95.7020837 117.5746608  53.9118674  96.7880837 118.3666608  53.6398674
  97.8300837 117.5436608  53.2848674  98.1580837 115.0936608  53.0438674
  99.1880837 115.3026608  52.7538674  97.6920837 114.5076608  52.2508674
  98.1750837 114.4096608  53.8928674  75.3150837  64.6026608 124.2938674
  76.2910837  64.8526608 123.4538674  76.8660837  66.0136608 123.9158674
  76.1800837  66.4006608 125.0378674  75.1860837  65.4776608 125.2628674
  74.4100837  63.3956608 124.1538674  73.6440837  63.3196608 124.9278674
  74.9880837  62.4716608 124.1548674  73.9150837  63.3886608 123.1828674
  60.1850837 117.0996608  63.6638674  60.8590837 115.9776608  63.7508674
  61.8710837 116.1016608  62.8278674  61.7400837 117.3266608  62.2258674
  60.6480837 117.9516608  62.7808674  58.9690837 117.3866608  64.5198674
  58.5130837 118.3606608  64.3368674  59.2120837 117.3176608  65.5808674
  58.2050837 116.6206608  64.3818674  43.7890837  33.2496608  98.8748674
  44.0330837  31.9636608  98.7838674  43.7190837  31.6356608  97.4858674
  43.2930837  32.7786608  96.8578674  43.3460837  33.8046608  97.7718674
  44.0020837  34.0296608 100.1558674  43.7560837  35.0906608 100.0798674
  45.0330837  33.9426608 100.4998674  43.4210837  33.6036608 100.9748674
 114.8970837  96.2356608  41.0598674 114.7780837  95.0306608  40.5538674
 114.6040837  95.2306608  39.2048674 114.6310837  96.5826608  38.9758674
 114.8200837  97.2096608  40.1848674 115.1070837  96.4796608  42.5408674
 115.1880837  97.5326608  42.8128674 115.9990837  95.9646608  42.8988674
 114.3020837  96.0366608  43.1278674  45.6680837  46.5366608  76.9708674
  45.6030837  45.3306608  77.4838674  44.2630837  45.1096608  77.6978674
  43.5850837  46.2286608  77.2888674  44.5090837  47.1346608  76.8248674
  46.9790837  47.1856608  76.5798674  46.8750837  48.1906608  76.1668674
  47.5170837  46.5736608  75.8558674  47.6600837  47.2356608  77.4308674
 107.2510837  99.2456608  72.6338674 106.3580837  98.2916608  72.5138674
 105.1500837  98.9446608  72.4498674 105.3980837 100.2906608  72.5368674
 106.7570837 100.4606608  72.6548674 108.7360837  98.9626608  72.7388674
 109.3550837  99.8556608  72.8338674 109.0870837  98.3936608  71.8778674
 108.9500837  98.3086608  73.5838674  98.2230837 100.8036608  25.2488674
  99.3030837 100.6976608  24.5118674 100.1940837  99.9976608  25.2908674
  99.5770837  99.7186608  26.4828674  98.3090837 100.2476608  26.4338674
  96.9750837 101.5156608  24.7668674  96.1580837 101.5236608  25.4898674
  96.6070837 101.0736608  23.8408674  97.1960837 102.5466608  24.4908674
  27.0310837  69.7486608 116.0048674  27.3480837  68.5356608 115.6168674
  28.6970837  68.4276608 115.8638674  29.1190837  69.6166608 116.3998674
  28.0300837  70.4516608 116.4818674  25.6200837  70.2906608 115.9088674
  25.5090837  71.3146608 116.2698674  24.9200837  69.6586608 116.4558674
  25.2550837  70.2496608 114.8818674 105.0790837 122.2516608 115.1808674
 106.3420837 122.6066608 115.1878674 107.0410837 121.4226608 115.1838674
 106.1290837 120.3986608 115.1738674 104.8720837 120.9566608 115.1728674
 103.9500837 123.2626608 115.1828674 102.9530837 122.8186608 115.1768674
 104.0280837 123.9366608 114.3308674 104.0220837 123.9266608 116.0448674
  89.4210837 109.1316608  51.4898674  90.6930837 109.4276608  51.3628674
  91.2450837 108.3446608  50.7198674  90.2420837 107.4376608  50.4948674
  89.0770837 107.9656608  50.9988674  88.4300837 110.0666608  52.1528674
  87.4090837 109.6846608  52.1858674  88.4160837 111.0366608  51.6568674
  88.7390837 110.3036608  53.1718674  81.0040837 114.1276608 126.1668674
  80.1110837 114.5846608 127.0128674  80.6390837 115.7666608 127.4788674
  81.8520837 115.9516608 126.8668674  82.0660837 114.8846608 126.0258674
  80.8190837 112.8276608 125.4118674  81.6450837 112.5766608 124.7438674
  79.9000837 112.8426608 124.8268674  80.6720837 111.9946608 126.0998674
 129.1280837  58.3956608  50.8318674 129.7170837  59.5626608  50.7248674
 131.0620837  59.2766608  50.6828674 131.2020837  57.9156608  50.7698674
 129.9440837  57.3686608  50.8648674 127.6220837  58.2476608  50.9108674
 127.2780837  57.2156608  50.9968674 127.1400837  58.6966608  50.0418674
 127.2180837  58.8126608  51.7498674 118.5500837 103.1196608  36.3118674
 117.5460837 102.6166608  36.9898674 117.9850837 101.3816608  37.4068674
 119.2630837 101.2136608  36.9398674 119.6060837 102.3446608  36.2378674
 118.4910837 104.4886608  35.6658674 119.4020837 104.7716608  35.1358674
 118.2730837 105.2596608  36.4048674 117.6560837 104.5566608  34.9688674
  46.4590837  53.4896608  62.4578674  45.3420837  53.7706608  61.8298674
  44.5490837  54.3796608  62.7738674  45.2590837  54.4286608  63.9458674
  46.4860837  53.8506608  63.7188674  47.6250837  52.8026608  61.7778674
  48.4860837  52.6356608  62.4278674  47.9600837  53.3696608  60.9088674
  47.3230837  51.8426608  61.3588674  28.8540837  95.3846608 103.8728674
  28.3290837  96.5866608 103.8998674  28.6880837  97.1016608 105.1228674
  29.4290837  96.1496608 105.7748674  29.5230837  95.0526608 104.9518674
  28.6990837  94.4546608 102.6868674  29.1910837  93.4886608 102.8088674
  29.0780837  94.9176608 101.7748674  27.6470837  94.2756608 102.4658674
  88.5210837 136.9656608  67.6278674  87.5890837 137.0926608  68.5428674
  86.5290837 136.3526608  68.0728674  86.9010837 135.8096608  66.8698674
  88.1860837 136.2176608  66.6028674  89.8760837 137.6316608  67.7488674
  90.5470837 137.4346608  66.9108674  90.3800837 137.3286608  68.6668674
  89.7730837 138.7116608  67.8558674  19.6970837  56.6406608  67.7458674
  19.8810837  56.9046608  66.4748674  20.8630837  57.8666608  66.4508674
  21.2200837  58.1296608  67.7488674  20.4560837  57.3296608  68.5658674
  18.6870837  55.6206608  68.2288674  18.6470837  55.5096608  69.3138674
  18.8830837  54.6406608  67.7928674  17.6850837  55.8646608  67.8738674
  52.8220837 119.0136608  84.4768674  53.0930837 118.0996608  85.3788674
  52.1400837 117.1266608  85.1938674  51.3310837 117.5266608  84.1608674
  51.7890837 118.7436608  83.7158674  53.6410837 120.2796608  84.3288674
  53.2960837 120.9446608  83.5358674  54.6910837 120.0466608  84.1468674
  53.6610837 120.8426608  85.2618674 134.8530837  65.6006608  81.9698674
 133.9720837  65.4426608  82.9288674 134.5640837  65.9846608  84.0448674
 135.8010837  66.4486608  83.6778674 135.9660837  66.1906608  82.3378674
 134.6030837  65.1356608  80.5498674 135.4270837  65.3356608  79.8628674
 133.7010837  65.5936608  80.1428674 134.3850837  64.0676608  80.5198674
 112.9190837 102.9376608  93.0168674 111.7790837 102.2896608  93.0268674
 112.1300837 100.9596608  93.0588674 113.4990837 100.8896608  93.0658674
 113.9860837 102.1746608  93.0378674 112.9950837 104.4506608  92.9818674
 114.0110837 104.8476608  92.9768674 112.4620837 104.8876608  93.8268674
 112.4690837 104.8486608  92.1138674 112.2770837  57.9636608  82.6748674
 112.8520837  57.5196608  83.7678674 112.2210837  56.3286608  84.0388674
 111.2770837  56.1246608  83.0658674 111.3310837  57.1896608  82.1978674
 112.6750837  59.2696608  82.0188674 112.1090837  59.5086608  81.1168674
 113.7360837  59.2716608  81.7648674 112.5760837  60.1036608  82.7148674
  67.5150837 114.1466608 127.1408674  66.3510837 114.7366608 127.0088674
  65.6360837 113.9226608 126.1628674  66.4380837 112.8616608 125.8288674
  67.6430837 113.0266608 126.4698674  68.6240837 114.7166608 128.0018674
  69.5350837 114.1146608 128.0138674  68.2900837 114.8506608 129.0308674
  68.8870837 115.7256608 127.6828674 118.1090837  70.8956608 104.1568674
 118.3470837  69.6286608 103.9128674 118.4850837  69.0506608 105.1528674
 118.3170837  70.0346608 106.0928674 118.0760837  71.2136608 105.4288674
 117.8910837  71.9096608 103.0528674 117.7040837  72.9246608 103.4078674
 117.0600837  71.6146608 102.4098674 118.7430837  71.9376608 102.3738674
 120.2460837 103.0856608  40.5318674 120.8930837 103.0686608  41.6728674
 122.1980837 102.8006608  41.3338674 122.2570837 102.6696608  39.9708674
 120.9890837 102.8566608  39.4748674 118.7560837 103.3496608  40.4438674
 118.3580837 103.3326608  39.4278674 118.5030837 104.3106608  40.8928674
 118.1960837 102.6306608  41.0418674  29.8840837  46.5476608 105.7508674
  29.0880837  47.1136608 106.6268674  29.4860837  48.4296608 106.6678674
  30.5280837  48.5776608 105.7888674  30.7670837  47.3536608 105.2098674
  29.7900837  45.0786608 105.3948674  30.5180837  44.7516608 104.6508674
  28.7940837  44.8286608 105.0288674  29.9030837  44.4536608 106.2808674
  69.8230837  21.4466608  56.9708674  69.1440837  22.4926608  56.5638674
  69.8760837  23.0046608  55.5178674  70.9830837  22.2116608  55.3568674
  70.9280837  21.2146608  56.3028674  69.3650837  20.5766608  58.1228674
  70.0330837  19.7426608  58.3468674  68.3690837  20.1736608  57.9368674
  69.2390837  21.1656608  59.0318674  54.1990837  43.6326608  68.6908674
  52.9820837  43.1436608  68.7228674  52.3320837  43.8786608  69.6868674
  53.2240837  44.7906608  70.1898674  54.4200837  44.6136608  69.5338674
  55.2640837  43.1026608  67.7528674  56.2270837  43.6076608  67.8398674
  54.9370837  43.1676608  66.7148674  55.4240837  42.0356608  67.9058674
  85.6590837  24.0506608  49.9628674  85.0590837  23.4816608  50.9808674
  84.2690837  22.5036608  50.4238674  84.4480837  22.5476608  49.0648674
  85.3470837  23.5506608  48.7908674  86.6360837  25.1966608  50.1308674
  87.0550837  25.5676608  49.1938674  87.4610837  24.9146608  50.7848674
  86.1700837  26.0346608  50.6508674 107.2620837  68.9256608  85.7378674
 107.2520837  69.6856608  84.6688674 107.1480837  68.8086608  83.6138674
 107.1000837  67.5396608  84.1298674 107.1750837  67.6386608  85.4988674
 107.3650837  69.4936608  87.1388674 107.3610837  68.7396608  87.9278674
 106.5560837  70.1976608  87.3358674 108.2650837  70.0986608  87.2498674
 120.4590837  99.9756608  65.9438674 119.8990837 100.6106608  64.9428674
 120.8580837 101.4926608  64.5028674 121.9680837 101.3286608  65.2908674
 121.6890837 100.3466608  66.2118674 119.7400837  98.8976608  66.7288674
 120.3330837  98.4596608  67.5338674 119.4070837  98.0926608  66.0728674
 118.8130837  99.2796608  67.1578674  89.4770837  45.9856608 100.4678674
  89.0350837  45.1276608  99.5798674  90.1140837  44.3236608  99.2968674
  91.1700837  44.7616608 100.0548674  90.7370837  45.8326608 100.8008674
  88.5990837  47.0686608 101.0608674  89.1060837  47.7066608 101.7868674
  87.7190837  46.6396608 101.5408674  88.1820837  47.7046608 100.2798674
  97.9590837  83.8596608 137.7838674  97.7620837  82.6516608 138.2558674
  98.8370837  81.9186608 137.8098674  99.6370837  82.7556608 137.0768674
  99.0520837  84.0006608 137.0728674  96.9960837  85.0006608 138.0408674
  97.2930837  85.9466608 137.5838674  96.8630837  85.1656608 139.1098674
  95.9940837  84.7526608 137.6918674 108.6510837  99.3596608 108.1598674
 109.6870837  99.0116608 108.8848674 109.8430837 100.0336608 109.7918674
 108.8620837 100.9606608 109.5488674 108.1070837 100.5056608 108.4938674
 108.1270837  98.5036608 107.0258674 107.2590837  98.9226608 106.5128674
 107.8650837  97.5056608 107.3788674 108.9040837  98.3176608 106.2838674
  31.2160837  55.0696608 116.4458674  30.2190837  55.8026608 116.0098674
  29.8440837  55.2186608 114.8228674  30.6620837  54.1396608 114.6108674
  31.5380837  54.0616608 115.6688674  31.9370837  55.3646608 117.7448674
  32.7450837  54.6686608 117.9758674  31.2420837  55.3716608 118.5848674
  32.3480837  56.3746608 117.7418674  45.7010837  66.3956608 104.0758674
  46.3140837  67.5486608 104.2008674  46.9660837  67.4726608 105.4088674
  46.6970837  66.2426608 105.9518674  45.8810837  65.5666608 105.0758674
  44.8520837  66.0516608 102.8688674  44.4060837  65.0566608 102.9058674
  45.4310837  66.1316608 101.9488674  44.0520837  66.7796608 102.7338674
  79.5360837 105.1826608 125.2308674  78.7170837 104.1586608 125.2508674
  77.4620837 104.7106608 125.3578674  77.6080837 106.0736608 125.3978674
  78.9520837 106.3546608 125.3148674  81.0380837 105.0226608 125.1208674
  81.5890837 105.9646608 125.1168674  81.3070837 104.4666608 124.2228674
  81.4260837 104.4046608 125.9308674  78.7990837 113.9956608  59.5178674
  79.2560837 115.2126608  59.3418674  80.4810837 115.0466608  58.7398674
  80.6910837 113.7006608  58.5868674  79.5960837 113.0436608  59.0948674
  77.4560837 113.7156608  60.1598674  77.2110837 112.6546608  60.2388674
  76.6520837 114.2116608  59.6158674  77.4000837 114.1536608  61.1568674
  89.1750837  35.8486608  73.2108674  90.4120837  36.2406608  73.0138674
  90.3300837  37.6046608  72.8618674  89.0110837  37.9596608  72.9808674
  88.2860837  36.8136608  73.2048674  88.8060837  34.3956608  73.4288674
  87.7390837  34.2226608  73.5788674  89.3430837  33.9796608  74.2818674
  89.1370837  33.7796608  72.5918674  92.9380837 111.9256608  60.2118674
  93.6170837 111.7996608  61.3278674  93.2900837 110.5506608  61.8018674
  92.4090837 109.9866608  60.9158674  92.1970837 110.8886608  59.8998674
  93.0080837 113.1706608  59.3528674  92.3880837 113.1296608  58.4548674
  94.0340837 113.3806608  59.0498674  92.7230837 114.0556608  59.9228674
  63.4160837  47.1576608  92.8648674  62.5750837  48.0896608  92.4858674
  62.9180837  49.1976608  93.2248674  63.9750837  48.8526608  94.0268674
  64.2790837  47.5346608  93.7778674  63.3900837  45.7556608  92.2918674
  64.1510837  45.0906608  92.7038674  63.5060837  45.7746608  91.2078674
  62.4150837  45.2916608  92.4378674  95.3280837 106.2956608  46.1908674
  96.2700837 105.6106608  46.7948674  95.6010837 104.6426608  47.5068674
  94.2590837 104.8096608  47.2788674  94.1070837 105.8796608  46.4298674
  95.6300837 107.4746608  45.2878674  94.7450837 107.9446608  44.8558674
  96.2930837 107.1826608  44.4728674  96.1970837 108.2386608  45.8198674
  41.1920837  93.5396608  88.3208674  40.0030837  93.0306608  88.5388674
  40.1790837  91.6696608  88.4468674  41.5020837  91.4376608  88.1708674
  42.1350837  92.6556608  88.0938674  41.4530837  95.0316608  88.3308674
  42.4910837  95.3056608  88.1328674  41.1600837  95.4736608  89.2828674
  40.8210837  95.5436608  87.6038674  74.9850837 110.2236608 121.5698674
  73.9830837 109.4736608 121.9628674  73.0410837 110.3596608 122.4308674
  73.5490837 111.6246608 122.2848674  74.8020837 111.5136608 121.7288674
  76.2530837 109.6436608 120.9788674  76.9980837 110.3906608 120.6978674
  76.0330837 109.0356608 120.1008674  76.7200837 108.9396608 121.6688674
  92.5790837  24.3866608 104.4808674  93.7950837  24.7356608 104.1348674
  94.5060837  23.5586608 104.1068674  93.6480837  22.5456608 104.4468674
  92.4130837  23.1006608 104.6828674  91.4550837  25.3916608 104.6328674
  90.5000837  24.9526608 104.9248674  91.3050837  25.9526608 103.7108674
  91.7150837  26.1596608 105.3618674 109.3200837  98.2936608  41.6188674
 109.4680837  99.5906608  41.4948674 108.2130837 100.0616608  41.1888674
 107.3620837  98.9876608  41.1478674 108.0970837  97.8586608  41.4278674
 110.4730837  97.3706608  41.9578674 110.1970837  96.3176608  42.0278674
 110.9440837  97.6636608  42.8958674 111.2760837  97.4646608  41.2258674
  41.9470837  39.4106608  91.0508674  42.5740837  38.2716608  91.2268674
  43.9090837  38.6016608  91.2358674  44.0050837  39.9576608  91.0588674
  42.7300837  40.4576608  90.9428674  40.4370837  39.5046608  90.9778674
  40.0590837  40.5176608  90.8288674  39.9760837  39.0986608  91.8788674
  40.0440837  38.8736608  90.1818674  71.3110837  98.7696608 112.2298674
  71.6780837  97.9916608 111.2388674  73.0480837  97.9246608 111.3298674
  73.4320837  98.6896608 112.4018674  72.2980837  99.2236608 112.9658674
  69.8610837  99.1146608 112.4998674  69.7110837  99.7716608 113.3578674
  69.2670837  98.2136608 112.6528674  69.4020837  99.5816608 111.6288674
 100.0570837  81.9546608  34.7198674  99.7770837  81.0136608  35.5888674
  98.7100837  81.5016608  36.3068674  98.4050837  82.7426608  35.8098674
  99.2850837  83.0136608  34.7888674 101.1830837  81.8266608  33.7148674
 101.2960837  82.6896608  33.0568674 101.0550837  80.9396608  33.0948674
 102.1360837  81.6536608  34.2168674  87.7470837  33.6606608  78.4018674
  87.4150837  33.9756608  79.6308674  86.9270837  35.2586608  79.5458674
  86.9980837  35.6456608  78.2328674  87.5290837  34.6016608  77.5148674
  88.3370837  32.3126608  78.0388674  88.5640837  32.1946608  76.9778674
  87.6730837  31.5016608  78.3378674  89.2490837  32.1196608  78.6058674
  57.2880837  26.7726608  58.9838674  57.2950837  28.0336608  59.3448674
  58.4960837  28.5246608  58.8908674  59.1570837  27.4986608  58.2668674
  58.3610837  26.3796608  58.3388674  56.1300837  25.8446608  59.2908674
  56.2670837  24.8246608  58.9278674  55.1990837  26.2316608  58.8758674
  55.9360837  25.8026608  60.3628674  56.5230837  64.3496608  17.7078674
  56.1780837  65.1536608  18.6858674  55.9330837  66.3626608  18.0788674
  56.1510837  66.2066608  16.7338674  56.5300837  64.9026608  16.5188674
  56.8830837  62.8956608  17.9378674  57.1480837  62.3526608  17.0298674
  56.0680837  62.3636608  18.4288674  57.7100837  62.8056608  18.6428674
  25.8080837  68.2626608  40.1138674  24.9570837  68.0716608  39.1328674
  25.3970837  66.9326608  38.5008674  26.5180837  66.4966608  39.1588674
  26.7640837  67.3676608  40.1938674  25.6930837  69.4266608  41.0758674
  26.4720837  69.4546608  41.8388674  24.7250837  69.4246608  41.5778674
  25.7040837  70.3776608  40.5428674 116.1990837 128.7386608  76.9608674
 115.9270837 129.9836608  77.2718674 117.1510837 130.5656608  77.5058674
 118.1120837 129.6056608  77.3158674 117.4760837 128.4376608  76.9658674
 115.1210837 127.7286608  76.6238674 115.5000837 126.7336608  76.3858674
 114.5130837 128.0716608  75.7858674 114.4050837 127.6356608  77.4398674
  93.7210837  38.1076608  50.7358674  94.6530837  38.3586608  49.8468674
  95.7390837  38.7746608  50.5808674  95.3830837  38.7466608  51.9048674
  94.0800837  38.3146608  51.9808674  92.3410837  37.6166608  50.3518674
  91.6730837  37.4506608  51.1998674  92.4000837  36.6906608  49.7798674
  91.8550837  38.3116608  49.6668674  84.6580837  24.7956608  81.0848674
  84.1520837  23.9776608  81.9768674  83.9720837  24.7486608  83.1008674
  84.3940837  26.0196608  82.8078674  84.8320837  26.0266608  81.5048674
  85.0140837  24.3516608  79.6808674  85.4260837  25.1426608  79.0528674
  84.1470837  23.9286608  79.1728674  85.7270837  23.5266608  79.7018674
  90.6760837  75.3446608 138.1668674  91.0180837  74.1136608 137.8668674
  89.8280837  73.4376608 137.7378674  88.8140837  74.3306608 137.9738674
  89.3830837  75.5516608 138.2478674  91.6970837  76.4386608 138.3998674
  91.2640837  77.4106608 138.6398674  92.3450837  76.5606608 137.5308674
  92.3870837  76.1666608 139.1988674  55.9380837  42.6876608  92.9498674
  56.0320837  41.5186608  93.5388674  54.8220837  40.9076608  93.3068674
  54.0530837  41.7716608  92.5708674  54.7910837  42.9106608  92.3528674
  57.0670837  43.6976608  92.9588674  56.8420837  44.6236608  92.4278674
  57.9760837  43.2716608  92.5338674  57.3550837  43.9516608  93.9798674
 101.9770837  48.3986608 108.3068674 101.5400837  49.5756608 108.6868674
 100.3230837  49.3266608 109.2778674 100.0970837  47.9756608 109.2138674
 101.1750837  47.3976608 108.5848674 103.3050837  48.2116608 107.6018674
 103.5340837  47.1756608 107.3468674 104.1250837  48.6046608 108.2028674
 103.3490837  48.8056608 106.6888674  44.5190837  87.1676608 120.8818674
  45.2920837  86.2696608 120.3198674  45.9840837  85.6986608 121.3618674
  45.5730837  86.3066608 122.5188674  44.6290837  87.2496608 122.1858674
  43.5730837  88.0416608 120.0828674  42.9940837  88.7426608 120.6868674
  42.8770837  87.4356608 119.5028674  44.1130837  88.6106608 119.3248674
 108.3060837  94.0676608  99.0858674 108.4030837  95.3116608  98.6828674
 109.1220837  95.2486608  97.5118674 109.4210837  93.9316608  97.2768674
 108.8860837  93.1886608  98.3028674 107.5800837  93.6776608 100.3568674
 107.5830837  92.6056608 100.5628674 106.5450837  94.0186608 100.3358674
 108.0020837  94.1916608 101.2208674  40.2270837 122.5276608  55.9828674
  40.6340837 122.3146608  57.2118674  40.1760837 123.3966608  57.9278674
  39.5030837 124.2166608  57.0588674  39.5480837 123.6376608  55.8128674
  40.5200837 121.5646608  54.8508674  40.1180837 121.8746608  53.8848674
  40.1370837 120.5686608  55.0758674  41.5930837 121.4076608  54.7388674
 107.2210837  35.3316608  92.9448674 106.1120837  34.9076608  93.5028674
 105.1140837  35.2806608  92.6328674 105.7030837  35.9256608  91.5758674
 107.0590837  35.9456608  91.7978674 108.5820837  35.1256608  93.5798674
 109.4110837  35.5326608  92.9988674 108.7750837  34.0666608  93.7548674
 108.6170837  35.5616608  94.5778674  26.4410837  78.2536608  45.6778674
  27.5670837  78.8876608  45.4518674  28.4330837  77.9186608  45.0028674
  27.7540837  76.7276608  44.9858674  26.4730837  76.9676608  45.4248674
  25.2010837  78.9566608  46.1908674  24.3410837  78.2996608  46.3308674
  24.9060837  79.7666608  45.5238674  25.4010837  79.4626608  47.1358674
 107.2550837  94.9076608  35.3068674 107.5150837  94.5636608  36.5458674
 108.3730837  93.4936608  36.4418674 108.5810837  93.2536608  35.1088674
 107.8520837  94.1756608  34.3958674 106.3370837  96.0616608  34.9568674
 106.2170837  96.2276608  33.8858674 106.6870837  96.9896608  35.4098674
 105.3480837  95.9186608  35.3938674  75.5190837 117.2956608 124.4038674
  74.2300837 117.5076608 124.2898674  74.0340837 118.7716608 124.7938674
  75.2530837 119.2566608 125.1918674  76.1950837 118.2886608 124.9318674
  76.1740837 116.0036608 123.9608674  77.2540837 115.9726608 124.1188674
  75.9780837 115.8076608 122.9068674  75.7310837 115.1466608 124.4678674
  42.3620837 112.9916608  54.8038674  43.4650837 112.3436608  55.0938674
  43.0420837 111.1626608  55.6578674  41.6710837 111.1736608  55.6718674
  41.2550837 112.3606608  55.1168674  42.3680837 114.3616608  54.1568674
  41.3750837 114.7746608  53.9758674  42.9080837 114.3436608  53.2098674
  42.9300837 115.0756608  54.7598674  49.7290837 123.7196608 105.4028674
  48.9570837 124.6756608 105.8608674  49.8050837 125.7316608 106.0968674
  51.0720837 125.3336608 105.7558674  50.9990837 124.0346608 105.3118674
  49.1920837 122.3576608 105.0108674  49.9530837 121.6656608 104.6468674
  48.4200837 122.4476608 104.2468674  48.6740837 121.8866608 105.8458674
  73.8650837  43.0846608  30.2118674  72.7940837  43.6016608  29.6578674
  71.8000837  42.6776608  29.8798674  72.3520837  41.6306608  30.5738674
  73.6820837  41.9146608  30.7758674  75.2080837  43.7866608  30.1988674
  76.0050837  43.2346608  30.6978674  75.1370837  44.7736608  30.6568674
  75.5270837  43.9986608  29.1778674  32.7250837 114.7616608  55.5118674
  33.3200837 115.6626608  56.2568674  34.3170837 116.1766608  55.4608674
  34.2580837 115.5326608  54.2518674  33.2260837 114.6266608  54.3068674
  31.5510837 113.9416608  56.0078674  31.1610837 113.2316608  55.2758674
  30.7320837 114.5856608  56.3278674  31.8130837 113.3906608  56.9108674
  27.1680837  76.5546608 111.4778674  28.3600837  76.2916608 111.9578674
  28.5820837  74.9706608 111.6448674  27.4770837  74.5086608 110.9778674
  26.5790837  75.5456608 110.8818674  26.5230837  77.9206608 111.6048674
  25.5300837  77.9886608 111.1578674  27.1510837  78.6916608 111.1598674
  26.4480837  78.2206608 112.6498674 120.6310837  73.0106608  99.4918674
 121.8660837  73.3596608  99.7668674 122.4780837  72.1986608 100.1758674
 121.5470837  71.1946608 100.1208674 120.3650837  71.7396608  99.6778674
 119.5960837  74.0016608  98.9988674 118.6130837  73.5646608  98.8128674
 119.9300837  74.4926608  98.0848674 119.4760837  74.8246608  99.7038674
  91.1800837 135.0296608  91.5708674  90.1020837 135.7736608  91.6418674
  90.5660837 137.0456608  91.8848674  91.9350837 136.9846608  91.9458674
  92.3070837 135.6776608  91.7408674  91.1230837 133.5376608  91.3108674
  92.1000837 133.0526608  91.2788674  90.6040837 133.3236608  90.3768674
  90.5160837 133.0336608  92.0638674  37.3450837 100.3196608  72.6138674
  36.0360837 100.2746608  72.5408674  35.6610837 101.5356608  72.1408674
  36.8010837 102.2826608  71.9938674  37.8730837 101.4796608  72.3038674
  38.1790837  99.1236608  73.0258674  39.2540837  99.3126608  73.0408674
  37.9920837  98.2726608  72.3708674  37.8830837  98.7606608  74.0098674
  77.7050837 127.9796608  97.4778674  78.4760837 126.9186608  97.4818674
  77.8210837 126.0026608  96.6928674  76.6620837 126.5856608  96.2498674
  76.6080837 127.8586608  96.7678674  78.0550837 129.2436608  98.2348674
  77.3170837 130.0426608  98.1378674  79.0230837 129.6336608  97.9178674
  78.1960837 129.0376608  99.2958674  97.8370837  84.2316608  16.6438674
  96.5720837  84.4996608  16.4268674  96.5460837  85.8336608  16.0928674
  97.8350837  86.2986608  16.1308674  98.6500837  85.2496608  16.4878674
  98.3200837  82.8526608  17.0438674  99.3990837  82.7806608  17.1898674
  98.0260837  82.1066608  16.3058674  97.8290837  82.5166608  17.9578674
  34.1160837  96.3666608  34.5468674  32.9180837  96.0736608  34.9938674
  32.5020837  97.2046608  35.6558674  33.5050837  98.1346608  35.5638674
  34.5340837  97.5736608  34.8458674  34.9500837  95.3856608  33.7478674
  35.9250837  95.7706608  33.4448674  34.4190837  95.0596608  32.8528674
  35.1060837  94.4616608  34.3048674  83.5420837  38.4596608 126.5988674
  83.3370837  37.4206608 125.8258674  82.4020837  36.6636608 126.4918674
  82.0940837  37.3136608 127.6588674  82.8400837  38.4676608 127.7068674
  84.5160837  39.5636608 126.2388674  84.5800837  40.3626608 126.9798674
  84.2610837  40.0106608 125.2768674  85.5170837  39.1646608 126.0798674
 128.4090837  79.2886608  57.7418674 127.1420837  79.0016608  57.5638674
 127.1430837  77.8396608  56.8278674 128.4500837  77.4906608  56.6018674
 129.2480837  78.4376608  57.1998674 128.8670837  80.5096608  58.5138674
 129.9500837  80.6176608  58.5788674 128.4630837  80.5046608  59.5268674
 128.4590837  81.4216608  58.0788674 108.1200837  81.3276608  53.8438674
 109.1700837  82.0816608  54.0668674 109.1420837  83.0286608  53.0698674
 108.0450837  82.7776608  52.2868674 107.4020837  81.6776608  52.8038674
 107.7680837  80.1436608  54.7208674 106.8670837  79.6106608  54.4128674
 107.6430837  80.4506608  55.7598674 108.5900837  79.4286608  54.7618674
  95.3940837 104.2926608  57.4508674  96.2170837 105.2546608  57.7938674
  97.3580837 104.6096608  58.2128674  97.1430837 103.2616608  58.0938674
  95.8720837 103.0796608  57.6018674  94.0000837 104.5636608  56.9238674
  93.4310837 103.6646608  56.6808674  94.0340837 105.1956608  56.0358674
  93.4200837 105.1516608  57.6358674 100.4290837  60.8696608 130.4898674
 100.8060837  60.9436608 129.2348674 101.7180837  61.9716608 129.2008674
 101.8370837  62.4666608 130.4738674 100.9980837  61.7416608 131.2868674
  99.4150837  59.8546608 130.9758674  99.2010837  59.9126608 132.0448674
  99.7390837  58.8386608 130.7488674  98.4740837  59.9516608 130.4348674
 112.0130837  45.1496608  90.3668674 112.2390837  44.6826608  91.5718674
 113.4700837  44.0746608  91.4888674 113.9200837  44.2176608  90.2018674
 112.9660837  44.9126608  89.4968674 110.7480837  45.9026608  90.0108674
 110.7000837  46.2296608  88.9708674 110.6210837  46.7776608  90.6488674
 109.8630837  45.3016608  90.2198674  34.8480837  47.7936608 104.9738674
  33.5590837  47.5566608 104.9128674  32.9670837  48.7906608 105.0378674
  33.9650837  49.7216608 105.1708674  35.1680837  49.0566608 105.1268674
  35.8840837  46.6926608 104.8748674  36.9150837  47.0416608 104.9418674
  35.7730837  46.1336608 103.9448674  35.7280837  45.9386608 105.6468674
  72.6640837 136.7236608  75.3488674  73.5510837 137.5116608  74.7888674
  74.1300837 136.7476608  73.8038674  73.5390837 135.5106608  73.8328674
  72.5980837 135.5176608  74.8358674  71.7860837 137.1736608  76.4988674
  71.0970837 136.4086608  76.8608674  71.2050837 138.0546608  76.2258674
  72.3890837 137.5146608  77.3408674  96.9010837  25.4346608  74.7028674
  98.0760837  25.3366608  75.2768674  98.4440837  26.6326608  75.5538674
  97.4380837  27.4536608  75.1148674  96.4550837  26.6616608  74.5708674
  96.1220837  24.2246608  74.2298674  95.1610837  24.4626608  73.7708674
  95.9460837  23.5286608  75.0498674  96.7040837  23.6396608  73.5168674
 108.1360837  78.8636608  58.5658674 108.4230837  80.0736608  58.1498674
 109.6890837  79.9756608  57.6228674 110.0970837  78.6736608  57.7578674
 109.0810837  77.9756608  58.3678674 106.8150837  78.5196608  59.2228674
 106.7200837  77.4726608  59.5158674 105.9780837  78.7686608  58.5698674
 106.6450837  79.1376608  60.1048674  84.6270837  62.8136608  19.8058674
  84.8340837  61.6006608  19.3528674  84.9220837  60.8146608  20.4778674
  84.7570837  61.6276608  21.5698674  84.5690837  62.9106608  21.1128674
  84.4680837  64.0086608  18.8888674  84.3010837  64.9536608  19.4098674
  83.6470837  63.8566608  18.1878674  85.3390837  64.1246608  18.2428674
 110.9640837  66.0556608  61.5968674 109.8180837  65.5076608  61.9228674
 109.8140837  65.4906608  63.2988674 110.9920837  66.0466608  63.7258674
 111.7170837  66.4026608  62.6138674 111.3830837  66.2706608  60.1568674
 112.3630837  66.7376608  60.0408674 110.6510837  66.8776608  59.6228674
 111.3870837  65.3296608  59.6068674  51.0610837 119.1106608 119.4058674
  51.4170837 120.3636608 119.5648674  52.7760837 120.3206608 119.7738674
  53.1640837 119.0056608 119.7268674  52.0430837 118.2456608 119.4888674
  49.6260837 118.6986608 119.1478674  49.4830837 117.6226608 119.0368674
  49.2340837 119.1886608 118.2558674  48.9690837 119.0496608 119.9438674
  51.7120837  73.2056608  71.4728674  50.6500837  73.6636608  70.8538674
  49.7610837  72.6136608  70.8538674  50.3630837  71.5586608  71.4908674
  51.6180837  71.9626608  71.8808674  52.9500837  74.0496608  71.6958674
  53.7530837  73.5336608  72.2248674  52.7090837  74.9596608  72.2468674
  53.3470837  74.4196608  70.7508674  38.6910837 111.0126608  90.8778674
  38.2400837 109.7846608  90.7738674  39.1170837 109.0226608  91.5098674
  40.0680837 109.8636608  92.0258674  39.7750837 111.1396608  91.6068674
  38.0120837 112.1896608  90.2078674  38.5020837 113.1476608  90.3848674
  36.9730837 112.2736608  90.5258674  37.9390837 112.0366608  89.1308674
  64.5020837  46.7876608  88.0688674  63.7530837  45.8876608  88.6588674
  64.6310837  44.9116608  89.0698674  65.8900837  45.2976608  88.6908674
  65.7840837  46.5076608  88.0478674  63.9300837  48.0516608  87.4598674
  64.6750837  48.7056608  87.0048674  63.3790837  48.6286608  88.2038674
  63.1770837  47.8166608  86.7078674  58.3230837  43.0956608  27.9228674
  57.9420837  44.3376608  28.1058674  59.1100837  45.0626608  28.1448674
  60.1510837  44.1856608  27.9788674  59.6210837  42.9246608  27.8378674
  57.3380837  41.9486608  27.8198674  57.8020837  40.9726608  27.6678674
  56.6260837  42.1176608  27.0108674  56.7080837  41.8926608  28.7078674
  69.4090837 112.1956608  50.3608674  69.4730837 111.0556608  51.0068674
  70.7960837 110.9216608  51.3558674  71.4660837 112.0206608  50.8848674
  70.5530837 112.8276608  50.2468674  68.1140837 112.7376608  49.7908674
  68.2170837 113.6966608  49.2798674  67.3600837 112.8466608  50.5698674
  67.6660837 112.0276608  49.0958674  92.5040837  25.7746608  71.2728674
  91.8400837  25.6906608  70.1448674  90.5250837  25.5456608  70.5188674
  90.4780837  25.5516608  71.8888674  91.7630837  25.7006608  72.3528674
  94.0080837  25.9456608  71.3218674  94.4200837  26.0006608  72.3308674
  94.3180837  26.8376608  70.7778674  94.5110837  25.1346608  70.7928674
 107.8660837 112.9676608  59.7648674 108.9630837 113.5706608  60.1598674
 108.6000837 114.8856608  60.3328674 107.2690837 114.9956608  60.0218674
 106.8170837 113.7486608  59.6588674 107.8190837 111.4856608  59.4548674
 106.8380837 111.1266608  59.1378674 108.1350837 110.8966608  60.3158674
 108.5430837 111.2236608  58.6838674 102.9470837  70.7916608 118.4238674
 102.3510837  71.7726608 117.7888674 101.3230837  71.1736608 117.0998674
 101.3660837  69.8306608 117.3698674 102.4200837  69.6066608 118.2248674
 104.1510837  71.0126608 119.3168674 104.5390837  70.1026608 119.7778674
 103.9240837  71.7256608 120.1088674 104.9630837  71.4886608 118.7668674
 106.7310837  24.7846608  78.1388674 107.1240837  25.8546608  77.4888674
 105.9670837  26.5476608  77.2188674 104.9200837  25.8306608  77.7378674
 105.4350837  24.6996608  78.3258674 107.7010837  23.7316608  78.6348674
 107.2280837  22.8996608  79.1578674 108.4490837  24.1696608  79.2958674
 108.2910837  23.3256608  77.8118674 124.3600837 114.7016608  57.5718674
 125.0190837 115.8106608  57.8048674 124.0750837 116.8076608  57.7168674
 122.8720837 116.2176608  57.4278674 123.0790837 114.8616608  57.3388674
 125.0290837 113.3416608  57.5718674 124.3530837 112.5116608  57.3618674
 125.5200837 113.1486608  58.5258674 125.8450837 113.3076608  56.8498674
  74.9800837 142.3656608  77.2158674  74.8970837 142.3546608  78.5248674
  76.0420837 142.9806608  78.9568674  76.7640837 143.3406608  77.8478674
  76.0610837 142.9346608  76.7378674  73.9080837 141.7666608  76.3268674
  74.1150837 141.8506608  75.2588674  72.9380837 142.2236608  76.5238674
  73.7490837 140.7136608  76.5618674 112.5870837  72.1666608 128.9048674
 112.9920837  70.9456608 129.1638674 111.9840837  70.1336608 128.6998674
 111.0070837  70.9386608 128.1748674 111.4170837  72.2436608 128.3168674
 113.4100837  73.3896608 129.2568674 112.9440837  74.3356608 128.9788674
 114.3950837  73.3446608 128.7908674 113.6310837  73.4176608 130.3238674
  32.7120837  93.3456608  71.9238674  32.5370837  92.5726608  72.9688674
  32.0210837  93.4006608  73.9378674  31.9140837  94.6576608  73.3988674
  32.3650837  94.5986608  72.1018674  33.2710837  92.8286608  70.6138674
  33.3600837  93.5886608  69.8348674  32.6640837  92.0106608  70.2248674
  34.2520837  92.3746608  70.7598674  81.9740837  91.0826608  31.1248674
  82.1760837  91.1246608  29.8288674  83.3710837  91.7896608  29.6798674
  83.8260837  92.1156608  30.9318674  82.9100837  91.6516608  31.8458674
  80.7520837  90.4286608  31.7368674  80.7210837  90.4716608  32.8268674
  80.6760837  89.3836608  31.4348674  79.8350837  90.8756608  31.3508674
  45.7550837  66.6146608  25.7298674  46.8600837  66.1946608  25.1598674
  46.4490837  65.5956608  23.9918674  45.0830837  65.6956608  23.9308674
  44.6580837  66.3546608  25.0598674  45.7500837  67.3416608  27.0588674
  44.7570837  67.6296608  27.4078674  46.3690837  68.2386608  27.0158674
  46.2230837  66.7406608  27.8358674  36.4060837  98.2596608  49.1948674
  36.4500837  99.2016608  48.2828674  35.3030837  99.0296608  47.5428674
  34.6210837  97.9646608  48.0718674  35.3500837  97.4846608  49.1348674
  37.4930837  98.0836608  50.2358674  37.3190837  97.2586608  50.9278674
  37.6260837  98.9956608  50.8188674  38.4650837  97.9356608  49.7648674
  88.9920837  59.5026608 113.1618674  90.1580837  60.0876608 113.3038674
  89.8650837  61.3626608 113.7258674  88.5010837  61.4696608 113.8148674
  87.9600837  60.2596608 113.4478674  88.8530837  58.0646608 112.7048674
  87.8210837  57.7166608 112.6348674  89.3960837  57.3906608 113.3668674
  89.3300837  57.9146608 111.7368674  88.3910837 117.5406608  34.1778674
  89.6080837 117.4716608  34.6638674  89.7060837 116.2056608  35.1908674
  88.5070837 115.5726608  34.9838674  87.6760837 116.4516608  34.3308674
  87.8570837 118.7826608  33.4958674  86.8280837 118.6916608  33.1428674
  88.4840837 119.0636608  32.6488674  87.9150837 119.6476608  34.1568674
 131.8610837  70.6836608  71.0028674 130.9350837  70.0926608  70.2858674
 131.5190837  69.8806608  69.0598674 132.7980837  70.3716608  69.1158674
 132.9960837  70.8836608  70.3768674 131.6350837  71.1006608  72.4418674
 132.4960837  71.5816608  72.9078674 131.3460837  70.2476608  73.0548674
 130.7820837  71.7756608  72.5228674  57.2480837  27.1926608  54.2838674
  58.2550837  27.7606608  53.6648674  58.8360837  26.7506608  52.9348674
  58.1210837  25.6036608  53.1658674  57.1030837  25.9116608  54.0368674
  56.3250837  27.9576608  55.2098674  55.5320837  27.3516608  55.6518674
  55.8630837  28.7996608  54.6928674  56.8850837  28.4286608  56.0178674
  54.7540837  37.8826608  62.3938674  55.6300837  38.7116608  61.8768674
  56.8530837  38.1366608  62.1338674  56.6300837  36.9636608  62.8088674
  55.2710837  36.8206608  62.9648674  53.2610837  38.1356608  62.3338674
  52.6570837  37.3586608  62.8048674  52.9260837  38.2496608  61.3028674
  53.0080837  39.0906608  62.7928674 136.1810837  97.6866608  80.2038674
 135.9190837  98.9296608  79.8748674 137.1430837  99.5566608  79.8618674
 138.0930837  98.6256608  80.1928674 137.4510837  97.4286608  80.4078674
 135.1000837  96.6336608  80.3348674 135.4700837  95.6456608  80.6138674
 134.5340837  96.5366608  79.4078674 134.3480837  96.9356608  81.0648674
  28.5850837  53.7826608 106.2788674  29.2900837  52.6836608 106.4058674
  28.9630837  51.9256608 105.3058674  28.0550837  52.6376608 104.5638674
  27.8270837  53.8296608 105.2098674  28.6450837  54.9086608 107.2908674
  28.0030837  55.7586608 107.0518674  29.6650837  55.2746608 107.4088674
  28.3820837  54.5526608 108.2878674 112.5230837  56.1066608 101.3758674
 113.6920837  56.7036608 101.3638674 114.6100837  55.6796608 101.3258674
 113.9160837  54.4976608 101.3168674 112.5750837  54.7966608 101.3498674
 111.2180837  56.8746608 101.4158674 110.3280837  56.2436608 101.4218674
 111.1430837  57.5626608 100.5738674 111.1770837  57.5296608 102.2868674
  77.6320837  46.1526608  27.1558674  78.4090837  47.0156608  27.7668674
  79.2090837  46.2536608  28.5858674  78.8520837  44.9406608  28.4128674
  77.8360837  44.8996608  27.4878674  76.5830837  46.5736608  26.1478674
  76.0140837  45.7446608  25.7228674  77.0320837  47.1336608  25.3278674
  75.8800837  47.2806608  26.5878674 115.5820837  63.7166608  52.0378674
 115.7060837  65.0106608  52.2138674 115.9170837  65.5206608  50.9548674
 115.9060837  64.4716608  50.0728674 115.6890837  63.3196608  50.7918674
 115.3340837  62.7586608  53.1848674 115.2530837  61.7126608  52.8838674
 114.4290837  63.0276608  53.7298674 116.1200837  62.8376608  53.9358674
 101.5970837  89.6946608  37.6208674 102.2990837  90.3816608  36.7518674
 101.4020837  90.7306608  35.7698674 100.1800837  90.2166608  36.1188674
 100.3290837  89.5536608  37.3138674 102.2060837  89.1096608  38.8788674
 101.4990837  88.5636608  39.5048674 102.6690837  89.8876608  39.4858674
 103.0340837  88.4436608  38.6388674  46.2380837  74.9466608 130.0508674
  45.9300837  76.0626608 129.4348674  44.5650837  76.0116608 129.2738674
  44.1240837  74.8326608 129.8178674  45.2190837  74.1626608 130.3128674
  47.6620837  74.5916608 130.4298674  47.7630837  73.6306608 130.9368674
  48.1000837  75.3616608 131.0658674  48.3090837  74.5836608 129.5518674
 110.8410837  70.2386608  35.5968674 110.2010837  70.5246608  36.7058674
 108.9030837  70.7546608  36.3148674 108.8410837  70.5866608  34.9548674
 110.1000837  70.2556608  34.5138674 112.3210837  69.9146608  35.5718674
 112.7140837  69.6976608  34.5768674 112.5470837  69.0676608  36.2198674
 112.9060837  70.7296608  35.9988674 109.0750837  40.5036608 116.9048674
 108.0730837  40.8046608 116.1118674 107.2300837  41.5686608 116.8838674
 107.7930837  41.6836608 118.1288674 108.9800837  40.9906608 118.1188674
 110.2480837  39.6596608 116.4488674 111.0040837  39.4936608 117.2178674
 110.7350837  40.1046608 115.5818674 109.9120837  38.6886608 116.0848674
  57.6440837  33.9696608  52.8788674  57.5620837  35.2736608  52.7708674
  58.8660837  35.7106608  52.7748674  59.6750837  34.6096608  52.8888674
  58.8670837  33.4996608  52.9548674  56.4200837  33.0766608  52.9138674
  56.6450837  32.0136608  53.0078674  55.8080837  33.2186608  52.0238674
  55.7550837  33.3576608  53.7318674  59.5410837 128.9506608  41.2378674
  58.7830837 130.0006608  41.0308674  59.6550837 131.0636608  40.9928674
  60.9200837 130.5726608  41.1848674  60.8230837 129.2096608  41.3408674
  58.9770837 127.5486608  41.3498674  59.7290837 126.7776608  41.5228674
  58.4140837 127.2816608  40.4548674  58.2360837 127.4886608  42.1478674
 104.0670837  72.8446608  30.0618674 103.2290837  72.9876608  29.0638674
 102.1280837  73.6026608  29.6128674 102.3800837  73.7966608  30.9458674
 103.6340837  73.3006608  31.2138674 105.4290837  72.2016608  29.8958674
 106.0150837  72.1516608  30.8148674 106.0190837  72.7246608  29.1428674
 105.3380837  71.1916608  29.4948674  32.1080837  77.5796608  65.9658674
  31.8990837  76.5146608  65.2288674  32.8060837  75.5876608  65.6838674
  33.5260837  76.1686608  66.6958674  33.0590837  77.4516608  66.8598674
  31.3110837  78.8566608  65.7948674  31.5970837  79.6576608  66.4798674
  30.2430837  78.6706608  65.9168674  31.3920837  79.2346608  64.7758674
  46.3310837 109.5856608  34.5718674  45.8120837 109.1646608  33.4418674
  44.8560837 110.1006608  33.1228674  44.8590837 111.0536608  34.1078674
  45.8160837 110.7026608  35.0298674  47.4370837 108.8396608  35.2878674
  47.7670837 109.3106608  36.2148674  48.3060837 108.7146608  34.6408674
  47.1360837 107.8166608  35.5128674  93.1850837  97.2916608  54.9698674
  93.4540837  96.5056608  53.9538674  93.4340837  95.2336608  54.4778674
  93.1460837  95.3376608  55.8138674  92.9900837  96.6716608  56.1088674
  93.1080837  98.7986608  54.8338674  92.8760837  99.3196608  55.7638674
  92.3660837  99.0866608  54.0878674  94.0400837  99.2046608  54.4388674
  53.9490837 102.8976608  71.6088674  53.7890837 104.0816608  72.1518674
  55.0440837 104.6426608  72.1508674  55.9070837 103.7356608  71.5918674
  55.1800837 102.6196608  71.2498674  52.8000837 101.9306608  71.4138674
  53.0850837 100.9846608  70.9498674  52.0090837 102.3796608  70.8128674
  52.3090837 101.7106608  72.3618674  47.7590837  33.6016608  96.6198674
  46.9120837  32.7076608  96.1678674  46.1460837  32.3646608  97.2578674
  46.5930837  33.0946608  98.3288674  47.6320837  33.8846608  97.8948674
  48.8030837  34.2546608  95.7368674  49.4360837  34.9776608  96.2528674
  48.3370837  34.7536608  94.8868674  49.4470837  33.5056608  95.2738674
  34.3360837  63.9666608  63.5738674  33.1210837  64.2016608  64.0098674
  32.6420837  62.9736608  64.3998674  33.6270837  62.0486608  64.1678674
  34.7090837  62.7096608  63.6358674  35.2360837  65.0626608  63.0408674
  36.2180837  64.7146608  62.7138674  35.3810837  65.8456608  63.7848674
  34.7650837  65.5836608  62.2068674  81.4240837  74.3466608  32.4138674
  81.5280837  73.5966608  33.4848674  82.2920837  74.3336608  34.3588674
  82.6100837  75.5156608  33.7408674  82.0400837  75.5026608  32.4898674
  80.6510837  73.9096608  31.1858674  80.6520837  74.6396608  30.3738674
  79.6150837  73.6816608  31.4368674  81.0350837  72.9666608  30.7978674
  41.4990837 126.5606608 102.1328674  40.9490837 125.3696608 102.1178674
  40.3750837 125.2306608 103.3598674  40.6220837 126.3806608 104.0648674
  41.3470837 127.2226608 103.2548674  42.2500837 127.1246608 100.9438674
  42.6510837 128.1266608 101.1028674  41.6160837 127.1486608 100.0568674
  43.0720837 126.4696608 100.6538674 114.2680837  72.1806608  97.6638674
 113.8150837  70.9886608  97.9718674 114.9370837  70.2026608  98.0878674
 116.0280837  70.9936608  97.8348674 115.5740837  72.2626608  97.5648674
 113.3530837  73.3666608  97.4408674 113.8740837  74.2926608  97.1908674
 112.7310837  73.5506608  98.3168674 112.6300837  73.1596608  96.6518674
  16.5310837  82.7686608  90.6938674  15.7320837  81.7426608  90.8678674
  15.6190837  81.6096608  92.2318674  16.3790837  82.5926608  92.8108674
  16.9570837  83.3266608  91.8018674  16.9290837  83.2666608  89.3198674
  17.5990837  84.1276608  89.3338674  16.0500837  83.5276608  88.7298674
  17.4040837  82.4756608  88.7398674  93.8860837  42.0246608 113.5408674
  94.2820837  40.7906608 113.7438674  93.1310837  40.0396608 113.7058674
  92.0830837  40.8926608 113.4758674  92.5930837  42.1656608 113.3728674
  94.8490837  43.1936608 113.5038674  94.3740837  44.1596608 113.3258674
  95.6150837  43.0446608 112.7428674  95.4190837  43.2596608 114.4318674
  53.5280837 111.8696608  50.3008674  53.9450837 113.1076608  50.4188674
  55.3000837 113.0476608  50.1898674  55.6230837 111.7386608  49.9418674
  54.4670837 110.9976608  50.0178674  52.0750837 111.4796608  50.4778674
  51.8790837 110.4136608  50.3498674  51.4360837 112.0296608  49.7858674
  51.7070837 111.7786608  51.4598674  52.2650837  47.6906608  94.4068674
  52.0150837  46.4526608  94.7608674  53.1970837  45.9916608  95.2928674
  54.1110837  47.0116608  95.2228674  53.4900837  48.0956608  94.6488674
  51.2200837  48.5816608  93.7668674  51.5740837  49.5856608  93.5268674
  50.3410837  48.6736608  94.4068674  50.8270837  48.1306608  92.8548674
  19.2070837  79.1356608  95.1228674  20.2640837  78.9586608  95.8788674
  20.3760837  80.1206608  96.6058674  19.3490837  80.9476608  96.2318674
  18.6090837  80.2936608  95.2748674  18.7160837  78.0826608  94.1498674
  17.8260837  78.3716608  93.5888674  18.5070837  77.1436608  94.6628674
  19.4970837  77.8166608  93.4358674 101.5000837 127.2816608  48.9168674
 102.7060837 127.1846608  49.4228674 102.5110837 126.7876608  50.7258674
 101.1600837 126.6666608  50.9268674 100.5290837 126.9896608  49.7488674
 101.2510837 127.6986608  47.4818674 100.1970837 127.7346608  47.2028674
 101.7650837 127.0336608  46.7868674 101.6910837 128.6746608  47.2768674
  56.5610837 112.5886608  67.5068674  55.5020837 111.9366608  67.0898674
  55.0590837 112.6456608  65.9968674  55.9050837 113.7106608  65.8198674
  56.8640837 113.6536608  66.8038674  57.3700837 112.1426608  68.7078674
  58.2230837 112.7836608  68.9358674  57.7340837 111.1226608  68.5778674
  56.7440837 112.0796608  69.5988674  42.5930837  57.8856608  41.6148674
  43.4430837  57.9156608  42.6138674  42.6780837  58.2036608  43.7198674
  41.3780837  58.3326608  43.3058674  41.3460837  58.1236608  41.9468674
  43.0210837  57.5986608  40.1898674  42.2030837  57.6076608  39.4678674
  43.5270837  56.6356608  40.1208674  43.7770837  58.3106608  39.8578674
  73.7520837 127.6966608  94.6278674  72.9830837 128.3446608  95.4708674
  71.9990837 127.4466608  95.8118674  72.2430837 126.2806608  95.1338674
  73.3770837 126.4646608  94.3768674  74.9760837 128.3256608  93.9938674
  75.5160837 127.6646608  93.3138674  75.6740837 128.6746608  94.7558674
  74.7120837 129.2326608  93.4508674  30.6280837  77.9876608  34.6258674
  29.5570837  78.1866608  35.3568674  29.8420837  79.3056608  36.1038674
  31.1040837  79.7226608  35.7658674  31.5910837  78.8596608  34.8128674
  30.7420837  76.8406608  33.6428674  31.6920837  76.8036608  33.1068674
  29.9370837  76.8736608  32.9088674  30.5950837  75.8826608  34.1418674
  45.4670837 108.7856608  30.4678674  44.2170837 108.3896608  30.5098674
  43.4790837 109.5496608  30.5248674  44.3560837 110.6026608  30.4888674
  45.6310837 110.0876608  30.4518674  46.6290837 107.8136608  30.4378674
  47.6100837 108.2906608  30.4028674  46.5490837 107.1356608  29.5878674
  46.6030837 107.1486608  31.3018674  63.5530837  28.2366608  57.6038674
  62.8170837  28.9226608  56.7618674  61.5190837  28.6186608  57.0988674
  61.5560837  27.7436608  58.1538674  62.8760837  27.5116608  58.4618674
  65.0680837  28.2816608  57.5838674  65.5430837  27.6596608  58.3448674
  65.4300837  29.3026608  57.7038674  65.4550837  27.9836608  56.6098674
  94.0340837  63.0176608  24.2868674  93.9430837  62.4246608  25.4538674
  95.0550837  62.8396608  26.1488674  95.7670837  63.6806608  25.3328674
  95.0910837  63.7806608  24.1388674  92.9980837  62.8326608  23.1968674
  93.2080837  63.3886608  22.2818674  92.0060837  63.1176608  23.5488674
  92.8870837  61.7796608  22.9388674  50.1930837 100.1696608  80.4568674
  49.7210837  99.2326608  81.2438674  50.5680837  99.2236608  82.3278674
  51.5240837 100.1836608  82.1178674  51.2630837 100.7796608  80.9068674
  49.5490837 100.5176608  79.1298674  50.0530837 101.3176608  78.5848674
  48.5050837 100.8016608  79.2648674  49.4960837  99.6436608  78.4798674
  52.4820837  94.3046608  77.0948674  52.8790837  93.0896608  77.3928674
  53.1950837  92.5156608  76.1848674  52.9630837  93.4476608  75.2058674
  52.5040837  94.5916608  75.8148674  52.0350837  95.2966608  78.1498674
  51.7330837  96.2666608  77.7508674  52.8180837  95.4606608  78.8898674
  51.2070837  94.8966608  78.7358674  60.0250837 110.3586608  84.1518674
  59.4460837 111.0256608  83.1818674  59.2620837 110.1016608  82.1798674
  59.7550837 108.9016608  82.6228674  60.2420837 109.0906608  83.8948674
  60.4130837 111.0056608  85.4658674  60.8850837 110.3256608  86.1758674
  59.5460837 111.4556608  85.9498674  61.0830837 111.8496608  85.3028674
 104.9720837 102.0766608  24.4378674 104.9250837 100.7826608  24.2258674
 103.6190837 100.5296608  23.8768674 102.9420837 101.7216608  23.9008674
 103.8330837 102.7036608  24.2648674 106.2450837 102.7876608  24.8498674
 106.1300837 103.8636608  24.9898674 107.0390837 102.6216608  24.1218674
 106.6480837 102.3656608  25.7708674  64.1380837 117.4686608  73.0218674
  63.3740837 117.3776608  74.0838674  64.2480837 117.2196608  75.1338674
  65.5200837 117.2266608  74.6228674  65.4250837 117.3886608  73.2608674
  63.5740837 117.6536608  71.6278674  64.3300837 117.7136608  70.8438674
  62.9540837 118.5486608  71.5718674  62.8840837 116.8476608  71.3748674
  88.7750837  63.7356608 119.2408674  89.2750837  64.3926608 120.2598674
  90.4320837  63.7206608 120.5798674  90.5590837  62.6716608 119.7068674
  89.4820837  62.7006608 118.8538674  87.4820837  64.1436608 118.5638674
  87.1920837  63.5026608 117.7298674  87.5380837  65.1696608 118.2018674
  86.6580837  64.1676608 119.2778674  39.7190837  55.1556608  70.1158674
  38.5680837  54.5366608  69.9978674  37.6310837  55.5416608  69.9398674
  38.2960837  56.7376608  70.0308674  39.6380837  56.4646608  70.1428674
  41.0360837  54.4136608  70.2148674  41.9080837  55.0616608  70.3098674
  41.1850837  53.7656608  69.3498674  41.0320837  53.7206608  71.0568674
  47.0860837  46.5046608  56.0588674  47.8120837  47.4256608  55.4718674
  47.2080837  48.6156608  55.8048674  46.1250837  48.3276608  56.5948674
  46.0660837  46.9616608  56.7448674  47.4040837  45.0266608  55.9498674
  46.7120837  44.3796608  56.4918674  48.4140837  44.8176608  56.3038674
  47.4250837  44.7066608  54.9078674  32.7950837 107.7346608  73.8848674
  33.8190837 108.5386608  74.0468674  33.3110837 109.8016608  73.8468674
  31.9750837 109.6746608  73.5698674  31.6640837 108.3356608  73.5998674
  32.9120837 106.2306608  74.0188674  31.9760837 105.6926608  73.8568674
  33.2990837 105.9536608  74.9998674  33.6570837 105.8336608  73.3278674
 111.9710837  52.7706608 116.1618674 111.7830837  52.8256608 114.8648674
 110.4440837  53.0986608 114.7138674 109.8930837  53.1926608 115.9658674
 110.8950837  52.9776608 116.8828674 113.3270837  52.4876608 116.7768674
 113.3280837  52.4726608 117.8678674 114.0660837  53.2176608 116.4458674
 113.7260837  51.5376608 116.4218674  65.4900837 118.3746608  59.0908674
  66.3180837 119.3786608  58.9258674  65.5410837 120.5046608  59.0698674
  64.2570837 120.0956608  59.3198674  64.2470837 118.7206608  59.3288674
  65.9370837 116.9296608  59.0118674  65.1370837 116.2046608  59.1708674
  66.7290837 116.7256608  59.7328674  66.4050837 116.7166608  58.0498674
  39.4260837  77.7056608  63.4378674  38.1290837  77.6206608  63.2568674
  37.8490837  78.5446608  62.2768674  39.0290837  79.1446608  61.9198674
  40.0310837  78.5886608  62.6788674  40.1650837  76.8476608  64.4448674
  41.2400837  77.0296608  64.4838674  40.0050837  75.7876608  64.2478674
  39.7600837  76.9866608  65.4478674  75.8750837  39.9286608  28.1158674
  75.4810837  41.1296608  28.4648674  74.4780837  41.4436608  27.5778674
  74.3260837  40.3796608  26.7258674  75.2360837  39.4156608  27.0908674
  76.9820837  39.1916608  28.8428674  77.1990837  38.2016608  28.4388674
  76.7490837  39.0846608  29.9028674  77.9050837  39.7716608  28.8388674
  92.5330837  47.1806608  28.4628674  92.8650837  46.6846608  29.6308674
  92.3680837  47.5806608  30.5488674  91.7510837  48.5886608  29.8548674
  91.8690837  48.3106608  28.5138674  92.8900837  46.4986608  27.1578674
  92.5470837  47.0296608  26.2678674  92.4910837  45.4846608  27.1238674
  93.9670837  46.3546608  27.0738674 132.9620837  63.8196608  52.3148674
 132.2820837  62.9386608  51.6208674 131.6140837  63.6766608  50.6718674
 131.9430837  64.9936608  50.8598674 132.8120837  65.0626608  51.9238674
 133.8500837  63.4286608  53.4788674 134.3530837  64.2696608  53.9598674
 134.6100837  62.7116608  53.1668674 133.2840837  62.8896608  54.2388674
 131.8660837  76.0626608  57.9278674 132.6360837  76.8506608  58.6398674
 133.7240837  77.0996608  57.8358674 133.5360837  76.4256608  56.6578674
 132.3330837  75.7646608  56.7388674 130.5410837  75.5386608  58.4428674
 130.0110837  74.8936608  57.7388674 129.8770837  76.3586608  58.7198674
 130.6730837  74.9896608  59.3748674  53.2820837  53.1186608  67.3548674
  52.6590837  51.9656608  67.4068674  51.3240837  52.2806608  67.3048674
  51.2250837  53.6446608  67.1968674  52.4970837  54.1626608  67.2308674
  54.7910837  53.2336608  67.4338674  55.1650837  54.2566608  67.3778674
  55.2680837  52.6526608  66.6448674  55.1690837  52.7816608  68.3508674
  31.8840837 103.2946608  92.8568674  32.4610837 102.9566608  93.9858674
  33.7690837 102.6966608  93.6498674  33.9010837 102.8996608  92.2998674
  32.6750837 103.2836608  91.8108674  30.4180837 103.6676608  92.7718674
  30.0800837 103.9246608  91.7668674  30.1880837 104.5026608  93.4338674
  29.7880837 102.8606608  93.1478674  46.2530837  52.5486608 112.2978674
  45.3350837  51.6546608 112.5768674  46.0340837  50.5626608 113.0348674
  47.3680837  50.8766608 113.0018674  47.4860837  52.1606608 112.5238674
  45.9130837  53.9226608 111.7568674  46.7810837  54.5576608 111.5718674
  45.2400837  54.4526608 112.4308674  45.3420837  53.8476608 110.8308674
 110.6430837 118.4316608 111.2498674 109.7150837 119.0216608 110.5338674
 109.2210837 118.0346608 109.7138674 109.9020837 116.8786608 109.9948674
 110.8120837 117.1576608 110.9868674 111.4530837 119.1666608 112.2968674
 112.1880837 118.5446608 112.8118674 110.8040837 119.6186608 113.0478674
 111.9740837 120.0186608 111.8608674  72.6390837  50.4566608  97.2898674
  72.4460837  51.3566608  98.2248674  71.2840837  51.9966608  97.8638674
  70.8370837  51.4256608  96.7008674  71.7240837  50.4366608  96.3498674
  73.8260837  49.5146608  97.2988674  73.8520837  48.8216608  96.4568674
  73.8560837  48.9336608  98.2198674  74.7640837  50.0696608  97.3138674
  86.7220837 124.3216608  38.8118674  85.9380837 123.3146608  38.5108674
  85.9460837 122.5136608  39.6288674  86.7570837 123.1076608  40.5608674
  87.2460837 124.2706608  40.0138674  86.9990837 125.4556608  37.8458674
  87.6700837 126.2226608  38.2368674  86.0730837 125.9396608  37.5358674
  87.4180837 125.0796608  36.9128674 127.4960837  80.0966608  73.7178674
 126.5110837  79.8976608  74.5618674 125.5890837  79.1566608  73.8598674
 126.0910837  78.9506608  72.6008674 127.3200837  79.5646608  72.5318674
 128.7380837  80.8806608  74.0878674 129.4710837  80.9636608  73.2828674
 129.2330837  80.4426608  74.9548674 128.4810837  81.8866608  74.4188674
 106.7850837  86.9616608  70.9388674 105.7300837  86.9596608  71.7178674
 105.1580837  88.1986608  71.5398674 105.9290837  88.8876608  70.6388674
 106.9710837  88.0716608  70.2658674 107.7170837  85.7716608  70.8278674
 108.5510837  85.9196608  70.1418674 107.1740837  84.8786608  70.5178674
 108.1220837  85.4996608  71.8038674 111.1740837  88.3836608 115.5358674
 110.3690837  87.4056608 115.1938674 111.1350837  86.2676608 115.2908674
 112.3900837  86.6426608 115.6958674 112.3920837  88.0086608 115.8478674
 110.7290837  89.8306608 115.5668674 111.5080837  90.5316608 115.8698674
 109.8740837  89.9626608 116.2308674 110.3490837  90.1436608 114.5938674
  29.3530837  63.5506608  65.2338674  28.6820837  64.6726608  65.1308674
  29.6350837  65.6336608  64.8878674  30.8560837  65.0116608  64.8578674
  30.6510837  63.6706608  65.0838674  28.6790837  62.2206608  65.5048674
  29.3660837  61.3756608  65.5638674  27.9310837  61.9996608  64.7438674
  28.1020837  62.2566608  66.4298674  17.2920837  82.4436608  99.2338674
  16.5350837  81.8186608 100.1038674  16.7310837  80.4816608  99.8468674
  17.6200837  80.3836608  98.8078674  17.9680837  81.6586608  98.4288674
  17.3770837  83.9546608  99.1668674  18.0480837  84.3306608  98.3918674
  17.6940837  84.3716608 100.1228674  16.3920837  84.3946608  99.0078674
  19.6230837  79.5796608  60.0888674  19.7900837  78.7286608  61.0738674
  18.7370837  77.8506608  60.9638674  17.9810837  78.2386608  59.8878674
  18.5700837  79.3536608  59.3398674  20.5740837  80.7316608  59.8388674
  20.3070837  81.3536608  58.9828674  21.5930837  80.3716608  59.6928674
  20.6510837  81.3726608  60.7168674  78.5100837 139.6496608  67.5718674
  78.6950837 138.3516608  67.5758674  80.0500837 138.1876608  67.7498674
  80.6120837 139.4356608  67.8438674  79.6020837 140.3616608  67.7258674
  77.1420837 140.2766608  67.4028674  77.1440837 141.3676608  67.4208674
  76.4530837 139.9246608  68.1718674  76.6750837 139.9516608  66.4728674
  40.0370837  38.9756608  42.9278674  38.7780837  38.7096608  42.6748674
  38.2090837  39.9286608  42.3898674  39.1900837  40.8806608  42.4918674
  40.3590837  40.2446608  42.8398674  41.0390837  37.9006608  43.2928674
  42.0480837  38.2736608  43.4758674  41.0930837  37.1366608  42.5168674
  40.7150837  37.3476608  44.1758674  29.8710837  80.1906608 117.1778674
  30.0710837  79.9106608 118.4438674  31.4390837  79.8656608 118.5838674
  31.9920837  80.1286608 117.3568674  30.9640837  80.3346608 116.4668674
  28.4830837  80.3346608 116.5868674  28.4750837  80.5686608 115.5208674
  27.9140837  81.1036608 117.1088674  27.8960837  79.4296608 116.7418674
 116.5820837 122.6456608  59.5768674 116.0830837 122.9916608  58.4148674
 115.1840837 121.9976608  58.1058674 115.1990837 121.0886608  59.1318674
 116.1060837 121.5266608  60.0688674 117.6260837 123.4766608  60.2948674
 117.9460837 123.0626608  61.2518674 117.2680837 124.4926608  60.4648674
 118.5100837 123.6166608  59.6708674 108.3720837  47.2006608 101.5228674
 108.2570837  48.2646608 100.7628674 107.0510837  48.1106608 100.1198674
 106.4990837  46.9306608 100.5458674 107.3670837  46.3616608 101.4478674
 109.5730837  46.9636608 102.4148674 109.5270837  46.0366608 102.9888674
 109.7100837  47.7896608 103.1138674 110.4960837  46.9616608 101.8358674
  43.6640837  72.3616608 114.1348674  43.6900837  73.4476608 114.8698674
  43.2420837  73.0476608 116.1078674  42.9680837  71.7056608 116.0378674
  43.2470837  71.2856608 114.7588674  44.0850837  72.3536608 112.6798674
  44.0100837  71.3766608 112.1978674  45.1080837  72.7116608 112.5668674
  43.4980837  73.0656608 112.0988674  72.9370837  31.8956608  40.4398674
  72.8120837  30.5976608  40.5808674  71.4570837  30.3686608  40.5528674
  70.8320837  31.5786608  40.3928674  71.8050837  32.5476608  40.3218674
  74.2860837  32.5866608  40.4148674  74.2310837  33.6686608  40.2908674
  74.9160837  32.1836608  39.6218674  74.8490837  32.3746608  41.3238674
  54.1590837 104.9756608  89.2018674  53.4090837 103.9116608  89.3608674
  54.2910837 102.8996608  89.6618674  55.5530837 103.4336608  89.6658674
  55.4450837 104.7716608  89.3668674  53.5830837 106.3326608  88.8538674
  54.3300837 107.1226608  88.7538674  52.8510837 106.6486608  89.5968674
  53.0080837 106.2876608  87.9288674 131.0730837  70.8666608  59.3238674
 131.0920837  69.6126608  59.7078674 129.7690837  69.2626608  59.8358674
 129.0140837  70.3596608  59.5128674 129.8740837  71.3816608  59.1858674
 132.3390837  71.6576608  59.0618674 132.1650837  72.6886608  58.7488674
 132.9540837  71.1706608  58.3038674 132.9800837  71.6716608  59.9428674
  68.0380837 116.1896608  26.2638674  69.3480837 116.1306608  26.3178674
  69.6530837 114.8186608  26.0398674  68.4740837 114.1506608  25.8298674
  67.4480837 115.0536608  25.9788674  67.2710837 117.4726608  26.5108674
  66.1880837 117.3676608  26.4318674  67.5890837 118.2566608  25.8238674
  67.5030837 117.8826608  27.4938674  80.5400837 137.9346608  55.7678674
  80.2730837 136.7566608  55.2568674  79.7400837 136.0326608  56.2978674
  79.7190837 136.8446608  57.4018674  80.2390837 138.0636608  57.0378674
  81.1490837 139.0566608  54.9518674  81.3140837 139.9776608  55.5118674
  80.5290837 139.2906608  54.0858674  82.0980837 138.7496608  54.5128674
 121.6310837  90.5726608  60.7378674 121.0080837  91.7266608  60.7038674
 119.6710837  91.4066608  60.7158674 119.5690837  90.0396608  60.7588674
 120.8440837  89.5236608  60.7718674 123.1420837  90.4636608  60.7378674
 123.5160837  89.4386608  60.7688674 123.5730837  91.0096608  61.5778674
 123.5700837  90.9566608  59.8648674  79.9250837 118.4936608  37.3028674
  80.7150837 119.5146608  37.0698674  80.7680837 119.6146608  35.6988674
  79.9840837 118.6186608  35.1778674  79.4510837 117.9096608  36.2278674
  79.5880837 118.0286608  38.7048674  78.9190837 117.1676608  38.7408674
  79.1390837 118.8346608  39.2858674  80.4920837 117.7816608  39.2618674
 125.6310837  52.9266608  89.8358674 125.4290837  53.9556608  90.6248674
 126.6840837  54.4596608  90.8758674 127.5890837  53.6796608  90.2028674
 126.8890837  52.6996608  89.5398674 124.4980837  52.0706608  89.3088674
 124.8190837  51.2506608  88.6638674 123.7750837  52.6736608  88.7588674
 123.9120837  51.6506608  90.1278674  50.4100837 106.8856608  82.1368674
  49.6000837 106.0316608  81.5568674  50.3960837 104.9616608  81.2228674
  51.6730837 105.2466608  81.6338674  51.6580837 106.4906608  82.2188674
  49.9370837 108.2236608  82.6678674  50.7240837 108.8266608  83.1228674
  49.1400837 108.0936608  83.3998674  49.4690837 108.8136608  81.8788674
 103.8680837  79.9136608  77.2508674 102.9300837  79.1406608  76.7568674
 101.7750837  79.5406608  77.3878674 102.1000837  80.5586608  78.2468674
 103.4530837  80.7826608  78.1418674 105.3180837  79.8086608  76.8228674
 105.9830837  80.5166608  77.3198674 105.4180837  79.9446608  75.7458674
 105.7030837  78.8026608  76.9918674  63.4820837 116.1096608  41.6598674
  63.5690837 115.7856608  42.9278674  63.1990837 116.9216608  43.6088674
  62.9040837 117.8866608  42.6808674  63.0930837 117.3416608  41.4328674
  63.8060837 115.1346608  40.5468674  63.6880837 115.5466608  39.5428674
  63.1910837 114.2376608  40.6218674  64.8250837 114.7566608  40.6418674
 108.3210837  42.4886608  38.0668674 107.5740837  41.6306608  38.7198674
 106.9800837  40.8646608  37.7448674 107.4190837  41.3226608  36.5298674
 108.2820837  42.3686608  36.7608674 109.1620837  43.5346608  38.7678674
 109.7300837  44.1776608  38.0928674 109.8600837  43.0716608  39.4658674
 108.5460837  44.1696608  39.4038674  35.3680837 125.1666608  86.7668674
  34.5010837 125.7966608  87.5238674  34.7680837 125.3646608  88.8018674
  35.8100837 124.4756608  88.7318674  36.1800837 124.3636608  87.4128674
  35.4250837 125.3546608  85.2648674  36.1980837 124.7646608  84.7688674
  35.5780837 126.4026608  85.0068674  34.4660837 125.1146608  84.8038674
  59.6420837 125.4086608  83.9238674  58.3850837 125.6966608  83.6828674
  57.7440837 125.5076608  84.8838674  58.6820837 125.1066608  85.7998674
  59.8970837 125.0496608  85.1598674  60.7140837 125.4856608  82.8558674
  61.7130837 125.2176608  83.2038674  60.7620837 126.4846608  82.4218674
  60.4670837 124.8486608  82.0068674  92.2520837 124.5336608  41.9898674
  93.2020837 125.2236608  42.5758674  92.5410837 126.0946608  43.4098674
  91.1970837 125.8686608  43.2698674  91.0340837 124.8586608  42.3508674
  92.5440837 123.4456608  40.9768674  91.6530837 122.9586608  40.5748674
  93.1890837 122.6776608  41.4028674  93.1250837 123.8356608  40.1408674
  64.9350837 126.2976608  64.2708674  63.6640837 126.1626608  63.9758674
  63.6150837 125.1006608  63.1028674  64.8970837 124.6506608  62.9218674
  65.7300837 125.4356608  63.6828674  65.4420837 127.3666608  65.2168674
  66.5230837 127.3556608  65.3648674  64.9630837 127.2836608  66.1928674
  65.1550837 128.3606608  64.8728674  50.5130837  65.3916608  22.4728674
  49.7790837  64.4266608  22.9728674  49.3870837  64.8856608  24.2088674
  49.9270837  66.1346608  24.3798674  50.6480837  66.4396608  23.2498674
  51.1550837  65.2996608  21.1038674  51.7370837  66.1786608  20.8228674
  50.4060837  65.1256608  20.3318674  51.8030837  64.4256608  21.0338674
 114.3350837  78.8236608  76.3348674 113.5050837  79.7186608  76.8158674
 113.2850837  79.3316608  78.1178674 114.0180837  78.1946608  78.3448674
 114.6860837  77.8866608  77.1828674 114.8470837  78.8716608  74.9098674
 115.5300837  78.0606608  74.6528674 115.3490837  79.8176608  74.7068674
 114.0210837  78.8606608  74.1978674  46.0080837 121.8606608  86.9748674
  46.3790837 120.6026608  86.9648674  45.2040837 119.8876608  86.9638674
  44.1690837 120.7876608  86.9738674  44.7100837 122.0516608  86.9808674
  47.0040837 123.0026608  86.9798674  46.5470837 123.9936608  86.9878674
  47.6720837 122.9426608  86.1198674  47.6770837 122.9306608  87.8338674
 115.3450837  76.1316608  99.5288674 116.4960837  76.7536608  99.4408674
 117.4400837  75.7536608  99.4648674 116.7780837  74.5576608  99.5688674
 115.4300837  74.8246608  99.6078674 114.0200837  76.8676608  99.5378674
 113.1480837  76.2166608  99.6158674 113.9090837  77.4816608  98.6438674
 113.9810837  77.5896608 100.3538674 133.2520837 108.9416608  83.9468674
 133.5060837 107.9296608  84.7428674 134.4600837 107.1916608  84.0818674
 134.7280837 107.8246608  82.8948674 133.9390837 108.9476608  82.8298674
 132.2420837 110.0166608  84.2948674 132.1380837 110.7936608  83.5358674
 132.4920837 110.4956608  85.2418674 131.2580837 109.5836608  84.4768674
 106.2430837  51.9146608  88.7048674 107.2190837  51.1006608  88.3808674
 108.1000837  51.8746608  87.6618674 107.5840837  53.1436608  87.5968674
 106.3880837  53.1456608  88.2758674 105.0430837  51.4646608  89.5128674
 104.3130837  52.2526608  89.7058674 105.3520837  51.0456608  90.4708674
 104.5300837  50.6366608  89.0228674  82.2680837 139.9536608  87.7358674
  81.7850837 138.7646608  88.0078674  82.8870837 137.9966608  88.3058674
  83.9960837 138.7956608  88.1908674  83.5730837 140.0506608  87.8218674
  81.3830837 141.1226608  87.3508674  81.9270837 142.0476608  87.1528674
  80.6410837 141.3216608  88.1228674  80.7830837 140.8856608  86.4718674
  73.4680837  77.8176608  30.0188674  73.5030837  79.1266608  29.9488674
  72.1850837  79.5106608  29.8678674  71.4170837  78.3756608  29.8958674
  72.2650837  77.2966608  29.9938674  74.7230837  76.9746608  30.1218674
  74.5370837  75.9006608  30.1728674  75.3150837  77.2596608  30.9918674
  75.3920837  77.1656608  29.2818674  34.0550837 124.1016608  81.5268674
  35.2130837 123.4856608  81.5548674  36.1300837 124.4406608  81.1858674
  35.4470837 125.6066608  80.9518674  34.1130837 125.3646608  81.1778674
  32.7540837 123.4056608  81.8718674  31.8730837 124.0456608  81.8038674
  32.7920837 122.9816608  82.8758674  32.5940837 122.5366608  81.2328674
  94.7360837 114.6296608  32.7208674  94.9700837 113.3396608  32.7198674
  93.7310837 112.7556608  32.5928674  92.8020837 113.7616608  32.5248674
  93.4710837 114.9596608  32.6088674  95.8420837 115.6576608  32.8428674
  95.4950837 116.6926608  32.8298674  96.5790837 115.5356608  32.0488674
  96.4200837 115.5046608  33.7548674  57.2830837  90.6956608  19.7318674
  57.8680837  89.6066608  20.1718674  59.2150837  89.8716608  20.0878674
  59.3600837  91.1406608  19.5878674  58.1030837  91.6516608  19.3668674
  55.7760837  90.8336608  19.6528674  55.4350837  91.7966608  19.2678674
  55.3180837  90.6766608  20.6298674  55.3430837  90.0466608  19.0358674
  57.0110837  85.7016608 113.4218674  57.3170837  84.7146608 114.2298674
  56.3280837  84.7196608 115.1848674  55.4620837  85.7396608 114.8838674
  55.9220837  86.3576608 113.7448674  57.8510837  86.0536608 112.2118674
  57.4710837  86.8976608 111.6338674  57.9480837  85.1986608 111.5418674
  58.8790837  86.2726608 112.4998674 113.9930837  73.9896608 116.9308674
 112.7240837  74.3096608 117.0098674 112.0530837  73.1106608 116.9608674
 112.9880837  72.1136608 116.8528674 114.2300837  72.7026608 116.8348674
 115.0970837  75.0266608 116.9488674 116.1030837  74.6096608 116.8758674
 115.0460837  75.6356608 117.8518674 114.9680837  75.7486608 116.1428674
  90.2890837  19.6206608  63.4798674  91.4680837  19.0626608  63.3448674
  91.2070837  17.7236608  63.1688674  89.8460837  17.5556608  63.2098674
  89.2760837  18.7906608  63.4108674  90.1140837  21.1096608  63.6988674
  89.0740837  21.4286608  63.7928674  90.5730837  21.6796608  62.8908674
  90.6540837  21.4406608  64.5858674 110.8060837  36.6106608  65.2088674
 110.8460837  36.0496608  66.3938674 111.3920837  37.0056608  67.2188674
 111.6550837  38.1146608  66.4558674 111.2700837  37.8376608  65.1648674
 110.2670837  35.8956608  63.9878674 110.2980837  36.4886608  63.0718674
 109.2390837  35.5686608  64.1478674 110.8070837  34.9646608  63.8098674
  98.4040837  76.5926608 116.2308674  99.1380837  77.6796608 116.1968674
  99.9300837  77.6046608 117.3188674  99.6140837  76.4436608 117.9758674
  98.6290837  75.8086608 117.2578674  97.3770837  76.2716608 115.1638674
  96.8430837  75.3326608 115.3258674  97.8370837  76.2356608 114.1768674
  96.6410837  77.0706608 115.0768674  64.8420837  46.2056608 122.0438674
  66.1090837  46.4036608 121.7708674  66.2200837  47.7596608 121.5708674
  64.9750837  48.3086608 121.7408674  64.1040837  47.2896608 122.0438674
  64.2770837  44.8296608 122.3348674  63.2060837  44.8216608 122.5438674
  64.7920837  44.3656608 123.1758674  64.4680837  44.1466608 121.5068674
 118.4020837  42.0676608  73.0878674 118.9140837  40.8616608  73.0218674
 117.8310837  40.0256608  72.8808674 116.7020837  40.8036608  72.8688674
 117.0930837  42.1156608  73.0038674 119.2580837  43.3076608  73.2468674
 118.6920837  44.2396608  73.2858674 119.9870837  43.3856608  72.4408674
 119.8730837  43.2446608  74.1448674  37.1080837  63.9466608  93.2518674
  37.7940837  64.8346608  93.9308674  37.9400837  64.2846608  95.1838674
  37.3140837  63.0646608  95.1788674  36.7850837  62.8676608  93.9248674
  36.7190837  64.1536608  91.8018674  36.1500837  63.3296608  91.3698674
  37.6000837  64.3216608  91.1818674  36.1400837  65.0696608  91.6798674
  92.2390837 102.9136608  24.7178674  91.0020837 102.8826608  24.2818674
  90.2750837 102.3536608  25.3218674  91.1450837 102.0916608  26.3488674
  92.4040837 102.4596608  25.9378674  93.3860837 103.4346608  23.8748674
  94.3570837 103.3976608  24.3718674  93.2030837 104.4606608  23.5578674
  93.4620837 102.8846608  22.9368674  24.6680837  61.6686608  92.1698674
  24.1080837  62.7056608  91.5938674  24.7990837  63.7926608  92.0738674
  25.7600837  63.3286608  92.9348674  25.6570837  61.9586608  92.9808674
  24.2060837  60.2486608  91.9168674  24.7670837  59.4906608  92.4668674
  24.2550837  60.0046608  90.8558674  23.1490837  60.1326608  92.1588674
 117.0650837  61.3596608  69.5168674 118.3280837  61.7136608  69.5228674
 119.0220837  60.5436608  69.7238674 118.1070837  59.5286608  69.8288674
 116.8530837  60.0766608  69.6928674 115.9410837  62.3566608  69.3218674
 114.9440837  61.9146608  69.3408674 116.0570837  62.8966608  68.3818674
 115.9800837  63.1416608  70.0768674  46.4130837 104.6306608 123.8758674
  45.1440837 104.3666608 123.6768674  44.5340837 105.5976608 123.6078674
  45.5020837 106.5536608 123.7738674  46.7050837 105.9086608 123.9458674
  47.4590837 103.5436608 124.0148674  48.4720837 103.9156608 124.1768674
  47.4690837 102.8976608 123.1368674  47.2100837 102.8646608 124.8308674
  41.5790837 124.6526608  66.6828674  42.0180837 125.7646608  67.2218674
  43.3090837 125.8936608  66.7658674  43.5750837 124.8186608  65.9568674
  42.4470837 124.0326608  65.9178674  40.1800837 124.1256608  66.9258674
  39.9580837 123.1896608  66.4108674  39.4300837 124.8616608  66.6338674
  39.9970837 123.9806608  67.9908674  51.0300837  58.0566608  62.1618674
  50.8890837  59.2656608  61.6748674  50.4680837  59.0776608  60.3788674
  50.3790837  57.7276608  60.1608674  50.7450837  57.0886608  61.3228674
  51.4860837  57.7996608  63.5838674  51.5560837  56.7426608  63.8468674
  50.8230837  58.2856608  64.2998674  52.4540837  58.2626608  63.7728674
 107.0310837  73.3636608 113.4918674 105.9850837  72.8816608 112.8648674
 106.3650837  71.6236608 112.4588674 107.6550837  71.4226608 112.8788674
 108.0630837  72.5556608 113.5408674 107.0440837  74.7476608 114.1088674
 107.9840837  75.0106608 114.5958674 106.2400837  74.8576608 114.8368674
 106.8220837  75.5106608 113.3618674  77.7090837  76.2456608 132.6728674
  77.2510837  75.8836608 133.8478674  75.8830837  75.9236608 133.7218674
  75.5930837  76.3196608 132.4408674  76.7840837  76.5206608 131.7838674
  79.1900837  76.3386608 132.3688674  79.4180837  76.6526608 131.3488674
  79.6860837  75.3846608 132.5508674  79.6880837  77.0226608 133.0558674
  86.7790837  47.2126608  23.6548674  87.1660837  48.1146608  22.7848674
  87.3410837  49.2626608  23.5218674  87.0400837  48.9706608  24.8278674
  86.6800837  47.6456608  24.8898674  86.4710837  45.7826608  23.2608674
  86.1600837  45.1466608  24.0928674  87.3300837  45.3156608  22.7778674
  85.6950837  45.7466608  22.4968674 109.5560837  88.6786608 104.4278674
 109.6100837  87.7926608 105.3938674 110.0220837  88.4996608 106.4988674
 110.1960837  89.8046608 106.1188674 109.8900837  89.8976608 104.7808674
 109.1410837  88.3206608 103.0158674 109.1440837  89.1626608 102.3218674
 108.1470837  87.8716608 103.0028674 109.7810837  87.5386608 102.6068674
  39.2030837  59.8346608  48.2128674  39.3180837  60.7966608  49.0968674
  38.0250837  61.1356608  49.4208674  37.1880837  60.3326608  48.6898674
  37.9680837  59.5036608  47.9188674  40.4040837  59.1606608  47.5818674
  40.1520837  58.3786608  46.8638674  41.0540837  58.7286608  48.3428674
  41.0430837  59.8896608  47.0818674  37.5800837  40.3986608  71.0028674
  37.2120837  39.1996608  70.6188674  38.3770837  38.4696608  70.5758674
  39.4030837  39.2996608  70.9478674  38.8670837  40.5366608  71.2178674
  36.5930837  41.5336608  71.1838674  37.0460837  42.4726608  71.5068674
  35.8160837  41.2656608  71.8988674  36.0410837  41.7216608  70.2628674
 116.1700837  29.4546608  78.0108674 115.7200837  28.4426608  77.3068674
 114.4710837  28.1826608  77.8198674 114.2400837  29.0806608  78.8308674
 115.3470837  29.8896608  78.9348674 117.5330837  30.0706608  77.7708674
 117.7690837  30.9046608  78.4338674 117.6310837  30.4146608  76.7418674
 118.3220837  29.3236608  77.8688674  32.2690837  86.1896608  67.7058674
  31.3340837  87.0006608  68.1408674  30.3040837  86.1766608  68.5298674
  30.6950837  84.8826608  68.2978674  31.9630837  84.9156608  67.7678674
  33.5970837  86.6886608  67.1748674  34.2740837  85.8976608  66.8498674
  34.1130837  87.2936608  67.9208674  33.4510837  87.3766608  66.3418674
 108.5330837 113.8646608 102.4068674 107.2910837 114.2866608 102.4298674
 106.5330837 113.1476608 102.5718674 107.3910837 112.0806608 102.6278674
 108.6730837 112.5646608 102.5198674 109.7100837 114.8056608 102.2618674
 110.6820837 114.3096608 102.2588674 109.7120837 115.5546608 103.0538674
 109.6270837 115.3976608 101.3498674  94.6890837  47.2876608  95.9448674
  95.9530837  47.4666608  95.6448674  95.9420837  48.2856608  94.5398674
  94.6330837  48.5556608  94.2348674  93.8440837  47.9036608  95.1518674
  94.2420837  46.4366608  97.1158674  93.1600837  46.3806608  97.2398674
  94.6750837  46.7976608  98.0488674  94.6280837  45.4206608  97.0298674
  91.3100837  86.9626608 127.3918674  92.2430837  87.8736608 127.5378674
  92.3830837  88.0206608 128.8978674  91.5010837  87.1636608 129.5038674
  90.8210837  86.4926608 128.5148674  90.8380837  86.4906608 126.0318674
  90.0580837  85.7286608 126.0688674  91.6690837  86.0996608 125.4438674
  90.4710837  87.3256608 125.4348674  84.7130837  70.8406608  34.1358674
  85.7870837  70.1816608  34.5018674  86.1980837  69.5186608  33.3698674
  85.3200837  69.8286608  32.3628674  84.3720837  70.6806608  32.8788674
  83.9290837  71.7156608  35.0918674  83.0600837  72.1996608  34.6438674
  84.5650837  72.4886608  35.5238674  83.5930837  71.1446608  35.9578674
 126.6360837  46.9866608  67.9128674 126.7180837  45.6776608  67.9058674
 128.0670837  45.4076608  67.9028674 128.7320837  46.6066608  67.9088674
 127.7910837  47.6096608  67.9158674 125.3100837  47.7196608  67.9178674
 125.4010837  48.8066608  67.9238674 124.7030837  47.4236608  68.7738674
 124.7020837  47.4326608  67.0598674  89.2800837 122.0756608 116.9858674
  90.5340837 121.7126608 117.1218674  91.2630837 122.8276608 116.7788674
  90.3760837 123.8206608 116.4488674  89.1060837 123.3136608 116.5898674
  88.1260837 121.1346608 117.2658674  87.1410837 121.5776608 117.1098674
  88.1710837 120.7546608 118.2868674  88.1970837 120.2356608 116.6538674
  78.5020837 101.4026608 132.7958674  79.2430837 100.4516608 133.3118674
  80.5270837 100.7536608 132.9248674  80.4780837 101.9026608 132.1778674
  79.1640837 102.3026608 132.1078674  77.0000837 101.4566608 132.9818674
  76.5190837 102.3056608 132.4948674  76.7370837 101.4766608 134.0398674
  76.5280837 100.5426608 132.6178674 117.6740837  83.7266608  51.4008674
 118.7800837  83.1326608  51.7828674 119.7260837  84.1306608  51.8058674
 119.1120837  85.2966608  51.4248674 117.7920837  85.0126608  51.1688674
 116.3650837  82.9816608  51.2408674 115.5310837  83.6076608  50.9168674
 116.0790837  82.4886608  52.1698674 116.4680837  82.1576608  50.5338674
  73.4620837  62.6216608 138.6538674  73.4860837  61.3116608 138.5898674
  74.6650837  60.9496608 139.1978674  75.2950837  62.0986608 139.6028674
  74.5020837  63.1626608 139.2418674  72.3190837  63.4426608 138.0918674
  72.4380837  64.5196608 138.2198674  71.3700837  63.1496608 138.5398674
  72.1770837  63.2386608 137.0308674  53.0030837  57.9606608  22.9958674
  51.7440837  57.9576608  22.6268674  51.6910837  57.0906608  21.5608674
  52.9590837  56.6126608  21.3478674  53.7870837  57.1866608  22.2838674
  53.5100837  58.7956608  24.1538674  54.5800837  58.6956608  24.3428674
  52.9770837  58.5516608  25.0738674  53.2880837  59.8526608  24.0008674
  25.3140837  96.5496608 109.2788674  25.4960837  97.7996608 108.9248674
  24.2310837  98.2916608 108.7028674  23.3410837  97.2766608 108.9438674
  24.0610837  96.1646608 109.3128674  26.4650837  95.6256608 109.6208674
  26.1590837  94.6146608 109.8968674  27.0660837  96.0336608 110.4338674
  27.1690837  95.5536608 108.7908674  95.4860837 122.0046608  95.4328674
  96.1980837 122.3996608  94.4038674  97.2280837 121.4926608  94.3178674
  97.0670837 120.5816608  95.3298674  95.9400837 120.9306608  96.0348674
  94.2390837 122.7336608  95.8878674  93.7530837 122.2886608  96.7578674
  93.5070837 122.7956608  95.0828674  94.4580837 123.7776608  96.1168674
  22.2980837  67.4376608  58.2928674  23.6000837  67.6026608  58.2908674
  24.1160837  66.3336608  58.4188674  23.0620837  65.4596608  58.4918674
  21.9010837  66.1926608  58.4088674  21.3310837  68.5976608  58.1708674
  20.2800837  68.3066608  58.1888674  21.5130837  69.1636608  57.2578674
  21.4960837  69.3286608  58.9638674 123.2660837 110.7066608 107.1978674
 122.1540837 111.2076608 107.6808674 121.1780837 110.3056608 107.3278674
 121.7810837 109.2876608 106.6348674 123.1250837 109.5666608 106.5628674
 124.6070837 111.3926608 107.3618674 125.4410837 110.8576608 106.9068674
 124.8380837 111.5526608 108.4148674 124.5830837 112.4016608 106.9478674
 104.0590837 125.5186608  46.3128674 103.9830837 126.8176608  46.4798674
 105.2850837 127.2286608  46.6458674 106.0860837 126.1196608  46.5648674
 105.2760837 125.0296608  46.3508674 102.8350837 124.6526608  46.0938674
 103.0550837 123.5916608  45.9698674 102.2710837 124.9876608  45.2228674
 102.1280837 124.7616608  46.9158674  95.7960837  27.4546608 108.8548674
  96.9410837  27.9106608 109.3028674  96.6370837  28.5086608 110.5038674
  95.2890837  28.3706608 110.7088674  94.7670837  27.6896608 109.6338674
  95.6740837  26.7146608 107.5378674  94.6580837  26.3956608 107.2968674
  96.3200837  25.8366608 107.5218674  96.0450837  27.3226608 106.7128674
  68.8440837  23.0406608  81.7998674  69.9990837  22.4576608  81.5848674
  70.7050837  23.3466608  80.8088674  69.9070837  24.4416608  80.5978674
  68.7140837  24.2226608  81.2458674  67.7480837  22.3976608  82.6248674
  66.8440837  23.0016608  82.7158674  68.1020837  22.1596608  83.6278674
  67.4690837  21.4266608  82.2138674 115.9100837  77.6506608  38.5538674
 115.7860837  78.8766608  39.0038674 115.5400837  78.7346608  40.3498674
 115.5310837  77.3936608  40.6328674 115.7720837  76.7146608  39.4618674
 116.1920837  77.3436608  37.0968674 116.2690837  76.2786608  36.8718674
 117.1100837  77.8296608  36.7658674 115.4250837  77.7736608  36.4518674
 114.8020837  72.8216608  54.3138674 115.6680837  72.5536608  53.3658674
 116.4880837  71.5876608  53.8998674 116.0510837  71.3266608  55.1728674
 114.9640837  72.1326608  55.4188674 113.7000837  73.8486608  54.1438674
 113.0570837  73.9626608  55.0178674 113.0710837  73.6076608  53.2868674
 114.1130837  74.8266608  53.8938674  26.2000837  96.6076608  72.6198674
  25.6160837  95.4446608  72.7868674  25.4510837  94.9466608  71.5158674
  25.9600837  95.8686608  70.6368674  26.4370837  96.9296608  71.3698674
  26.5700837  97.5066608  73.7818674  27.0490837  98.4426608  73.4878674
  27.2280837  96.9916608  74.4808674  25.6930837  97.7476608  74.3838674
 136.1890837  66.8396608  56.9548674 135.4390837  67.8976608  56.7588674
 136.3270837  68.9416608  56.6378674 137.5920837  68.4316608  56.7728674
 137.4790837  67.0766608  56.9768674 135.6070837  65.4536608  57.1418674
 136.3540837  64.6726608  57.2958674 134.9890837  65.1706608  56.2898674
 134.9130837  65.4316608  57.9828674  35.5650837  85.6066608 124.7368674
  34.4380837  86.1116608 125.1778674  34.8130837  87.0676608 126.0928674
  36.1830837  87.0776608 126.1458674  36.6460837  86.1296608 125.2648674
  35.6120837  84.5046608 123.6978674  36.6210837  84.1856608 123.4288674
  35.0950837  84.8046608 122.7858674  35.0560837  83.6286608 124.0318674
  47.4260837  81.5426608  33.7708674  48.5790837  81.6396608  33.1518674
  49.2840837  82.5826608  33.8638674  48.4870837  83.0066608  34.8968674
  47.2970837  82.3236608  34.8168674  46.3320837  80.6016608  33.3098674
  45.4300837  80.6306608  33.9238674  46.6900837  79.5726608  33.2788674
  46.0490837  80.8076608  32.2778674  83.8700837 126.8066608  47.1708674
  82.5840837 126.8966608  46.9258674  82.2780837 125.7546608  46.2228674
  83.4320837 125.0276608  46.0848674  84.4440837 125.7236608  46.7028674
  84.6300837 127.8716608  47.9348674  85.6930837 127.6586608  48.0608674
  84.1940837 128.0296608  48.9218674  84.5320837 128.8436608  47.4518674
  76.4220837  83.4996608 140.8078674  77.0620837  82.3616608 140.9348674
  78.3940837  82.6966608 140.8718674  78.4750837  84.0556608 140.7058674
  77.1940837  84.5516608 140.6668674  74.9100837  83.5896608 140.8228674
  74.5210837  84.6026608 140.7068674  74.5030837  83.1716608 141.7438674
  74.4740837  82.9656608 140.0428674  31.1240837  90.0756608 111.5998674
  32.3380837  89.6066608 111.7678674  33.1420837  90.7206608 111.8198674
  32.3390837  91.8226608 111.6758674  31.0440837  91.3836608 111.5358674
  29.9110837  89.1746608 111.4898674  28.9690837  89.7076608 111.3518674
  29.8170837  88.5366608 112.3688674  30.0240837  88.4656608 110.6688674
  44.5040837 108.3116608  90.2908674  44.2050837 108.7346608  91.4968674
  45.3950837 109.1856608  92.0168674  46.3640837 109.0006608  91.0648674
  45.7670837 108.4366608  89.9618674  43.4670837 107.7246608  89.3548674
  43.8640837 107.4166608  88.3858674  42.6540837 108.4296608  89.1818674
  42.9720837 106.8666608  89.8088674  87.5110837 121.6876608  35.6828674
  87.2880837 122.8436608  35.1038674  85.9600837 122.8086608  34.7468674
  85.4530837 121.5986608  35.1438674  86.4690837 120.8936608  35.7448674
  88.8680837 121.3026608  36.2368674  88.9010837 120.3106608  36.6888674
  89.2070837 122.0266608  36.9778674  89.6330837 121.3496608  35.4618674
  48.5040837  45.4526608  93.8438674  48.6220837  44.6036608  94.8368674
  49.6380837  43.7576608  94.4598674  50.0820837  44.1626608  93.2268674
  49.3380837  45.2556608  92.8508674  47.4850837  46.5736608  93.8478674
  47.5050837  47.1996608  92.9538674  47.6150837  47.2176608  94.7178674
  46.4740837  46.1816608  93.9668674  92.2750837  92.6196608  42.7458674
  92.5850837  93.8946608  42.7238674  93.9600837  93.9226608  42.7188674
  94.4040837  92.6256608  42.7388674  93.3020837  91.8036608  42.7548674
  90.8410837  92.1316608  42.7578674  90.7390837  91.0446608  42.7758674
  90.2910837  92.5106608  41.8968674  90.2970837  92.5386608  43.6098674
  56.2010837  88.4056608 129.0498674  55.1490837  87.6386608 129.2108674
  55.1360837  87.3346608 130.5528674  56.2130837  87.9566608 131.1308674
  56.8840837  88.6396608 130.1448674  56.5950837  88.9736608 127.7008674
  57.4930837  89.5936608 127.7228674  55.7830837  89.5636608 127.2748674
  56.7460837  88.1786608 126.9708674  60.7320837  61.6606608  21.2328674
  61.8150837  60.9506608  21.0248674  61.3870837  59.6436608  21.0268674
  60.0320837  59.6486608  21.2408674  59.6320837  60.9586608  21.3708674
  60.7520837  63.1736608  21.3058674  59.7750837  63.6256608  21.4828674
  61.1660837  63.6036608  20.3938674  61.4330837  63.5176608  22.0848674
  93.0520837  35.0906608 112.2328674  92.7470837  34.0566608 112.9818674
  93.5300837  33.0316608 112.5048674  94.2790837  33.5266608 111.4688674
  93.9550837  34.8536608 111.3108674  92.4090837  36.4496608 112.4208674
  92.7630837  37.2106608 111.7238674  92.5630837  36.8176608 113.4348674
  91.3250837  36.3836608 112.3328674  87.9310837  60.9036608  17.8558674
  87.5120837  60.8066608  19.0948674  88.3120837  61.6686608  19.8078674
  89.1890837  62.2476608  18.9268674  88.9260837  61.7406608  17.6758674
  87.3130837  60.1096608  16.7228674  87.7670837  60.2956608  15.7478674
  86.2440837  60.3086608  16.6448674  87.3620837  59.0396608  16.9238674
  54.0260837 129.2186608  49.2748674  53.0220837 128.8616608  50.0398674
  51.9220837 128.8956608  49.2148674  52.3450837 129.2826608  47.9698674
  53.7040837 129.4846608  48.0318674  55.4480837 129.3156608  49.7908674
  56.1760837 129.6246608  49.0398674  55.7760837 128.3646608  50.2128674
  55.5120837 130.0056608  50.6328674  45.5710837  66.7076608  50.3608674
  45.4060837  66.0506608  51.4838674  45.2940837  67.0236608  52.4498674
  45.4010837  68.2416608  51.8288674  45.5790837  68.0136608  50.4848674
  45.7390837  66.0106608  49.0268674  45.8660837  66.6886608  48.1808674
  44.8900837  65.3596608  48.8168674  46.5880837  65.3276608  49.0468674
 104.4820837 102.3226608  76.6038674 105.0680837 101.1566608  76.4628674
 104.0380837 100.2476608  76.4068674 102.8620837 100.9426608  76.5218674
 103.1720837 102.2766608  76.6468674 105.2610837 103.6176608  76.7088674
 104.6370837 104.5056608  76.8228674 105.9010837 103.7606608  75.8378674
 105.9630837 103.5846608  77.5418674  60.2300837  89.4166608 129.7958674
  59.9600837  88.1806608 130.1428674  61.0360837  87.4466608 129.7018674
  61.9130837  88.3126608 129.0988674  61.3730837  89.5756608 129.1718674
  59.2940837  90.5696608 130.0948674  59.6530837  91.5386608 129.7468674
  59.0950837  90.6436608 131.1648674  58.3090837  90.3946608 129.6618674
 132.4410837  55.7286608  88.5738674 131.8980837  54.5416608  88.7028674
 130.5750837  54.7876608  88.9878674 130.3990837  56.1466608  89.0128674
 131.6140837  56.7326608  88.7438674 133.9090837  55.9216608  88.2538674
 134.2160837  56.9656608  88.1768674 134.1750837  55.4186608  87.3238674
 134.5380837  55.4346608  88.9988674  64.2170837  31.5916608  79.4418674
  63.8620837  30.3296608  79.4188674  65.0460837  29.6296608  79.4178674
  66.0700837  30.5416608  79.4428674  65.5130837  31.7986608  79.4578674
  63.2080837  32.7216608  79.4508674  63.6520837  33.7176608  79.4718674
  62.5300837  32.6326608  80.3008674  62.5460837  32.6606608  78.5868674
 134.9350837  79.0446608  61.0268674 135.6620837  79.8286608  61.7878674
 136.9560837  79.4066608  61.5928674 136.9260837  78.3656608  60.7018674
 135.6150837  78.1496608  60.3508674 133.4270837  79.1666608  60.9388674
 132.9590837  78.4466608  60.2648674 133.1340837  80.1686608  60.6238674
 132.9680837  79.0616608  61.9218674  85.1410837 136.5856608  84.9378674
  85.3020837 137.7666608  85.4848674  86.2960837 138.3646608  84.7468674
  86.6830837 137.4806608  83.7738674  85.9260837 136.3416608  83.9158674
  84.1270837 135.5826608  85.4498674  84.1070837 134.6436608  84.8948674
  83.1220837 136.0056608  85.4418674  84.3010837 135.3536608  86.5018674
  41.9050837 107.7176608 120.1358674  42.3090837 108.6946608 120.9118674
  41.1530837 109.2446608 121.4168674  40.0960837 108.5436608 120.8968674
  40.6030837 107.5656608 120.0748674  42.8690837 106.8346608 119.3698674
  42.3870837 106.0646608 118.7658674  43.5730837 106.3476608 120.0448674
  43.5080837 107.4296608 118.7168674  96.3460837  82.3446608 133.1678674
  96.8690837  83.5476608 133.1348674  98.2290837  83.3416608 133.1438674
  98.4450837  81.9876608 133.1828674  97.2190837  81.3656608 133.1978674
  94.8500837  82.1076608 133.1708674  94.5640837  81.0556608 133.1998674
  94.3800837  82.5646608 132.2998674  94.3760837  82.6136608 134.0128674
  63.1880837  96.5326608  25.5768674  62.3870837  97.1516608  26.4108674
  62.4330837  96.4046608  27.5648674  63.2850837  95.3526608  27.3468674
  63.7590837  95.4556608  26.0598674  63.4330837  97.0276608  24.1658674
  64.1240837  96.4096608  23.5898674  63.8120837  98.0496608  24.1698674
  62.4980837  97.1026608  23.6098674 134.4140837  89.5176608  65.4078674
 133.3370837  88.8076608  65.1688674 132.9770837  88.2906608  66.3918674
 133.8870837  88.7356608  67.3158674 134.8030837  89.5236608  66.6608674
 135.1500837  90.2716608  64.3188674 136.0280837  90.8176608  64.6678674
 134.4880837  90.9776608  63.8158674 135.4620837  89.5986608  63.5198674
  97.8910837  32.7656608 109.7128674  98.1890837  31.6086608 110.2558674
  99.5030837  31.7286608 110.6428674  99.9270837  32.9856608 110.2978674
  98.8720837  33.6366608 109.7008674  96.5200837  33.0696608 109.1448674
  96.4210837  34.0726608 108.7268674  95.7460837  32.9376608 109.9018674
  96.2490837  32.3496608 108.3718674 108.6080837  33.7486608  57.0808674
 107.7190837  32.9576608  57.6318674 108.4230837  31.8356608  57.9988674
 109.7320837  32.0266608  57.6358674 109.8280837  33.2656608  57.0468674
 108.2530837  35.1146608  56.5288674 109.0970837  35.6576608  56.1018674
 107.7990837  35.7406608  57.2978674 107.4760837  35.0376608  55.7678674
  33.9170837 122.7226608  59.9128674  32.7990837 123.4086608  59.9408674
  33.1930837 124.7256608  59.9148674  34.5630837 124.7516608  59.8718674
  35.0080837 123.4506608  59.8718674  33.9430837 121.2076608  59.9288674
  34.9460837 120.7776608  59.9018674  33.3750837 120.7986608  59.0928674
  33.4280837 120.8166608  60.8058674  68.6140837  27.3636608  96.5738674
  68.4920837  26.1546608  97.0688674  67.8840837  25.4256608  96.0738674
  67.6710837  26.2666608  95.0118674  68.1490837  27.5086608  95.3558674
  69.2440837  28.5016608  97.3518674  69.2750837  29.4486608  96.8108674
  70.2590837  28.2496608  97.6588674  68.7220837  28.6646608  98.2948674
 119.9080837  47.2926608  74.4888674 120.8630837  48.1846608  74.3758674
 120.3010837  49.2136608  73.6558674 119.0060837  48.8656608  73.3728674
 118.7740837  47.6256608  73.9188674 120.1020837  45.9816608  75.2218674
 119.2190837  45.3406608  75.2338674 120.4130837  46.1526608  76.2528674
 120.9290837  45.4136608  74.7948674 121.2720837  73.2226608 104.2868674
 120.0000837  73.5226608 104.1768674 119.7090837  74.2466608 105.3098674
 120.8580837  74.3386608 106.0518674 121.8510837  73.6726608 105.3748674
 122.0120837  72.4186608 103.2378674 123.0650837  72.2476608 103.4658674
 121.9490837  72.8986608 102.2608674 121.5360837  71.4506608 103.0798674
  39.1400837 123.1466608  95.5278674  38.9720837 124.4326608  95.7248674
  37.6580837 124.5626608  96.1078674  37.1010837 123.3096608  96.1188674
  38.0730837 122.4136608  95.7418674  40.4640837 122.5556608  95.0878674
  40.4510837 121.4716608  94.9658674  41.2580837 122.8106608  95.7908674
  40.7980837 123.0006608  94.1508674  32.0560837  58.6136608  56.6228674
  32.8660837  57.6276608  56.9238674  32.2370837  56.4976608  56.4568674
  31.0520837  56.8856608  55.8868674  30.9560837  58.2516608  56.0048674
  32.3670837  60.0566608  56.9628674  31.6000837  60.7656608  56.6488674
  33.3160837  60.3656608  56.5228674  32.5280837  60.1796608  58.0338674
  22.8620837  71.0726608  44.1368674  23.3970837  70.4776608  43.0968674
  22.3300837  70.1256608  42.3038674  21.1860837  70.5426608  42.9348674
  21.5530837  71.1496608  44.1128674  23.6940837  71.6266608  45.2748674
  23.1100837  72.0936608  46.0698674  24.4180837  72.3556608  44.9108674
  24.3150837  70.8486608  45.7198674 106.1980837 102.0016608  45.0208674
 106.3470837 101.3246608  46.1338674 107.4720837 101.8536608  46.7218674
 107.9450837 102.8446608  45.9008674 107.1090837 102.9226608  44.8118674
 105.0620837 101.7386608  44.0528674 105.0690837 102.3806608  43.1708674
 104.0960837 101.8466608  44.5458674 105.0660837 100.7006608  43.7198674
 110.4870837  80.6486608 104.3778674 109.1900837  80.8206608 104.4748674
 108.8290837  81.4496608 103.3058674 109.9650837  81.6216608 102.5568674
 111.0200837  81.0986608 103.2668674 111.3030837  79.9806608 105.4668674
 112.3690837  79.9086608 105.2448674 110.9290837  78.9786608 105.6758674
 111.1870837  80.5026608 106.4168674  45.7670837  62.7896608  23.2268674
  46.0750837  62.7376608  24.5008674  45.0070837  63.3166608  25.1458674
  44.0960837  63.6916608  24.1928674  44.6060837  63.3426608  22.9638674
  46.6810837  62.2516608  22.1458674  46.2910837  62.3646608  21.1328674
  46.9030837  61.1976608  22.3098674  47.6600837  62.7296608  22.1888674
 118.9610837 102.6576608 118.2388674 117.6960837 102.3116608 118.2738674
 117.7070837 100.9366608 118.2968674 119.0160837 100.5296608 118.2728674
 119.8060837 101.6546608 118.2358674 119.4080837 104.1046608 118.2038674
 120.4910837 104.2376608 118.1768674 119.0180837 104.6546608 119.0608674
 118.9790837 104.6256608 117.3478674  79.0840837 129.2456608 103.3438674
  78.5320837 130.3346608 102.8628674  77.3310837 129.9176608 102.3358674
  77.2330837 128.5656608 102.5398674  78.3730837 128.1546608 103.1898674
  80.4380837 129.2516608 104.0238674  80.7670837 128.2716608 104.3728674
  80.4460837 129.9366608 104.8718674  81.2050837 129.6536608 103.3618674
 127.3990837  89.9306608  96.4598674 126.4840837  90.5786608  95.7778674
 127.1460837  91.0696608  94.6778674 128.4560837  90.6756608  94.7678674
 128.5960837  89.9426608  95.9228674 127.0930837  89.2236608  97.7648674
 127.9540837  88.7276608  98.2158674 126.3040837  88.4826608  97.6318674
 126.6760837  89.9156608  98.4958674  26.9430837  58.1586608  45.7628674
  27.5670837  57.4326608  46.6598674  28.3980837  56.6116608  45.9338674
  28.2160837  56.9026608  44.6068674  27.2750837  57.9016608  44.5198674
  25.9180837  59.2096608  46.1368674  25.4830837  59.7326608  45.2828674
  26.3480837  59.9536608  46.8078674  25.1060837  58.7746608  46.7198674
  73.0040837 108.7756608  48.8868674  73.0240837 107.7076608  49.6468674
  71.9690837 107.8706608  50.5138674  71.3620837 109.0616608  50.2128674
  72.0440837 109.6276608  49.1618674  74.0100837 109.0056608  47.7778674
  73.8670837 109.9386608  47.2308674  73.9960837 108.1846608  47.0608674
  75.0290837 108.9906608  48.1658674  63.0990837  35.6176608  61.8138674
  61.9350837  35.3736608  62.3678674  61.0180837  35.9776608  61.5398674
  61.7070837  36.5646608  60.5098674  63.0460837  36.3196608  60.7068674
  64.4030837  35.1256608  62.4088674  65.2890837  35.4066608  61.8378674
  64.3970837  34.0416608  62.5198674  64.5270837  35.4876608  63.4298674
  59.3340837  49.5476608  73.4208674  60.5010837  48.9606608  73.5438674
  60.2190837  47.6146608  73.5638674  58.8610837  47.4706608  73.4478674
  58.3110837  48.7286608  73.3568674  59.1830837  51.0536608  73.3568674
  58.1510837  51.3946608  73.2538674  59.7630837  51.4696608  72.5338674
  59.6120837  51.5266608  74.2398674  26.5720837  74.2176608  74.2928674
  25.4690837  73.6636608  73.8478674  24.9100837  73.0566608  74.9488674
  25.7360837  73.2916608  76.0188674  26.7990837  74.0406608  75.5728674
  27.5080837  75.0016608  73.3948674  28.3840837  75.4036608  73.9058674
  26.9850837  75.8276608  72.9118674  27.8500837  74.3896608  72.5598674
  28.8470837  76.8506608 108.1458674  28.0650837  77.8376608 107.7768674
  28.1830837  78.7736608 108.7778674  29.0530837  78.2766608 109.7138674
  29.4680837  77.0376608 109.2858674  29.0170837  75.5936608 107.3168674
  29.6990837  74.8606608 107.7508674  29.3670837  75.8326608 106.3118674
  28.0570837  75.1066608 107.1448674 129.4600837  94.4206608  82.2538674
 129.3500837  95.3976608  81.3848674 130.5960837  95.5016608  80.8118674
 131.4010837  94.5536608  81.3878674 130.6490837  93.8696608  82.3138674
 128.3030837  93.9676608  83.1198674 128.5450837  93.1446608  83.7948674
 127.4510837  93.6676608  82.5078674 127.9130837  94.7936608  83.7148674
  74.5300837  49.3726608 131.0968674  74.1750837  50.3066608 131.9468674
  72.8120837  50.1726608 132.0698674  72.4200837  49.1366608 131.2618674
  73.5430837  48.6356608 130.6458674  75.9690837  49.1636608 130.6718674
  76.1100837  48.3486608 129.9598674  76.6080837  48.9766608 131.5348674
  76.3840837  50.0726608 130.2368674  50.2340837  31.2816608  52.9528674
  50.9670837  32.3076608  52.5928674  50.4970837  32.6586608  51.3488674
  49.4810837  31.7966608  51.0288674  49.3280837  30.9186608  52.0758674
  50.4200837  30.5726608  54.2788674  49.7370837  29.7366608  54.4388674
  50.3100837  31.2676608  55.1118674  51.4410837  30.2046608  54.3848674
  90.8250837  50.1726608 104.3758674  89.6500837  49.6346608 104.5978674
  88.8280837  50.1706608 103.6348674  89.5820837  51.0236608 102.8708674
  90.8650837  51.0086608 103.3658674  92.0400837  49.8516608 105.2218674
  92.9480837  50.3756608 104.9178674  92.2470837  48.7816608 105.2178674
  91.8550837  50.0736608 106.2728674  49.9450837  96.5856608  24.0038674
  48.9500837  96.3166608  24.8158674  48.6390837  95.0006608  24.5698674
  49.4910837  94.5446608  23.5968674  50.3230837  95.5826608  23.2468674
  50.6040837  97.9486608  23.9468674  51.4170837  98.0216608  23.2228674
  50.9910837  98.2366608  24.9238674  49.8740837  98.7256608  23.7188674
  47.8810837 105.0386608  91.7318674  49.0640837 105.5356608  91.4628674
  49.5250837 104.7946608  90.3998674  48.5620837 103.8706608  90.0868674
  47.5120837 104.0456608  90.9568674  47.0090837 105.5706608  92.8508674
  46.0520837 105.0576608  92.9548674  46.8130837 106.6356608  92.7208674
  47.5290837 105.5206608  93.8088674  44.8120837 133.2836608  85.8448674
  43.9230837 134.0756608  85.2928674  42.7070837 133.5826608  85.7038674
  42.9470837 132.4926608  86.5008674  44.3090837 132.3186608  86.5778674
  46.3030837 133.4716608  85.6498674  46.9180837 132.7366608  86.1698674
  46.6160837 134.4666608  85.9688674  46.5640837 133.4476608  84.5908674
 103.8870837 126.5106608  82.4008674 103.4670837 125.6276608  81.5258674
 104.4080837 125.6496608  80.5228674 105.3640837 126.5706608  80.8678674
 105.0080837 127.1126608  82.0808674 103.1340837 126.8086608  83.6818674
 103.6040837 127.5656608  84.3108674 103.0010837 125.9046608  84.2768674
 102.1130837 127.1276608  83.4688674 111.2360837  38.2056608  45.0848674
 111.6680837  38.5366608  46.2788674 112.2180837  37.3826608  46.7868674
 112.0780837  36.4016608  45.8398674 111.4430837  36.9536608  44.7528674
 110.5510837  39.1956608  44.1638674 110.2470837  38.7756608  43.2038674
 111.1900837  40.0576608  43.9718674 109.6710837  39.6286608  44.6408674
 100.1370837  81.7926608  23.9348674  98.8510837  81.6076608  24.1218674
  98.5130837  82.4786608  25.1308674  99.6480837  83.1526608  25.4988674
 100.6810837  82.6956608  24.7148674 100.9270837  81.0226608  22.8968674
 101.9860837  81.2836608  22.8568674 100.5040837  81.1596608  21.9018674
 100.8480837  79.9476608  23.0638674 113.0380837  83.3556608 108.9798674
 111.8640837  82.8646608 108.6588674 111.8270837  81.6236608 109.2498674
 113.0150837  81.4396608 109.9078674 113.7790837  82.5666608 109.7208674
 113.4980837  84.7266608 108.5278674 114.4970837  84.9986608 108.8728674
 112.8030837  85.4996608 108.8548674 113.4790837  84.8066608 107.4408674
 121.8330837  95.7516608  98.4168674 120.7570837  96.2916608  98.9358674
 120.9050837  96.1366608 100.2948674 122.0960837  95.4946608 100.5138674
 122.6770837  95.2566608  99.2908674 122.0810837  95.7046608  96.9228674
 123.0190837  95.2246608  96.6398674 122.0670837  96.7066608  96.4928674
 121.2670837  95.1936608  96.4078674  97.0730837 123.1326608 116.8218674
  96.1240837 122.2276608 116.8468674  94.9560837 122.9446608 116.9658674
  95.2850837 124.2746608 117.0068674  96.6540837 124.3726608 116.9118674
  98.5390837 122.7706608 116.6978674  99.2120837 123.6296608 116.6918674
  98.7230837 122.1866608 115.7968674  98.8460837 122.1036608 117.5038674
  34.9420837  89.7796608 112.7308674  34.2780837  89.8766608 113.8578674
  33.4670837  88.7666608 113.8858674  33.7000837  88.0506608 112.7398674
  34.6540837  88.7216608 112.0108674  35.9630837  90.8126608 112.2958674
  36.4340837  90.5976608 111.3358674  36.7480837  90.9246608 113.0438674
  35.5160837  91.8046608 112.2418674  88.0570837  33.3876608  69.0858674
  87.3570837  32.5506608  69.8148674  86.6250837  31.8196608  68.9078674
  86.9390837  32.2756608  67.6538674  87.8630837  33.2846608  67.7918674
  89.0140837  34.3926608  69.6928674  89.5250837  35.0206608  68.9618674
  89.7690837  33.8946608  70.3018674  88.5000837  35.0426608  70.4008674
 115.4300837 105.0666608 103.7098674 114.8800837 105.9776608 104.4778674
 113.6420837 105.4696608 104.7978674 113.5210837 104.2496608 104.1838674
 114.6830837 104.0106608 103.4898674 116.8180837 105.2256608 103.1248674
 117.1410837 104.3866608 102.5068674 117.5590837 105.3746608 103.9118674
 116.8890837 106.1356608 102.5288674  75.5020837  27.6506608  43.9998674
  76.5030837  26.8306608  43.7818674  75.9330837  25.5786608  43.7508674
  74.5860837  25.7286608  43.9578674  74.3310837  27.0706608  44.1148674
  75.6880837  29.1496608  44.1078674  74.7650837  29.7026608  44.2898674
  76.1540837  29.5526608  43.2078674  76.3960837  29.3996608  44.8978674
  91.5490837  21.8736608  89.7558674  91.4760837  21.2236608  90.8928674
  90.2610837  21.5826608  91.4268674  89.6610837  22.4516608  90.5528674
  90.5090837  22.6246608  89.4838674  92.7440837  21.7626608  88.8308674
  92.6630837  22.3616608  87.9218674  92.9200837  20.7266608  88.5418674
  93.6630837  22.0466608  89.3438674  98.0630837 107.0316608  25.7478674
  98.1880837 105.9856608  24.9648674  97.0160837 105.2836608  25.1258674
  96.2370837 105.9696608  26.0208674  96.9310837 107.0916608  26.4088674
  99.1450837 108.0846608  25.8778674  98.8990837 108.8946608  26.5658674
  99.3820837 108.5216608  24.9078674 100.0870837 107.6396608  26.1968674
  40.0550837  34.8916608  99.0718674  40.9320837  33.9586608  99.3578674
  40.2260837  32.7806608  99.3018674  38.9300837  33.0856608  98.9758674
  38.8430837  34.4506608  98.8328674  40.4160837  36.3616608  99.0218674
  39.5820837  37.0186608  98.7708674  41.2200837  36.5426608  98.3078674
  40.8370837  36.6926608  99.9718674  44.3360837 100.3196608  91.8328674
  44.7460837  99.8006608  90.6998674  44.1820837 100.5896608  89.7248674
  43.4450837 101.5626608  90.3508674  43.5580837 101.3686608  91.7068674
  44.7300837  99.7476608  93.1788674  44.3110837 100.2846608  94.0318674
  45.8140837  99.7226608  93.2908674  44.4380837  98.7006608  93.2598674
  51.6960837  36.1606608  46.9038674  50.6470837  35.6826608  47.5308674
  50.9690837  34.3746608  47.8088674  52.2270837  34.1406608  47.3188674
  52.6760837  35.3046608  46.7398674  51.7660837  37.5906608  46.4098674
  52.7010837  37.8446608  45.9068674  51.6170837  38.2956608  47.2288674
  50.9430837  37.8106608  45.7298674  55.5330837  41.6806608  72.8338674
  54.9260837  40.5176608  72.8198674  55.7610837  39.6916608  72.1058674
  56.8500837  40.4296608  71.7218674  56.6820837  41.7076608  72.2018674
  54.9500837  42.8956608  73.5258674  55.5680837  43.7916608  73.4518674
  54.7670837  42.6936608  74.5808674  53.9600837  43.1316608  73.1328674
  93.2220837  24.1986608  66.1998674  93.6030837  25.3276608  65.6498674
  92.4370837  25.9376608  65.2518674  91.3960837  25.1136608  65.5968674
  91.9250837  24.0006608  66.2068674  94.2060837  23.2036608  66.7818674
  93.7410837  22.3116608  67.2048674  94.8190837  23.6676608  67.5548674
  94.9310837  22.8876608  66.0318674  70.0940837  34.0466608  32.7338674
  69.4310837  35.1456608  33.0038674  69.0660837  35.0216608  34.3248674
  69.5480837  33.8206608  34.7788674  70.2060837  33.2106608  33.7378674
  70.6850837  33.7686608  31.3658674  71.2090837  32.8136608  31.2918674
  71.3740837  34.5596608  31.0698674  69.9150837  33.7956608  30.5948674
  42.2000837 110.9496608  98.5838674  42.7790837 111.3296608  97.4698674
  41.9360837 110.9006608  96.4698674  40.8720837 110.2716608  97.0628674
  41.0630837 110.3146608  98.4238674  42.8000837 111.2236608  99.9478674
  42.2050837 110.8476608 100.7808674  42.9590837 112.2916608 100.0968674
  43.8020837 110.8006608 100.0258674  56.7850837  26.1016608  92.7708674
  58.0180837  26.3696608  93.1328674  57.9070837  27.4196608  94.0148674
  56.5750837  27.7256608  94.1328674  55.8720837  26.8646608  93.3228674
  56.4460837  24.9956608  91.7928674  55.3790837  24.8916608  91.5888674
  56.8220837  24.0346608  92.1438674  56.9620837  25.1426608  90.8438674
 102.0590837  83.9686608  99.4458674 102.1330837  84.9096608 100.3568674
 103.1690837  84.5266608 101.1768674 103.6680837  83.3446608 100.6928674
 102.9380837  83.0046608  99.5778674 101.0360837  83.9966608  98.3278674
 101.0960837  83.1466608  97.6468674 101.1240837  84.9116608  97.7418674
 100.0230837  84.0436608  98.7278674 116.8210837  49.1696608 116.4148674
 117.9930837  48.7846608 116.8608674 118.5100837  49.8896608 117.4948674
 117.5910837  50.9016608 117.3868674 116.5110837  50.4156608 116.6878674
 115.9000837  48.2466608 115.6438674 114.9590837  48.7076608 115.3378674
 115.6680837  47.3526608 116.2238674 116.3930837  47.8556608 114.7548674
 119.7800837  77.2106608  67.2688674 118.4880837  77.0506608  67.4278674
 117.9610837  77.1516608  66.1618674 118.9990837  77.3746608  65.2948674
 120.1610837  77.4086608  66.0288674 120.7550837  77.1716608  68.4278674
 121.7970837  77.3206608  68.1408674 120.6820837  76.2266608  68.9668674
 120.4980837  77.9176608  69.1798674 126.0100837  75.0756608  74.0418674
 125.7300837  74.1826608  73.1228674 125.6040837  72.9976608  73.8078674
 125.8230837  73.2586608  75.1368674 126.0820837  74.6026608  75.2638674
 126.2320837  76.5386608  73.7148674 126.4560837  77.1606608  74.5828674
 125.3650837  76.9606608  73.2078674 127.0380837  76.6586608  72.9908674
 109.3700837  96.1646608 128.8648674 110.6750837  96.0606608 128.9548674
 110.8960837  94.7866608 129.4218674 109.6750837  94.1856608 129.5888674
 108.7070837  95.0916608 129.2248674 108.6850837  97.4276608 128.3838674
 107.5960837  97.3646608 128.3618674 109.0300837  97.7036608 127.3868674
 108.9660837  98.2826608 128.9988674  80.1080837  16.3666608  88.6208674
  80.1080837  16.3576608  87.3088674  81.0520837  15.4196608  86.9618674
  81.5760837  14.9076608  88.1208674  80.9540837  15.5326608  89.1758674
  79.2010837  17.2716608  89.4288674  79.3130837  17.1686608  90.5088674
  78.1540837  17.1016608  89.1768674  79.3600837  18.3186608  89.1678674
 118.6690837  68.7836608  77.0888674 119.6740837  69.4986608  76.6428674
 119.3380837  70.8006608  76.9338674 118.1160837  70.7866608  77.5538674
 117.7040837  69.4776608  77.6438674 118.6280837  67.2736608  76.9708674
 117.7290837  66.8166608  77.3868674 119.4950837  66.8206608  77.4538674
 118.7200837  66.9606608  75.9308674 102.3440837 122.2186608  64.1648674
 101.7110837 123.2716608  64.6238674 100.7500837 123.5456608  63.6798674
 100.8680837 122.6126608  62.6808674 101.9010837 121.7686608  63.0148674
 103.4970837 121.5746608  64.9058674 103.9240837 120.7066608  64.4008674
 103.1960837 121.2706608  65.9088674 104.2980837 122.2926608  65.0848674
 122.1090837  42.7766608  95.1148674 122.3840837  43.7156608  94.2408674
 123.2180837  44.5836608  94.9058674 123.3990837  44.0976608  96.1748674
 122.6760837  42.9336608  96.2868674 121.2070837  41.6026608  94.7908674
 121.0720837  40.9026608  95.6168674 121.5820837  41.0476608  93.9308674
 120.2230837  41.9436608  94.4678674 109.4960837  34.9566608  84.6838674
 108.7910837  35.8766608  85.2998674 109.4120837  37.0636608  84.9878674
 110.4820837  36.7756608  84.1808674 110.5170837  35.4136608  83.9988674
 109.1540837  33.4826608  84.7608674 109.8290837  32.8376608  84.1968674
 108.1370837  33.2986608  84.4118674 109.1370837  33.1386608  85.7948674
  85.3220837  28.4216608 116.8408674  86.3910837  27.6606608 116.8488674
  87.3290837  28.3766608 117.5548674  86.7500837  29.5586608 117.9388674
  85.4580837  29.5656608 117.4678674  84.0340837  28.0086608 116.1588674
  83.2320837  28.7446608 116.2358674  83.6670837  27.0626608 116.5568674
  84.2010837  27.7966608 115.1028674  70.0910837  37.1416608  79.6498674
  69.3360837  38.2006608  79.4778674  69.0940837  38.2446608  78.1248674
  69.7370837  37.1786608  77.5508674  70.3730837  36.4826608  78.5518674
  70.5980837  36.7156608  81.0128674  71.2150837  35.8166608  80.9998674
  69.7700837  36.5516608  81.7038674  71.1710837  37.5156608  81.4848674
  79.6100837  48.2816608 121.2078674  78.6630837  47.3736608 121.1848674
  79.3120837  46.1936608 120.9048674  80.6480837  46.4736608 120.7738674
  80.8160837  47.8236608 120.9728674  79.3290837  49.7436608 121.4848674
  80.2150837  50.3796608 121.4718674  78.8320837  49.8706608 122.4478674
  78.6100837  50.1456608 120.7708674  36.3180837  98.4956608  54.9298674
  37.1890837  97.8726608  54.1728674  37.4240837  98.7326608  53.1248674
  36.6570837  99.8516608  53.3228674  35.9520837  99.6766608  54.4908674
  35.7760837  97.8936608  56.2108674  35.0590837  98.5286608  56.7338674
  36.5850837  97.6526608  56.9008674  35.3040837  96.9296608  56.0208674
  92.8530837  45.9926608 118.8108674  94.1290837  45.8936608 119.1018674
  94.6750837  45.1856608 118.0568674  93.6650837  44.8946608 117.1758674
  92.5010837  45.4236608 117.6818674  91.8660837  46.7086608 119.7098674
  90.8410837  46.7086608 119.3368674  92.1690837  47.7426608 119.8768674
  91.8650837  46.2766608 120.7108674 123.1360837  99.0596608  80.4498674
 123.7250837  99.8686608  81.2978674 123.9130837 101.0376608  80.5978674
 123.4100837 100.8536608  79.3358674 122.9150837  99.5726608  79.2628674
 122.7420837  97.6426608  80.8158674 122.2600837  97.0896608  80.0078674
 122.0760837  97.6326608  81.6788674 123.6070837  97.0716608  81.1518674
  45.2120837  85.6356608  55.2508674  45.3000837  86.9046608  55.5718674
  44.2220837  87.4996608  54.9588674  43.5330837  86.5226608  54.2878674
  44.1890837  85.3306608  54.4898674  46.2170837  84.6046608  55.7248674
  46.0140837  83.5906608  55.3778674  46.2750837  84.5876608  56.8128674
  47.2270837  84.8746608  55.4178674  95.0780837  73.8916608 116.5168674
  93.7980837  73.6216608 116.4298674  93.1660837  74.7746608 116.8348674
  94.1340837  75.6926608 117.1488674  95.3580837  75.1026608 116.9368674
  96.1490837  72.8816608 116.1588674  97.1690837  73.2496608 116.2808674
  96.0320837  72.5356608 115.1308674  96.0420837  71.9726608 116.7498674
  87.0200837 130.8466608  45.7818674  85.8680837 131.3826608  46.1078674
  86.1810837 132.6446608  46.5568674  87.5410837 132.7936608  46.4698674
  88.0610837 131.6236608  45.9678674  87.1360837 129.4396608  45.2318674
  88.1580837 129.1316608  45.0058674  86.5370837 129.3226608  44.3288674
  86.7060837 128.7136608  45.9218674  50.4640837 110.7706608  58.9748674
  50.1870837 109.8396608  58.0938674  51.2710837 108.9936608  58.1198674
  52.1590837 109.4836608  59.0428674  51.6190837 110.6276608  59.5808674
  49.5230837 111.9206608  59.2688674  49.8890837 112.6166608  60.0258674
  48.5460837 111.5546608  59.5858674  49.3030837 112.4866608  58.3638674
  35.5950837  44.7916608 102.0478674  36.8860837  44.9456608 102.2208674
  37.1340837  46.2556608 101.8838674  35.9420837  46.8246608 101.5178674
  34.9650837  45.8646608 101.6308674  34.8890837  43.4766608 102.3098674
  33.8150837  43.5016608 102.1218674  35.0480837  43.1466608 103.3368674
  35.3220837  42.6756608 101.7118674  68.1040837 121.5316608  64.0058674
  68.9860837 122.4736608  63.7678674  68.2480837 123.6286608  63.6548674
  66.9290837 123.2996608  63.8368674  66.8600837 121.9446608  64.0608674
  68.4960837 120.0806608  64.1998674  67.6540837 119.4126608  64.3888674
  69.2070837 119.9746608  65.0188674  69.0420837 119.7046608  63.3348674
  53.8020837  95.6956608 115.7448674  53.0250837  96.6856608 115.3748674
  53.8830837  97.7276608 115.1108674  55.1600837  97.2866608 115.3458674
  55.0840837  95.9756608 115.7528674  53.2590837  94.3356608 116.1318674
  54.0250837  93.6126608 116.4168674  52.6690837  93.9056608 115.3228674
  52.5470837  94.4186608 116.9538674  53.1030837 127.0986608  42.9468674
  54.0060837 127.7336608  43.6548674  53.6890837 129.0656608  43.5188674
  52.5830837 129.1506608  42.7138674  52.2230837 127.8726608  42.3568674
  53.0800837 125.5896608  42.8208674  52.2710837 125.2046608  42.1988674
  53.0110837 125.1166608  43.8008674  54.0240837 125.2166608  42.4218674
  78.9330837  29.0036608 109.6518674  79.9170837  28.6586608 110.4478674
  80.2090837  29.7976608 111.1618674  79.3580837  30.7846608 110.7388674
  78.5450837  30.2516608 109.7658674  78.2970837  28.0346608 108.6768674
  77.4900837  28.4646608 108.0808674  77.9080837  27.1576608 109.1958674
  79.0410837  27.6206608 107.9958674  45.0810837  67.6566608 107.8548674
  44.6320837  66.6296608 108.5348674  45.7540837  65.9066608 108.8658674
  46.8400837  66.5636608 108.3488674  46.3830837  67.6876608 107.7018674
  44.1640837  68.7226608 107.2908674  44.6820837  69.5156608 106.7478674
  43.5680837  69.1826608 108.0788674  43.4190837  68.2856608 106.6258674
 106.3480837  29.8286608  98.8338674 106.4470837  28.8216608  97.9998674
 107.7460837  28.3856608  98.1248674 108.3650837  29.1816608  99.0538674
 107.4470837  30.1036608  99.4968674 105.0650837  30.6126608  99.0158674
 105.1340837  31.4226608  99.7438674 104.2450837  29.9576608  99.3118674
 104.7270837  31.0346608  98.0678674  62.4200837  26.5976608  54.1338674
  62.7990837  27.5986608  54.8938674  62.6380837  28.7176608  54.1098674
  62.1570837  28.3086608  52.8928674  62.0250837  26.9406608  52.9308674
  62.4390837  25.1606608  54.6118674  62.0960837  24.4386608  53.8698674
  61.8330837  25.0396608  55.5108674  63.4390837  24.8686608  54.9348674
  82.5930837 111.1576608 121.5898674  81.7160837 110.9756608 122.5488674
  80.7390837 111.9146608 122.3148674  81.0990837 112.6226608 121.1968674
  82.2960837 112.1176608 120.7468674  83.8510837 110.3206608 121.4678674
  84.4840837 110.5876608 120.6198674  83.6090837 109.2606608 121.3918674
  84.4510837 110.3836608 122.3758674  73.3960837 120.6306608  32.5828674
  73.2290837 120.1176608  33.7778674  74.4270837 120.3266608  34.4218674
  75.2630837 120.9716608  33.5478674  74.5790837 121.1566608  32.3698674
  72.3050837 120.6156608  31.5308674  72.5900837 121.0786608  30.5848674
  71.4040837 121.1096608  31.8958674  71.9750837 119.5966608  31.3258674
 111.1300837  60.0136608  69.8378674 111.8890837  60.8526608  70.5018674
 113.1040837  60.2186608  70.6128674 112.9970837  59.0006608  69.9908674
 111.7180837  58.8906608  69.4998674 109.6870837  60.3196608  69.4918674
 109.1830837  59.5266608  68.9378674 109.6120837  61.2406608  68.9138674
 109.1060837  60.5306608  70.3898674  17.4370837  85.6516608  74.3328674
  16.5390837  86.4896608  73.8708674  16.0720837  85.9046608  72.7168674
  16.7370837  84.7166608  72.5528674  17.6110837  84.5746608  73.6048674
  18.2110837  85.9106608  75.6098674  18.9230837  85.1256608  75.8678674
  17.5360837  86.0506608  76.4538674  18.7510837  86.8566608  75.5538674
  77.6220837  91.1336608  15.7918674  76.4060837  90.8576608  16.1978674
  76.2820837  89.4966608  16.0428674  77.4660837  89.0246608  15.5378674
  78.3140837  90.0956608  15.3838674  78.1820837  92.5416608  15.7928674
  79.2070837  92.6156608  15.4268674  78.1440837  92.9756608  16.7928674
  77.5580837  93.2106608  15.1988674  47.1110837  35.3726608  81.9248674
  46.8710837  34.0936608  81.7548674  48.1000837  33.4866608  81.8678674
  49.0290837  34.4656608  82.1068674  48.3700837  35.6716608  82.1398674
  46.0170837  36.4196608  81.8778674  46.3680837  37.4396608  82.0378674
  45.2410837  36.2066608  82.6138674  45.4850837  36.3856608  80.9268674
 110.4050837  73.3786608  44.9998674 110.4790837  73.0686608  46.2728674
 109.8520837  74.1046608  46.9248674 109.4270837  74.9986608  45.9768674
 109.7940837  74.5106608  44.7448674 110.9820837  72.4946608  43.9128674
 110.8440837  72.8826608  42.9018674 110.5530837  71.4926608  43.9548674
 112.0470837  72.3256608  44.0708674  53.5950837  43.0796608  77.0688674
  53.9560837  43.1776608  78.3268674  54.4000837  44.4716608  78.4658674
  54.2750837  45.0896608  77.2488674  53.7550837  44.1746608  76.3638674
  53.0380837  41.7996608  76.4798674  52.7820837  41.8696608  75.4208674
  52.1510837  41.4726608  77.0238674  53.7370837  40.9736608  76.6078674
 123.9600837  69.3886608 104.3018674 124.9820837  68.6686608 103.9048674
 124.9190837  68.6936608 102.5318674 123.8310837  69.4496608 102.1778674
 123.2280837  69.8866608 103.3338674 123.6510837  69.6246608 105.7668674
 122.7690837  70.2436608 105.9428674 124.4980837  70.0856608 106.2748674
 123.5160837  68.6806608 106.2948674  90.5960837  24.7456608  87.4238674
  90.5550837  23.4346608  87.4388674  89.2150837  23.1236608  87.4338674
  88.5130837  24.3016608  87.4148674  89.4230837  25.3326608  87.4088674
  91.8990837  25.5196608  87.4228674  91.7750837  26.6036608  87.4098674
  92.5210837  25.2366608  86.5738674  92.5090837  25.2576608  88.2878674
 120.5870837  85.6706608 119.8608674 120.8100837  85.6106608 121.1528674
 119.5760837  85.3846608 121.7148674 118.6590837  85.3216608 120.6968674
 119.3320837  85.5076608 119.5128674 121.6930837  85.9096608 118.8538674
 121.3550837  85.9336608 117.8168674 122.4710837  85.1506608 118.9408674
 122.2180837  86.8416608 119.0638674  57.0820837  47.3956608  79.8098674
  56.0240837  47.4176608  80.5858674  55.0520837  46.7516608  79.8758674
  55.6020837  46.3596608  78.6828674  56.9090837  46.7846608  78.6618674
  58.3990837  48.0286608  80.2118674  59.1880837  47.9306608  79.4638674
  58.7640837  47.6086608  81.1498674  58.2710837  49.0876608  80.4368674
 124.2640837  98.3376608  85.3298674 124.7470837  99.5536608  85.2328674
 124.1720837 100.0726608  84.0968674 123.3550837  99.1096608  83.5648674
 123.4300837  98.0006608  84.3748674 124.6420837  97.3986608  86.4568674
 124.1610837  96.4206608  86.4038674 124.4130837  97.8406608  87.4268674
 125.7210837  97.2456608  86.4928674  99.4610837  45.5436608  43.3348674
  98.4300837  46.0666608  43.9548674  97.4320837  45.1266608  43.8358674
  97.9410837  44.0656608  43.1318674  99.2480837  44.3556608  42.8198674
 100.7920837  46.2576608  43.2238674 101.5550837  45.6986608  42.6798674
 101.1870837  46.5026608  44.2098674 100.6750837  47.2296608  42.7448674
  48.5440837  59.3466608  95.9548674  48.4600837  59.0166608  97.2218674
  47.2110837  59.4376608  97.6138674  46.6040837  60.0126608  96.5268674
  47.4810837  59.9426608  95.4708674  49.7750837  59.0616608  95.1198674
  49.6990837  59.3946608  94.0838674  50.0090837  57.9966608  95.1198674
  50.6610837  59.5186608  95.5608674 135.7790837  57.5086608  63.1528674
 137.0250837  57.1056608  63.0708674 136.9720837  55.9396608  62.3428674
 135.6590837  55.7066608  62.0238674 134.9090837  56.7296608  62.5548674
 135.3800837  58.7746608  63.8818674 134.3090837  58.9806608  63.8658674
 135.9000837  59.6416608  63.4728674 135.7060837  58.7466608  64.9218674
 121.1440837  67.4666608 113.4018674 120.5010837  66.3796608 113.0458674
 121.4810837  65.5146608 112.6188674 122.6870837  66.1536608 112.7468674
 122.4460837  67.4096608 113.2528674 120.4340837  68.6926608 113.9408674
 121.1000837  69.5186608 114.1938674 119.8460837  68.4456608 114.8248674
 119.6910837  69.0576608 113.2318674  82.3620837  35.5106608  45.1908674
  81.0640837  35.7006608  45.1828674  80.5220837  34.4376608  45.2398674
  81.5580837  33.5406608  45.2798674  82.7330837  34.2536608  45.2478674
  83.3520837  36.6566608  45.1398674  84.3980837  36.3436608  45.1528674
  83.1920837  37.3486608  45.9658674  83.1920837  37.2716608  44.2538674
  39.4490837  29.0616608  74.8418674  39.1090837  29.8306608  73.8358674
  38.1270837  29.1316608  73.1728674  37.9320837  27.9506608  73.8418674
  38.7940837  27.9266608  74.9128674  40.5160837  29.4546608  75.8438674
  40.6900837  28.7136608  76.6258674  40.2720837  30.4036608  76.3208674
  41.4650837  29.6536608  75.3448674 113.6750837  31.0206608  92.1178674
 114.6740837  30.1756608  92.0268674 114.0830837  28.9346608  91.9718674
 112.7250837  29.1166608  92.0348674 112.4850837  30.4666608  92.1278674
 113.8820837  32.5186608  92.2038674 112.9570837  33.0946608  92.2748674
 114.4460837  32.8856608  91.3458674 114.5110837  32.7786608  93.0558674
  67.3480837  86.1136608  23.6358674  66.3620837  85.2486608  23.6828674
  66.9680837  84.0336608  23.8998674  68.3200837  84.2486608  23.9728674
  68.5420837  85.5946608  23.7998674  67.1220837  87.5946608  23.4108674
  68.0370837  88.1886608  23.3968674  66.4580837  88.0086608  24.1698674
  66.5870837  87.7706608  22.4768674 106.4710837  68.1036608 126.2518674
 106.5010837  66.7936608 126.3078674 105.2200837  66.3976608 126.0028674
 104.4770837  67.5276608 125.7758674 105.3020837  68.6146608 125.9418674
 107.6910837  68.9586608 126.5248674 107.5130837  70.0316608 126.4408674
 108.5100837  68.6956608 125.8548674 108.0960837  68.7566608 127.5168674
  47.7320837  31.3046608 102.4838674  46.9340837  32.2596608 102.8988674
  47.6630837  32.9426608 103.8438674  48.8900837  32.3386608 103.9408674
  48.9120837  31.2866608 103.0558674  47.3190837  30.3026608 101.4248674
  48.0880837  29.5676608 101.1818674  47.0260837  30.8066608 100.5038674
  46.4180837  29.7676608 101.7238674  77.3800837  75.1916608 117.4378674
  76.1960837  74.7266608 117.7578674  75.3280837  75.3366608 116.8828674
  76.0660837  76.1546608 116.0658674  77.3840837  76.0456608 116.4408674
  78.6430837  74.7746608 118.1628674  79.5520837  75.2446608 117.7848674
  78.7760837  73.6926608 118.1238674  78.5680837  74.9856608 119.2298674
  59.8160837  54.0006608  35.5068674  59.4990837  53.1476608  34.5618674
  60.5510837  52.2626608  34.5188674  61.4620837  52.6496608  35.4668674
  60.9680837  53.7716608  36.0908674  58.9200837  55.1606608  35.8908674
  59.3160837  55.7856608  36.6928674  57.9320837  54.8086608  36.1888674
  58.7170837  55.7986608  35.0298674  25.5360837  72.8476608 106.2108674
  25.1780837  74.1066608 106.1228674  23.8800837  74.0736608 105.6688674
  23.5290837  72.7586608 105.5068674  24.6100837  71.9866608 105.8618674
  26.9130837  72.4246608 106.6798674  27.0660837  71.3446608 106.7008674
  27.1260837  72.8186608 107.6738674  27.6910837  72.8666608 106.0568674
  32.3860837  72.6866608  56.6958674  32.4440837  73.2026608  57.9008674
  32.6230837  74.5506608  57.6998674  32.6620837  74.7686608  56.3468674
  32.5070837  73.5546608  55.7198674  32.1930837  71.2036608  56.4538674
  32.1650837  70.9226608  55.3998674  31.2780837  70.8466608  56.9268674
  32.9780837  70.6236608  56.9398674  81.5390837  40.7026608 100.1438674
  82.1360837  40.1466608 101.1708674  81.1880837  40.1396608 102.1678674
  80.0470837  40.7076608 101.6628674  80.2960837  41.0626608 100.3578674
  82.2350837  40.9106608  98.8138674  81.6120837  41.3846608  98.0528674
  82.6020837  39.9656608  98.4128674  83.1390837  41.5076608  98.9348674
  58.8430837 108.8766608  60.7188674  60.0280837 108.5026608  61.1408674
  60.7510837 108.2616608  59.9958674  59.9320837 108.5136608  58.9258674
  58.7090837 108.9086608  59.4148674  57.7200837 109.2436608  61.6668674
  56.7930837 109.5356608  61.1708674  58.0200837 110.0536608  62.3328674
  57.4980837 108.4206608  62.3468674  73.0490837  27.0666608  78.8798674
  73.9650837  26.1506608  78.6698674  75.1410837  26.8516608  78.5398674
  74.8500837  28.1836608  78.6838674  73.4980837  28.2986608  78.9018674
  71.5870837  26.7236608  79.0808674  70.9430837  27.5896608  79.2448674
  71.4570837  26.0386608  79.9188674  71.1960837  26.1646608  78.2298674
  68.2250837  24.5546608  91.6598674  69.3570837  23.8956608  91.7348674
  70.3300837  24.8376608  91.4988674  69.7050837  26.0396608  91.2898674
  68.3500837  25.8336608  91.3978674  66.8790837  23.8866608  91.8588674
  66.0270837  24.5626608  91.7668674  66.8250837  23.4016608  92.8338674
  66.7420837  23.0656608  91.1548674  21.5960837 103.2326608  93.1468674
  21.2090837 104.4576608  92.8798674  19.9570837 104.5616608  93.4388674
  19.6600837 103.3576608  94.0248674  20.7300837 102.5176608  93.8238674
  22.9400837 102.6896608  92.7058674  23.1220837 101.6546608  93.0008674
  23.7550837 103.3026608  93.0918674  23.0550837 102.7606608  91.6238674
  82.6660837 112.5116608  31.2008674  82.4970837 111.8726608  32.3338674
  82.7720837 110.5566608  32.0408674  83.1000837 110.4856608  30.7118674
  83.0250837 111.7556608  30.1908674  82.4620837 114.0076608  31.0728674
  82.6400837 114.3986608  30.0698674  83.1030837 114.5506608  31.7688674
  81.4550837 114.2926608  31.3768674  83.6820837  16.8596608  85.7388674
  84.3840837  17.0696608  84.6508674  84.3600837  15.8696608  83.9788674
  83.6230837  14.9876608  84.7258674  83.1960837  15.6466608  85.8548674
  83.4510837  17.9376608  86.7788674  82.8480837  17.6166608  87.6288674
  82.9760837  18.8136608  86.3348674  84.3980837  18.3226608  87.1578674
  34.6120837  78.0456608  34.6748674  33.3860837  77.5816608  34.7038674
  33.4800837  76.3766608  35.3608674  34.7960837  76.1856608  35.6948674
  35.5070837  77.2726608  35.2438674  34.9650837  79.3726608  34.0338674
  36.0250837  79.6266608  34.0868674  34.3970837  80.1866608  34.4828674
  34.6620837  79.3936608  32.9868674 135.0730837  83.6766608 104.4128674
 134.6910837  83.1896608 103.2558674 135.0640837  81.8666608 103.2888674
 135.6650837  81.6326608 104.4988674 135.6600837  82.8126608 105.2058674
 134.8530837  85.1246608 104.7988674 135.2240837  85.3836608 105.7918674
 133.7950837  85.3856608 104.7518674 135.3160837  85.7966608 104.0758674
 120.0570837 110.7906608 100.5318674 119.5320837 111.3276608  99.4568674
 118.3430837 110.6606608  99.2738674 118.2240837 109.7366608 100.2788674
 119.3390837 109.8376608 101.0778674 121.3900837 111.2376608 101.0968674
 121.6980837 110.6986608 101.9948674 121.3800837 112.3026608 101.3258674
 122.1820837 111.1416608 100.3538674 106.4790837  63.0496608 104.2208674
 106.5790837  64.1276608 103.4798674 106.3910837  63.6886608 102.1898674
 106.1830837  62.3346608 102.2368674 106.2440837  61.9446608 103.5538674
 106.6230837  63.0816608 105.7288674 106.5150837  62.1076608 106.2088674
 105.9000837  63.7636608 106.1758674 107.5870837  63.4996608 106.0198674
  50.4120837  52.7606608  74.0678674  50.8580837  51.5356608  74.2148674
  52.0060837  51.4856608  73.4598674  52.1840837  52.7186608  72.8888674
  51.1460837  53.5236608  73.2938674  49.1460837  53.2526608  74.7398674
  48.9010837  54.2936608  74.5248674  49.2080837  53.1336608  75.8218674
  48.2910837  52.6366608  74.4618674 132.3110837  66.4086608  63.6068674
 131.7980837  66.8606608  64.7268674 132.8680837  66.9756608  65.5828674
 133.9900837  66.5736608  64.9058674 133.6080837  66.2126608  63.6348674
 131.4680837  66.1346608  62.3778674 132.0330837  65.7616608  61.5218674
 130.9290837  67.0296608  62.0658674 130.6750837  65.4206608  62.5998674
 118.1900837  95.5116608  54.8438674 118.4090837  94.8446608  53.7348674
 117.1730837  94.3816608  53.3508674 116.2600837  94.8106608  54.2788674
 116.9360837  95.5366608  55.2308674 119.2990837  96.1986608  55.6138674
 118.9640837  96.7136608  56.5158674 119.8230837  96.9176608  54.9848674
 120.0770837  95.4876608  55.8958674  28.7550837 109.5506608 105.8288674
  27.9530837 109.5396608 104.7908674  26.9680837 108.6366608 105.1158674
  27.2470837 108.1466608 106.3658674  28.4020837 108.7486608 106.8048674
  29.9920837 110.4226608 105.8918674  30.5610837 110.3256608 106.8178674
  29.7360837 111.4746608 105.7578674  30.6610837 110.2126608 105.0568674
 104.0160837  70.9876608 102.9658674 103.5790837  72.1706608 103.3248674
 103.1970837  72.7766608 102.1508674 103.4360837  71.8946608 101.1288674
 103.9630837  70.7486608 101.6768674 104.5410837  69.9766608 103.9648674
 104.8690837  69.0366608 103.5188674 103.7900837  69.7496608 104.7228674
 105.3700837  70.3886608 104.5398674  93.7880837  65.2926608 136.2398674
  94.8780837  65.9726608 136.5058674  94.9870837  66.8796608 135.4768674
  93.9250837  66.6816608 134.6328674  93.1660837  65.6556608 135.1428674
  93.2880837  64.1746608 137.1328674  92.3690837  63.7006608 136.7838674
  93.1230837  64.5316608 138.1498674  94.0470837  63.4016608 137.2518674
  93.3340837  51.5296608 100.4648674  94.1540837  50.7846608  99.7628674
  93.4060837  50.3426608  98.6968674  92.1450837  50.8656608  98.8278674
  92.1220837  51.6266608  99.9718674  93.7570837  52.2236608 101.7428674
  92.9670837  52.8096608 102.2158674  94.6090837  52.8806608 101.5678674
  94.1320837  51.5056608 102.4718674  57.1190837 122.4576608  78.8278674
  58.0030837 123.4146608  78.6708674  59.1520837 122.7716608  78.2728674
  58.8790837 121.4296608  78.2128674  57.5640837 121.2506608  78.5738674
  55.6950837 122.7306608  79.2668674  55.0750837 121.8356608  79.3528674
  55.2010837 123.4226608  78.5838674  55.6740837 123.2526608  80.2228674
 129.1850837  57.4806608  90.7278674 128.6720837  56.2856608  90.8968674
 128.1100837  55.9686608  89.6818674 128.3250837  57.0236608  88.8338674
 129.0200837  57.9866608  89.5278674 129.9120837  58.2186608  91.8338674
 130.2840837  59.2026608  91.5448674 130.7520837  57.6326608  92.2078674
 129.2730837  58.3386608  92.7088674 111.5140837  27.8906608  79.6928674
 112.5490837  28.3236608  80.3708674 112.3160837  29.6676608  80.5508674
 111.1190837  29.9666608  79.9528674 110.6210837  28.8076608  79.4058674
 111.3630837  26.4426608  79.2738674 110.4500837  26.2306608  78.7148674
 111.3940837  25.7796608  80.1388674 112.2140837  26.1196608  78.6728674
  51.6590837  32.5256608  82.8488674  50.6360837  32.0396608  82.1868674
  51.0080837  30.7596608  81.8508674  52.2690837  30.5476608  82.3458674
  52.6680837  31.6976608  82.9848674  51.6720837  33.9316608  83.4108674
  52.5910837  34.1946608  83.9378674  50.8330837  34.0886608  84.0908674
  51.5060837  34.6686608  82.6248674 114.7640837  77.9356608  89.2378674
 114.2960837  77.2976608  90.2838674 113.2990837  76.4896608  89.7878674
 113.2280837  76.6986608  88.4348674 114.1800837  77.6336608  88.1028674
 115.8910837  78.9436608  89.3358674 116.1730837  79.3936608  88.3828674
 116.7800837  78.4926608  89.7768674 115.6380837  79.7456608  90.0298674
 101.3920837  26.8446608 100.3838674 101.1270837  26.1626608  99.2958674
  99.8950837  25.5966608  99.5258674  99.4840837  25.9846608 100.7748674
 100.4640837  26.7876608 101.3088674 102.6730837  27.6356608 100.5568674
 102.7540837  28.1516608 101.5148674 102.7870837  28.3726608  99.7618674
 103.5470837  26.9946608 100.4398674  64.5740837  34.2026608 110.1418674
  63.3800837  34.4686608 110.6148674  63.1550837  33.5016608 111.5668674
  64.2600837  32.6916608 111.6088674  65.1610837  33.1616608 110.6828674
  65.2230837  35.0366608 109.0558674  66.2170837  34.6946608 108.7638674
  65.2960837  36.0816608 109.3558674  64.5980837  35.0686608 108.1628674
 111.7760837 121.8136608  49.5398674 112.6090837 122.8236608  49.4518674
 111.8140837 123.9436608  49.5238674 110.5150837 123.5256608  49.6538674
 110.5140837 122.1506608  49.6628674 112.2390837 120.3716608  49.5038674
 111.4320837 119.6406608  49.5878674 112.9620837 120.1726608  50.2948674
 112.7940837 120.1626608  48.5888674  56.2970837 124.1576608  89.6088674
  55.7630837 125.3396608  89.4138674  56.8110837 126.2226608  89.5218674
  57.9440837 125.4956608  89.7828674  57.5900837 124.1686608  89.8348674
  55.4830837 122.8806608  89.5758674  56.0640837 121.9746608  89.7558674
  54.9670837 122.7706608  88.6218674  54.6720837 122.9146608  90.3038674
  57.1190837  49.1176608  34.3318674  56.0840837  49.8486608  34.6728674
  55.0550837  48.9496608  34.8318674  55.5490837  47.6986608  34.5678674
  56.8800837  47.8306608  34.2478674  58.4830837  49.7166608  34.0558674
  59.2450837  48.9856608  33.7818674  58.8440837  50.2796608  34.9168674
  58.4280837  50.4646608  33.2638674  37.3640837  77.0496608  49.7688674
  37.6670837  76.8556608  51.0308674  37.9270837  78.1106608  51.5288674
  37.7590837  79.0086608  50.5048674  37.3970837  78.3026608  49.3818674
  37.0050837  75.9126608  48.8348674  36.7770837  76.2276608  47.8148674
  36.1540837  75.3476608  49.2158674  37.8060837  75.1736608  48.7918674
 111.3940837  87.1056608  31.8648674 112.2990837  87.9816608  32.2308674
 111.5810837  89.0876608  32.6228674 110.2510837  88.7996608  32.4638674
 110.1530837  87.5176608  31.9748674 111.7560837  85.7246608  31.3558674
 110.8960837  85.1066608  31.0898674 112.3520837  85.1816608  32.0898674
 112.4120837  85.7886608  30.4878674  53.1260837  23.7956608  70.1958674
  51.9910837  23.1516608  70.3278674  52.3500837  21.8396608  70.5258674
  53.7190837  21.7736608  70.4998674  54.1980837  23.0446608  70.2858674
  53.1910837  25.2906608  69.9588674  54.2040837  25.6856608  69.8688674
  52.6820837  25.8356608  70.7538674  52.6370837  25.5686608  69.0618674
  93.3380837  98.7836608 124.5848674  93.5550837  97.5156608 124.8418674
  94.9070837  97.3436608 124.6538674  95.4340837  98.5546608 124.2848674
  94.4060837  99.4666608 124.2468674  91.9600837  99.4076608 124.6728674
  91.9350837 100.4706608 124.4318674  91.5330837  99.2736608 125.6678674
  91.2560837  98.8926608 124.0198674 113.1260837  91.3036608 104.2238674
 112.3960837  91.5576608 103.1638674 111.2760837  92.1896608 103.6498674
 111.4050837  92.2786608 105.0118674 112.6040837  91.7026608 105.3598674
 114.4680837  90.6046608 104.1398674 114.9590837  90.4626608 105.1038674
 115.1510837  91.1476608 103.4858674 114.3710837  89.6306608 103.6598674
 108.4840837  39.0676608  80.0638674 107.6530837  38.3426608  80.7758674
 108.3180837  37.1596608  80.9988674 109.5430837  37.2486608  80.3888674
 109.6280837  38.4846608  79.7938674 108.1450837  40.4666608  79.5928674
 108.9340837  40.9456608  79.0108674 107.9020837  41.1146608  80.4348674
 107.2330837  40.4676608  78.9958674  72.5970837  92.0796608  15.5408674
  73.8650837  92.4066608  15.4518674  73.8940837  93.7656608  15.6568674
  72.6050837  94.1846608  15.8628674  71.7870837  93.0816608  15.7838674
  72.1110837  90.6536608  15.3768674  71.0310837  90.5356608  15.4778674
  72.5950837  89.9906608  16.0938674  72.4090837  90.2486608  14.4088674
  29.5490837 101.4196608  73.0608674  28.7770837 100.5036608  72.5258674
  29.5750837  99.3886608  72.4178674  30.8130837  99.7126608  72.9078674
  30.7740837 101.0246608  73.3158674  29.0620837 102.8226608  73.3578674
  29.8170837 103.4736608  73.8018674  28.1960837 102.8036608  74.0208674
  28.6840837 103.3046608  72.4558674  55.2870837  86.1656608  29.7998674
  54.4530837  85.1546608  29.7618674  55.2000837  84.0966608  29.2978674
  56.4750837  84.5516608  29.0788674  56.5080837  85.8856608  29.4088674
  54.8710837  87.5476608  30.2598674  55.6730837  88.2866608  30.2368674
  54.4640837  87.5166608  31.2708674  54.0420837  87.9256608  29.6608674
  28.0770837  82.3756608  67.0428674  26.9510837  83.0326608  67.1858674
  26.9460837  83.4416608  68.4988674  28.1030837  82.9916608  69.0808674
  28.8160837  82.3076608  68.1248674  28.4900837  81.7446608  65.7288674
  29.4520837  81.2306608  65.7628674  28.5280837  82.4886608  64.9328674
  27.7370837  81.0356608  65.3828674  95.9800837 103.5876608 116.1648674
  94.7990837 103.9956608 116.5648674  94.1640837 104.4156608 115.4208674
  95.0270837 104.2306608 114.3718674  96.1910837 103.6966608 114.8738674
  97.0180837 103.0356608 117.1198674  97.9520837 102.7376608 116.6418674
  96.6270837 102.1786608 117.6688674  97.2510837 103.7576608 117.9028674
  62.1330837  15.4296608  72.5238674  63.1210837  15.1946608  73.3528674
  64.2200837  15.0066608  72.5478674  63.8120837  15.1436608  71.2468674
  62.4650837  15.4156608  71.2548674  60.7180837  15.6956608  72.9978674
  60.0040837  15.8746608  72.1928674  60.6880837  16.5486608  73.6758674
  60.3480837  14.8706608  73.6058674  40.1310837  58.9156608  30.3918674
  39.8970837  58.2666608  29.2758674  40.2430837  56.9636608  29.5458674
  40.6760837  56.9076608  30.8458674  40.5950837  58.1756608  31.3708674
  39.8820837  60.4026608  30.5368674  40.1230837  60.8026608  31.5228674
  38.8440837  60.6496608  30.3128674  40.4460837  60.9666608  29.7928674
  18.5970837  66.4076608  91.3658674  17.4330837  66.1126608  91.8938674
  16.6890837  67.2636608  91.7748674  17.4750837  68.2066608  91.1648674
  18.6990837  67.6336608  90.9108674  19.7330837  65.4086608  91.2888674
  20.6400837  65.7976608  90.8238674  19.4290837  64.5126608  90.7468674
  19.9910837  65.0336608  92.2798674  71.5920837  74.6246608 121.0588674
  71.2290837  73.3656608 121.1158674  72.4080837  72.6596608 121.1578674
  73.4380837  73.5646608 121.1218674  72.8890837  74.8236608 121.0578674
  70.5900837  75.7596608 120.9978674  71.0410837  76.7526608 120.9528674
  69.9140837  75.7296608 121.8518674  69.9260837  75.6486608 120.1398674
  22.2650837  66.4826608  51.6308674  21.3020837  65.6076608  51.7918674
  21.8780837  64.3916608  51.5038674  23.1900837  64.6186608  51.1778674
  23.4180837  65.9716608  51.2668674  22.0600837  67.9676608  51.8498674
  22.9530837  68.5726608  51.6788674  21.7020837  68.1686608  52.8598674
  21.2620837  68.3506608  51.2138674  17.6510837  78.4026608  65.4958674
  16.4800837  78.9846608  65.6008674  16.0980837  79.2476608  64.3068674
  17.0920837  78.7946608  63.4778674  18.0820837  78.2536608  64.2648674
  18.4420837  77.9386608  66.7018674  19.3970837  77.4716608  66.4568674
  17.8630837  77.2356608  67.3018674  18.6310837  78.7656608  67.3858674
 121.1010837  53.1816608  44.3348674 121.2930837  52.8926608  43.0698674
 120.0580837  53.0396608  42.4828674 119.1740837  53.4186608  43.4598674
 119.8680837  53.5036608  44.6448674 122.2190837  53.1446608  45.3568674
 121.9080837  53.4096608  46.3688674 123.0350837  53.8066608  45.0678674
 122.6860837  52.1606608  45.3898674 105.6010837  77.0516608  89.6578674
 106.7130837  77.7476608  89.6928674 106.4310837  78.8976608  88.9928674
 105.1300837  78.8196608  88.5688674 104.6150837  77.6236608  89.0078674
 105.4690837  75.6946608  90.3178674 104.4850837  75.2366608  90.2048674
 105.6980837  75.7536608  91.3818674 106.2150837  74.9986608  89.9328674
 127.6340837  78.3876608 116.3238674 127.1370837  77.9356608 115.1978674
 127.8470837  78.5806608 114.2128674 128.7550837  79.4056608 114.8258674
 128.6000837  79.2656608 116.1848674 127.1310837  77.9316608 117.6778674
 127.6410837  78.3946608 118.5238674 127.2150837  76.8496608 117.7808674
 126.0620837  78.1176608 117.7808674  52.5900837  67.8726608  39.9608674
  51.4680837  67.7776608  39.2858674  51.8560837  67.6646608  37.9708674
  53.2260837  67.6996608  37.9358674  53.6770837  67.8336608  39.2278674
  52.6230837  68.0146608  41.4688674  53.6270837  68.0816608  41.8888674
  52.1060837  67.1846608  41.9508674  52.0590837  68.8906608  41.7908674
  99.0630837 131.4156608  57.1208674 100.3720837 131.4956608  57.1038674
 100.6440837 132.8416608  57.1698674  99.4470837 133.5076608  57.2238674
  98.4420837 132.5696608  57.1898674  98.3270837 130.0916608  57.0628674
  97.2400837 130.1836608  57.0848674  98.6310837 129.4406608  57.8818674
  98.6050837 129.5296608  56.1708674  66.5790837  22.2906608  86.3428674
  65.4330837  22.5636608  85.7648674  65.7150837  23.5846608  84.8878674
  67.0510837  23.8706608  84.9958674  67.5870837  23.0256608  85.9388674
  66.7220837  21.2106608  87.3958674  67.7350837  21.0986608  87.7858674
  66.3970837  20.2436608  87.0108674  66.0510837  21.3916608  88.2358674
  34.2490837  40.6086608  85.8428674  34.3600837  39.3156608  85.6458674
  33.0700837  38.8406608  85.6848674  32.2390837  39.9076608  85.9108674
  33.0200837  41.0356608  86.0088674  35.4490837  41.5326608  85.8758674
  35.2010837  42.5806608  86.0488674  36.0190837  41.4656608  84.9488674
  36.1620837  41.2196608  86.6398674  52.5150837 111.2006608  94.8938674
  53.4790837 110.3506608  94.6288674  52.9310837 109.1116608  94.8658674
  51.6350837 109.2976608  95.2688674  51.3880837 110.6506608  95.2798674
  52.6920837 112.6996608  94.7628674  51.8030837 113.2786608  95.0168674
  52.9970837 112.9696608  93.7508674  53.5170837 113.0506608  95.3828674
 128.5780837  97.2276608  90.6988674 128.0750837  96.0286608  90.5218674
 127.1280837  96.1846608  89.5378674 127.1200837  97.5066608  89.1718674
 128.0610837  98.1586608  89.9328674 129.6710837  97.5106608  91.7088674
 129.9880837  98.5546608  91.7428674 130.5490837  96.8936608  91.5188674
 129.3610837  97.2156608  92.7118674  66.5060837  61.5276608 126.7848674
  66.8380837  60.3026608 127.1168674  67.0330837  59.6536608 125.9198674
  66.7990837  60.5546608 124.9138674  66.4610837  61.7546608 125.4938674
  66.1980837  62.5946608 127.8158674  65.9370837  63.5646608 127.3898674
  67.0390837  62.7356608 128.4948674  65.3860837  62.2806608 128.4728674
 101.4250837  32.2856608 102.4948674 101.7850837  33.4726608 102.9218674
 100.6040837  34.1386608 103.1518674  99.5770837  33.2856608 102.8398674
 100.1290837  32.0986608 102.4188674 102.4300837  31.2166608 102.1178674
 101.9820837  30.2806608 101.7808674 103.0950837  30.9936608 102.9528674
 103.1050837  31.5716608 101.3398674 116.3100837  97.4636608 114.1368674
 115.1160837  96.9256608 114.0508674 114.8600837  96.4316608 115.3088674
 115.9470837  96.7126608 116.0958674 116.8680837  97.3766608 115.3208674
 116.9870837  98.1336608 112.9588674 117.9770837  98.5346608 113.1818674
 116.3730837  98.9416608 112.5618674 117.0800837  97.4446608 112.1188674
  96.2660837  82.1936608 123.8058674  95.2510837  82.8706608 123.3228674
  95.5470837  84.1866608 123.5858674  96.7570837  84.2216608 124.2298674
  97.2010837  82.9266608 124.3608674  96.3480837  80.6826608 123.7278674
  97.2500837  80.2606608 124.1718674  96.2840837  80.3406608 122.6938674
  95.4840837  80.2196608 124.2048674  89.0780837  89.2156608  34.7678674
  89.1110837  88.5026608  35.8678674  88.2020837  89.1046608  36.7068674
  87.6640837  90.1746608  36.0388674  88.2420837  90.2266608  34.7928674
  89.9390837  88.8956608  33.5628674  89.8030837  89.5776608  32.7218674
  89.7570837  87.8796608  33.2118674  90.9960837  88.8886608  33.8288674
  31.8290837  64.3326608  93.2788674  30.5530837  64.0306608  93.2648674
  30.0850837  64.5286608  92.0708674  31.1400837  65.1166608  91.4218674
  32.2530837  64.9786608  92.2178674  32.7410837  63.9636608  94.4308674
  33.7770837  64.2816608  94.3008674  32.7340837  62.8876608  94.6058674
  32.3720837  64.3786608  95.3688674 113.8600837  50.3956608  77.6728674
 113.6640837  49.7516608  76.5468674 114.9130837  49.3196608  76.1648674
 115.8080837  49.7436608  77.1118674 115.1090837  50.4336608  78.0738674
 112.7310837  51.0436608  78.4468674 113.0470837  51.5436608  79.3638674
 111.9630837  50.3136608  78.7038674 112.2000837  51.7686608  77.8298674
  43.0560837  66.9466608  30.4278674  44.2760837  66.5046608  30.6258674
  44.6330837  66.9956608  31.8598674  43.5750837  67.7236608  32.3418674
  42.5710837  67.6776608  31.4028674  42.2720837  66.6336608  29.1698674
  41.2720837  67.0696608  29.1468674  42.1780837  65.5576608  29.0248674
  42.8090837  66.9666608  28.2818674 126.1690837  62.8946608  82.8758674
 125.9620837  61.6066608  82.7338674 126.3340837  61.3296608  81.4388674
 126.7540837  62.5026608  80.8658674 126.6390837  63.4966608  81.8098674
 125.8870837  63.6256608  84.1718674 126.1080837  64.6936608  84.1398674
 126.4460837  63.1866608  84.9988674 124.8460837  63.5026608  84.4718674
  29.6360837  88.5106608  59.4658674  30.9300837  88.7226608  59.5188674
  31.4890837  87.4696608  59.6098674  30.4680837  86.5556608  59.6068674
  29.2840837  87.2476608  59.5128674  28.6300837  89.6386608  59.3598674
  27.5900837  89.3076608  59.3258674  28.8220837  90.2516608  58.4788674
  28.7380837  90.3386608  60.1878674  50.8270837  56.6906608 127.1438674
  50.6690837  56.4386608 128.4218674  51.9120837  56.0466608 128.8608674
  52.7660837  56.0886608 127.7878674  52.0460837  56.5046608 126.6938674
  49.6890837  57.1576608 126.2598674  49.9720837  57.3266608 125.2188674
  49.2470837  58.0766608 126.6458674  48.8630837  56.4466608 126.2778674
  58.3710837  98.7966608  93.1188674  57.6730837  99.3086608  92.1328674
  58.3680837 100.4336608  91.7558674  59.4740837 100.5316608  92.5608674
  59.4550837  99.4666608  93.4308674  57.9560837  97.5296608  93.8378674
  58.6350837  97.2256608  94.6358674  57.8560837  96.6986608  93.1388674
  56.9560837  97.6306608  94.2608674 106.6240837 119.8536608  82.0188674
 106.3640837 118.9366608  82.9208674 104.9940837 118.9306608  83.0318674
 104.5000837 119.8706608  82.1648674 105.5680837 120.4536608  81.5238674
 108.0360837 120.1916608  81.5858674 108.0960837 120.9756608  80.8288674
 108.5500837 119.3096608  81.2048674 108.6440837 120.4956608  82.4388674
  74.0840837  17.4306608  80.7438674  75.3900837  17.5566608  80.7558674
  75.6280837  18.8086608  80.2408674  74.4160837  19.3746608  79.9418674
  73.4360837  18.4696608  80.2738674  73.3820837  16.1806608  81.2338674
  72.2940837  16.2206608  81.1618674  73.6470837  15.9636608  82.2688674
  73.7270837  15.2996608  80.6908674  60.1380837  65.8856608  18.9308674
  59.6970837  65.2486608  19.9888674  59.8200837  66.1506608  21.0208674
  60.3420837  67.3076608  20.5028674  60.5390837  67.1146608  19.1558674
  60.1790837  65.2496608  17.5558674  60.5700837  65.9016608  16.7738674
  59.1880837  64.9096608  17.2528674  60.7730837  64.3356608  17.5668674
  56.5360837 101.4576608 109.1638674  57.5650837 102.2116608 109.4708674
  58.6310837 101.3446608 109.5348674  58.1630837 100.0866608 109.2528674
  56.8110837 100.1836608 109.0178674  55.1390837 102.0186608 108.9918674
  54.3860837 101.2716608 108.7378674  55.1210837 102.7956608 108.2278674
  54.8130837 102.5376608 109.8938674  78.7340837 110.0406608  59.5028674
  77.5670837 110.1666608  60.0898674  76.6490837 109.8086608  59.1308674
  77.3410837 109.4796608  57.9938674  78.6810837 109.6356608  58.2568674
  80.0390837 110.3386608  60.2128674  80.9270837 110.1876608  59.5978674
  80.1410837 109.7326608  61.1138674  80.0540837 111.3616608  60.5888674
  70.4260837 118.7516608 125.0468674  70.4030837 118.5926608 123.7448674
  70.7060837 119.8316608 123.2328674  70.8960837 120.6856608 124.2888674
  70.7110837 119.9686608 125.4468674  70.1430837 117.6176608 126.0108674
  70.1980837 117.9016608 127.0628674  70.8280837 116.7856608 125.8458674
  69.1610837 117.1836608 125.8258674  94.1880837  98.2516608 119.4898674
  93.9750837  98.1406608 120.7788674  93.7380837  99.4246608 121.2108674
  93.8270837 100.2536608 120.1218674  94.1170837  99.4766608 119.0248674
  94.4920837  97.0576608 118.6088674  94.6460837  97.3056608 117.5568674
  93.6970837  96.3146608 118.6698674  95.3730837  96.5236608 118.9658674
 118.4150837  99.0226608  78.9168674 118.2330837 100.2876608  79.2158674
 118.9520837 100.4836608  80.3718674 119.5380837  99.2896608  80.7068674
 119.1780837  98.3636608  79.7558674 117.7890837  98.3766608  77.6978674
 118.0300837  97.3186608  77.5798674 118.0830837  98.8966608  76.7858674
 116.7040837  98.4796608  77.7138674  58.0660837  48.3336608  70.5648674
  58.0680837  47.6246608  69.4618674  59.2120837  46.8646608  69.5318674
  59.8460837  47.1736608  70.7078674  59.0900837  48.1216608  71.3568674
  56.9660837  49.3206608  70.8968674  57.1000837  49.8366608  71.8488674
  55.9920837  48.8306608  70.9088674  56.8650837  50.0716608  70.1128674
 103.0390837  94.3646608  37.4148674 104.2690837  94.1036608  37.0418674
 104.3780837  92.7346608  37.1168674 103.1710837  92.2426608  37.5418674
 102.3240837  93.3096608  37.7278674 102.4890837  95.7746608  37.4778674
 101.4500837  95.8356608  37.8058674 102.5710837  96.2696608  36.5098674
 103.0920837  96.3996608  38.1378674 125.3740837 108.4386608  64.2928674
 126.5760837 108.3036608  64.8008674 126.8060837 109.4756608  65.4828674
 125.6950837 110.2666608  65.3378674 124.7860837 109.5786608  64.5688674
 124.7190837 107.3616608  63.4538674 123.7180837 107.6166608  63.1008674
 124.6570837 106.4216608  64.0038674 125.3330837 107.1126608  62.5878674
  57.7710837 121.3576608  42.2618674  58.3980837 122.4116608  41.7958674
  58.4750837 123.2766608  42.8628674  57.8730837 122.6706608  43.9348674
  57.4270837 121.4366608  43.5248674  57.4710837 120.1446608  41.4048674
  56.9440837 119.3466608  41.9298674  58.3850837 119.7296608  40.9808674
  56.8840837 120.4216608  40.5288674 101.2580837  64.3446608  38.4848674
 101.7350837  64.5126608  37.2748674 102.9110837  65.2016608  37.4518674
 103.0730837  65.4126608  38.7968674 101.9970837  64.8516608  39.4428674
  99.9540837  63.6206608  38.7528674  99.6860837  63.5596608  39.8088674
  99.9780837  62.6086608  38.3478674  99.1290837  64.0916608  38.2188674
 120.8950837  61.8316608  38.7988674 121.6240837  62.0776608  37.7368674
 121.1840837  61.1806608  36.7908674 120.1880837  60.4296608  37.3598674
 120.0180837  60.8666608  38.6528674 121.0540837  62.6046608  40.0918674
 120.3770837  62.2876608  40.8878674 120.9110837  63.6726608  39.9288674
 122.0750837  62.5346608  40.4658674 105.5260837 112.6196608 121.9208674
 106.2040837 111.4986608 121.9688674 106.6890837 111.4336608 123.2538674
 106.2590837 112.5536608 123.9188674 105.5120837 113.3026608 123.0408674
 104.8140837 113.0876608 120.6668674 104.2910837 114.0386608 120.7788674
 104.0960837 112.3426608 120.3238674 105.5100837 113.1766608 119.8328674
 106.9120837  91.3756608  33.2648674 106.0230837  90.7126608  33.9658674
 106.7490837  89.7656608  34.6498674 108.0670837  89.9226608  34.3078674
 108.1490837  90.9646608  33.4148674 106.5350837  92.5256608  32.3528674
 107.3810837  92.9796608  31.8348674 106.0140837  93.3076608  32.9058674
 105.8070837  92.2096608  31.6058674  65.0590837 116.6786608 116.9498674
  65.5730837 115.4726608 116.9038674  66.9020837 115.6446608 117.2128674
  67.1110837 116.9816608 117.4318674  65.9100837 117.6286608 117.2568674
  63.5950837 116.9496608 116.6678674  63.3130837 118.0016608 116.7438674
  62.9550837 116.3756608 117.3388674  63.3150837 116.5926608 115.6768674
  37.0880837  63.9526608  36.2608674  37.3180837  65.0556608  36.9328674
  37.6920837  65.9766608  35.9818674  37.6620837  65.3516608  34.7618674
  37.2700837  64.0496608  34.9658674  36.6450837  62.6686608  36.9318674
  36.4920837  61.8346608  36.2448674  35.7240837  62.8196608  37.4958674
  37.3630837  62.3576608  37.6918674  55.6640837  93.9956608 135.6478674
  55.8140837  95.2226608 135.2078674  57.1750837  95.4156608 135.1598674
  57.7760837  94.2596608 135.5848674  56.7840837  93.3586608 135.8938674
  54.3010837  93.3656608 135.8528674  54.3340837  92.3396608 136.2228674
  53.7220837  93.3766608 134.9298674  53.6970837  93.9576608 136.5418674
 104.3610837  59.4616608 111.6128674 103.1920837  59.3966608 112.2058674
 103.1940837  58.1866608 112.8588674 104.3990837  57.5806608 112.6108674
 105.1340837  58.4196608 111.8068674 104.7820837  60.6476608 110.7708674
 105.7810837  60.5596608 110.3418674 104.7390837  61.5716608 111.3478674
 104.0760837  60.8206608 109.9578674 127.4350837  96.7466608  48.5018674
 127.2430837  96.0886608  49.6208674 128.4500837  96.1486608  50.2768674
 129.3180837  96.8596608  49.4898674 128.6440837  97.2346608  48.3518674
 126.3450837  96.9266608  47.4658674 126.6520837  97.4966608  46.5878674
 125.4710837  97.4136608  47.8988674 125.9610837  95.9626608  47.1298674
  44.0200837  25.2926608  71.7808674  44.8020837  26.2926608  71.4468674
  46.0320837  25.9676608  71.9678674  45.9110837  24.7576608  72.6018674
  44.6070837  24.3426608  72.4688674  42.5540837  25.2436608  71.4008674
  42.0320837  24.3506608  71.7488674  42.4290837  25.3126608  70.3198674
  42.0230837  26.1176608  71.7778674  44.7860837  90.1036608 116.4898674
  45.5560837  89.3716608 115.7198674  44.7690837  88.3096608 115.3398674
  43.5390837  88.4736608 115.9228674  43.5720837  89.6346608 116.6578674
  45.2640837  91.3886608 117.1338674  44.5120837  91.8876608 117.7468674
  45.6150837  92.0956608 116.3818674  46.1450837  91.2126608 117.7508674
 107.3240837  51.9896608 115.6228674 108.4050837  51.2636608 115.7778674
 107.9820837  49.9636608 115.6288674 106.6330837  49.9886608 115.3858674
 106.2300837  51.3036608 115.3868674 107.3390837  53.5016608 115.7098674
 106.3640837  53.9676608 115.5598674 108.0360837  53.9276608 114.9878674
 107.7310837  53.8336608 116.6718674 123.5480837  64.6986608 115.5338674
 122.8200837  65.7866608 115.6088674 123.6120837  66.7786608 115.0798674
 124.8020837  66.2086608 114.7078674 124.7380837  64.8686608 115.0098674
 123.0500837  63.3506608 116.0148674 123.7660837  62.5376608 115.8878674
 122.1250837  63.0726608 115.5088674 122.7650837  63.3926608 117.0668674
  94.7260837 123.3736608  91.2308674  94.9180837 122.0776608  91.1608674
  93.6570837 121.5386608  91.0538674  92.7590837 122.5736608  91.0678674
  93.4690837 123.7456608  91.1818674  95.8680837 124.3596608  91.3588674
  95.5540837 125.4036608  91.4068674  96.5710837 124.2526608  90.5328674
  96.4730837 124.1456608  92.2408674  37.2810837  69.9926608  60.9428674
  38.5320837  69.7446608  60.6388674  38.7630837  68.4716608  61.1038674
  37.6020837  68.0196608  61.6758674  36.6610837  69.0146608  61.5608674
  36.6060837  71.3066608  60.6058674  35.5630837  71.3666608  60.9208674
  36.6500837  71.5046608  59.5348674  37.1440837  72.1466608  61.0448674
  58.9550837  40.6516608  57.2028674  59.0020837  40.3696608  58.4838674
  59.9750837  41.1986608  58.9918674  60.4670837  41.9496608  57.9558674
  59.7960837  41.5806608  56.8138674  58.0030837  39.9576608  56.2508674
  58.0790837  40.2976608  55.2168674  56.9690837  40.0786608  56.5748674
  58.1530837  38.8776608  56.2668674 108.9040837  35.4136608 107.8688674
 108.9820837  34.7496608 108.9968674 108.4530837  33.5116608 108.7158674
 108.0790837  33.5086608 107.3968674 108.3780837  34.7436608 106.8708674
 109.3840837  36.8436608 107.7308674 109.2550837  37.2646608 106.7328674
 110.4370837  36.9306608 108.0038674 108.8800837  37.4956608 108.4448674
  33.0980837 105.9286608  68.5018674  32.9840837 104.6496608  68.2318674
  32.2900837 104.1256608  69.2978674  32.0230837 105.1516608  70.1668674
  32.5520837 106.3036608  69.6338674  33.8070837 106.8956608  67.5748674
  33.8220837 107.9266608  67.9308674  33.3570837 106.8846608  66.5808674
  34.8350837 106.5816608  67.3948674 119.9330837  76.6776608 112.1738674
 120.8930837  77.5576608 112.3308674 122.0320837  76.9176608 111.8998674
 121.6750837  75.6556608 111.4988674 120.3190837  75.5236608 111.6838674
 118.4910837  76.9746608 112.5318674 117.8050837  76.1466608 112.3468674
 118.1260837  77.8476608 111.9908674 118.4000837  77.2646608 113.5788674
  51.8320837  59.1236608  75.8058674  52.3670837  57.9406608  75.9898674
  51.4660837  57.2636608  76.7778674  50.4140837  58.1066608  77.0268674
  50.6710837  59.2986608  76.3908674  52.5040837  60.2026608  74.9818674
  51.9400837  61.1336608  74.9188674  52.7020837  59.8536608  73.9678674
  53.4960837  60.4316608  75.3728674 114.1870837  39.1366608 104.3688674
 112.9390837  39.2686608 104.7498674 112.8940837  38.7196608 106.0098674
 114.1550837  38.2796608 106.3188674 114.9710837  38.5576608 105.2478674
 114.6820837  39.6156608 103.0198674 115.7440837  39.4376608 102.8438674
 114.4880837  40.6806608 102.8888674 114.1200837  39.1506608 102.2098674
 115.5530837  63.1986608  82.5608674 115.4110837  62.0566608  83.1908674
 114.9350837  61.1856608  82.2398674 114.8170837  61.8776608  81.0618674
 115.2210837  63.1716608  81.2928674 116.0630837  64.4486608  83.2488674
 116.1280837  65.3216608  82.5968674 117.0450837  64.2796608  83.6908674
 115.4370837  64.7076608  84.1028674  36.0760837  64.7006608 112.6288674
  37.3850837  64.6856608 112.5438674  37.7290837  63.3566608 112.6158674
  36.5710837  62.6326608 112.7428674  35.5200837  63.5186608 112.7488674
  35.2720837  65.9846608 112.5898674  34.1940837  65.8386608 112.6708674
  35.4740837  66.5446608 111.6768674  35.5850837  66.6646608 113.3828674
 104.5040837  22.0026608  84.5478674 105.0070837  20.9056608  85.0618674
 104.2290837  19.8906608  84.5568674 103.2790837  20.4566608  83.7468674
 103.4750837  21.8176608  83.7568674 105.0710837  23.3756608  84.8478674
 104.5480837  24.1936608  84.3488674 106.1260837  23.4306608  84.5788674
 105.0690837  23.5736608  85.9198674  46.3670837  30.3146608  56.8278674
  47.0480837  30.4746608  55.7178674  46.9850837  29.2546608  55.0858674
  46.2490837  28.4126608  55.8778674  45.8610837  29.1156608  56.9938674
  46.1820837  31.4296608  57.8368674  45.5920837  31.1476608  58.7098674
  45.7140837  32.2996608  57.3758674  47.1440837  31.8086608  58.1818674
  28.4910837  94.2776608  38.3978674  27.2710837  94.1916608  37.9208674
  27.2320837  92.9816608  37.2688674  28.4660837  92.3986608  37.3968674
  29.2600837  93.2506608  38.1268674  28.9700837  95.4726608  39.1968674
  30.0080837  95.4026608  39.5268674  28.3430837  95.6316608  40.0748674
  28.8540837  96.3956608  38.6278674  35.4520837  65.3796608  49.3728674
  34.4430837  65.2846608  50.2048674  33.9130837  66.5516608  50.2638674
  34.6590837  67.3546608  49.4398674  35.6440837  66.5786608  48.8758674
  36.3260837  64.1946608  49.0148674  37.1270837  64.4266608  48.3108674
  35.7310837  63.3816608  48.5998674  36.7740837  63.7556608  49.9068674
 103.4140837 134.9416608  73.8918674 102.2990837 134.3716608  74.2828674
 102.6500837 133.6296608  75.3858674 103.9940837 133.8046608  75.5958674
 104.4650837 134.6526608  74.6218674 103.4800837 135.8626608  72.6898674
 104.4750837 136.2616608  72.4868674 102.7920837 136.7006608  72.8018674
 103.1250837 135.3566608  71.7908674  87.8750837 107.6436608  27.9428674
  88.9800837 106.9446608  27.8418674  88.9760837 106.1186608  28.9418674
  87.8350837 106.3806608  29.6558674  87.1410837 107.3656608  28.9938674
  87.4790837 108.6916608  26.9218674  86.5330837 109.1916608  27.1378674
  87.4150837 108.2586608  25.9228674  88.2530837 109.4526608  26.8228674
 100.4170837  47.2266608  84.2498674 101.2790837  46.3806608  84.7598674
 100.9420837  46.2906608  86.0898674  99.8650837  47.1126608  86.3038674
  99.5440837  47.7056608  85.1048674 100.4290837  47.6196608  82.7868674
  99.6520837  48.3326608  82.5088674 100.3330837  46.7426608  82.1458674
 101.3950837  48.0396608  82.5038674  58.8950837  51.5816608  23.6578674
  57.7670837  51.9916608  23.1288674  58.0040837  52.0256608  21.7748674
  59.2980837  51.6216608  21.5678674  59.8520837  51.3406608  22.7938674
  59.0750837  51.3996608  25.1518674  60.0680837  51.0526608  25.4428674
  58.3390837  50.7026608  25.5518674  58.8670837  52.3276608  25.6858674
  54.9090837  33.6166608  73.7308674  55.0260837  32.3166608  73.8698674
  55.2960837  31.8496608  72.6048674  55.3260837  32.9276608  71.7588674
  55.0740837  34.0546608  72.5048674  54.6070837  34.5356608  74.8958674
  54.5390837  35.5916608  74.6258674  55.3570837  34.4316608  75.6798674
  53.6780837  34.2496608  75.3888674  62.2220837 139.2526608  70.6938674
  61.2250837 139.5166608  69.8838674  61.6890837 140.5216608  69.0688674
  62.9740837 140.8086608  69.4508674  63.2960837 139.9796608  70.4988674
  62.1360837 138.1896608  71.7708674  63.0440837 138.0836608  72.3668674
  61.8940837 137.2176608  71.3418674  61.3040837 138.3856608  72.4478674
  54.9190837  97.5256608 106.8428674  54.1650837  98.3456608 107.5358674
  54.6320837  99.6016608 107.2258674  55.6670837  99.4546608 106.3388674
  55.8340837  98.1096608 106.1068674  54.7430837  96.0216608 106.8898674
  55.4430837  95.4696608 106.2598674  53.7300837  95.7376608 106.6048674
  54.8360837  95.6496608 107.9108674  83.2620837 122.4526608 102.3788674
  82.1100837 121.8676608 102.6088674  82.1970837 120.6536608 101.9678674
  83.4320837 120.5816608 101.3768674  84.1000837 121.7506608 101.6538674
  83.5950837 123.8316608 102.9118674  84.5900837 124.1876608 102.6398674
  83.5070837 123.8626608 103.9978674  82.8650837 124.5676608 102.5738674
 126.1180837  45.7846608 100.8068674 127.1420837  46.4046608 101.3428674
 126.6520837  46.9546608 102.5048674 125.3250837  46.6216608 102.5968674
 125.0030837  45.8676608 101.4928674 126.2180837  45.0306608  99.4968674
 125.2840837  44.5656608  99.1758674 126.9840837  44.2566608  99.5488674
 126.5660837  45.6836608  98.6958674 108.0490837  84.6516608  77.0548674
 107.1050837  84.6036608  77.9648674 107.1160837  85.8476608  78.5508674
 108.0940837  86.5886608  77.9378674 108.6810837  85.7976608  76.9778674
 108.3800837  83.4716608  76.1628674 109.1870837  83.6606608  75.4538674
 107.5030837  83.1486608  75.6018674 108.6440837  82.5956608  76.7558674
  74.9230837  64.7236608  36.9308674  75.0310837  65.9636608  37.3448674
  75.5380837  66.6526608  36.2678674  75.7090837  65.7576608  35.2438674
  75.3060837  64.5216608  35.6928674  74.3960837  63.6126608  37.8158674
  74.3640837  62.6346608  37.3338674  73.3960837  63.8456608  38.1818674
  74.9890837  63.5246608  38.7268674  49.6730837 129.1316608  98.7018674
  49.7920837 129.7806608  99.8358674  50.0630837 128.8096608 100.7708674
  50.0910837 127.6016608 100.1228674  49.8370837 127.8326608  98.7918674
  49.3700837 129.8306608  97.3918674  49.3000837 129.1606608  96.5338674
  50.1200837 130.5896608  97.1718674  48.4410837 130.3976608  97.4578674
  50.4720837 124.1176608  96.8738674  50.0240837 122.8996608  96.6888674
  48.6670837 122.9876608  96.8958674  48.3750837 124.2916608  97.2008674
  49.5530837 125.0016608  97.1808674  51.9390837 124.4746608  96.7418674
  52.1610837 125.5266608  96.9238674  52.3170837 124.2126608  95.7538674
  52.5490837 123.8746608  97.4178674  69.2090837 137.6426608  73.3718674
  69.9400837 138.7306608  73.4338674  71.2180837 138.2826608  73.6708674
  71.1760837 136.9146608  73.7378674  69.8720837 136.5236608  73.5428674
  67.7150837 137.6796608  73.1208674  67.2420837 136.6966608  73.0958674
  67.4880837 138.1906608  72.1858674  67.2070837 138.2826608  73.8738674
  95.2270837  45.0216608 107.1548674  96.1970837  45.8486608 107.4668674
  97.3310837  45.2776608 106.9398674  96.9630837  44.1086608 106.3248674
  95.6040837  43.9636608 106.4758674  93.7860837  45.2716608 107.5488674
  93.0920837  44.4966608 107.2188674  93.4360837  46.2296608 107.1628674
  93.6890837  45.3786608 108.6298674 101.1960837 134.9216608  83.8488674
 102.2610837 135.6526608  84.0768674 101.8340837 136.9516608  83.9338674
 100.5000837 136.9206608  83.6198674 100.1100837 135.6026608  83.5698674
 101.2220837 133.4076608  83.9028674 100.2600837 132.9366608  83.6908674
 101.5650837 133.0576608  84.8768674 101.9600837 133.0036608  83.2098674
  82.1360837  96.2836608 126.3688674  81.8410837  95.4356608 125.4118674
  80.9120837  94.5866608 125.9658674  80.6990837  94.9876608 127.2588674
  81.4970837  96.0816608 127.4968674  83.1360837  97.4056608 126.1828674
  83.2780837  98.0296608 127.0668674  82.8490837  98.0516608 125.3528674
  84.1090837  97.0166608 125.8808674  83.6570837  51.7256608 113.9548674
  82.6800837  52.6016608 113.9578674  81.5300837  51.8476608 113.9748674
  81.8970837  50.5266608 113.9808674  83.2700837  50.4716608 113.9668674
  85.1160837  52.1326608 113.9368674  85.8140837  51.2936608 113.9358674
  85.3530837  52.7726608 114.7868674  85.3360837  52.7606608 113.0728674
  88.5280837 119.0886608  45.9258674  87.6210837 119.8566608  46.4818674
  86.4500837 119.5486608  45.8288674  86.7330837 118.5866608  44.8948674
  88.0770837 118.3056608  44.9748674  89.9820837 119.1056608  46.3518674
  90.6170837 118.4126608  45.7988674  90.0800837 118.8846608  47.4148674
  90.4040837 120.1056608  46.2568674  87.0490837 134.4156608  94.6858674
  87.9340837 135.0356608  93.9418674  87.6530837 134.6386608  92.6548674
  86.5850837 133.7806608  92.7068674  86.2120837 133.6516608  94.0238674
  86.9980837 134.5726608  96.1918674  86.2080837 133.9956608  96.6758674
  86.8760837 135.6196608  96.4718674  87.9500837 134.2946608  96.6458674
  56.1420837  96.4066608 124.3788674  55.1790837  95.6916608 124.9108674
  54.5340837  95.1156608 123.8408674  55.1680837  95.5326608 122.6988674
  56.2000837  96.3616608 123.0688674  57.1100837  97.2176608 125.2158674
  57.8570837  97.7606608 124.6338674  57.6310837  96.5856608 125.9338674
  56.5790837  97.9346608 125.8418674 105.5920837 102.5796608  68.5828674
 105.8180837 101.3196608  68.2958674 107.1070837 101.2926608  67.8148674
 107.5900837 102.5756608  67.8438674 106.5980837 103.3876608  68.3418674
 104.2720837 103.0616608  69.1488674 104.2320837 104.1356608  69.3368674
 104.0330837 102.5436608  70.0768674 103.4450837 102.8006608  68.4878674
  65.8650837 140.9356608  70.4388674  65.4810837 140.7156608  71.6748674
  65.5010837 139.3466608  71.8118674  65.9070837 138.8136608  70.6158674
  66.1350837 139.8546608  69.7468674  65.9850837 142.3306608  69.8608674
  66.3150837 142.3556608  68.8208674  66.6690837 142.9406608  70.4508674
  65.0370837 142.8646608  69.9308674 110.8050837  51.7676608  57.2998674
 109.5290837  52.0296608  57.4538674 109.4830837  53.3496608  57.8378674
 110.7720837  53.8126608  57.8928674 111.6070837  52.7776608  57.5428674
 111.3110837  50.4046608  56.8758674 112.3960837  50.3366608  56.7898674
 110.8740837  50.1056608  55.9218674 110.9750837  49.6306608  57.5658674
  69.9080837 141.7696608  80.9328674  68.7790837 142.4366608  80.9008674
  68.4910837 142.5786608  79.5628674  69.4940837 141.9706608  78.8538674
  70.3950837 141.4566608  79.7558674  70.5930837 141.3916608  82.2298674
  71.5240837 140.8376608  82.0988674  69.9310837 140.8006608  82.8638674
  70.8040837 142.2756608  82.8328674  23.4170837  78.5526608  94.5088674
  23.0560837  79.0286608  93.3408674  22.7540837  80.3496608  93.5758674
  22.9570837  80.5926608  94.9098674  23.3840837  79.4216608  95.4908674
  23.8380837  77.1106608  94.7048674  24.1100837  76.8596608  95.7318674
  24.6780837  76.8566608  94.0578674  23.0510837  76.4266608  94.3848674
  70.1690837 129.4486608 101.0328674  71.0850837 128.8816608 101.7798674
  70.5220837 128.8046608 103.0318674  69.2650837 129.3476608 102.9578674
  69.0590837 129.7556608 101.6618674  70.3790837 129.7276608  99.5578674
  69.5280837 130.2036608  99.0678674  70.6150837 128.8116608  99.0168674
  71.2580837 130.3536608  99.3998674 108.7450837  92.1846608  38.6488674
 108.3830837  93.4346608  38.8138674 107.0670837  93.3716608  39.2108674
 106.7100837  92.0486608  39.2618674 107.8060837  91.3026608  38.8958674
 110.1410837  91.7926608  38.2078674 110.2940837  90.7166608  38.1138674
 110.8920837  92.1866608  38.8928674 110.3940837  92.2576608  37.2548674
 111.1270837  78.5196608  42.3748674 112.1580837  79.2716608  42.6788674
 112.9530837  78.4776608  43.4718674 112.3320837  77.2616608  43.5988674
 111.1580837  77.3116608  42.8848674 109.9890837  79.0106608  41.5028674
 109.2020837  78.2736608  41.3368674 110.3570837  79.3416608  40.5308674
 109.5330837  79.9076608  41.9238674  48.4300837 108.1746608  66.4938674
  49.1780837 109.1806608  66.1068674  50.4570837 108.6746608  66.0678674
  50.3960837 107.3576608  66.4448674  49.0810837 107.0576608  66.7138674
  46.9300837 108.2966608  66.6708674  46.4420837 107.3766608  66.9968674
  46.4530837 108.6266608  65.7478674  46.6840837 109.0846608  67.3828674
 109.3960837  55.1786608  27.8538674 109.1760837  54.0786608  27.1748674
 110.2950837  53.3056608  27.3838674 111.1420837  54.0106608  28.1988674
 110.5430837  55.2136608  28.4898674 108.4000837  56.3196608  27.8988674
 108.7200837  57.1696608  28.5048674 107.4330837  55.9806608  28.2728674
 108.1750837  56.6816608  26.8958674  73.6970837 107.5476608 129.0248674
  74.3360837 107.8076608 127.9098674  74.2720837 106.6406608 127.1858674
  73.5780837 105.7236608 127.9328674  73.2170837 106.3296608 129.1128674
  73.5270837 108.5766608 130.1248674  72.9730837 108.2156608 130.9918674
  73.0290837 109.4706608 129.7488674  74.4940837 108.9456608 130.4668674
 102.1210837  57.1326608  30.3698674 101.0480837  56.7246608  29.7348674
 101.5180837  55.8836608  28.7528674 102.8840837  55.8376608  28.8618674
 103.2500837  56.6486608  29.9098674 102.0580837  58.0876608  31.5438674
 103.0320837  58.3366608  31.9708674 101.4300837  57.6886608  32.3398674
 101.5610837  59.0166608  31.2658674  40.0760837 110.8316608  58.1978674
  39.5550837 110.3356608  57.1008674  38.2490837 110.7656608  57.1048674
  38.0600837 111.5146608  58.2368674  39.2490837 111.5436608  58.9258674
  41.5200837 110.5976608  58.5918674  41.8100837 111.0716608  59.5298674
  42.1990837 110.9426608  57.8108674  41.7370837 109.5316608  58.6678674
  47.2220837  94.2406608  79.7088674  47.2030837  93.3626608  80.6828674
  45.8690837  93.1446608  80.9368674  45.1470837  93.9286608  80.0748674
  46.0380837  94.6256608  79.2928674  48.5110837  94.7676608  79.1128674
  48.3680837  95.4936608  78.3098674  49.1260837  93.9536608  78.7308674
  49.1370837  95.2256608  79.8788674  52.6190837  32.7546608  78.5378674
  51.8570837  33.2876608  79.4628674  52.5970837  34.3286608  79.9738674
  53.7930837  34.3576608  79.3048674  53.7850837  33.3356608  78.3848674
  52.1840837  31.5616608  77.7118674  52.9230837  31.2296608  76.9818674
  51.2530837  31.7706608  77.1838674  51.9320837  30.7156608  78.3518674
  58.4600837 122.5176608 105.1228674  58.6550837 123.5386608 104.3218674
  59.8520837 124.0806608 104.7258674  60.3170837 123.3296608 105.7758674
  59.4040837 122.3296608 106.0128674  57.2380837 121.6276608 105.0228674
  57.2130837 120.8186608 105.7558674  57.1530837 121.1896608 104.0288674
  56.3210837 122.2086608 105.1268674  37.2570837 108.4316608  62.0318674
  37.9230837 109.5526608  62.1798674  39.2000837 109.1636608  62.5068674
  39.2250837 107.7926608  62.5368674  37.9630837 107.3436608  62.2268674
  35.7880837 108.3996608  61.6628674  35.3710837 107.3956608  61.5748674
  35.6090837 108.9266608  60.7258674  35.1910837 108.9546608  62.3878674
  64.7260837  40.4876608  39.4588674  63.8420837  40.6896608  38.5108674
  62.7510837  39.9386608  38.8798674  63.0560837  39.3126608  40.0618674
  64.3320837  39.6806608  40.4148674  66.0950837  41.1376608  39.4468674
  66.7220837  40.8756608  40.3008674  66.0120837  42.2236608  39.4058674
  66.6380837  40.8866608  38.5358674  54.5300837 110.1286608  70.4958674
  54.6610837 111.2526608  69.8328674  53.4200837 111.8426608  69.8878674
  52.5950837 111.0126608  70.6018674  53.3310837 109.9156608  70.9838674
  55.6750837 109.1546608  70.6828674  55.4150837 108.2636608  71.2568674
  56.5230837 109.6376608  71.1688674  56.0770837 108.8356608  69.7208674
  62.3160837  43.9366608  95.9778674  61.9970837  42.6826608  95.7638674
  60.8050837  42.7336608  95.0788674  60.4720837  44.0546608  94.9188674
  61.4590837  44.8106608  95.5058674  63.5770837  44.3416608  96.7138674
  63.7090837  45.4196608  96.8148674  64.4630837  43.9346608  96.2238674
  63.6080837  43.8986608  97.7088674  90.1620837  63.5116608  31.7338674
  88.8690837  63.7336608  31.7398674  88.7460837  65.1036608  31.7578674
  90.0090837  65.6356608  31.7618674  90.9050837  64.5926608  31.7458674
  90.7480837  62.1146608  31.7138674  91.8390837  62.0886608  31.7108674
  90.3910837  61.5536608  30.8508674  90.3950837  61.5316608  32.5648674
  41.7340837 104.4106608  35.8478674  42.6220837 105.3516608  35.6298674
  41.9180837 106.5296608  35.7268674  40.6130837 106.2136608  36.0048674
  40.5180837 104.8436608  36.0778674  42.0900837 102.9376608  35.8328674
  41.2470837 102.2726608  36.0308674  42.8750837 102.7176608  36.5568674
  42.5330837 102.6516608  34.8788674  80.7980837  19.4156608 100.2858674
  81.9250837  18.7446608 100.2758674  82.0330837  18.2166608 101.5418674
  80.9320837  18.6146608 102.2548674  80.1510837  19.3866608 101.4268674
  80.2870837  20.1666608  99.0738674  79.3370837  20.6776608  99.2318674
  80.1770837  19.4986608  98.2188674  81.0170837  20.9016608  98.7328674
  30.7040837  54.9126608  97.0078674  30.5310837  53.6496608  97.3158674
  31.5980837  53.3336608  98.1228674  32.3700837  54.4586608  98.2538674
  31.7760837  55.4636608  97.5278674  29.7410837  55.6746608  96.1208674
  30.0160837  56.7166608  95.9528674  28.7300837  55.6496608  96.5298674
  29.6370837  55.1886608  95.1498674  91.4130837 117.1266608 107.3758674
  90.1100837 116.9756608 107.3478674  89.9150837 115.6196608 107.2218674
  91.1480837 115.0226608 107.1798674  92.0980837 116.0116608 107.2808674
  92.0720837 118.4836608 107.5078674  93.1630837 118.4526608 107.5158674
  91.7390837 118.9946608 108.4118674  91.7570837 119.1506608 106.7048674
 105.5190837  94.1476608 103.9938674 106.2700837  93.3296608 104.6918674
 106.5670837  92.3006608 103.8298674 105.9580837  92.5716608 102.6308674
 105.2890837  93.7656608 102.7598674 104.9620837  95.4336608 104.5698674
 104.3550837  96.0106608 103.8708674 105.7620837  96.0756608 104.9378674
 104.3620837  95.2356608 105.4588674  62.4120837  26.6856608  69.6668674
  62.3220837  26.8536608  68.3688674  62.1690837  28.2096608  68.1988674
  62.1770837  28.7896608  69.4418674  62.3350837  27.7896608  70.3718674
  62.5920837  25.3206608  70.2998674  62.6510837  25.3376608  71.3898674
  63.4860837  24.8276608  69.9178674  61.7840837  24.6476608  70.0128674
  92.6930837 108.2176608 127.5158674  94.0020837 108.2066608 127.6008674
  94.3740837 109.5256608 127.4808674  93.2320837 110.2686608 127.3278674
  92.1620837 109.4056608 127.3528674  91.8610837 106.9536608 127.6008674
  90.7860837 107.1186608 127.5138674  92.0510837 106.4226608 128.5338674
  92.1590837 106.2376608 126.8338674  22.0970837  95.1776608  65.0198674
  21.8080837  93.9996608  65.5188674  21.6400837  94.2186608  66.8668674
  21.8440837  95.5536608  67.1008674  22.1370837  96.1516608  65.8978674
  22.3620837  95.3936608  63.5438674  22.5890837  96.4266608  63.2768674
  21.5150837  95.0636608  62.9428674  23.1830837  94.7646608  63.1988674
  74.4330837  20.6846608  56.7828674  75.7310837  20.8466608  56.8798674
  76.0780837  21.5876608  55.7748674  74.9340837  21.8316608  55.0598674
  73.8870837  21.2416608  55.7278674  73.6290837  19.9136608  57.8098674
  72.5610837  19.8626608  57.5948674  73.7570837  20.3396608  58.8058674
  74.0050837  18.8956608  57.9158674  77.0720837  15.6866608  78.8958674
  77.4780837  16.9076608  79.1498674  77.6470837  17.4876608  77.9138674
  77.3230837  16.5516608  76.9668674  76.9550837  15.3996608  77.6208674
  76.7620837  14.6876608  79.9918674  76.4350837  13.7126608  79.6278674
  75.9990837  15.0726608  80.6678674  77.6270837  14.5376608  80.6398674
  70.0670837  27.4706608  65.3178674  71.2110837  26.8306608  65.3048674
  70.9350837  25.6016608  65.8568674  69.6020837  25.5786608  66.1778674
  69.0630837  26.7926608  65.8218674  69.9180837  28.8836608  64.7918674
  68.9060837  29.2856608  64.8688674  70.2310837  28.9476608  63.7498674
  70.5950837  29.5656608  65.3058674  99.6780837 127.6906608 109.8078674
 100.6480837 127.0676608 109.1828674 100.0910837 126.6416608 107.9998674
  98.7820837 127.0476608 107.9858674  98.5370837 127.7206608 109.1598674
  99.8620837 128.3246608 111.1708674  98.9660837 128.8066608 111.5648674
 100.6660837 129.0606608 111.1538674 100.2020837 127.5896608 111.9008674
 100.4020837  89.7506608  51.0098674 101.6660837  89.3986608  51.0338674
 102.1280837  89.8266608  52.2568674 101.0830837  90.4276608  52.9098674
  99.9820837  90.3666608  52.0888674  99.5010837  89.4656608  49.8258674
  98.4750837  89.8176608  49.9498674  99.4710837  88.3986608  49.6048674
  99.9040837  89.9056608  48.9128674 118.3330837 105.3836608  90.5768674
 119.1390837 104.9346608  89.6448674 118.7200837 103.6456608  89.4078674
 117.6580837 103.3936608  90.2358674 117.4260837 104.5266608  90.9798674
 118.4440837 106.7856608  91.1418674 117.7050837 107.0166608  91.9108674
 118.3600837 107.5326608  90.3518674 119.4360837 106.9616608  91.5578674
 125.4260837  48.3886608  47.2648674 126.5680837  48.0586608  47.8198674
 126.3130837  46.8796608  48.4798674 124.9950837  46.5646608  48.2758674
 124.4430837  47.5486608  47.4908674 125.2580837  49.6406608  46.4298674
 124.2510837  49.7826608  46.0338674 125.9580837  49.6496608  45.5928674
 125.5280837  50.5296608  46.9998674 129.5190837  49.3776608  66.2158674
 129.8240837  50.1406608  65.1938674 128.6900837  50.1606608  64.4168674
 127.7450837  49.3856608  65.0378674 128.3000837  48.8906608  66.1938674
 130.4980837  49.0816608  67.3328674 130.1020837  48.4316608  68.1148674
 130.8470837  50.0026608  67.8008674 131.4110837  48.6296608  66.9428674
  34.5360837  33.2176608  76.2208674  33.8900837  32.5216608  77.1258674
  34.7510837  31.5066608  77.4728674  35.8950837  31.6596608  76.7328674
  35.7350837  32.7676608  75.9338674  33.9420837  34.4446608  75.5598674
  34.5970837  34.9186608  74.8268674  33.6640837  35.1916608  76.3028674
  32.9980837  34.2056608  75.0688674 100.2760837 129.6956608  59.7958674
 100.3110837 128.4186608  60.0948674 101.3220837 127.9026608  59.3178674
 101.8470837 128.9316608  58.5798674 101.1590837 130.0766608  58.9038674
  99.2910837 130.6546608  60.4348674  99.3810837 131.6846608  60.0878674
  99.3900837 130.6506608  61.5208674  98.2640837 130.3276608  60.2688674
  59.0080837  36.1836608  64.9218674  58.4190837  37.3426608  65.0968674
  57.0790837  37.0466608  65.1888674  56.9410837  35.6886608  65.0598674
  58.1960837  35.1536608  64.8888674  60.5090837  36.0476608  64.7688674
  60.8540837  35.0216608  64.6298674  61.0290837  36.4686608  65.6308674
  60.8730837  36.6456608  63.9328674 123.6680837  65.5456608  88.2608674
 124.8760837  65.5256608  88.7718674 125.1090837  64.2046608  89.0748674
 123.9940837  63.4916608  88.7168674 123.0800837  64.3756608  88.1948674
 123.0070837  66.8236608  87.7848674 122.0020837  66.6836608  87.3838674
 123.6130837  67.3166608  87.0238674 122.9550837  67.5586608  88.5878674
  55.8920837  51.1676608  96.6148674  57.1490837  51.2386608  96.9818674
  57.4750837  49.9616608  97.3738674  56.3600837  49.1786608  97.2138674
  55.3530837  49.9766608  96.7248674  55.1240837  52.3706608  96.1048674
  54.0870837  52.1586608  95.8388674  55.6160837  52.8096608  95.2368674
  55.1290837  53.1766608  96.8388674  53.1440837  22.2266608  86.7588674
  54.1510837  22.4236608  87.5758674  54.8570837  23.4656608  87.0228674
  54.2120837  23.8416608  85.8728674  53.1120837  23.0306608  85.7228674
  52.1000837  21.1546608  86.9948674  51.3230837  21.1096608  86.2298674
  51.6180837  21.2856608  87.9638674  52.5620837  20.1696608  87.0688674
 124.6180837  61.0786608 109.1898674 123.4850837  61.6226608 108.8138674
 122.8920837  60.6806608 108.0058674 123.7300837  59.5976608 107.9448674
 124.8350837  59.8756608 108.7138674 125.5980837  61.7876608 110.1028674
 126.4960837  61.2106608 110.3278674 125.1240837  62.0636608 111.0458674
 125.9040837  62.7446608 109.6798674 129.8900837  68.2776608  52.7638674
 131.1400837  67.8866608  52.6768674 131.1140837  66.5486608  52.9948674
 129.8130837  66.2076608  53.2608674 129.0420837  67.3366608  53.1058674
 129.4630837  69.7046608  52.4898674 128.3920837  69.8796608  52.6018674
 129.7560837  70.0146608  51.4858674 129.9920837  70.4026608  53.1388674
  71.1860837  80.8056608  20.7778674  70.4380837  81.2746608  21.7488674
  71.1280837  80.9776608  22.9008674  72.2820837  80.3296608  22.5408674
  72.2980837  80.2306608  21.1698674  70.7930837  80.9216608  19.3198674
  71.5140837  80.4856608  18.6268674  70.6360837  81.9636608  19.0388674
  69.8220837  80.4586608  19.1388674  53.0030837  48.1306608  45.9078674
  53.8930837  47.1696608  45.9798674  55.1080837  47.8156608  46.0148674
  54.8650837  49.1636608  45.9598674  53.5040837  49.3436608  45.8918674
  51.5140837  47.8586608  45.8488674  50.8970837  48.7566608  45.7918674
  51.1890837  47.2756608  46.7108674  51.2670837  47.2206608  44.9998674
 122.2220837  94.2596608  64.5588674 121.3720837  95.2586608  64.5898674
 120.1490837  94.6736608  64.8208674 120.3450837  93.3206608  64.9188674
 121.6880837  93.0766608  64.7468674 123.7060837  94.4606608  64.3258674
 124.2870837  93.5376608  64.3268674 124.1310837  95.1326608  65.0708674
 123.8860837  94.9756608  63.3818674  88.4480837  25.5046608 108.9138674
  87.1850837  25.2076608 109.1098674  86.9620837  24.0886608 108.3418674
  88.1380837  23.7726608 107.7138674  89.0810837  24.6976608 108.0968674
  89.1190837  26.6876608 109.5818674  90.1720837  26.8076608 109.3228674
  89.0400837  26.6196608 110.6668674  88.6010837  27.6166608 109.3428674
  97.6950837  45.8566608  27.2178674  96.4060837  46.0966608  27.1688674
  96.2350837  46.8856608  26.0558674  97.4680837  47.0776608  25.4868674
  98.3930837  46.4056608  26.2518674  98.3250837  45.0116608  28.3048674
  99.4070837  44.8996608  28.2148674  97.8810837  44.0156608  28.3328674
  98.1060837  45.4186608  29.2928674  64.4240837  24.0026608  61.8048674
  65.5940837  24.5906608  61.8668674  66.5050837  23.5606608  61.9098674
  65.8050837  22.3826608  61.8688674  64.4670837  22.6916608  61.8018674
  63.1240837  24.7796608  61.7408674  62.2320837  24.1536608  61.6928674
  63.1150837  25.4546608  60.8848674  63.0270837  25.4476608  62.5968674
  49.7150837  99.7326608 105.4368674  49.3030837  99.0576608 106.4828674
  50.2880837  99.2326608 107.4258674  51.2600837 100.0256608 106.8718674
  50.8700837 100.3356608 105.5908674  48.9170837  99.8086608 104.1508674
  49.3860837 100.4066608 103.3678674  47.9190837 100.2086608 104.3338674
  48.7250837  98.8126608 103.7508674  56.8230837 117.6106608  76.7048674
  57.3670837 118.7906608  76.8878674  56.3500837 119.5746608  77.3808674
  55.2260837 118.7956608  77.4658674  55.5540837 117.5346608  77.0258674
  57.6040837 116.4296608  76.1648674  57.0190837 115.5146608  76.0668674
  58.4710837 116.2156608  76.7908674  58.0400837 116.6616608  75.1928674
  44.1090837 115.6256608 116.3558674  45.3600837 116.0186608 116.3328674
  45.3040837 117.3866608 116.4678674  43.9830837 117.7416608 116.5668674
  43.2320837 116.5926608 116.4928674  43.7100837 114.1696608 116.2348674
  42.6340837 113.9956608 116.2708674  44.1790837 113.5696608 117.0158674
  44.0950837 113.7346608 115.3118674  92.6860837  91.2096608  15.7888674
  91.6630837  92.0186608  15.6468674  91.0380837  91.5996608  14.4968674
  91.7440837  90.5326608  14.0028674  92.8010837  90.2996608  14.8508674
  93.6580837  91.3206608  16.9458674  94.4580837  90.5786608  16.9298674
  93.1380837  91.2406608  17.9008674  94.1110837  92.3116608  16.9818674
  68.6580837  18.8196608  83.1988674  69.6960837  19.4516608  82.7048674
  69.4320837  19.5646608  81.3598674  68.2160837  18.9766608  81.1218674
  67.7360837  18.5036608  82.3208674  68.5360837  18.4816608  84.6708674
  67.6170837  17.9556608  84.9338674  68.6010837  19.3806608  85.2848674
  69.3810837  17.8806608  85.0058674 131.1920837  79.2316608 111.8188674
 131.3870837  80.1576608 112.7268674 131.1350837  79.5336608 113.9268674
 130.7940837  78.2336608 113.6568674 130.8380837  78.0606608 112.2938674
 131.3640837  79.4956608 110.3368674 131.1680837  78.6306608 109.7028674
 132.3700837  79.8576608 110.1188674 130.7210837  80.3126608 110.0088674
  60.0330837 118.9656608  54.5118674  60.1250837 117.7526608  55.0028674
  58.8420837 117.4236608  55.3738674  58.0340837 118.4906608  55.0738674
  58.8230837 119.4716608  54.5198674  61.2330837 119.7206608  53.9778674
  61.0020837 120.7186608  53.6028674  61.7230837 119.1616608  53.1808674
  62.0070837 119.8136608  54.7408674  59.1320837  35.8676608 108.1738674
  58.0370837  36.5386608 107.9038674  58.3980837  37.4186608 106.9118674
  59.7260837  37.2176608 106.6378674  60.1780837  36.2146608 107.4628674
  59.1810837  34.7786608 109.2258674  60.1600837  34.3096608 109.3388674
  58.4520837  33.9966608 109.0128674  58.8720837  35.1606608 110.1988674
  45.5760837  30.2466608  65.4858674  44.7890837  30.4336608  66.5188674
  43.6840837  29.6556608  66.2648674  43.8800837  29.0316608  65.0598674
  45.1050837  29.4276608  64.5768674  46.9240837  30.9276608  65.3558674
  47.4650837  30.6756608  64.4428674  47.5630837  30.6926608  66.2078674
  46.8200837  32.0116608  65.4038674  42.8130837  55.6336608  60.3388674
  41.5490837  55.4516608  60.6398674  41.4090837  54.0896608  60.7678674
  42.6330837  53.5206608  60.5298674  43.5220837  54.5326608  60.2558674
  43.4050837  57.0086608  60.1078674  44.4690837  57.0026608  59.8658674
  43.2560837  57.6496608  60.9768674  42.8770837  57.5316608  59.3098674
  83.3500837  51.4426608  30.3228674  82.0550837  51.6486608  30.3108674
  81.4970837  50.3916608  30.3008674  82.5220837  49.4806608  30.3078674
  83.7060837  50.1796608  30.3218674  84.3550837  52.5756608  30.3358674
  85.3970837  52.2496608  30.3448674  84.1950837  53.2296608  31.1938674
  84.2120837  53.2356608  29.4798674 112.7040837 112.1536608 105.0118674
 112.2420837 113.1296608 104.2658674 111.4510837 112.5106608 103.3258674
 111.4880837 111.1626608 103.5718674 112.3000837 110.9556608 104.6618674
 113.6320837 112.3956608 106.1848674 113.9330837 111.4886608 106.7108674
 113.1790837 113.0746608 106.9078674 114.5330837 112.9216608 105.8678674
  74.2130837  61.2286608 129.9618674  73.1580837  60.5426608 130.3328674
  72.4560837  61.3916608 131.1558674  73.1530837  62.5706608 131.2318674
  74.2800837  62.4426608 130.4548674  75.2690837  60.6606608 129.0368674
  76.0880837  61.3476608 128.8168674  74.8290837  60.3406608 128.0918674
  75.6940837  59.7426608 129.4448674  41.8940837 101.7166608 100.1998674
  41.8360837 100.4956608 100.6758674  40.6480837 100.4416608 101.3658674
  40.0470837 101.6696608 101.2588674  40.8670837 102.4746608 100.5038674
  43.0570837 102.2096608  99.3638674  42.9660837 103.2476608  99.0388674
  43.1950837 101.5866608  98.4798674  43.9990837 102.1036608  99.9028674
 116.4580837  89.2146608  57.5758674 117.6860837  89.5056608  57.2198674
 118.0900837  88.4436608  56.4448674 117.0480837  87.5546608  56.3808674
 116.0080837  88.0716608  57.1158674 115.6250837  90.1306608  58.4498674
 114.6220837  89.7556608  58.6618674 115.5320837  91.1196608  58.0018674
 116.1240837  90.3246608  59.3998674 116.9240837  61.7956608 100.9418674
 117.8710837  62.7016608 101.0068674 117.2380837  63.8936608 100.7388674
 115.9120837  63.6226608 100.5238674 115.7320837  62.2656608 100.6598674
 117.1890837  60.3226608 101.1758674 116.3040837  59.6896608 101.0888674
 117.6320837  60.1566608 102.1578674 117.9450837  59.9476608 100.4858674
 121.0150837  82.5836608  60.1418674 121.5940837  81.4426608  59.8538674
 121.1600837  80.5706608  60.8248674 120.3220837  81.2626608  61.6608674
 120.2430837  82.5556608  61.2018674 121.2230837  83.8336608  59.3118674
 120.6750837  84.7066608  59.6738674 120.9440837  83.6636608  58.2718674
 122.2800837  84.0946608  59.2558674  41.9400837 125.0386608  78.1828674
  42.0490837 125.3376608  76.9098674  43.1990837 126.0866608  76.8208674
  43.7260837 126.1946608  78.0818674  42.8990837 125.5116608  78.9428674
  40.7960837 124.2096608  78.7298674  40.8390837 124.0426608  79.8068674
  40.7450837 123.2396608  78.2358674  39.8350837 124.6686608  78.4948674
  71.2040837  86.7736608  17.1288674  71.7470837  86.4766608  18.2858674
  72.3410837  87.6426608  18.7058674  72.1120837  88.5976608  17.7488674
  71.3770837  88.0156608  16.7428674  70.4350837  85.7596608  16.3058674
  70.0410837  86.1526608  15.3668674  69.6050837  85.3416608  16.8758674
  71.0540837  84.8916608  16.0788674  64.2240837 118.7026608 110.2028674
  65.4550837 118.2686608 110.3328674  65.3490837 116.8976608 110.3238674
  64.0220837 116.5826608 110.1838674  63.3160837 117.7606608 110.1078674
  63.8810837 120.1776608 110.1638674  62.8160837 120.3866608 110.0518674
  64.4150837 120.6826608 109.3578674  64.2350837 120.6846608 111.0628674
  45.8840837  98.8286608  59.3308674  47.0460837  99.4236608  59.4598674
  47.9730837  98.4636608  59.1288674  47.2920837  97.3166608  58.8108674
  45.9480837  97.5746608  58.9478674  44.5720837  99.5356608  59.6018674
  43.6890837  98.9126608  59.4518674  44.4720837 100.4246608  58.9798674
  44.5430837  99.9286608  60.6188674 122.2700837 110.6846608  78.3128674
 121.5220837 110.8046608  79.3838674 121.6360837 109.5966608  80.0318674
 122.4710837 108.8026608  79.2888674 122.8670837 109.5226608  78.1868674
 122.4300837 111.8016608  77.3028674 123.0830837 111.5556608  76.4638674
 122.8110837 112.7066608  77.7778674 121.4630837 112.1086608  76.9028674
  42.4850837  61.5406608  47.2868674  41.6670837  62.1166608  46.4378674
  42.0650837  61.6636608  45.2018674  43.1280837  60.8186608  45.3888674
  43.3810837  60.7536608  46.7388674  42.3990837  61.7676608  48.7818674
  43.1450837  61.2206608  49.3608674  41.4120837  61.5016608  49.1608674
  42.4900837  62.8266608  49.0228674  36.9080837  57.9366608  50.8388674
  37.3240837  58.7846608  51.7488674  36.6700837  59.9596608  51.4608674
  35.8780837  59.7386608  50.3648674  36.0470837  58.4296608  49.9808674
  37.3860837  56.4996608  50.7868674  36.9520837  55.9136608  49.9748674
  37.1810837  55.9846608  51.7258674  38.4720837  56.4526608  50.6988674
  47.7310837  68.4576608  90.0698674  47.8360837  69.2026608  88.9958674
  48.8510837  70.0866608  89.2768674  49.3070837  69.8106608  90.5398674
  48.5710837  68.7586608  91.0318674  46.7170837  67.3386608  90.1888674
  46.7470837  66.8066608  91.1418674  46.8440837  66.6096608  89.3878674
  45.7030837  67.7116608  90.0388674  94.1190837 131.4386608  46.4868674
  93.0230837 131.8736608  45.9128674  92.6500837 130.8666608  45.0538674
  93.5720837 129.8586608  45.1678674  94.5090837 130.2476608  46.0958674
  94.8740837 132.2486608  47.5198674  95.7670837 131.7566608  47.9088674
  94.2310837 132.5036608  48.3628674  95.1670837 133.2186608  47.1168674
  26.1470837 107.8526608  72.1748674  25.8050837 106.9676608  71.2698674
  26.9160837 106.8346608  70.4698674  27.8850837 107.6726608  70.9578674
  27.3680837 108.3176608  72.0568674  25.2030837 108.3016608  73.2718674
  25.6270837 109.0426608  73.9508674  24.8600837 107.4526608  73.8638674
  24.2830837 108.7096608  72.8528674  60.4920837 111.4726608  65.3798674
  59.9120837 110.7286608  66.2928674  59.0230837 109.9446608  65.5958674
  59.1260837 110.2756608  64.2688674  60.0770837 111.2606608  64.1538674
  61.5570837 112.4956608  65.7198674  61.9460837 113.0386608  64.8578674
  62.3950837 112.0286608  66.2368674  61.1830837 113.2236608  66.4408674
 124.3920837  72.6726608  65.9198674 125.4350837  72.7396608  66.7118674
 125.9140837  71.4516608  66.7748674 125.1060837  70.6676608  65.9928674
 124.1330837  71.4736608  65.4528674 123.5540837  73.8856608  65.5728674
 122.7190837  73.6756608  64.9028674 124.1660837  74.6666608  65.1208674
 123.1580837  74.3576608  66.4728674  55.6650837  67.1336608  26.0228674
  55.8900837  66.2706608  25.0608674  55.6660837  66.9706608  23.8988674
  55.3100837  68.2486608  24.2428674  55.3160837  68.3316608  25.6158674
  55.7990837  66.7736608  27.4878674  55.5800837  67.5956608  28.1718674
  56.8000837  66.4036608  27.7098674  55.1520837  65.9346608  27.7448674
  86.2600837  30.8706608  35.0798674  87.0040837  29.7926608  35.1528674
  86.2070837  28.8536608  35.7638674  84.9970837  29.4426608  36.0288674
  85.0540837  30.7406608  35.5798674  86.7570837  32.1636608  34.4668674
  86.0260837  32.9736608  34.4768674  87.0790837  32.0086608  33.4368674
  87.6600837  32.5126608  34.9678674  39.8530837  95.3306608  35.2148674
  38.6780837  95.6886608  34.7528674  38.8630837  96.9596608  34.2638674
  40.1760837  97.2986608  34.4668674  40.7940837  96.2346608  35.0808674
  40.1000837  93.9786608  35.8518674  41.1270837  93.8246608  36.1888674
  39.8400837  93.1706608  35.1678674  39.4350837  93.8196608  36.7018674
  25.4940837 103.6166608  66.9518674  24.2260837 103.7716608  66.6518674
  23.7020837 104.4966608  67.6958674  24.7160837 104.7406608  68.5858674
  25.8610837 104.1646608  68.0858674  26.4570837 102.8646608  66.0568674
  27.4780837 102.8186608  66.4378674  26.4850837 103.3006608  65.0578674
  26.1120837 101.8446608  65.8818674  32.0740837  57.9916608 103.4978674
  30.9370837  58.0496608 102.8448674  30.5340837  59.3596608 102.9528674
  31.4810837  60.0286608 103.6858674  32.4630837  59.1276608 104.0258674
  32.8730837  56.7106608 103.6298674  33.7960837  56.8176608 104.2008674
  33.1220837  56.3036608 102.6498674  32.2750837  55.9236608 104.0908674
  99.0880837 100.3876608  32.1868674  99.3170837  99.1656608  32.6038674
  98.3810837  98.9466608  33.5878674  97.6240837 100.0846608  33.7038674
  98.0970837 100.9986608  32.7918674  99.9050837 101.0396608  31.0898674
  99.5980837 102.0586608  30.8498674  99.8720837 100.4486608  30.1738674
 100.9640837 101.0546608  31.3488674  52.0210837  48.7886608  82.1848674
  53.1140837  48.2406608  81.7068674  53.8120837  47.8206608  82.8148674
  53.0750837  48.1516608  83.9228674  51.9260837  48.7736608  83.4928674
  50.9550837  49.3906608  81.2928674  50.1040837  49.8086608  81.8328674
  50.5790837  48.6546608  80.5818674  51.3730837  50.1716608  80.6568674
  75.0410837  93.1206608  18.6958674  76.2980837  93.4526608  18.5228674
  76.2670837  94.5046608  17.6378674  74.9550837  94.7476608  17.3238674
  74.1830837  93.8446608  18.0158674  74.6150837  91.9896608  19.6088674
  73.5360837  91.8306608  19.6508674  74.9760837  92.1506608  20.6248674
  75.0870837  91.0516608  19.3148674  45.1570837 121.5526608  90.6968674
  45.8190837 120.6876608  91.4278674  47.0260837 121.2936608  91.6848674
  47.0150837 122.5216608  91.0728674  45.8020837 122.6656608  90.4428674
  43.7560837 121.2816608  90.1858674  43.3330837 122.0926608  89.5898674
  43.0730837 121.0726608  91.0088674  43.7270837 120.3706608  89.5888674
 108.4410837 111.9196608  37.3358674 109.3340837 112.7726608  36.8938674
 109.4550837 113.7076608  37.8958674 108.6030837 113.3476608  38.9078674
 107.9600837 112.1936608  38.5258674 108.0010837 110.7126608  36.5338674
 107.2520837 110.0936608  37.0298674 108.8530837 110.0796608  36.2808674
 107.6070837 111.0116608  35.5618674  32.5440837  86.9716608  71.2648674
  32.5010837  86.3156608  72.3998674  31.4340837  85.4566608  72.2698674
  30.8860837  85.6566608  71.0288674  31.6170837  86.6366608  70.3998674
  33.5850837  88.0356608  70.9788674  33.4950837  88.4946608  69.9938674
  34.5930837  87.6316608  71.0768674  33.5510837  88.8266608  71.7288674
 121.6410837  63.2016608  92.1998674 120.7710837  62.2406608  91.9988674
 119.5440837  62.8286608  92.1958674 119.7580837  64.1456608  92.5108674
 121.1160837  64.3636608  92.5078674 123.1360837  62.9836608  92.0838674
 123.7340837  63.8746608  92.2778674 123.4000837  62.6046608  91.0958674
 123.4690837  62.1956608  92.7588674  97.3140837  82.0006608  29.3548674
  96.0740837  81.9856608  29.7818674  95.9260837  80.7626608  30.3938674
  97.1220837  80.0996608  30.2938674  98.0010837  80.9156608  29.6218674
  97.9050837  83.1826608  28.6128674  98.9480837  83.0496608  28.3208674
  97.8300837  84.0936608  29.2058674  97.3260837  83.4096608  27.7178674
  52.4070837 132.1486608  90.3798674  52.9820837 131.1226608  89.7988674
  52.1930837 130.8476608  88.7058674  51.1620837 131.7516608  88.6978674
  51.3200837 132.5796608  89.7848674  52.9570837 132.7846608  91.6398674
  52.3710837 133.6286608  92.0078674  53.9840837 133.1206608  91.4918674
  53.0400837 132.0516608  92.4438674  85.7650837 137.0466608  95.0498674
  85.3960837 135.8736608  94.5928674  84.1410837 135.6696608  95.1178674
  83.8240837 136.7656608  95.8798674  84.8850837 137.6386608  95.8208674
  87.1050837 137.6676608  94.7098674  87.2720837 138.6456608  95.1628674
  87.2290837 137.7646608  93.6308674  87.9250837 137.0116608  95.0038674
  38.9370837  56.1146608  40.8808674  38.4480837  57.2446608  40.4288674
  38.0150837  57.9146608  41.5498674  38.2800837  57.1226608  42.6368674
  38.8730837  55.9686608  42.1828674  39.5300837  55.0616608  39.9668674
  39.8970837  54.1746608  40.4858674  40.3470837  55.4736608  39.3748674
  38.8050837  54.7426608  39.2168674  51.3470837 114.3346608 105.4218674
  51.0180837 113.2116608 104.8278674  51.5860837 112.2246608 105.5988674
  52.2390837 112.8326608 106.6398674  52.0720837 114.1906608 106.5058674
  50.9200837 115.6896608 104.8948674  51.2680837 116.5316608 105.4948674
  49.8350837 115.7536608 104.8148674  51.2620837 115.8356608 103.8708674
 110.0790837  26.9426608  95.2788674 111.2430837  27.3236608  94.8078674
 111.8710837  26.1576608  94.4338674 111.0200837  25.1186608  94.7118674
 109.8730837  25.6476608  95.2548674 109.0550837  27.9256608  95.8078674
 108.1340837  27.4626608  96.1658674 108.7930837  28.6636608  95.0488674
 109.4720837  28.5266608  96.6168674 126.9250837 109.3116608  97.7228674
 127.4080837 109.4066608  98.9388674 127.4790837 110.7576608  99.1858674
 127.0220837 111.4106608  98.0708674 126.6700837 110.4596608  97.1418674
 126.6820837 107.9786608  97.0448674 126.2770837 108.0576608  96.0348674
 126.0070837 107.3576608  97.6348674 127.5980837 107.3896608  96.9998674
  67.2530837  28.8136608 103.1098674  68.1800837  28.2696608 102.3568674
  68.0860837  28.9266608 101.1518674  67.0790837  29.8506608 101.2578674
  66.5570837  29.7606608 102.5268674  67.0080837  28.3796608 104.5398674
  66.2040837  28.9216608 105.0408674  67.9130837  28.4816608 105.1398674
  66.7840837  27.3136608 104.5918674  51.6460837 108.3776608  77.8818674
  52.5140837 107.7026608  78.5978674  53.6970837 108.3896608  78.4568674
  53.4610837 109.4656608  77.6418674  52.1330837 109.4386608  77.2828674
  50.1940837 107.9616608  77.7578674  49.5930837 108.6206608  77.1288674
  49.7210837 107.8996608  78.7378674  50.1110837 106.9476608  77.3668674
 101.0190837  77.7886608  29.8158674 100.3840837  77.6846608  30.9588674
  99.0640837  77.5136608  30.6138674  98.9840837  77.5256608  29.2458674
 100.2550837  77.7036608  28.7518674 102.5190837  77.9906608  29.7328674
 102.9050837  78.0596608  28.7148674 103.0500837  77.1886608  30.2458674
 102.8220837  78.8876608  30.2738674  27.8420837  65.9346608 103.7978674
  27.9950837  65.6096608 105.0598674  26.9660837  66.2446608 105.7148674
  26.2370837  66.9326608 104.7788674  26.8200837  66.7186608 103.5518674
  28.7760837  65.4416608 102.7118674  28.5240837  65.7956608 101.7108674
  28.8090837  64.3516608 102.6898674  29.8070837  65.7256608 102.9238674
  63.8820837  26.3896608 102.7018674  64.7880837  27.3306608 102.5838674
  65.9930837  26.6696608 102.6408674  65.7290837  25.3336608 102.7948674
  64.3630837  25.1756608 102.8318674  62.3960837  26.6836608 102.6898674
  61.7640837  25.8006608 102.7988674  62.1070837  27.1986608 101.7738674
  62.1310837  27.3906608 103.4768674  52.0210837  72.0136608 121.8108674
  53.2380837  71.6716608 122.1618674  53.1690837  70.3196608 122.4008674
  51.8780837  69.9206608 122.1718674  51.1560837  71.0276608 121.7928674
  51.6470837  73.4376608 121.4538674  50.5980837  73.5696608 121.1818674
  52.2610837  73.8096608 120.6328674  51.8750837  74.1186608 122.2738674
  29.9520837  82.1406608 107.3008674  28.9830837  81.3256608 107.6448674
  27.9180837  82.1466608 107.9328674  28.3240837  83.4416608 107.7388674
  29.6370837  83.4136608 107.3318674  31.3260837  81.6466608 106.8988674
  32.0280837  82.4406608 106.6388674  31.2630837  80.9576608 106.0558674
  31.7720837  81.0436608 107.6898674  45.8320837  70.2296608  31.7848674
  44.5480837  69.9886608  31.9008674  44.0070837  71.1676608  32.3578674
  45.0300837  72.0706608  32.4918674  46.1960837  71.4456608  32.1178674
  46.8170837  69.1836608  31.3028674  47.8500837  69.5296608  31.2588674
  46.5390837  68.8106608  30.3168674  46.7820837  68.2946608  31.9338674
  23.9470837 114.1176608  79.5808674  22.7350837 114.2016608  80.0758674
  22.6520837 113.1696608  80.9818674  23.8550837 112.5106608  80.9738674
  24.6730837 113.1386608  80.0648674  24.4650837 115.0796608  78.5308674
  25.4910837 114.8856608  78.2148674  24.4050837 116.1106608  78.8818674
  23.8280837 115.0726608  77.6458674  24.9650837  85.1136608  64.0498674
  25.5710837  83.9826608  64.3218674  26.6600837  83.9546608  63.4828674
  26.6410837  85.1046608  62.7358674  25.5410837  85.8356608  63.1168674
  23.6990837  85.5506608  64.7578674  23.3100837  86.5136608  64.4258674
  23.8520837  85.5986608  65.8368674  22.9100837  84.8066608  64.6428674
 103.5520837  39.8606608  82.2798674 104.3640837  39.3036608  81.4138674
 105.4220837  40.1766608  81.3098674 105.1730837  41.2346608  82.1448674
 103.9630837  41.0106608  82.7588674 102.2410837  39.2226608  82.6938674
 101.6720837  39.8026608  83.4218674 102.4040837  38.2256608  83.1038674
 101.6030837  39.0436608  81.8278674  73.5960837 102.9906608 126.2438674
  74.1770837 103.4446608 127.3288674  74.9570837 102.4026608 127.7738674
  74.7910837 101.3566608 126.9028674  73.9110837 101.7576608 125.9258674
  72.6360837 103.8286608 125.4238674  72.2310837 103.3166608 124.5488674
  73.1100837 104.7516608 125.0888674  71.8010837 104.1746608 126.0328674
 108.3420837  97.1546608  48.3488674 107.3260837  96.8026608  49.1018674
 107.8230837  95.8236608  49.9298674 109.1450837  95.6416608  49.6148674
 109.4570837  96.5086608  48.5948674 108.2310837  98.2226608  47.2798674
 109.1580837  98.4066608  46.7348674 107.8930837  99.1676608  47.7058674
 107.4540837  97.9726608  46.5568674  23.1150837  74.6376608 111.1968674
  23.2660837  75.9236608 111.4088674  21.9860837  76.4176608 111.5018674
  21.1200837  75.3686608 111.3348674  21.8690837  74.2316608 111.1398674
  24.2910837  73.6966608 111.0318674  24.0110837  72.6556608 110.8618674
  24.9480837  73.7346608 111.9008674  24.9340837  74.0156608 110.2098674
  99.7850837 132.2036608  97.3688674  98.6440837 131.6806608  96.9878674
  98.0890837 132.6166608  96.1478674  98.9550837 133.6766608  96.0738674
 100.0400837 133.3896608  96.8688674 100.7310837 131.4926608  98.3148674
 101.6410837 132.0526608  98.5408674 101.0200837 130.5186608  97.9188674
 100.2360837 131.2526608  99.2558674 107.4140837  60.8596608  46.6828674
 107.7270837  62.1326608  46.7388674 106.5870837  62.7566608  47.1878674
 105.6310837  61.7926608  47.3798674 106.1850837  60.5786608  47.0488674
 108.3960837  59.7986608  46.2308674 107.9930837  58.7846608  46.2358674
 109.2960837  59.8116608  46.8468674 108.7680837  60.0126608  45.2278674
  78.4930837  35.3866608 114.3178674  78.1300837  35.9426608 115.4498674
  78.1240837  34.9136608 116.3618674  78.4940837  33.7696608 115.7038674
  78.7270837  34.0976608 114.3888674  78.6310837  36.1756608 113.0318674
  78.9410837  35.5776608 112.1728674  79.3400837  36.9956608 113.1498674
  77.6970837  36.6766608 112.7788674 129.6540837  55.4926608  56.6268674
 129.1290837  55.7066608  57.8098674 129.1150837  54.4726608  58.4188674
 129.6490837  53.5676608  57.5378674 129.9880837  54.2456608  56.3918674
 129.8570837  56.6006608  55.6138674 130.3040837  56.2706608  54.6748674
 130.4770837  57.3976608  56.0258674 128.9150837  57.0986608  55.3868674
  57.8900837  81.6286608  79.9108674  57.2320837  82.7536608  79.7588674
  56.0360837  82.5526608  80.4068674  56.0490837  81.2836608  80.9238674
  57.2520837  80.7066608  80.5918674  59.2780837  81.4146608  79.3428674
  59.6990837  80.4296608  79.5498674  59.9730837  82.1676608  79.7158674
  59.2870837  81.5686608  78.2638674  27.6380837  84.0096608  86.1618674
  28.7230837  83.3636608  85.8058674  29.7550837  84.2316608  86.0768674
  29.2100837  85.3786608  86.5948674  27.8460837  85.2126608  86.6398674
  26.2530837  83.4086608  86.0298674  25.4480837  84.0636608  86.3668674
  26.1810837  82.4696608  86.5788674  26.0490837  83.1196608  84.9978674
  67.9510837  38.1556608 120.8488674  68.4150837  39.3746608 120.9918674
  69.7800837  39.2266608 121.0668674  70.0600837  37.8886608 120.9618674
  68.8680837  37.2186608 120.8218674  66.4710837  37.8576608 120.7248674
  66.2360837  36.7976608 120.6108674  66.0330837  38.3956608 119.8828674
  65.9220837  38.2376608 121.5858674  36.7610837  72.3836608  95.8068674
  36.1590837  73.5116608  95.5138674  37.1740837  74.3786608  95.1828674
  38.3580837  73.6986608  95.3018674  38.0690837  72.4166608  95.7048674
  36.0030837  71.1426608  96.2308674  36.6390837  70.2816608  96.4428674
  35.2760837  70.8506608  95.4738674  35.3920837  71.3396608  97.1128674
  29.8220837 102.7516608 103.5178674  29.5580837 104.0256608 103.3508674
  28.2090837 104.0746608 103.0878674  27.7320837 102.7896608 103.1148674
  28.7880837 101.9546608 103.3938674  31.2150837 102.2436608 103.8318674
  31.2800837 101.1596608 103.9438674  31.6040837 102.7046608 104.7398674
  31.9250837 102.5496608 103.0628674 121.3440837  96.4016608 104.1688674
 120.4580837  95.4726608 103.8988674 121.1540837  94.2886608 103.9708674
 122.4540837  94.5876608 104.2888674 122.5530837  95.9536608 104.4118674
 120.9950837  97.8756608 104.1968674 121.8350837  98.5286608 104.4368674
 120.1950837  98.0736608 104.9108674 120.5750837  98.1956608 103.2438674
  89.5490837  95.6256608 130.0748674  90.8130837  95.3216608 129.8938674
  91.0710837  95.6556608 128.5848674  89.9140837  96.1536608 128.0448674
  88.9470837  96.1246608 129.0218674  88.8430837  95.4146608 131.3988674
  87.7940837  95.7136608 131.3988674  89.3500837  95.9496608 132.2018674
  88.9000837  94.3706608 131.7098674  94.5360837  36.5256608  61.7538674
  93.4460837  37.2566608  61.7618674  93.8560837  38.4976608  62.1878674
  95.2060837  38.4356608  62.4168674  95.6230837  37.1566608  62.1308674
  94.5360837  35.0686608  61.3408674  95.5160837  34.5916608  61.3848674
  94.1430837  34.9476608  60.3318674  93.8470837  34.4886608  61.9558674
  90.8800837 103.4766608 121.9388674  90.6610837 104.7706608 121.9628674
  89.3100837 104.9036608 121.7428674  88.7850837 103.6456608 121.5958674
  89.8140837 102.7426608 121.7258674  92.2580837 102.8806608 122.1408674
  92.2850837 101.7906608 122.0938674  92.6820837 103.1916608 123.0958674
  92.9640837 103.2706608 121.4078674 118.8620837 116.8146608  62.9828674
 117.9610837 117.5386608  63.6028674 118.4350837 117.6686608  64.8878674
 119.6260837 116.9946608  64.9628674 119.8810837 116.4526608  63.7248674
 118.7320837 116.4276608  61.5238674 119.5590837 115.8236608  61.1468674
 118.6390837 117.3106608  60.8928674 117.8040837 115.8846608  61.3448674
  95.8260837  54.3756608 114.2068674  94.5350837  54.4386608 114.4298674
  94.0850837  55.4546608 113.6198674  95.1660837  55.9546608 112.9398674
  96.2760837  55.2446608 113.3328674  96.7250837  53.3756608 114.9048674
  97.7750837  53.4426608 114.6178674  96.3870837  52.3546608 114.7258674
  96.6600837  53.4816608 115.9878674  43.7170837 107.8646608  98.3748674
  44.9030837 107.6126608  97.8748674  45.5000837 108.8446608  97.7428674
  44.6090837 109.7886608  98.1848674  43.4680837 109.1346608  98.5868674
  42.7140837 106.7706608  98.6828674  41.7710837 107.1326608  99.0948674
  43.1320837 106.0416608  99.3768674  42.4940837 106.1816608  97.7928674
  38.4280837  98.0926608  64.0388674  39.4950837  98.6996608  63.5778674
  39.8780837  99.5536608  64.5848674  38.9910837  99.4026608  65.6198674
  38.0660837  98.4576608  65.2458674  37.6730837  97.0516608  63.2368674
  36.8060837  96.6336608  63.7508674  38.3280837  96.2286608  62.9508674
  37.3400837  97.4586608  62.2828674  46.3480837  40.1486608  76.6288674
  47.3140837  39.5756608  77.3068674  47.0750837  38.2256608  77.1898674
  45.9470837  38.0666608  76.4268674  45.4960837  39.3176608  76.0768674
  46.2280837  41.6526608  76.4958674  45.3730837  41.9816608  75.9018674
  47.1310837  42.0796608  76.0588674  46.1660837  42.1276608  77.4748674
  97.1480837  63.0996608  98.4868674  96.5190837  63.8256608  97.5928674
  96.9460837  65.1126608  97.8198674  97.8300837  65.0806608  98.8668674
  97.9450837  63.7746608  99.2808674  96.9650837  61.5996608  98.5918674
  97.5530837  61.1326608  99.3838674  97.2110837  61.1096608  97.6498674
  95.9170837  61.3436608  98.7498674  63.9360837  66.9386608  22.2718674
  64.8650837  66.0256608  22.1218674  65.7310837  66.5516608  21.1918674
  65.2540837  67.7856608  20.8298674  64.0980837  68.0136608  21.5378674
  62.7680837  66.7636608  23.2208674  62.0760837  67.6066608  23.2388674
  63.1150837  66.5856608  24.2388674  62.2020837  65.8626608  22.9808674
 114.0750837  91.7816608  44.1588674 113.9310837  90.7876608  45.0028674
 112.6840837  90.9686608  45.5528674 112.1390837  92.0936608  44.9898674
 113.0520837  92.6006608  44.0948674 115.3260837  91.9666608  43.3248674
 115.3010837  92.8386608  42.6688674 115.5220837  91.0856608  42.7138674
 116.2100837  92.0426608  43.9588674  65.0980837 131.7796608  93.8248674
  65.1450837 130.6816608  94.5418674  64.0420837 129.9586608  94.1548674
  63.3800837 130.6866608  93.1998674  64.0770837 131.8556608  93.0038674
  66.1410837 132.8716608  93.9388674  65.9700837 133.7236608  93.2788674
  67.1390837 132.4806608  93.7378674  66.2110837 133.2406608  94.9618674
 109.1290837 118.1716608  38.4308674 107.8210837 118.1956608  38.3428674
 107.4890837 119.5306608  38.3678674 108.6540837 120.2476608  38.4718674
 109.6970837 119.3516608  38.5108674 109.9210837 116.8806608  38.4388674
 111.0010837 117.0186608  38.5168674 109.7160837 116.2906608  37.5448674
 109.6000837 116.2306608  39.2538674 121.0280837 116.7866608  59.8218674
 121.0550837 118.0966608  59.7498674 121.8650837 118.4896608  60.7898674
 122.2860837 117.3596608  61.4408674 121.7350837 116.2746608  60.8008674
 120.2400837 115.9346608  58.8478674 120.3130837 114.8616608  59.0318674
 120.5520837 116.1256608  57.8208674 119.1850837 116.2106608  58.8518674
  48.3870837  29.5306608  72.5968674  47.1030837  29.2656608  72.5758674
  46.5750837  29.9946608  73.6158674  47.6060837  30.6726608  74.2148674
  48.7630837  30.3586608  73.5418674  49.3590837  28.9256608  71.6038674
  50.3950837  29.2386608  71.7448674  49.0680837  29.1606608  70.5798674
  49.3240837  27.8366608  71.6378674  99.3890837  82.9096608  51.1168674
 100.6830837  82.6986608  51.0988674 100.8170837  81.3306608  51.0428674
  99.5570837  80.7886608  51.0308674  98.6540837  81.8236608  51.0798674
  98.7920837  84.3016608  51.1778674  97.7010837  84.3196608  51.1868674
  99.1370837  84.9106608  50.3418674  99.1500837  84.8416608  52.0548674
  28.8820837  50.0206608  76.5818674  29.6320837  49.1216608  77.1728674
  29.4540837  49.3426608  78.5178674  28.5830837  50.3926608  78.6568674
  28.2280837  50.8136608  77.3968674  28.7820837  50.1336608  75.0738674
  28.1190837  50.9296608  74.7288674  28.4450837  49.1946608  74.6338674
  29.7640837  50.2896608  74.6278674  78.6630837  17.8796608  69.2988674
  79.0680837  16.6746608  68.9748674  79.3360837  16.7426608  67.6278674
  79.0680837  18.0216608  67.2128674  78.6360837  18.7366608  68.3058674
  78.2580837  18.2496608  70.7108674  77.9440837  19.2886608  70.8278674
  79.0700837  18.0576608  71.4128674  77.4530837  17.6076608  71.0678674
 101.2420837 101.0046608  61.8038674 101.2680837 100.0316608  62.6828674
 100.0830837  99.3576608  62.4988674  99.3990837  99.9856608  61.4898674
 100.1630837 101.0436608  61.0578674 102.3710837 102.0056608  61.6638674
 102.2080837 102.7576608  60.8898674 103.3150837 101.5016608  61.4568674
 102.5560837 102.5206608  62.6068674 125.0710837 115.7556608  68.7878674
 123.9900837 116.0996608  68.1278674 123.3000837 114.9246608  67.9418674
 124.0300837 113.9166608  68.5178674 125.1660837 114.4746608  69.0568674
 126.1250837 116.7606608  69.2048674 126.9670837 116.3266608  69.7468674
 125.6910837 117.5476608  69.8228674 126.5160837 117.2976608  68.3408674
 132.0070837 108.7946608  68.0648674 133.3180837 108.7616608  68.0648674
 133.7050837 110.0806608  68.0878674 132.5690837 110.8486608  68.0998674
 131.4870837 109.9986608  68.0848674 131.1610837 107.5376608  68.0428674
 130.0850837 107.7226608  68.0448674 131.3980837 106.8926608  68.8888674
 131.3990837 106.9216608  67.1748674 103.3020837  98.8686608  47.9048674
 104.5740837  98.8036608  48.2208674 104.7910837  97.4826608  48.5388674
 103.6010837  96.8176608  48.3898674 102.6570837  97.7296608  47.9818674
 102.6330837 100.1626608  47.4858674 101.5720837 100.0616608  47.2538674
 103.1320837 100.5966608  46.6188674 102.7430837 100.9266608  48.2548674
 107.7020837  88.0076608  85.2968674 106.6320837  88.7656608  85.2358674
 107.1100837  90.0546608  85.2808674 108.4770837  89.9896608  85.3678674
 108.8360837  88.6626608  85.3768674 107.6290837  86.4946608  85.2748674
 108.6000837  85.9996608  85.3318674 107.1180837  86.1406608  84.3798674
 107.0080837  86.1216608  86.0898674  46.4400837  50.4416608  31.7428674
  46.8840837  50.9866608  30.6348674  48.2530837  50.8866608  30.7168674
  48.5560837  50.2706608  31.9028674  47.3740837  49.9926608  32.5468674
  44.9630837  50.3406608  32.0648674  44.7460837  49.8626608  33.0218674
  44.4290837  49.7986608  31.2838674  44.4940837  51.3246608  32.0608674
  49.4630837  66.6076608  27.4228674  50.1650837  67.6326608  27.8428674
  49.8150837  68.6666608  27.0048674  48.8980837  68.1836608  26.1068674
  48.6860837  66.8556608  26.3948674  49.5450837  65.2426608  28.0768674
  48.9030837  64.4886608  27.6178674  49.2970837  65.3026608  29.1368674
  50.5680837  64.8686608  28.0718674  73.7080837  36.4326608 123.3968674
  74.8490837  36.8096608 122.8698674  74.5130837  37.7946608 121.9698674
  73.1520837  37.9536608 122.0138674  72.6550837  37.0666608 122.9388674
  73.6180837  35.3496608 124.4528674  72.6030837  35.1446608 124.7968674
  74.2280837  35.5986608 125.3208674  74.0510837  34.4166608 124.0928674
  22.2460837  75.6466608  51.0258674  22.8670837  76.7906608  51.1938674
  21.8860837  77.6696608  51.5898674  20.7020837  76.9796608  51.6368674
  20.9580837  75.6796608  51.2698674  22.9650837  74.3886608  50.5838674
  22.3180837  73.5146608  50.4878674  23.7740837  74.1396608  51.2708674
  23.4740837  74.5426608  49.6328674 121.5630837  95.5926608  52.0638674
 122.8020837  95.1616608  52.0668674 122.6980837  93.7906608  52.0248674
 121.3650837  93.4736608  51.9988674 120.6520837  94.6496608  52.0248674
 121.2150837  97.0666608  52.1028674 120.1430837  97.2726608  52.0958674
 121.6700837  97.5986608  51.2668674 121.6490837  97.5476608  52.9798674
  89.9820837  46.3126608 124.3408674  89.9050837  45.7526608 125.5248674
  90.2740837  46.7406608 126.4068674  90.5570837  47.8666608 125.6778674
  90.3630837  47.5676608 124.3508674  89.6550837  45.5656608 123.0638674
  89.7650837  46.1616608 122.1568674  88.6400837  45.1696608 123.0918674
  90.2760837  44.6746608 122.9628674  98.9650837  29.7856608 106.5508674
  99.8790837  30.7066608 106.7418674 100.9480837  30.0356608 107.2868674
 100.6010837  28.7136608 107.3938674  99.3200837  28.5756608 106.9138674
  97.6060837  30.0976608 105.9578674  96.9510837  29.2296608 105.8598674
  97.7050837  30.5616608 104.9768674  97.0860837  30.8516608 106.5478674
  57.3020837  40.2806608  95.9868674  56.4520837  41.0266608  96.6508674
  56.7240837  42.3136608  96.2508674  57.7510837  42.2606608  95.3438674
  58.1070837  40.9426608  95.1888674  57.3490837  38.7736608  96.1308674
  58.1080837  38.2886608  95.5148674  56.3820837  38.3286608  95.8928674
  57.5170837  38.4856608  97.1688674 110.5840837  37.0766608  59.0688674
 111.7470837  36.6206608  59.4698674 112.6720837  37.4646608  58.9028674
 111.9890837  38.4036608  58.1728674 110.6460837  38.1336608  58.2948674
 109.2740837  36.4296608  59.4688674 108.3900837  36.9206608  59.0578674
 109.1710837  36.3946608  60.5538674 109.2500837  35.3806608  59.1748674
 103.3030837  77.6026608  93.2708674 102.8000837  77.8716608  92.0888674
 103.8470837  78.4006608  91.3708674 104.9470837  78.4186608  92.1898674
 104.5730837  77.9006608  93.4068674 102.4780837  76.9966608  94.3878674
 103.0330837  76.8306608  95.3128674 102.0390837  76.0486608  94.0788674
 101.6130837  77.6196608  94.6158674  87.7530837  73.3166608  26.5938674
  88.9590837  73.0086608  27.0078674  88.8650837  71.7026608  27.4278674
  87.5710837  71.2946608  27.2348674  86.8730837  72.3496608  26.6968674
  87.4070837  74.6836608  26.0398674  86.3650837  74.7916608  25.7348674
  88.0390837  74.9306608  25.1858674  87.6340837  75.4676608  26.7628674
  77.1190837  50.6726608 110.9788674  76.3930837  51.7336608 110.7138674
  75.0910837  51.3016608 110.8028674  75.1140837  49.9686608 111.1248674
  76.4300837  49.5856608 111.2328674  78.6330837  50.7036608 110.9888674
  79.0990837  49.7456608 111.2258674  79.0040837  51.4466608 111.6948674
  79.0230837  51.0446608 110.0288674  50.1640837  93.7646608 105.2148674
  51.2880837  94.2536608 104.7468674  50.9240837  94.9646608 103.6268674
  49.5650837  94.8546608 103.4868674  49.0960837  94.0776608 104.5198674
  50.1070837  92.9036608 106.4598674  49.1030837  92.5696608 106.7268674
  50.5300837  93.4286608 107.3168674  50.7430837  92.0246608 106.3568674
  17.7940837  86.3846608  65.7648674  18.7360837  85.5866608  65.3218674
  18.1300837  84.8336608  64.3438674  16.8220837  85.2376608  64.2578674
  16.6290837  86.2376608  65.1818674  18.0370837  87.3976608  66.8658674
  17.1600837  87.9906608  67.1278674  18.8430837  88.0816608  66.5968674
  18.4030837  86.9116608  67.7698674  56.3970837  41.1536608  81.3468674
  57.0670837  42.2776608  81.4428674  56.4830837  43.1166608  80.5228674
  55.4690837  42.4246608  79.9128674  55.4320837  41.1636608  80.4578674
  56.7170837  39.9406608  82.1958674  56.0750837  39.0796608  82.0038674
  56.6570837  40.1806608  83.2578674  57.7530837  39.6306608  82.0608674
 113.8580837  46.6716608  48.9298674 113.7620837  45.3886608  48.6718674
 113.9170837  45.2906608  47.3088674 114.1030837  46.5576608  46.8178674
 114.0610837  47.4306608  47.8788674 113.7440837  47.2296608  50.3338674
 113.8450837  48.3146608  50.3928674 114.4870837  46.7816608  50.9938674
 112.7940837  46.9506608  50.7888674  33.8080837  99.1696608  94.2858674
  34.0490837  98.6686608  93.0978674  35.3540837  99.0096608  92.8298674
  35.8310837  99.7136608  93.9048674  34.8180837  99.8046608  94.8308674
  32.4660837  99.0226608  94.9738674  32.4150837  99.4916608  95.9578674
  32.1940837  97.9726608  95.0808674  31.6650837  99.4336608  94.3588674
 120.2440837 110.8636608  63.5288674 121.3700837 111.4486608  63.8628674
 122.1300837 111.4336608  62.7158674 121.3920837 110.8226608  61.7348674
 120.1820837 110.4636608  62.2808674 119.1070837 110.6666608  64.5098674
 118.2350837 110.1646608  64.0878674 118.7830837 111.6196608  64.9278674
 119.4370837 110.1016608  65.3818674  43.4040837  76.7926608 120.3818674
  43.7150837  77.8666608 121.0678674  44.3960837  78.6666608 120.1808674
  44.4550837  78.0046608 118.9818674  43.8090837  76.8006608 119.1348674
  42.6360837  75.6346608 120.9868674  42.4510837  74.8116608 120.2948674
  41.6770837  75.9676608 121.3848674  43.1530837  75.2366608 121.8598674
  88.9080837  99.7916608  19.9878674  88.4320837 100.6996608  19.1698674
  88.7960837 100.2706608  17.9158674  89.4890837  99.0956608  18.0608674
  89.5480837  98.8066608  19.4038674  88.7300837  99.8756608  21.4908674
  89.1800837  99.0486608  22.0408674  87.6740837  99.9276608  21.7568674
  89.1390837 100.8076608  21.8808674  34.3920837 121.5016608  71.1468674
  35.1420837 122.5776608  71.1478674  35.6280837 122.6696608  69.8648674
  35.1250837 121.6136608  69.1508674  34.3310837 120.8736608  69.9958674
  33.6530837 121.0226608  72.3798674  33.0690837 120.1136608  72.2268674
  32.9860837 121.7966608  72.7608674  34.3430837 120.8496608  73.2058674
 102.0480837  31.7986608  78.3858674 103.2220837  31.8726608  77.8038674
 103.0020837  32.5946608  76.6548674 101.6700837  32.9206608  76.6158674
 101.0760837  32.3976608  77.7398674 101.8350837  31.0766608  79.7008674
 100.8050837  31.0996608  80.0608674 102.4780837  31.4866608  80.4798674
 102.1480837  30.0346608  79.6298674  82.6990837  32.3176608  86.5698674
  83.3100837  33.4786608  86.5878674  84.6500837  33.1716608  86.6108674
  84.7660837  31.8056608  86.6048674  83.4970837  31.2766608  86.5788674
  81.1890837  32.1926608  86.5418674  80.8260837  31.1636608  86.5288674
  80.7700837  32.7126608  85.6798674  80.7390837  32.7016608  87.3938674
 106.2310837  71.2216608  53.2268674 107.0890837  72.1276608  52.8188674
 108.3080837  71.6946608  53.2868674 108.1020837  70.5216608  53.9658674
 106.7580837  70.2366608  53.9148674 104.7490837  71.3106608  52.9248674
 104.1610837  70.4846608  53.3298674 104.5720837  71.3616608  51.8508674
 104.3290837  72.2436608  53.2998674  94.6990837  27.0516608  97.7448674
  94.6930837  26.6756608  99.0018674  95.8690837  27.1626608  99.5218674
  96.5280837  27.8216608  98.5158674  95.7560837  27.7366608  97.3818674
  93.5700837  26.7186608  96.7908674  93.7150837  27.0986608  95.7778674
  92.6180837  27.0976608  97.1638674  93.4130837  25.6416608  96.7318674
  67.5400837  61.7586608  35.6518674  66.2430837  61.5756608  35.5828674
  66.0840837  60.2136608  35.4788674  67.3310837  59.6446608  35.4918674
  68.2540837  60.6586608  35.6038674  68.1630837  63.1336608  35.7758674
  69.2530837  63.1286608  35.8228674  67.7870837  63.6546608  36.6568674
  67.8600837  63.7766608  34.9488674  75.7860837 124.9696608 112.2378674
  76.8550837 125.2486608 112.9458674  77.9120837 124.8546608 112.1608674
  77.3990837 124.3466608 110.9948674  76.0290837 124.4306608 111.0668674
  74.3830837 125.2476608 112.7368674  73.5950837 124.9616608 112.0378674
  74.2570837 126.3026608 112.9798674  74.1980837 124.7416608 113.6848674
 100.5790837 102.8816608  64.2258674 100.0610837 102.2036608  63.2298674
  99.3440837 103.1296608  62.5078674  99.4800837 104.3416608  63.1338674
 100.2790837 104.1586608  64.2378674 101.4550837 102.2366608  65.2808674
 101.8130837 102.9256608  66.0468674 102.3200837 101.7516608  64.8268674
 100.9330837 101.4176608  65.7748674  55.9530837 134.2706608 100.4408674
  57.0820837 133.8466608  99.9268674  56.7300837 132.7796608  99.1338674
  55.3710837 132.6246608  99.2218674  54.8910837 133.5956608 100.0698674
  55.8820837 135.4496608 101.3898674  54.8750837 135.6866608 101.7348674
  56.3050837 136.3446608 100.9328674  56.5130837 135.2856608 102.2648674
  94.2920837 125.7256608  37.4178674  95.5420837 125.9196608  37.7638674
  95.6400837 127.2726608  37.9928674  94.4050837 127.8236608  37.7638674
  93.5530837 126.8096608  37.3948674  93.7460837 124.3556608  37.0718674
  92.6890837 124.3496608  36.8038674  93.8920837 123.6576608  37.8968674
  94.3080837 123.9056608  36.2528674  86.0800837  55.3206608 101.6738674
  84.8950837  55.8536608 101.8568674  84.0290837  54.7866608 101.8948674
  84.7680837  53.6436608 101.7278674  86.0850837  54.0116608 101.5868674
  87.3410837  56.1536608 101.5708674  88.2510837  55.5706608 101.4178674
  87.4760837  56.7696608 102.4598674  87.2630837  56.8816608 100.7628674
  96.1720837  61.6586608  28.8888674  95.2950837  60.9916608  29.5998674
  94.3630837  61.9296608  29.9808674  94.7500837  63.1366608  29.4598674
  95.9170837  62.9386608  28.7598674  97.3850837  60.9976608  28.2658674
  98.0250837  61.6796608  27.7028674  97.0900837  60.1826608  27.6048674
  97.9950837  60.5056608  29.0238674  84.7350837  23.2056608  99.9648674
  86.0370837  23.3286608  99.8628674  86.3110837  24.5886608 100.3398674
  85.1220837  25.1626608 100.7098674  84.1210837  24.2546608 100.4598674
  84.0000837  21.9496608  99.5428674  82.9190837  21.9946608  99.6878674
  84.3790837  21.0776608 100.0758674  84.1950837  21.7166608  98.4958674
  77.7700837  23.3796608 109.7808674  77.3120837  24.1256608 108.8048674
  76.5000837  23.2906608 108.0728674  76.5200837  22.0586608 108.6728674
  77.3440837  22.1386608 109.7708674  78.7170837  23.9116608 110.8378674
  79.0120837  23.1746608 111.5858674  78.2830837  24.7676608 111.3548674
  79.6210837  24.3166608 110.3828674 121.4460837 118.4746608  74.0508674
 122.2420837 119.5156608  73.9818674 121.4030837 120.6046608  74.0338674
 120.1180837 120.1366608  74.1338674 120.1700837 118.7626608  74.1428674
 121.9650837 117.0506608  74.0268674 121.1850837 116.2906608  74.0918674
 122.6760837 116.8806608  74.8348674 122.5490837 116.8636608  73.1258674
 124.6980837  88.2606608  80.8188674 125.0200837  89.4456608  81.2798674
 126.3060837  89.3046608  81.7468674 126.6880837  88.0056608  81.5308674
 125.6380837  87.3516608  80.9318674 123.3450837  87.9666608  80.2028674
 123.2220837  86.9376608  79.8628674 123.1470837  88.6296608  79.3598674
 122.5400837  88.1936608  80.9018674  55.5400837  62.2956608 121.7508674
  56.6720837  61.6346608 121.7048674  57.6210837  62.5816608 121.3998674
  56.9820837  63.7886608 121.2778674  55.6430837  63.5806608 121.5078674
  54.2180837  61.6236608 122.0618674  53.3620837  62.3006608 122.0648674
  54.2550837  61.1156608 123.0258674  54.0130837  60.8186608 121.3548674
  69.2730837 103.5576608 133.2888674  70.2280837 102.8356608 133.8258674
  70.3960837 103.3556608 135.0878674  69.5060837 104.3876608 135.2368674
  68.7930837 104.4996608 134.0658674  68.7650837 103.3196608 131.8818674
  67.9680837 103.9976608 131.5728674  68.4070837 102.2966608 131.7638674
  69.5760837 103.3926608 131.1568674 122.5190837  82.1026608 106.5138674
 123.1230837  83.2526608 106.3288674 122.1470837  84.2006608 106.5298674
 120.9830837  83.5426608 106.8328674 121.2460837  82.1936608 106.8158674
 123.2380837  80.7756608 106.3868674 122.6060837  79.9056608 106.5688674
 124.0900837  80.7266608 107.0658674 123.6900837  80.6686608 105.3998674
  88.6770837 119.4916608 103.0348674  89.5630837 119.8826608 102.1498674
  89.5940837 121.2526608 102.2638674  88.6980837 121.6116608 103.2378674
  88.1190837 120.4616608 103.7198674  88.3270837 118.0326608 103.2458674
  87.5730837 117.8606608 104.0158674  89.2130837 117.4516608 103.5008674
  87.9780837 117.5766608 102.3188674  27.7000837  82.1046608 101.4268674
  27.8780837  81.8606608 102.7038674  26.7100837  81.2626608 103.1158674
  25.8780837  81.1816608 102.0288674  26.5350837  81.7296608 100.9528674
  28.7580837  82.7676608 100.5688674  28.4660837  82.9046608  99.5268674
  29.6900837  82.2016608 100.5908674  29.0380837  83.7396608 100.9758674
  46.3070837  92.8936608  88.5238674  46.4490837  92.5186608  89.7728674
  46.1850837  93.6476608  90.5118674  45.8910837  94.6606608  89.6358674
  45.9760837  94.1526608  88.3608674  46.5100837  91.9426608  87.3608674
  46.3560837  92.3976608  86.3808674  45.8500837  91.0786608  87.4428674
  47.5090837  91.5076608  87.3828674 113.0700837  29.4096608  62.1288674
 114.2480837  29.9416608  61.9028674 114.0790837  31.2866608  62.1388674
 112.7720837  31.4846608  62.5028674 112.1410837  30.2626608  62.4888674
 112.8070837  27.9246608  61.9828674 111.7800837  27.6296608  62.2038674
 113.4730837  27.3456608  62.6228674 113.0520837  27.5816608  60.9778674
  97.6960837 102.2486608 126.0268674  98.8500837 101.7486608 125.6518674
  99.6260837 102.8426608 125.3488674  98.8700837 103.9646608 125.5658674
  97.6300837 103.5586608 126.0018674  96.5320837 101.3776608 126.4538674
  95.6380837 101.9356608 126.7388674  96.8120837 100.7336608 127.2878674
  96.2600837 100.6756608 125.6658674 117.7220837 101.4056608  94.4388674
 117.7650837 102.7166608  94.4228674 116.4470837 103.1126608  94.4258674
 115.6720837 101.9816608  94.4438674 116.5140837 100.8946608  94.4518674
 118.9730837 100.5506608  94.4418674 118.7810837  99.4776608  94.4558674
 119.6110837 100.7946608  95.2918674 119.6000837 100.7736608  93.5788674
  95.6990837 134.4246608  86.9858674  95.1580837 133.2416608  87.1578674
  96.2240837 132.3826608  87.2898674  97.3730837 133.1226608  87.1858674
  97.0110837 134.4356608  86.9908674  94.8710837 135.6786608  86.7968674
  95.4600837 136.5886608  86.6658674  94.1930837 135.8296608  87.6378674
  94.2020837 135.5806608  85.9418674  85.2110837  41.0146608 105.3408674
  84.8330837  39.9936608 106.0728674  84.7250837  40.4966608 107.3488674
  85.0550837  41.8266608 107.3028674  85.3640837  42.1376608 105.9998674
  85.4510837  40.9006608 103.8488674  85.7620837  41.8326608 103.3738674
  84.5610837  40.5366608 103.3368674  86.2020837  40.1396608 103.6308674
 117.7830837 110.2056608  56.0218674 118.7540837 109.3706608  56.3038674
 118.1240837 108.1856608  56.6058674 116.7730837 108.3886608  56.4838674
 116.5770837 109.6966608  56.1068674 118.0370837 111.6466608  55.6298674
 117.1320837 112.2206608  55.4248674 118.6840837 111.7046608  54.7538674
 118.6040837 112.1676608  56.4018674  29.9650837 101.3416608  76.7438674
  30.8780837 100.6836608  76.0698674  30.1750837  99.7556608  75.3378674
  28.8440837  99.9186608  75.6248674  28.7330837 100.9456608  76.5318674
  30.3110837 102.4726608  77.6908674  29.4470837 102.9256608  78.1808674
  30.8620837 103.2596608  77.1758674  31.0030837 102.1366608  78.4638674
  83.5260837  24.9716608  62.4418674  83.5450837  23.7496608  61.9638674
  83.3200837  23.8956608  60.6148674  83.1750837  25.2346608  60.3578674
  83.3110837  25.9086608  61.5488674  83.7350837  25.2736608  63.9118674
  83.6920837  26.3356608  64.1598674  84.6910837  24.8816608  64.2588674
  83.0030837  24.7496608  64.5268674  92.9730837 115.2066608 116.3698674
  92.7250837 114.5846608 117.4978674  91.8890837 115.4296608 118.1898674
  91.6810837 116.5396608 117.4128674  92.3890837 116.3746608 116.2458674
  93.8670837 114.6196608 115.2968674  93.9800837 115.2516608 114.4148674
  93.5000837 113.6456608 114.9728674  94.8600837 114.4026608 115.6908674
 115.9550837  64.9806608  55.0058674 116.0990837  64.2456608  56.0818674
 117.3780837  63.7466608  55.9998674 117.9400837  64.2266608  54.8448674
 117.0050837  65.0186608  54.2208674 114.6730837  65.7266608  54.6948674
 114.7020837  66.2956608  53.7648674 114.4120837  66.4086608  55.5048674
 113.8240837  65.0436608  54.6508674  83.7560837  30.3316608  64.9188674
  84.8830837  29.8196608  64.4878674  84.7700837  28.4686608  64.7238674
  83.5460837  28.2466608  65.2998674  82.9100837  29.4606608  65.4158674
  83.4560837  31.8156608  64.8488674  82.4780837  32.0936608  65.2448674
  83.5240837  32.1786608  63.8228674  84.2150837  32.3926608  65.3768674
  52.6340837 134.6206608  87.6588674  53.6340837 135.4396608  87.4348674
  54.4860837 135.2576608  88.4988674  53.9290837 134.3126608  89.3218674
  52.7370837 133.9166608  88.7618674  51.4540837 134.4996608  86.7168674
  50.7010837 133.7776608  87.0348674  51.7820837 134.2296608  85.7128674
  50.9650837 135.4636608  86.5768674  85.9760837  82.7086608 122.9738674
  84.7490837  82.8896608 122.5448674  84.6640837  84.2356608 122.2758674
  85.8810837  84.7966608 122.5678674  86.7100837  83.7956608 123.0148674
  86.5010837  81.3486608 123.3868674  87.5400837  81.3546608 123.7218674
  86.4090837  80.6296608 122.5728674  85.8900837  80.9186608 124.1808674
 101.0600837  89.1696608  34.0488674 100.8650837  90.4026608  33.6448674
 102.1230837  90.9546608  33.5768674 103.0220837  89.9906608  33.9548674
 102.3150837  88.8496608  34.2548674  99.9200837  88.1936608  34.2598674
 100.2360837  87.2046608  34.5978674  99.3360837  88.0716608  33.3478674
  99.1990837  88.5846608  34.9778674  70.5280837  93.0376608 124.2378674
  69.5120837  93.3116608 125.0198674  69.8940837  94.4336608 125.7168674
  71.1540837  94.7756608 125.2968674  71.5420837  93.8626608 124.3448674
  70.5280837  91.8596608 123.2848674  71.4430837  91.7586608 122.6988674
  69.6850837  91.9146608 122.5958674  70.3610837  90.9246608 123.8208674
  31.4870837  72.4046608  49.5158674  32.3710837  71.4476608  49.3608674
  33.5770837  72.0976608  49.2378674  33.3360837  73.4436608  49.3298674
  31.9840837  73.6186608  49.5088674  30.0080837  72.1266608  49.6898674
  29.3960837  73.0216608  49.8078674  29.8310837  71.4766608  50.5468674
  29.6170837  71.5536608  48.8488674 103.6550837  74.2966608  42.7998674
 102.6690837  73.4726608  43.0648674 102.5100837  72.7316608  41.9168674
 103.4380837  73.1686608  41.0068674 104.1640837  74.1766608  41.5958674
 104.1650837  75.3066608  43.8068674 104.9890837  75.9236608  43.4438674
 104.4860837  74.8156608  44.7258674 103.3630837  75.9686608  44.1358674
 116.8090837 109.8436608  52.2498674 117.7580837 109.9936608  53.1428674
 117.7810837 108.8056608  53.8358674 116.8170837 107.9906608  53.2998674
 116.2040837 108.6796608  52.2798674 116.4430837 110.9316608  51.2608674
 115.6350837 110.6616608  50.5788674 117.3080837 111.2246608  50.6648674
 116.1620837 111.8496608  51.7768674 100.6710837  57.1826608  34.6538674
 101.2890837  56.1486608  34.1348674 102.5890837  56.2596608  34.5678674
 102.6760837  57.3876608  35.3428674 101.4290837  57.9656608  35.3838674
  99.1970837  57.4496608  34.4248674  98.8240837  58.3476608  34.9198674
  98.5920837  56.6036608  34.7508674  98.9760837  57.5296608  33.3598674
  23.8350837  58.4546608  79.6128674  24.0410837  57.5496608  78.6868674
  24.0480837  58.2506608  77.5028674  23.8400837  59.5726608  77.8008674
  23.7050837  59.6806608  79.1648674  23.7530837  58.1086608  81.0858674
  23.5780837  58.9656608  81.7378674  24.6610837  57.6066608  81.4198674
  22.9700837  57.3736608  81.2708674 115.1210837  58.9676608  55.0738674
 113.9180837  59.4836608  55.1578674 113.1490837  58.7286608  54.3038674
 113.9600837  57.7766608  53.7428674 115.2260837  57.9496608  54.2528674
 116.2960837  59.5066608  55.8638674 117.2330837  58.9746608  55.6898674
 116.0870837  59.4896608  56.9338674 116.4580837  60.5626608  55.6498674
 103.5030837  55.2126608 108.9788674 102.4430837  55.7336608 109.5488674
 101.6230837  56.0956608 108.5058674 102.2600837  55.7596608 107.3388674
 103.4680837  55.1916608 107.6678674 104.6750837  54.6756608 109.7758674
 105.4840837  54.2726608 109.1638674 104.3520837  53.8986608 110.4698674
 105.0900837  55.4456608 110.4258674 105.6340837  50.7896608  80.3368674
 105.9170837  50.7246608  81.6168674 106.8440837  51.7196608  81.8238674
 107.0670837  52.3376608  80.6208674 106.2780837  51.7226608  79.6778674
 104.6400837  49.8566608  79.6748674 104.5080837  50.0296608  78.6058674
 103.6630837  49.9226608  80.1548674 104.9270837  48.8146608  79.8188674
  53.0230837  88.1926608  27.1488674  52.1540837  89.1746608  27.1078674
  52.9160837  90.3186608  27.0648674  54.2350837  89.9426608  27.0838674
  54.2800837  88.5696608  27.1388674  52.6050837  86.7376608  27.2048674
  53.4380837  86.0336608  27.2348674  51.9720837  86.4796608  26.3548674
  51.9660837  86.5476608  28.0678674 119.4340837  91.8216608  55.6658674
 120.1420837  90.7466608  55.9208674 120.6860837  90.3866608  54.7098674
 120.2580837  91.2926608  53.7748674 119.4540837  92.2076608  54.4118674
 118.6560837  92.5566608  56.7378674 118.1150837  93.4326608  56.3758674
 119.3110837  92.8716608  57.5498674 117.9420837  91.8936608  57.2258674
 132.4550837 104.2926608  76.1068674 132.9070837 103.0846608  76.3468674
 131.8030837 102.2696608  76.2528674 130.7240837 103.0616608  75.9538674
 131.1670837 104.3596608  75.8648674 133.3520837 105.5136608  76.1108674
 132.8350837 106.4496608  75.8948674 134.1670837 105.4016608  75.3948674
 133.8640837 105.6196608  77.0678674  88.8460837  27.4666608  98.2958674
  87.7850837  27.0636608  98.9548674  88.2190837  26.8896608 100.2488674
  89.5520837  27.2086608 100.2878674  89.9340837  27.5766608  99.0198674
  88.8130837  27.7786608  96.8138674  89.7710837  28.1026608  96.4038674
  88.0700837  28.5466608  96.5928674  88.4700837  26.9176608  96.2398674
 112.7060837  87.7766608  75.3678674 111.7370837  88.6446608  75.1968674
 111.0170837  88.6056608  76.3678674 111.6140837  87.6896608  77.1938674
 112.6990837  87.1676608  76.5298674 113.7480837  87.4996608  74.3038674
 114.4910837  86.7526608  74.5898674 114.2740837  88.4126608  74.0248674
 113.2810837  87.1776608  73.3738674  90.2610837 126.8146608  81.3918674
  90.8280837 125.7836608  80.8118674  89.9330837 124.7516608  80.9708674
  88.8520837 125.2406608  81.6578674  89.0840837 126.5696608  81.9188674
  90.9160837 128.1796608  81.4488674  90.3250837 128.9376608  81.9638674
  91.1430837 128.5456608  80.4468674  91.8930837 128.1236608  81.9288674
 137.6750837  71.5436608  73.3728674 137.8230837  72.5936608  72.5998674
 138.4400837  72.1136608  71.4678674 138.6290837  70.7666608  71.6348674
 138.1290837  70.4206608  72.8678674 137.0280837  71.6246608  74.7408674
 136.9750837  70.6706608  75.2668674 136.0200837  72.0336608  74.6718674
 137.5520837  72.3366608  75.3788674  58.0570837 107.4726608  87.3928674
  57.5850837 106.2546608  87.5088674  56.4190837 106.2566608  86.7808674
  56.2570837 107.5126608  86.2558674  57.3230837 108.2796608  86.6628674
  59.3490837 107.9126608  88.0518674  59.6130837 108.9546608  87.8658674
  60.1820837 107.2866608  87.7318674  59.3090837 107.7576608  89.1298674
  51.3120837 109.3916608 101.1658674  51.1290837 108.1046608 101.3448674
  49.7820837 107.9696608 101.5878674  49.2220837 109.2206608 101.5388674
  50.2250837 110.1196608 101.2658674  52.6720837 109.9866608 100.8668674
  52.6680837 111.0706608 100.7428674  53.1050837 109.5426608  99.9698674
  53.3890837 109.7356608 101.6488674 127.5680837  74.7416608  80.2018674
 128.2380837  73.7096608  79.7478674 129.3010837  74.2506608  79.0638674
 129.2020837  75.6156608  79.1518674 128.0790837  75.9096608  79.8888674
 126.3040837  74.5946608  81.0238674 125.8580837  75.5426608  81.3308674
 126.4860837  73.9976608  81.9178674 125.5500837  74.0226608  80.4818674
  50.3360837  86.9766608  89.3558674  50.3900837  87.2316608  90.6408674
  51.5510837  86.6336608  91.0718674  52.1400837  86.0376608  89.9868674
  51.3410837  86.2716608  88.8928674  49.2010837  87.4596608  88.4768674
  49.2930837  87.1706608  87.4288674  49.1050837  88.5446608  88.5238674
  48.2400837  87.1016608  88.8468674 123.5440837 100.5976608  46.6668674
 122.8920837 100.1226608  47.7008674 121.6860837  99.6986608  47.1928674
 121.6890837  99.9506608  45.8458674 122.8950837 100.5296608  45.5288674
 124.9390837 101.1776608  46.7798674 125.3540837 101.5326608  45.8358674
 125.6320837 100.4496608  47.2048674 124.9630837 102.0016608  47.4938674
  65.5170837 126.5476608  49.5098674  64.4150837 126.0916608  48.9618674
  63.7090837 127.2166608  48.6038674  64.4510837 128.3096608  48.9698674
  65.6110837 127.8546608  49.5508674  66.5950837 125.6306608  50.0528674
  67.4530837 126.1536608  50.4788674  66.9580837 124.9536608  49.2798674
  66.1920837 124.9606608  50.8128674  62.7340837  89.2966608  17.7618674
  62.5160837  89.8086608  18.9498674  63.4310837  89.1926608  19.7728674
  64.1630837  88.3236608  19.0048674  63.6970837  88.4076608  17.7138674
  61.9340837  89.7036608  16.5418674  62.2290837  89.1936608  15.6228674
  62.0010837  90.7786608  16.3708674  60.8680837  89.5346608  16.6988674
  59.4080837 134.4166608 101.8818674  60.4280837 135.2266608 102.0408674
  60.8930837 135.4626608 100.7678674  60.1010837 134.7596608  99.8978674
  59.1510837 134.0936608 100.6368674  58.5930837 133.8966608 103.0478674
  57.7760837 133.2326608 102.7608674  58.1750837 134.7186608 103.6298674
  59.2250837 133.3706608 103.7628674  28.5440837  40.4016608  71.0148674
  28.6520837  39.2746608  71.6778674  28.0000837  39.5016608  72.8678674
  27.5270837  40.7876608  72.8458674  27.8890837  41.3486608  71.6438674
  29.1320837  40.5916608  69.6318674  28.9620837  41.5816608  69.2058674
  28.7400837  39.8496608  68.9358674  30.2050837  40.4006608  69.6338674
 109.7730837  63.9406608  43.2748674 109.9700837  62.6506608  43.1388674
 109.7220837  62.3936608  41.8108674 109.3820837  63.5786608  41.2128674
 109.4210837  64.5616608  42.1738674 109.9410837  64.6546608  44.6008674
 109.7430837  65.7266608  44.5588674 110.9450837  64.5086608  44.9988674
 109.2950837  64.2186608  45.3628674  72.0390837 107.4686608  44.5878674
  72.6350837 108.5316608  45.0728674  71.8080837 108.9716608  46.0798674
  70.7350837 108.1206608  46.1398674  70.9040837 107.1606608  45.1698674
  72.6180837 106.6616608  43.4438674  72.0100837 105.8046608  43.1488674
  73.6190837 106.3026608  43.6868674  72.7760837 107.2866608  42.5648674
 106.0020837 102.5346608 124.2108674 105.7200837 103.0736608 125.3728674
 104.4250837 102.6896608 125.6358674 103.9970837 101.9216608 124.5838674
 105.0280837 101.8356608 123.6778674 107.3480837 102.7096608 123.5378674
 107.4360837 102.2036608 122.5748674 108.1550837 102.3586608 124.1818674
 107.5770837 103.7646608 123.3908674  87.5230837  31.1536608  74.6268674
  87.2030837  32.4046608  74.8578674  85.8800837  32.3666608  75.2318674
  85.4750837  31.0566608  75.2018674  86.5490837  30.2936608  74.8098674
  88.9110837  30.7376608  74.1828674  89.0280837  29.6636608  74.0298674
  89.6640837  31.0636608  74.8998674  89.1950837  31.2456608  73.2618674
 135.5800837  57.2296608  84.9878674 134.5550837  58.0356608  84.8418674
 133.7640837  57.4326608  83.8928674 134.3800837  56.2676608  83.5148674
 135.5470837  56.1566608  84.2328674 136.7110837  57.5176608  85.9528674
 137.4930837  56.7566608  85.9648674 136.3360837  57.6366608  86.9698674
 137.1750837  58.4796608  85.7358674 109.3680837  44.1936608  93.7668674
 110.5220837  44.7736608  93.9988674 110.2160837  45.8736608  94.7668674
 108.8580837  45.8866608  94.9538674 108.3330837  44.7956608  94.3018674
 109.2450837  42.9266608  92.9458674 108.2220837  42.5616608  92.8378674
 109.8500837  42.1256608  93.3698674 109.6640837  43.0656608  91.9488674
  70.2460837  68.7276608 135.8338674  70.9800837  67.7216608 136.2468674
  70.2170837  67.0976608 137.2058674  69.0370837  67.7866608 137.3128674
  69.0770837  68.8316608 136.4208674  70.7140837  69.6906608 134.7628674
  69.9950837  70.4766608 134.5228674  70.9600837  69.1616608 133.8418674
  71.6540837  70.1636608 135.0458674 127.3340837 102.3266608  77.6018674
 128.1700837 102.9546608  78.3938674 129.4190837 102.5656608  77.9688674
 129.2510837 101.7026608  76.9168674 127.9010837 101.5636608  76.6978674
 125.8310837 102.4736608  77.7238674 125.2640837 101.8896608  76.9958674
 125.5310837 103.5176608  77.6308674 125.4910837 102.1956608  78.7218674
 135.5800837  84.4636608  77.6508674 135.9760837  85.7056608  77.7988674
 137.1430837  85.6216608  78.5208674 137.3840837  84.2946608  78.7698674
 136.3650837  83.5676608  78.2008674 134.3150837  84.0956608  76.9028674
 134.1160837  83.0236608  76.8628674 134.3400837  84.4766608  75.8818674
 133.4460837  84.5876608  77.3398674 104.5870837 119.9206608  61.3698674
 105.6340837 119.1296608  61.3678674 105.1140837 117.8566608  61.3718674
 103.7470837 117.9636608  61.3768674 103.4300837 119.3016608  61.3758674
 104.7070837 121.4306608  61.3668674 103.7500837 121.9556608  61.3698674
 105.2820837 121.7746608  60.5068674 105.2890837 121.7776608  62.2208674
  59.8390837  69.6676608 122.1568674  59.2160837  70.1866608 121.1248674
  59.8380837  69.6416608 120.0258674  60.8250837  68.8036608 120.4778674
  60.8080837  68.8366608 121.8528674  59.4670837  70.0036608 123.5858674
  60.0740837  69.4956608 124.3368674  58.4190837  69.7746608 123.7818674
  59.5330837  71.0776608 123.7648674  61.6060837  43.5556608  40.9048674
  61.2240837  42.6106608  40.0798674  61.9200837  41.4926608  40.4778674
  62.7000837  41.8456608  41.5478674  62.4820837  43.1786608  41.8048674
  61.0760837  44.9726608  40.8208674  61.4850837  45.6486608  41.5728674
  59.9890837  44.9886608  40.9038674  61.2640837  45.4026608  39.8368674
  87.3590837  38.4496608 124.0668674  86.3320837  37.7086608 124.4118674
  85.2440837  38.3266608 123.8408674  85.6970837  39.4326608 123.1688674
  87.0620837  39.4916608 123.3278674  88.7760837  38.1226608 124.4908674
  89.5250837  38.8296608 124.1288674  89.0630837  37.1236608 124.1608674
  88.8570837  38.0686608 125.5768674  85.2480837  96.1896608 121.5188674
  84.1360837  96.7116608 121.0558674  83.2550837  95.6586608 120.9848674
  83.9100837  94.5356608 121.4218674  85.1910837  94.9016608 121.7598674
  86.4970837  97.0136608 121.7548674  87.3430837  96.4416608 122.1408674
  86.2990837  97.8366608 122.4418674  86.8140837  97.5136608 120.8388674
  71.7290837  47.2826608 115.6488674  72.0760837  47.0786608 114.4008674
  72.1500837  48.3346608 113.8448674  71.8340837  49.2426608 114.8228674
  71.5660837  48.5426608 115.9758674  71.5310837  46.1496608 116.6348674
  71.2430837  46.4736608 117.6368674  72.4340837  45.5436608 116.7188674
  70.7810837  45.4446608 116.2758674  90.9900837 100.9066608  46.5028674
  90.7240837  99.7216608  46.9998674  90.4080837  99.9556608  48.3178674
  90.5070837 101.3056608  48.5378674  90.8830837 101.8976608  47.3548674
  91.3900837 101.1096608  45.0558674  91.5800837 102.1496608  44.7858674
  90.6290837 100.7166608  44.3808674  92.2770837 100.5266608  44.8098674
  42.8950837 114.4616608 103.0648674  43.5380837 113.7236608 102.1918674
  44.2260837 114.6216608 101.4088674  43.9470837 115.8806608 101.8748674
  43.0880837 115.7536608 102.9408674  42.0010837 113.8656608 104.1328674
  41.5330837 114.6036608 104.7868674  42.5520837 113.1596608 104.7548674
  41.2140837 113.2566608 103.6878674  38.0070837  52.2386608  66.5278674
  38.6100837  51.0816608  66.6668674  39.9390837  51.3936608  66.8308674
  40.0570837  52.7586608  66.7778674  38.8010837  53.2816608  66.5828674
  36.5110837  52.3576608  66.3208674  36.1540837  53.3836608  66.2208674
  35.9650837  51.8846608  67.1368674  36.1930837  51.7996608  65.4398674
  59.4960837  50.4386608  76.1718674  59.9670837  49.2166608  76.0958674
  61.3300837  49.3566608  76.2138674  61.6020837  50.6926608  76.3588674
  60.4060837  51.3706608  76.3278674  58.0150837  50.7456608  76.0848674
  57.7730837  51.8066608  76.1638674  57.4590837  50.2116608  76.8558674
  57.5910837  50.3686608  75.1538674  70.4890837  29.3326608  52.6218674
  69.6900837  30.3556608  52.4368674  70.5160837  31.4556608  52.4518674
  71.7980837  31.0126608  52.6498674  71.7570837  29.6416608  52.7568674
  69.9850837  27.9046608  52.6738674  70.7660837  27.1596608  52.8328674
  69.4490837  27.6466608  51.7608674  69.2340837  27.7836608  53.4548674
  94.5340837 114.5746608  44.8628674  93.4480837 114.1936608  44.2338674
  92.4400837 114.9556608  44.7758674  92.9990837 115.7726608  45.7248674
  94.3480837 115.5096608  45.7638674  95.8960837 113.9796608  44.5698674
  96.7050837 114.3966608  45.1728674  96.1570837 114.1006608  43.5188674
  95.8890837 112.8986608  44.7108674  56.4550837  60.8526608  43.5558674
  55.7220837  61.2876608  42.5578674  54.4330837  61.2746608  43.0358674
  54.4710837  60.8186608  44.3288674  55.7840837  60.5536608  44.6418674
  57.9600837  60.7076608  43.4568674  58.4340837  60.3346608  44.3658674
  58.4270837  61.6576608  43.1948674  58.2360837  60.0486608  42.6338674
  94.3060837 101.8166608  20.6498674  93.0320837 102.0916608  20.8008674
  92.4180837 100.8666608  20.9138674  93.3880837  99.9026608  20.8198674
  94.5960837 100.5376608  20.6508674  95.3580837 102.8956608  20.4868674
  96.3740837 102.5146608  20.3708674  95.3460837 103.5836608  21.3318674
  95.1330837 103.5336608  19.6318674  89.6320837  93.0116608  45.8948674
  90.5490837  93.8206608  45.4208674  91.6750837  93.5526608  46.1628674
  91.3570837  92.5686608  47.0628674  90.0360837  92.2356608  46.8728674
  88.2180837  92.9766608  45.3528674  87.5680837  92.2526608  45.8468674
  88.2140837  92.7646608  44.2838674  87.7490837  93.9586608  45.4218674
  51.1110837 107.8006608  73.9398674  52.3150837 107.4456608  74.3208674
  53.1240837 108.4966608  73.9548674  52.3330837 109.4446608  73.3588674
  51.0400837 108.9746608  73.3608674  49.8970837 106.9186608  74.1538674
  48.9630837 107.3466608  73.7848674  49.7690837 106.6806608  75.2098674
  50.0340837 105.9446608  73.6858674  33.5810837  67.4526608 106.7118674
  33.4380837  66.4386608 107.5308674  32.1850837  66.5976608 108.0738674
  31.6360837  67.7316608 107.5318674  32.5530837  68.2656608 106.6578674
  34.8380837  67.6666608 105.8928674  34.8110837  68.5526608 105.2568674
  35.0460837  66.8016608 105.2628674  35.7160837  67.7336608 106.5348674
  82.3470837  77.9486608  30.9468674  81.1000837  78.3476608  30.8608674
  80.8110837  78.8726608  32.0988674  81.9350837  78.7536608  32.8748674
  82.9110837  78.1566608  32.1128674  83.0760837  77.2996608  29.7888674
  84.1080837  77.0216608  30.0088674  83.0780837  77.9516608  28.9138674
  82.5490837  76.4096608  29.4448674  96.6270837  28.7196608  71.3268674
  97.8300837  29.2316608  71.2238674  98.6840837  28.1686608  71.4008674
  97.9180837  27.0496608  71.6058674  96.5980837  27.4276608  71.5538674
  95.3710837  29.5566608  71.1938674  94.4440837  28.9916608  71.3028674
  95.3450837  30.0716608  70.2328674  95.3640837  30.3686608  71.9208674
  80.0730837  82.6396608  35.4298674  79.8240837  81.3596608  35.5698674
  78.5110837  81.2116608  35.1868674  78.0390837  82.4476608  34.8298674
  79.0620837  83.3516608  34.9938674  81.4250837  83.2446608  35.7468674
  81.4830837  84.3216608  35.5808674  82.2140837  82.7676608  35.1638674
  81.7110837  83.0426608  36.7788674  55.2020837  52.6366608  24.2808674
  55.0730837  51.3426608  24.1128674  54.5630837  51.2006608  22.8438674
  54.4120837  52.4556608  22.3118674  54.8290837  53.3646608  23.2548674
  55.7390837  53.2416608  25.5618674  55.7890837  54.3316608  25.5548674
  56.7340837  52.8566608  25.7888674  55.1420837  52.9326608  26.4198674
 109.0340837  78.2256608 120.4118674 107.8630837  78.6496608 120.0008674
 107.2070837  77.5186608 119.5748674 108.0500837  76.4536608 119.7618674
 109.2200837  76.9316608 120.3018674 110.0880837  79.1606608 120.9698674
 111.0120837  78.6636608 121.2708674 109.7050837  79.7146608 121.8268674
 110.3390837  79.9406608 120.2508674  83.5310837 127.9226608  69.9338674
  84.7000837 128.3686608  69.5388674  85.4390837 128.4896608  70.6928674
  84.6460837 128.0966608  71.7398674  83.4220837 127.7356608  71.2278674
  82.3980837 127.6446608  68.9678674  81.4860837 127.2766608  69.4418674
  82.7000837 126.9246608  68.2068674  82.1470837 128.5356608  68.3918674
  75.4850837  48.2396608 101.1828674  74.4000837  47.9576608 101.8648674
  74.4810837  46.6076608 102.1138674  75.6440837  46.1486608 101.5508674
  76.2740837  47.2166608 100.9568674  75.8000837  49.6396608 100.6968674
  76.7380837  49.7206608 100.1438674  75.8330837  50.3446608 101.5288674
  74.9980837  50.0236608 100.0658674 115.2550837 103.4686608 121.5968674
 115.5040837 102.6666608 122.6058674 115.2010837 101.4086608 122.1398674
 114.7780837 101.5356608 120.8418674 114.8210837 102.8696608 120.5138674
 115.4560837 104.9676608 121.6798674 115.2080837 105.5036608 120.7628674
 116.4850837 105.2096608 121.9488674 114.8700837 105.3956608 122.4938674
  49.5300837 114.9466608 110.2358674  49.6070837 114.1006608 109.2368674
  49.2290837 112.8906608 109.7698674  48.9380837 113.0906608 111.0948674
  49.1390837 114.4216608 111.3728674  49.8650837 116.4166608 110.0858674
  49.7540837 116.9966608 111.0028674  49.2520837 116.8806608 109.3118674
  50.8840837 116.5496608 109.7198674  94.7460837 131.9736608  80.6148674
  93.5850837 131.5566608  80.1678674  92.6810837 131.9236608  81.1368674
  93.3740837 132.5576608  82.1358674  94.7020837 132.5776608  81.7788674
  96.0350837 131.7706608  79.8458674  96.9200837 132.1716608  80.3438674
  95.9720837 132.2166608  78.8528674  96.2070837 130.7136608  79.6428674
 119.8080837  80.8336608  28.9498674 118.5470837  80.7346608  28.5998674
 118.3660837  81.7126608  27.6508674 119.5640837  82.3576608  27.4838674
 120.4780837  81.7756608  28.3298674 120.4380837  79.9286608  29.9888674
 121.4940837  80.1296608  30.1758674 120.3340837  78.8806608  29.7088674
 119.9050837  79.9946608  30.9388674  52.8780837  86.8696608 132.5088674
  53.8510837  86.9106608 133.3878674  54.0150837  85.6076608 133.7948674
  53.1040837  84.8406608 133.1158674  52.3820837  85.6736608 132.2938674
  52.3680837  88.1076608 131.7998674  51.5550837  87.9166608 131.0968674
  53.1730837  88.6096608 131.2628674  52.0310837  88.8566608 132.5158674
  71.7330837  44.4646608 104.8768674  70.5780837  44.1796608 104.3238674
  70.1450837  45.3656608 103.7778674  71.0940837  46.3186608 104.0448674
  72.1070837  45.7166608 104.7538674  72.5660837  43.4286608 105.6018674
  73.5020837  43.8136608 106.0098674  72.8000837  42.5876608 104.9478674
  72.0020837  42.9716608 106.4158674  98.2490837 102.1616608  59.8528674
  98.3070837 101.0266608  59.1978674  97.2360837 100.2976608  59.6588674
  96.5800837 101.0626608  60.5888674  97.2500837 102.2586608  60.6988674
  99.2570837 103.2736608  59.6468674  99.0800837 104.1576608  60.2618674
  99.2880837 103.5856608  58.6028674 100.2710837 102.9216608  59.8398674
  25.7480837  86.8256608  72.1768674  25.4860837  88.0896608  71.9408674
  25.2240837  88.6326608  73.1768674  25.3480837  87.6326608  74.1068674
  25.6860837  86.4786608  73.4408674  26.0950837  85.8466608  71.0738674
  26.2880837  84.8316608  71.4228674  26.9650837  86.1856608  70.5108674
  25.3040837  85.8056608  70.3248674  47.0790837 134.7886608  81.2528674
  45.9660837 135.4126608  80.9468674  46.3070837 136.7436608  80.9078674
  47.6430837 136.8416608  81.2018674  48.1190837 135.5696608  81.4198674
  47.1530837 133.2826608  81.4008674  48.1450837 132.9076608  81.6578674
  46.8260837 132.7836608  80.4878674  46.4490837 132.9286608  82.1538674
  78.8620837 128.5166608  83.7298674  80.1070837 128.9296608  83.6978674
  80.2130837 129.8116608  84.7478674  78.9900837 129.8766608  85.3638674
  78.1360837 129.0346608  84.6908674  78.3100837 127.5186608  82.7318674
  77.2590837 127.2706608  82.8838674  78.8850837 126.5926608  82.7468674
  78.4310837 127.8806608  81.7098674  53.9820837 132.1026608  79.1648674
  55.1040837 131.5096608  78.8338674  55.2460837 130.4886608  79.7438674
  54.1690837 130.5316608  80.5908674  53.3680837 131.5786608  80.1998674
  53.4390837 133.2986608  78.4098674  52.4970837 133.6836608  78.8008674
  53.3000837 133.0636608  77.3538674  54.1630837 134.1136608  78.3978674
  39.4840837  52.3246608 113.7248674  38.3500837  51.6776608 113.8498674
  37.4720837  52.3416608 113.0248674  38.1530837  53.3756608 112.4378674
  39.4470837  53.3456608 112.9028674  40.7390837  51.9196608 114.4728674
  41.6040837  52.5516608 114.2668674  41.0100837  50.8876608 114.2508674
  40.5670837  51.9156608 115.5488674  96.0910837 125.9256608  40.8758674
  95.9370837 124.7736608  41.4848674  96.5290837 123.8526608  40.6518674
  97.0150837 124.5276608  39.5618674  96.7220837 125.8606608  39.7278674
  95.5780837 127.2276608  41.4558674  95.7800837 128.1036608  40.8358674
  95.9980837 127.4066608  42.4458674  94.5040837 127.1786608  41.6368674
  84.4600837  59.6436608 129.8178674  83.9490837  58.6586608 130.5168674
  82.5900837  58.7636608 130.3328674  82.3620837  59.8366608 129.5108674
  83.5800837  60.3886608 129.1918674  85.9510837  59.8996608 129.7408674
  86.2270837  60.7536608 129.1208674  86.4790837  59.0216608 129.3658674
  86.3740837  60.0486608 130.7348674  96.5050837  36.6376608  67.2068674
  96.7360837  37.3946608  68.2528674  95.6050837  38.1666608  68.3848674
  94.7400837  37.8156608  67.3808674  95.3400837  36.8286608  66.6348674
  97.5090837  35.6206608  66.7008674  97.1780837  35.0646608  65.8218674
  97.7660837  34.9036608  67.4808674  98.4610837  36.0956608  66.4648674
  47.2980837  59.2396608  26.5588674  46.2210837  58.9836608  25.8548674
  46.4820837  59.5036608  24.6088674  47.7360837  60.0556608  24.6418674
  48.2430837  59.8746608  25.9068674  47.4360837  58.8316608  28.0118674
  48.3880837  59.1126608  28.4658674  47.3060837  57.7556608  28.1298674
  46.6330837  59.2556608  28.6148674  94.6550837 105.9186608  63.4298674
  95.8600837 105.4396608  63.2368674  95.6670837 104.2596608  62.5568674
  94.3170837 104.0976608  62.3778674  93.6850837 105.1776608  62.9478674
  94.4050837 107.2256608  64.1538674  93.3510837 107.4956608  64.2378674
  94.9290837 108.0486608  63.6668674  94.8320837 107.2056608  65.1568674
  33.1020837  39.9306608  75.6538674  34.3150837  40.4226608  75.7318674
  35.1220837  39.3356608  75.9728674  34.3200837  38.2246608  76.0268674
  33.0230837  38.6316608  75.8188674  31.8870837  40.7976608  75.3938674
  30.9450837  40.2486608  75.3558674  31.9950837  41.3536608  74.4618674
  31.7950837  41.5786608  76.1498674  88.2810837 130.6486608  62.1088674
  87.0040837 130.9346608  62.1958674  86.3740837 129.7146608  62.2838674
  87.3400837 128.7426608  62.2428674  88.5600837 129.3666608  62.1298674
  89.3490837 131.7166608  61.9928674  90.3660837 131.3276608  61.9288674
  89.3010837 132.4096608  62.8338674  89.1720837 132.3526608  61.1258674
 126.8650837  87.9476608  91.7648674 127.5930837  88.9756608  92.1288674
 126.7670837  89.7266608  92.9328674 125.5580837  89.0836608  93.0048674
 125.6440837  87.9406608  92.2448674 127.3950837  86.8546608  90.8598674
 126.6750837  86.0636608  90.6438674 128.2880837  86.3946608  91.2848674
 127.7440837  87.2666608  89.9128674  75.9840837  86.2306608  16.3708674
  75.6480837  87.4726608  16.6268674  74.6790837  87.3826608  17.5988674
  74.4880837  86.0536608  17.8758674  75.3380837  85.3296608  17.0738674
  77.0360837  85.8666608  15.3438674  77.2090837  84.7946608  15.2408674
  77.9890837  86.3446608  15.5748674  76.7790837  86.2666608  14.3628674
  81.8590837 129.5666608  57.9088674  81.6040837 130.8436608  57.7538674
  81.2360837 131.2836608  59.0038674  81.2940837 130.2126608  59.8578674
  81.6980837 129.1176608  59.1308674  82.3050837 128.6806608  56.7628674
  82.4790837 127.6406608  57.0438674  83.2140837 129.0666608  56.3018674
  81.5780837 128.6976608  55.9508674 131.0760837  70.3756608  55.6968674
 130.1970837  71.2536608  55.2748674 129.0230837  70.9086608  55.9038674
 129.2770837  69.8126608  56.6888674 130.6050837  69.4876608  56.5398674
 132.5210837  70.3896608  55.2438674 133.1340837  69.5986608  55.6798674
 132.9920837  71.3466608  55.4688674 132.5920837  70.3166608  54.1588674
  29.9110837  82.0496608  48.9278674  31.0240837  81.3686608  48.7898674
  31.4970837  81.2026608  50.0708674  30.6140837  81.8126608  50.9238674
  29.6010837  82.3516608  50.1658674  29.0540837  82.4566608  47.7468674
  28.1590837  83.0196608  48.0158674  28.7470837  81.5846608  47.1678674
  29.6280837  83.0486608  47.0328674 115.1570837  72.7036608  24.2878674
 115.1280837  71.4006608  24.1388674 116.3200837  70.9586608  24.6628674
 117.0120837  72.0546608  25.1088674 116.2450837  73.1676608  24.8578674
 114.0220837  73.6006608  23.8378674 114.1890837  74.6626608  24.0288674
 113.0840837  73.3126608  24.3128674 113.8220837  73.4726608  22.7738674
 110.3680837  61.4816608  60.3888674 109.1340837  61.0516608  60.5048674
 108.4150837  62.1476608  60.9208674 109.2870837  63.1996608  61.0328674
 110.5380837  62.7486608  60.6848674 111.5050837  60.5836608  59.9458674
 112.4740837  61.0816608  59.8968674 111.2980837  60.1426608  58.9708674
 111.5990837  59.7196608  60.6038674  85.2660837  67.6486608 121.6398674
  84.1750837  67.0196608 122.0068674  84.3270837  66.8056608 123.3568674
  85.5360837  67.3356608 123.7288674  86.1230837  67.8726608 122.6078674
  85.5140837  68.0826608 120.2098674  86.4650837  68.5946608 120.0568674
  84.7140837  68.7326608 119.8548674  85.4720837  67.2296608 119.5308674
  63.9060837 118.8806608  29.7468674  63.8350837 119.1506608  31.0278674
  63.0240837 120.2576608  31.1108674  62.6460837 120.5946608  29.8368674
  63.2260837 119.6936608  28.9748674  64.7120837 117.7186608  29.2028674
  64.6770837 117.6186608  28.1168674  64.3850837 116.7766608  29.6428674
  65.7580837 117.7936608  29.5038674 117.7460837  90.6266608 106.0448674
 117.9450837  91.6726608 106.8118674 117.7180837  92.7556608 105.9958674
 117.3870837  92.2806608 104.7538674 117.4110837  90.9076608 104.8078674
 117.8920837  89.2056608 106.5518674 117.6950837  88.4406608 105.7998674
 117.2350837  89.0256608 107.4028674 118.8900837  89.0366608 106.9568674
  90.1000837 100.6306608  40.7098674  88.8010837 100.5026608  40.8428674
  88.3610837 101.7476608  41.2258674  89.4540837 102.5716608  41.3018674
  90.5630837 101.8316608  40.9648674  90.9930837  99.4806608  40.2928674
  92.0510837  99.7386608  40.2238674  90.6790837  99.0696608  39.3328674
  90.8910837  98.6386608  40.9778674  60.6470837  60.0726608 131.1068674
  60.1090837  58.9366608 131.4818674  60.8010837  57.9716608 130.7888674
  61.7400837  58.6056608 130.0168674  61.6220837  59.9576608 130.2378674
  60.1750837  61.4106608 131.6378674  60.7180837  62.2676608 131.2348674
  60.2430837  61.4456608 132.7258674  59.1130837  61.5566608 131.4418674
  39.2740837  33.5386608  52.2408674  40.2110837  33.2246608  53.1038674
  41.3920837  33.5226608  52.4668674  41.0840837  34.0126608  51.2238674
  39.7150837  34.0136608  51.1008674  37.7990837  33.3646608  52.5408674
  37.1390837  33.6686608  51.7278674  37.5150837  33.9186608  53.4358674
  37.5720837  32.3296608  52.7958674 102.8000837  99.1396608  58.0038674
 101.6880837  98.9896608  57.3238674 101.7780837  97.7336608  56.7708674
 102.9730837  97.1896608  57.1638674 103.6150837  98.1126608  57.9568674
 103.1150837 100.4006608  58.7808674 104.0770837 100.3796608  59.2968674
 102.3380837 100.6106608  59.5168674 103.0970837 101.2756608  58.1308674
  15.9800837  82.1586608  66.8898674  16.5830837  81.8206608  65.7748674
  17.7380837  82.5676608  65.7578674  17.7580837  83.3306608  66.8968674
  16.6160837  83.0516608  67.6098674  14.6520837  81.5626608  67.3098674
  14.2730837  81.9416608  68.2608674  14.7140837  80.4766608  67.3748674
  13.8900837  81.7316608  66.5478674 104.0970837 120.0046608  78.2428674
 104.3490837 118.7196608  78.1628674 105.7160837 118.6206608  78.2788674
 106.2150837 119.8896608  78.4248674 105.1550837 120.7646608  78.3988674
 102.6910837 120.5646608  78.1608674 102.6380837 121.6506608  78.2428674
 102.0530837 120.1316608  78.9328674 102.2060837 120.2676608  77.2308674
 104.8500837  45.8966608  83.1608674 105.8230837  46.4046608  82.4428674
 105.4430837  47.7046608  82.2018674 104.2290837  47.9036608  82.8078674
 103.8660837  46.7266608  83.4188674 104.8630837  44.4636608  83.6528674
 103.9850837  44.1846608  84.2378674 105.7510837  44.2646608  84.2528674
 104.9540837  43.7656608  82.8198674 107.0330837  99.9476608  57.7578674
 107.5700837  98.7736608  57.9928674 107.5370837  98.1226608  56.7818674
 106.9650837  98.9686608  55.8678674 106.6480837 100.1376608  56.5188674
 106.8700837 100.9986608  58.8368674 106.4060837 101.9246608  58.4928674
 107.8310837 101.2456608  59.2898674 106.2850837 100.6136608  59.6728674
  84.2960837 132.0306608  91.1118674  84.3830837 130.8586608  91.6928674
  83.3680837 130.8486608  92.6208674  82.7150837 132.0506608  92.5378674
  83.3290837 132.7966608  91.5598674  85.2400837 132.4646608  90.0088674
  85.0450837 133.4666608  89.6218674  85.2120837 131.7646608  89.1738674
  86.2770837 132.4246608  90.3438674 107.2980837  61.0076608  37.3478674
 106.6470837  60.1896608  36.5548674 106.2950837  60.9576608  35.4688674
 106.7710837  62.2256608  35.6818674 107.4130837  62.2346608  36.8978674
 107.8720837  60.5656608  38.6778674 108.3880837  61.3556608  39.2268674
 108.5650837  59.7336608  38.5478674 107.0940837  60.1546608  39.3218674
  77.1500837 131.1336608  53.4748674  77.9110837 130.8996608  54.5178674
  77.7290837 131.9896608  55.3378674  76.8450837 132.8346608  54.7188674
  76.4850837 132.2636608  53.5208674  77.0500837 130.1706608  52.3088674
  76.3780837 130.4996608  51.5148674  76.7260837 129.1846608  52.6438674
  78.0310837 129.9836608  51.8708674 128.1560837  91.5236608  66.1048674
 128.8520837  92.6326608  66.0158674 130.1620837  92.2386608  66.1618674
 130.1720837  90.8786608  66.3358674 128.8700837  90.4396608  66.2958674
 126.6450837  91.5006608  65.9968674 126.2050837  90.5066608  66.0908674
 126.3140837  91.9316608  65.0518674 126.1890837  92.1476608  66.7478674
 116.7920837  78.2606608 119.1338674 116.9930837  77.1516608 118.4638674
 116.8060837  76.1456608 119.3828674 116.4940837  76.7296608 120.5828674
 116.4910837  78.0926608 120.3988674 116.8990837  79.6296608 118.4928674
 116.7040837  80.4586608 119.1748674 116.2190837  79.7186608 117.6448674
 117.8830837  79.7766608 118.0488674  79.2460837  98.2886608  19.8548674
  77.9720837  97.9876608  19.9388674  77.3140837  99.1166608  19.5088674
  78.2610837 100.0526608  19.1828674  79.4980837  99.4976608  19.4138674
  80.3390837  97.3116608  20.2388674  81.3500837  97.7026608  20.1158674
  80.2580837  96.3886608  19.6638674  80.2240837  96.9826608  21.2718674
  47.9130837  72.3676608  75.6988674  47.9130837  73.3016608  74.7788674
  48.4460837  74.4076608  75.3978674  48.7420837  74.0596608  76.6908674
  48.3910837  72.7416608  76.8628674  47.4010837  70.9656608  75.4368674
  47.4640837  70.2986608  76.2968674  47.9350837  70.5036608  74.6068674
  46.3650837  70.9856608  75.0958674  70.2930837  59.1216608  22.5618674
  69.0820837  59.3676608  23.0038674  69.2040837  60.5206608  23.7428674
  70.5180837  60.9086608  23.6988674  71.2010837  59.9936608  22.9328674
  70.6140837  57.9236608  21.6918674  71.6630837  57.8506608  21.4018674
  70.0090837  57.9266608  20.7848674  70.3320837  56.9946608  22.1868674
  71.3000837 110.7846608  53.8438674  72.4200837 111.2746608  53.3688674
  73.2070837 110.1766608  53.1128674  72.4900837 109.0606608  53.4598674
  71.2650837 109.4756608  53.9278674  70.1390837 111.6626608  54.2618674
  69.2750837 111.1126608  54.6368674  69.8090837 112.2936608  53.4358674
  70.4450837 112.3786608  55.0248674  99.8210837  91.2506608 133.6338674
  99.1580837  91.9816608 134.4988674 100.0360837  92.1806608 135.5388674
 101.2060837  91.5386608 135.2258674 101.0450837  90.9466608 133.9948674
  99.2170837  90.7956608 132.3208674  99.8870837  90.1946608 131.7048674
  98.8820837  91.6476608 131.7288674  98.3040837  90.2236608 132.4888674
  51.6590837 121.0816608  48.1198674  50.9320837 122.1646608  48.2588674
  51.8350837 123.1636608  48.5348674  53.0870837 122.6036608  48.5458674
  52.9490837 121.2626608  48.2758674  51.0540837 119.7296608  47.8038674
  51.7830837 118.9226608  47.7188674  50.4760837 119.7656608  46.8808674
  50.3180837 119.4456608  48.5568674  81.4350837  14.8356608  79.3368674
  82.6050837  15.4276608  79.2788674  82.3180837  16.7706608  79.2138674
  80.9540837  16.9076608  79.2378674  80.4060837  15.6496608  79.3168674
  81.2880837  13.3306608  79.4198674  80.2540837  12.9846608  79.4618674
  81.8160837  12.9336608  80.2868674  81.7760837  12.8426608  78.5758674
  37.6220837 107.1136608  56.9828674  36.6460837 107.0106608  56.1108674
  37.2720837 106.8036608  54.9038674  38.6240837 106.7946608  55.1308674
  38.8260837 106.9956608  56.4758674  37.3730837 107.3496608  58.4588674
  38.2810837 107.4126608  59.0598674  36.7400837 106.5666608  58.8778674
  36.7950837 108.2596608  58.6168674 108.6690837  91.0286608  60.2438674
 107.7810837  90.0656608  60.3108674 108.4500837  88.9396608  59.8898674
 109.7360837  89.3066608  59.5868674 109.8540837  90.6566608  59.8228674
 108.3470837  92.4596608  60.6258674 109.1860837  93.1496608  60.5188674
 107.9860837  92.5186608  61.6518674 107.5130837  92.8426608  60.0368674
 107.0430837 112.7536608  32.2208674 107.3950837 111.7576608  32.9988674
 108.4390837 112.2476608  33.7478674 108.6560837 113.5456608  33.3628674
 107.7460837 113.8496608  32.3788674 105.9110837 112.6436608  31.2188674
 105.7340837 113.5526608  30.6428674 104.9790837 112.3646608  31.7118674
 106.0870837 111.8256608  30.5198674  60.8820837 116.6886608  67.1998674
  59.7180837 116.9996608  67.7208674  59.0480837 115.8036608  67.8268674
  59.8750837 114.8186608  67.3498674  61.0500837 115.4116608  66.9518674
  61.9470837 117.7266608  66.9098674  62.8620837 117.3186608  66.4768674
  62.2120837 118.2776608  67.8118674  61.5670837 118.4986608  66.2388674
  30.9430837  64.8416608 111.4368674  32.1510837  65.1156608 111.0058674
  32.7320837  63.8906608 110.7798674  31.8100837  62.9266608 111.0988674
  30.6660837  63.5616608 111.5198674  29.9470837  65.9206608 111.8108674
  28.9830837  65.5406608 112.1528674  29.7690837  66.5956608 110.9728674
  30.3510837  66.5736608 112.5848674  74.2060837  20.6166608  84.0358674
  73.7630837  21.0996608  85.1718674  73.3370837  22.3726608  84.8718674
  73.5570837  22.5816608  83.5348674  74.1170837  21.4376608  83.0158674
  74.7760837  19.2186608  83.9128674  75.1040837  18.9556608  82.9058674
  74.0520837  18.4716608  84.2408674  75.6160837  19.0776608  84.5928674
 115.9440837  66.6216608 100.3378674 115.4380837  65.6316608  99.6398674
 114.4570837  66.2096608  98.8688674 114.4330837  67.5496608  99.1578674
 115.3990837  67.7916608 100.1058674 117.0700837  66.4246608 101.3318674
 117.3860837  67.3386608 101.8368674 117.9430837  65.9806608 100.8508674
 116.7960837  65.6926608 102.0918674  67.3130837 102.4866608 127.9418674
  68.5100837 102.3826608 128.4678674  68.5710837 101.0986608 128.9578674
  67.3710837 100.4926608 128.6878674  66.5770837 101.4046608 128.0338674
  66.8220837 103.7576608 127.2808674  65.8050837 103.6946608 126.8898674
  67.4830837 104.0556608 126.4668674  66.8690837 104.6006608 127.9718674
 132.6770837  61.4576608  74.8538674 133.4470837  60.4406608  74.5448674
 134.7300837  60.9146608  74.6838674 134.6500837  62.2246608  75.0798674
 133.3190837  62.5536608  75.1818674 131.1650837  61.3696608  74.8308674
 130.6590837  62.2956608  75.1108674 130.8100837  60.5746608  75.4878674
 130.8050837  61.0696608  73.8468674  33.6020837  98.2506608  74.7448674
  32.6160837  97.4516608  74.4158674  33.2170837  96.3946608  73.7728674
  34.5670837  96.6316608  73.7548674  34.7930837  97.8316608  74.3858674
  33.3810837  99.5566608  75.4818674  34.2960837 100.1146608  75.6868674
  32.8650837  99.3886608  76.4278674  32.7020837 100.2056608  74.9298674
  59.6200837 113.9276608  37.4598674  59.7200837 114.5896608  38.5878674
  58.5420837 114.3376608  39.2508674  57.7840837 113.5156608  38.4568674
  58.4980837 113.2646608  37.3088674  60.7160837 113.9306608  36.4138674
  60.4910837 113.3346608  35.5278674  61.6570837 113.5746608  36.8338674
  60.9460837 114.9456608  36.0918674  31.1510837  79.3046608  81.8488674
  30.6830837  79.5116608  83.0568674  29.4600837  80.1096608  82.8638674
  29.2620837  80.2276608  81.5118674  30.3630837  79.7026608  80.8778674
  32.4960837  78.6546608  81.5978674  32.7510837  78.5476608  80.5418674
  32.5470837  77.6696608  82.0618674  33.2960837  79.2106608  82.0868674
  44.2630837  89.2146608  85.4208674  43.6600837  90.1166608  86.1578674
  42.6850837  90.6446608  85.3438674  42.7650837  90.0086608  84.1318674
  43.7870837  89.0926608  84.2038674  45.4180837  88.3816608  85.9368674
  45.8180837  87.6726608  85.2098674  45.1310837  87.8276608  86.8308674
  46.2350837  89.0166608  86.2788674  93.1560837  54.3786608 109.8708674
  93.7370837  54.4786608 108.6988674  94.3840837  53.2786608 108.5218674
  94.1450837  52.5086608 109.6308674  93.3520837  53.2366608 110.4858674
  92.3230837  55.4966608 110.4648674  91.9030837  55.2686608 111.4458674
  91.5050837  55.7706608 109.7988674  92.9050837  56.4146608 110.5478674
  61.4410837 134.1596608  66.7828674  60.5950837 133.7776608  67.7098674
  61.2780837 132.8386608  68.4468674  62.5290837 132.7096608  67.8998674
  62.6110837 133.5696608  66.8308674  61.0900837 135.2006608  65.7398674
  61.8940837 135.4156608  65.0348674  60.7880837 136.1376608  66.2088674
  60.2080837 134.9026608  65.1718674  70.1390837  31.1936608  76.3098674
  69.3260837  30.2256608  75.9578674  69.9350837  29.0746608  76.4008674
  71.1110837  29.4316608  77.0088674  71.2210837  30.8006608  76.9388674
  69.8470837  32.6496608  76.0118674  70.6150837  33.3406608  76.3658674
  68.8920837  32.9526608  76.4408674  69.7110837  32.8106608  74.9418674
  60.2810837  31.2526608 109.6868674  60.6860837  30.2796608 108.9058674
  59.8530837  30.3356608 107.8128674  58.9730837  31.3676608 108.0108674
  59.2670837  31.9446608 109.2238674  60.9360837  31.5516608 111.0208674
  60.4910837  32.3896608 111.5588674  62.0000837  31.7526608 110.8968674
  60.9130837  30.6776608 111.6718674  60.9190837 124.3186608  97.8138674
  60.0280837 125.1276608  98.3358674  59.6730837 125.9706608  97.3088674
  60.3920837 125.6056608  96.2008674  61.1880837 124.5396608  96.5488674
  61.5830837 123.2156608  98.6118674  62.3030837 122.6236608  98.0438674
  60.8410837 122.5366608  99.0338674  62.0910837 123.6186608  99.4888674
  41.6570837  32.9916608  65.6918674  41.2360837  32.6306608  66.8808674
  39.8640837  32.6556608  66.7918674  39.5350837  33.0406608  65.5178674
  40.7050837  33.2516608  64.8268674  43.1280837  33.0976608  65.3458674
  43.3250837  33.4096608  64.3188674  43.6400837  32.1506608  65.5198674
  43.6370837  33.7916608  66.0158674  74.5070837 137.5446608  80.2458674
  75.6210837 136.9086608  80.5198674  75.2790837 135.5766608  80.5078674
  73.9420837 135.4916608  80.2198674  73.4650837 136.7706608  80.0538674
  74.4330837 139.0556608  80.1568674  73.4400837 139.4406608  79.9208674
  75.1330837 139.4386608  79.4138674  74.7660837 139.5176608  81.0868674
  56.0450837  49.2466608  64.5408674  57.2360837  49.7566608  64.3388674
  57.8830837  48.8376608  63.5458674  57.0150837  47.8026608  63.3138674
  55.8380837  48.0866608  63.9638674  54.9910837  49.9446608  65.3768674
  54.0490837  49.3996608  65.4558674  54.7780837  50.9396608  64.9848674
  55.3580837  50.1386608  66.3848674  74.3020837 130.8426608 100.8308674
  73.4370837 131.8186608 100.9698674  73.7800837 132.4276608 102.1548674
  74.8620837 131.7606608 102.6678674  75.1810837 130.7436608 101.7998674
  74.2850837 129.9036608  99.6418674  75.0650837 129.1416608  99.6628674
  74.3730837 130.4566608  98.7058674  73.3210837 129.4026608  99.5538674
  18.3890837  74.3026608  96.4808674  18.7340837  75.5456608  96.7188674
  18.5580837  75.7076608  98.0728674  18.1070837  74.5166608  98.5808674
  18.0050837  73.6266608  97.5378674  18.4340837  73.6966608  95.0928674
  18.1190837  72.6526608  95.0508674  19.4350837  73.7676608  94.6668674
  17.8170837  74.2666608  94.3978674  93.4180837  55.0056608  25.7558674
  93.2260837  56.2506608  26.1238674  94.3830837  56.9046608  25.7708674
  95.2230837  55.9856608  25.1958674  94.5810837  54.7706608  25.1968674
  92.3750837  53.9256608  25.9628674  92.6760837  52.9396608  25.6068674
  91.4360837  54.1916608  25.4768674  92.1050837  53.8406608  27.0148674
 121.1790837  69.4156608  51.9558674 120.6120837  68.2486608  51.7618674
 121.2540837  67.3946608  52.6278674 122.1950837  68.1226608  53.3088674
 122.1300837  69.4206608  52.8608674 120.7670837  70.6586608  51.1938674
 121.3290837  71.5546608  51.4628674 119.7060837  70.8676608  51.3318674
 120.8620837  70.5066608  50.1188674 118.7890837  72.8546608 109.0138674
 119.9460837  73.2296608 109.5078674 120.8280837  72.2466608 109.1248674
 120.1280837  71.3146608 108.4038674 118.8170837  71.7256608 108.3458674
 117.5220837  73.6636608 109.2038674 116.6390837  73.2256608 108.7358674
 117.6450837  74.6766608 108.8198674 117.3090837  73.8136608 110.2618674
  54.1960837 118.2696608  57.4598674  54.8680837 117.3616608  56.7928674
  56.1790837 117.7716608  56.8598674  56.2150837 118.9356608  57.5848674
  54.9270837 119.2366608  57.9608674  52.6930837 118.2026608  57.6368674
  52.2740837 119.0276608  58.2148674  52.3970837 117.2676608  58.1128674
  52.1870837 118.1716608  56.6718674  38.1280837  39.6376608 107.4668674
  37.5570837  38.4806608 107.2308674  36.2090837  38.7186608 107.3658674
  36.0490837  40.0426608 107.6848674  37.2980837  40.6146608 107.7438674
  39.6310837  39.8276608 107.4228674  39.9590837  40.8446608 107.6408674
  40.0320837  39.5406608 106.4508674  40.1310837  39.1516608 108.1168674
 114.6770837  61.7556608  32.1798674 113.5250837  62.1256608  31.6738674
 113.7320837  63.4086608  31.2238674 115.0340837  63.7406608  31.4958674
 115.6240837  62.6616608  32.1108674 114.8940837  60.3886608  32.7948674
 115.9040837  60.2246608  33.1738674 114.6660837  59.5976608  32.0798674
 114.1910837  60.2106608  33.6088674 105.4250837  47.6876608  92.4198674
 105.2280837  48.8506608  91.8468674 105.2430837  48.5856608  90.4968674
 105.4530837  47.2396608  90.3388674 105.5680837  46.6816608  91.5898674
 105.4830837  47.5216608  93.9248674 105.6530837  46.4956608  94.2558674
 104.5670837  47.8826608  94.3928674 106.2590837  48.1526608  94.3578674
  67.7070837  73.1676608 136.2018674  67.7960837  74.2106608 136.9918674
  69.1410837  74.4866608 137.0628674  69.7970837  73.5656608 136.2868674
  68.8540837  72.7256608 135.7428674  66.3810837  72.5246608 135.8478674
  66.4650837  71.6656608 135.1808674  65.7060837  73.2476608 135.3898674
  65.8490837  72.2086608 136.7458674 104.0480837 102.9516608 113.8798674
 103.0840837 102.1236608 114.2048674 102.2040837 102.8796608 114.9438674
 102.7090837 104.1516608 115.0198674 103.8970837 104.1756608 114.3278674
 105.2430837 102.5246608 113.0518674 105.9630837 103.3216608 112.8618674
 104.9260837 102.1146608 112.0918674 105.7690837 101.6946608 113.5238674
 128.4510837  98.2176608  83.5938674 129.5840837  98.7126608  84.0328674
 130.4090837  97.6236608  84.1858674 129.7000837  96.5086608  83.8188674
 128.4420837  96.9146608  83.4418674 127.2480837  99.0866608  83.2868674
 126.3770837  98.5346608  82.9298674 127.4950837  99.8486608  82.5478674
 126.9500837  99.6636608  84.1628674  72.8620837 134.5346608  68.4918674
  74.1690837 134.6476608  68.4778674  74.6340837 133.3526608  68.4638674
  73.5460837 132.5186608  68.4708674  72.4160837 133.3006608  68.4888674
  71.9420837 135.7386608  68.5098674  70.8790837 135.4886608  68.5208674
  72.1310837 136.3876608  67.6548674  72.1500837 136.3766608  69.3688674
  77.3360837 112.0376608  27.6048674  77.8560837 111.9366608  28.8048674
  79.2160837 111.9946608  28.6058674  79.4350837 112.1306608  27.2588674
  78.2100837 112.1556608  26.6348674  75.8400837 112.0176608  27.3628674
  75.5570837 112.1116608  26.3128674  75.3440837 112.8116608  27.9218674
  75.3920837 111.1056608  27.7568674  73.5030837  87.4916608 131.4758674
  74.4810837  87.7316608 132.3168674  75.5250837  88.1596608 131.5298674
  75.0970837  88.1496608 130.2268674  73.7920837  87.7156608 130.2168674
  72.1450837  86.9936608 131.9288674  71.4330837  86.8386608 131.1168674
  71.6980837  87.6786608 132.6488674  72.2370837  86.0606608 132.4838674
  35.7300837 118.1696608  87.6588674  36.2140837 118.2926608  86.4458674
  35.4300837 117.4726608  85.6678674  34.4950837 116.8916608  86.4858674
  34.7080837 117.3536608  87.7628674  36.3100837 118.9126608  88.8458674
  35.8030837 118.7096608  89.7898674  36.2970837 119.9886608  88.6758674
  37.3680837 118.6836608  88.9708674  25.5310837  52.2856608  64.1578674
  24.4430837  51.5546608  64.1098674  24.8930837  50.2556608  64.0728674
  26.2630837  50.2866608  64.1018674  26.6520837  51.6046608  64.1568674
  25.4930837  53.7996608  64.2118674  26.4760837  54.2706608  64.2488674
  24.9160837  54.1456608  65.0698674  24.9520837  54.2066608  63.3568674
 107.3410837  62.7236608 113.4848674 107.6640837  62.0206608 112.4248674
 108.9860837  61.6876608 112.6118674 109.3870837  62.2266608 113.8068674
 108.3120837  62.8886608 114.3518674 105.9540837  63.2976608 113.6888674
 105.8350837  63.8586608 114.6168674 105.1990837  62.5116608 113.6658674
 105.6750837  63.9476608 112.8588674  90.7310837 130.0926608  43.7408674
  89.7350837 130.8946608  44.0358674  90.0030837 132.0576608  43.3518674
  91.1780837 131.8776608  42.6678674  91.6280837 130.6056608  42.9328674
  90.8330837 128.6846608  44.2908674  91.7160837 128.1376608  43.9568674
  89.9510837 128.0996608  44.0318674  90.8270837 128.6906608  45.3808674
  37.4560837 102.5066608 100.5228674  38.5610837 102.8906608  99.9278674
  38.9770837 103.9946608 100.6348674  38.0700837 104.2126608 101.6398674
  37.1000837 103.2436608 101.5488674  36.6560837 101.3066608 100.0598674
  35.7610837 101.1096608 100.6518674  37.2700837 100.4046608 100.0588674
  36.3580837 101.4146608  99.0168674 103.1830837  87.4506608 118.6598674
 102.2130837  88.1136608 119.2428674 102.0560837  87.5056608 120.4658674
 102.9670837  86.4836608 120.5448674 103.6820837  86.4676608 119.3698674
 103.6850837  87.7966608 117.2728674 104.4960837  87.1566608 116.9188674
 104.0230837  88.8316608 117.2258674 102.8760837  87.7566608 116.5428674
  58.2830837  54.9456608  28.9128674  58.6790837  53.7436608  28.5698674
  57.7040837  53.2806608  27.7168674  56.7540837  54.2626608  27.5978674
  57.1480837  55.3246608  28.3768674  59.0770837  55.8266608  29.8568674
  58.6220837  56.7996608  30.0498674  60.0870837  55.9906608  29.4808674
  59.2370837  55.3286608  30.8138674  20.2580837  63.9376608  54.5878674
  19.4670837  64.8196608  54.0258674  18.2800837  64.1536608  53.8258674
  18.4360837  62.8746608  54.2938674  19.7170837  62.7576608  54.7798674
  21.6850837  64.2586608  54.9838674  22.2200837  63.4246608  55.4408674
  21.7180837  65.1036608  55.6718674  22.2600837  64.6036608  54.1238674
  78.7380837  82.6956608 125.7768674  78.8960837  81.6926608 124.9468674
  80.1750837  81.2416608 125.1778674  80.7220837  82.0256608 126.1608674
  79.7790837  82.9546608 126.5318674  77.4510837  83.4926608 125.8548674
  77.4680837  84.2966608 126.5918674  76.6030837  82.8436608 126.0758674
  77.1990837  83.9236608 124.8848674 127.2440837  67.3656608  58.4248674
 128.4200837  67.7406608  57.9798674 129.2160837  66.6266608  58.1088674
 128.4470837  65.6226608  58.6378674 127.1810837  66.1206608  58.8338674
 126.0520837  68.3016608  58.4628674 125.1410837  67.8496608  58.8578674
 125.8340837  68.6956608  57.4698674 126.2740837  69.1926608  59.0508674
  84.9380837 122.2616608 123.4138674  83.7420837 122.7596608 123.6178674
  82.8750837 121.7796608 123.1948674  83.6250837 120.7216608 122.7498674
  84.9510837 121.0546608 122.8998674  86.2050837 123.0236608 123.7458674
  87.1240837 122.4816608 123.5208674  86.2250837 123.3076608 124.7978674
  86.2350837 123.9786608 123.2208674  49.9420837  40.2586608  54.4198674
  50.5700837  40.7286608  53.3678674  49.8210837  41.8086608  52.9638674
  48.7580837  41.9246608  53.8218674  48.8560837  40.9166608  54.7518674
  50.4350837  39.0506608  55.1898674  49.8090837  38.7766608  56.0408674
  51.4520837  39.2046608  55.5498674  50.5220837  38.1806608  54.5378674
 105.5530837  61.1646608 125.9808674 105.0560837  60.9356608 127.1728674
 105.7870837  61.7336608 128.0208674 106.7070837  62.4126608 127.2638674
 106.5380837  62.0306608 125.9538674 105.0300837  60.4806608 124.7348674
 105.5430837  60.7706608 123.8168674 103.9640837  60.6676608 124.6048674
 105.0900837  59.3956608 124.8298674  47.2050837  94.0866608  62.7328674
  46.6680837  94.6566608  63.7858674  46.7670837  96.0076608  63.5438674
  47.3740837  96.1706608  62.3258674  47.6470837  94.9206608  61.8218674
  47.3050837  92.5826608  62.5838674  47.7750837  92.2556608  61.6548674
  46.3210837  92.1176608  62.6498674  47.8530837  92.1426608  63.4168674
 136.5170837  75.6256608  53.0868674 137.2040837  76.6796608  53.4558674
 136.4150837  77.3056608  54.3918674 135.2680837  76.5676608  54.5318674
 135.3560837  75.4896608  53.6818674 137.0270837  74.6416608  52.0538674
 136.3460837  73.8146608  51.8488674 137.9890837  74.2256608  52.3518674
 137.2460837  75.1446608  51.1108674  35.4160837  87.6896608  61.0328674
  36.5200837  87.7286608  61.7398674  36.9470837  86.4226608  61.7978674
  36.0470837  85.6576608  61.1018674  35.0690837  86.4946608  60.6178674
  34.6050837  88.9316608  60.7208674  33.7120837  88.7436608  60.1228674
  35.2120837  89.6746608  60.2028674  34.3020837  89.4406608  61.6358674
  89.2260837 121.3336608  54.5098674  89.3190837 120.4536608  53.5408674
  89.1600837 121.1826608  52.3858674  88.9760837 122.4936608  52.7418674
  89.0230837 122.5676608  54.1138674  89.3460837 120.9506608  55.9708674
  89.2470837 121.7896608  56.6618674  90.2960837 120.4556608  56.1688674
  88.6030837 120.1996608  56.2398674 106.9250837 135.0386608  77.0128674
 105.6620837 134.6876608  77.0628674 104.9880837 135.8406608  77.3898674
 105.9140837 136.8436608  77.5198674 107.1550837 136.3046608  77.2718674
 108.0310837 134.0576608  76.6798674 109.0300837 134.4956608  76.6748674
 107.8590837 133.5906608  75.7098674 108.0290837 133.2176608  77.3738674
  47.7700837 111.9476608 116.1608674  46.6450837 112.6196608 116.2368674
  47.0190837 113.8936608 116.5928674  48.3850837 113.9106608 116.7118674
  48.8470837 112.6466608 116.4288674  47.8170837 110.4786608 115.7908674
  48.8220837 110.0556608 115.7678674  47.3520837 110.3056608 114.8198674
  47.2120837 109.8846608 116.4758674  70.2130837 115.8676608  36.0788674
  71.3050837 115.4066608  36.6408674  70.9850837 115.2656608  37.9708674
  69.6820837 115.6626608  38.1308674  69.2050837 116.0456608  36.8998674
  70.1260837 116.1706608  34.5968674  69.1540837 116.5486608  34.2748674
  70.3620837 115.2876608  34.0038674  70.8870837 116.8916608  34.2998674
 106.3710837  79.5876608 112.1338674 105.5760837  80.2976608 112.8988674
 105.0880837  79.4066608 113.8258674 105.6360837  78.1796608 113.5538674
 106.4580837  78.3196608 112.4608674 107.1270837  80.1866608 110.9668674
 107.7480837  79.4736608 110.4228674 107.7610837  81.0116608 111.2938674
 106.4440837  80.6536608 110.2568674 102.5020837  73.6036608 123.7208674
 103.7580837  73.3996608 124.0388674 104.4080837  74.5536608 123.6698674
 103.4750837  75.4056608 123.1378674 102.2550837  74.7736608 123.1808674
 101.4230837  72.5676608 123.9608674 100.4260837  72.8806608 123.6458674
 101.3760837  72.2896608 125.0148674 101.6620837  71.6306608 123.4578674
  46.9330837 103.4106608  80.6898674  47.0480837 104.2196608  81.7158674
  47.0130837 103.3986608  82.8188674  46.8760837 102.1096608  82.3748674
  46.8260837 102.1406608  81.0018674  46.9240837 103.9066608  79.2588674
  46.8220837 103.1166608  78.5128674  47.8300837 104.4706608  79.0358674
  46.1250837 104.6306608  79.1008674 128.8920837  98.4196608  46.1808674
 127.8880837  99.2256608  45.9278674 128.0040837 100.2356608  46.8538674
 129.1030837  99.9666608  47.6278674 129.6590837  98.7926608  47.1768674
 129.1430837  97.1566608  45.3818674 130.0150837  96.5876608  45.7078674
 129.2590837  97.3816608  44.3218674 128.2750837  96.4976608  45.4108674
  40.1040837  95.5336608  42.1918674  39.4290837  94.4976608  41.7558674
  39.4410837  94.6186608  40.3858674  40.1440837  95.7536608  40.0738674
  40.5610837  96.3276608  41.2518674  40.3370837  95.7926608  43.6658674
  40.9160837  96.6936608  43.8758674  40.8390837  94.9466608  44.1368674
  39.3910837  95.8616608  44.2038674  45.6850837 108.8286608  57.5938674
  46.8240837 108.1796608  57.6428674  47.3980837 108.5606608  58.8328674
  46.5440837 109.4416608  59.4438674  45.4480837 109.5996608  58.6288674
  44.7210837 108.6966608  56.4328674  43.8160837 109.2976608  56.5328674
  44.4270837 107.6576608  56.2858674  45.2050837 108.9626608  55.4918674
 133.1020837  73.0826608  52.4758674 132.6060837  71.9346608  52.0798674
 133.6050837  71.0186608  52.3128674 134.6720837  71.6926608  52.8498674
 134.3250837  73.0196608  52.9458674 132.3210837  74.3776608  52.3948674
 132.8640837  75.2506608  52.7608674 131.3830837  74.3036608  52.9468674
 132.0020837  74.5786608  51.3718674  27.9770837  48.5466608 102.6748674
  29.1870837  48.2856608 102.2408674  29.7610837  49.5176608 102.0338674
  28.8340837  50.4716608 102.3668674  27.6930837  49.8226608 102.7778674
  26.9870837  47.4556608 103.0308674  26.0210837  47.8256608 103.3778674
  27.3940837  46.7936608 103.7958674  26.8140837  46.7936608 102.1828674
  55.6890837 126.3536608  91.8948674  54.8230837 126.9036608  91.0788674
  55.4960837 127.9586608  90.5078674  56.7630837 127.9766608  91.0308674
  56.8650837 126.9346608  91.9218674  55.3560837 125.1406608  92.7388674
  56.1770837 124.7946608  93.3698674  55.0310837 124.3076608  92.1148674
  54.4940837 125.3346608  93.3778674  55.8830837 133.2426608  86.8448674
  56.4680837 134.0096608  87.7338674  56.4620837 135.2656608  87.1748674
  55.8570837 135.1736608  85.9478674  55.4920837 133.8616608  85.7568674
  55.6770837 131.7566608  87.0608674  55.1760837 131.2506608  86.2338674
  55.1060837 131.5696608  87.9708674  56.6260837 131.2536608  87.2448674
  72.9860837  43.4636608  95.3598674  72.4010837  42.6296608  94.5328674
  71.3300837  42.1296608  95.2368674  71.3390837  42.7106608  96.4788674
  72.4130837  43.5666608  96.5348674  74.2270837  44.2476608  94.9818674
  74.6000837  44.9006608  95.7718674  74.0510837  44.8526608  94.0928674
  75.0350837  43.5786608  94.6828674  56.6090837 138.3466608  72.4498674
  55.8830837 137.6236608  71.6298674  55.5810837 136.4836608  72.3378674
  56.1610837 136.5956608  73.5748674  56.8180837 137.8026608  73.6248674
  57.1620837 139.7036608  72.0658674  57.7470837 140.1866608  72.8498674
  56.3610837 140.3826608  71.7708674  57.7820837 139.6346608  71.1718674
  77.1360837 124.3966608  47.7468674  77.7490837 124.5726608  48.8928674
  78.3850837 125.7856608  48.7708674  78.1080837 126.2786608  47.5228674
  77.3020837 125.3676608  46.8808674  76.3030837 123.1666608  47.4488674
  75.8540837 123.1606608  46.4538674  75.5050837 123.0486608  48.1828674
  76.8930837 122.2576608  47.5618674  68.3430837  90.4036608  32.3518674
  68.3490837  91.4816608  33.0988674  69.2900837  91.2336608  34.0698674
  69.8070837  89.9836608  33.8398674  69.1820837  89.4686608  32.7288674
  67.4350837  90.2526608  31.1478674  67.5410837  89.3006608  30.6248674
  67.6010837  91.0556608  30.4298674  66.3890837  90.3716608  31.4298674
  33.9700837 106.5286608  53.9298674  32.9360837 105.7616608  53.6798674
  33.3710837 104.4846608  53.9438674  34.6780837 104.5646608  54.3488674
  35.0430837 105.8906608  54.3328674  33.9260837 108.0346608  53.7668674
  34.8620837 108.5386608  54.0118674  33.1340837 108.4706608  54.3758674
  33.6480837 108.3086608  52.7488674  87.4620837  66.8056608  20.1708674
  86.4820837  66.2436608  20.8388674  86.2030837  67.1206608  21.8598674
  87.0570837  68.1866608  21.7398674  87.8580837  67.9626608  20.6458674
  88.0850837  66.1656608  18.9468674  88.8900837  66.7496608  18.4978674
  87.3340837  65.9736608  18.1808674  88.4730837  65.1736608  19.1798674
 100.8910837  78.8446608 106.2948674 100.8870837  80.0706608 105.8288674
  99.5880837  80.4986608 105.9718674  98.8700837  79.4736608 106.5318674
  99.7290837  78.4186608 106.7318674 102.1410837  77.9896608 106.3258674
 101.9900837  76.9916608 106.7418674 102.9350837  78.4776608 106.8908674
 102.5660837  77.8816608 105.3268674 108.2560837  80.7636608  91.7678674
 107.1020837  81.3576608  91.9568674 107.2920837  82.6466608  91.5148674
 108.5870837  82.7496608  91.0758674 109.1890837  81.5256608  91.2478674
 108.4910837  79.3096608  92.1248674 109.5000837  78.9546608  91.9108674
 107.7840837  78.6616608  91.6068674 108.2820837  79.1276608  93.1788674
  49.0730837 126.6316608  79.5308674  49.9050837 125.6266608  79.3928674
  51.1490837 126.2076608  79.3098674  50.9820837 127.5656608  79.4068674
  49.6380837 127.8146608  79.5488674  47.5760837 126.4356608  79.6608674
  47.0120837 127.3636608  79.7698674  47.3380837 125.7906608  80.5068674
  47.1770837 125.8936608  78.8038674 120.5320837  40.6776608  51.9738674
 121.1950837  41.0686608  53.0368674 120.2340837  41.5466608  53.8968674
 119.0170837  41.4096608  53.2798674 119.2330837  40.8486608  52.0438674
 121.2150837  40.0776608  50.7628674 120.5340837  39.8006608  49.9568674
 121.7940837  39.1956608  51.0378674 121.9630837  40.7596608  50.3578674
  83.0780837  93.4446608  26.5958674  83.6100837  92.2456608  26.6128674
  82.5390837  91.3836608  26.6168674  81.3950837  92.1406608  26.6008674
  81.7660837  93.4636608  26.5878674  83.9160837  94.7076608  26.5858674
  83.3330837  95.6296608  26.5708674  84.5940837  94.7186608  25.7318674
  84.5840837  94.7396608  27.4458674  96.1180837  80.8796608  48.1158674
  96.9560837  80.6446608  47.1348674  97.7250837  81.7826608  47.0478674
  97.2880837  82.6556608  48.0108674  96.2530837  82.0526608  48.6858674
  95.0760837  79.8706608  48.5548674  94.4500837  80.2056608  49.3828674
  95.5410837  78.9266608  48.8388674  94.4240837  79.5966608  47.7248674
 111.4890837  97.7536608  95.6348674 111.6320837  96.6006608  96.2438674
 111.3060837  96.8506608  97.5558674 110.9780837  98.1786608  97.6588674
 111.1030837  98.7396608  96.4098674 111.7510837  97.9306608  94.1538674
 111.5900837  98.9466608  93.7888674 111.1310837  97.2556608  93.5638674
 112.7690837  97.6346608  93.8978674 109.6940837 114.0806608  49.6978674
 109.5030837 115.1296608  50.4618674 110.6060837 115.1756608  51.2818674
 111.4160837 114.1206608  50.9508674 110.8090837 113.4286608  49.9298674
 108.7030837 113.6566608  48.6338674 108.9980837 112.7646608  48.0788674
 108.5300837 114.4616608  47.9188674 107.7180837 113.4796608  49.0658674
 101.4260837  67.7336608  35.7318674 101.3810837  69.0436608  35.7768674
 102.6970837  69.4406608  35.8288674 103.4740837  68.3116608  35.8108674
 102.6350837  67.2246608  35.7488674 100.1780837  66.8776608  35.6658674
 100.3730837  65.8046608  35.6338674  99.5700837  67.1396608  34.7998674
  99.5210837  67.0796608  36.5118674  56.0910837  70.6186608 134.9328674
  54.8270837  70.5806608 134.5838674  54.3580837  71.8516608 134.8188674
  55.3990837  72.5966608 135.3088674  56.5050837  71.7826608 135.3738674
  56.9990837  69.4096608 134.8328674  58.0240837  69.5926608 135.1588674
  57.0290837  69.0266608 133.8128674  56.6020837  68.5736608 135.4098674
 107.3410837  61.9816608  88.4588674 106.3170837  62.7586608  88.7208674
 106.7150837  63.5156608  89.7978674 107.9910837  63.1356608  90.1268674
 108.3730837  62.1466608  89.2508674 107.3280837  60.9726608  87.3288674
 108.2510837  60.3986608  87.2318674 107.1280837  61.4586608  86.3728674
 106.5000837  60.2726608  87.4388674  57.0320837  98.0366608 114.1558674
  58.0640837  98.5866608 114.7498674  57.7560837  99.9246608 114.8258674
  56.5210837 100.1016608 114.2568674  56.0740837  98.8726608 113.8318674
  56.9550837  96.5516608 113.8668674  56.0360837  96.2406608 113.3678674
  57.0590837  95.9696608 114.7828674  57.7990837  96.2266608 113.2588674
  61.7450837  33.9206608 120.9608674  61.9780837  35.2116608 120.9498674
  63.3480837  35.3236608 120.9228674  63.8700837  34.0556608 120.9178674
  62.8200837  33.1686608 120.9428674  60.3440837  33.3466608 120.9908674
  60.3080837  32.2556608 120.9968674  59.7570837  33.7026608 120.1438674
  59.7910837  33.7106608 121.8568674  33.8690837  38.4246608  55.5288674
  34.2260837  39.6426608  55.8618674  35.5490837  39.7346608  55.4978674
  35.9170837  38.5316608  54.9528674  34.8200837  37.7036608  54.9838674
  32.4680837  37.8956608  55.7588674  32.3210837  36.8656608  55.4308674
  31.7280837  38.5216608  55.2598674  32.1940837  37.9616608  56.8118674
  64.9670837 136.1716608  69.4308674  64.1660837 137.2076608  69.3458674
  63.0570837 136.7426608  68.6788674  63.2650837 135.4176608  68.3968674
  64.5010837 135.0716608  68.8898674  66.3230837 136.2436608  70.1028674
  66.8750837 135.3026608  70.0968674  66.2290837 136.5776608  71.1368674
  66.9470837 137.0086608  69.6408674  52.3380837  53.4106608  88.2238674
  51.7980837  53.9856608  89.2718674  52.8520837  54.5606608  89.9418674
  53.9950837  54.2866608  89.2348674  53.6390837  53.5456608  88.1328674
  51.5190837  52.6506608  87.2008674  52.1060837  52.2266608  86.3838674
  50.7440837  53.2856608  86.7698674  50.9570837  51.8436608  87.6708674
 103.6110837 130.5196608  90.5188674 102.5130837 130.0056608  90.0178674
 101.6960837 131.0856608  89.7758674 102.3730837 132.2146608  90.1578674
 103.6030837 131.8266608  90.6338674 104.7930837 129.6676608  90.9338674
 105.6350837 130.2356608  91.3338674 105.1540837 129.0676608  90.0978674
 104.4990837 128.9256608  91.6758674 120.7860837  65.2876608  89.8358674
 122.0450837  64.9856608  90.0468674 122.4200837  65.7666608  91.1148674
 121.3320837  66.5106608  91.4908674 120.2910837  66.1866608  90.6538674
 119.9690837  64.6466608  88.7318674 118.9370837  64.9976608  88.6778674
 119.9550837  63.5616608  88.8358674 120.4340837  64.8056608  87.7588674
  83.6020837  64.6396608  24.1058674  84.4500837  63.6406608  24.1478674
  83.7830837  62.5856608  23.5698674  82.5380837  63.0306608  23.2048674
  82.4440837  64.3556608  23.5588674  83.9370837  66.0156608  24.6458674
  83.1330837  66.7446608  24.5408674  84.8280837  66.4186608  24.1638674
  84.2160837  65.9636608  25.6988674  38.7970837  85.0076608  90.4338674
  37.9610837  84.0516608  90.1058674  37.2040837  84.5786608  89.0848674
  37.6460837  85.8566608  88.8558674  38.6720837  86.1116608  89.7348674
  39.8270837  84.8476608  91.5328674  40.4520837  85.7276608  91.6918674
  40.4790837  83.9966608  91.3368674  39.3500837  84.5926608  92.4798674
 111.3400837  58.1246608  35.2488674 112.1540837  57.1576608  34.9008674
 111.3680837  56.2666608  34.2088674 110.0920837  56.7676608  34.1828674
 110.0970837  57.9646608  34.8588674 111.8000837  59.3326608  36.0398674
 111.0100837  60.0536608  36.2558674 112.6060837  59.8536608  35.5228674
 112.2540837  59.0306608  36.9848674  57.0200837  52.3976608  61.6888674
  58.2830837  52.7186608  61.5398674  58.3520837  54.0496608  61.8768674
  57.0880837  54.4596608  62.2178674  56.2470837  53.3796608  62.0898674
  56.4970837  51.0016608  61.4188674  55.4250837  50.8856608  61.5868674
  57.0190837  50.2646608  62.0288674  56.7170837  50.6926608  60.3968674
 112.4970837  90.2716608  61.5298674 111.8300837  89.3206608  60.9198674
 112.2700837  88.1536608  61.4978674 113.2020837  88.4836608  62.4478674
 113.3330837  89.8526608  62.4508674 112.3160837  91.7376608  61.1948674
 112.9390837  92.4116608  61.7848674 111.2760837  92.0406608  61.3168674
 112.5160837  91.9246608  60.1398674  73.5560837 126.0056608  35.0858674
  73.9730837 127.1276608  35.6228674  73.4730837 128.1156608  34.8058674
  72.7670837 127.5086608  33.8008674  72.8330837 126.1496608  34.0008674
  73.8860837 124.6496608  35.6768674  73.4700837 123.8076608  35.1208674
  73.5430837 124.5796608  36.7088674  74.9640837 124.5086608  35.7538674
 111.5260837 110.0386608  88.0738674 111.6950837 111.3386608  88.1138674
 110.4230837 111.8606608  88.1178674 109.5410837 110.8116608  88.0788674
 110.2730837 109.6476608  88.0508674 112.6880837 109.0666608  88.0558674
 112.3910837 108.0166608  88.0218674 113.3320837 109.2116608  88.9238674
 113.3470837 109.2616608  87.2108674  79.4180837  51.8446608  37.4128674
  78.5620837  50.8546608  37.4948674  77.3280837  51.4586608  37.5548674
  77.5250837  52.8146608  37.5038674  78.8780837  53.0406608  37.4128674
  80.9140837  51.6216608  37.3258674  81.5000837  52.5406608  37.2628674
  81.1670837  50.9976608  36.4688674  81.2740837  51.0456608  38.1788674
  92.2060837  31.2966608  57.2248674  91.1270837  30.5796608  57.0218674
  91.3770837  29.3806608  57.6488674  92.6270837  29.4546608  58.2068674
  93.1420837  30.6976608  57.9208674  92.3560837  32.7086608  56.6948674
  93.3080837  33.1796608  56.9438674  91.5530837  33.3496608  57.0588674
  92.2350837  32.7346608  55.6118674  35.1190837 125.4786608  91.1168674
  36.4250837 125.4296608  91.0008674  36.8160837 126.7386608  90.8488674
  35.6880837 127.5176608  90.8828674  34.6080837 126.6856608  91.0558674
  34.2710837 124.2376608  91.3048674  33.2010837 124.4356608  91.3858674
  34.5830837 123.6826608  92.1898674  34.4270837 123.5306608  90.4898674
  44.7330837  49.6346608  53.7168674  45.2300837  50.6726608  53.0868674
  46.5800837  50.4246608  53.0088674  46.8180837  49.2176608  53.6148674
  45.6150837  48.7276608  54.0628674  43.2550837  49.4976608  54.0208674
  42.9900837  48.5806608  54.5498674  42.6620837  49.5466608  53.1068674
  42.8960837  50.3446608  54.6048674  35.0480837  30.6766608  72.2688674
  33.9750837  30.1766608  71.7028674  34.3240837  28.8916608  71.3578674
  35.6230837  28.6936608  71.7498674  36.0690837  29.8556608  72.3338674
  35.1000837  32.0926608  72.8048674  36.0590837  32.3676608  73.2478674
  34.3210837  32.2576608  73.5488674  34.8660837  32.8156608  72.0228674
  46.2220837 132.1186608  62.2588674  45.5110837 132.2026608  61.1598674
  46.3920837 131.9096608  60.1458674  47.6150837 131.6596608  60.7148674
  47.4810837 131.8006608  62.0758674  45.6310837 132.3706608  63.6308674
  46.3440837 132.2636608  64.4508674  44.7890837 131.7046608  63.8228674
  45.1900837 133.3666608  63.6898674  85.0190837  78.3306608 136.2178674
  83.9790837  78.6946608 135.5058674  83.2850837  77.5296608 135.2738674
  83.9710837  76.5086608 135.8788674  85.0840837  77.0476608 136.4798674
  86.0620837  79.3186608 136.6978674  86.8700837  78.8696608 137.2788674
  85.6070837  80.1066608 137.2988674  86.5050837  79.8586608 135.8598674
  35.3570837  44.7406608 107.9458674  34.3130837  45.2236608 107.3148674
  34.3810837  46.5836608 107.5118674  35.4930837  46.8406608 108.2708674
  36.1060837  45.6396608 108.5388674  35.6700837  43.2586608 107.9858674
  36.5700837  43.0066608 108.5488674  35.7730837  42.8546608 106.9788674
  34.8360837  42.6946608 108.4048674  77.3340837  77.5246608  23.2088674
  77.2040837  77.0426608  21.9958674  76.7780837  75.7466608  22.1748674
  76.6750837  75.5246608  23.5238674  77.0380837  76.6826608  24.1698674
  77.7910837  78.9446608  23.4758674  77.8520837  79.2026608  24.5338674
  77.1350837  79.6646608  22.9858674  78.7640837  79.1336608  23.0218674
  37.5890837  75.1916608  92.9048674  55.9730837  34.1586608  56.5158674
  59.1590837  68.8926608  43.5068674  45.1270837  49.7446608  46.8958674
  96.3750837  54.2206608 105.8198674  67.8530837  38.9036608  62.4948674
  97.4850837  72.1586608 123.1798674  49.0720837  52.7866608  47.9468674
  43.6760837  31.5096608  81.0418674  59.2700837  82.0086608  31.8948674
  98.9960837  62.6046608  96.2438674  52.5390837 126.5206608  88.4458674
 122.7150837  71.0016608 112.2028674 115.4830837  43.6876608  74.7298674
  30.2810837  52.7866608  94.9608674  49.2180837  39.2786608  90.6388674
  46.7330837  73.8886608 125.8178674 108.8520837 118.0776608  46.8238674
  19.2950837  72.7596608  77.3188674  20.8610837  73.1646608  81.3368674
  96.7630837 122.5186608  81.8568674 120.1750837  75.4826608 120.1558674
 114.4960837  82.6386608  76.2168674  81.3560837  27.6796608  85.6888674
  66.9580837  43.1216608  24.2308674  46.7150837  82.5126608  22.1158674
  91.9830837 100.3256608  25.2038674 101.5340837  71.0526608  43.4208674
  52.6160837 124.1786608  90.8638674  98.6630837  49.0646608  41.3228674
  54.9830837  50.2526608  85.1108674  98.5630837  83.4166608  22.4608674
  29.9290837  68.7116608  48.1968674  49.4070837  69.8776608  94.4638674
  41.2690837  93.0366608  67.0858674  34.5010837  62.0016608  80.1178674
  81.7780837  29.2496608  45.5838674  35.4300837  95.0056608  86.3508674
 108.2720837  59.5116608 104.0498674  59.1960837  86.0296608 125.1378674
  88.6820837  94.8436608  27.9348674  64.5180837 110.1146608  28.2178674
  42.1030837  41.0716608  93.0388674 135.9960837  68.9316608 102.3438674
 137.8400837  73.3136608  95.8908674 122.1340837  98.2646608  90.4048674
 114.6020837  67.1886608 118.8568674  48.2390837 101.5146608  89.2058674
  40.6420837  38.9886608  61.9338674 123.0040837  58.6696608  87.4288674
  46.0280837 114.7076608  87.8618674  44.6090837  93.0566608  48.4358674
 121.3430837  71.0226608  81.5088674  93.5990837  35.8516608 106.1568674
  33.6570837 115.3246608 107.9728674  47.7450837  60.9516608  65.4468674
 115.4750837  51.4396608  65.5688674 117.2790837  42.3176608  83.6928674
 105.8040837 134.4676608  72.2208674  28.9680837  66.5316608  42.3918674
  28.0980837  49.8706608 105.3508674 117.0750837  80.4336608  30.5938674
  46.9860837  54.3246608  91.4708674  57.3540837  53.8656608  33.9028674
  45.5700837 122.4016608  48.7128674  86.1610837  75.3766608  13.2328674
  37.0260837 110.0056608  70.1248674  46.6080837 126.4336608  56.6858674
  31.6090837  44.3186608  59.7408674  43.0320837  51.3296608  99.4368674
  30.1690837  81.9356608 120.8458674  53.0440837  98.9066608 119.4268674
 100.4200837 128.5836608  80.0498674  51.2510837 103.4886608  96.5408674
  74.5640837 139.7436608  55.5638674  44.4520837  36.0096608  95.8148674
 121.2780837  52.4526608 112.2258674  95.5090837  61.8956608 122.7768674
 129.9040837  99.2976608  70.2068674  72.4660837  46.0336608  91.7558674
  78.3920837  42.3256608 125.7328674  83.0710837 101.6046608 134.9078674
 123.5360837  93.6856608  38.1958674  89.9770837 129.3276608  89.1358674
 113.6980837  98.0596608  83.4898674  37.5410837  73.9316608  54.1838674
  63.3860837  35.1856608 104.7658674  76.6120837  45.0466608 105.5318674
 111.5560837  95.9606608 106.6308674  96.5890837  35.6276608  81.6048674
  22.1600837  48.6016608  92.3318674  99.0920837 135.4326608  62.5648674
  67.7060837 140.1666608  68.1578674  98.0510837  26.7986608  81.5598674
  61.7440837  32.2106608  74.7928674  22.0110837  86.5186608 108.3398674
 101.5710837  35.3576608  55.6958674  54.8150837 104.8786608 122.3878674
  32.3710837  95.0886608  99.9648674 117.8290837  61.2636608  65.6808674
  94.4660837  30.1016608  92.5838674  90.0080837  93.9366608 123.2448674
  48.7700837  65.7736608  57.2178674  46.5980837 113.6506608  66.6568674
 115.9430837  82.6106608  85.0078674  56.6490837  42.5736608  31.2028674
  35.3480837 106.9756608  85.8988674  63.1630837  92.5096608  32.2808674
  54.7710837 120.9846608  87.3188674  33.5190837 125.4836608  72.8328674
 118.5410837  98.1036608 117.5908674 111.8760837  95.3356608  88.4168674
  83.0440837 107.9396608  37.8838674  58.2530837 116.9256608  78.8808674
  98.3290837  35.3216608  78.0548674  26.3040837  53.8726608  61.4568674
  50.3030837  88.9596608 102.2378674 129.5920837 103.4536608 103.3498674
 108.9950837 100.2996608  44.3948674  25.2390837  92.3496608  99.0768674
  46.6000837 121.3706608  95.2198674  38.7340837  59.1646608  80.0588674
  84.2290837 100.9186608  24.9498674  49.3810837  52.2816608  71.9808674
 100.3750837 109.4826608  71.4818674  49.1550837  99.0766608 110.6868674
  74.2710837  69.3196608 134.9708674 122.1320837  50.8776608  41.6018674
 121.3080837 108.7616608  91.2078674  85.7990837  53.6756608 127.8978674
 119.4100837 113.6906608 100.1258674  52.0760837 115.5846608  41.6538674
 107.3790837  87.8796608  51.2788674  21.4830837  87.1456608  68.0388674
  97.8720837 114.4496608 118.0598674  55.6870837 114.0536608  33.0828674
 135.4510837  81.0236608  56.5228674 114.5860837  87.5426608 119.9598674
  43.9460837  64.2916608  75.5528674 133.8810837  78.4116608  49.8278674
 129.1160837 116.3536608  70.3678674  80.7690837  36.8626608  39.6318674
 126.8210837  54.4926608 107.0378674  95.2180837  20.5776608  63.2408674
 129.1570837  45.6926608  86.8118674 126.1210837  61.4846608 104.4108674
  78.4950837 100.3656608 119.0388674 120.5180837 117.1546608  92.5698674
  86.9600837 110.1596608  34.0188674  45.0290837 108.4346608  37.6878674
 100.8380837  43.9376608  96.5548674 131.9630837  70.7796608  66.2448674
  84.4250837  44.4646608 105.6568674  30.6160837  65.7026608 105.6518674
  58.1820837 124.3366608  80.6708674 120.3630837 106.6746608  76.5778674
 113.0630837  63.2206608  80.0828674  74.9810837  70.0646608 131.0158674
  92.7370837 136.5286608  72.1208674  66.0770837 116.8216608  62.2598674
  53.2300837  67.7966608  72.5828674 114.0510837  25.5456608  74.7438674
  86.9190837  26.6166608  92.7698674  40.5950837  37.2646608 109.8698674
 132.9420837 103.9876608  73.7118674 100.8040837  78.8866608  38.4458674
  82.9680837  93.9466608 128.3048674 125.6850837  82.5896608 100.3258674
 112.0820837 105.8906608  53.7758674 115.7650837  53.9696608  37.8118674
  68.7310837  47.9396608 115.9728674 100.5630837  74.5726608 133.9988674
  34.6980837  52.0776608  54.4938674  20.9800837 108.7996608  85.0138674
 104.3650837  76.3666608 112.0698674  74.1390837  42.6726608  45.6848674
  60.6140837  95.4426608 108.5458674 111.4320837  81.5766608  82.4958674
 132.9480837  55.5076608  63.2348674  28.3250837  50.3556608  94.9288674
  80.3680837  65.3826608  25.7148674 104.2200837  74.9416608  94.1518674
  35.2930837  45.1466608  54.2458674 112.2580837  94.1346608  51.0618674
  34.1210837  48.4026608  79.4818674 103.9350837  52.9996608 125.1298674
  59.5130837  35.3286608  78.8348674  82.9910837  58.6466608  33.4068674
 102.1240837  54.1986608 114.8978674  82.5690837  38.0886608 111.6338674
  73.3280837 118.4346608 121.9258674  40.4330837  40.4926608  88.5448674
  78.9160837  98.5776608 125.6178674  40.8520837  87.4906608 112.3018674
  77.6660837  58.7386608 128.2338674 109.2430837  89.4946608 110.8108674
  82.1890837 136.4406608  62.8178674 106.5720837 114.5836608  81.9958674
  22.8010837  83.6396608  42.6898674 117.0470837  55.0356608 107.6218674
 106.5830837  99.4446608 118.6638674  69.7680837 117.2786608  61.3988674
  28.6080837  70.0396608  97.7118674  99.1870837  53.7706608  33.9908674
  42.2510837  51.2226608 119.4168674  99.2280837  53.4266608 132.2498674
  73.7950837  76.7906608  22.7238674  42.9580837 104.9446608  44.7258674
 121.5910837  47.5346608  83.3578674  40.5710837  88.7636608  38.7698674
  70.3490837 125.8166608  47.1828674  93.8930837 124.0276608 110.9578674
  91.5520837  93.4076608  17.5258674  86.3560837 139.7566608  80.2678674
  42.3960837  48.9046608  90.8548674  66.4480837  32.2486608  64.6708674
  63.3130837 121.0026608  37.7018674  38.3630837  55.8286608  76.9478674
 112.2730837  88.1506608 102.5278674 102.6050837  54.0386608  43.7018674
 124.7940837  36.0526608  66.7848674 135.0720837  90.4476608  72.0698674
  28.3920837  73.0666608  69.9628674  88.0190837  34.1276608 117.1038674
  72.4340837  94.9876608 122.5328674  17.4550837  63.8906608  77.1448674
  35.5620837  82.0806608  85.1928674 102.4030837  84.7716608 122.6108674
 121.5220837  47.8666608  66.2718674 105.3880837 130.4656608 103.2248674
  43.7450837 124.9016608  46.9788674  48.7240837  84.8016608  74.8618674
  34.5120837  95.7196608  76.4908674  95.7950837 119.7706608 105.1478674
  41.8520837  38.8566608  99.6008674  47.7510837  96.6096608  70.0528674
 112.0680837  74.5056608 119.2768674  58.7740837 120.3536608  51.9578674
  39.1040837  41.3696608  60.5678674  50.4410837  73.2416608 123.7098674
 125.3010837  37.7906608  76.8718674  73.2730837  99.8536608 132.0788674
 114.2210837  59.2486608 118.6408674  36.3900837 107.0586608 116.7598674
  90.2060837  66.2946608 117.9818674  66.4900837 118.0046608 124.3178674
  52.3180837  65.0496608 129.8428674  95.1430837  71.6056608  26.7368674
  46.1100837 130.8056608  84.8408674 101.9080837  51.8826608  97.6228674
  32.8540837 100.1176608  72.1708674  99.5430837  40.6566608  49.5708674
 101.5640837 120.7276608 120.1088674  48.7700837  93.6686608 111.4888674
  40.9030837  66.8106608  79.8428674 109.0970837  57.0616608  89.0978674
  39.8980837  89.2846608  53.6248674 122.7080837 108.4636608  71.2398674
  35.2200837  91.4596608 106.1198674  55.4390837  73.5966608 122.1938674
  52.0580837  41.0656608 105.7758674 103.4390837  94.8376608 122.4578674
  19.9790837  58.1166608  57.7878674  70.5610837  48.0346608 105.6078674
 112.9800837  63.6916608  50.4008674 109.8860837  94.7506608  94.2988674
 126.5230837 104.8466608 108.2898674  70.3630837  40.1866608 118.5608674
 130.0520837 108.9806608  93.9988674  82.9160837 139.9666608  61.0198674
  52.3300837  98.2466608  79.5008674 102.2130837 107.9366608  51.1308674
  45.6810837  59.3206608 118.3988674 122.0610837  88.4916608  73.4238674
  78.3090837  55.5466608  36.4228674 108.5290837  83.8556608  29.1778674
 127.8790837  88.7976608  72.3878674 109.8550837 104.5776608 118.9108674
  34.7600837  61.4986608  34.0248674  84.4600837 115.1016608  45.2238674
  28.0940837  69.6856608  74.2768674  40.7290837  38.2706608  95.0118674
 138.2230837  80.3026608  74.5678674 121.8970837 117.5536608  83.4368674
 134.8720837  90.3806608  86.4548674  43.0410837  24.6806608  74.8438674
 119.0920837 121.8806608  70.7048674  43.5400837  78.4256608 127.0968674
  34.7760837  91.0476608  75.9958674  43.8240837 113.3646608  81.8818674
  33.1570837  69.5796608  69.6718674  88.2500837  58.5796608  34.3918674
 124.0380837  75.5246608  93.5288674  34.8440837  88.9416608  89.3288674
 111.1030837  45.7396608 105.2088674 134.9280837  92.8026608  59.4348674
  47.9020837  60.8426608  34.8588674 109.6010837  76.3516608  75.1158674
 110.1360837  45.4256608  72.1178674  96.8840837 119.6476608  73.4258674
  45.6650837  68.7366608  74.6568674  18.3490837  97.6836608  68.5058674
 123.0230837  62.2146608 105.0428674 130.9960837 104.4416608  85.6568674
  96.7960837  47.5126608 118.5468674  33.1290837  38.9116608  98.2678674
  18.0640837  74.9506608  60.1738674  51.8790837  49.2796608  38.2278674
  21.5110837  81.6306608  84.8158674  58.3860837  46.2416608 125.1288674
 111.9580837  48.0686608  52.5728674  48.5250837  33.4226608  65.2268674
 125.0650837  57.1496608 104.5678674  68.6020837 136.0766608  67.7468674
  57.7130837  35.6136608  58.7638674  45.5320837  41.6126608  52.5008674
  76.7940837  27.4256608  84.7428674  73.7470837  23.7916608  68.9278674
 120.4260837  67.6826608 104.7968674 108.2970837 105.7046608  51.1838674
 124.9470837  96.1316608  83.7218674  48.6600837  38.3116608  52.3318674
  67.4150837  38.1656608  97.5558674 117.9270837 112.2016608  87.5398674
  99.6260837  90.3036608  54.8268674  51.5340837  38.2546608 106.7398674
  81.5170837  47.9586608  34.0858674  94.6780837 125.5086608  44.8898674
 107.1500837  56.0066608  93.3938674 123.2860837  49.0816608 108.0758674
  80.9650837  70.3526608  13.5898674 117.8540837  55.2976608  92.6468674
 103.7690837  81.7306608 115.3078674  24.3650837  79.5426608  75.1678674
 113.3500837 108.7066608  70.0458674 105.2120837  31.3216608  82.5728674
 110.6940837 109.0986608  31.5278674  96.9040837  90.3526608  48.3738674
  93.4490837  55.1086608  22.6678674 118.7310837 115.1756608  55.9828674
 109.9830837  69.3616608 110.7238674 123.1130837  91.0186608 120.5978674
  37.2540837  87.1036608 120.2788674  41.5900837  70.5076608  32.0488674
  46.1850837 116.6836608  98.9858674 104.9440837  53.6316608  33.9828674
  50.6320837  37.5586608 113.3268674  23.6770837  80.6166608  54.3738674
  82.2360837  27.1916608  82.2648674  45.2270837  56.7606608  52.9458674
  19.6000837  75.3786608  82.3408674  60.5550837  23.1296608  59.3358674
  61.0010837 124.4186608 112.8728674 117.3280837  29.3496608  80.7298674
  75.2230837  26.2356608 102.2218674  13.3290837  71.2796608  72.0398674
  99.1160837 114.3456608  29.9218674 113.1830837  78.9096608  38.1748674
  67.7160837  21.1516608  55.0288674 104.4060837  68.3246608  73.3308674
 115.6620837 110.4746608  73.4388674 123.7220837  65.3986608  83.1468674
  28.7900837  61.9386608  91.6738674  73.7290837 103.8016608  21.6058674
  77.9480837  19.5536608  55.5038674  52.2620837  50.7486608 123.9148674
 115.4980837  44.3756608 104.0128674 116.2250837  72.5896608 114.7118674
  38.3970837  51.8536608 116.7058674  96.0960837  22.9816608  82.4248674
  47.8050837  91.0856608  84.8888674  89.8420837 108.7066608  44.3848674
  34.6930837  34.9906608  78.3178674  61.9860837  61.7836608 121.5958674
  89.0950837  32.3896608  41.8548674 112.8860837 115.9066608  80.6378674
  43.4940837  51.2886608  91.9858674  92.6200837  91.0736608  34.7648674
  50.6310837  64.6596608  87.3338674  72.6180837  83.7826608 121.9818674
  63.1960837 110.6486608  25.4468674  45.9640837  39.4136608  62.5358674
  58.5600837  97.9126608  30.1918674  82.0810837 105.3596608  39.7428674
 112.6820837  98.4246608  34.5658674  70.3670837  52.6866608  30.2818674
 116.3420837  92.8796608  51.9238674  45.5020837  61.6616608  92.6328674
  55.9450837  95.5066608 111.2078674  97.1090837 131.0796608  62.0308674
  39.5140837  62.0336608  78.9188674  45.4110837 108.4166608  73.0788674
  81.0630837  43.6096608  91.1888674 114.2200837  65.6946608 126.8798674
 132.9520837  88.5886608  62.3658674  42.5480837  59.0276608  30.6688674
 100.0720837 110.3136608  49.7028674  57.5540837  37.1906608  47.8398674
  81.5700837  36.0866608 113.4238674  22.6590837  95.5176608  89.2078674
  94.7610837  20.0476608  98.9518674  54.9960837  46.2656608  92.6458674
  15.5850837  90.4906608  59.4948674 121.3570837  75.5716608  51.1558674
  61.0820837  64.3106608 128.0398674 109.0150837  78.8426608  81.5568674
  25.0540837  83.4176608  96.7808674  92.3300837  39.3486608 101.9648674
  32.7000837 116.8066608  67.2478674  96.7750837  77.8836608 123.3488674
  44.9170837  78.5596608 102.8548674  56.4240837 118.6386608  87.2798674
  87.6500837 119.5816608  41.9528674  49.7560837  34.3416608  98.5828674
  75.6020837  61.7016608  27.1038674  36.1890837  38.1736608  67.8268674
 118.7830837  51.3786608 107.4408674  37.9080837  49.3086608  63.7698674
  41.4300837 110.5516608  50.8318674 117.0400837  45.7116608  93.4238674
  60.8380837  49.8686608 125.0418674 128.8210837  61.9366608  83.8088674
 101.2170837  80.3076608 108.6218674  64.1070837 104.3546608  32.4188674
 123.9110837  59.4216608  90.7818674  58.5820837 108.3156608  74.0978674
  21.8270837  76.7606608 103.4388674  56.3430837  52.1906608  35.8588674
  76.4700837  79.4086608  15.2988674 112.3270837  49.9406608  42.0348674
  54.1670837  86.4926608  33.7728674  29.8150837  77.5966608 102.9818674
  69.0800837 133.9986608  54.8148674  54.7310837 131.4346608  56.2708674
  88.2450837 133.4846608  88.9888674  86.5890837  78.5896608 124.0078674
 124.8730837  47.0576608  85.7318674  69.0550837 114.8316608  32.0068674
  89.1600837  54.7456608 105.0938674  64.1510837  15.5626608  76.2148674
  86.7060837  15.0016608  80.5908674 118.0920837  67.6776608  67.8868674
 132.3210837  99.4616608  77.2968674  55.8290837 138.7976608  66.5978674
 132.4310837  70.7416608  44.1598674  48.9850837  55.8786608  71.7348674
 128.7520837  97.9966608 107.1148674  40.6030837  33.1796608  78.6578674
  81.0780837  82.9876608  24.1338674  41.6530837  60.1996608 124.6918674
  89.8450837  51.9216608 116.1238674 106.9380837 127.3176608  98.2188674
  42.2910837  55.2456608  48.1518674  60.6120837 127.1086608  74.7378674
 132.1810837  78.0156608  84.0048674 101.3140837  68.5316608  48.9698674
 102.9440837 130.0896608  98.9728674  99.0890837 125.3206608  69.1668674
  30.6340837  76.4616608  67.7398674  50.1540837  55.8236608  23.7848674
  53.6070837  60.5766608  86.9298674  47.4010837 119.8076608  41.0148674
  72.4020837  26.1436608  96.8048674  45.5610837  98.6816608 107.6698674
  52.3640837  47.0346608 122.5268674  79.4160837  66.3186608  14.3638674
 108.0830837  62.8896608  65.4978674  33.4240837  43.9696608 105.0608674
  42.9450837  72.1256608  64.6368674 123.0790837 102.6876608  93.2208674
 130.1540837  71.2796608  62.3028674  80.1280837  86.8096608 125.9168674
  85.2540837 107.5606608  34.7558674  36.8330837  70.2266608  53.9358674
  43.6880837  91.7256608  60.1978674 106.1190837  94.2376608 118.4468674
  97.7020837 120.4966608  63.3068674  66.7340837  36.4076608  49.4448674
 129.8820837  73.2246608  39.7418674 133.4260837  91.3076608  81.7808674
 131.1840837  79.3046608  90.4348674  87.1010837  97.3836608  18.5568674
  81.7720837  64.1486608 139.7888674 112.0960837  87.8396608  25.4608674
 129.1530837  77.3826608  45.8608674  60.7860837  75.3486608  30.8028674
 125.8940837  74.6316608  86.2908674  52.2110837 115.7316608  99.0118674
  24.9120837  50.2556608  84.3198674 107.5680837  73.9536608  43.3588674
 123.2760837  68.7426608 121.6318674 112.2350837  83.6816608  51.1908674
  52.1040837 114.6026608 124.6858674 106.1540837  47.7456608  44.8818674
  40.4960837  75.8696608  52.2718674  61.3560837  52.2926608 105.6608674
  69.7030837  52.9216608  35.6238674  38.9020837  39.7586608 111.1208674
  38.6960837 117.7006608  43.4368674 109.9520837  97.9826608  77.8468674
  74.9440837  64.2686608 131.5948674  56.9530837  62.3616608  45.3028674
 120.4530837  54.2936608  47.8228674  95.5430837  30.1996608 104.4268674
 132.4940837  66.9686608  48.4118674  74.9240837  74.0676608 132.5098674
  61.1790837  39.2036608  99.3798674  75.1760837  95.4326608 120.0428674
  84.2940837 105.4376608 118.9038674  52.6710837  94.6986608 100.1918674
 112.4210837  58.4926608  33.0768674 101.9400837  83.4456608 126.5488674
  42.1750837  88.3396608  75.8398674 124.3490837  76.2986608  45.8598674
  88.8880837  47.3756608 104.2078674  48.1450837  95.3786608  90.5208674
  36.4340837  69.6056608 107.9128674  21.3850837 108.4646608  91.6718674
 101.4580837  81.0976608  99.4848674  52.6380837  44.7086608  92.6708674
 108.1260837  92.5646608  28.9208674 106.9740837 108.6046608  59.3898674
  46.4870837 100.1346608  77.4698674  79.3980837  43.2366608 113.0398674
  81.8660837  34.5956608  84.8738674 103.8300837  34.5796608 113.9728674
  29.9970837 101.1406608  39.6528674  30.0410837  72.9256608  56.2018674
  92.2650837 117.9476608  38.6188674  43.4200837  55.4106608  35.3048674
 128.1400837  71.3556608  72.2578674  89.5170837 130.8236608  75.4168674
  55.5480837  19.1186608  85.4888674 126.4910837  55.8116608  80.1258674
  96.6090837 119.7586608  79.1978674  32.7650837 106.0476608 103.8028674
  46.8230837 112.1346608  30.6058674  85.6780837 116.3316608  30.9048674
  28.4010837  57.6746608  77.9878674 103.2240837  40.5476608  43.6148674
  24.4770837  91.7966608  87.3638674  77.6720837  52.6746608 127.2358674
  73.0220837  23.8816608  88.6678674  57.2100837 101.1076608  36.7768674
  41.7410837  58.8496608  74.7438674  66.1220837  42.5896608 115.2158674
  53.2470837  65.4026608  18.4838674  80.2180837 120.7816608  60.2838674
  70.1180837 124.1206608  33.1538674  90.5030837 113.8016608  55.3808674
  29.1290837  66.5166608  47.3878674 129.1870837  54.6316608 100.3158674
 131.8590837  77.6866608 103.2928674  77.1200837 114.7376608 118.5748674
  38.4540837 106.1726608  93.9608674  83.0780837  46.3106608 105.0598674
  67.5870837  42.7506608 122.0908674  39.3700837  69.4846608 108.5058674
  38.2150837 101.7216608  43.5928674  56.4590837 135.0116608  93.1498674
  98.6220837  40.2136608  89.7178674 102.8700837 117.4536608 119.8048674
  54.6840837  85.2606608 110.8998674  59.8900837  44.7656608 116.5208674
 128.0430837  65.6956608 111.5948674 124.1600837 101.2166608 105.5088674
  50.0680837  83.3796608 108.1238674  52.0470837  80.7536608 136.5598674
 129.0170837  43.7846608  74.8028674  61.9580837  77.8666608 127.2538674
  94.4910837 137.8166608  58.4298674  80.9270837 139.8916608  58.1948674
 114.3720837  70.1886608 105.7218674 117.3540837  52.9426608  55.4278674
  36.8160837  30.2796608  82.0058674 112.7960837  83.7696608  33.7398674
  54.2600837 133.4836608  83.2858674  80.0160837  33.8816608  69.8948674
  56.4020837  58.2946608 132.6508674  60.0880837 128.4496608  97.4238674
 126.1550837  76.8466608  92.9258674  40.8680837  73.4276608  43.8118674
  76.6710837  61.2496608  16.5188674  27.3460837  85.4696608  66.1338674
  23.1140837  72.9056608 108.0068674  49.0160837  66.2106608 123.1138674
  51.5620837 107.0806608  40.4228674 100.4750837 124.5656608  66.0068674
  83.5440837 113.0246608  61.1998674  37.5180837  79.1106608  97.6678674
  62.7800837  35.3816608  49.7038674  34.3970837  90.8346608  49.0258674
  72.6010837  46.8496608  97.4858674  57.4330837  24.4836608  83.6748674
 102.7580837  85.4236608 116.3858674  39.2890837  77.7626608  97.6648674
  55.4690837 115.3526608 100.6868674 104.4660837  42.3506608  76.9738674
  50.5200837 106.5356608  59.0138674 131.2920837 101.7016608  71.3068674
  53.8010837  33.5666608  55.0128674  53.4940837  23.3696608  98.9228674
  84.3560837  27.8356608  62.5138674 133.9250837  93.8176608  78.5188674
  64.1940837  20.0896608  89.1108674  51.5820837  52.4976608  60.7338674
  99.1700837  45.9466608  46.2378674  40.0580837  64.6406608  52.3338674
  53.8710837  90.3156608  98.8128674  67.4660837 121.8416608  95.2968674
  63.5220837 103.4736608  20.7648674  14.4560837  75.7136608  91.4748674
 130.3100837  73.2916608 113.8228674  36.6560837  90.5916608 122.6658674
  72.5170837 137.5406608 101.6668674  47.9020837  58.2346608  32.1448674
  43.5610837  46.8936608  83.1918674  25.1640837  99.9686608  63.5928674
  91.9000837  51.4866608 122.5398674  43.3100837  48.5926608  51.2008674
 113.6560837  84.3406608  89.0298674  66.2010837  19.0456608  98.2678674
  50.5510837 111.0046608  82.6788674  36.7700837  35.4576608  94.3908674
  95.1210837  90.3426608 116.9718674  27.9360837 100.6136608  84.5838674
 109.0670837  35.5626608 111.6478674  86.4840837  86.5476608  39.3288674
 115.9890837  39.5416608  56.0218674  65.6060837  33.2046608 115.6458674
  61.3570837 104.3556608  27.2628674  58.1400837 109.1776608  48.2778674
 130.7870837  87.9006608  66.2638674  44.9930837 103.6716608  69.7658674
  44.3200837  72.1876608  26.0828674  66.0560837 128.2006608 113.1558674
  58.3770837  77.3436608  28.7818674  45.4140837 112.8066608  59.2458674
 119.3610837  70.6406608 111.2238674 111.1480837  52.3236608 108.3678674
  82.2970837  99.3346608 129.8428674  37.0650837  87.5026608  58.3198674
  87.4990837  63.1206608  26.3828674  56.4120837 117.9086608 100.3708674
  66.5870837 129.0746608  87.8998674 112.7240837  77.4736608  92.0878674
  91.9310837 120.1246608  35.7328674  18.9100837  61.5066608  56.4258674
  36.3530837  72.2416608  37.9608674  70.5230837  28.1306608 106.2678674
  49.1060837  49.3236608 110.1748674  77.4260837  41.4956608 116.4418674
 116.5400837  63.7186608  61.0648674  65.1060837  40.7476608  73.2408674
  90.9850837 128.2886608  70.3878674  92.6080837 116.4226608 104.6778674
  97.4970837 105.2566608  39.0708674  74.5160837  57.2306608  34.9658674
 109.6390837  36.7456608  46.7548674  50.3450837 123.0126608  99.2718674
  30.1650837  71.7546608  41.8028674  54.1910837 112.0766608  84.5108674
 106.2170837  52.5086608 124.6218674  58.1120837  89.2536608 108.9858674
  76.1500837  14.7746608  68.9608674  45.2330837  37.7666608  46.9208674
  55.4310837  41.8086608  84.6808674 108.2800837  30.2606608  68.1758674
  21.5220837  99.2886608  86.4528674 109.9530837  69.8406608 100.7038674
  49.4940837 110.9086608  36.7078674  21.7870837  54.6076608  76.1048674
  97.0490837  79.6626608 114.5148674  53.8450837  39.5886608  30.7658674
  44.2080837  87.6446608 100.3298674  92.7490837 132.0036608  85.6118674
 109.2600837  32.2946608  65.8398674  80.1810837 140.0316608  62.5798674
 120.8260837  88.7826608 121.0428674  85.0960837 124.7306608 120.3788674
  89.9340837  89.6266608 119.6448674  82.1000837  71.5516608  20.2858674
  42.7760837  31.2256608  53.7988674  63.5880837  31.1556608 113.4678674
  90.4420837  34.5386608  76.6648674 106.6350837  56.8506608  53.2478674
  61.8420837 116.4096608  56.0608674  13.1140837  79.6876608  74.3598674
  92.7840837  48.0046608 126.8938674  82.2010837 139.6846608  64.8888674
  48.4660837  30.7256608  83.0368674  68.8130837  30.4136608  72.7588674
  25.8960837  88.5076608 115.1678674  59.3840837 129.4136608  44.0698674
 102.5880837  24.3216608  54.8868674 133.8850837  68.4586608 101.2558674
  45.5620837  71.7756608  78.8918674  30.3650837  45.9776608 108.0208674
  21.2130837  62.0006608  50.4958674  35.8260837 101.3846608  86.8008674
  90.9270837  76.3716608  14.2688674  32.3750837  99.6736608  49.6038674
  44.5030837  53.2606608  52.5388674  70.4460837  93.4006608  21.9068674
  44.9550837  83.8966608 119.5338674  23.5280837  99.9216608  67.1258674
  45.0330837  34.4756608  49.3668674 116.9290837  36.4506608  65.0478674
 114.8810837  42.1706608  77.4498674  72.6450837  54.7566608  24.2888674
 110.8500837  87.8456608  97.0138674  45.3150837  66.6206608  68.1368674
  24.7360837  94.1616608  97.2998674  47.9700837  72.7816608  56.3368674
  80.8280837  38.6806608  90.3458674 118.3950837  71.3856608 122.1068674
 117.1330837  47.3406608  70.8258674  98.8510837 107.6236608  71.3658674
 109.8220837  81.1706608  96.4818674  69.9300837  76.6286608  27.5538674
  76.8860837 116.4316608  49.6108674  49.5000837 107.2606608  36.4288674
  56.4890837  23.5286608  78.7838674  75.9780837 111.9606608 111.7618674
  51.7930837 119.9096608  43.2678674 123.5240837  85.9596608  77.7238674
  99.2200837 122.7976608  57.5398674 131.0440837  71.8486608  46.3898674
  37.1350837 100.4016608 108.6208674 104.2580837 100.2136608 103.5748674
 127.2200837  96.0716608  59.2598674  47.9390837  91.1806608  21.0218674
 135.2190837  69.3736608  52.6978674  65.5830837 121.1706608  66.0098674
  88.8400837 100.3076608 130.1758674  43.7540837  54.1766608  57.9808674
  52.9720837  97.6666608  94.5998674 122.7740837  55.4056608  53.4138674
  31.3780837  34.4076608  77.4678674  80.0190837  24.6996608  75.0968674
  75.5420837  72.0796608 136.4868674 123.0760837 102.5266608  43.4608674
  41.7720837  78.4996608 107.9508674 106.3670837  24.6036608  72.8978674
 107.4010837 124.6946608  64.8748674  91.4990837  63.2426608 131.4438674
  57.7960837  81.6406608 124.5428674  97.0990837 137.3676608  70.4708674
  88.2950837  42.5796608 123.3268674  79.9770837  46.7626608  99.4888674
  26.4270837  80.6406608 114.0678674 133.0210837 109.2266608  65.7038674
 109.4750837 106.2356608  75.5728674  70.7430837 122.1316608 112.7268674
  34.0910837 121.2516608  90.3178674  51.9170837 115.3556608  86.6468674
  15.5360837  81.1936608  88.4378674 101.9830837  77.5566608  48.4078674
  59.7280837 123.5226608 115.2038674  70.0520837  41.0486608  82.2338674
 120.1050837 121.8046608  91.6868674  61.0410837 132.1556608  63.7508674
 123.5680837  77.6396608 102.7288674 123.8520837  95.1316608 106.6268674
  95.3600837  97.8716608  19.6808674  54.9100837  89.5406608  24.5458674
  86.3280837  38.3526608  85.0118674 121.6150837 109.0936608  64.9548674
 103.1050837  93.1896608  69.3148674  85.6110837 119.8076608 106.4778674
  91.9770837  88.2606608 131.7448674  72.1350837  99.5416608  19.1998674
  44.3480837  88.5866608  70.8478674  91.4580837  34.9506608  35.2478674
  93.7870837 106.5966608  38.8428674  50.5450837 105.9046608 100.7978674
 130.0910837 100.1556608  86.2148674  66.8670837  22.8466608  74.8428674
  67.1460837  47.1576608 108.4198674  37.6130837 104.8206608  42.3818674
  36.2060837 120.4716608  81.4678674  52.5540837  29.2836608  49.3698674
  98.9360837  95.0776608  34.1048674 107.8950837  41.1816608  64.5558674
 108.1840837  92.4136608  93.4138674  78.3920837  68.1206608 130.7318674
  62.3530837  79.5116608  30.7088674 124.3140837  44.7916608  56.1158674
  37.6850837  90.2156608 115.9468674  20.3100837  78.5296608  84.8208674
  91.6340837 140.9456608  80.0198674 104.5610837  74.8116608  67.1148674
  61.2050837 108.2656608  31.8888674 109.7340837  68.6846608  24.6638674
 112.3890837  33.4666608  97.8838674 126.1820837  85.7306608  61.5138674
 127.1680837 115.1186608  91.3548674  38.1610837  37.5826608  92.6758674
 116.4160837  59.9216608  81.2018674  63.3240837 122.4486608 114.2748674
  70.1110837  49.2936608  98.5738674  68.8870837 121.0096608  85.8398674
  95.3310837 109.2006608 119.0038674  84.3290837 115.5066608 127.7058674
  80.0690837  79.1056608  20.9098674  74.2030837 127.5006608  61.7958674
 110.0900837  81.4376608  67.5858674  56.5660837 120.1666608  45.5518674
  19.2080837  73.8326608  52.5678674  37.0080837  81.1596608  27.2258674
  42.4930837  79.5806608  92.0968674 127.5240837  50.8616608  52.3638674
  55.2980837  87.2926608 137.1328674  99.0550837  27.0776608  58.6288674
 119.2360837  89.3446608  89.0598674  31.0920837 111.0446608  52.7588674
  69.4170837  85.1036608  30.8178674  58.1350837  61.1046608  40.4818674
  86.3690837  51.8766608 107.7668674  87.6730837  81.1436608  36.5928674
  72.1280837  23.2556608  91.5888674  74.8230837 140.3326608  65.1908674
  56.4130837  42.4386608 108.7368674  79.2340837  82.1606608 138.8648674
  78.8660837  56.6566608  22.7688674  33.7960837  85.1896608  81.7698674
 125.1660837 114.0516608  97.6368674  55.5460837  36.3636608 112.2608674
 127.9130837  48.0646608  72.4538674 112.8650837  94.0976608 102.2408674
  52.3620837  45.5716608  39.3618674  38.2400837  44.5146608  87.3188674
  70.6200837  97.1976608 117.6328674 127.6100837  49.0296608  59.8548674
  42.4140837  71.0656608  43.6228674  65.3750837  92.6096608 115.1278674
 124.8660837 110.4696608  75.3558674  56.6430837 134.9736608  70.5068674
  84.0910837  94.1516608  38.0248674  85.1790837  35.9276608 125.0658674
 133.7550837  91.9966608  93.4688674  40.2850837  78.3276608 100.2428674
  98.6770837  61.0646608  41.6788674 115.4550837  60.8336608  58.6158674
  63.3000837 114.4806608  63.7938674  79.8820837  74.7866608  26.2678674
  35.3150837 106.3696608  41.5318674  54.8900837 136.3046608  92.1498674
 108.3100837  97.1206608  44.1608674 111.3450837 108.5366608  60.4978674
  31.3670837  76.4056608  74.5338674  24.9790837  78.3386608  51.7768674
  68.4040837 124.6666608  70.0818674  98.8180837  37.1126608  34.3578674
  41.5380837  96.1836608 122.6328674  15.2790837  61.6956608  66.8668674
 106.8960837  94.2106608 115.8048674  24.5950837  99.1766608  70.0118674
 118.8150837  73.5516608 120.5588674  63.8270837  46.9036608  35.5438674
  73.5120837  61.2266608 122.9258674 133.8930837  98.7616608  73.6018674
  72.8550837 119.3066608  37.4298674 100.0850837  25.8736608  57.0788674
  61.3610837 138.3056608  56.7008674 125.5060837  92.1016608  59.4368674
  39.9740837 118.4646608 104.5448674  72.3240837 115.9506608  31.1238674
  75.1000837  56.9376608 121.0188674  18.4820837  79.6696608  85.2678674
  22.2170837  75.5366608  46.9598674  53.7520837  78.7626608  22.0948674
  81.6180837 112.5836608  51.6918674  16.4420837  67.1656608  86.3758674
  96.3690837  88.7746608  27.5708674  99.9080837 102.7716608  46.1848674
  34.1350837  68.6256608  59.5118674  76.2290837  97.7296608 127.7438674
  42.0340837  74.2426608  49.0318674  39.4860837  62.4066608  52.5128674
 111.5160837  65.4956608  40.7038674 120.5690837  60.5976608  42.6448674
 105.6960837  81.4846608  73.3258674 106.4360837  88.4996608 118.0598674
 119.7410837  62.5366608  85.6768674  28.0360837 117.4956608  80.4338674
  30.3650837  78.4446608  48.9878674  97.3810837  37.3626608  32.4068674
  39.8240837  57.2396608  96.9168674  85.1180837 104.8346608  35.5468674
 101.1750837  69.8906608  46.5718674  58.3100837  70.0256608 131.1138674
  94.1590837  32.0006608  36.4408674 112.2450837 113.0806608  76.8128674
 105.3490837  98.1776608 103.2968674  93.5560837  25.1416608  68.6088674
 116.1100837  76.0876608 107.2998674  95.9100837  57.4766608  97.6918674
  53.6520837 106.8816608  60.6648674  66.0260837 118.9286608  91.8648674
  40.4390837 102.7986608  52.1128674  29.0280837  95.2356608 117.6448674
  36.9370837  97.1566608  40.1598674  50.7580837  54.8236608  59.4118674
  78.3720837  32.8226608  46.3368674 124.3450837  86.3626608 117.7668674
 134.3010837  84.1746608  81.6738674 121.0770837  43.3076608 105.4528674
  95.7280837 122.3346608 102.5718674  69.6980837  83.3686608 134.2488674
  40.7560837 123.4466608  49.4058674  49.1160837 101.7296608  71.5518674
 104.1360837  54.7676608  24.0178674  59.0350837  91.0536608 104.8488674
  50.9590837  24.8206608  76.9418674 123.6680837 112.3836608  87.6228674
  22.3540837  65.1266608  61.7828674 103.8120837  76.7016608  77.9678674
  28.6190837  43.1766608  82.9378674  80.9980837  29.8386608 102.3398674
  92.8940837  99.2836608 135.0268674  50.8340837  73.7946608  21.6288674
  33.6700837 101.1006608  47.4628674  92.1820837  99.7466608  28.0268674
  26.6660837  57.1066608 102.5268674  81.0670837 114.8536608  49.2808674
  72.4330837  38.2206608  83.8178674  56.3650837  42.4496608  69.9458674
  36.1940837 111.8986608 111.2958674  73.3560837  44.6316608 111.7538674
  77.7600837 123.3226608 119.0328674  90.6950837  57.6796608 117.4438674
 105.0330837 118.1666608  63.6948674  95.0460837  29.6816608  47.6738674
  74.7130837  76.8446608  26.7298674 108.9920837 130.4366608  98.3928674
  61.9020837 107.8486608  36.8458674  76.0420837  79.4726608  12.5528674
 112.4890837 107.3356608  97.1288674  21.8980837  88.2816608  98.7908674
 123.2560837  74.6286608  91.6498674 102.3230837 116.4386608 114.3128674
  69.3590837 132.1476608  82.8298674  81.8440837  96.1166608  31.5758674
  46.2460837  88.7336608  44.0298674  25.2870837  75.4966608 107.8748674
  28.1960837  77.2436608  47.5368674 116.0850837  65.9076608  75.8748674
  51.9530837  62.5836608  42.1068674 104.6340837  31.3606608  91.3208674
 113.3930837  39.3496608  55.9158674 135.9350837  76.5196608  83.1478674
  35.8230837  44.8716608  41.5168674 109.8240837 105.3376608  72.1478674
  42.2630837  85.0596608  25.7868674  42.6330837  75.4136608  24.9718674
  34.0110837  49.4966608 112.1218674  84.9310837 128.1276608  99.9848674
 101.0480837 131.3156608  53.0528674 109.1170837  74.0296608  70.5358674
 120.8900837 110.9876608  48.5058674 103.6120837  55.3606608  37.4398674
 119.5960837  59.4206608  95.4948674  63.8040837  29.8776608  90.6158674
 110.3460837  62.8076608  38.8588674  88.8860837  91.8286608  17.4478674
  78.6030837  91.6856608 127.4068674  85.0020837 103.6706608  54.0248674
  52.8480837 106.1906608  58.6688674  44.0560837  86.1716608 112.9558674
  61.3020837 119.3026608  73.9478674 125.3660837  80.3846608  82.1178674
  46.1450837 105.9716608 117.9328674  30.2340837  95.5786608  92.9198674
  89.3360837 121.0626608  63.1878674  44.7040837  79.7746608 122.1888674
  92.5890837  69.7096608  30.5428674 134.4390837  81.0536608  90.2088674
  80.0740837  36.7006608 120.3188674 115.5780837  43.7406608  69.8868674
 108.5420837  39.2376608 100.7048674 110.1690837  70.1936608  86.0188674
  65.2190837  43.7566608  36.5388674  28.2040837 114.5976608  66.3618674
  46.6500837  67.1306608 131.2868674  68.2630837 107.2306608  54.0888674
 104.3010837  71.6476608  45.2168674 129.8950837  61.0666608  77.7208674
  74.4650837  57.0566608 134.4718674 114.1310837  44.5436608  52.5258674
  69.7250837  39.8906608  89.8338674  74.9710837 106.2406608  36.1768674
  16.4370837  99.3456608  88.1428674  41.5100837  90.2416608  58.3258674
  84.6730837  49.1586608  36.5588674  35.5300837  79.3426608  99.9158674
 104.2030837  36.8086608  82.0128674  66.1850837  34.0576608  60.3448674
  52.6180837  96.8866608  98.6908674  31.3470837 105.0156608  64.4608674
  88.5460837 139.1916608  70.8158674  45.4110837  40.1396608  69.5288674
 119.8050837  70.4096608  90.0038674 108.4060837 117.6536608  76.5648674
  53.0820837 127.4356608  46.1388674  22.2470837  56.4386608  98.9808674
  54.4730837  67.7026608 126.4208674 126.4440837  42.4616608  98.3848674
  58.2280837 113.8976608  73.8668674  34.3440837  76.5726608  85.7898674
  65.7250837 109.6116608  49.8858674  20.2850837  55.1656608  93.0518674
 144.5380520 152.5597070 150.6979220 144.4574570 151.6451680 150.4270930
 144.1244940 153.0564140 149.9918930 142.6698560 154.3376090 152.5788490
 141.8940660 153.8576530 152.8687060 143.3211490 153.6581740 152.4044650
 135.0956340 149.6097790 147.2406640 134.2073040 149.9513760 147.1386520
 135.3797530 149.4098110 146.3487470 133.0589350 152.2103440 153.1246340
 133.6305460 151.4425640 153.1249980 133.0590890 152.5092200 152.2152950
 143.1412720 149.8203660 152.8127580 143.5177540 148.9475540 152.7001250
 143.0432230 150.1562360 151.9218020 137.2717730 148.1929290 148.2745020
 137.3784480 149.0933020 148.5813780 136.3610090 148.1447260 147.9839670
 146.9236840 147.3154100 149.7455920 147.7446460 146.8250670 149.7881400
 146.9570920 147.9051760 150.4987760 147.1598320 149.2554480 152.5183460
 146.4553890 149.5439370 153.0986570 147.5210480 150.0654590 152.1583020
 140.7604780 145.0006450 151.2048660 141.0679760 144.4453340 150.4884160
 139.8305480 145.1350910 151.0221650 143.1485540 153.0655280 147.9408780
 142.2214820 152.9992660 148.1697250 143.3010360 154.0035410 147.8264020
 143.1354620 149.3372280 144.9375940 142.1958290 149.4986240 145.0228400
 143.4537880 150.0557960 144.3911930 147.1782830 154.6275580 148.4444030
 146.5595250 154.2895130 147.7970330 147.1607280 153.9835340 149.1523220
 138.7542180 153.5920020 150.7228510 138.3499180 152.8797270 150.2274410
 138.8405300 153.2473260 151.6116550 145.3547530 153.8662390 145.4516780
 145.7940810 153.0284820 145.3054600 146.0675950 154.4991790 145.5380920
 148.9364670 145.1205200 143.7657820 148.6237330 145.2132030 144.6656890
 149.6977140 145.6986230 143.7155250 135.4546810 152.4865000 148.2235160
 135.3344410 153.2127090 147.6116430 135.1447700 151.7167910 147.7463070
 137.9210470 145.8300070 151.6058830 137.4778620 146.6109610 151.2743350
 138.4795460 146.1529960 152.3129770 141.0369290 145.4510770 146.4864660
 140.4123470 145.4470640 147.2117970 140.9499410 144.5841730 146.0900630
 137.7124690 150.9533640 149.3340080 137.4865610 150.7370810 150.2386700
 136.9317220 151.3862100 148.9886050 144.9422450 150.9597010 147.9330730
 144.3431340 151.6832810 147.7494350 145.4902060 150.8973790 147.1507180
 143.5487320 149.5960550 149.9634010 143.9416890 149.9132750 149.1502700
 143.9104170 148.7172430 150.0778530 132.5851490 146.1861350 152.1864210
 132.2964540 146.7564210 152.8989190 133.3297250 145.7065800 152.5495440
 132.7721720 150.1281470 143.3966930 132.6896390 151.0712230 143.5381920
 132.4204780 149.9856380 142.5179280 140.5719850 148.8620500 152.4637280
 140.5755910 148.4210450 151.6141820 141.4670970 149.1837830 152.5709100
 136.4222230 148.7446990 151.4231490 136.0822280 149.2222220 152.1798540
 135.6599550 148.2912110 151.0632590 140.6340000 149.8632580 145.4544040
 140.7552820 149.8219060 146.4029860 140.2488510 150.7256730 145.2990770
 139.6461500 152.1733720 144.8527340 139.0778400 151.7251970 144.2263250
 140.3550500 152.5326500 144.3192490 133.7368310 147.6665970 150.3396160
 133.4515230 147.3021640 151.1774780 133.6747170 146.9346430 149.7259300
 143.4106900 146.5595230 147.0609530 142.5971510 146.0608400 146.9854840
 143.2168850 147.3993480 146.6445880 146.1255290 150.9314880 145.3571690
 147.0134910 151.2432110 145.1823030 146.0960380 150.0587130 144.9652270
 148.3969560 152.2426720 144.8251550 148.3133280 152.6740940 143.9747990
 149.1163750 152.7025070 145.2578370 133.2298970 152.8024920 144.2992860
 134.0993820 153.0849720 144.5828780 132.7389290 153.6160790 144.1841670
 140.3933780 154.1898130 148.4201140 140.8496560 155.0003380 148.6461330
 140.0421990 153.8721270 149.2519630 136.2945560 144.5335780 148.8923660
 136.1660190 144.5253680 149.8408580 135.4707580 144.8718870 148.5414670
 148.1540300 147.7406150 146.9119370 147.5253460 147.8451820 146.1977600
 147.6592220 147.9602930 147.7013250 140.1224330 150.0192100 148.3277250
 139.4140480 150.4878440 148.7690860 140.4068810 149.3614110 148.9622440
 144.1539760 146.7442760 149.7673040 144.0307540 146.7628890 148.8182550
 145.1024320 146.7921700 149.8871440 138.3259350 148.3277180 145.7027960
 139.1749880 148.7647330 145.6368150 137.9590620 148.6397440 146.5300020
 147.2469130 152.8989940 150.6159530 146.3059270 152.9140170 150.7907220
 147.5613200 152.1125900 151.0619830 137.2250770 154.5809540 144.1763490
 137.9914040 154.4690900 144.7388920 137.3025460 153.8847510 143.5240260
 135.9197530 152.0134610 144.8596380 136.0001120 151.0662120 144.9713780
 136.8117280 152.3441490 144.9657040 139.2569800 154.5774670 146.1506130
 139.6786220 154.4114540 146.9937520 139.3820640 153.7674900 145.6561270
 141.7697440 153.6012280 143.3983230 142.2903100 152.8861300 143.0324380
 142.4165840 154.2398150 143.6983740 138.1528700 150.6507900 143.0964290
 137.9517760 149.7875260 143.4577630 137.9820750 150.5641260 142.1585890
 145.6317010 145.4616130 145.6251170 145.9119300 144.6184030 145.9810590
 144.8582740 145.6939240 146.1389920 136.9511500 147.7508520 143.0842170
 137.2537400 147.7575950 142.1761320 137.6906090 147.4006380 143.5809830
 140.1696430 146.6943140 144.0698370 139.8218430 146.0167130 143.4900820
 140.3709200 146.2332650 144.8841760 133.5102070 153.2230790 150.4662740
 132.8550910 152.9542430 149.8222440 134.3480020 153.1135270 150.0164720
 146.4592510 148.0172080 144.6881230 146.8777390 147.8303060 143.8477890
 146.1528570 147.1651130 144.9984160 149.9582240 152.9296220 148.3857030
 149.5825840 152.1624150 147.9538320 149.2285360 153.3118920 148.8731960
 132.7240150 150.4329720 146.4088070 131.8204230 150.6959920 146.2339730
 133.2080770 150.7040890 145.6288030 149.2333200 151.1553710 151.6864270
 149.7570680 150.6616360 151.0554440 149.8192620 151.2904070 152.4311840
 135.2667360 149.4895260 144.3182450 135.9759060 149.0678480 143.8329730
 134.5507300 149.5570490 143.6865800 134.9141520 145.5434590 143.3585100
 135.6369650 146.0843530 143.6766320 135.1866040 145.2698010 142.4826640
 148.7233170 150.4127060 147.6256680 149.2192290 150.1797930 148.4105560
 148.5249240 149.5738900 147.2094320 147.5469020 145.9803470 152.4756040
 147.9877110 145.9248570 151.6277640 147.2776610 146.8961480 152.5466220
 149.4107590 145.6118710 150.4864860 149.3495990 144.6679930 150.3395880
 150.1899620 145.7198800 151.0318320 134.3388360 145.5827850 146.9520670
 135.0967720 145.6956730 146.3784700 133.8765530 146.4197050 146.9064100
 140.8802170 147.6967120 149.9422980 140.0676680 147.3224010 149.6018860
 141.3843810 146.9412200 150.2444170 145.3827150 144.3609570 151.1806050
 145.9856520 144.9329780 151.6554570 144.6420140 144.9249010 150.9579950
 148.5261750 144.7631130 146.4546330 148.7212380 145.6614580 146.7213760
 147.7391620 144.5318210 146.9479280 136.7113510 146.1091900 145.4922640
 137.2406270 145.3221700 145.3630590 137.3441830 146.7883090 145.7258170
 138.9051350 145.8467040 148.5468030 138.2754090 145.1454350 148.7138160
 138.3656490 146.6071170 148.3301190 144.5380520 152.5597070 131.9235730
 144.4574570 151.6451680 131.6527440 144.1244940 153.0564140 131.2175440
 142.6698560 154.3376090 133.8045000 141.8940660 153.8576530 134.0943570
 143.3211490 153.6581740 133.6301160 136.6864390 154.6495900 134.6820760
 135.8549270 154.3944610 135.0817270 137.2945370 154.7206670 135.4178680
 135.0956340 149.6097790 128.4663150 134.2073040 149.9513760 128.3643030
 135.3797530 149.4098110 127.5743980 133.0589350 152.2103440 134.3502850
 133.6305460 151.4425640 134.3506490 133.0590890 152.5092200 133.4409460
 134.3014220 147.6187800 136.1371780 134.1217060 146.7213550 136.4174540
 133.8994300 148.1659670 136.8118730 143.1412720 149.8203660 134.0384090
 143.5177540 148.9475540 133.9257760 143.0432230 150.1562360 133.1474530
 137.2717730 148.1929290 129.5001530 137.3784480 149.0933020 129.8070290
 136.3610090 148.1447260 129.2096180 146.9236840 147.3154100 130.9712430
 147.7446460 146.8250670 131.0137910 146.9570920 147.9051760 131.7244270
 134.9200890 150.1148300 134.7454120 135.6011000 150.3786670 135.3641520
 134.6048940 149.2749170 135.0792130 139.1125460 151.1615660 133.8326710
 139.6203680 151.6596630 134.4731730 139.6438700 150.3850860 133.6566070
 137.3961560 145.8014220 138.0990130 137.3980000 146.3186610 137.2936030
 136.5665870 145.3244400 138.0760060 147.1598320 149.2554480 133.7439970
 146.4553890 149.5439370 134.3243080 147.5210480 150.0654590 133.3839530
 137.0776890 147.5124180 136.1060580 137.4193700 148.3566230 135.8114450
 136.1392700 147.6607920 136.2225920 140.7604780 145.0006450 132.4305170
 141.0679760 144.4453340 131.7140670 139.8305480 145.1350910 132.2478160
 143.1485540 153.0655280 129.1665290 142.2214820 152.9992660 129.3953760
 143.3010360 154.0035410 129.0520530 143.1354620 149.3372280 126.1632450
 142.1958290 149.4986240 126.2484910 143.4537880 150.0557960 125.6168440
 149.6567380 154.0190800 136.1411480 148.8286010 154.0883890 135.6661610
 150.2517860 154.6045110 135.6727310 147.1782830 154.6275580 129.6700540
 146.5595250 154.2895130 129.0226840 147.1607280 153.9835340 130.3779730
 146.6209390 150.8060120 137.0866350 146.2080570 151.6313830 137.3406340
 145.8885340 150.2205160 136.8942710 138.7542180 153.5920020 131.9485020
 138.3499180 152.8797270 131.4530920 138.8405300 153.2473260 132.8373060
 137.4670800 150.3663230 135.7284060 138.0185390 150.4758570 134.9537310
 137.9814310 150.7400830 136.4439290 145.3547530 153.8662390 126.6773290
 145.7940810 153.0284820 126.5311110 146.0675950 154.4991790 126.7637430
 137.1413530 153.8882590 139.3389400 137.0021300 154.7605390 139.7076800
 136.2594890 153.5455400 139.1937340 148.9364670 145.1205200 124.9914330
 148.6237330 145.2132030 125.8913400 149.6977140 145.6986230 124.9411760
 135.4546810 152.4865000 129.4491670 135.3344410 153.2127090 128.8372940
 135.1447700 151.7167910 128.9719580 150.1465960 149.8576700 140.9688470
 149.5310230 150.3656370 140.4403930 149.8262380 148.9575030 140.9114410
 137.9210470 145.8300070 132.8315340 137.4778620 146.6109610 132.4999860
 138.4795460 146.1529960 133.5386280 142.2080280 148.6968590 138.4350660
 141.7459650 148.9051610 139.2470600 141.8058390 147.8827940 138.1321330
 147.2084790 149.9177540 139.5647320 146.3578380 149.6183290 139.8856390
 147.0486580 150.1619550 138.6531140 144.3034500 151.4179290 141.6646110
 144.6287910 150.5843040 141.3248340 145.0914830 151.9407810 141.8124440
 141.0369290 145.4510770 127.7121170 140.4123470 145.4470640 128.4374480
 140.9499410 144.5841730 127.3157140 139.9586370 146.3747400 134.6904940
 140.2558700 147.2810230 134.6096960 140.5071930 145.8866180 134.0764510
 137.7124690 150.9533640 130.5596590 137.4865610 150.7370810 131.4643210
 136.9317220 151.3862100 130.2142560 144.9422450 150.9597010 129.1587240
 144.3431340 151.6832810 128.9750860 145.4902060 150.8973790 128.3763690
 140.1523900 151.8519220 141.2256860 140.0567500 150.9113950 141.0757260
 140.9955880 152.0734290 140.8304930 143.5487320 149.5960550 131.1890520
 143.9416890 149.9132750 130.3759210 143.9104170 148.7172430 131.3035040
 135.2834440 148.2632890 139.3790640 134.8897830 149.1108100 139.5863420
 134.5952840 147.6259260 139.5699280 141.8579490 148.3467860 142.4487380
 141.1677810 148.1540060 143.0833470 142.6011790 148.6302500 142.9811680
 132.5851490 146.1861350 133.4120720 132.2964540 146.7564210 134.1245700
 133.3297250 145.7065800 133.7751950 132.7721720 150.1281470 124.6223440
 132.6896390 151.0712230 124.7638430 132.4204780 149.9856380 123.7435790
 144.1342460 152.1866300 135.2841300 143.4023580 152.6953110 135.6331400
 143.7366800 151.3696280 134.9830080 140.5719850 148.8620500 133.6893790
 140.5755910 148.4210450 132.8398330 141.4670970 149.1837830 133.7965610
 136.4222230 148.7446990 132.6488000 136.0822280 149.2222220 133.4055050
 135.6599550 148.2912110 132.2889100 140.6340000 149.8632580 126.6800550
 140.7552820 149.8219060 127.6286370 140.2488510 150.7256730 126.5247280
 144.5968370 147.6399980 134.6964240 144.6141110 148.0908630 135.5406090
 144.3483950 146.7405620 134.9097680 139.6461500 152.1733720 126.0783850
 139.0778400 151.7251970 125.4519760 140.3550500 152.5326500 125.5449000
 148.0239120 145.0532160 140.5350620 148.3484890 144.3221820 141.0608600
 148.0595630 144.7345800 139.6331610 140.8727820 152.9222280 135.4359200
 141.2397950 152.4480850 136.1820540 140.6832880 153.7963850 135.7767540
 133.7368310 147.6665970 131.5652670 133.4515230 147.3021640 132.4031290
 133.6747170 146.9346430 130.9515810 138.6627190 151.9630920 137.7543410
 138.3584260 152.8422900 137.9793770 139.6173650 152.0230710 137.7900850
 143.4106900 146.5595230 128.2866040 142.5971510 146.0608400 128.2111350
 143.2168850 147.3993480 127.8702390 146.1255290 150.9314880 126.5828200
 147.0134910 151.2432110 126.4079540 146.0960380 150.0587130 126.1908780
 134.7190920 152.8033660 138.9014770 134.3605860 153.4687510 139.4888110
 134.4245480 151.9717210 139.2727390 137.9204040 153.2617900 141.7854320
 137.6204180 153.4075080 140.8882140 138.6915280 152.7023190 141.6927710
 148.3969560 152.2426720 126.0508060 148.3133280 152.6740940 125.2004500
 149.1163750 152.7025070 126.4834880 133.2298970 152.8024920 125.5249370
 134.0993820 153.0849720 125.8085290 132.7389290 153.6160790 125.4098180
 140.3933780 154.1898130 129.6457650 140.8496560 155.0003380 129.8717840
 140.0421990 153.8721270 130.4776140 136.2945560 144.5335780 130.1180170
 136.1660190 144.5253680 131.0665090 135.4707580 144.8718870 129.7671180
 133.2939490 146.2926900 139.5786870 132.5798010 146.4923820 140.1839480
 133.7134530 145.5166470 139.9501670 144.7878270 148.7849210 137.3288320
 145.1559090 147.9644420 137.6567890 143.9276470 148.8451100 137.7443970
 148.1540300 147.7406150 128.1375880 147.5253460 147.8451820 127.4234110
 147.6592220 147.9602930 128.9269760 140.1224330 150.0192100 129.5533760
 139.4140480 150.4878440 129.9947370 140.4068810 149.3614110 130.1878950
 141.7480260 151.4388800 137.5526290 142.2465510 151.9134620 138.2178140
 141.8903210 150.5152320 137.7596320 144.1539760 146.7442760 130.9929550
 144.0307540 146.7628890 130.0439060 145.1024320 146.7921700 131.1127950
 138.3259350 148.3277180 126.9284470 139.1749880 148.7647330 126.8624660
 137.9590620 148.6397440 127.7556530 148.9547120 147.6556760 138.3954680
 148.4520720 148.3962160 138.7348490 149.7703780 148.0440760 138.0791470
 147.2469130 152.8989940 131.8416040 146.3059270 152.9140170 132.0163730
 147.5613200 152.1125900 132.2876340 137.2250770 154.5809540 125.4020000
 137.9914040 154.4690900 125.9645430 137.3025460 153.8847510 124.7496770
 135.9197530 152.0134610 126.0852890 136.0001120 151.0662120 126.1970290
 136.8117280 152.3441490 126.1913550 133.4468330 153.8349530 141.3209060
 133.9507350 153.2556810 141.8925290 132.7075750 154.1189760 141.8585430
 135.4791410 151.9779120 142.2159130 135.5196750 151.6792990 143.1244360
 136.3336910 152.3786730 142.0566650 139.2569800 154.5774670 127.3762640
 139.6786220 154.4114540 128.2194030 139.3820640 153.7674900 126.8817780
 137.4197220 150.5571220 140.1833620 136.8893680 150.0662170 139.5556960
 138.0885290 150.9855420 139.6491550 141.7697440 153.6012280 124.6239740
 142.2903100 152.8861300 124.2580890 142.4165840 154.2398150 124.9240250
 146.7897450 152.3636840 141.9513960 147.3718220 151.6089160 141.8634440
 146.9659220 152.8944280 141.1745440 137.9069520 147.5233590 140.2630910
 137.8126390 146.9054340 139.5381780 137.3266910 148.2499880 140.0360820
 140.6730960 146.0806830 137.2958300 140.2248260 146.1031090 136.4503850
 140.0396160 145.6825850 137.8928600 143.4154410 152.7077340 139.3008580
 143.5350620 152.1118480 140.0403420 144.2748410 152.7447030 138.8809880
 145.7542310 153.2614530 137.8771090 145.2277530 153.7857150 137.2736230
 146.0973650 153.8941920 138.5080820 138.1528700 150.6507900 124.3220800
 137.9517760 149.7875260 124.6834140 137.9820750 150.5641260 123.3842400
 140.1823180 149.2498690 140.5584400 140.7722870 148.9414540 141.2462220
 139.3643420 148.7778440 140.7144300 145.0016610 148.8664500 140.7917420
 144.3132130 148.2046040 140.7267410 145.7222630 148.4202770 141.2365880
 145.6317010 145.4616130 126.8507680 145.9119300 144.6184030 127.2067100
 144.8582740 145.6939240 127.3646430 136.9511500 147.7508520 124.3098680
 137.2537400 147.7575950 123.4017830 137.6906090 147.4006380 124.8066340
 140.1696430 146.6943140 125.2954880 139.8218430 146.0167130 124.7157330
 140.3709200 146.2332650 126.1098270 133.5102070 153.2230790 131.6919250
 132.8550910 152.9542430 131.0478950 134.3480020 153.1135270 131.2421230
 146.4592510 148.0172080 125.9137740 146.8777390 147.8303060 125.0734400
 146.1528570 147.1651130 126.2240670 149.9582240 152.9296220 129.6113540
 149.5825840 152.1624150 129.1794830 149.2285360 153.3118920 130.0988470
 134.5478000 153.6083360 136.2322590 134.9151040 153.5210760 137.1118610
 133.9788820 152.8449910 136.1329450 149.3481860 152.0767740 139.2453060
 149.1167950 151.8480490 138.3451010 149.6086410 152.9967290 139.1997950
 134.0994000 150.5192450 140.1381010 133.2050050 150.4859210 140.4774720
 134.6391550 150.7179240 140.9032260 147.7869930 147.3024170 142.0232760
 148.6640110 147.3107570 142.4066760 147.7990770 146.5655010 141.4125110
 132.7240150 150.4329720 127.6344580 131.8204230 150.6959920 127.4596240
 133.2080770 150.7040890 126.8544540 149.2333200 151.1553710 132.9120780
 149.7570680 150.6616360 132.2810950 149.8192620 151.2904070 133.6568350
 149.4122920 151.2393580 136.4340330 148.4625630 151.2057120 136.5485320
 149.5935930 152.1493690 136.1990100 135.2667360 149.4895260 125.5438960
 135.9759060 149.0678480 125.0586240 134.5507300 149.5570490 124.9122310
 134.9141520 145.5434590 124.5841610 135.6369650 146.0843530 124.9022830
 135.1866040 145.2698010 123.7083150 148.7233170 150.4127060 128.8513190
 149.2192290 150.1797930 129.6362070 148.5249240 149.5738900 128.4350830
 134.6033710 144.7940780 134.4864230 135.2509900 144.2438160 134.0459390
 135.0235550 145.0483930 135.3080040 148.4986050 144.9882140 137.8433870
 149.1358270 145.6016280 138.2093060 148.6460940 145.0242800 136.8983100
 134.3565710 144.9496450 137.2289550 134.0080530 145.4060270 137.9947730
 134.0253410 144.0553580 137.3111980 141.8690530 146.1408330 140.7508970
 141.8079420 146.7330160 141.5004380 142.8090910 146.0334290 140.6059230
 144.5065090 145.7978390 140.3901260 145.1205500 146.1157680 139.7282340
 145.0514650 145.3126980 141.0097120 135.0286350 144.4772650 140.5040320
 135.5769340 144.2960700 139.7406430 135.0941660 143.6866760 141.0396630
 145.2473130 144.3610530 136.7170550 144.3732970 144.6945640 136.5143480
 145.1383880 143.8883710 137.5422420 146.1545110 146.5681400 138.1012270
 145.8258470 145.7533160 137.7214000 147.1027410 146.5251210 137.9777960
 142.9947950 145.2780370 135.6563460 142.2119740 145.7525870 135.9360220
 142.7010880 144.3735200 135.5476640 147.5469020 145.9803470 133.7012550
 147.9877110 145.9248570 132.8534150 147.2776610 146.8961480 133.7722730
 149.4107590 145.6118710 131.7121370 149.3495990 144.6679930 131.5652390
 150.1899620 145.7198800 132.2574830 134.3388360 145.5827850 128.1777180
 135.0967720 145.6956730 127.6041210 133.8765530 146.4197050 128.1320610
 140.8802170 147.6967120 131.1679490 140.0676680 147.3224010 130.8275370
 141.3843810 146.9412200 131.4700680 145.3827150 144.3609570 132.4062560
 145.9856520 144.9329780 132.8811080 144.6420140 144.9249010 132.1836460
 148.5261750 144.7631130 127.6802840 148.7212380 145.6614580 127.9470270
 147.7391620 144.5318210 128.1735790 136.7113510 146.1091900 126.7179150
 137.2406270 145.3221700 126.5887100 137.3441830 146.7883090 126.9514680
 138.9051350 145.8467040 129.7724540 138.2754090 145.1454350 129.9394670
 138.3656490 146.6071170 129.5557700 139.0306910 145.1251020 142.2077030
 138.7491180 145.6284620 141.4437850 139.4126610 144.3272770 141.8419160
 145.6322370 144.5404600 142.7857500 145.5187820 144.8599210 143.6809020
 146.4492110 144.9417110 142.4894780 144.5380520 152.5597070 113.1492240
 144.4574570 151.6451680 112.8783950 144.1244940 153.0564140 112.4431950
 142.6698560 154.3376090 115.0301510 141.8940660 153.8576530 115.3200080
 143.3211490 153.6581740 114.8557670 136.6864390 154.6495900 115.9077270
 135.8549270 154.3944610 116.3073780 137.2945370 154.7206670 116.6435190
 135.0956340 149.6097790 109.6919660 134.2073040 149.9513760 109.5899540
 135.3797530 149.4098110 108.8000490 133.0589350 152.2103440 115.5759360
 133.6305460 151.4425640 115.5763000 133.0590890 152.5092200 114.6665970
 134.3014220 147.6187800 117.3628290 134.1217060 146.7213550 117.6431050
 133.8994300 148.1659670 118.0375240 143.1412720 149.8203660 115.2640600
 143.5177540 148.9475540 115.1514270 143.0432230 150.1562360 114.3731040
 137.2717730 148.1929290 110.7258040 137.3784480 149.0933020 111.0326800
 136.3610090 148.1447260 110.4352690 146.9236840 147.3154100 112.1968940
 147.7446460 146.8250670 112.2394420 146.9570920 147.9051760 112.9500780
 134.9200890 150.1148300 115.9710630 135.6011000 150.3786670 116.5898030
 134.6048940 149.2749170 116.3048640 139.1125460 151.1615660 115.0583220
 139.6203680 151.6596630 115.6988240 139.6438700 150.3850860 114.8822580
 137.3961560 145.8014220 119.3246640 137.3980000 146.3186610 118.5192540
 136.5665870 145.3244400 119.3016570 147.1598320 149.2554480 114.9696480
 146.4553890 149.5439370 115.5499590 147.5210480 150.0654590 114.6096040
 137.0776890 147.5124180 117.3317090 137.4193700 148.3566230 117.0370960
 136.1392700 147.6607920 117.4482430 140.7604780 145.0006450 113.6561680
 141.0679760 144.4453340 112.9397180 139.8305480 145.1350910 113.4734670
 143.1485540 153.0655280 110.3921800 142.2214820 152.9992660 110.6210270
 143.3010360 154.0035410 110.2777040 143.1354620 149.3372280 107.3888960
 142.1958290 149.4986240 107.4741420 143.4537880 150.0557960 106.8424950
 149.6567380 154.0190800 117.3667990 148.8286010 154.0883890 116.8918120
 150.2517860 154.6045110 116.8983820 147.1782830 154.6275580 110.8957050
 146.5595250 154.2895130 110.2483350 147.1607280 153.9835340 111.6036240
 146.6209390 150.8060120 118.3122860 146.2080570 151.6313830 118.5662850
 145.8885340 150.2205160 118.1199220 138.7542180 153.5920020 113.1741530
 138.3499180 152.8797270 112.6787430 138.8405300 153.2473260 114.0629570
 137.4670800 150.3663230 116.9540570 138.0185390 150.4758570 116.1793820
 137.9814310 150.7400830 117.6695800 145.3547530 153.8662390 107.9029800
 145.7940810 153.0284820 107.7567620 146.0675950 154.4991790 107.9893940
 137.1413530 153.8882590 120.5645910 137.0021300 154.7605390 120.9333310
 136.2594890 153.5455400 120.4193850 148.9364670 145.1205200 106.2170840
 148.6237330 145.2132030 107.1169910 149.6977140 145.6986230 106.1668270
 135.4546810 152.4865000 110.6748180 135.3344410 153.2127090 110.0629450
 135.1447700 151.7167910 110.1976090 150.1465960 149.8576700 122.1944980
 149.5310230 150.3656370 121.6660440 149.8262380 148.9575030 122.1370920
 137.9210470 145.8300070 114.0571850 137.4778620 146.6109610 113.7256370
 138.4795460 146.1529960 114.7642790 142.2080280 148.6968590 119.6607170
 141.7459650 148.9051610 120.4727110 141.8058390 147.8827940 119.3577840
 147.2084790 149.9177540 120.7903830 146.3578380 149.6183290 121.1112900
 147.0486580 150.1619550 119.8787650 144.3034500 151.4179290 122.8902620
 144.6287910 150.5843040 122.5504850 145.0914830 151.9407810 123.0380950
 141.0369290 145.4510770 108.9377680 140.4123470 145.4470640 109.6630990
 140.9499410 144.5841730 108.5413650 139.9586370 146.3747400 115.9161450
 140.2558700 147.2810230 115.8353470 140.5071930 145.8866180 115.3021020
 137.7124690 150.9533640 111.7853100 137.4865610 150.7370810 112.6899720
 136.9317220 151.3862100 111.4399070 144.9422450 150.9597010 110.3843750
 144.3431340 151.6832810 110.2007370 145.4902060 150.8973790 109.6020200
 140.1523900 151.8519220 122.4513370 140.0567500 150.9113950 122.3013770
 140.9955880 152.0734290 122.0561440 143.5487320 149.5960550 112.4147030
 143.9416890 149.9132750 111.6015720 143.9104170 148.7172430 112.5291550
 135.2834440 148.2632890 120.6047150 134.8897830 149.1108100 120.8119930
 134.5952840 147.6259260 120.7955790 141.8579490 148.3467860 123.6743890
 141.1677810 148.1540060 124.3089980 142.6011790 148.6302500 124.2068190
 132.5851490 146.1861350 114.6377230 132.2964540 146.7564210 115.3502210
 133.3297250 145.7065800 115.0008460 132.7721720 150.1281470 105.8479950
 132.6896390 151.0712230 105.9894940 132.4204780 149.9856380 104.9692300
 144.1342460 152.1866300 116.5097810 143.4023580 152.6953110 116.8587910
 143.7366800 151.3696280 116.2086590 140.5719850 148.8620500 114.9150300
 140.5755910 148.4210450 114.0654840 141.4670970 149.1837830 115.0222120
 136.4222230 148.7446990 113.8744510 136.0822280 149.2222220 114.6311560
 135.6599550 148.2912110 113.5145610 140.6340000 149.8632580 107.9057060
 140.7552820 149.8219060 108.8542880 140.2488510 150.7256730 107.7503790
 144.5968370 147.6399980 115.9220750 144.6141110 148.0908630 116.7662600
 144.3483950 146.7405620 116.1354190 139.6461500 152.1733720 107.3040360
 139.0778400 151.7251970 106.6776270 140.3550500 152.5326500 106.7705510
 148.0239120 145.0532160 121.7607130 148.3484890 144.3221820 122.2865110
 148.0595630 144.7345800 120.8588120 140.8727820 152.9222280 116.6615710
 141.2397950 152.4480850 117.4077050 140.6832880 153.7963850 117.0024050
 133.7368310 147.6665970 112.7909180 133.4515230 147.3021640 113.6287800
 133.6747170 146.9346430 112.1772320 138.6627190 151.9630920 118.9799920
 138.3584260 152.8422900 119.2050280 139.6173650 152.0230710 119.0157360
 143.4106900 146.5595230 109.5122550 142.5971510 146.0608400 109.4367860
 143.2168850 147.3993480 109.0958900 146.1255290 150.9314880 107.8084710
 147.0134910 151.2432110 107.6336050 146.0960380 150.0587130 107.4165290
 134.7190920 152.8033660 120.1271280 134.3605860 153.4687510 120.7144620
 134.4245480 151.9717210 120.4983900 137.9204040 153.2617900 123.0110830
 137.6204180 153.4075080 122.1138650 138.6915280 152.7023190 122.9184220
 148.3969560 152.2426720 107.2764570 148.3133280 152.6740940 106.4261010
 149.1163750 152.7025070 107.7091390 133.2298970 152.8024920 106.7505880
 134.0993820 153.0849720 107.0341800 132.7389290 153.6160790 106.6354690
 140.3933780 154.1898130 110.8714160 140.8496560 155.0003380 111.0974350
 140.0421990 153.8721270 111.7032650 136.2945560 144.5335780 111.3436680
 136.1660190 144.5253680 112.2921600 135.4707580 144.8718870 110.9927690
 133.2939490 146.2926900 120.8043380 132.5798010 146.4923820 121.4095990
 133.7134530 145.5166470 121.1758180 144.7878270 148.7849210 118.5544830
 145.1559090 147.9644420 118.8824400 143.9276470 148.8451100 118.9700480
 148.1540300 147.7406150 109.3632390 147.5253460 147.8451820 108.6490620
 147.6592220 147.9602930 110.1526270 140.1224330 150.0192100 110.7790270
 139.4140480 150.4878440 111.2203880 140.4068810 149.3614110 111.4135460
 141.7480260 151.4388800 118.7782800 142.2465510 151.9134620 119.4434650
 141.8903210 150.5152320 118.9852830 144.1539760 146.7442760 112.2186060
 144.0307540 146.7628890 111.2695570 145.1024320 146.7921700 112.3384460
 138.3259350 148.3277180 108.1540980 139.1749880 148.7647330 108.0881170
 137.9590620 148.6397440 108.9813040 148.9547120 147.6556760 119.6211190
 148.4520720 148.3962160 119.9605000 149.7703780 148.0440760 119.3047980
 147.2469130 152.8989940 113.0672550 146.3059270 152.9140170 113.2420240
 147.5613200 152.1125900 113.5132850 137.2250770 154.5809540 106.6276510
 137.9914040 154.4690900 107.1901940 137.3025460 153.8847510 105.9753280
 135.9197530 152.0134610 107.3109400 136.0001120 151.0662120 107.4226800
 136.8117280 152.3441490 107.4170060 133.4468330 153.8349530 122.5465570
 133.9507350 153.2556810 123.1181800 132.7075750 154.1189760 123.0841940
 135.4791410 151.9779120 123.4415640 135.5196750 151.6792990 124.3500870
 136.3336910 152.3786730 123.2823160 139.2569800 154.5774670 108.6019150
 139.6786220 154.4114540 109.4450540 139.3820640 153.7674900 108.1074290
 137.4197220 150.5571220 121.4090130 136.8893680 150.0662170 120.7813470
 138.0885290 150.9855420 120.8748060 141.7697440 153.6012280 105.8496250
 142.2903100 152.8861300 105.4837400 142.4165840 154.2398150 106.1496760
 146.7897450 152.3636840 123.1770470 147.3718220 151.6089160 123.0890950
 146.9659220 152.8944280 122.4001950 137.9069520 147.5233590 121.4887420
 137.8126390 146.9054340 120.7638290 137.3266910 148.2499880 121.2617330
 140.6730960 146.0806830 118.5214810 140.2248260 146.1031090 117.6760360
 140.0396160 145.6825850 119.1185110 143.4154410 152.7077340 120.5265090
 143.5350620 152.1118480 121.2659930 144.2748410 152.7447030 120.1066390
 145.7542310 153.2614530 119.1027600 145.2277530 153.7857150 118.4992740
 146.0973650 153.8941920 119.7337330 138.1528700 150.6507900 105.5477310
 137.9517760 149.7875260 105.9090650 137.9820750 150.5641260 104.6098910
 140.1823180 149.2498690 121.7840910 140.7722870 148.9414540 122.4718730
 139.3643420 148.7778440 121.9400810 145.0016610 148.8664500 122.0173930
 144.3132130 148.2046040 121.9523920 145.7222630 148.4202770 122.4622390
 145.6317010 145.4616130 108.0764190 145.9119300 144.6184030 108.4323610
 144.8582740 145.6939240 108.5902940 136.9511500 147.7508520 105.5355190
 137.2537400 147.7575950 104.6274340 137.6906090 147.4006380 106.0322850
 140.1696430 146.6943140 106.5211390 139.8218430 146.0167130 105.9413840
 140.3709200 146.2332650 107.3354780 133.5102070 153.2230790 112.9175760
 132.8550910 152.9542430 112.2735460 134.3480020 153.1135270 112.4677740
 146.4592510 148.0172080 107.1394250 146.8777390 147.8303060 106.2990910
 146.1528570 147.1651130 107.4497180 149.9582240 152.9296220 110.8370050
 149.5825840 152.1624150 110.4051340 149.2285360 153.3118920 111.3244980
 134.5478000 153.6083360 117.4579100 134.9151040 153.5210760 118.3375120
 133.9788820 152.8449910 117.3585960 149.3481860 152.0767740 120.4709570
 149.1167950 151.8480490 119.5707520 149.6086410 152.9967290 120.4254460
 134.0994000 150.5192450 121.3637520 133.2050050 150.4859210 121.7031230
 134.6391550 150.7179240 122.1288770 147.7869930 147.3024170 123.2489270
 148.6640110 147.3107570 123.6323270 147.7990770 146.5655010 122.6381620
 132.7240150 150.4329720 108.8601090 131.8204230 150.6959920 108.6852750
 133.2080770 150.7040890 108.0801050 149.2333200 151.1553710 114.1377290
 149.7570680 150.6616360 113.5067460 149.8192620 151.2904070 114.8824860
 149.4122920 151.2393580 117.6596840 148.4625630 151.2057120 117.7741830
 149.5935930 152.1493690 117.4246610 135.2667360 149.4895260 106.7695470
 135.9759060 149.0678480 106.2842750 134.5507300 149.5570490 106.1378820
 134.9141520 145.5434590 105.8098120 135.6369650 146.0843530 106.1279340
 135.1866040 145.2698010 104.9339660 148.7233170 150.4127060 110.0769700
 149.2192290 150.1797930 110.8618580 148.5249240 149.5738900 109.6607340
 134.6033710 144.7940780 115.7120740 135.2509900 144.2438160 115.2715900
 135.0235550 145.0483930 116.5336550 148.4986050 144.9882140 119.0690380
 149.1358270 145.6016280 119.4349570 148.6460940 145.0242800 118.1239610
 134.3565710 144.9496450 118.4546060 134.0080530 145.4060270 119.2204240
 134.0253410 144.0553580 118.5368490 141.8690530 146.1408330 121.9765480
 141.8079420 146.7330160 122.7260890 142.8090910 146.0334290 121.8315740
 144.5065090 145.7978390 121.6157770 145.1205500 146.1157680 120.9538850
 145.0514650 145.3126980 122.2353630 135.0286350 144.4772650 121.7296830
 135.5769340 144.2960700 120.9662940 135.0941660 143.6866760 122.2653140
 145.2473130 144.3610530 117.9427060 144.3732970 144.6945640 117.7399990
 145.1383880 143.8883710 118.7678930 146.1545110 146.5681400 119.3268780
 145.8258470 145.7533160 118.9470510 147.1027410 146.5251210 119.2034470
 142.9947950 145.2780370 116.8819970 142.2119740 145.7525870 117.1616730
 142.7010880 144.3735200 116.7733150 147.5469020 145.9803470 114.9269060
 147.9877110 145.9248570 114.0790660 147.2776610 146.8961480 114.9979240
 149.4107590 145.6118710 112.9377880 149.3495990 144.6679930 112.7908900
 150.1899620 145.7198800 113.4831340 134.3388360 145.5827850 109.4033690
 135.0967720 145.6956730 108.8297720 133.8765530 146.4197050 109.3577120
 140.8802170 147.6967120 112.3936000 140.0676680 147.3224010 112.0531880
 141.3843810 146.9412200 112.6957190 145.3827150 144.3609570 113.6319070
 145.9856520 144.9329780 114.1067590 144.6420140 144.9249010 113.4092970
 148.5261750 144.7631130 108.9059350 148.7212380 145.6614580 109.1726780
 147.7391620 144.5318210 109.3992300 136.7113510 146.1091900 107.9435660
 137.2406270 145.3221700 107.8143610 137.3441830 146.7883090 108.1771190
 138.9051350 145.8467040 110.9981050 138.2754090 145.1454350 111.1651180
 138.3656490 146.6071170 110.7814210 139.0306910 145.1251020 123.4333540
 138.7491180 145.6284620 122.6694360 139.4126610 144.3272770 123.0675670
 145.6322370 144.5404600 124.0114010 145.5187820 144.8599210 124.9065530
 146.4492110 144.9417110 123.7151290 144.5380520 152.5597070  94.3748750
 144.4574570 151.6451680  94.1040460 144.1244940 153.0564140  93.6688460
 142.6698560 154.3376090  96.2558020 141.8940660 153.8576530  96.5456590
 143.3211490 153.6581740  96.0814180 136.6864390 154.6495900  97.1333780
 135.8549270 154.3944610  97.5330290 137.2945370 154.7206670  97.8691700
 135.0956340 149.6097790  90.9176170 134.2073040 149.9513760  90.8156050
 135.3797530 149.4098110  90.0257000 133.0589350 152.2103440  96.8015870
 133.6305460 151.4425640  96.8019510 133.0590890 152.5092200  95.8922480
 134.3014220 147.6187800  98.5884800 134.1217060 146.7213550  98.8687560
 133.8994300 148.1659670  99.2631750 143.1412720 149.8203660  96.4897110
 143.5177540 148.9475540  96.3770780 143.0432230 150.1562360  95.5987550
 137.2717730 148.1929290  91.9514550 137.3784480 149.0933020  92.2583310
 136.3610090 148.1447260  91.6609200 146.9236840 147.3154100  93.4225450
 147.7446460 146.8250670  93.4650930 146.9570920 147.9051760  94.1757290
 134.9200890 150.1148300  97.1967140 135.6011000 150.3786670  97.8154540
 134.6048940 149.2749170  97.5305150 139.1125460 151.1615660  96.2839730
 139.6203680 151.6596630  96.9244750 139.6438700 150.3850860  96.1079090
 137.3961560 145.8014220 100.5503150 137.3980000 146.3186610  99.7449050
 136.5665870 145.3244400 100.5273080 147.1598320 149.2554480  96.1952990
 146.4553890 149.5439370  96.7756100 147.5210480 150.0654590  95.8352550
 137.0776890 147.5124180  98.5573600 137.4193700 148.3566230  98.2627470
 136.1392700 147.6607920  98.6738940 140.7604780 145.0006450  94.8818190
 141.0679760 144.4453340  94.1653690 139.8305480 145.1350910  94.6991180
 143.1485540 153.0655280  91.6178310 142.2214820 152.9992660  91.8466780
 143.3010360 154.0035410  91.5033550 143.1354620 149.3372280  88.6145470
 142.1958290 149.4986240  88.6997930 143.4537880 150.0557960  88.0681460
 149.6567380 154.0190800  98.5924500 148.8286010 154.0883890  98.1174630
 150.2517860 154.6045110  98.1240330 147.1782830 154.6275580  92.1213560
 146.5595250 154.2895130  91.4739860 147.1607280 153.9835340  92.8292750
 146.6209390 150.8060120  99.5379370 146.2080570 151.6313830  99.7919360
 145.8885340 150.2205160  99.3455730 138.7542180 153.5920020  94.3998040
 138.3499180 152.8797270  93.9043940 138.8405300 153.2473260  95.2886080
 137.4670800 150.3663230  98.1797080 138.0185390 150.4758570  97.4050330
 137.9814310 150.7400830  98.8952310 145.3547530 153.8662390  89.1286310
 145.7940810 153.0284820  88.9824130 146.0675950 154.4991790  89.2150450
 137.1413530 153.8882590 101.7902420 137.0021300 154.7605390 102.1589820
 136.2594890 153.5455400 101.6450360 148.9364670 145.1205200  87.4427350
 148.6237330 145.2132030  88.3426420 149.6977140 145.6986230  87.3924780
 135.4546810 152.4865000  91.9004690 135.3344410 153.2127090  91.2885960
 135.1447700 151.7167910  91.4232600 150.1465960 149.8576700 103.4201490
 149.5310230 150.3656370 102.8916950 149.8262380 148.9575030 103.3627430
 137.9210470 145.8300070  95.2828360 137.4778620 146.6109610  94.9512880
 138.4795460 146.1529960  95.9899300 142.2080280 148.6968590 100.8863680
 141.7459650 148.9051610 101.6983620 141.8058390 147.8827940 100.5834350
 147.2084790 149.9177540 102.0160340 146.3578380 149.6183290 102.3369410
 147.0486580 150.1619550 101.1044160 144.3034500 151.4179290 104.1159130
 144.6287910 150.5843040 103.7761360 145.0914830 151.9407810 104.2637460
 141.0369290 145.4510770  90.1634190 140.4123470 145.4470640  90.8887500
 140.9499410 144.5841730  89.7670160 139.9586370 146.3747400  97.1417960
 140.2558700 147.2810230  97.0609980 140.5071930 145.8866180  96.5277530
 137.7124690 150.9533640  93.0109610 137.4865610 150.7370810  93.9156230
 136.9317220 151.3862100  92.6655580 144.9422450 150.9597010  91.6100260
 144.3431340 151.6832810  91.4263880 145.4902060 150.8973790  90.8276710
 140.1523900 151.8519220 103.6769880 140.0567500 150.9113950 103.5270280
 140.9955880 152.0734290 103.2817950 143.5487320 149.5960550  93.6403540
 143.9416890 149.9132750  92.8272230 143.9104170 148.7172430  93.7548060
 135.2834440 148.2632890 101.8303660 134.8897830 149.1108100 102.0376440
 134.5952840 147.6259260 102.0212300 141.8579490 148.3467860 104.9000400
 141.1677810 148.1540060 105.5346490 142.6011790 148.6302500 105.4324700
 132.5851490 146.1861350  95.8633740 132.2964540 146.7564210  96.5758720
 133.3297250 145.7065800  96.2264970 132.7721720 150.1281470  87.0736460
 132.6896390 151.0712230  87.2151450 132.4204780 149.9856380  86.1948810
 144.1342460 152.1866300  97.7354320 143.4023580 152.6953110  98.0844420
 143.7366800 151.3696280  97.4343100 140.5719850 148.8620500  96.1406810
 140.5755910 148.4210450  95.2911350 141.4670970 149.1837830  96.2478630
 136.4222230 148.7446990  95.1001020 136.0822280 149.2222220  95.8568070
 135.6599550 148.2912110  94.7402120 140.6340000 149.8632580  89.1313570
 140.7552820 149.8219060  90.0799390 140.2488510 150.7256730  88.9760300
 144.5968370 147.6399980  97.1477260 144.6141110 148.0908630  97.9919110
 144.3483950 146.7405620  97.3610700 139.6461500 152.1733720  88.5296870
 139.0778400 151.7251970  87.9032780 140.3550500 152.5326500  87.9962020
 148.0239120 145.0532160 102.9863640 148.3484890 144.3221820 103.5121620
 148.0595630 144.7345800 102.0844630 140.8727820 152.9222280  97.8872220
 141.2397950 152.4480850  98.6333560 140.6832880 153.7963850  98.2280560
 133.7368310 147.6665970  94.0165690 133.4515230 147.3021640  94.8544310
 133.6747170 146.9346430  93.4028830 138.6627190 151.9630920 100.2056430
 138.3584260 152.8422900 100.4306790 139.6173650 152.0230710 100.2413870
 143.4106900 146.5595230  90.7379060 142.5971510 146.0608400  90.6624370
 143.2168850 147.3993480  90.3215410 146.1255290 150.9314880  89.0341220
 147.0134910 151.2432110  88.8592560 146.0960380 150.0587130  88.6421800
 134.7190920 152.8033660 101.3527790 134.3605860 153.4687510 101.9401130
 134.4245480 151.9717210 101.7240410 137.9204040 153.2617900 104.2367340
 137.6204180 153.4075080 103.3395160 138.6915280 152.7023190 104.1440730
 148.3969560 152.2426720  88.5021080 148.3133280 152.6740940  87.6517520
 149.1163750 152.7025070  88.9347900 133.2298970 152.8024920  87.9762390
 134.0993820 153.0849720  88.2598310 132.7389290 153.6160790  87.8611200
 140.3933780 154.1898130  92.0970670 140.8496560 155.0003380  92.3230860
 140.0421990 153.8721270  92.9289160 136.2945560 144.5335780  92.5693190
 136.1660190 144.5253680  93.5178110 135.4707580 144.8718870  92.2184200
 133.2939490 146.2926900 102.0299890 132.5798010 146.4923820 102.6352500
 133.7134530 145.5166470 102.4014690 144.7878270 148.7849210  99.7801340
 145.1559090 147.9644420 100.1080910 143.9276470 148.8451100 100.1956990
 148.1540300 147.7406150  90.5888900 147.5253460 147.8451820  89.8747130
 147.6592220 147.9602930  91.3782780 140.1224330 150.0192100  92.0046780
 139.4140480 150.4878440  92.4460390 140.4068810 149.3614110  92.6391970
 141.7480260 151.4388800 100.0039310 142.2465510 151.9134620 100.6691160
 141.8903210 150.5152320 100.2109340 144.1539760 146.7442760  93.4442570
 144.0307540 146.7628890  92.4952080 145.1024320 146.7921700  93.5640970
 138.3259350 148.3277180  89.3797490 139.1749880 148.7647330  89.3137680
 137.9590620 148.6397440  90.2069550 148.9547120 147.6556760 100.8467700
 148.4520720 148.3962160 101.1861510 149.7703780 148.0440760 100.5304490
 147.2469130 152.8989940  94.2929060 146.3059270 152.9140170  94.4676750
 147.5613200 152.1125900  94.7389360 137.2250770 154.5809540  87.8533020
 137.9914040 154.4690900  88.4158450 137.3025460 153.8847510  87.2009790
 135.9197530 152.0134610  88.5365910 136.0001120 151.0662120  88.6483310
 136.8117280 152.3441490  88.6426570 133.4468330 153.8349530 103.7722080
 133.9507350 153.2556810 104.3438310 132.7075750 154.1189760 104.3098450
 135.4791410 151.9779120 104.6672150 135.5196750 151.6792990 105.5757380
 136.3336910 152.3786730 104.5079670 139.2569800 154.5774670  89.8275660
 139.6786220 154.4114540  90.6707050 139.3820640 153.7674900  89.3330800
 137.4197220 150.5571220 102.6346640 136.8893680 150.0662170 102.0069980
 138.0885290 150.9855420 102.1004570 141.7697440 153.6012280  87.0752760
 142.2903100 152.8861300  86.7093910 142.4165840 154.2398150  87.3753270
 146.7897450 152.3636840 104.4026980 147.3718220 151.6089160 104.3147460
 146.9659220 152.8944280 103.6258460 137.9069520 147.5233590 102.7143930
 137.8126390 146.9054340 101.9894800 137.3266910 148.2499880 102.4873840
 140.6730960 146.0806830  99.7471320 140.2248260 146.1031090  98.9016870
 140.0396160 145.6825850 100.3441620 143.4154410 152.7077340 101.7521600
 143.5350620 152.1118480 102.4916440 144.2748410 152.7447030 101.3322900
 145.7542310 153.2614530 100.3284110 145.2277530 153.7857150  99.7249250
 146.0973650 153.8941920 100.9593840 138.1528700 150.6507900  86.7733820
 137.9517760 149.7875260  87.1347160 137.9820750 150.5641260  85.8355420
 140.1823180 149.2498690 103.0097420 140.7722870 148.9414540 103.6975240
 139.3643420 148.7778440 103.1657320 145.0016610 148.8664500 103.2430440
 144.3132130 148.2046040 103.1780430 145.7222630 148.4202770 103.6878900
 145.6317010 145.4616130  89.3020700 145.9119300 144.6184030  89.6580120
 144.8582740 145.6939240  89.8159450 136.9511500 147.7508520  86.7611700
 137.2537400 147.7575950  85.8530850 137.6906090 147.4006380  87.2579360
 140.1696430 146.6943140  87.7467900 139.8218430 146.0167130  87.1670350
 140.3709200 146.2332650  88.5611290 133.5102070 153.2230790  94.1432270
 132.8550910 152.9542430  93.4991970 134.3480020 153.1135270  93.6934250
 146.4592510 148.0172080  88.3650760 146.8777390 147.8303060  87.5247420
 146.1528570 147.1651130  88.6753690 149.9582240 152.9296220  92.0626560
 149.5825840 152.1624150  91.6307850 149.2285360 153.3118920  92.5501490
 134.5478000 153.6083360  98.6835610 134.9151040 153.5210760  99.5631630
 133.9788820 152.8449910  98.5842470 149.3481860 152.0767740 101.6966080
 149.1167950 151.8480490 100.7964030 149.6086410 152.9967290 101.6510970
 134.0994000 150.5192450 102.5894030 133.2050050 150.4859210 102.9287740
 134.6391550 150.7179240 103.3545280 147.7869930 147.3024170 104.4745780
 148.6640110 147.3107570 104.8579780 147.7990770 146.5655010 103.8638130
 132.7240150 150.4329720  90.0857600 131.8204230 150.6959920  89.9109260
 133.2080770 150.7040890  89.3057560 149.2333200 151.1553710  95.3633800
 149.7570680 150.6616360  94.7323970 149.8192620 151.2904070  96.1081370
 149.4122920 151.2393580  98.8853350 148.4625630 151.2057120  98.9998340
 149.5935930 152.1493690  98.6503120 135.2667360 149.4895260  87.9951980
 135.9759060 149.0678480  87.5099260 134.5507300 149.5570490  87.3635330
 134.9141520 145.5434590  87.0354630 135.6369650 146.0843530  87.3535850
 135.1866040 145.2698010  86.1596170 148.7233170 150.4127060  91.3026210
 149.2192290 150.1797930  92.0875090 148.5249240 149.5738900  90.8863850
 134.6033710 144.7940780  96.9377250 135.2509900 144.2438160  96.4972410
 135.0235550 145.0483930  97.7593060 148.4986050 144.9882140 100.2946890
 149.1358270 145.6016280 100.6606080 148.6460940 145.0242800  99.3496120
 134.3565710 144.9496450  99.6802570 134.0080530 145.4060270 100.4460750
 134.0253410 144.0553580  99.7625000 141.8690530 146.1408330 103.2021990
 141.8079420 146.7330160 103.9517400 142.8090910 146.0334290 103.0572250
 144.5065090 145.7978390 102.8414280 145.1205500 146.1157680 102.1795360
 145.0514650 145.3126980 103.4610140 135.0286350 144.4772650 102.9553340
 135.5769340 144.2960700 102.1919450 135.0941660 143.6866760 103.4909650
 145.2473130 144.3610530  99.1683570 144.3732970 144.6945640  98.9656500
 145.1383880 143.8883710  99.9935440 146.1545110 146.5681400 100.5525290
 145.8258470 145.7533160 100.1727020 147.1027410 146.5251210 100.4290980
 142.9947950 145.2780370  98.1076480 142.2119740 145.7525870  98.3873240
 142.7010880 144.3735200  97.9989660 147.5469020 145.9803470  96.1525570
 147.9877110 145.9248570  95.3047170 147.2776610 146.8961480  96.2235750
 149.4107590 145.6118710  94.1634390 149.3495990 144.6679930  94.0165410
 150.1899620 145.7198800  94.7087850 134.3388360 145.5827850  90.6290200
 135.0967720 145.6956730  90.0554230 133.8765530 146.4197050  90.5833630
 140.8802170 147.6967120  93.6192510 140.0676680 147.3224010  93.2788390
 141.3843810 146.9412200  93.9213700 145.3827150 144.3609570  94.8575580
 145.9856520 144.9329780  95.3324100 144.6420140 144.9249010  94.6349480
 148.5261750 144.7631130  90.1315860 148.7212380 145.6614580  90.3983290
 147.7391620 144.5318210  90.6248810 136.7113510 146.1091900  89.1692170
 137.2406270 145.3221700  89.0400120 137.3441830 146.7883090  89.4027700
 138.9051350 145.8467040  92.2237560 138.2754090 145.1454350  92.3907690
 138.3656490 146.6071170  92.0070720 139.0306910 145.1251020 104.6590050
 138.7491180 145.6284620 103.8950870 139.4126610 144.3272770 104.2932180
 145.6322370 144.5404600 105.2370520 145.5187820 144.8599210 106.1322040
 146.4492110 144.9417110 104.9407800 144.5380520 152.5597070  75.6005260
 144.4574570 151.6451680  75.3296970 144.1244940 153.0564140  74.8944970
 142.6698560 154.3376090  77.4814530 141.8940660 153.8576530  77.7713100
 143.3211490 153.6581740  77.3070690 136.6864390 154.6495900  78.3590290
 135.8549270 154.3944610  78.7586800 137.2945370 154.7206670  79.0948210
 135.0956340 149.6097790  72.1432680 134.2073040 149.9513760  72.0412560
 135.3797530 149.4098110  71.2513510 133.0589350 152.2103440  78.0272380
 133.6305460 151.4425640  78.0276020 133.0590890 152.5092200  77.1178990
 134.3014220 147.6187800  79.8141310 134.1217060 146.7213550  80.0944070
 133.8994300 148.1659670  80.4888260 143.1412720 149.8203660  77.7153620
 143.5177540 148.9475540  77.6027290 143.0432230 150.1562360  76.8244060
 137.2717730 148.1929290  73.1771060 137.3784480 149.0933020  73.4839820
 136.3610090 148.1447260  72.8865710 146.9236840 147.3154100  74.6481960
 147.7446460 146.8250670  74.6907440 146.9570920 147.9051760  75.4013800
 134.9200890 150.1148300  78.4223650 135.6011000 150.3786670  79.0411050
 134.6048940 149.2749170  78.7561660 139.1125460 151.1615660  77.5096240
 139.6203680 151.6596630  78.1501260 139.6438700 150.3850860  77.3335600
 137.3961560 145.8014220  81.7759660 137.3980000 146.3186610  80.9705560
 136.5665870 145.3244400  81.7529590 147.1598320 149.2554480  77.4209500
 146.4553890 149.5439370  78.0012610 147.5210480 150.0654590  77.0609060
 137.0776890 147.5124180  79.7830110 137.4193700 148.3566230  79.4883980
 136.1392700 147.6607920  79.8995450 140.7604780 145.0006450  76.1074700
 141.0679760 144.4453340  75.3910200 139.8305480 145.1350910  75.9247690
 143.1485540 153.0655280  72.8434820 142.2214820 152.9992660  73.0723290
 143.3010360 154.0035410  72.7290060 143.1354620 149.3372280  69.8401980
 142.1958290 149.4986240  69.9254440 143.4537880 150.0557960  69.2937970
 149.6567380 154.0190800  79.8181010 148.8286010 154.0883890  79.3431140
 150.2517860 154.6045110  79.3496840 147.1782830 154.6275580  73.3470070
 146.5595250 154.2895130  72.6996370 147.1607280 153.9835340  74.0549260
 146.6209390 150.8060120  80.7635880 146.2080570 151.6313830  81.0175870
 145.8885340 150.2205160  80.5712240 138.7542180 153.5920020  75.6254550
 138.3499180 152.8797270  75.1300450 138.8405300 153.2473260  76.5142590
 137.4670800 150.3663230  79.4053590 138.0185390 150.4758570  78.6306840
 137.9814310 150.7400830  80.1208820 145.3547530 153.8662390  70.3542820
 145.7940810 153.0284820  70.2080640 146.0675950 154.4991790  70.4406960
 137.1413530 153.8882590  83.0158930 137.0021300 154.7605390  83.3846330
 136.2594890 153.5455400  82.8706870 148.9364670 145.1205200  68.6683860
 148.6237330 145.2132030  69.5682930 149.6977140 145.6986230  68.6181290
 135.4546810 152.4865000  73.1261200 135.3344410 153.2127090  72.5142470
 135.1447700 151.7167910  72.6489110 150.1465960 149.8576700  84.6458000
 149.5310230 150.3656370  84.1173460 149.8262380 148.9575030  84.5883940
 137.9210470 145.8300070  76.5084870 137.4778620 146.6109610  76.1769390
 138.4795460 146.1529960  77.2155810 142.2080280 148.6968590  82.1120190
 141.7459650 148.9051610  82.9240130 141.8058390 147.8827940  81.8090860
 147.2084790 149.9177540  83.2416850 146.3578380 149.6183290  83.5625920
 147.0486580 150.1619550  82.3300670 144.3034500 151.4179290  85.3415640
 144.6287910 150.5843040  85.0017870 145.0914830 151.9407810  85.4893970
 141.0369290 145.4510770  71.3890700 140.4123470 145.4470640  72.1144010
 140.9499410 144.5841730  70.9926670 139.9586370 146.3747400  78.3674470
 140.2558700 147.2810230  78.2866490 140.5071930 145.8866180  77.7534040
 137.7124690 150.9533640  74.2366120 137.4865610 150.7370810  75.1412740
 136.9317220 151.3862100  73.8912090 144.9422450 150.9597010  72.8356770
 144.3431340 151.6832810  72.6520390 145.4902060 150.8973790  72.0533220
 140.1523900 151.8519220  84.9026390 140.0567500 150.9113950  84.7526790
 140.9955880 152.0734290  84.5074460 143.5487320 149.5960550  74.8660050
 143.9416890 149.9132750  74.0528740 143.9104170 148.7172430  74.9804570
 135.2834440 148.2632890  83.0560170 134.8897830 149.1108100  83.2632950
 134.5952840 147.6259260  83.2468810 141.8579490 148.3467860  86.1256910
 141.1677810 148.1540060  86.7603000 142.6011790 148.6302500  86.6581210
 132.5851490 146.1861350  77.0890250 132.2964540 146.7564210  77.8015230
 133.3297250 145.7065800  77.4521480 132.7721720 150.1281470  68.2992970
 132.6896390 151.0712230  68.4407960 132.4204780 149.9856380  67.4205320
 144.1342460 152.1866300  78.9610830 143.4023580 152.6953110  79.3100930
 143.7366800 151.3696280  78.6599610 140.5719850 148.8620500  77.3663320
 140.5755910 148.4210450  76.5167860 141.4670970 149.1837830  77.4735140
 136.4222230 148.7446990  76.3257530 136.0822280 149.2222220  77.0824580
 135.6599550 148.2912110  75.9658630 140.6340000 149.8632580  70.3570080
 140.7552820 149.8219060  71.3055900 140.2488510 150.7256730  70.2016810
 144.5968370 147.6399980  78.3733770 144.6141110 148.0908630  79.2175620
 144.3483950 146.7405620  78.5867210 139.6461500 152.1733720  69.7553380
 139.0778400 151.7251970  69.1289290 140.3550500 152.5326500  69.2218530
 148.0239120 145.0532160  84.2120150 148.3484890 144.3221820  84.7378130
 148.0595630 144.7345800  83.3101140 140.8727820 152.9222280  79.1128730
 141.2397950 152.4480850  79.8590070 140.6832880 153.7963850  79.4537070
 133.7368310 147.6665970  75.2422200 133.4515230 147.3021640  76.0800820
 133.6747170 146.9346430  74.6285340 138.6627190 151.9630920  81.4312940
 138.3584260 152.8422900  81.6563300 139.6173650 152.0230710  81.4670380
 143.4106900 146.5595230  71.9635570 142.5971510 146.0608400  71.8880880
 143.2168850 147.3993480  71.5471920 146.1255290 150.9314880  70.2597730
 147.0134910 151.2432110  70.0849070 146.0960380 150.0587130  69.8678310
 134.7190920 152.8033660  82.5784300 134.3605860 153.4687510  83.1657640
 134.4245480 151.9717210  82.9496920 137.9204040 153.2617900  85.4623850
 137.6204180 153.4075080  84.5651670 138.6915280 152.7023190  85.3697240
 148.3969560 152.2426720  69.7277590 148.3133280 152.6740940  68.8774030
 149.1163750 152.7025070  70.1604410 133.2298970 152.8024920  69.2018900
 134.0993820 153.0849720  69.4854820 132.7389290 153.6160790  69.0867710
 140.3933780 154.1898130  73.3227180 140.8496560 155.0003380  73.5487370
 140.0421990 153.8721270  74.1545670 136.2945560 144.5335780  73.7949700
 136.1660190 144.5253680  74.7434620 135.4707580 144.8718870  73.4440710
 133.2939490 146.2926900  83.2556400 132.5798010 146.4923820  83.8609010
 133.7134530 145.5166470  83.6271200 144.7878270 148.7849210  81.0057850
 145.1559090 147.9644420  81.3337420 143.9276470 148.8451100  81.4213500
 148.1540300 147.7406150  71.8145410 147.5253460 147.8451820  71.1003640
 147.6592220 147.9602930  72.6039290 140.1224330 150.0192100  73.2303290
 139.4140480 150.4878440  73.6716900 140.4068810 149.3614110  73.8648480
 141.7480260 151.4388800  81.2295820 142.2465510 151.9134620  81.8947670
 141.8903210 150.5152320  81.4365850 144.1539760 146.7442760  74.6699080
 144.0307540 146.7628890  73.7208590 145.1024320 146.7921700  74.7897480
 138.3259350 148.3277180  70.6054000 139.1749880 148.7647330  70.5394190
 137.9590620 148.6397440  71.4326060 148.9547120 147.6556760  82.0724210
 148.4520720 148.3962160  82.4118020 149.7703780 148.0440760  81.7561000
 147.2469130 152.8989940  75.5185570 146.3059270 152.9140170  75.6933260
 147.5613200 152.1125900  75.9645870 137.2250770 154.5809540  69.0789530
 137.9914040 154.4690900  69.6414960 137.3025460 153.8847510  68.4266300
 135.9197530 152.0134610  69.7622420 136.0001120 151.0662120  69.8739820
 136.8117280 152.3441490  69.8683080 133.4468330 153.8349530  84.9978590
 133.9507350 153.2556810  85.5694820 132.7075750 154.1189760  85.5354960
 135.4791410 151.9779120  85.8928660 135.5196750 151.6792990  86.8013890
 136.3336910 152.3786730  85.7336180 139.2569800 154.5774670  71.0532170
 139.6786220 154.4114540  71.8963560 139.3820640 153.7674900  70.5587310
 137.4197220 150.5571220  83.8603150 136.8893680 150.0662170  83.2326490
 138.0885290 150.9855420  83.3261080 141.7697440 153.6012280  68.3009270
 142.2903100 152.8861300  67.9350420 142.4165840 154.2398150  68.6009780
 146.7897450 152.3636840  85.6283490 147.3718220 151.6089160  85.5403970
 146.9659220 152.8944280  84.8514970 137.9069520 147.5233590  83.9400440
 137.8126390 146.9054340  83.2151310 137.3266910 148.2499880  83.7130350
 140.6730960 146.0806830  80.9727830 140.2248260 146.1031090  80.1273380
 140.0396160 145.6825850  81.5698130 143.4154410 152.7077340  82.9778110
 143.5350620 152.1118480  83.7172950 144.2748410 152.7447030  82.5579410
 145.7542310 153.2614530  81.5540620 145.2277530 153.7857150  80.9505760
 146.0973650 153.8941920  82.1850350 138.1528700 150.6507900  67.9990330
 137.9517760 149.7875260  68.3603670 137.9820750 150.5641260  67.0611930
 140.1823180 149.2498690  84.2353930 140.7722870 148.9414540  84.9231750
 139.3643420 148.7778440  84.3913830 145.0016610 148.8664500  84.4686950
 144.3132130 148.2046040  84.4036940 145.7222630 148.4202770  84.9135410
 145.6317010 145.4616130  70.5277210 145.9119300 144.6184030  70.8836630
 144.8582740 145.6939240  71.0415960 136.9511500 147.7508520  67.9868210
 137.2537400 147.7575950  67.0787360 137.6906090 147.4006380  68.4835870
 140.1696430 146.6943140  68.9724410 139.8218430 146.0167130  68.3926860
 140.3709200 146.2332650  69.7867800 133.5102070 153.2230790  75.3688780
 132.8550910 152.9542430  74.7248480 134.3480020 153.1135270  74.9190760
 146.4592510 148.0172080  69.5907270 146.8777390 147.8303060  68.7503930
 146.1528570 147.1651130  69.9010200 149.9582240 152.9296220  73.2883070
 149.5825840 152.1624150  72.8564360 149.2285360 153.3118920  73.7758000
 134.5478000 153.6083360  79.9092120 134.9151040 153.5210760  80.7888140
 133.9788820 152.8449910  79.8098980 149.3481860 152.0767740  82.9222590
 149.1167950 151.8480490  82.0220540 149.6086410 152.9967290  82.8767480
 134.0994000 150.5192450  83.8150540 133.2050050 150.4859210  84.1544250
 134.6391550 150.7179240  84.5801790 147.7869930 147.3024170  85.7002290
 148.6640110 147.3107570  86.0836290 147.7990770 146.5655010  85.0894640
 132.7240150 150.4329720  71.3114110 131.8204230 150.6959920  71.1365770
 133.2080770 150.7040890  70.5314070 149.2333200 151.1553710  76.5890310
 149.7570680 150.6616360  75.9580480 149.8192620 151.2904070  77.3337880
 149.4122920 151.2393580  80.1109860 148.4625630 151.2057120  80.2254850
 149.5935930 152.1493690  79.8759630 135.2667360 149.4895260  69.2208490
 135.9759060 149.0678480  68.7355770 134.5507300 149.5570490  68.5891840
 134.9141520 145.5434590  68.2611140 135.6369650 146.0843530  68.5792360
 135.1866040 145.2698010  67.3852680 148.7233170 150.4127060  72.5282720
 149.2192290 150.1797930  73.3131600 148.5249240 149.5738900  72.1120360
 134.6033710 144.7940780  78.1633760 135.2509900 144.2438160  77.7228920
 135.0235550 145.0483930  78.9849570 148.4986050 144.9882140  81.5203400
 149.1358270 145.6016280  81.8862590 148.6460940 145.0242800  80.5752630
 134.3565710 144.9496450  80.9059080 134.0080530 145.4060270  81.6717260
 134.0253410 144.0553580  80.9881510 141.8690530 146.1408330  84.4278500
 141.8079420 146.7330160  85.1773910 142.8090910 146.0334290  84.2828760
 144.5065090 145.7978390  84.0670790 145.1205500 146.1157680  83.4051870
 145.0514650 145.3126980  84.6866650 135.0286350 144.4772650  84.1809850
 135.5769340 144.2960700  83.4175960 135.0941660 143.6866760  84.7166160
 145.2473130 144.3610530  80.3940080 144.3732970 144.6945640  80.1913010
 145.1383880 143.8883710  81.2191950 146.1545110 146.5681400  81.7781800
 145.8258470 145.7533160  81.3983530 147.1027410 146.5251210  81.6547490
 142.9947950 145.2780370  79.3332990 142.2119740 145.7525870  79.6129750
 142.7010880 144.3735200  79.2246170 147.5469020 145.9803470  77.3782080
 147.9877110 145.9248570  76.5303680 147.2776610 146.8961480  77.4492260
 149.4107590 145.6118710  75.3890900 149.3495990 144.6679930  75.2421920
 150.1899620 145.7198800  75.9344360 134.3388360 145.5827850  71.8546710
 135.0967720 145.6956730  71.2810740 133.8765530 146.4197050  71.8090140
 140.8802170 147.6967120  74.8449020 140.0676680 147.3224010  74.5044900
 141.3843810 146.9412200  75.1470210 145.3827150 144.3609570  76.0832090
 145.9856520 144.9329780  76.5580610 144.6420140 144.9249010  75.8605990
 148.5261750 144.7631130  71.3572370 148.7212380 145.6614580  71.6239800
 147.7391620 144.5318210  71.8505320 136.7113510 146.1091900  70.3948680
 137.2406270 145.3221700  70.2656630 137.3441830 146.7883090  70.6284210
 138.9051350 145.8467040  73.4494070 138.2754090 145.1454350  73.6164200
 138.3656490 146.6071170  73.2327230 139.0306910 145.1251020  85.8846560
 138.7491180 145.6284620  85.1207380 139.4126610 144.3272770  85.5188690
 145.6322370 144.5404600  86.4627030 145.5187820 144.8599210  87.3578550
 146.4492110 144.9417110  86.1664310 144.5380520 152.5597070  56.8261770
 144.4574570 151.6451680  56.5553480 144.1244940 153.0564140  56.1201480
 142.6698560 154.3376090  58.7071040 141.8940660 153.8576530  58.9969610
 143.3211490 153.6581740  58.5327200 136.6864390 154.6495900  59.5846800
 135.8549270 154.3944610  59.9843310 137.2945370 154.7206670  60.3204720
 135.0956340 149.6097790  53.3689190 134.2073040 149.9513760  53.2669070
 135.3797530 149.4098110  52.4770020 133.0589350 152.2103440  59.2528890
 133.6305460 151.4425640  59.2532530 133.0590890 152.5092200  58.3435500
 134.3014220 147.6187800  61.0397820 134.1217060 146.7213550  61.3200580
 133.8994300 148.1659670  61.7144770 143.1412720 149.8203660  58.9410130
 143.5177540 148.9475540  58.8283800 143.0432230 150.1562360  58.0500570
 137.2717730 148.1929290  54.4027570 137.3784480 149.0933020  54.7096330
 136.3610090 148.1447260  54.1122220 146.9236840 147.3154100  55.8738470
 147.7446460 146.8250670  55.9163950 146.9570920 147.9051760  56.6270310
 134.9200890 150.1148300  59.6480160 135.6011000 150.3786670  60.2667560
 134.6048940 149.2749170  59.9818170 139.1125460 151.1615660  58.7352750
 139.6203680 151.6596630  59.3757770 139.6438700 150.3850860  58.5592110
 137.3961560 145.8014220  63.0016170 137.3980000 146.3186610  62.1962070
 136.5665870 145.3244400  62.9786100 147.1598320 149.2554480  58.6466010
 146.4553890 149.5439370  59.2269120 147.5210480 150.0654590  58.2865570
 137.0776890 147.5124180  61.0086620 137.4193700 148.3566230  60.7140490
 136.1392700 147.6607920  61.1251960 140.7604780 145.0006450  57.3331210
 141.0679760 144.4453340  56.6166710 139.8305480 145.1350910  57.1504200
 143.1485540 153.0655280  54.0691330 142.2214820 152.9992660  54.2979800
 143.3010360 154.0035410  53.9546570 143.1354620 149.3372280  51.0658490
 142.1958290 149.4986240  51.1510950 143.4537880 150.0557960  50.5194480
 149.6567380 154.0190800  61.0437520 148.8286010 154.0883890  60.5687650
 150.2517860 154.6045110  60.5753350 147.1782830 154.6275580  54.5726580
 146.5595250 154.2895130  53.9252880 147.1607280 153.9835340  55.2805770
 146.6209390 150.8060120  61.9892390 146.2080570 151.6313830  62.2432380
 145.8885340 150.2205160  61.7968750 138.7542180 153.5920020  56.8511060
 138.3499180 152.8797270  56.3556960 138.8405300 153.2473260  57.7399100
 137.4670800 150.3663230  60.6310100 138.0185390 150.4758570  59.8563350
 137.9814310 150.7400830  61.3465330 145.3547530 153.8662390  51.5799330
 145.7940810 153.0284820  51.4337150 146.0675950 154.4991790  51.6663470
 137.1413530 153.8882590  64.2415440 137.0021300 154.7605390  64.6102840
 136.2594890 153.5455400  64.0963380 148.9364670 145.1205200  49.8940370
 148.6237330 145.2132030  50.7939440 149.6977140 145.6986230  49.8437800
 135.4546810 152.4865000  54.3517710 135.3344410 153.2127090  53.7398980
 135.1447700 151.7167910  53.8745620 150.1465960 149.8576700  65.8714510
 149.5310230 150.3656370  65.3429970 149.8262380 148.9575030  65.8140450
 137.9210470 145.8300070  57.7341380 137.4778620 146.6109610  57.4025900
 138.4795460 146.1529960  58.4412320 142.2080280 148.6968590  63.3376700
 141.7459650 148.9051610  64.1496640 141.8058390 147.8827940  63.0347370
 147.2084790 149.9177540  64.4673360 146.3578380 149.6183290  64.7882430
 147.0486580 150.1619550  63.5557180 144.3034500 151.4179290  66.5672150
 144.6287910 150.5843040  66.2274380 145.0914830 151.9407810  66.7150480
 141.0369290 145.4510770  52.6147210 140.4123470 145.4470640  53.3400520
 140.9499410 144.5841730  52.2183180 139.9586370 146.3747400  59.5930980
 140.2558700 147.2810230  59.5123000 140.5071930 145.8866180  58.9790550
 137.7124690 150.9533640  55.4622630 137.4865610 150.7370810  56.3669250
 136.9317220 151.3862100  55.1168600 144.9422450 150.9597010  54.0613280
 144.3431340 151.6832810  53.8776900 145.4902060 150.8973790  53.2789730
 140.1523900 151.8519220  66.1282900 140.0567500 150.9113950  65.9783300
 140.9955880 152.0734290  65.7330970 143.5487320 149.5960550  56.0916560
 143.9416890 149.9132750  55.2785250 143.9104170 148.7172430  56.2061080
 135.2834440 148.2632890  64.2816680 134.8897830 149.1108100  64.4889460
 134.5952840 147.6259260  64.4725320 141.8579490 148.3467860  67.3513420
 141.1677810 148.1540060  67.9859510 142.6011790 148.6302500  67.8837720
 132.5851490 146.1861350  58.3146760 132.2964540 146.7564210  59.0271740
 133.3297250 145.7065800  58.6777990 132.7721720 150.1281470  49.5249480
 132.6896390 151.0712230  49.6664470 132.4204780 149.9856380  48.6461830
 144.1342460 152.1866300  60.1867340 143.4023580 152.6953110  60.5357440
 143.7366800 151.3696280  59.8856120 140.5719850 148.8620500  58.5919830
 140.5755910 148.4210450  57.7424370 141.4670970 149.1837830  58.6991650
 136.4222230 148.7446990  57.5514040 136.0822280 149.2222220  58.3081090
 135.6599550 148.2912110  57.1915140 140.6340000 149.8632580  51.5826590
 140.7552820 149.8219060  52.5312410 140.2488510 150.7256730  51.4273320
 144.5968370 147.6399980  59.5990280 144.6141110 148.0908630  60.4432130
 144.3483950 146.7405620  59.8123720 139.6461500 152.1733720  50.9809890
 139.0778400 151.7251970  50.3545800 140.3550500 152.5326500  50.4475040
 148.0239120 145.0532160  65.4376660 148.3484890 144.3221820  65.9634640
 148.0595630 144.7345800  64.5357650 140.8727820 152.9222280  60.3385240
 141.2397950 152.4480850  61.0846580 140.6832880 153.7963850  60.6793580
 133.7368310 147.6665970  56.4678710 133.4515230 147.3021640  57.3057330
 133.6747170 146.9346430  55.8541850 138.6627190 151.9630920  62.6569450
 138.3584260 152.8422900  62.8819810 139.6173650 152.0230710  62.6926890
 143.4106900 146.5595230  53.1892080 142.5971510 146.0608400  53.1137390
 143.2168850 147.3993480  52.7728430 146.1255290 150.9314880  51.4854240
 147.0134910 151.2432110  51.3105580 146.0960380 150.0587130  51.0934820
 134.7190920 152.8033660  63.8040810 134.3605860 153.4687510  64.3914150
 134.4245480 151.9717210  64.1753430 137.9204040 153.2617900  66.6880360
 137.6204180 153.4075080  65.7908180 138.6915280 152.7023190  66.5953750
 148.3969560 152.2426720  50.9534100 148.3133280 152.6740940  50.1030540
 149.1163750 152.7025070  51.3860920 133.2298970 152.8024920  50.4275410
 134.0993820 153.0849720  50.7111330 132.7389290 153.6160790  50.3124220
 140.3933780 154.1898130  54.5483690 140.8496560 155.0003380  54.7743880
 140.0421990 153.8721270  55.3802180 136.2945560 144.5335780  55.0206210
 136.1660190 144.5253680  55.9691130 135.4707580 144.8718870  54.6697220
 133.2939490 146.2926900  64.4812910 132.5798010 146.4923820  65.0865520
 133.7134530 145.5166470  64.8527710 144.7878270 148.7849210  62.2314360
 145.1559090 147.9644420  62.5593930 143.9276470 148.8451100  62.6470010
 148.1540300 147.7406150  53.0401920 147.5253460 147.8451820  52.3260150
 147.6592220 147.9602930  53.8295800 140.1224330 150.0192100  54.4559800
 139.4140480 150.4878440  54.8973410 140.4068810 149.3614110  55.0904990
 141.7480260 151.4388800  62.4552330 142.2465510 151.9134620  63.1204180
 141.8903210 150.5152320  62.6622360 144.1539760 146.7442760  55.8955590
 144.0307540 146.7628890  54.9465100 145.1024320 146.7921700  56.0153990
 138.3259350 148.3277180  51.8310510 139.1749880 148.7647330  51.7650700
 137.9590620 148.6397440  52.6582570 148.9547120 147.6556760  63.2980720
 148.4520720 148.3962160  63.6374530 149.7703780 148.0440760  62.9817510
 147.2469130 152.8989940  56.7442080 146.3059270 152.9140170  56.9189770
 147.5613200 152.1125900  57.1902380 137.2250770 154.5809540  50.3046040
 137.9914040 154.4690900  50.8671470 137.3025460 153.8847510  49.6522810
 135.9197530 152.0134610  50.9878930 136.0001120 151.0662120  51.0996330
 136.8117280 152.3441490  51.0939590 133.4468330 153.8349530  66.2235100
 133.9507350 153.2556810  66.7951330 132.7075750 154.1189760  66.7611470
 135.4791410 151.9779120  67.1185170 135.5196750 151.6792990  68.0270400
 136.3336910 152.3786730  66.9592690 139.2569800 154.5774670  52.2788680
 139.6786220 154.4114540  53.1220070 139.3820640 153.7674900  51.7843820
 137.4197220 150.5571220  65.0859660 136.8893680 150.0662170  64.4583000
 138.0885290 150.9855420  64.5517590 141.7697440 153.6012280  49.5265780
 142.2903100 152.8861300  49.1606930 142.4165840 154.2398150  49.8266290
 146.7897450 152.3636840  66.8540000 147.3718220 151.6089160  66.7660480
 146.9659220 152.8944280  66.0771480 137.9069520 147.5233590  65.1656950
 137.8126390 146.9054340  64.4407820 137.3266910 148.2499880  64.9386860
 140.6730960 146.0806830  62.1984340 140.2248260 146.1031090  61.3529890
 140.0396160 145.6825850  62.7954640 143.4154410 152.7077340  64.2034620
 143.5350620 152.1118480  64.9429460 144.2748410 152.7447030  63.7835920
 145.7542310 153.2614530  62.7797130 145.2277530 153.7857150  62.1762270
 146.0973650 153.8941920  63.4106860 138.1528700 150.6507900  49.2246840
 137.9517760 149.7875260  49.5860180 137.9820750 150.5641260  48.2868440
 140.1823180 149.2498690  65.4610440 140.7722870 148.9414540  66.1488260
 139.3643420 148.7778440  65.6170340 145.0016610 148.8664500  65.6943460
 144.3132130 148.2046040  65.6293450 145.7222630 148.4202770  66.1391920
 145.6317010 145.4616130  51.7533720 145.9119300 144.6184030  52.1093140
 144.8582740 145.6939240  52.2672470 136.9511500 147.7508520  49.2124720
 137.2537400 147.7575950  48.3043870 137.6906090 147.4006380  49.7092380
 140.1696430 146.6943140  50.1980920 139.8218430 146.0167130  49.6183370
 140.3709200 146.2332650  51.0124310 133.5102070 153.2230790  56.5945290
 132.8550910 152.9542430  55.9504990 134.3480020 153.1135270  56.1447270
 146.4592510 148.0172080  50.8163780 146.8777390 147.8303060  49.9760440
 146.1528570 147.1651130  51.1266710 149.9582240 152.9296220  54.5139580
 149.5825840 152.1624150  54.0820870 149.2285360 153.3118920  55.0014510
 134.5478000 153.6083360  61.1348630 134.9151040 153.5210760  62.0144650
 133.9788820 152.8449910  61.0355490 149.3481860 152.0767740  64.1479100
 149.1167950 151.8480490  63.2477050 149.6086410 152.9967290  64.1023990
 134.0994000 150.5192450  65.0407050 133.2050050 150.4859210  65.3800760
 134.6391550 150.7179240  65.8058300 147.7869930 147.3024170  66.9258800
 148.6640110 147.3107570  67.3092800 147.7990770 146.5655010  66.3151150
 132.7240150 150.4329720  52.5370620 131.8204230 150.6959920  52.3622280
 133.2080770 150.7040890  51.7570580 149.2333200 151.1553710  57.8146820
 149.7570680 150.6616360  57.1836990 149.8192620 151.2904070  58.5594390
 149.4122920 151.2393580  61.3366370 148.4625630 151.2057120  61.4511360
 149.5935930 152.1493690  61.1016140 135.2667360 149.4895260  50.4465000
 135.9759060 149.0678480  49.9612280 134.5507300 149.5570490  49.8148350
 134.9141520 145.5434590  49.4867650 135.6369650 146.0843530  49.8048870
 135.1866040 145.2698010  48.6109190 148.7233170 150.4127060  53.7539230
 149.2192290 150.1797930  54.5388110 148.5249240 149.5738900  53.3376870
 134.6033710 144.7940780  59.3890270 135.2509900 144.2438160  58.9485430
 135.0235550 145.0483930  60.2106080 148.4986050 144.9882140  62.7459910
 149.1358270 145.6016280  63.1119100 148.6460940 145.0242800  61.8009140
 134.3565710 144.9496450  62.1315590 134.0080530 145.4060270  62.8973770
 134.0253410 144.0553580  62.2138020 141.8690530 146.1408330  65.6535010
 141.8079420 146.7330160  66.4030420 142.8090910 146.0334290  65.5085270
 144.5065090 145.7978390  65.2927300 145.1205500 146.1157680  64.6308380
 145.0514650 145.3126980  65.9123160 135.0286350 144.4772650  65.4066360
 135.5769340 144.2960700  64.6432470 135.0941660 143.6866760  65.9422670
 145.2473130 144.3610530  61.6196590 144.3732970 144.6945640  61.4169520
 145.1383880 143.8883710  62.4448460 146.1545110 146.5681400  63.0038310
 145.8258470 145.7533160  62.6240040 147.1027410 146.5251210  62.8804000
 142.9947950 145.2780370  60.5589500 142.2119740 145.7525870  60.8386260
 142.7010880 144.3735200  60.4502680 147.5469020 145.9803470  58.6038590
 147.9877110 145.9248570  57.7560190 147.2776610 146.8961480  58.6748770
 149.4107590 145.6118710  56.6147410 149.3495990 144.6679930  56.4678430
 150.1899620 145.7198800  57.1600870 134.3388360 145.5827850  53.0803220
 135.0967720 145.6956730  52.5067250 133.8765530 146.4197050  53.0346650
 140.8802170 147.6967120  56.0705530 140.0676680 147.3224010  55.7301410
 141.3843810 146.9412200  56.3726720 145.3827150 144.3609570  57.3088600
 145.9856520 144.9329780  57.7837120 144.6420140 144.9249010  57.0862500
 148.5261750 144.7631130  52.5828880 148.7212380 145.6614580  52.8496310
 147.7391620 144.5318210  53.0761830 136.7113510 146.1091900  51.6205190
 137.2406270 145.3221700  51.4913140 137.3441830 146.7883090  51.8540720
 138.9051350 145.8467040  54.6750580 138.2754090 145.1454350  54.8420710
 138.3656490 146.6071170  54.4583740 139.0306910 145.1251020  67.1103070
 138.7491180 145.6284620  66.3463890 139.4126610 144.3272770  66.7445200
 145.6322370 144.5404600  67.6883540 145.5187820 144.8599210  68.5835060
 146.4492110 144.9417110  67.3920820 144.5380520 152.5597070  38.0518280
 144.4574570 151.6451680  37.7809990 144.1244940 153.0564140  37.3457990
 142.6698560 154.3376090  39.9327550 141.8940660 153.8576530  40.2226120
 143.3211490 153.6581740  39.7583710 136.6864390 154.6495900  40.8103310
 135.8549270 154.3944610  41.2099820 137.2945370 154.7206670  41.5461230
 135.0956340 149.6097790  34.5945700 134.2073040 149.9513760  34.4925580
 135.3797530 149.4098110  33.7026530 133.0589350 152.2103440  40.4785400
 133.6305460 151.4425640  40.4789040 133.0590890 152.5092200  39.5692010
 134.3014220 147.6187800  42.2654330 134.1217060 146.7213550  42.5457090
 133.8994300 148.1659670  42.9401280 143.1412720 149.8203660  40.1666640
 143.5177540 148.9475540  40.0540310 143.0432230 150.1562360  39.2757080
 137.2717730 148.1929290  35.6284080 137.3784480 149.0933020  35.9352840
 136.3610090 148.1447260  35.3378730 146.9236840 147.3154100  37.0994980
 147.7446460 146.8250670  37.1420460 146.9570920 147.9051760  37.8526820
 134.9200890 150.1148300  40.8736670 135.6011000 150.3786670  41.4924070
 134.6048940 149.2749170  41.2074680 139.1125460 151.1615660  39.9609260
 139.6203680 151.6596630  40.6014280 139.6438700 150.3850860  39.7848620
 137.3961560 145.8014220  44.2272680 137.3980000 146.3186610  43.4218580
 136.5665870 145.3244400  44.2042610 147.1598320 149.2554480  39.8722520
 146.4553890 149.5439370  40.4525630 147.5210480 150.0654590  39.5122080
 137.0776890 147.5124180  42.2343130 137.4193700 148.3566230  41.9397000
 136.1392700 147.6607920  42.3508470 140.7604780 145.0006450  38.5587720
 141.0679760 144.4453340  37.8423220 139.8305480 145.1350910  38.3760710
 143.1485540 153.0655280  35.2947840 142.2214820 152.9992660  35.5236310
 143.3010360 154.0035410  35.1803080 143.1354620 149.3372280  32.2915000
 142.1958290 149.4986240  32.3767460 143.4537880 150.0557960  31.7450990
 149.6567380 154.0190800  42.2694030 148.8286010 154.0883890  41.7944160
 150.2517860 154.6045110  41.8009860 147.1782830 154.6275580  35.7983090
 146.5595250 154.2895130  35.1509390 147.1607280 153.9835340  36.5062280
 146.6209390 150.8060120  43.2148900 146.2080570 151.6313830  43.4688890
 145.8885340 150.2205160  43.0225260 138.7542180 153.5920020  38.0767570
 138.3499180 152.8797270  37.5813470 138.8405300 153.2473260  38.9655610
 137.4670800 150.3663230  41.8566610 138.0185390 150.4758570  41.0819860
 137.9814310 150.7400830  42.5721840 145.3547530 153.8662390  32.8055840
 145.7940810 153.0284820  32.6593660 146.0675950 154.4991790  32.8919980
 137.1413530 153.8882590  45.4671950 137.0021300 154.7605390  45.8359350
 136.2594890 153.5455400  45.3219890 148.9364670 145.1205200  31.1196880
 148.6237330 145.2132030  32.0195950 149.6977140 145.6986230  31.0694310
 135.4546810 152.4865000  35.5774220 135.3344410 153.2127090  34.9655490
 135.1447700 151.7167910  35.1002130 150.1465960 149.8576700  47.0971020
 149.5310230 150.3656370  46.5686480 149.8262380 148.9575030  47.0396960
 137.9210470 145.8300070  38.9597890 137.4778620 146.6109610  38.6282410
 138.4795460 146.1529960  39.6668830 142.2080280 148.6968590  44.5633210
 141.7459650 148.9051610  45.3753150 141.8058390 147.8827940  44.2603880
 147.2084790 149.9177540  45.6929870 146.3578380 149.6183290  46.0138940
 147.0486580 150.1619550  44.7813690 144.3034500 151.4179290  47.7928660
 144.6287910 150.5843040  47.4530890 145.0914830 151.9407810  47.9406990
 141.0369290 145.4510770  33.8403720 140.4123470 145.4470640  34.5657030
 140.9499410 144.5841730  33.4439690 139.9586370 146.3747400  40.8187490
 140.2558700 147.2810230  40.7379510 140.5071930 145.8866180  40.2047060
 137.7124690 150.9533640  36.6879140 137.4865610 150.7370810  37.5925760
 136.9317220 151.3862100  36.3425110 144.9422450 150.9597010  35.2869790
 144.3431340 151.6832810  35.1033410 145.4902060 150.8973790  34.5046240
 140.1523900 151.8519220  47.3539410 140.0567500 150.9113950  47.2039810
 140.9955880 152.0734290  46.9587480 143.5487320 149.5960550  37.3173070
 143.9416890 149.9132750  36.5041760 143.9104170 148.7172430  37.4317590
 135.2834440 148.2632890  45.5073190 134.8897830 149.1108100  45.7145970
 134.5952840 147.6259260  45.6981830 141.8579490 148.3467860  48.5769930
 141.1677810 148.1540060  49.2116020 142.6011790 148.6302500  49.1094230
 132.5851490 146.1861350  39.5403270 132.2964540 146.7564210  40.2528250
 133.3297250 145.7065800  39.9034500 132.7721720 150.1281470  30.7505990
 132.6896390 151.0712230  30.8920980 132.4204780 149.9856380  29.8718340
 144.1342460 152.1866300  41.4123850 143.4023580 152.6953110  41.7613950
 143.7366800 151.3696280  41.1112630 140.5719850 148.8620500  39.8176340
 140.5755910 148.4210450  38.9680880 141.4670970 149.1837830  39.9248160
 136.4222230 148.7446990  38.7770550 136.0822280 149.2222220  39.5337600
 135.6599550 148.2912110  38.4171650 140.6340000 149.8632580  32.8083100
 140.7552820 149.8219060  33.7568920 140.2488510 150.7256730  32.6529830
 144.5968370 147.6399980  40.8246790 144.6141110 148.0908630  41.6688640
 144.3483950 146.7405620  41.0380230 139.6461500 152.1733720  32.2066400
 139.0778400 151.7251970  31.5802310 140.3550500 152.5326500  31.6731550
 148.0239120 145.0532160  46.6633170 148.3484890 144.3221820  47.1891150
 148.0595630 144.7345800  45.7614160 140.8727820 152.9222280  41.5641750
 141.2397950 152.4480850  42.3103090 140.6832880 153.7963850  41.9050090
 133.7368310 147.6665970  37.6935220 133.4515230 147.3021640  38.5313840
 133.6747170 146.9346430  37.0798360 138.6627190 151.9630920  43.8825960
 138.3584260 152.8422900  44.1076320 139.6173650 152.0230710  43.9183400
 143.4106900 146.5595230  34.4148590 142.5971510 146.0608400  34.3393900
 143.2168850 147.3993480  33.9984940 146.1255290 150.9314880  32.7110750
 147.0134910 151.2432110  32.5362090 146.0960380 150.0587130  32.3191330
 134.7190920 152.8033660  45.0297320 134.3605860 153.4687510  45.6170660
 134.4245480 151.9717210  45.4009940 137.9204040 153.2617900  47.9136870
 137.6204180 153.4075080  47.0164690 138.6915280 152.7023190  47.8210260
 148.3969560 152.2426720  32.1790610 148.3133280 152.6740940  31.3287050
 149.1163750 152.7025070  32.6117430 133.2298970 152.8024920  31.6531920
 134.0993820 153.0849720  31.9367840 132.7389290 153.6160790  31.5380730
 140.3933780 154.1898130  35.7740200 140.8496560 155.0003380  36.0000390
 140.0421990 153.8721270  36.6058690 136.2945560 144.5335780  36.2462720
 136.1660190 144.5253680  37.1947640 135.4707580 144.8718870  35.8953730
 133.2939490 146.2926900  45.7069420 132.5798010 146.4923820  46.3122030
 133.7134530 145.5166470  46.0784220 144.7878270 148.7849210  43.4570870
 145.1559090 147.9644420  43.7850440 143.9276470 148.8451100  43.8726520
 148.1540300 147.7406150  34.2658430 147.5253460 147.8451820  33.5516660
 147.6592220 147.9602930  35.0552310 140.1224330 150.0192100  35.6816310
 139.4140480 150.4878440  36.1229920 140.4068810 149.3614110  36.3161500
 141.7480260 151.4388800  43.6808840 142.2465510 151.9134620  44.3460690
 141.8903210 150.5152320  43.8878870 144.1539760 146.7442760  37.1212100
 144.0307540 146.7628890  36.1721610 145.1024320 146.7921700  37.2410500
 138.3259350 148.3277180  33.0567020 139.1749880 148.7647330  32.9907210
 137.9590620 148.6397440  33.8839080 148.9547120 147.6556760  44.5237230
 148.4520720 148.3962160  44.8631040 149.7703780 148.0440760  44.2074020
 147.2469130 152.8989940  37.9698590 146.3059270 152.9140170  38.1446280
 147.5613200 152.1125900  38.4158890 137.2250770 154.5809540  31.5302550
 137.9914040 154.4690900  32.0927980 137.3025460 153.8847510  30.8779320
 135.9197530 152.0134610  32.2135440 136.0001120 151.0662120  32.3252840
 136.8117280 152.3441490  32.3196100 133.4468330 153.8349530  47.4491610
 133.9507350 153.2556810  48.0207840 132.7075750 154.1189760  47.9867980
 135.4791410 151.9779120  48.3441680 135.5196750 151.6792990  49.2526910
 136.3336910 152.3786730  48.1849200 139.2569800 154.5774670  33.5045190
 139.6786220 154.4114540  34.3476580 139.3820640 153.7674900  33.0100330
 137.4197220 150.5571220  46.3116170 136.8893680 150.0662170  45.6839510
 138.0885290 150.9855420  45.7774100 141.7697440 153.6012280  30.7522290
 142.2903100 152.8861300  30.3863440 142.4165840 154.2398150  31.0522800
 146.7897450 152.3636840  48.0796510 147.3718220 151.6089160  47.9916990
 146.9659220 152.8944280  47.3027990 137.9069520 147.5233590  46.3913460
 137.8126390 146.9054340  45.6664330 137.3266910 148.2499880  46.1643370
 140.6730960 146.0806830  43.4240850 140.2248260 146.1031090  42.5786400
 140.0396160 145.6825850  44.0211150 143.4154410 152.7077340  45.4291130
 143.5350620 152.1118480  46.1685970 144.2748410 152.7447030  45.0092430
 145.7542310 153.2614530  44.0053640 145.2277530 153.7857150  43.4018780
 146.0973650 153.8941920  44.6363370 138.1528700 150.6507900  30.4503350
 137.9517760 149.7875260  30.8116690 137.9820750 150.5641260  29.5124950
 140.1823180 149.2498690  46.6866950 140.7722870 148.9414540  47.3744770
 139.3643420 148.7778440  46.8426850 145.0016610 148.8664500  46.9199970
 144.3132130 148.2046040  46.8549960 145.7222630 148.4202770  47.3648430
 145.6317010 145.4616130  32.9790230 145.9119300 144.6184030  33.3349650
 144.8582740 145.6939240  33.4928980 136.9511500 147.7508520  30.4381230
 137.2537400 147.7575950  29.5300380 137.6906090 147.4006380  30.9348890
 140.1696430 146.6943140  31.4237430 139.8218430 146.0167130  30.8439880
 140.3709200 146.2332650  32.2380820 133.5102070 153.2230790  37.8201800
 132.8550910 152.9542430  37.1761500 134.3480020 153.1135270  37.3703780
 146.4592510 148.0172080  32.0420290 146.8777390 147.8303060  31.2016950
 146.1528570 147.1651130  32.3523220 149.9582240 152.9296220  35.7396090
 149.5825840 152.1624150  35.3077380 149.2285360 153.3118920  36.2271020
 134.5478000 153.6083360  42.3605140 134.9151040 153.5210760  43.2401160
 133.9788820 152.8449910  42.2612000 149.3481860 152.0767740  45.3735610
 149.1167950 151.8480490  44.4733560 149.6086410 152.9967290  45.3280500
 134.0994000 150.5192450  46.2663560 133.2050050 150.4859210  46.6057270
 134.6391550 150.7179240  47.0314810 147.7869930 147.3024170  48.1515310
 148.6640110 147.3107570  48.5349310 147.7990770 146.5655010  47.5407660
 132.7240150 150.4329720  33.7627130 131.8204230 150.6959920  33.5878790
 133.2080770 150.7040890  32.9827090 149.2333200 151.1553710  39.0403330
 149.7570680 150.6616360  38.4093500 149.8192620 151.2904070  39.7850900
 149.4122920 151.2393580  42.5622880 148.4625630 151.2057120  42.6767870
 149.5935930 152.1493690  42.3272650 135.2667360 149.4895260  31.6721510
 135.9759060 149.0678480  31.1868790 134.5507300 149.5570490  31.0404860
 134.9141520 145.5434590  30.7124160 135.6369650 146.0843530  31.0305380
 135.1866040 145.2698010  29.8365700 148.7233170 150.4127060  34.9795740
 149.2192290 150.1797930  35.7644620 148.5249240 149.5738900  34.5633380
 134.6033710 144.7940780  40.6146780 135.2509900 144.2438160  40.1741940
 135.0235550 145.0483930  41.4362590 148.4986050 144.9882140  43.9716420
 149.1358270 145.6016280  44.3375610 148.6460940 145.0242800  43.0265650
 134.3565710 144.9496450  43.3572100 134.0080530 145.4060270  44.1230280
 134.0253410 144.0553580  43.4394530 141.8690530 146.1408330  46.8791520
 141.8079420 146.7330160  47.6286930 142.8090910 146.0334290  46.7341780
 144.5065090 145.7978390  46.5183810 145.1205500 146.1157680  45.8564890
 145.0514650 145.3126980  47.1379670 135.0286350 144.4772650  46.6322870
 135.5769340 144.2960700  45.8688980 135.0941660 143.6866760  47.1679180
 145.2473130 144.3610530  42.8453100 144.3732970 144.6945640  42.6426030
 145.1383880 143.8883710  43.6704970 146.1545110 146.5681400  44.2294820
 145.8258470 145.7533160  43.8496550 147.1027410 146.5251210  44.1060510
 142.9947950 145.2780370  41.7846010 142.2119740 145.7525870  42.0642770
 142.7010880 144.3735200  41.6759190 147.5469020 145.9803470  39.8295100
 147.9877110 145.9248570  38.9816700 147.2776610 146.8961480  39.9005280
 149.4107590 145.6118710  37.8403920 149.3495990 144.6679930  37.6934940
 150.1899620 145.7198800  38.3857380 134.3388360 145.5827850  34.3059730
 135.0967720 145.6956730  33.7323760 133.8765530 146.4197050  34.2603160
 140.8802170 147.6967120  37.2962040 140.0676680 147.3224010  36.9557920
 141.3843810 146.9412200  37.5983230 145.3827150 144.3609570  38.5345110
 145.9856520 144.9329780  39.0093630 144.6420140 144.9249010  38.3119010
 148.5261750 144.7631130  33.8085390 148.7212380 145.6614580  34.0752820
 147.7391620 144.5318210  34.3018340 136.7113510 146.1091900  32.8461700
 137.2406270 145.3221700  32.7169650 137.3441830 146.7883090  33.0797230
 138.9051350 145.8467040  35.9007090 138.2754090 145.1454350  36.0677220
 138.3656490 146.6071170  35.6840250 139.0306910 145.1251020  48.3359580
 138.7491180 145.6284620  47.5720400 139.4126610 144.3272770  47.9701710
 145.6322370 144.5404600  48.9140050 145.5187820 144.8599210  49.8091570
 146.4492110 144.9417110  48.6177330 144.5380520 152.5597070  19.2774790
 144.4574570 151.6451680  19.0066500 144.1244940 153.0564140  18.5714500
 142.6698560 154.3376090  21.1584060 141.8940660 153.8576530  21.4482630
 143.3211490 153.6581740  20.9840220 136.6864390 154.6495900  22.0359820
 135.8549270 154.3944610  22.4356330 137.2945370 154.7206670  22.7717740
 135.0956340 149.6097790  15.8202210 134.2073040 149.9513760  15.7182090
 135.3797530 149.4098110  14.9283040 133.0589350 152.2103440  21.7041910
 133.6305460 151.4425640  21.7045550 133.0590890 152.5092200  20.7948520
 134.3014220 147.6187800  23.4910840 134.1217060 146.7213550  23.7713600
 133.8994300 148.1659670  24.1657790 143.1412720 149.8203660  21.3923150
 143.5177540 148.9475540  21.2796820 143.0432230 150.1562360  20.5013590
 137.2717730 148.1929290  16.8540590 137.3784480 149.0933020  17.1609350
 136.3610090 148.1447260  16.5635240 146.9236840 147.3154100  18.3251490
 147.7446460 146.8250670  18.3676970 146.9570920 147.9051760  19.0783330
 134.9200890 150.1148300  22.0993180 135.6011000 150.3786670  22.7180580
 134.6048940 149.2749170  22.4331190 139.1125460 151.1615660  21.1865770
 139.6203680 151.6596630  21.8270790 139.6438700 150.3850860  21.0105130
 137.3961560 145.8014220  25.4529190 137.3980000 146.3186610  24.6475090
 136.5665870 145.3244400  25.4299120 147.1598320 149.2554480  21.0979030
 146.4553890 149.5439370  21.6782140 147.5210480 150.0654590  20.7378590
 137.0776890 147.5124180  23.4599640 137.4193700 148.3566230  23.1653510
 136.1392700 147.6607920  23.5764980 140.7604780 145.0006450  19.7844230
 141.0679760 144.4453340  19.0679730 139.8305480 145.1350910  19.6017220
 143.1485540 153.0655280  16.5204350 142.2214820 152.9992660  16.7492820
 143.3010360 154.0035410  16.4059590 143.1354620 149.3372280  13.5171510
 142.1958290 149.4986240  13.6023970 143.4537880 150.0557960  12.9707500
 149.6567380 154.0190800  23.4950540 148.8286010 154.0883890  23.0200670
 150.2517860 154.6045110  23.0266370 147.1782830 154.6275580  17.0239600
 146.5595250 154.2895130  16.3765900 147.1607280 153.9835340  17.7318790
 146.6209390 150.8060120  24.4405410 146.2080570 151.6313830  24.6945400
 145.8885340 150.2205160  24.2481770 138.7542180 153.5920020  19.3024080
 138.3499180 152.8797270  18.8069980 138.8405300 153.2473260  20.1912120
 137.4670800 150.3663230  23.0823120 138.0185390 150.4758570  22.3076370
 137.9814310 150.7400830  23.7978350 145.3547530 153.8662390  14.0312350
 145.7940810 153.0284820  13.8850170 146.0675950 154.4991790  14.1176490
 137.1413530 153.8882590  26.6928460 137.0021300 154.7605390  27.0615860
 136.2594890 153.5455400  26.5476400 148.9364670 145.1205200  12.3453390
 148.6237330 145.2132030  13.2452460 149.6977140 145.6986230  12.2950820
 135.4546810 152.4865000  16.8030730 135.3344410 153.2127090  16.1912000
 135.1447700 151.7167910  16.3258640 150.1465960 149.8576700  28.3227530
 149.5310230 150.3656370  27.7942990 149.8262380 148.9575030  28.2653470
 137.9210470 145.8300070  20.1854400 137.4778620 146.6109610  19.8538920
 138.4795460 146.1529960  20.8925340 142.2080280 148.6968590  25.7889720
 141.7459650 148.9051610  26.6009660 141.8058390 147.8827940  25.4860390
 147.2084790 149.9177540  26.9186380 146.3578380 149.6183290  27.2395450
 147.0486580 150.1619550  26.0070200 144.3034500 151.4179290  29.0185170
 144.6287910 150.5843040  28.6787400 145.0914830 151.9407810  29.1663500
 141.0369290 145.4510770  15.0660230 140.4123470 145.4470640  15.7913540
 140.9499410 144.5841730  14.6696200 139.9586370 146.3747400  22.0444000
 140.2558700 147.2810230  21.9636020 140.5071930 145.8866180  21.4303570
 137.7124690 150.9533640  17.9135650 137.4865610 150.7370810  18.8182270
 136.9317220 151.3862100  17.5681620 144.9422450 150.9597010  16.5126300
 144.3431340 151.6832810  16.3289920 145.4902060 150.8973790  15.7302750
 140.1523900 151.8519220  28.5795920 140.0567500 150.9113950  28.4296320
 140.9955880 152.0734290  28.1843990 143.5487320 149.5960550  18.5429580
 143.9416890 149.9132750  17.7298270 143.9104170 148.7172430  18.6574100
 135.2834440 148.2632890  26.7329700 134.8897830 149.1108100  26.9402480
 134.5952840 147.6259260  26.9238340 141.8579490 148.3467860  29.8026440
 141.1677810 148.1540060  30.4372530 142.6011790 148.6302500  30.3350740
 132.5851490 146.1861350  20.7659780 132.2964540 146.7564210  21.4784760
 133.3297250 145.7065800  21.1291010 132.7721720 150.1281470  11.9762500
 132.6896390 151.0712230  12.1177490 132.4204780 149.9856380  11.0974850
 144.1342460 152.1866300  22.6380360 143.4023580 152.6953110  22.9870460
 143.7366800 151.3696280  22.3369140 140.5719850 148.8620500  21.0432850
 140.5755910 148.4210450  20.1937390 141.4670970 149.1837830  21.1504670
 136.4222230 148.7446990  20.0027060 136.0822280 149.2222220  20.7594110
 135.6599550 148.2912110  19.6428160 140.6340000 149.8632580  14.0339610
 140.7552820 149.8219060  14.9825430 140.2488510 150.7256730  13.8786340
 144.5968370 147.6399980  22.0503300 144.6141110 148.0908630  22.8945150
 144.3483950 146.7405620  22.2636740 139.6461500 152.1733720  13.4322910
 139.0778400 151.7251970  12.8058820 140.3550500 152.5326500  12.8988060
 148.0239120 145.0532160  27.8889680 148.3484890 144.3221820  28.4147660
 148.0595630 144.7345800  26.9870670 140.8727820 152.9222280  22.7898260
 141.2397950 152.4480850  23.5359600 140.6832880 153.7963850  23.1306600
 133.7368310 147.6665970  18.9191730 133.4515230 147.3021640  19.7570350
 133.6747170 146.9346430  18.3054870 138.6627190 151.9630920  25.1082470
 138.3584260 152.8422900  25.3332830 139.6173650 152.0230710  25.1439910
 143.4106900 146.5595230  15.6405100 142.5971510 146.0608400  15.5650410
 143.2168850 147.3993480  15.2241450 146.1255290 150.9314880  13.9367260
 147.0134910 151.2432110  13.7618600 146.0960380 150.0587130  13.5447840
 134.7190920 152.8033660  26.2553830 134.3605860 153.4687510  26.8427170
 134.4245480 151.9717210  26.6266450 137.9204040 153.2617900  29.1393380
 137.6204180 153.4075080  28.2421200 138.6915280 152.7023190  29.0466770
 148.3969560 152.2426720  13.4047120 148.3133280 152.6740940  12.5543560
 149.1163750 152.7025070  13.8373940 133.2298970 152.8024920  12.8788430
 134.0993820 153.0849720  13.1624350 132.7389290 153.6160790  12.7637240
 140.3933780 154.1898130  16.9996710 140.8496560 155.0003380  17.2256900
 140.0421990 153.8721270  17.8315200 136.2945560 144.5335780  17.4719230
 136.1660190 144.5253680  18.4204150 135.4707580 144.8718870  17.1210240
 133.2939490 146.2926900  26.9325930 132.5798010 146.4923820  27.5378540
 133.7134530 145.5166470  27.3040730 144.7878270 148.7849210  24.6827380
 145.1559090 147.9644420  25.0106950 143.9276470 148.8451100  25.0983030
 148.1540300 147.7406150  15.4914940 147.5253460 147.8451820  14.7773170
 147.6592220 147.9602930  16.2808820 140.1224330 150.0192100  16.9072820
 139.4140480 150.4878440  17.3486430 140.4068810 149.3614110  17.5418010
 141.7480260 151.4388800  24.9065350 142.2465510 151.9134620  25.5717200
 141.8903210 150.5152320  25.1135380 144.1539760 146.7442760  18.3468610
 144.0307540 146.7628890  17.3978120 145.1024320 146.7921700  18.4667010
 138.3259350 148.3277180  14.2823530 139.1749880 148.7647330  14.2163720
 137.9590620 148.6397440  15.1095590 148.9547120 147.6556760  25.7493740
 148.4520720 148.3962160  26.0887550 149.7703780 148.0440760  25.4330530
 147.2469130 152.8989940  19.1955100 146.3059270 152.9140170  19.3702790
 147.5613200 152.1125900  19.6415400 137.2250770 154.5809540  12.7559060
 137.9914040 154.4690900  13.3184490 137.3025460 153.8847510  12.1035830
 135.9197530 152.0134610  13.4391950 136.0001120 151.0662120  13.5509350
 136.8117280 152.3441490  13.5452610 133.4468330 153.8349530  28.6748120
 133.9507350 153.2556810  29.2464350 132.7075750 154.1189760  29.2124490
 135.4791410 151.9779120  29.5698190 135.5196750 151.6792990  30.4783420
 136.3336910 152.3786730  29.4105710 139.2569800 154.5774670  14.7301700
 139.6786220 154.4114540  15.5733090 139.3820640 153.7674900  14.2356840
 137.4197220 150.5571220  27.5372680 136.8893680 150.0662170  26.9096020
 138.0885290 150.9855420  27.0030610 141.7697440 153.6012280  11.9778800
 142.2903100 152.8861300  11.6119950 142.4165840 154.2398150  12.2779310
 146.7897450 152.3636840  29.3053020 147.3718220 151.6089160  29.2173500
 146.9659220 152.8944280  28.5284500 137.9069520 147.5233590  27.6169970
 137.8126390 146.9054340  26.8920840 137.3266910 148.2499880  27.3899880
 140.6730960 146.0806830  24.6497360 140.2248260 146.1031090  23.8042910
 140.0396160 145.6825850  25.2467660 143.4154410 152.7077340  26.6547640
 143.5350620 152.1118480  27.3942480 144.2748410 152.7447030  26.2348940
 145.7542310 153.2614530  25.2310150 145.2277530 153.7857150  24.6275290
 146.0973650 153.8941920  25.8619880 138.1528700 150.6507900  11.6759860
 137.9517760 149.7875260  12.0373200 137.9820750 150.5641260  10.7381460
 140.1823180 149.2498690  27.9123460 140.7722870 148.9414540  28.6001280
 139.3643420 148.7778440  28.0683360 145.0016610 148.8664500  28.1456480
 144.3132130 148.2046040  28.0806470 145.7222630 148.4202770  28.5904940
 145.6317010 145.4616130  14.2046740 145.9119300 144.6184030  14.5606160
 144.8582740 145.6939240  14.7185490 136.9511500 147.7508520  11.6637740
 137.2537400 147.7575950  10.7556890 137.6906090 147.4006380  12.1605400
 140.1696430 146.6943140  12.6493940 139.8218430 146.0167130  12.0696390
 140.3709200 146.2332650  13.4637330 133.5102070 153.2230790  19.0458310
 132.8550910 152.9542430  18.4018010 134.3480020 153.1135270  18.5960290
 146.4592510 148.0172080  13.2676800 146.8777390 147.8303060  12.4273460
 146.1528570 147.1651130  13.5779730 149.9582240 152.9296220  16.9652600
 149.5825840 152.1624150  16.5333890 149.2285360 153.3118920  17.4527530
 134.5478000 153.6083360  23.5861650 134.9151040 153.5210760  24.4657670
 133.9788820 152.8449910  23.4868510 149.3481860 152.0767740  26.5992120
 149.1167950 151.8480490  25.6990070 149.6086410 152.9967290  26.5537010
 134.0994000 150.5192450  27.4920070 133.2050050 150.4859210  27.8313780
 134.6391550 150.7179240  28.2571320 147.7869930 147.3024170  29.3771820
 148.6640110 147.3107570  29.7605820 147.7990770 146.5655010  28.7664170
 132.7240150 150.4329720  14.9883640 131.8204230 150.6959920  14.8135300
 133.2080770 150.7040890  14.2083600 149.2333200 151.1553710  20.2659840
 149.7570680 150.6616360  19.6350010 149.8192620 151.2904070  21.0107410
 149.4122920 151.2393580  23.7879390 148.4625630 151.2057120  23.9024380
 149.5935930 152.1493690  23.5529160 135.2667360 149.4895260  12.8978020
 135.9759060 149.0678480  12.4125300 134.5507300 149.5570490  12.2661370
 134.9141520 145.5434590  11.9380670 135.6369650 146.0843530  12.2561890
 135.1866040 145.2698010  11.0622210 148.7233170 150.4127060  16.2052250
 149.2192290 150.1797930  16.9901130 148.5249240 149.5738900  15.7889890
 134.6033710 144.7940780  21.8403290 135.2509900 144.2438160  21.3998450
 135.0235550 145.0483930  22.6619100 148.4986050 144.9882140  25.1972930
 149.1358270 145.6016280  25.5632120 148.6460940 145.0242800  24.2522160
 134.3565710 144.9496450  24.5828610 134.0080530 145.4060270  25.3486790
 134.0253410 144.0553580  24.6651040 141.8690530 146.1408330  28.1048030
 141.8079420 146.7330160  28.8543440 142.8090910 146.0334290  27.9598290
 144.5065090 145.7978390  27.7440320 145.1205500 146.1157680  27.0821400
 145.0514650 145.3126980  28.3636180 135.0286350 144.4772650  27.8579380
 135.5769340 144.2960700  27.0945490 135.0941660 143.6866760  28.3935690
 145.2473130 144.3610530  24.0709610 144.3732970 144.6945640  23.8682540
 145.1383880 143.8883710  24.8961480 146.1545110 146.5681400  25.4551330
 145.8258470 145.7533160  25.0753060 147.1027410 146.5251210  25.3317020
 142.9947950 145.2780370  23.0102520 142.2119740 145.7525870  23.2899280
 142.7010880 144.3735200  22.9015700 147.5469020 145.9803470  21.0551610
 147.9877110 145.9248570  20.2073210 147.2776610 146.8961480  21.1261790
 149.4107590 145.6118710  19.0660430 149.3495990 144.6679930  18.9191450
 150.1899620 145.7198800  19.6113890 134.3388360 145.5827850  15.5316240
 135.0967720 145.6956730  14.9580270 133.8765530 146.4197050  15.4859670
 140.8802170 147.6967120  18.5218550 140.0676680 147.3224010  18.1814430
 141.3843810 146.9412200  18.8239740 145.3827150 144.3609570  19.7601620
 145.9856520 144.9329780  20.2350140 144.6420140 144.9249010  19.5375520
 148.5261750 144.7631130  15.0341900 148.7212380 145.6614580  15.3009330
 147.7391620 144.5318210  15.5274850 136.7113510 146.1091900  14.0718210
 137.2406270 145.3221700  13.9426160 137.3441830 146.7883090  14.3053740
 138.9051350 145.8467040  17.1263600 138.2754090 145.1454350  17.2933730
 138.3656490 146.6071170  16.9096760 139.0306910 145.1251020  29.5616090
 138.7491180 145.6284620  28.7976910 139.4126610 144.3272770  29.1958220
 145.6322370 144.5404600  30.1396560 145.5187820 144.8599210  31.0348080
 146.4492110 144.9417110  29.8433840 142.6698560 154.3376090   2.3840570
 141.8940660 153.8576530   2.6739140 143.3211490 153.6581740   2.2096730
 136.6864390 154.6495900   3.2616330 135.8549270 154.3944610   3.6612840
 137.2945370 154.7206670   3.9974250 133.0589350 152.2103440   2.9298420
 133.6305460 151.4425640   2.9302060 133.0590890 152.5092200   2.0205030
 134.3014220 147.6187800   4.7167350 134.1217060 146.7213550   4.9970110
 133.8994300 148.1659670   5.3914300 143.1412720 149.8203660   2.6179660
 143.5177540 148.9475540   2.5053330 143.0432230 150.1562360   1.7270100
 134.9200890 150.1148300   3.3249690 135.6011000 150.3786670   3.9437090
 134.6048940 149.2749170   3.6587700 139.1125460 151.1615660   2.4122280
 139.6203680 151.6596630   3.0527300 139.6438700 150.3850860   2.2361640
 137.3961560 145.8014220   6.6785700 137.3980000 146.3186610   5.8731600
 136.5665870 145.3244400   6.6555630 147.1598320 149.2554480   2.3235540
 146.4553890 149.5439370   2.9038650 147.5210480 150.0654590   1.9635100
 137.0776890 147.5124180   4.6856150 137.4193700 148.3566230   4.3910020
 136.1392700 147.6607920   4.8021490 149.6567380 154.0190800   4.7207050
 148.8286010 154.0883890   4.2457180 150.2517860 154.6045110   4.2522880
 146.6209390 150.8060120   5.6661920 146.2080570 151.6313830   5.9201910
 145.8885340 150.2205160   5.4738280 137.4670800 150.3663230   4.3079630
 138.0185390 150.4758570   3.5332880 137.9814310 150.7400830   5.0234860
 137.1413530 153.8882590   7.9184970 137.0021300 154.7605390   8.2872370
 136.2594890 153.5455400   7.7732910 150.1465960 149.8576700   9.5484040
 149.5310230 150.3656370   9.0199500 149.8262380 148.9575030   9.4909980
 142.2080280 148.6968590   7.0146230 141.7459650 148.9051610   7.8266170
 141.8058390 147.8827940   6.7116900 147.2084790 149.9177540   8.1442890
 146.3578380 149.6183290   8.4651960 147.0486580 150.1619550   7.2326710
 144.3034500 151.4179290  10.2441680 144.6287910 150.5843040   9.9043910
 145.0914830 151.9407810  10.3920010 139.9586370 146.3747400   3.2700510
 140.2558700 147.2810230   3.1892530 140.5071930 145.8866180   2.6560080
 140.1523900 151.8519220   9.8052430 140.0567500 150.9113950   9.6552830
 140.9955880 152.0734290   9.4100500 135.2834440 148.2632890   7.9586210
 134.8897830 149.1108100   8.1658990 134.5952840 147.6259260   8.1494850
 141.8579490 148.3467860  11.0282950 141.1677810 148.1540060  11.6629040
 142.6011790 148.6302500  11.5607250 132.5851490 146.1861350   1.9916290
 132.2964540 146.7564210   2.7041270 133.3297250 145.7065800   2.3547520
 144.1342460 152.1866300   3.8636870 143.4023580 152.6953110   4.2126970
 143.7366800 151.3696280   3.5625650 140.5719850 148.8620500   2.2689360
 140.5755910 148.4210450   1.4193900 141.4670970 149.1837830   2.3761180
 144.5968370 147.6399980   3.2759810 144.6141110 148.0908630   4.1201660
 144.3483950 146.7405620   3.4893250 148.0239120 145.0532160   9.1146190
 148.3484890 144.3221820   9.6404170 148.0595630 144.7345800   8.2127180
 140.8727820 152.9222280   4.0154770 141.2397950 152.4480850   4.7616110
 140.6832880 153.7963850   4.3563110 138.6627190 151.9630920   6.3338980
 138.3584260 152.8422900   6.5589340 139.6173650 152.0230710   6.3696420
 134.7190920 152.8033660   7.4810340 134.3605860 153.4687510   8.0683680
 134.4245480 151.9717210   7.8522960 137.9204040 153.2617900  10.3649890
 137.6204180 153.4075080   9.4677710 138.6915280 152.7023190  10.2723280
 133.2939490 146.2926900   8.1582440 132.5798010 146.4923820   8.7635050
 133.7134530 145.5166470   8.5297240 144.7878270 148.7849210   5.9083890
 145.1559090 147.9644420   6.2363460 143.9276470 148.8451100   6.3239540
 141.7480260 151.4388800   6.1321860 142.2465510 151.9134620   6.7973710
 141.8903210 150.5152320   6.3391890 148.9547120 147.6556760   6.9750250
 148.4520720 148.3962160   7.3144060 149.7703780 148.0440760   6.6587040
 133.4468330 153.8349530   9.9004630 133.9507350 153.2556810  10.4720860
 132.7075750 154.1189760  10.4381000 135.4791410 151.9779120  10.7954700
 135.5196750 151.6792990  11.7039930 136.3336910 152.3786730  10.6362220
 137.4197220 150.5571220   8.7629190 136.8893680 150.0662170   8.1352530
 138.0885290 150.9855420   8.2287120 146.7897450 152.3636840  10.5309530
 147.3718220 151.6089160  10.4430010 146.9659220 152.8944280   9.7541010
 137.9069520 147.5233590   8.8426480 137.8126390 146.9054340   8.1177350
 137.3266910 148.2499880   8.6156390 140.6730960 146.0806830   5.8753870
 140.2248260 146.1031090   5.0299420 140.0396160 145.6825850   6.4724170
 143.4154410 152.7077340   7.8804150 143.5350620 152.1118480   8.6198990
 144.2748410 152.7447030   7.4605450 145.7542310 153.2614530   6.4566660
 145.2277530 153.7857150   5.8531800 146.0973650 153.8941920   7.0876390
 140.1823180 149.2498690   9.1379970 140.7722870 148.9414540   9.8257790
 139.3643420 148.7778440   9.2939870 145.0016610 148.8664500   9.3712990
 144.3132130 148.2046040   9.3062980 145.7222630 148.4202770   9.8161450
 134.5478000 153.6083360   4.8118160 134.9151040 153.5210760   5.6914180
 133.9788820 152.8449910   4.7125020 149.3481860 152.0767740   7.8248630
 149.1167950 151.8480490   6.9246580 149.6086410 152.9967290   7.7793520
 134.0994000 150.5192450   8.7176580 133.2050050 150.4859210   9.0570290
 134.6391550 150.7179240   9.4827830 147.7869930 147.3024170  10.6028330
 148.6640110 147.3107570  10.9862330 147.7990770 146.5655010   9.9920680
 149.4122920 151.2393580   5.0135900 148.4625630 151.2057120   5.1280890
 149.5935930 152.1493690   4.7785670 134.6033710 144.7940780   3.0659800
 135.2509900 144.2438160   2.6254960 135.0235550 145.0483930   3.8875610
 148.4986050 144.9882140   6.4229440 149.1358270 145.6016280   6.7888630
 148.6460940 145.0242800   5.4778670 134.3565710 144.9496450   5.8085120
 134.0080530 145.4060270   6.5743300 134.0253410 144.0553580   5.8907550
 141.8690530 146.1408330   9.3304540 141.8079420 146.7330160  10.0799950
 142.8090910 146.0334290   9.1854800 144.5065090 145.7978390   8.9696830
 145.1205500 146.1157680   8.3077910 145.0514650 145.3126980   9.5892690
 135.0286350 144.4772650   9.0835890 135.5769340 144.2960700   8.3202000
 135.0941660 143.6866760   9.6192200 145.2473130 144.3610530   5.2966120
 144.3732970 144.6945640   5.0939050 145.1383880 143.8883710   6.1217990
 146.1545110 146.5681400   6.6807840 145.8258470 145.7533160   6.3009570
 147.1027410 146.5251210   6.5573530 142.9947950 145.2780370   4.2359030
 142.2119740 145.7525870   4.5155790 142.7010880 144.3735200   4.1272210
 147.5469020 145.9803470   2.2808120 147.9877110 145.9248570   1.4329720
 147.2776610 146.8961480   2.3518300 139.0306910 145.1251020  10.7872600
 138.7491180 145.6284620  10.0233420 139.4126610 144.3272770  10.4214730
 145.6322370 144.5404600  11.3653070 145.5187820 144.8599210  12.2604590
 146.4492110 144.9417110  11.0690350 144.5380520 133.7853580 150.6979220
 144.4574570 132.8708190 150.4270930 144.1244940 134.2820650 149.9918930
 142.6698560 135.5632600 152.5788490 141.8940660 135.0833040 152.8687060
 143.3211490 134.8838250 152.4044650 146.6905990 139.9692790 151.3587620
 146.2287520 139.1980030 151.6874790 147.5031540 139.9958860 151.8640070
 135.0956340 130.8354300 147.2406640 134.2073040 131.1770270 147.1386520
 135.3797530 130.6354620 146.3487470 133.0589350 133.4359950 153.1246340
 133.6305460 132.6682150 153.1249980 133.0590890 133.7348710 152.2152950
 142.9169300 142.2550800 150.9791610 142.2980740 142.7108300 150.4086050
 143.7721080 142.4102260 150.5781310 142.1107550 138.2389790 152.5858650
 142.0415830 137.2979730 152.4247780 142.8727410 138.3291200 153.1581220
 143.1412720 131.0460170 152.8127580 143.5177540 130.1732050 152.7001250
 143.0432230 131.3818870 151.9218020 137.2717730 129.4185800 148.2745020
 137.3784480 130.3189530 148.5813780 136.3610090 129.3703770 147.9839670
 146.9236840 128.5410610 149.7455920 147.7446460 128.0507180 149.7881400
 146.9570920 129.1308270 150.4987760 143.7832650 137.1390040 148.3723520
 143.1649920 137.6039490 147.8086240 144.2955900 137.8317520 148.7893030
 147.1598320 130.4810990 152.5183460 146.4553890 130.7695880 153.0986570
 147.5210480 131.2911100 152.1583020 133.1515850 137.8246570 145.7463150
 132.7743830 138.3133670 145.0148050 133.4088920 138.4971850 146.3769680
 140.7604780 126.2262960 151.2048660 141.0679760 125.6709850 150.4884160
 139.8305480 126.3607420 151.0221650 147.6065260 138.6646470 148.5846290
 147.4961590 137.7220800 148.7095710 147.6033510 139.0262110 149.4709050
 143.1485540 134.2911790 147.9408780 142.2214820 134.2249170 148.1697250
 143.3010360 135.2291920 147.8264020 143.1354620 130.5628790 144.9375940
 142.1958290 130.7242750 145.0228400 143.4537880 131.2814470 144.3911930
 147.1782830 135.8532090 148.4444030 146.5595250 135.5151640 147.7970330
 147.1607280 135.2091850 149.1523220 138.7542180 134.8176530 150.7228510
 138.3499180 134.1053780 150.2274410 138.8405300 134.4729770 151.6116550
 139.2223880 138.5044090 152.8867720 138.9252170 137.8989560 152.2075500
 140.1723700 138.5421400 152.7757080 145.3547530 135.0918900 145.4516780
 145.7940810 134.2541330 145.3054600 146.0675950 135.7248300 145.5380920
 143.4642910 140.0314970 149.4198020 143.9038820 140.7739300 149.0053410
 143.4029800 140.2741540 150.3436980 148.9364670 126.3461710 143.7657820
 148.6237330 126.4388540 144.6656890 149.6977140 126.9242740 143.7155250
 135.4546810 133.7121510 148.2235160 135.3344410 134.4383600 147.6116430
 135.1447700 132.9424420 147.7463070 134.3379810 138.5836840 150.4409980
 133.9307890 138.7251430 149.5863580 135.2292820 138.2997000 150.2381190
 146.1313090 143.0184090 146.7761030 145.9714230 142.7287030 147.6742860
 145.9659800 142.2424220 146.2406260 138.6101470 142.7982620 148.5532650
 138.4343950 141.8818160 148.3400450 137.7557210 143.1569910 148.7930450
 145.8339220 140.5271650 145.3359030 145.1404380 140.5248940 144.6761310
 146.5762080 140.1030970 144.9053200 145.3989150 142.1534360 149.4107520
 145.8546100 141.3723740 149.7246140 145.7381670 142.8641180 149.9548700
 137.9210470 127.0556580 151.6058830 137.4778620 127.8366120 151.2743350
 138.4795460 127.3786470 152.3129770 141.0369290 126.6767280 146.4864660
 140.4123470 126.6727150 147.2117970 140.9499410 125.8098240 146.0900630
 137.7124690 132.1790150 149.3340080 137.4865610 131.9627320 150.2386700
 136.9317220 132.6118610 148.9886050 144.9422450 132.1853520 147.9330730
 144.3431340 132.9089320 147.7494350 145.4902060 132.1230300 147.1507180
 143.5487320 130.8217060 149.9634010 143.9416890 131.1389260 149.1502700
 143.9104170 129.9428940 150.0778530 132.5851490 127.4117860 152.1864210
 132.2964540 127.9820720 152.8989190 133.3297250 126.9322310 152.5495440
 132.7721720 131.3537980 143.3966930 132.6896390 132.2968740 143.5381920
 132.4204780 131.2112890 142.5179280 140.5719850 130.0877010 152.4637280
 140.5755910 129.6466960 151.6141820 141.4670970 130.4094340 152.5709100
 136.4222230 129.9703500 151.4231490 136.0822280 130.4478730 152.1798540
 135.6599550 129.5168620 151.0632590 140.6340000 131.0889090 145.4544040
 140.7552820 131.0475570 146.4029860 140.2488510 131.9513240 145.2990770
 139.6461500 133.3990230 144.8527340 139.0778400 132.9508480 144.2263250
 140.3550500 133.7583010 144.3192490 133.7368310 128.8922480 150.3396160
 133.4515230 128.5278150 151.1774780 133.6747170 128.1602940 149.7259300
 137.1908980 137.3948420 147.1253750 136.4171240 136.8546040 146.9652470
 137.9203610 136.8755030 146.7871510 147.9496960 136.3913780 152.9180140
 148.6696080 136.8869070 152.5276250 147.7478780 135.7131670 152.2734010
 143.4106900 127.7851740 147.0609530 142.5971510 127.2864910 146.9854840
 143.2168850 128.6249990 146.6445880 146.1255290 132.1571390 145.3571690
 147.0134910 132.4688620 145.1823030 146.0960380 131.2843640 144.9652270
 137.2346380 137.0628800 150.7632560 137.7525050 136.2597060 150.7089450
 136.7830400 137.0007940 151.6049390 142.1215880 138.3295080 146.0359860
 142.4631580 139.0737310 145.5403180 141.2928590 138.6426200 146.3984690
 148.3969560 133.4683230 144.8251550 148.3133280 133.8997450 143.9747990
 149.1163750 133.9281580 145.2578370 149.4256810 140.3225490 147.5533680
 148.7832970 139.6681110 147.8277400 149.0387470 140.7280580 146.7774350
 145.0043290 137.6510920 151.4005370 145.3567110 137.0539050 150.7406740
 144.1205620 137.3255150 151.5713620 141.0906570 138.4108610 148.8075780
 141.7777700 138.9577820 149.1883370 140.3038990 138.9549340 148.8425390
 133.2298970 134.0281430 144.2992860 134.0993820 134.3106230 144.5828780
 132.7389290 134.8417300 144.1841670 140.3933780 135.4154640 148.4201140
 140.8496560 136.2259890 148.6461330 140.0421990 135.0977780 149.2519630
 136.2945560 125.7592290 148.8923660 136.1660190 125.7510190 149.8408580
 135.4707580 126.0975380 148.5414670 147.8154190 139.2141950 144.0910030
 147.5891770 138.4972390 144.6834670 147.4250390 138.9654390 143.2531780
 133.5970220 143.2408810 144.8654490 133.9567860 143.8398150 144.2111760
 133.4562560 143.7868700 145.6389520 147.3970440 137.1313890 145.7524190
 147.1092140 137.5926580 146.5402070 148.1922610 136.6711660 146.0208410
 139.6138840 140.6240010 145.6828160 139.6048940 141.3569700 145.0672670
 138.6937200 140.3771590 145.7755120 135.2145480 135.8454900 146.4274920
 134.6073430 136.5853800 146.4370220 135.6894830 135.9354260 145.6013120
 148.1540300 128.9662660 146.9119370 147.5253460 129.0708330 146.1977600
 147.6592220 129.1859440 147.7013250 142.5998440 140.6868250 144.3453350
 142.7010420 140.4832240 143.4155330 141.7000180 140.4326530 144.5501130
 140.1224330 131.2448610 148.3277250 139.4140480 131.7134950 148.7690860
 140.4068810 130.5870620 148.9622440 144.1539760 127.9699270 149.7673040
 144.0307540 127.9885400 148.8182550 145.1024320 128.0178210 149.8871440
 141.2416550 143.2054570 149.0401020 141.4958050 143.1675960 148.1180390
 140.2929030 143.0787900 149.0329270 138.3259350 129.5533690 145.7027960
 139.1749880 129.9903840 145.6368150 137.9590620 129.8653950 146.5300020
 147.2469130 134.1246450 150.6159530 146.3059270 134.1396680 150.7907220
 147.5613200 133.3382410 151.0619830 137.2250770 135.8066050 144.1763490
 137.9914040 135.6947410 144.7388920 137.3025460 135.1104020 143.5240260
 135.9197530 133.2391120 144.8596380 136.0001120 132.2918630 144.9713780
 136.8117280 133.5698000 144.9657040 149.2494710 141.2955300 152.2913790
 149.3742130 142.1186470 152.7637600 150.1160270 141.0846030 151.9437940
 136.7212240 143.3886510 151.9630920 137.4574720 142.8401970 152.2339490
 137.1053160 144.2542520 151.8236910 133.6057720 139.4560080 147.8372430
 132.6797500 139.6981220 147.8277840 134.0714150 140.2834340 147.7157180
 139.8314550 142.5616820 143.7856490 140.6243160 142.8505650 143.3338280
 139.3118900 142.1308990 143.1068970 148.8844720 141.7886950 145.2093230
 148.5986230 141.3752090 144.3947410 148.6864270 142.7174660 145.0893750
 140.3491950 137.7820230 143.6498840 140.2442590 137.1672580 144.3760220
 140.1816170 137.2586120 142.8661850 143.5894680 136.8440260 144.2540830
 143.0404780 137.2909560 144.8983570 144.2113940 136.3389510 144.7778500
 139.2569800 135.8031180 146.1506130 139.6786220 135.6371050 146.9937520
 139.3820640 134.9931410 145.6561270 141.7697440 134.8268790 143.3983230
 142.2903100 134.1117810 143.0324380 142.4165840 135.4654660 143.6983740
 138.1528700 131.8764410 143.0964290 137.9517760 131.0131770 143.4577630
 137.9820750 131.7897770 142.1585890 145.6317010 126.6872640 145.6251170
 145.9119300 125.8440540 145.9810590 144.8582740 126.9195750 146.1389920
 136.9511500 128.9765030 143.0842170 137.2537400 128.9832460 142.1761320
 137.6906090 128.6262890 143.5809830 140.1696430 127.9199650 144.0698370
 139.8218430 127.2423640 143.4900820 140.3709200 127.4589160 144.8841760
 142.3345470 142.9080400 145.6884970 143.2296260 143.2465370 145.7103730
 142.3663100 142.1859810 145.0609250 135.9741630 138.2807450 143.9171970
 136.4116500 138.8237120 144.5729550 136.4589360 137.4554400 143.9268310
 133.1887430 141.0696480 151.3692230 133.5190440 140.2017540 151.1370870
 133.6178430 141.2755000 152.1997190 137.7849350 139.4005490 149.0294200
 137.4844890 139.2770460 149.9298110 137.6786840 138.5414080 148.6209930
 133.5102070 134.4487300 150.4662740 132.8550910 134.1798940 149.8222440
 134.3480020 134.3391780 150.0164720 150.0616900 136.2183740 143.3927600
 150.3365740 137.1262620 143.2646820 149.8727640 136.1546270 144.3289590
 146.4592510 129.2428590 144.6881230 146.8777390 129.0559570 143.8477890
 146.1528570 128.3907640 144.9984160 149.9582240 134.1552730 148.3857030
 149.5825840 133.3880660 147.9538320 149.2285360 134.5375430 148.8731960
 132.7240150 131.6586230 146.4088070 131.8204230 131.9216430 146.2339730
 133.2080770 131.9297400 145.6288030 149.2333200 132.3810220 151.6864270
 149.7570680 131.8872870 151.0554440 149.8192620 132.5160580 152.4311840
 135.2667360 130.7151770 144.3182450 135.9759060 130.2934990 143.8329730
 134.5507300 130.7827000 143.6865800 134.9141520 126.7691100 143.3585100
 135.6369650 127.3100040 143.6766320 135.1866040 126.4954520 142.4826640
 148.7233170 131.6383570 147.6256680 149.2192290 131.4054440 148.4105560
 148.5249240 130.7995410 147.2094320 148.0567510 142.9154650 150.0195600
 148.6526580 142.5939220 149.3430020 148.3145660 142.4426470 150.8108870
 147.5469020 127.2059980 152.4756040 147.9877110 127.1505080 151.6277640
 147.2776610 128.1217990 152.5466220 149.4107590 126.8375220 150.4864860
 149.3495990 125.8936440 150.3395880 150.1899620 126.9455310 151.0318320
 133.7160340 142.9767580 149.4488810 133.5482380 142.3438260 150.1470700
 132.8494850 143.1826980 149.0983000 134.3388360 126.8084360 146.9520670
 135.0967720 126.9213240 146.3784700 133.8765530 127.6453560 146.9064100
 140.8802170 128.9223630 149.9422980 140.0676680 128.5480520 149.6018860
 141.3843810 128.1668710 150.2444170 145.3827150 125.5866080 151.1806050
 145.9856520 126.1586290 151.6554570 144.6420140 126.1505520 150.9579950
 148.5261750 125.9887640 146.4546330 148.7212380 126.8871090 146.7213760
 147.7391620 125.7574720 146.9479280 135.3223040 141.6700810 146.8938950
 134.7970660 142.0508840 146.1900910 135.2467620 142.2951580 147.6148660
 136.7113510 127.3348410 145.4922640 137.2406270 126.5478210 145.3630590
 137.3441830 128.0139600 145.7258170 138.9051350 127.0723550 148.5468030
 138.2754090 126.3710860 148.7138160 138.3656490 127.8327680 148.3301190
 150.0788360 143.2288350 148.2152890 150.2540550 142.5426090 147.5713810
 149.3809930 143.7535400 147.8229560 137.9216010 143.6183190 145.7688200
 138.6534830 143.3342470 145.2212090 138.1809680 143.3796470 146.6587580
 137.0830800 139.7347920 145.7734530 136.4539680 140.2033020 146.3220360
 137.1978630 138.8897140 146.2080720 144.5380520 133.7853580 131.9235730
 144.4574570 132.8708190 131.6527440 144.1244940 134.2820650 131.2175440
 142.6698560 135.5632600 133.8045000 141.8940660 135.0833040 134.0943570
 143.3211490 134.8838250 133.6301160 136.6864390 135.8752410 134.6820760
 135.8549270 135.6201120 135.0817270 137.2945370 135.9463180 135.4178680
 146.6905990 139.9692790 132.5844130 146.2287520 139.1980030 132.9131300
 147.5031540 139.9958860 133.0896580 136.6665650 139.9092500 134.8778780
 136.9693690 139.0190240 134.6989000 137.4109240 140.4662720 134.6501030
 135.0956340 130.8354300 128.4663150 134.2073040 131.1770270 128.3643030
 135.3797530 130.6354620 127.5743980 133.0589350 133.4359950 134.3502850
 133.6305460 132.6682150 134.3506490 133.0590890 133.7348710 133.4409460
 142.9169300 142.2550800 132.2048120 142.2980740 142.7108300 131.6342560
 143.7721080 142.4102260 131.8037820 142.1107550 138.2389790 133.8115160
 142.0415830 137.2979730 133.6504290 142.8727410 138.3291200 134.3837730
 134.3014220 128.8444310 136.1371780 134.1217060 127.9470060 136.4174540
 133.8994300 129.3916180 136.8118730 143.1412720 131.0460170 134.0384090
 143.5177540 130.1732050 133.9257760 143.0432230 131.3818870 133.1474530
 137.2717730 129.4185800 129.5001530 137.3784480 130.3189530 129.8070290
 136.3610090 129.3703770 129.2096180 146.9236840 128.5410610 130.9712430
 147.7446460 128.0507180 131.0137910 146.9570920 129.1308270 131.7244270
 134.9200890 131.3404810 134.7454120 135.6011000 131.6043180 135.3641520
 134.6048940 130.5005680 135.0792130 139.1125460 132.3872170 133.8326710
 139.6203680 132.8853140 134.4731730 139.6438700 131.6107370 133.6566070
 137.3961560 127.0270730 138.0990130 137.3980000 127.5443120 137.2936030
 136.5665870 126.5500910 138.0760060 143.7832650 137.1390040 129.5980030
 143.1649920 137.6039490 129.0342750 144.2955900 137.8317520 130.0149540
 138.6464410 136.6665910 136.2763630 138.3133790 137.2934830 136.9184700
 138.8231090 137.1927790 135.4965300 147.1598320 130.4810990 133.7439970
 146.4553890 130.7695880 134.3243080 147.5210480 131.2911100 133.3839530
 137.0776890 128.7380690 136.1060580 137.4193700 129.5822740 135.8114450
 136.1392700 128.8864430 136.2225920 137.8583510 138.6346710 138.0912810
 138.4757510 139.3097790 137.8097260 136.9976630 139.0434690 138.0000310
 133.1515850 137.8246570 126.9719660 132.7743830 138.3133670 126.2404560
 133.4088920 138.4971850 127.6026190 148.7761100 140.0986120 136.0067450
 148.0924620 140.7685230 135.9984120 149.3155390 140.2966770 135.2412310
 140.7604780 126.2262960 132.4305170 141.0679760 125.6709850 131.7140670
 139.8305480 126.3607420 132.2478160 146.3119840 141.9430250 134.7212630
 146.3247000 141.5392540 133.8534890 145.7595060 142.7177540 134.6174060
 147.6065260 138.6646470 129.8102800 147.4961590 137.7220800 129.9352220
 147.6033510 139.0262110 130.6965560 145.7105280 136.8460090 136.0495240
 146.1274070 136.6320200 135.2148700 146.4345100 137.1032880 136.6203860
 143.1485540 134.2911790 129.1665290 142.2214820 134.2249170 129.3953760
 143.3010360 135.2291920 129.0520530 143.1354620 130.5628790 126.1632450
 142.1958290 130.7242750 126.2484910 143.4537880 131.2814470 125.6168440
 149.6567380 135.2447310 136.1411480 148.8286010 135.3140400 135.6661610
 150.2517860 135.8301620 135.6727310 147.1782830 135.8532090 129.6700540
 146.5595250 135.5151640 129.0226840 147.1607280 135.2091850 130.3779730
 146.6209390 132.0316630 137.0866350 146.2080570 132.8570340 137.3406340
 145.8885340 131.4461670 136.8942710 138.7542180 134.8176530 131.9485020
 138.3499180 134.1053780 131.4530920 138.8405300 134.4729770 132.8373060
 139.2223880 138.5044090 134.1124230 138.9252170 137.8989560 133.4332010
 140.1723700 138.5421400 134.0013590 137.4670800 131.5919740 135.7284060
 138.0185390 131.7015080 134.9537310 137.9814310 131.9657340 136.4439290
 147.3109490 142.0775960 137.7747330 146.8340050 142.8848150 137.5819940
 146.6271280 141.4254290 137.9273540 138.3142310 138.2425780 140.7632030
 137.4170840 138.4665750 141.0105430 138.3395180 138.3660720 139.8143430
 145.3547530 135.0918900 126.6773290 145.7940810 134.2541330 126.5311110
 146.0675950 135.7248300 126.7637430 137.1413530 135.1139100 139.3389400
 137.0021300 135.9861900 139.7076800 136.2594890 134.7711910 139.1937340
 143.4642910 140.0314970 130.6454530 143.9038820 140.7739300 130.2309920
 143.4029800 140.2741540 131.5693490 138.9393880 141.0560800 141.5474550
 138.9109310 141.4603750 140.6802980 138.7758850 140.1271160 141.3846150
 148.9364670 126.3461710 124.9914330 148.6237330 126.4388540 125.8913400
 149.6977140 126.9242740 124.9411760 135.4546810 133.7121510 129.4491670
 135.3344410 134.4383600 128.8372940 135.1447700 132.9424420 128.9719580
 133.0932180 136.8836650 135.2560310 133.1712600 137.0185420 134.3116030
 133.7073860 136.1752540 135.4488430 134.3379810 138.5836840 131.6666490
 133.9307890 138.7251430 130.8120090 135.2292820 138.2997000 131.4637700
 150.2941950 139.0300750 140.0038730 150.4205010 138.7912630 139.0855910
 150.3363330 138.1985290 140.4760810 144.1558690 142.7328750 138.5733540
 144.6703360 142.6436760 139.3755970 143.3127770 143.0788450 138.8661450
 146.1313090 143.0184090 128.0017540 145.9714230 142.7287030 128.8999370
 145.9659800 142.2424220 127.4662770 138.6101470 142.7982620 129.7789160
 138.4343950 141.8818160 129.5656960 137.7557210 143.1569910 130.0186960
 145.8339220 140.5271650 126.5615540 145.1404380 140.5248940 125.9017820
 146.5762080 140.1030970 126.1309710 145.3989150 142.1534360 130.6364030
 145.8546100 141.3723740 130.9502650 145.7381670 142.8641180 131.1805210
 150.1465960 131.0833210 140.9688470 149.5310230 131.5912880 140.4403930
 149.8262380 130.1831540 140.9114410 133.1491700 137.9250820 137.7954770
 133.3122740 137.4556180 136.9774140 133.6144150 137.4174380 138.4603610
 137.9210470 127.0556580 132.8315340 137.4778620 127.8366120 132.4999860
 138.4795460 127.3786470 133.5386280 142.2080280 129.9225100 138.4350660
 141.7459650 130.1308120 139.2470600 141.8058390 129.1084450 138.1321330
 147.2084790 131.1434050 139.5647320 146.3578380 130.8439800 139.8856390
 147.0486580 131.3876060 138.6531140 144.3034500 132.6435800 141.6646110
 144.6287910 131.8099550 141.3248340 145.0914830 133.1664320 141.8124440
 141.0369290 126.6767280 127.7121170 140.4123470 126.6727150 128.4374480
 140.9499410 125.8098240 127.3157140 139.9586370 127.6003910 134.6904940
 140.2558700 128.5066740 134.6096960 140.5071930 127.1122690 134.0764510
 137.7124690 132.1790150 130.5596590 137.4865610 131.9627320 131.4643210
 136.9317220 132.6118610 130.2142560 144.9422450 132.1853520 129.1587240
 144.3431340 132.9089320 128.9750860 145.4902060 132.1230300 128.3763690
 140.1523900 133.0775730 141.2256860 140.0567500 132.1370460 141.0757260
 140.9955880 133.2990800 140.8304930 143.5487320 130.8217060 131.1890520
 143.9416890 131.1389260 130.3759210 143.9104170 129.9428940 131.3035040
 135.2834440 129.4889400 139.3790640 134.8897830 130.3364610 139.5863420
 134.5952840 128.8515770 139.5699280 141.8579490 129.5724370 142.4487380
 141.1677810 129.3796570 143.0833470 142.6011790 129.8559010 142.9811680
 132.5851490 127.4117860 133.4120720 132.2964540 127.9820720 134.1245700
 133.3297250 126.9322310 133.7751950 132.7721720 131.3537980 124.6223440
 132.6896390 132.2968740 124.7638430 132.4204780 131.2112890 123.7435790
 144.1342460 133.4122810 135.2841300 143.4023580 133.9209620 135.6331400
 143.7366800 132.5952790 134.9830080 140.5719850 130.0877010 133.6893790
 140.5755910 129.6466960 132.8398330 141.4670970 130.4094340 133.7965610
 136.4222230 129.9703500 132.6488000 136.0822280 130.4478730 133.4055050
 135.6599550 129.5168620 132.2889100 140.6340000 131.0889090 126.6800550
 140.7552820 131.0475570 127.6286370 140.2488510 131.9513240 126.5247280
 144.5968370 128.8656490 134.6964240 144.6141110 129.3165140 135.5406090
 144.3483950 127.9662130 134.9097680 139.6461500 133.3990230 126.0783850
 139.0778400 132.9508480 125.4519760 140.3550500 133.7583010 125.5449000
 148.0239120 126.2788670 140.5350620 148.3484890 125.5478330 141.0608600
 148.0595630 125.9602310 139.6331610 134.7230680 137.3002250 139.9550580
 134.3385470 136.6595920 140.5533540 135.0342870 138.0038370 140.5245310
 140.8727820 134.1478790 135.4359200 141.2397950 133.6737360 136.1820540
 140.6832880 135.0220360 135.7767540 133.7368310 128.8922480 131.5652670
 133.4515230 128.5278150 132.4031290 133.6747170 128.1602940 130.9515810
 138.6627190 133.1887430 137.7543410 138.3584260 134.0679410 137.9793770
 139.6173650 133.2487220 137.7900850 137.1908980 137.3948420 128.3510260
 136.4171240 136.8546040 128.1908980 137.9203610 136.8755030 128.0128020
 147.9496960 136.3913780 134.1436650 148.6696080 136.8869070 133.7532760
 147.7478780 135.7131670 133.4990520 143.4106900 127.7851740 128.2866040
 142.5971510 127.2864910 128.2111350 143.2168850 128.6249990 127.8702390
 143.3315760 136.4622840 140.0305650 143.2653070 135.5418510 139.7763240
 142.7020900 136.5598280 140.7450290 146.1255290 132.1571390 126.5828200
 147.0134910 132.4688620 126.4079540 146.0960380 131.2843640 126.1908780
 137.2346380 137.0628800 131.9889070 137.7525050 136.2597060 131.9345960
 136.7830400 137.0007940 132.8305900 142.1215880 138.3295080 127.2616370
 142.4631580 139.0737310 126.7659690 141.2928590 138.6426200 127.6241200
 134.7190920 134.0290170 138.9014770 134.3605860 134.6944020 139.4888110
 134.4245480 133.1973720 139.2727390 137.9204040 134.4874410 141.7854320
 137.6204180 134.6331590 140.8882140 138.6915280 133.9279700 141.6927710
 143.2632490 139.2843410 139.7809450 143.2777030 138.3524370 139.5628360
 142.5557590 139.3703170 140.4199220 148.3969560 133.4683230 126.0508060
 148.3133280 133.8997450 125.2004500 149.1163750 133.9281580 126.4834880
 149.4743700 135.9250750 139.1278030 148.7491890 136.5179530 138.9307420
 150.0019160 135.9174290 138.3291400 149.4256810 140.3225490 128.7790190
 148.7832970 139.6681110 129.0533910 149.0387470 140.7280580 128.0030860
 145.0043290 137.6510920 132.6261880 145.3567110 137.0539050 131.9663250
 144.1205620 137.3255150 132.7970130 141.0906570 138.4108610 130.0332290
 141.7777700 138.9577820 130.4139880 140.3038990 138.9549340 130.0681900
 133.2298970 134.0281430 125.5249370 134.0993820 134.3106230 125.8085290
 132.7389290 134.8417300 125.4098180 140.3933780 135.4154640 129.6457650
 140.8496560 136.2259890 129.8717840 140.0421990 135.0977780 130.4776140
 142.6966390 140.9260980 136.8749950 143.3408610 141.1320360 137.5523370
 143.0595830 140.1649380 136.4220800 136.2945560 125.7592290 130.1180170
 136.1660190 125.7510190 131.0665090 135.4707580 126.0975380 129.7671180
 143.9698470 138.9293330 135.5927400 144.6120700 138.2286490 135.7059570
 144.4947820 139.7091770 135.4124290 147.8154190 139.2141950 125.3166540
 147.5891770 138.4972390 125.9091180 147.4250390 138.9654390 124.4788290
 145.7436090 139.7288230 138.7963460 146.0792330 140.3154920 139.4741380
 144.8236430 139.5980940 139.0261250 133.5970220 143.2408810 126.0911000
 133.9567860 143.8398150 125.4368270 133.4562560 143.7868700 126.8646030
 133.2939490 127.5183410 139.5786870 132.5798010 127.7180330 140.1839480
 133.7134530 126.7422980 139.9501670 147.3970440 137.1313890 126.9780700
 147.1092140 137.5926580 127.7658580 148.1922610 136.6711660 127.2464920
 133.5812080 141.5063670 140.5653400 133.6903200 140.5658410 140.4248790
 132.9292640 141.7718420 139.9167130 141.5724670 139.7779560 141.9651520
 141.2521540 139.0588800 142.5097210 140.8983030 140.4534630 142.0387580
 139.6138840 140.6240010 126.9084670 139.6048940 141.3569700 126.2929180
 138.6937200 140.3771590 127.0011630 135.2145480 135.8454900 127.6531430
 134.6073430 136.5853800 127.6626730 135.6894830 135.9354260 126.8269630
 144.7878270 130.0105720 137.3288320 145.1559090 129.1900930 137.6567890
 143.9276470 130.0707610 137.7443970 148.1540300 128.9662660 128.1375880
 147.5253460 129.0708330 127.4234110 147.6592220 129.1859440 128.9269760
 142.5998440 140.6868250 125.5709860 142.7010420 140.4832240 124.6411840
 141.7000180 140.4326530 125.7757640 140.1224330 131.2448610 129.5533760
 139.4140480 131.7134950 129.9947370 140.4068810 130.5870620 130.1878950
 141.7480260 132.6645310 137.5526290 142.2465510 133.1391130 138.2178140
 141.8903210 131.7408830 137.7596320 144.1539760 127.9699270 130.9929550
 144.0307540 127.9885400 130.0439060 145.1024320 128.0178210 131.1127950
 141.2416550 143.2054570 130.2657530 141.4958050 143.1675960 129.3436900
 140.2929030 143.0787900 130.2585780 138.3259350 129.5533690 126.9284470
 139.1749880 129.9903840 126.8624660 137.9590620 129.8653950 127.7556530
 148.9547120 128.8813270 138.3954680 148.4520720 129.6218670 138.7348490
 149.7703780 129.2697270 138.0791470 147.2469130 134.1246450 131.8416040
 146.3059270 134.1396680 132.0163730 147.5613200 133.3382410 132.2876340
 137.2250770 135.8066050 125.4020000 137.9914040 135.6947410 125.9645430
 137.3025460 135.1104020 124.7496770 135.9197530 133.2391120 126.0852890
 136.0001120 132.2918630 126.1970290 136.8117280 133.5698000 126.1913550
 149.2494710 141.2955300 133.5170300 149.3742130 142.1186470 133.9894110
 150.1160270 141.0846030 133.1694450 136.7212240 143.3886510 133.1887430
 137.4574720 142.8401970 133.4596000 137.1053160 144.2542520 133.0493420
 133.6057720 139.4560080 129.0628940 132.6797500 139.6981220 129.0534350
 134.0714150 140.2834340 128.9413690 135.7270520 142.5732580 142.3773010
 136.5283250 142.8944630 142.7908410 135.2122340 142.2128160 143.0992920
 139.8314550 142.5616820 125.0113000 140.6243160 142.8505650 124.5594790
 139.3118900 142.1308990 124.3325480 144.5635150 138.6812450 142.3248420
 143.9573310 138.7044050 141.5844170 144.2589260 137.9495490 142.8615670
 145.9935520 142.4092740 140.9357830 146.9457270 142.3250760 140.8858070
 145.8463740 143.0734450 141.6091620 148.8844720 141.7886950 126.4349740
 148.5986230 141.3752090 125.6203920 148.6864270 142.7174660 126.3150260
 133.4468330 135.0606040 141.3209060 133.9507350 134.4813320 141.8925290
 132.7075750 135.3446270 141.8585430 140.3491950 137.7820230 124.8755350
 140.2442590 137.1672580 125.6016730 140.1816170 137.2586120 124.0918360
 140.5006270 136.4677030 140.8544580 139.7351940 137.0362030 140.7699250
 140.6822230 136.1753240 139.9612810 143.5894680 136.8440260 125.4797340
 143.0404780 137.2909560 126.1240080 144.2113940 136.3389510 126.0035010
 147.6429620 138.1982360 141.4119600 148.3839090 138.5358120 140.9087060
 146.8802300 138.3674420 140.8589370 135.4791410 133.2035630 142.2159130
 135.5196750 132.9049500 143.1244360 136.3336910 133.6043240 142.0566650
 139.2569800 135.8031180 127.3762640 139.6786220 135.6371050 128.2194030
 139.3820640 134.9931410 126.8817780 137.4197220 131.7827730 140.1833620
 136.8893680 131.2918680 139.5556960 138.0885290 132.2111930 139.6491550
 141.7697440 134.8268790 124.6239740 142.2903100 134.1117810 124.2580890
 142.4165840 135.4654660 124.9240250 146.3175280 136.2497190 139.9474810
 146.7316300 136.4042270 140.7965230 145.3826280 136.3752410 140.1100590
 146.7897450 133.5893350 141.9513960 147.3718220 132.8345670 141.8634440
 146.9659220 134.1200790 141.1745440 137.9069520 128.7490100 140.2630910
 137.8126390 128.1310850 139.5381780 137.3266910 129.4756390 140.0360820
 140.6730960 127.3063340 137.2958300 140.2248260 127.3287600 136.4503850
 140.0396160 126.9082360 137.8928600 141.0790510 136.2017670 137.9170740
 141.4978620 137.0450400 137.7446980 140.1599140 136.3389710 137.6877520
 143.4154410 133.9333850 139.3008580 143.5350620 133.3374990 140.0403420
 144.2748410 133.9703540 138.8809880 145.7542310 134.4871040 137.8771090
 145.2277530 135.0113660 137.2736230 146.0973650 135.1198430 138.5080820
 138.1528700 131.8764410 124.3220800 137.9517760 131.0131770 124.6834140
 137.9820750 131.7897770 123.3842400 138.9297930 142.5070680 139.0328470
 138.3919020 143.2316740 138.7137170 139.1831890 142.0301020 138.2425810
 140.1823180 130.4755200 140.5584400 140.7722870 130.1671050 141.2462220
 139.3643420 130.0034950 140.7144300 145.0016610 130.0921010 140.7917420
 144.3132130 129.4302550 140.7267410 145.7222630 129.6459280 141.2365880
 145.6317010 126.6872640 126.8507680 145.9119300 125.8440540 127.2067100
 144.8582740 126.9195750 127.3646430 136.9511500 128.9765030 124.3098680
 137.2537400 128.9832460 123.4017830 137.6906090 128.6262890 124.8066340
 141.7860140 143.7421890 139.2915120 141.7118840 144.6457030 139.5987490
 140.8838980 143.4233790 139.2637190 140.1696430 127.9199650 125.2954880
 139.8218430 127.2423640 124.7157330 140.3709200 127.4589160 126.1098270
 142.3345470 142.9080400 126.9141480 143.2296260 143.2465370 126.9360240
 142.3663100 142.1859810 126.2865760 135.9741630 138.2807450 125.1428480
 136.4116500 138.8237120 125.7986060 136.4589360 137.4554400 125.1524820
 133.1887430 141.0696480 132.5948740 133.5190440 140.2017540 132.3627380
 133.6178430 141.2755000 133.4253700 137.7849350 139.4005490 130.2550710
 137.4844890 139.2770460 131.1554620 137.6786840 138.5414080 129.8466440
 133.6777640 141.9367070 135.3330370 133.2408630 142.1167870 136.1654520
 134.2455320 142.6941690 135.1912090 149.3139820 141.4384070 139.6207680
 148.7141810 141.4976630 138.8771600 149.4433720 140.4989050 139.7504530
 133.5102070 134.4487300 131.6919250 132.8550910 134.1798940 131.0478950
 134.3480020 134.3391780 131.2421230 147.9991460 138.1636050 137.7183840
 147.1851300 138.5933210 137.9809630 148.4065660 138.7754460 137.1052890
 150.0616900 136.2183740 124.6184110 150.3365740 137.1262620 124.4903330
 149.8727640 136.1546270 125.5546100 146.4592510 129.2428590 125.9137740
 146.8777390 129.0559570 125.0734400 146.1528570 128.3907640 126.2240670
 149.9582240 134.1552730 129.6113540 149.5825840 133.3880660 129.1794830
 149.2285360 134.5375430 130.0988470 134.5478000 134.8339870 136.2322590
 134.9151040 134.7467270 137.1118610 133.9788820 134.0706420 136.1329450
 149.3481860 133.3024250 139.2453060 149.1167950 133.0737000 138.3451010
 149.6086410 134.2223800 139.1997950 134.0994000 131.7448960 140.1381010
 133.2050050 131.7115720 140.4774720 134.6391550 131.9435750 140.9032260
 147.7869930 128.5280680 142.0232760 148.6640110 128.5364080 142.4066760
 147.7990770 127.7911520 141.4125110 132.7240150 131.6586230 127.6344580
 131.8204230 131.9216430 127.4596240 133.2080770 131.9297400 126.8544540
 149.2333200 132.3810220 132.9120780 149.7570680 131.8872870 132.2810950
 149.8192620 132.5160580 133.6568350 149.4122920 132.4650090 136.4340330
 148.4625630 132.4313630 136.5485320 149.5935930 133.3750200 136.1990100
 135.2667360 130.7151770 125.5438960 135.9759060 130.2934990 125.0586240
 134.5507300 130.7827000 124.9122310 134.9141520 126.7691100 124.5841610
 135.6369650 127.3100040 124.9022830 135.1866040 126.4954520 123.7083150
 148.7233170 131.6383570 128.8513190 149.2192290 131.4054440 129.6362070
 148.5249240 130.7995410 128.4350830 134.6033710 126.0197290 134.4864230
 135.2509900 125.4694670 134.0459390 135.0235550 126.2740440 135.3080040
 148.4986050 126.2138650 137.8433870 149.1358270 126.8272790 138.2093060
 148.6460940 126.2499310 136.8983100 148.0567510 142.9154650 131.2452110
 148.6526580 142.5939220 130.5686530 148.3145660 142.4426470 132.0365380
 134.3565710 126.1752960 137.2289550 134.0080530 126.6316780 137.9947730
 134.0253410 125.2810090 137.3111980 135.9630080 139.3472560 141.3942740
 135.9199710 138.9765470 142.2757200 136.0941090 140.2850130 141.5344560
 139.6636110 140.9032150 136.9952460 139.4227470 141.1706710 136.1082980
 140.6038750 141.0737880 137.0503320 141.8690530 127.3664840 140.7508970
 141.8079420 127.9586670 141.5004380 142.8090910 127.2590800 140.6059230
 144.5065090 127.0234900 140.3901260 145.1205500 127.3414190 139.7282340
 145.0514650 126.5383490 141.0097120 135.0286350 125.7029160 140.5040320
 135.5769340 125.5217210 139.7406430 135.0941660 124.9123270 141.0396630
 135.8018110 142.2934810 138.5140520 135.2078430 142.1619510 139.2530560
 135.7941950 141.4572950 138.0482620 145.2473130 125.5867040 136.7170550
 144.3732970 125.9202150 136.5143480 145.1383880 125.1140220 137.5422420
 146.1545110 127.7937910 138.1012270 145.8258470 126.9789670 137.7214000
 147.1027410 127.7507720 137.9777960 148.6079720 143.5649950 135.0749840
 148.1482690 144.3165760 134.7007860 147.9792180 142.8456420 135.0164640
 135.4330340 139.6593190 137.4648560 134.7064400 139.0398480 137.3974510
 135.4939490 140.0533800 136.5946640 139.0375440 141.8738190 134.2497970
 139.5540460 141.2625550 133.7246230 139.6872820 142.3766970 134.7408980
 141.7770940 142.7646680 135.0766950 142.0648750 142.5100980 134.1999960
 142.2894160 142.2124040 135.6672520 142.9947950 126.5036880 135.6563460
 142.2119740 126.9782380 135.9360220 142.7010880 125.5991710 135.5476640
 147.5469020 127.2059980 133.7012550 147.9877110 127.1505080 132.8534150
 147.2776610 128.1217990 133.7722730 149.4107590 126.8375220 131.7121370
 149.3495990 125.8936440 131.5652390 150.1899620 126.9455310 132.2574830
 133.7160340 142.9767580 130.6745320 133.5482380 142.3438260 131.3727210
 132.8494850 143.1826980 130.3239510 134.3388360 126.8084360 128.1777180
 135.0967720 126.9213240 127.6041210 133.8765530 127.6453560 128.1320610
 140.8802170 128.9223630 131.1679490 140.0676680 128.5480520 130.8275370
 141.3843810 128.1668710 131.4700680 145.3827150 125.5866080 132.4062560
 145.9856520 126.1586290 132.8811080 144.6420140 126.1505520 132.1836460
 148.5261750 125.9887640 127.6802840 148.7212380 126.8871090 127.9470270
 147.7391620 125.7574720 128.1735790 135.3223040 141.6700810 128.1195460
 134.7970660 142.0508840 127.4157420 135.2467620 142.2951580 128.8405170
 136.7113510 127.3348410 126.7179150 137.2406270 126.5478210 126.5887100
 137.3441830 128.0139600 126.9514680 138.9051350 127.0723550 129.7724540
 138.2754090 126.3710860 129.9394670 138.3656490 127.8327680 129.5557700
 141.8443300 143.6862780 142.4435150 142.7710610 143.4507050 142.4871110
 141.8293730 144.5134780 141.9621180 150.0788360 143.2288350 129.4409400
 150.2540550 142.5426090 128.7970320 149.3809930 143.7535400 129.0486070
 139.0306910 126.3507530 142.2077030 138.7491180 126.8541130 141.4437850
 139.4126610 125.5529280 141.8419160 137.9216010 143.6183190 126.9944710
 138.6534830 143.3342470 126.4468600 138.1809680 143.3796470 127.8844090
 137.0830800 139.7347920 126.9991040 136.4539680 140.2033020 127.5476870
 137.1978630 138.8897140 127.4337230 145.6322370 125.7661110 142.7857500
 145.5187820 126.0855720 143.6809020 146.4492110 126.1673620 142.4894780
 148.4120860 142.9132640 142.2676190 149.2046180 142.4181870 142.0602150
 148.7054010 143.5922780 142.8751800 144.5380520 133.7853580 113.1492240
 144.4574570 132.8708190 112.8783950 144.1244940 134.2820650 112.4431950
 142.6698560 135.5632600 115.0301510 141.8940660 135.0833040 115.3200080
 143.3211490 134.8838250 114.8557670 136.6864390 135.8752410 115.9077270
 135.8549270 135.6201120 116.3073780 137.2945370 135.9463180 116.6435190
 146.6905990 139.9692790 113.8100640 146.2287520 139.1980030 114.1387810
 147.5031540 139.9958860 114.3153090 136.6665650 139.9092500 116.1035290
 136.9693690 139.0190240 115.9245510 137.4109240 140.4662720 115.8757540
 135.0956340 130.8354300 109.6919660 134.2073040 131.1770270 109.5899540
 135.3797530 130.6354620 108.8000490 133.0589350 133.4359950 115.5759360
 133.6305460 132.6682150 115.5763000 133.0590890 133.7348710 114.6665970
 142.9169300 142.2550800 113.4304630 142.2980740 142.7108300 112.8599070
 143.7721080 142.4102260 113.0294330 142.1107550 138.2389790 115.0371670
 142.0415830 137.2979730 114.8760800 142.8727410 138.3291200 115.6094240
 134.3014220 128.8444310 117.3628290 134.1217060 127.9470060 117.6431050
 133.8994300 129.3916180 118.0375240 143.1412720 131.0460170 115.2640600
 143.5177540 130.1732050 115.1514270 143.0432230 131.3818870 114.3731040
 137.2717730 129.4185800 110.7258040 137.3784480 130.3189530 111.0326800
 136.3610090 129.3703770 110.4352690 146.9236840 128.5410610 112.1968940
 147.7446460 128.0507180 112.2394420 146.9570920 129.1308270 112.9500780
 134.9200890 131.3404810 115.9710630 135.6011000 131.6043180 116.5898030
 134.6048940 130.5005680 116.3048640 139.1125460 132.3872170 115.0583220
 139.6203680 132.8853140 115.6988240 139.6438700 131.6107370 114.8822580
 137.3961560 127.0270730 119.3246640 137.3980000 127.5443120 118.5192540
 136.5665870 126.5500910 119.3016570 143.7832650 137.1390040 110.8236540
 143.1649920 137.6039490 110.2599260 144.2955900 137.8317520 111.2406050
 138.6464410 136.6665910 117.5020140 138.3133790 137.2934830 118.1441210
 138.8231090 137.1927790 116.7221810 147.1598320 130.4810990 114.9696480
 146.4553890 130.7695880 115.5499590 147.5210480 131.2911100 114.6096040
 137.0776890 128.7380690 117.3317090 137.4193700 129.5822740 117.0370960
 136.1392700 128.8864430 117.4482430 137.8583510 138.6346710 119.3169320
 138.4757510 139.3097790 119.0353770 136.9976630 139.0434690 119.2256820
 133.1515850 137.8246570 108.1976170 132.7743830 138.3133670 107.4661070
 133.4088920 138.4971850 108.8282700 148.7761100 140.0986120 117.2323960
 148.0924620 140.7685230 117.2240630 149.3155390 140.2966770 116.4668820
 140.7604780 126.2262960 113.6561680 141.0679760 125.6709850 112.9397180
 139.8305480 126.3607420 113.4734670 146.3119840 141.9430250 115.9469140
 146.3247000 141.5392540 115.0791400 145.7595060 142.7177540 115.8430570
 147.6065260 138.6646470 111.0359310 147.4961590 137.7220800 111.1608730
 147.6033510 139.0262110 111.9222070 145.7105280 136.8460090 117.2751750
 146.1274070 136.6320200 116.4405210 146.4345100 137.1032880 117.8460370
 143.1485540 134.2911790 110.3921800 142.2214820 134.2249170 110.6210270
 143.3010360 135.2291920 110.2777040 143.1354620 130.5628790 107.3888960
 142.1958290 130.7242750 107.4741420 143.4537880 131.2814470 106.8424950
 149.6567380 135.2447310 117.3667990 148.8286010 135.3140400 116.8918120
 150.2517860 135.8301620 116.8983820 147.1782830 135.8532090 110.8957050
 146.5595250 135.5151640 110.2483350 147.1607280 135.2091850 111.6036240
 146.6209390 132.0316630 118.3122860 146.2080570 132.8570340 118.5662850
 145.8885340 131.4461670 118.1199220 138.7542180 134.8176530 113.1741530
 138.3499180 134.1053780 112.6787430 138.8405300 134.4729770 114.0629570
 139.2223880 138.5044090 115.3380740 138.9252170 137.8989560 114.6588520
 140.1723700 138.5421400 115.2270100 137.4670800 131.5919740 116.9540570
 138.0185390 131.7015080 116.1793820 137.9814310 131.9657340 117.6695800
 147.3109490 142.0775960 119.0003840 146.8340050 142.8848150 118.8076450
 146.6271280 141.4254290 119.1530050 138.3142310 138.2425780 121.9888540
 137.4170840 138.4665750 122.2361940 138.3395180 138.3660720 121.0399940
 145.3547530 135.0918900 107.9029800 145.7940810 134.2541330 107.7567620
 146.0675950 135.7248300 107.9893940 137.1413530 135.1139100 120.5645910
 137.0021300 135.9861900 120.9333310 136.2594890 134.7711910 120.4193850
 143.4642910 140.0314970 111.8711040 143.9038820 140.7739300 111.4566430
 143.4029800 140.2741540 112.7950000 138.9393880 141.0560800 122.7731060
 138.9109310 141.4603750 121.9059490 138.7758850 140.1271160 122.6102660
 148.9364670 126.3461710 106.2170840 148.6237330 126.4388540 107.1169910
 149.6977140 126.9242740 106.1668270 135.4546810 133.7121510 110.6748180
 135.3344410 134.4383600 110.0629450 135.1447700 132.9424420 110.1976090
 133.0932180 136.8836650 116.4816820 133.1712600 137.0185420 115.5372540
 133.7073860 136.1752540 116.6744940 134.3379810 138.5836840 112.8923000
 133.9307890 138.7251430 112.0376600 135.2292820 138.2997000 112.6894210
 150.2941950 139.0300750 121.2295240 150.4205010 138.7912630 120.3112420
 150.3363330 138.1985290 121.7017320 144.1558690 142.7328750 119.7990050
 144.6703360 142.6436760 120.6012480 143.3127770 143.0788450 120.0917960
 146.1313090 143.0184090 109.2274050 145.9714230 142.7287030 110.1255880
 145.9659800 142.2424220 108.6919280 138.6101470 142.7982620 111.0045670
 138.4343950 141.8818160 110.7913470 137.7557210 143.1569910 111.2443470
 145.8339220 140.5271650 107.7872050 145.1404380 140.5248940 107.1274330
 146.5762080 140.1030970 107.3566220 145.3989150 142.1534360 111.8620540
 145.8546100 141.3723740 112.1759160 145.7381670 142.8641180 112.4061720
 150.1465960 131.0833210 122.1944980 149.5310230 131.5912880 121.6660440
 149.8262380 130.1831540 122.1370920 133.1491700 137.9250820 119.0211280
 133.3122740 137.4556180 118.2030650 133.6144150 137.4174380 119.6860120
 137.9210470 127.0556580 114.0571850 137.4778620 127.8366120 113.7256370
 138.4795460 127.3786470 114.7642790 142.2080280 129.9225100 119.6607170
 141.7459650 130.1308120 120.4727110 141.8058390 129.1084450 119.3577840
 147.2084790 131.1434050 120.7903830 146.3578380 130.8439800 121.1112900
 147.0486580 131.3876060 119.8787650 144.3034500 132.6435800 122.8902620
 144.6287910 131.8099550 122.5504850 145.0914830 133.1664320 123.0380950
 141.0369290 126.6767280 108.9377680 140.4123470 126.6727150 109.6630990
 140.9499410 125.8098240 108.5413650 139.9586370 127.6003910 115.9161450
 140.2558700 128.5066740 115.8353470 140.5071930 127.1122690 115.3021020
 137.7124690 132.1790150 111.7853100 137.4865610 131.9627320 112.6899720
 136.9317220 132.6118610 111.4399070 144.9422450 132.1853520 110.3843750
 144.3431340 132.9089320 110.2007370 145.4902060 132.1230300 109.6020200
 140.1523900 133.0775730 122.4513370 140.0567500 132.1370460 122.3013770
 140.9955880 133.2990800 122.0561440 143.5487320 130.8217060 112.4147030
 143.9416890 131.1389260 111.6015720 143.9104170 129.9428940 112.5291550
 135.2834440 129.4889400 120.6047150 134.8897830 130.3364610 120.8119930
 134.5952840 128.8515770 120.7955790 141.8579490 129.5724370 123.6743890
 141.1677810 129.3796570 124.3089980 142.6011790 129.8559010 124.2068190
 132.5851490 127.4117860 114.6377230 132.2964540 127.9820720 115.3502210
 133.3297250 126.9322310 115.0008460 132.7721720 131.3537980 105.8479950
 132.6896390 132.2968740 105.9894940 132.4204780 131.2112890 104.9692300
 144.1342460 133.4122810 116.5097810 143.4023580 133.9209620 116.8587910
 143.7366800 132.5952790 116.2086590 140.5719850 130.0877010 114.9150300
 140.5755910 129.6466960 114.0654840 141.4670970 130.4094340 115.0222120
 136.4222230 129.9703500 113.8744510 136.0822280 130.4478730 114.6311560
 135.6599550 129.5168620 113.5145610 140.6340000 131.0889090 107.9057060
 140.7552820 131.0475570 108.8542880 140.2488510 131.9513240 107.7503790
 144.5968370 128.8656490 115.9220750 144.6141110 129.3165140 116.7662600
 144.3483950 127.9662130 116.1354190 139.6461500 133.3990230 107.3040360
 139.0778400 132.9508480 106.6776270 140.3550500 133.7583010 106.7705510
 148.0239120 126.2788670 121.7607130 148.3484890 125.5478330 122.2865110
 148.0595630 125.9602310 120.8588120 134.7230680 137.3002250 121.1807090
 134.3385470 136.6595920 121.7790050 135.0342870 138.0038370 121.7501820
 140.8727820 134.1478790 116.6615710 141.2397950 133.6737360 117.4077050
 140.6832880 135.0220360 117.0024050 133.7368310 128.8922480 112.7909180
 133.4515230 128.5278150 113.6287800 133.6747170 128.1602940 112.1772320
 138.6627190 133.1887430 118.9799920 138.3584260 134.0679410 119.2050280
 139.6173650 133.2487220 119.0157360 137.1908980 137.3948420 109.5766770
 136.4171240 136.8546040 109.4165490 137.9203610 136.8755030 109.2384530
 147.9496960 136.3913780 115.3693160 148.6696080 136.8869070 114.9789270
 147.7478780 135.7131670 114.7247030 143.4106900 127.7851740 109.5122550
 142.5971510 127.2864910 109.4367860 143.2168850 128.6249990 109.0958900
 143.3315760 136.4622840 121.2562160 143.2653070 135.5418510 121.0019750
 142.7020900 136.5598280 121.9706800 146.1255290 132.1571390 107.8084710
 147.0134910 132.4688620 107.6336050 146.0960380 131.2843640 107.4165290
 137.2346380 137.0628800 113.2145580 137.7525050 136.2597060 113.1602470
 136.7830400 137.0007940 114.0562410 142.1215880 138.3295080 108.4872880
 142.4631580 139.0737310 107.9916200 141.2928590 138.6426200 108.8497710
 134.7190920 134.0290170 120.1271280 134.3605860 134.6944020 120.7144620
 134.4245480 133.1973720 120.4983900 137.9204040 134.4874410 123.0110830
 137.6204180 134.6331590 122.1138650 138.6915280 133.9279700 122.9184220
 143.2632490 139.2843410 121.0065960 143.2777030 138.3524370 120.7884870
 142.5557590 139.3703170 121.6455730 148.3969560 133.4683230 107.2764570
 148.3133280 133.8997450 106.4261010 149.1163750 133.9281580 107.7091390
 149.4743700 135.9250750 120.3534540 148.7491890 136.5179530 120.1563930
 150.0019160 135.9174290 119.5547910 149.4256810 140.3225490 110.0046700
 148.7832970 139.6681110 110.2790420 149.0387470 140.7280580 109.2287370
 145.0043290 137.6510920 113.8518390 145.3567110 137.0539050 113.1919760
 144.1205620 137.3255150 114.0226640 141.0906570 138.4108610 111.2588800
 141.7777700 138.9577820 111.6396390 140.3038990 138.9549340 111.2938410
 133.2298970 134.0281430 106.7505880 134.0993820 134.3106230 107.0341800
 132.7389290 134.8417300 106.6354690 140.3933780 135.4154640 110.8714160
 140.8496560 136.2259890 111.0974350 140.0421990 135.0977780 111.7032650
 142.6966390 140.9260980 118.1006460 143.3408610 141.1320360 118.7779880
 143.0595830 140.1649380 117.6477310 136.2945560 125.7592290 111.3436680
 136.1660190 125.7510190 112.2921600 135.4707580 126.0975380 110.9927690
 143.9698470 138.9293330 116.8183910 144.6120700 138.2286490 116.9316080
 144.4947820 139.7091770 116.6380800 147.8154190 139.2141950 106.5423050
 147.5891770 138.4972390 107.1347690 147.4250390 138.9654390 105.7044800
 145.7436090 139.7288230 120.0219970 146.0792330 140.3154920 120.6997890
 144.8236430 139.5980940 120.2517760 133.5970220 143.2408810 107.3167510
 133.9567860 143.8398150 106.6624780 133.4562560 143.7868700 108.0902540
 133.2939490 127.5183410 120.8043380 132.5798010 127.7180330 121.4095990
 133.7134530 126.7422980 121.1758180 147.3970440 137.1313890 108.2037210
 147.1092140 137.5926580 108.9915090 148.1922610 136.6711660 108.4721430
 133.5812080 141.5063670 121.7909910 133.6903200 140.5658410 121.6505300
 132.9292640 141.7718420 121.1423640 141.5724670 139.7779560 123.1908030
 141.2521540 139.0588800 123.7353720 140.8983030 140.4534630 123.2644090
 139.6138840 140.6240010 108.1341180 139.6048940 141.3569700 107.5185690
 138.6937200 140.3771590 108.2268140 135.2145480 135.8454900 108.8787940
 134.6073430 136.5853800 108.8883240 135.6894830 135.9354260 108.0526140
 144.7878270 130.0105720 118.5544830 145.1559090 129.1900930 118.8824400
 143.9276470 130.0707610 118.9700480 148.1540300 128.9662660 109.3632390
 147.5253460 129.0708330 108.6490620 147.6592220 129.1859440 110.1526270
 142.5998440 140.6868250 106.7966370 142.7010420 140.4832240 105.8668350
 141.7000180 140.4326530 107.0014150 140.1224330 131.2448610 110.7790270
 139.4140480 131.7134950 111.2203880 140.4068810 130.5870620 111.4135460
 141.7480260 132.6645310 118.7782800 142.2465510 133.1391130 119.4434650
 141.8903210 131.7408830 118.9852830 144.1539760 127.9699270 112.2186060
 144.0307540 127.9885400 111.2695570 145.1024320 128.0178210 112.3384460
 141.2416550 143.2054570 111.4914040 141.4958050 143.1675960 110.5693410
 140.2929030 143.0787900 111.4842290 138.3259350 129.5533690 108.1540980
 139.1749880 129.9903840 108.0881170 137.9590620 129.8653950 108.9813040
 148.9547120 128.8813270 119.6211190 148.4520720 129.6218670 119.9605000
 149.7703780 129.2697270 119.3047980 147.2469130 134.1246450 113.0672550
 146.3059270 134.1396680 113.2420240 147.5613200 133.3382410 113.5132850
 137.2250770 135.8066050 106.6276510 137.9914040 135.6947410 107.1901940
 137.3025460 135.1104020 105.9753280 135.9197530 133.2391120 107.3109400
 136.0001120 132.2918630 107.4226800 136.8117280 133.5698000 107.4170060
 149.2494710 141.2955300 114.7426810 149.3742130 142.1186470 115.2150620
 150.1160270 141.0846030 114.3950960 136.7212240 143.3886510 114.4143940
 137.4574720 142.8401970 114.6852510 137.1053160 144.2542520 114.2749930
 133.6057720 139.4560080 110.2885450 132.6797500 139.6981220 110.2790860
 134.0714150 140.2834340 110.1670200 135.7270520 142.5732580 123.6029520
 136.5283250 142.8944630 124.0164920 135.2122340 142.2128160 124.3249430
 139.8314550 142.5616820 106.2369510 140.6243160 142.8505650 105.7851300
 139.3118900 142.1308990 105.5581990 144.5635150 138.6812450 123.5504930
 143.9573310 138.7044050 122.8100680 144.2589260 137.9495490 124.0872180
 145.9935520 142.4092740 122.1614340 146.9457270 142.3250760 122.1114580
 145.8463740 143.0734450 122.8348130 148.8844720 141.7886950 107.6606250
 148.5986230 141.3752090 106.8460430 148.6864270 142.7174660 107.5406770
 133.4468330 135.0606040 122.5465570 133.9507350 134.4813320 123.1181800
 132.7075750 135.3446270 123.0841940 140.3491950 137.7820230 106.1011860
 140.2442590 137.1672580 106.8273240 140.1816170 137.2586120 105.3174870
 140.5006270 136.4677030 122.0801090 139.7351940 137.0362030 121.9955760
 140.6822230 136.1753240 121.1869320 143.5894680 136.8440260 106.7053850
 143.0404780 137.2909560 107.3496590 144.2113940 136.3389510 107.2291520
 147.6429620 138.1982360 122.6376110 148.3839090 138.5358120 122.1343570
 146.8802300 138.3674420 122.0845880 135.4791410 133.2035630 123.4415640
 135.5196750 132.9049500 124.3500870 136.3336910 133.6043240 123.2823160
 139.2569800 135.8031180 108.6019150 139.6786220 135.6371050 109.4450540
 139.3820640 134.9931410 108.1074290 137.4197220 131.7827730 121.4090130
 136.8893680 131.2918680 120.7813470 138.0885290 132.2111930 120.8748060
 141.7697440 134.8268790 105.8496250 142.2903100 134.1117810 105.4837400
 142.4165840 135.4654660 106.1496760 146.3175280 136.2497190 121.1731320
 146.7316300 136.4042270 122.0221740 145.3826280 136.3752410 121.3357100
 146.7897450 133.5893350 123.1770470 147.3718220 132.8345670 123.0890950
 146.9659220 134.1200790 122.4001950 137.9069520 128.7490100 121.4887420
 137.8126390 128.1310850 120.7638290 137.3266910 129.4756390 121.2617330
 140.6730960 127.3063340 118.5214810 140.2248260 127.3287600 117.6760360
 140.0396160 126.9082360 119.1185110 141.0790510 136.2017670 119.1427250
 141.4978620 137.0450400 118.9703490 140.1599140 136.3389710 118.9134030
 143.4154410 133.9333850 120.5265090 143.5350620 133.3374990 121.2659930
 144.2748410 133.9703540 120.1066390 145.7542310 134.4871040 119.1027600
 145.2277530 135.0113660 118.4992740 146.0973650 135.1198430 119.7337330
 138.1528700 131.8764410 105.5477310 137.9517760 131.0131770 105.9090650
 137.9820750 131.7897770 104.6098910 138.9297930 142.5070680 120.2584980
 138.3919020 143.2316740 119.9393680 139.1831890 142.0301020 119.4682320
 140.1823180 130.4755200 121.7840910 140.7722870 130.1671050 122.4718730
 139.3643420 130.0034950 121.9400810 145.0016610 130.0921010 122.0173930
 144.3132130 129.4302550 121.9523920 145.7222630 129.6459280 122.4622390
 145.6317010 126.6872640 108.0764190 145.9119300 125.8440540 108.4323610
 144.8582740 126.9195750 108.5902940 136.9511500 128.9765030 105.5355190
 137.2537400 128.9832460 104.6274340 137.6906090 128.6262890 106.0322850
 141.7860140 143.7421890 120.5171630 141.7118840 144.6457030 120.8244000
 140.8838980 143.4233790 120.4893700 140.1696430 127.9199650 106.5211390
 139.8218430 127.2423640 105.9413840 140.3709200 127.4589160 107.3354780
 142.3345470 142.9080400 108.1397990 143.2296260 143.2465370 108.1616750
 142.3663100 142.1859810 107.5122270 135.9741630 138.2807450 106.3684990
 136.4116500 138.8237120 107.0242570 136.4589360 137.4554400 106.3781330
 133.1887430 141.0696480 113.8205250 133.5190440 140.2017540 113.5883890
 133.6178430 141.2755000 114.6510210 137.7849350 139.4005490 111.4807220
 137.4844890 139.2770460 112.3811130 137.6786840 138.5414080 111.0722950
 133.6777640 141.9367070 116.5586880 133.2408630 142.1167870 117.3911030
 134.2455320 142.6941690 116.4168600 149.3139820 141.4384070 120.8464190
 148.7141810 141.4976630 120.1028110 149.4433720 140.4989050 120.9761040
 133.5102070 134.4487300 112.9175760 132.8550910 134.1798940 112.2735460
 134.3480020 134.3391780 112.4677740 147.9991460 138.1636050 118.9440350
 147.1851300 138.5933210 119.2066140 148.4065660 138.7754460 118.3309400
 150.0616900 136.2183740 105.8440620 150.3365740 137.1262620 105.7159840
 149.8727640 136.1546270 106.7802610 146.4592510 129.2428590 107.1394250
 146.8777390 129.0559570 106.2990910 146.1528570 128.3907640 107.4497180
 149.9582240 134.1552730 110.8370050 149.5825840 133.3880660 110.4051340
 149.2285360 134.5375430 111.3244980 134.5478000 134.8339870 117.4579100
 134.9151040 134.7467270 118.3375120 133.9788820 134.0706420 117.3585960
 149.3481860 133.3024250 120.4709570 149.1167950 133.0737000 119.5707520
 149.6086410 134.2223800 120.4254460 134.0994000 131.7448960 121.3637520
 133.2050050 131.7115720 121.7031230 134.6391550 131.9435750 122.1288770
 147.7869930 128.5280680 123.2489270 148.6640110 128.5364080 123.6323270
 147.7990770 127.7911520 122.6381620 132.7240150 131.6586230 108.8601090
 131.8204230 131.9216430 108.6852750 133.2080770 131.9297400 108.0801050
 149.2333200 132.3810220 114.1377290 149.7570680 131.8872870 113.5067460
 149.8192620 132.5160580 114.8824860 149.4122920 132.4650090 117.6596840
 148.4625630 132.4313630 117.7741830 149.5935930 133.3750200 117.4246610
 135.2667360 130.7151770 106.7695470 135.9759060 130.2934990 106.2842750
 134.5507300 130.7827000 106.1378820 134.9141520 126.7691100 105.8098120
 135.6369650 127.3100040 106.1279340 135.1866040 126.4954520 104.9339660
 148.7233170 131.6383570 110.0769700 149.2192290 131.4054440 110.8618580
 148.5249240 130.7995410 109.6607340 134.6033710 126.0197290 115.7120740
 135.2509900 125.4694670 115.2715900 135.0235550 126.2740440 116.5336550
 148.4986050 126.2138650 119.0690380 149.1358270 126.8272790 119.4349570
 148.6460940 126.2499310 118.1239610 148.0567510 142.9154650 112.4708620
 148.6526580 142.5939220 111.7943040 148.3145660 142.4426470 113.2621890
 134.3565710 126.1752960 118.4546060 134.0080530 126.6316780 119.2204240
 134.0253410 125.2810090 118.5368490 135.9630080 139.3472560 122.6199250
 135.9199710 138.9765470 123.5013710 136.0941090 140.2850130 122.7601070
 139.6636110 140.9032150 118.2208970 139.4227470 141.1706710 117.3339490
 140.6038750 141.0737880 118.2759830 141.8690530 127.3664840 121.9765480
 141.8079420 127.9586670 122.7260890 142.8090910 127.2590800 121.8315740
 144.5065090 127.0234900 121.6157770 145.1205500 127.3414190 120.9538850
 145.0514650 126.5383490 122.2353630 135.0286350 125.7029160 121.7296830
 135.5769340 125.5217210 120.9662940 135.0941660 124.9123270 122.2653140
 135.8018110 142.2934810 119.7397030 135.2078430 142.1619510 120.4787070
 135.7941950 141.4572950 119.2739130 145.2473130 125.5867040 117.9427060
 144.3732970 125.9202150 117.7399990 145.1383880 125.1140220 118.7678930
 146.1545110 127.7937910 119.3268780 145.8258470 126.9789670 118.9470510
 147.1027410 127.7507720 119.2034470 148.6079720 143.5649950 116.3006350
 148.1482690 144.3165760 115.9264370 147.9792180 142.8456420 116.2421150
 135.4330340 139.6593190 118.6905070 134.7064400 139.0398480 118.6231020
 135.4939490 140.0533800 117.8203150 139.0375440 141.8738190 115.4754480
 139.5540460 141.2625550 114.9502740 139.6872820 142.3766970 115.9665490
 141.7770940 142.7646680 116.3023460 142.0648750 142.5100980 115.4256470
 142.2894160 142.2124040 116.8929030 142.9947950 126.5036880 116.8819970
 142.2119740 126.9782380 117.1616730 142.7010880 125.5991710 116.7733150
 147.5469020 127.2059980 114.9269060 147.9877110 127.1505080 114.0790660
 147.2776610 128.1217990 114.9979240 149.4107590 126.8375220 112.9377880
 149.3495990 125.8936440 112.7908900 150.1899620 126.9455310 113.4831340
 133.7160340 142.9767580 111.9001830 133.5482380 142.3438260 112.5983720
 132.8494850 143.1826980 111.5496020 134.3388360 126.8084360 109.4033690
 135.0967720 126.9213240 108.8297720 133.8765530 127.6453560 109.3577120
 140.8802170 128.9223630 112.3936000 140.0676680 128.5480520 112.0531880
 141.3843810 128.1668710 112.6957190 145.3827150 125.5866080 113.6319070
 145.9856520 126.1586290 114.1067590 144.6420140 126.1505520 113.4092970
 148.5261750 125.9887640 108.9059350 148.7212380 126.8871090 109.1726780
 147.7391620 125.7574720 109.3992300 135.3223040 141.6700810 109.3451970
 134.7970660 142.0508840 108.6413930 135.2467620 142.2951580 110.0661680
 136.7113510 127.3348410 107.9435660 137.2406270 126.5478210 107.8143610
 137.3441830 128.0139600 108.1771190 138.9051350 127.0723550 110.9981050
 138.2754090 126.3710860 111.1651180 138.3656490 127.8327680 110.7814210
 141.8443300 143.6862780 123.6691660 142.7710610 143.4507050 123.7127620
 141.8293730 144.5134780 123.1877690 150.0788360 143.2288350 110.6665910
 150.2540550 142.5426090 110.0226830 149.3809930 143.7535400 110.2742580
 139.0306910 126.3507530 123.4333540 138.7491180 126.8541130 122.6694360
 139.4126610 125.5529280 123.0675670 137.9216010 143.6183190 108.2201220
 138.6534830 143.3342470 107.6725110 138.1809680 143.3796470 109.1100600
 137.0830800 139.7347920 108.2247550 136.4539680 140.2033020 108.7733380
 137.1978630 138.8897140 108.6593740 145.6322370 125.7661110 124.0114010
 145.5187820 126.0855720 124.9065530 146.4492110 126.1673620 123.7151290
 148.4120860 142.9132640 123.4932700 149.2046180 142.4181870 123.2858660
 148.7054010 143.5922780 124.1008310 144.5380520 133.7853580  94.3748750
 144.4574570 132.8708190  94.1040460 144.1244940 134.2820650  93.6688460
 142.6698560 135.5632600  96.2558020 141.8940660 135.0833040  96.5456590
 143.3211490 134.8838250  96.0814180 136.6864390 135.8752410  97.1333780
 135.8549270 135.6201120  97.5330290 137.2945370 135.9463180  97.8691700
 146.6905990 139.9692790  95.0357150 146.2287520 139.1980030  95.3644320
 147.5031540 139.9958860  95.5409600 136.6665650 139.9092500  97.3291800
 136.9693690 139.0190240  97.1502020 137.4109240 140.4662720  97.1014050
 135.0956340 130.8354300  90.9176170 134.2073040 131.1770270  90.8156050
 135.3797530 130.6354620  90.0257000 133.0589350 133.4359950  96.8015870
 133.6305460 132.6682150  96.8019510 133.0590890 133.7348710  95.8922480
 142.9169300 142.2550800  94.6561140 142.2980740 142.7108300  94.0855580
 143.7721080 142.4102260  94.2550840 142.1107550 138.2389790  96.2628180
 142.0415830 137.2979730  96.1017310 142.8727410 138.3291200  96.8350750
 134.3014220 128.8444310  98.5884800 134.1217060 127.9470060  98.8687560
 133.8994300 129.3916180  99.2631750 143.1412720 131.0460170  96.4897110
 143.5177540 130.1732050  96.3770780 143.0432230 131.3818870  95.5987550
 137.2717730 129.4185800  91.9514550 137.3784480 130.3189530  92.2583310
 136.3610090 129.3703770  91.6609200 146.9236840 128.5410610  93.4225450
 147.7446460 128.0507180  93.4650930 146.9570920 129.1308270  94.1757290
 134.9200890 131.3404810  97.1967140 135.6011000 131.6043180  97.8154540
 134.6048940 130.5005680  97.5305150 139.1125460 132.3872170  96.2839730
 139.6203680 132.8853140  96.9244750 139.6438700 131.6107370  96.1079090
 137.3961560 127.0270730 100.5503150 137.3980000 127.5443120  99.7449050
 136.5665870 126.5500910 100.5273080 143.7832650 137.1390040  92.0493050
 143.1649920 137.6039490  91.4855770 144.2955900 137.8317520  92.4662560
 138.6464410 136.6665910  98.7276650 138.3133790 137.2934830  99.3697720
 138.8231090 137.1927790  97.9478320 147.1598320 130.4810990  96.1952990
 146.4553890 130.7695880  96.7756100 147.5210480 131.2911100  95.8352550
 137.0776890 128.7380690  98.5573600 137.4193700 129.5822740  98.2627470
 136.1392700 128.8864430  98.6738940 137.8583510 138.6346710 100.5425830
 138.4757510 139.3097790 100.2610280 136.9976630 139.0434690 100.4513330
 133.1515850 137.8246570  89.4232680 132.7743830 138.3133670  88.6917580
 133.4088920 138.4971850  90.0539210 148.7761100 140.0986120  98.4580470
 148.0924620 140.7685230  98.4497140 149.3155390 140.2966770  97.6925330
 140.7604780 126.2262960  94.8818190 141.0679760 125.6709850  94.1653690
 139.8305480 126.3607420  94.6991180 146.3119840 141.9430250  97.1725650
 146.3247000 141.5392540  96.3047910 145.7595060 142.7177540  97.0687080
 147.6065260 138.6646470  92.2615820 147.4961590 137.7220800  92.3865240
 147.6033510 139.0262110  93.1478580 145.7105280 136.8460090  98.5008260
 146.1274070 136.6320200  97.6661720 146.4345100 137.1032880  99.0716880
 143.1485540 134.2911790  91.6178310 142.2214820 134.2249170  91.8466780
 143.3010360 135.2291920  91.5033550 143.1354620 130.5628790  88.6145470
 142.1958290 130.7242750  88.6997930 143.4537880 131.2814470  88.0681460
 149.6567380 135.2447310  98.5924500 148.8286010 135.3140400  98.1174630
 150.2517860 135.8301620  98.1240330 147.1782830 135.8532090  92.1213560
 146.5595250 135.5151640  91.4739860 147.1607280 135.2091850  92.8292750
 146.6209390 132.0316630  99.5379370 146.2080570 132.8570340  99.7919360
 145.8885340 131.4461670  99.3455730 138.7542180 134.8176530  94.3998040
 138.3499180 134.1053780  93.9043940 138.8405300 134.4729770  95.2886080
 139.2223880 138.5044090  96.5637250 138.9252170 137.8989560  95.8845030
 140.1723700 138.5421400  96.4526610 137.4670800 131.5919740  98.1797080
 138.0185390 131.7015080  97.4050330 137.9814310 131.9657340  98.8952310
 147.3109490 142.0775960 100.2260350 146.8340050 142.8848150 100.0332960
 146.6271280 141.4254290 100.3786560 138.3142310 138.2425780 103.2145050
 137.4170840 138.4665750 103.4618450 138.3395180 138.3660720 102.2656450
 145.3547530 135.0918900  89.1286310 145.7940810 134.2541330  88.9824130
 146.0675950 135.7248300  89.2150450 137.1413530 135.1139100 101.7902420
 137.0021300 135.9861900 102.1589820 136.2594890 134.7711910 101.6450360
 143.4642910 140.0314970  93.0967550 143.9038820 140.7739300  92.6822940
 143.4029800 140.2741540  94.0206510 138.9393880 141.0560800 103.9987570
 138.9109310 141.4603750 103.1316000 138.7758850 140.1271160 103.8359170
 148.9364670 126.3461710  87.4427350 148.6237330 126.4388540  88.3426420
 149.6977140 126.9242740  87.3924780 135.4546810 133.7121510  91.9004690
 135.3344410 134.4383600  91.2885960 135.1447700 132.9424420  91.4232600
 133.0932180 136.8836650  97.7073330 133.1712600 137.0185420  96.7629050
 133.7073860 136.1752540  97.9001450 134.3379810 138.5836840  94.1179510
 133.9307890 138.7251430  93.2633110 135.2292820 138.2997000  93.9150720
 150.2941950 139.0300750 102.4551750 150.4205010 138.7912630 101.5368930
 150.3363330 138.1985290 102.9273830 144.1558690 142.7328750 101.0246560
 144.6703360 142.6436760 101.8268990 143.3127770 143.0788450 101.3174470
 146.1313090 143.0184090  90.4530560 145.9714230 142.7287030  91.3512390
 145.9659800 142.2424220  89.9175790 138.6101470 142.7982620  92.2302180
 138.4343950 141.8818160  92.0169980 137.7557210 143.1569910  92.4699980
 145.8339220 140.5271650  89.0128560 145.1404380 140.5248940  88.3530840
 146.5762080 140.1030970  88.5822730 145.3989150 142.1534360  93.0877050
 145.8546100 141.3723740  93.4015670 145.7381670 142.8641180  93.6318230
 150.1465960 131.0833210 103.4201490 149.5310230 131.5912880 102.8916950
 149.8262380 130.1831540 103.3627430 133.1491700 137.9250820 100.2467790
 133.3122740 137.4556180  99.4287160 133.6144150 137.4174380 100.9116630
 137.9210470 127.0556580  95.2828360 137.4778620 127.8366120  94.9512880
 138.4795460 127.3786470  95.9899300 142.2080280 129.9225100 100.8863680
 141.7459650 130.1308120 101.6983620 141.8058390 129.1084450 100.5834350
 147.2084790 131.1434050 102.0160340 146.3578380 130.8439800 102.3369410
 147.0486580 131.3876060 101.1044160 144.3034500 132.6435800 104.1159130
 144.6287910 131.8099550 103.7761360 145.0914830 133.1664320 104.2637460
 141.0369290 126.6767280  90.1634190 140.4123470 126.6727150  90.8887500
 140.9499410 125.8098240  89.7670160 139.9586370 127.6003910  97.1417960
 140.2558700 128.5066740  97.0609980 140.5071930 127.1122690  96.5277530
 137.7124690 132.1790150  93.0109610 137.4865610 131.9627320  93.9156230
 136.9317220 132.6118610  92.6655580 144.9422450 132.1853520  91.6100260
 144.3431340 132.9089320  91.4263880 145.4902060 132.1230300  90.8276710
 140.1523900 133.0775730 103.6769880 140.0567500 132.1370460 103.5270280
 140.9955880 133.2990800 103.2817950 143.5487320 130.8217060  93.6403540
 143.9416890 131.1389260  92.8272230 143.9104170 129.9428940  93.7548060
 135.2834440 129.4889400 101.8303660 134.8897830 130.3364610 102.0376440
 134.5952840 128.8515770 102.0212300 141.8579490 129.5724370 104.9000400
 141.1677810 129.3796570 105.5346490 142.6011790 129.8559010 105.4324700
 132.5851490 127.4117860  95.8633740 132.2964540 127.9820720  96.5758720
 133.3297250 126.9322310  96.2264970 132.7721720 131.3537980  87.0736460
 132.6896390 132.2968740  87.2151450 132.4204780 131.2112890  86.1948810
 144.1342460 133.4122810  97.7354320 143.4023580 133.9209620  98.0844420
 143.7366800 132.5952790  97.4343100 140.5719850 130.0877010  96.1406810
 140.5755910 129.6466960  95.2911350 141.4670970 130.4094340  96.2478630
 136.4222230 129.9703500  95.1001020 136.0822280 130.4478730  95.8568070
 135.6599550 129.5168620  94.7402120 140.6340000 131.0889090  89.1313570
 140.7552820 131.0475570  90.0799390 140.2488510 131.9513240  88.9760300
 144.5968370 128.8656490  97.1477260 144.6141110 129.3165140  97.9919110
 144.3483950 127.9662130  97.3610700 139.6461500 133.3990230  88.5296870
 139.0778400 132.9508480  87.9032780 140.3550500 133.7583010  87.9962020
 148.0239120 126.2788670 102.9863640 148.3484890 125.5478330 103.5121620
 148.0595630 125.9602310 102.0844630 134.7230680 137.3002250 102.4063600
 134.3385470 136.6595920 103.0046560 135.0342870 138.0038370 102.9758330
 140.8727820 134.1478790  97.8872220 141.2397950 133.6737360  98.6333560
 140.6832880 135.0220360  98.2280560 133.7368310 128.8922480  94.0165690
 133.4515230 128.5278150  94.8544310 133.6747170 128.1602940  93.4028830
 138.6627190 133.1887430 100.2056430 138.3584260 134.0679410 100.4306790
 139.6173650 133.2487220 100.2413870 137.1908980 137.3948420  90.8023280
 136.4171240 136.8546040  90.6422000 137.9203610 136.8755030  90.4641040
 147.9496960 136.3913780  96.5949670 148.6696080 136.8869070  96.2045780
 147.7478780 135.7131670  95.9503540 143.4106900 127.7851740  90.7379060
 142.5971510 127.2864910  90.6624370 143.2168850 128.6249990  90.3215410
 143.3315760 136.4622840 102.4818670 143.2653070 135.5418510 102.2276260
 142.7020900 136.5598280 103.1963310 146.1255290 132.1571390  89.0341220
 147.0134910 132.4688620  88.8592560 146.0960380 131.2843640  88.6421800
 137.2346380 137.0628800  94.4402090 137.7525050 136.2597060  94.3858980
 136.7830400 137.0007940  95.2818920 142.1215880 138.3295080  89.7129390
 142.4631580 139.0737310  89.2172710 141.2928590 138.6426200  90.0754220
 134.7190920 134.0290170 101.3527790 134.3605860 134.6944020 101.9401130
 134.4245480 133.1973720 101.7240410 137.9204040 134.4874410 104.2367340
 137.6204180 134.6331590 103.3395160 138.6915280 133.9279700 104.1440730
 143.2632490 139.2843410 102.2322470 143.2777030 138.3524370 102.0141380
 142.5557590 139.3703170 102.8712240 148.3969560 133.4683230  88.5021080
 148.3133280 133.8997450  87.6517520 149.1163750 133.9281580  88.9347900
 149.4743700 135.9250750 101.5791050 148.7491890 136.5179530 101.3820440
 150.0019160 135.9174290 100.7804420 149.4256810 140.3225490  91.2303210
 148.7832970 139.6681110  91.5046930 149.0387470 140.7280580  90.4543880
 145.0043290 137.6510920  95.0774900 145.3567110 137.0539050  94.4176270
 144.1205620 137.3255150  95.2483150 141.0906570 138.4108610  92.4845310
 141.7777700 138.9577820  92.8652900 140.3038990 138.9549340  92.5194920
 133.2298970 134.0281430  87.9762390 134.0993820 134.3106230  88.2598310
 132.7389290 134.8417300  87.8611200 140.3933780 135.4154640  92.0970670
 140.8496560 136.2259890  92.3230860 140.0421990 135.0977780  92.9289160
 142.6966390 140.9260980  99.3262970 143.3408610 141.1320360 100.0036390
 143.0595830 140.1649380  98.8733820 136.2945560 125.7592290  92.5693190
 136.1660190 125.7510190  93.5178110 135.4707580 126.0975380  92.2184200
 143.9698470 138.9293330  98.0440420 144.6120700 138.2286490  98.1572590
 144.4947820 139.7091770  97.8637310 147.8154190 139.2141950  87.7679560
 147.5891770 138.4972390  88.3604200 147.4250390 138.9654390  86.9301310
 145.7436090 139.7288230 101.2476480 146.0792330 140.3154920 101.9254400
 144.8236430 139.5980940 101.4774270 133.5970220 143.2408810  88.5424020
 133.9567860 143.8398150  87.8881290 133.4562560 143.7868700  89.3159050
 133.2939490 127.5183410 102.0299890 132.5798010 127.7180330 102.6352500
 133.7134530 126.7422980 102.4014690 147.3970440 137.1313890  89.4293720
 147.1092140 137.5926580  90.2171600 148.1922610 136.6711660  89.6977940
 133.5812080 141.5063670 103.0166420 133.6903200 140.5658410 102.8761810
 132.9292640 141.7718420 102.3680150 141.5724670 139.7779560 104.4164540
 141.2521540 139.0588800 104.9610230 140.8983030 140.4534630 104.4900600
 139.6138840 140.6240010  89.3597690 139.6048940 141.3569700  88.7442200
 138.6937200 140.3771590  89.4524650 135.2145480 135.8454900  90.1044450
 134.6073430 136.5853800  90.1139750 135.6894830 135.9354260  89.2782650
 144.7878270 130.0105720  99.7801340 145.1559090 129.1900930 100.1080910
 143.9276470 130.0707610 100.1956990 148.1540300 128.9662660  90.5888900
 147.5253460 129.0708330  89.8747130 147.6592220 129.1859440  91.3782780
 142.5998440 140.6868250  88.0222880 142.7010420 140.4832240  87.0924860
 141.7000180 140.4326530  88.2270660 140.1224330 131.2448610  92.0046780
 139.4140480 131.7134950  92.4460390 140.4068810 130.5870620  92.6391970
 141.7480260 132.6645310 100.0039310 142.2465510 133.1391130 100.6691160
 141.8903210 131.7408830 100.2109340 144.1539760 127.9699270  93.4442570
 144.0307540 127.9885400  92.4952080 145.1024320 128.0178210  93.5640970
 141.2416550 143.2054570  92.7170550 141.4958050 143.1675960  91.7949920
 140.2929030 143.0787900  92.7098800 138.3259350 129.5533690  89.3797490
 139.1749880 129.9903840  89.3137680 137.9590620 129.8653950  90.2069550
 148.9547120 128.8813270 100.8467700 148.4520720 129.6218670 101.1861510
 149.7703780 129.2697270 100.5304490 147.2469130 134.1246450  94.2929060
 146.3059270 134.1396680  94.4676750 147.5613200 133.3382410  94.7389360
 137.2250770 135.8066050  87.8533020 137.9914040 135.6947410  88.4158450
 137.3025460 135.1104020  87.2009790 135.9197530 133.2391120  88.5365910
 136.0001120 132.2918630  88.6483310 136.8117280 133.5698000  88.6426570
 149.2494710 141.2955300  95.9683320 149.3742130 142.1186470  96.4407130
 150.1160270 141.0846030  95.6207470 136.7212240 143.3886510  95.6400450
 137.4574720 142.8401970  95.9109020 137.1053160 144.2542520  95.5006440
 133.6057720 139.4560080  91.5141960 132.6797500 139.6981220  91.5047370
 134.0714150 140.2834340  91.3926710 135.7270520 142.5732580 104.8286030
 136.5283250 142.8944630 105.2421430 135.2122340 142.2128160 105.5505940
 139.8314550 142.5616820  87.4626020 140.6243160 142.8505650  87.0107810
 139.3118900 142.1308990  86.7838500 144.5635150 138.6812450 104.7761440
 143.9573310 138.7044050 104.0357190 144.2589260 137.9495490 105.3128690
 145.9935520 142.4092740 103.3870850 146.9457270 142.3250760 103.3371090
 145.8463740 143.0734450 104.0604640 148.8844720 141.7886950  88.8862760
 148.5986230 141.3752090  88.0716940 148.6864270 142.7174660  88.7663280
 133.4468330 135.0606040 103.7722080 133.9507350 134.4813320 104.3438310
 132.7075750 135.3446270 104.3098450 140.3491950 137.7820230  87.3268370
 140.2442590 137.1672580  88.0529750 140.1816170 137.2586120  86.5431380
 140.5006270 136.4677030 103.3057600 139.7351940 137.0362030 103.2212270
 140.6822230 136.1753240 102.4125830 143.5894680 136.8440260  87.9310360
 143.0404780 137.2909560  88.5753100 144.2113940 136.3389510  88.4548030
 147.6429620 138.1982360 103.8632620 148.3839090 138.5358120 103.3600080
 146.8802300 138.3674420 103.3102390 135.4791410 133.2035630 104.6672150
 135.5196750 132.9049500 105.5757380 136.3336910 133.6043240 104.5079670
 139.2569800 135.8031180  89.8275660 139.6786220 135.6371050  90.6707050
 139.3820640 134.9931410  89.3330800 137.4197220 131.7827730 102.6346640
 136.8893680 131.2918680 102.0069980 138.0885290 132.2111930 102.1004570
 141.7697440 134.8268790  87.0752760 142.2903100 134.1117810  86.7093910
 142.4165840 135.4654660  87.3753270 146.3175280 136.2497190 102.3987830
 146.7316300 136.4042270 103.2478250 145.3826280 136.3752410 102.5613610
 146.7897450 133.5893350 104.4026980 147.3718220 132.8345670 104.3147460
 146.9659220 134.1200790 103.6258460 137.9069520 128.7490100 102.7143930
 137.8126390 128.1310850 101.9894800 137.3266910 129.4756390 102.4873840
 140.6730960 127.3063340  99.7471320 140.2248260 127.3287600  98.9016870
 140.0396160 126.9082360 100.3441620 141.0790510 136.2017670 100.3683760
 141.4978620 137.0450400 100.1960000 140.1599140 136.3389710 100.1390540
 143.4154410 133.9333850 101.7521600 143.5350620 133.3374990 102.4916440
 144.2748410 133.9703540 101.3322900 145.7542310 134.4871040 100.3284110
 145.2277530 135.0113660  99.7249250 146.0973650 135.1198430 100.9593840
 138.1528700 131.8764410  86.7733820 137.9517760 131.0131770  87.1347160
 137.9820750 131.7897770  85.8355420 138.9297930 142.5070680 101.4841490
 138.3919020 143.2316740 101.1650190 139.1831890 142.0301020 100.6938830
 140.1823180 130.4755200 103.0097420 140.7722870 130.1671050 103.6975240
 139.3643420 130.0034950 103.1657320 145.0016610 130.0921010 103.2430440
 144.3132130 129.4302550 103.1780430 145.7222630 129.6459280 103.6878900
 145.6317010 126.6872640  89.3020700 145.9119300 125.8440540  89.6580120
 144.8582740 126.9195750  89.8159450 136.9511500 128.9765030  86.7611700
 137.2537400 128.9832460  85.8530850 137.6906090 128.6262890  87.2579360
 141.7860140 143.7421890 101.7428140 141.7118840 144.6457030 102.0500510
 140.8838980 143.4233790 101.7150210 140.1696430 127.9199650  87.7467900
 139.8218430 127.2423640  87.1670350 140.3709200 127.4589160  88.5611290
 142.3345470 142.9080400  89.3654500 143.2296260 143.2465370  89.3873260
 142.3663100 142.1859810  88.7378780 135.9741630 138.2807450  87.5941500
 136.4116500 138.8237120  88.2499080 136.4589360 137.4554400  87.6037840
 133.1887430 141.0696480  95.0461760 133.5190440 140.2017540  94.8140400
 133.6178430 141.2755000  95.8766720 137.7849350 139.4005490  92.7063730
 137.4844890 139.2770460  93.6067640 137.6786840 138.5414080  92.2979460
 133.6777640 141.9367070  97.7843390 133.2408630 142.1167870  98.6167540
 134.2455320 142.6941690  97.6425110 149.3139820 141.4384070 102.0720700
 148.7141810 141.4976630 101.3284620 149.4433720 140.4989050 102.2017550
 133.5102070 134.4487300  94.1432270 132.8550910 134.1798940  93.4991970
 134.3480020 134.3391780  93.6934250 147.9991460 138.1636050 100.1696860
 147.1851300 138.5933210 100.4322650 148.4065660 138.7754460  99.5565910
 150.0616900 136.2183740  87.0697130 150.3365740 137.1262620  86.9416350
 149.8727640 136.1546270  88.0059120 146.4592510 129.2428590  88.3650760
 146.8777390 129.0559570  87.5247420 146.1528570 128.3907640  88.6753690
 149.9582240 134.1552730  92.0626560 149.5825840 133.3880660  91.6307850
 149.2285360 134.5375430  92.5501490 134.5478000 134.8339870  98.6835610
 134.9151040 134.7467270  99.5631630 133.9788820 134.0706420  98.5842470
 149.3481860 133.3024250 101.6966080 149.1167950 133.0737000 100.7964030
 149.6086410 134.2223800 101.6510970 134.0994000 131.7448960 102.5894030
 133.2050050 131.7115720 102.9287740 134.6391550 131.9435750 103.3545280
 147.7869930 128.5280680 104.4745780 148.6640110 128.5364080 104.8579780
 147.7990770 127.7911520 103.8638130 132.7240150 131.6586230  90.0857600
 131.8204230 131.9216430  89.9109260 133.2080770 131.9297400  89.3057560
 149.2333200 132.3810220  95.3633800 149.7570680 131.8872870  94.7323970
 149.8192620 132.5160580  96.1081370 149.4122920 132.4650090  98.8853350
 148.4625630 132.4313630  98.9998340 149.5935930 133.3750200  98.6503120
 135.2667360 130.7151770  87.9951980 135.9759060 130.2934990  87.5099260
 134.5507300 130.7827000  87.3635330 134.9141520 126.7691100  87.0354630
 135.6369650 127.3100040  87.3535850 135.1866040 126.4954520  86.1596170
 148.7233170 131.6383570  91.3026210 149.2192290 131.4054440  92.0875090
 148.5249240 130.7995410  90.8863850 134.6033710 126.0197290  96.9377250
 135.2509900 125.4694670  96.4972410 135.0235550 126.2740440  97.7593060
 148.4986050 126.2138650 100.2946890 149.1358270 126.8272790 100.6606080
 148.6460940 126.2499310  99.3496120 148.0567510 142.9154650  93.6965130
 148.6526580 142.5939220  93.0199550 148.3145660 142.4426470  94.4878400
 134.3565710 126.1752960  99.6802570 134.0080530 126.6316780 100.4460750
 134.0253410 125.2810090  99.7625000 135.9630080 139.3472560 103.8455760
 135.9199710 138.9765470 104.7270220 136.0941090 140.2850130 103.9857580
 139.6636110 140.9032150  99.4465480 139.4227470 141.1706710  98.5596000
 140.6038750 141.0737880  99.5016340 141.8690530 127.3664840 103.2021990
 141.8079420 127.9586670 103.9517400 142.8090910 127.2590800 103.0572250
 144.5065090 127.0234900 102.8414280 145.1205500 127.3414190 102.1795360
 145.0514650 126.5383490 103.4610140 135.0286350 125.7029160 102.9553340
 135.5769340 125.5217210 102.1919450 135.0941660 124.9123270 103.4909650
 135.8018110 142.2934810 100.9653540 135.2078430 142.1619510 101.7043580
 135.7941950 141.4572950 100.4995640 145.2473130 125.5867040  99.1683570
 144.3732970 125.9202150  98.9656500 145.1383880 125.1140220  99.9935440
 146.1545110 127.7937910 100.5525290 145.8258470 126.9789670 100.1727020
 147.1027410 127.7507720 100.4290980 148.6079720 143.5649950  97.5262860
 148.1482690 144.3165760  97.1520880 147.9792180 142.8456420  97.4677660
 135.4330340 139.6593190  99.9161580 134.7064400 139.0398480  99.8487530
 135.4939490 140.0533800  99.0459660 139.0375440 141.8738190  96.7010990
 139.5540460 141.2625550  96.1759250 139.6872820 142.3766970  97.1922000
 141.7770940 142.7646680  97.5279970 142.0648750 142.5100980  96.6512980
 142.2894160 142.2124040  98.1185540 142.9947950 126.5036880  98.1076480
 142.2119740 126.9782380  98.3873240 142.7010880 125.5991710  97.9989660
 147.5469020 127.2059980  96.1525570 147.9877110 127.1505080  95.3047170
 147.2776610 128.1217990  96.2235750 149.4107590 126.8375220  94.1634390
 149.3495990 125.8936440  94.0165410 150.1899620 126.9455310  94.7087850
 133.7160340 142.9767580  93.1258340 133.5482380 142.3438260  93.8240230
 132.8494850 143.1826980  92.7752530 134.3388360 126.8084360  90.6290200
 135.0967720 126.9213240  90.0554230 133.8765530 127.6453560  90.5833630
 140.8802170 128.9223630  93.6192510 140.0676680 128.5480520  93.2788390
 141.3843810 128.1668710  93.9213700 145.3827150 125.5866080  94.8575580
 145.9856520 126.1586290  95.3324100 144.6420140 126.1505520  94.6349480
 148.5261750 125.9887640  90.1315860 148.7212380 126.8871090  90.3983290
 147.7391620 125.7574720  90.6248810 135.3223040 141.6700810  90.5708480
 134.7970660 142.0508840  89.8670440 135.2467620 142.2951580  91.2918190
 136.7113510 127.3348410  89.1692170 137.2406270 126.5478210  89.0400120
 137.3441830 128.0139600  89.4027700 138.9051350 127.0723550  92.2237560
 138.2754090 126.3710860  92.3907690 138.3656490 127.8327680  92.0070720
 141.8443300 143.6862780 104.8948170 142.7710610 143.4507050 104.9384130
 141.8293730 144.5134780 104.4134200 150.0788360 143.2288350  91.8922420
 150.2540550 142.5426090  91.2483340 149.3809930 143.7535400  91.4999090
 139.0306910 126.3507530 104.6590050 138.7491180 126.8541130 103.8950870
 139.4126610 125.5529280 104.2932180 137.9216010 143.6183190  89.4457730
 138.6534830 143.3342470  88.8981620 138.1809680 143.3796470  90.3357110
 137.0830800 139.7347920  89.4504060 136.4539680 140.2033020  89.9989890
 137.1978630 138.8897140  89.8850250 145.6322370 125.7661110 105.2370520
 145.5187820 126.0855720 106.1322040 146.4492110 126.1673620 104.9407800
 148.4120860 142.9132640 104.7189210 149.2046180 142.4181870 104.5115170
 148.7054010 143.5922780 105.3264820 144.5380520 133.7853580  75.6005260
 144.4574570 132.8708190  75.3296970 144.1244940 134.2820650  74.8944970
 142.6698560 135.5632600  77.4814530 141.8940660 135.0833040  77.7713100
 143.3211490 134.8838250  77.3070690 136.6864390 135.8752410  78.3590290
 135.8549270 135.6201120  78.7586800 137.2945370 135.9463180  79.0948210
 146.6905990 139.9692790  76.2613660 146.2287520 139.1980030  76.5900830
 147.5031540 139.9958860  76.7666110 136.6665650 139.9092500  78.5548310
 136.9693690 139.0190240  78.3758530 137.4109240 140.4662720  78.3270560
 135.0956340 130.8354300  72.1432680 134.2073040 131.1770270  72.0412560
 135.3797530 130.6354620  71.2513510 133.0589350 133.4359950  78.0272380
 133.6305460 132.6682150  78.0276020 133.0590890 133.7348710  77.1178990
 142.9169300 142.2550800  75.8817650 142.2980740 142.7108300  75.3112090
 143.7721080 142.4102260  75.4807350 142.1107550 138.2389790  77.4884690
 142.0415830 137.2979730  77.3273820 142.8727410 138.3291200  78.0607260
 134.3014220 128.8444310  79.8141310 134.1217060 127.9470060  80.0944070
 133.8994300 129.3916180  80.4888260 143.1412720 131.0460170  77.7153620
 143.5177540 130.1732050  77.6027290 143.0432230 131.3818870  76.8244060
 137.2717730 129.4185800  73.1771060 137.3784480 130.3189530  73.4839820
 136.3610090 129.3703770  72.8865710 146.9236840 128.5410610  74.6481960
 147.7446460 128.0507180  74.6907440 146.9570920 129.1308270  75.4013800
 134.9200890 131.3404810  78.4223650 135.6011000 131.6043180  79.0411050
 134.6048940 130.5005680  78.7561660 139.1125460 132.3872170  77.5096240
 139.6203680 132.8853140  78.1501260 139.6438700 131.6107370  77.3335600
 137.3961560 127.0270730  81.7759660 137.3980000 127.5443120  80.9705560
 136.5665870 126.5500910  81.7529590 143.7832650 137.1390040  73.2749560
 143.1649920 137.6039490  72.7112280 144.2955900 137.8317520  73.6919070
 138.6464410 136.6665910  79.9533160 138.3133790 137.2934830  80.5954230
 138.8231090 137.1927790  79.1734830 147.1598320 130.4810990  77.4209500
 146.4553890 130.7695880  78.0012610 147.5210480 131.2911100  77.0609060
 137.0776890 128.7380690  79.7830110 137.4193700 129.5822740  79.4883980
 136.1392700 128.8864430  79.8995450 137.8583510 138.6346710  81.7682340
 138.4757510 139.3097790  81.4866790 136.9976630 139.0434690  81.6769840
 133.1515850 137.8246570  70.6489190 132.7743830 138.3133670  69.9174090
 133.4088920 138.4971850  71.2795720 148.7761100 140.0986120  79.6836980
 148.0924620 140.7685230  79.6753650 149.3155390 140.2966770  78.9181840
 140.7604780 126.2262960  76.1074700 141.0679760 125.6709850  75.3910200
 139.8305480 126.3607420  75.9247690 146.3119840 141.9430250  78.3982160
 146.3247000 141.5392540  77.5304420 145.7595060 142.7177540  78.2943590
 147.6065260 138.6646470  73.4872330 147.4961590 137.7220800  73.6121750
 147.6033510 139.0262110  74.3735090 145.7105280 136.8460090  79.7264770
 146.1274070 136.6320200  78.8918230 146.4345100 137.1032880  80.2973390
 143.1485540 134.2911790  72.8434820 142.2214820 134.2249170  73.0723290
 143.3010360 135.2291920  72.7290060 143.1354620 130.5628790  69.8401980
 142.1958290 130.7242750  69.9254440 143.4537880 131.2814470  69.2937970
 149.6567380 135.2447310  79.8181010 148.8286010 135.3140400  79.3431140
 150.2517860 135.8301620  79.3496840 147.1782830 135.8532090  73.3470070
 146.5595250 135.5151640  72.6996370 147.1607280 135.2091850  74.0549260
 146.6209390 132.0316630  80.7635880 146.2080570 132.8570340  81.0175870
 145.8885340 131.4461670  80.5712240 138.7542180 134.8176530  75.6254550
 138.3499180 134.1053780  75.1300450 138.8405300 134.4729770  76.5142590
 139.2223880 138.5044090  77.7893760 138.9252170 137.8989560  77.1101540
 140.1723700 138.5421400  77.6783120 137.4670800 131.5919740  79.4053590
 138.0185390 131.7015080  78.6306840 137.9814310 131.9657340  80.1208820
 147.3109490 142.0775960  81.4516860 146.8340050 142.8848150  81.2589470
 146.6271280 141.4254290  81.6043070 138.3142310 138.2425780  84.4401560
 137.4170840 138.4665750  84.6874960 138.3395180 138.3660720  83.4912960
 145.3547530 135.0918900  70.3542820 145.7940810 134.2541330  70.2080640
 146.0675950 135.7248300  70.4406960 137.1413530 135.1139100  83.0158930
 137.0021300 135.9861900  83.3846330 136.2594890 134.7711910  82.8706870
 143.4642910 140.0314970  74.3224060 143.9038820 140.7739300  73.9079450
 143.4029800 140.2741540  75.2463020 138.9393880 141.0560800  85.2244080
 138.9109310 141.4603750  84.3572510 138.7758850 140.1271160  85.0615680
 148.9364670 126.3461710  68.6683860 148.6237330 126.4388540  69.5682930
 149.6977140 126.9242740  68.6181290 135.4546810 133.7121510  73.1261200
 135.3344410 134.4383600  72.5142470 135.1447700 132.9424420  72.6489110
 133.0932180 136.8836650  78.9329840 133.1712600 137.0185420  77.9885560
 133.7073860 136.1752540  79.1257960 134.3379810 138.5836840  75.3436020
 133.9307890 138.7251430  74.4889620 135.2292820 138.2997000  75.1407230
 150.2941950 139.0300750  83.6808260 150.4205010 138.7912630  82.7625440
 150.3363330 138.1985290  84.1530340 144.1558690 142.7328750  82.2503070
 144.6703360 142.6436760  83.0525500 143.3127770 143.0788450  82.5430980
 146.1313090 143.0184090  71.6787070 145.9714230 142.7287030  72.5768900
 145.9659800 142.2424220  71.1432300 138.6101470 142.7982620  73.4558690
 138.4343950 141.8818160  73.2426490 137.7557210 143.1569910  73.6956490
 145.8339220 140.5271650  70.2385070 145.1404380 140.5248940  69.5787350
 146.5762080 140.1030970  69.8079240 145.3989150 142.1534360  74.3133560
 145.8546100 141.3723740  74.6272180 145.7381670 142.8641180  74.8574740
 150.1465960 131.0833210  84.6458000 149.5310230 131.5912880  84.1173460
 149.8262380 130.1831540  84.5883940 133.1491700 137.9250820  81.4724300
 133.3122740 137.4556180  80.6543670 133.6144150 137.4174380  82.1373140
 137.9210470 127.0556580  76.5084870 137.4778620 127.8366120  76.1769390
 138.4795460 127.3786470  77.2155810 142.2080280 129.9225100  82.1120190
 141.7459650 130.1308120  82.9240130 141.8058390 129.1084450  81.8090860
 147.2084790 131.1434050  83.2416850 146.3578380 130.8439800  83.5625920
 147.0486580 131.3876060  82.3300670 144.3034500 132.6435800  85.3415640
 144.6287910 131.8099550  85.0017870 145.0914830 133.1664320  85.4893970
 141.0369290 126.6767280  71.3890700 140.4123470 126.6727150  72.1144010
 140.9499410 125.8098240  70.9926670 139.9586370 127.6003910  78.3674470
 140.2558700 128.5066740  78.2866490 140.5071930 127.1122690  77.7534040
 137.7124690 132.1790150  74.2366120 137.4865610 131.9627320  75.1412740
 136.9317220 132.6118610  73.8912090 144.9422450 132.1853520  72.8356770
 144.3431340 132.9089320  72.6520390 145.4902060 132.1230300  72.0533220
 140.1523900 133.0775730  84.9026390 140.0567500 132.1370460  84.7526790
 140.9955880 133.2990800  84.5074460 143.5487320 130.8217060  74.8660050
 143.9416890 131.1389260  74.0528740 143.9104170 129.9428940  74.9804570
 135.2834440 129.4889400  83.0560170 134.8897830 130.3364610  83.2632950
 134.5952840 128.8515770  83.2468810 141.8579490 129.5724370  86.1256910
 141.1677810 129.3796570  86.7603000 142.6011790 129.8559010  86.6581210
 132.5851490 127.4117860  77.0890250 132.2964540 127.9820720  77.8015230
 133.3297250 126.9322310  77.4521480 132.7721720 131.3537980  68.2992970
 132.6896390 132.2968740  68.4407960 132.4204780 131.2112890  67.4205320
 144.1342460 133.4122810  78.9610830 143.4023580 133.9209620  79.3100930
 143.7366800 132.5952790  78.6599610 140.5719850 130.0877010  77.3663320
 140.5755910 129.6466960  76.5167860 141.4670970 130.4094340  77.4735140
 136.4222230 129.9703500  76.3257530 136.0822280 130.4478730  77.0824580
 135.6599550 129.5168620  75.9658630 140.6340000 131.0889090  70.3570080
 140.7552820 131.0475570  71.3055900 140.2488510 131.9513240  70.2016810
 144.5968370 128.8656490  78.3733770 144.6141110 129.3165140  79.2175620
 144.3483950 127.9662130  78.5867210 139.6461500 133.3990230  69.7553380
 139.0778400 132.9508480  69.1289290 140.3550500 133.7583010  69.2218530
 148.0239120 126.2788670  84.2120150 148.3484890 125.5478330  84.7378130
 148.0595630 125.9602310  83.3101140 134.7230680 137.3002250  83.6320110
 134.3385470 136.6595920  84.2303070 135.0342870 138.0038370  84.2014840
 140.8727820 134.1478790  79.1128730 141.2397950 133.6737360  79.8590070
 140.6832880 135.0220360  79.4537070 133.7368310 128.8922480  75.2422200
 133.4515230 128.5278150  76.0800820 133.6747170 128.1602940  74.6285340
 138.6627190 133.1887430  81.4312940 138.3584260 134.0679410  81.6563300
 139.6173650 133.2487220  81.4670380 137.1908980 137.3948420  72.0279790
 136.4171240 136.8546040  71.8678510 137.9203610 136.8755030  71.6897550
 147.9496960 136.3913780  77.8206180 148.6696080 136.8869070  77.4302290
 147.7478780 135.7131670  77.1760050 143.4106900 127.7851740  71.9635570
 142.5971510 127.2864910  71.8880880 143.2168850 128.6249990  71.5471920
 143.3315760 136.4622840  83.7075180 143.2653070 135.5418510  83.4532770
 142.7020900 136.5598280  84.4219820 146.1255290 132.1571390  70.2597730
 147.0134910 132.4688620  70.0849070 146.0960380 131.2843640  69.8678310
 137.2346380 137.0628800  75.6658600 137.7525050 136.2597060  75.6115490
 136.7830400 137.0007940  76.5075430 142.1215880 138.3295080  70.9385900
 142.4631580 139.0737310  70.4429220 141.2928590 138.6426200  71.3010730
 134.7190920 134.0290170  82.5784300 134.3605860 134.6944020  83.1657640
 134.4245480 133.1973720  82.9496920 137.9204040 134.4874410  85.4623850
 137.6204180 134.6331590  84.5651670 138.6915280 133.9279700  85.3697240
 143.2632490 139.2843410  83.4578980 143.2777030 138.3524370  83.2397890
 142.5557590 139.3703170  84.0968750 148.3969560 133.4683230  69.7277590
 148.3133280 133.8997450  68.8774030 149.1163750 133.9281580  70.1604410
 149.4743700 135.9250750  82.8047560 148.7491890 136.5179530  82.6076950
 150.0019160 135.9174290  82.0060930 149.4256810 140.3225490  72.4559720
 148.7832970 139.6681110  72.7303440 149.0387470 140.7280580  71.6800390
 145.0043290 137.6510920  76.3031410 145.3567110 137.0539050  75.6432780
 144.1205620 137.3255150  76.4739660 141.0906570 138.4108610  73.7101820
 141.7777700 138.9577820  74.0909410 140.3038990 138.9549340  73.7451430
 133.2298970 134.0281430  69.2018900 134.0993820 134.3106230  69.4854820
 132.7389290 134.8417300  69.0867710 140.3933780 135.4154640  73.3227180
 140.8496560 136.2259890  73.5487370 140.0421990 135.0977780  74.1545670
 142.6966390 140.9260980  80.5519480 143.3408610 141.1320360  81.2292900
 143.0595830 140.1649380  80.0990330 136.2945560 125.7592290  73.7949700
 136.1660190 125.7510190  74.7434620 135.4707580 126.0975380  73.4440710
 143.9698470 138.9293330  79.2696930 144.6120700 138.2286490  79.3829100
 144.4947820 139.7091770  79.0893820 147.8154190 139.2141950  68.9936070
 147.5891770 138.4972390  69.5860710 147.4250390 138.9654390  68.1557820
 145.7436090 139.7288230  82.4732990 146.0792330 140.3154920  83.1510910
 144.8236430 139.5980940  82.7030780 133.5970220 143.2408810  69.7680530
 133.9567860 143.8398150  69.1137800 133.4562560 143.7868700  70.5415560
 133.2939490 127.5183410  83.2556400 132.5798010 127.7180330  83.8609010
 133.7134530 126.7422980  83.6271200 147.3970440 137.1313890  70.6550230
 147.1092140 137.5926580  71.4428110 148.1922610 136.6711660  70.9234450
 133.5812080 141.5063670  84.2422930 133.6903200 140.5658410  84.1018320
 132.9292640 141.7718420  83.5936660 141.5724670 139.7779560  85.6421050
 141.2521540 139.0588800  86.1866740 140.8983030 140.4534630  85.7157110
 139.6138840 140.6240010  70.5854200 139.6048940 141.3569700  69.9698710
 138.6937200 140.3771590  70.6781160 135.2145480 135.8454900  71.3300960
 134.6073430 136.5853800  71.3396260 135.6894830 135.9354260  70.5039160
 144.7878270 130.0105720  81.0057850 145.1559090 129.1900930  81.3337420
 143.9276470 130.0707610  81.4213500 148.1540300 128.9662660  71.8145410
 147.5253460 129.0708330  71.1003640 147.6592220 129.1859440  72.6039290
 142.5998440 140.6868250  69.2479390 142.7010420 140.4832240  68.3181370
 141.7000180 140.4326530  69.4527170 140.1224330 131.2448610  73.2303290
 139.4140480 131.7134950  73.6716900 140.4068810 130.5870620  73.8648480
 141.7480260 132.6645310  81.2295820 142.2465510 133.1391130  81.8947670
 141.8903210 131.7408830  81.4365850 144.1539760 127.9699270  74.6699080
 144.0307540 127.9885400  73.7208590 145.1024320 128.0178210  74.7897480
 141.2416550 143.2054570  73.9427060 141.4958050 143.1675960  73.0206430
 140.2929030 143.0787900  73.9355310 138.3259350 129.5533690  70.6054000
 139.1749880 129.9903840  70.5394190 137.9590620 129.8653950  71.4326060
 148.9547120 128.8813270  82.0724210 148.4520720 129.6218670  82.4118020
 149.7703780 129.2697270  81.7561000 147.2469130 134.1246450  75.5185570
 146.3059270 134.1396680  75.6933260 147.5613200 133.3382410  75.9645870
 137.2250770 135.8066050  69.0789530 137.9914040 135.6947410  69.6414960
 137.3025460 135.1104020  68.4266300 135.9197530 133.2391120  69.7622420
 136.0001120 132.2918630  69.8739820 136.8117280 133.5698000  69.8683080
 149.2494710 141.2955300  77.1939830 149.3742130 142.1186470  77.6663640
 150.1160270 141.0846030  76.8463980 136.7212240 143.3886510  76.8656960
 137.4574720 142.8401970  77.1365530 137.1053160 144.2542520  76.7262950
 133.6057720 139.4560080  72.7398470 132.6797500 139.6981220  72.7303880
 134.0714150 140.2834340  72.6183220 135.7270520 142.5732580  86.0542540
 136.5283250 142.8944630  86.4677940 135.2122340 142.2128160  86.7762450
 139.8314550 142.5616820  68.6882530 140.6243160 142.8505650  68.2364320
 139.3118900 142.1308990  68.0095010 144.5635150 138.6812450  86.0017950
 143.9573310 138.7044050  85.2613700 144.2589260 137.9495490  86.5385200
 145.9935520 142.4092740  84.6127360 146.9457270 142.3250760  84.5627600
 145.8463740 143.0734450  85.2861150 148.8844720 141.7886950  70.1119270
 148.5986230 141.3752090  69.2973450 148.6864270 142.7174660  69.9919790
 133.4468330 135.0606040  84.9978590 133.9507350 134.4813320  85.5694820
 132.7075750 135.3446270  85.5354960 140.3491950 137.7820230  68.5524880
 140.2442590 137.1672580  69.2786260 140.1816170 137.2586120  67.7687890
 140.5006270 136.4677030  84.5314110 139.7351940 137.0362030  84.4468780
 140.6822230 136.1753240  83.6382340 143.5894680 136.8440260  69.1566870
 143.0404780 137.2909560  69.8009610 144.2113940 136.3389510  69.6804540
 147.6429620 138.1982360  85.0889130 148.3839090 138.5358120  84.5856590
 146.8802300 138.3674420  84.5358900 135.4791410 133.2035630  85.8928660
 135.5196750 132.9049500  86.8013890 136.3336910 133.6043240  85.7336180
 139.2569800 135.8031180  71.0532170 139.6786220 135.6371050  71.8963560
 139.3820640 134.9931410  70.5587310 137.4197220 131.7827730  83.8603150
 136.8893680 131.2918680  83.2326490 138.0885290 132.2111930  83.3261080
 141.7697440 134.8268790  68.3009270 142.2903100 134.1117810  67.9350420
 142.4165840 135.4654660  68.6009780 146.3175280 136.2497190  83.6244340
 146.7316300 136.4042270  84.4734760 145.3826280 136.3752410  83.7870120
 146.7897450 133.5893350  85.6283490 147.3718220 132.8345670  85.5403970
 146.9659220 134.1200790  84.8514970 137.9069520 128.7490100  83.9400440
 137.8126390 128.1310850  83.2151310 137.3266910 129.4756390  83.7130350
 140.6730960 127.3063340  80.9727830 140.2248260 127.3287600  80.1273380
 140.0396160 126.9082360  81.5698130 141.0790510 136.2017670  81.5940270
 141.4978620 137.0450400  81.4216510 140.1599140 136.3389710  81.3647050
 143.4154410 133.9333850  82.9778110 143.5350620 133.3374990  83.7172950
 144.2748410 133.9703540  82.5579410 145.7542310 134.4871040  81.5540620
 145.2277530 135.0113660  80.9505760 146.0973650 135.1198430  82.1850350
 138.1528700 131.8764410  67.9990330 137.9517760 131.0131770  68.3603670
 137.9820750 131.7897770  67.0611930 138.9297930 142.5070680  82.7098000
 138.3919020 143.2316740  82.3906700 139.1831890 142.0301020  81.9195340
 140.1823180 130.4755200  84.2353930 140.7722870 130.1671050  84.9231750
 139.3643420 130.0034950  84.3913830 145.0016610 130.0921010  84.4686950
 144.3132130 129.4302550  84.4036940 145.7222630 129.6459280  84.9135410
 145.6317010 126.6872640  70.5277210 145.9119300 125.8440540  70.8836630
 144.8582740 126.9195750  71.0415960 136.9511500 128.9765030  67.9868210
 137.2537400 128.9832460  67.0787360 137.6906090 128.6262890  68.4835870
 141.7860140 143.7421890  82.9684650 141.7118840 144.6457030  83.2757020
 140.8838980 143.4233790  82.9406720 140.1696430 127.9199650  68.9724410
 139.8218430 127.2423640  68.3926860 140.3709200 127.4589160  69.7867800
 142.3345470 142.9080400  70.5911010 143.2296260 143.2465370  70.6129770
 142.3663100 142.1859810  69.9635290 135.9741630 138.2807450  68.8198010
 136.4116500 138.8237120  69.4755590 136.4589360 137.4554400  68.8294350
 133.1887430 141.0696480  76.2718270 133.5190440 140.2017540  76.0396910
 133.6178430 141.2755000  77.1023230 137.7849350 139.4005490  73.9320240
 137.4844890 139.2770460  74.8324150 137.6786840 138.5414080  73.5235970
 133.6777640 141.9367070  79.0099900 133.2408630 142.1167870  79.8424050
 134.2455320 142.6941690  78.8681620 149.3139820 141.4384070  83.2977210
 148.7141810 141.4976630  82.5541130 149.4433720 140.4989050  83.4274060
 133.5102070 134.4487300  75.3688780 132.8550910 134.1798940  74.7248480
 134.3480020 134.3391780  74.9190760 147.9991460 138.1636050  81.3953370
 147.1851300 138.5933210  81.6579160 148.4065660 138.7754460  80.7822420
 150.0616900 136.2183740  68.2953640 150.3365740 137.1262620  68.1672860
 149.8727640 136.1546270  69.2315630 146.4592510 129.2428590  69.5907270
 146.8777390 129.0559570  68.7503930 146.1528570 128.3907640  69.9010200
 149.9582240 134.1552730  73.2883070 149.5825840 133.3880660  72.8564360
 149.2285360 134.5375430  73.7758000 134.5478000 134.8339870  79.9092120
 134.9151040 134.7467270  80.7888140 133.9788820 134.0706420  79.8098980
 149.3481860 133.3024250  82.9222590 149.1167950 133.0737000  82.0220540
 149.6086410 134.2223800  82.8767480 134.0994000 131.7448960  83.8150540
 133.2050050 131.7115720  84.1544250 134.6391550 131.9435750  84.5801790
 147.7869930 128.5280680  85.7002290 148.6640110 128.5364080  86.0836290
 147.7990770 127.7911520  85.0894640 132.7240150 131.6586230  71.3114110
 131.8204230 131.9216430  71.1365770 133.2080770 131.9297400  70.5314070
 149.2333200 132.3810220  76.5890310 149.7570680 131.8872870  75.9580480
 149.8192620 132.5160580  77.3337880 149.4122920 132.4650090  80.1109860
 148.4625630 132.4313630  80.2254850 149.5935930 133.3750200  79.8759630
 135.2667360 130.7151770  69.2208490 135.9759060 130.2934990  68.7355770
 134.5507300 130.7827000  68.5891840 134.9141520 126.7691100  68.2611140
 135.6369650 127.3100040  68.5792360 135.1866040 126.4954520  67.3852680
 148.7233170 131.6383570  72.5282720 149.2192290 131.4054440  73.3131600
 148.5249240 130.7995410  72.1120360 134.6033710 126.0197290  78.1633760
 135.2509900 125.4694670  77.7228920 135.0235550 126.2740440  78.9849570
 148.4986050 126.2138650  81.5203400 149.1358270 126.8272790  81.8862590
 148.6460940 126.2499310  80.5752630 148.0567510 142.9154650  74.9221640
 148.6526580 142.5939220  74.2456060 148.3145660 142.4426470  75.7134910
 134.3565710 126.1752960  80.9059080 134.0080530 126.6316780  81.6717260
 134.0253410 125.2810090  80.9881510 135.9630080 139.3472560  85.0712270
 135.9199710 138.9765470  85.9526730 136.0941090 140.2850130  85.2114090
 139.6636110 140.9032150  80.6721990 139.4227470 141.1706710  79.7852510
 140.6038750 141.0737880  80.7272850 141.8690530 127.3664840  84.4278500
 141.8079420 127.9586670  85.1773910 142.8090910 127.2590800  84.2828760
 144.5065090 127.0234900  84.0670790 145.1205500 127.3414190  83.4051870
 145.0514650 126.5383490  84.6866650 135.0286350 125.7029160  84.1809850
 135.5769340 125.5217210  83.4175960 135.0941660 124.9123270  84.7166160
 135.8018110 142.2934810  82.1910050 135.2078430 142.1619510  82.9300090
 135.7941950 141.4572950  81.7252150 145.2473130 125.5867040  80.3940080
 144.3732970 125.9202150  80.1913010 145.1383880 125.1140220  81.2191950
 146.1545110 127.7937910  81.7781800 145.8258470 126.9789670  81.3983530
 147.1027410 127.7507720  81.6547490 148.6079720 143.5649950  78.7519370
 148.1482690 144.3165760  78.3777390 147.9792180 142.8456420  78.6934170
 135.4330340 139.6593190  81.1418090 134.7064400 139.0398480  81.0744040
 135.4939490 140.0533800  80.2716170 139.0375440 141.8738190  77.9267500
 139.5540460 141.2625550  77.4015760 139.6872820 142.3766970  78.4178510
 141.7770940 142.7646680  78.7536480 142.0648750 142.5100980  77.8769490
 142.2894160 142.2124040  79.3442050 142.9947950 126.5036880  79.3332990
 142.2119740 126.9782380  79.6129750 142.7010880 125.5991710  79.2246170
 147.5469020 127.2059980  77.3782080 147.9877110 127.1505080  76.5303680
 147.2776610 128.1217990  77.4492260 149.4107590 126.8375220  75.3890900
 149.3495990 125.8936440  75.2421920 150.1899620 126.9455310  75.9344360
 133.7160340 142.9767580  74.3514850 133.5482380 142.3438260  75.0496740
 132.8494850 143.1826980  74.0009040 134.3388360 126.8084360  71.8546710
 135.0967720 126.9213240  71.2810740 133.8765530 127.6453560  71.8090140
 140.8802170 128.9223630  74.8449020 140.0676680 128.5480520  74.5044900
 141.3843810 128.1668710  75.1470210 145.3827150 125.5866080  76.0832090
 145.9856520 126.1586290  76.5580610 144.6420140 126.1505520  75.8605990
 148.5261750 125.9887640  71.3572370 148.7212380 126.8871090  71.6239800
 147.7391620 125.7574720  71.8505320 135.3223040 141.6700810  71.7964990
 134.7970660 142.0508840  71.0926950 135.2467620 142.2951580  72.5174700
 136.7113510 127.3348410  70.3948680 137.2406270 126.5478210  70.2656630
 137.3441830 128.0139600  70.6284210 138.9051350 127.0723550  73.4494070
 138.2754090 126.3710860  73.6164200 138.3656490 127.8327680  73.2327230
 141.8443300 143.6862780  86.1204680 142.7710610 143.4507050  86.1640640
 141.8293730 144.5134780  85.6390710 150.0788360 143.2288350  73.1178930
 150.2540550 142.5426090  72.4739850 149.3809930 143.7535400  72.7255600
 139.0306910 126.3507530  85.8846560 138.7491180 126.8541130  85.1207380
 139.4126610 125.5529280  85.5188690 137.9216010 143.6183190  70.6714240
 138.6534830 143.3342470  70.1238130 138.1809680 143.3796470  71.5613620
 137.0830800 139.7347920  70.6760570 136.4539680 140.2033020  71.2246400
 137.1978630 138.8897140  71.1106760 145.6322370 125.7661110  86.4627030
 145.5187820 126.0855720  87.3578550 146.4492110 126.1673620  86.1664310
 148.4120860 142.9132640  85.9445720 149.2046180 142.4181870  85.7371680
 148.7054010 143.5922780  86.5521330 144.5380520 133.7853580  56.8261770
 144.4574570 132.8708190  56.5553480 144.1244940 134.2820650  56.1201480
 142.6698560 135.5632600  58.7071040 141.8940660 135.0833040  58.9969610
 143.3211490 134.8838250  58.5327200 136.6864390 135.8752410  59.5846800
 135.8549270 135.6201120  59.9843310 137.2945370 135.9463180  60.3204720
 146.6905990 139.9692790  57.4870170 146.2287520 139.1980030  57.8157340
 147.5031540 139.9958860  57.9922620 136.6665650 139.9092500  59.7804820
 136.9693690 139.0190240  59.6015040 137.4109240 140.4662720  59.5527070
 135.0956340 130.8354300  53.3689190 134.2073040 131.1770270  53.2669070
 135.3797530 130.6354620  52.4770020 133.0589350 133.4359950  59.2528890
 133.6305460 132.6682150  59.2532530 133.0590890 133.7348710  58.3435500
 142.9169300 142.2550800  57.1074160 142.2980740 142.7108300  56.5368600
 143.7721080 142.4102260  56.7063860 142.1107550 138.2389790  58.7141200
 142.0415830 137.2979730  58.5530330 142.8727410 138.3291200  59.2863770
 134.3014220 128.8444310  61.0397820 134.1217060 127.9470060  61.3200580
 133.8994300 129.3916180  61.7144770 143.1412720 131.0460170  58.9410130
 143.5177540 130.1732050  58.8283800 143.0432230 131.3818870  58.0500570
 137.2717730 129.4185800  54.4027570 137.3784480 130.3189530  54.7096330
 136.3610090 129.3703770  54.1122220 146.9236840 128.5410610  55.8738470
 147.7446460 128.0507180  55.9163950 146.9570920 129.1308270  56.6270310
 134.9200890 131.3404810  59.6480160 135.6011000 131.6043180  60.2667560
 134.6048940 130.5005680  59.9818170 139.1125460 132.3872170  58.7352750
 139.6203680 132.8853140  59.3757770 139.6438700 131.6107370  58.5592110
 137.3961560 127.0270730  63.0016170 137.3980000 127.5443120  62.1962070
 136.5665870 126.5500910  62.9786100 143.7832650 137.1390040  54.5006070
 143.1649920 137.6039490  53.9368790 144.2955900 137.8317520  54.9175580
 138.6464410 136.6665910  61.1789670 138.3133790 137.2934830  61.8210740
 138.8231090 137.1927790  60.3991340 147.1598320 130.4810990  58.6466010
 146.4553890 130.7695880  59.2269120 147.5210480 131.2911100  58.2865570
 137.0776890 128.7380690  61.0086620 137.4193700 129.5822740  60.7140490
 136.1392700 128.8864430  61.1251960 137.8583510 138.6346710  62.9938850
 138.4757510 139.3097790  62.7123300 136.9976630 139.0434690  62.9026350
 133.1515850 137.8246570  51.8745700 132.7743830 138.3133670  51.1430600
 133.4088920 138.4971850  52.5052230 148.7761100 140.0986120  60.9093490
 148.0924620 140.7685230  60.9010160 149.3155390 140.2966770  60.1438350
 140.7604780 126.2262960  57.3331210 141.0679760 125.6709850  56.6166710
 139.8305480 126.3607420  57.1504200 146.3119840 141.9430250  59.6238670
 146.3247000 141.5392540  58.7560930 145.7595060 142.7177540  59.5200100
 147.6065260 138.6646470  54.7128840 147.4961590 137.7220800  54.8378260
 147.6033510 139.0262110  55.5991600 145.7105280 136.8460090  60.9521280
 146.1274070 136.6320200  60.1174740 146.4345100 137.1032880  61.5229900
 143.1485540 134.2911790  54.0691330 142.2214820 134.2249170  54.2979800
 143.3010360 135.2291920  53.9546570 143.1354620 130.5628790  51.0658490
 142.1958290 130.7242750  51.1510950 143.4537880 131.2814470  50.5194480
 149.6567380 135.2447310  61.0437520 148.8286010 135.3140400  60.5687650
 150.2517860 135.8301620  60.5753350 147.1782830 135.8532090  54.5726580
 146.5595250 135.5151640  53.9252880 147.1607280 135.2091850  55.2805770
 146.6209390 132.0316630  61.9892390 146.2080570 132.8570340  62.2432380
 145.8885340 131.4461670  61.7968750 138.7542180 134.8176530  56.8511060
 138.3499180 134.1053780  56.3556960 138.8405300 134.4729770  57.7399100
 139.2223880 138.5044090  59.0150270 138.9252170 137.8989560  58.3358050
 140.1723700 138.5421400  58.9039630 137.4670800 131.5919740  60.6310100
 138.0185390 131.7015080  59.8563350 137.9814310 131.9657340  61.3465330
 147.3109490 142.0775960  62.6773370 146.8340050 142.8848150  62.4845980
 146.6271280 141.4254290  62.8299580 138.3142310 138.2425780  65.6658070
 137.4170840 138.4665750  65.9131470 138.3395180 138.3660720  64.7169470
 145.3547530 135.0918900  51.5799330 145.7940810 134.2541330  51.4337150
 146.0675950 135.7248300  51.6663470 137.1413530 135.1139100  64.2415440
 137.0021300 135.9861900  64.6102840 136.2594890 134.7711910  64.0963380
 143.4642910 140.0314970  55.5480570 143.9038820 140.7739300  55.1335960
 143.4029800 140.2741540  56.4719530 138.9393880 141.0560800  66.4500590
 138.9109310 141.4603750  65.5829020 138.7758850 140.1271160  66.2872190
 148.9364670 126.3461710  49.8940370 148.6237330 126.4388540  50.7939440
 149.6977140 126.9242740  49.8437800 135.4546810 133.7121510  54.3517710
 135.3344410 134.4383600  53.7398980 135.1447700 132.9424420  53.8745620
 133.0932180 136.8836650  60.1586350 133.1712600 137.0185420  59.2142070
 133.7073860 136.1752540  60.3514470 134.3379810 138.5836840  56.5692530
 133.9307890 138.7251430  55.7146130 135.2292820 138.2997000  56.3663740
 150.2941950 139.0300750  64.9064770 150.4205010 138.7912630  63.9881950
 150.3363330 138.1985290  65.3786850 144.1558690 142.7328750  63.4759580
 144.6703360 142.6436760  64.2782010 143.3127770 143.0788450  63.7687490
 146.1313090 143.0184090  52.9043580 145.9714230 142.7287030  53.8025410
 145.9659800 142.2424220  52.3688810 138.6101470 142.7982620  54.6815200
 138.4343950 141.8818160  54.4683000 137.7557210 143.1569910  54.9213000
 145.8339220 140.5271650  51.4641580 145.1404380 140.5248940  50.8043860
 146.5762080 140.1030970  51.0335750 145.3989150 142.1534360  55.5390070
 145.8546100 141.3723740  55.8528690 145.7381670 142.8641180  56.0831250
 150.1465960 131.0833210  65.8714510 149.5310230 131.5912880  65.3429970
 149.8262380 130.1831540  65.8140450 133.1491700 137.9250820  62.6980810
 133.3122740 137.4556180  61.8800180 133.6144150 137.4174380  63.3629650
 137.9210470 127.0556580  57.7341380 137.4778620 127.8366120  57.4025900
 138.4795460 127.3786470  58.4412320 142.2080280 129.9225100  63.3376700
 141.7459650 130.1308120  64.1496640 141.8058390 129.1084450  63.0347370
 147.2084790 131.1434050  64.4673360 146.3578380 130.8439800  64.7882430
 147.0486580 131.3876060  63.5557180 144.3034500 132.6435800  66.5672150
 144.6287910 131.8099550  66.2274380 145.0914830 133.1664320  66.7150480
 141.0369290 126.6767280  52.6147210 140.4123470 126.6727150  53.3400520
 140.9499410 125.8098240  52.2183180 139.9586370 127.6003910  59.5930980
 140.2558700 128.5066740  59.5123000 140.5071930 127.1122690  58.9790550
 137.7124690 132.1790150  55.4622630 137.4865610 131.9627320  56.3669250
 136.9317220 132.6118610  55.1168600 144.9422450 132.1853520  54.0613280
 144.3431340 132.9089320  53.8776900 145.4902060 132.1230300  53.2789730
 140.1523900 133.0775730  66.1282900 140.0567500 132.1370460  65.9783300
 140.9955880 133.2990800  65.7330970 143.5487320 130.8217060  56.0916560
 143.9416890 131.1389260  55.2785250 143.9104170 129.9428940  56.2061080
 135.2834440 129.4889400  64.2816680 134.8897830 130.3364610  64.4889460
 134.5952840 128.8515770  64.4725320 141.8579490 129.5724370  67.3513420
 141.1677810 129.3796570  67.9859510 142.6011790 129.8559010  67.8837720
 132.5851490 127.4117860  58.3146760 132.2964540 127.9820720  59.0271740
 133.3297250 126.9322310  58.6777990 132.7721720 131.3537980  49.5249480
 132.6896390 132.2968740  49.6664470 132.4204780 131.2112890  48.6461830
 144.1342460 133.4122810  60.1867340 143.4023580 133.9209620  60.5357440
 143.7366800 132.5952790  59.8856120 140.5719850 130.0877010  58.5919830
 140.5755910 129.6466960  57.7424370 141.4670970 130.4094340  58.6991650
 136.4222230 129.9703500  57.5514040 136.0822280 130.4478730  58.3081090
 135.6599550 129.5168620  57.1915140 140.6340000 131.0889090  51.5826590
 140.7552820 131.0475570  52.5312410 140.2488510 131.9513240  51.4273320
 144.5968370 128.8656490  59.5990280 144.6141110 129.3165140  60.4432130
 144.3483950 127.9662130  59.8123720 139.6461500 133.3990230  50.9809890
 139.0778400 132.9508480  50.3545800 140.3550500 133.7583010  50.4475040
 148.0239120 126.2788670  65.4376660 148.3484890 125.5478330  65.9634640
 148.0595630 125.9602310  64.5357650 134.7230680 137.3002250  64.8576620
 134.3385470 136.6595920  65.4559580 135.0342870 138.0038370  65.4271350
 140.8727820 134.1478790  60.3385240 141.2397950 133.6737360  61.0846580
 140.6832880 135.0220360  60.6793580 133.7368310 128.8922480  56.4678710
 133.4515230 128.5278150  57.3057330 133.6747170 128.1602940  55.8541850
 138.6627190 133.1887430  62.6569450 138.3584260 134.0679410  62.8819810
 139.6173650 133.2487220  62.6926890 137.1908980 137.3948420  53.2536300
 136.4171240 136.8546040  53.0935020 137.9203610 136.8755030  52.9154060
 147.9496960 136.3913780  59.0462690 148.6696080 136.8869070  58.6558800
 147.7478780 135.7131670  58.4016560 143.4106900 127.7851740  53.1892080
 142.5971510 127.2864910  53.1137390 143.2168850 128.6249990  52.7728430
 143.3315760 136.4622840  64.9331690 143.2653070 135.5418510  64.6789280
 142.7020900 136.5598280  65.6476330 146.1255290 132.1571390  51.4854240
 147.0134910 132.4688620  51.3105580 146.0960380 131.2843640  51.0934820
 137.2346380 137.0628800  56.8915110 137.7525050 136.2597060  56.8372000
 136.7830400 137.0007940  57.7331940 142.1215880 138.3295080  52.1642410
 142.4631580 139.0737310  51.6685730 141.2928590 138.6426200  52.5267240
 134.7190920 134.0290170  63.8040810 134.3605860 134.6944020  64.3914150
 134.4245480 133.1973720  64.1753430 137.9204040 134.4874410  66.6880360
 137.6204180 134.6331590  65.7908180 138.6915280 133.9279700  66.5953750
 143.2632490 139.2843410  64.6835490 143.2777030 138.3524370  64.4654400
 142.5557590 139.3703170  65.3225260 148.3969560 133.4683230  50.9534100
 148.3133280 133.8997450  50.1030540 149.1163750 133.9281580  51.3860920
 149.4743700 135.9250750  64.0304070 148.7491890 136.5179530  63.8333460
 150.0019160 135.9174290  63.2317440 149.4256810 140.3225490  53.6816230
 148.7832970 139.6681110  53.9559950 149.0387470 140.7280580  52.9056900
 145.0043290 137.6510920  57.5287920 145.3567110 137.0539050  56.8689290
 144.1205620 137.3255150  57.6996170 141.0906570 138.4108610  54.9358330
 141.7777700 138.9577820  55.3165920 140.3038990 138.9549340  54.9707940
 133.2298970 134.0281430  50.4275410 134.0993820 134.3106230  50.7111330
 132.7389290 134.8417300  50.3124220 140.3933780 135.4154640  54.5483690
 140.8496560 136.2259890  54.7743880 140.0421990 135.0977780  55.3802180
 142.6966390 140.9260980  61.7775990 143.3408610 141.1320360  62.4549410
 143.0595830 140.1649380  61.3246840 136.2945560 125.7592290  55.0206210
 136.1660190 125.7510190  55.9691130 135.4707580 126.0975380  54.6697220
 143.9698470 138.9293330  60.4953440 144.6120700 138.2286490  60.6085610
 144.4947820 139.7091770  60.3150330 147.8154190 139.2141950  50.2192580
 147.5891770 138.4972390  50.8117220 147.4250390 138.9654390  49.3814330
 145.7436090 139.7288230  63.6989500 146.0792330 140.3154920  64.3767420
 144.8236430 139.5980940  63.9287290 133.5970220 143.2408810  50.9937040
 133.9567860 143.8398150  50.3394310 133.4562560 143.7868700  51.7672070
 133.2939490 127.5183410  64.4812910 132.5798010 127.7180330  65.0865520
 133.7134530 126.7422980  64.8527710 147.3970440 137.1313890  51.8806740
 147.1092140 137.5926580  52.6684620 148.1922610 136.6711660  52.1490960
 133.5812080 141.5063670  65.4679440 133.6903200 140.5658410  65.3274830
 132.9292640 141.7718420  64.8193170 141.5724670 139.7779560  66.8677560
 141.2521540 139.0588800  67.4123250 140.8983030 140.4534630  66.9413620
 139.6138840 140.6240010  51.8110710 139.6048940 141.3569700  51.1955220
 138.6937200 140.3771590  51.9037670 135.2145480 135.8454900  52.5557470
 134.6073430 136.5853800  52.5652770 135.6894830 135.9354260  51.7295670
 144.7878270 130.0105720  62.2314360 145.1559090 129.1900930  62.5593930
 143.9276470 130.0707610  62.6470010 148.1540300 128.9662660  53.0401920
 147.5253460 129.0708330  52.3260150 147.6592220 129.1859440  53.8295800
 142.5998440 140.6868250  50.4735900 142.7010420 140.4832240  49.5437880
 141.7000180 140.4326530  50.6783680 140.1224330 131.2448610  54.4559800
 139.4140480 131.7134950  54.8973410 140.4068810 130.5870620  55.0904990
 141.7480260 132.6645310  62.4552330 142.2465510 133.1391130  63.1204180
 141.8903210 131.7408830  62.6622360 144.1539760 127.9699270  55.8955590
 144.0307540 127.9885400  54.9465100 145.1024320 128.0178210  56.0153990
 141.2416550 143.2054570  55.1683570 141.4958050 143.1675960  54.2462940
 140.2929030 143.0787900  55.1611820 138.3259350 129.5533690  51.8310510
 139.1749880 129.9903840  51.7650700 137.9590620 129.8653950  52.6582570
 148.9547120 128.8813270  63.2980720 148.4520720 129.6218670  63.6374530
 149.7703780 129.2697270  62.9817510 147.2469130 134.1246450  56.7442080
 146.3059270 134.1396680  56.9189770 147.5613200 133.3382410  57.1902380
 137.2250770 135.8066050  50.3046040 137.9914040 135.6947410  50.8671470
 137.3025460 135.1104020  49.6522810 135.9197530 133.2391120  50.9878930
 136.0001120 132.2918630  51.0996330 136.8117280 133.5698000  51.0939590
 149.2494710 141.2955300  58.4196340 149.3742130 142.1186470  58.8920150
 150.1160270 141.0846030  58.0720490 136.7212240 143.3886510  58.0913470
 137.4574720 142.8401970  58.3622040 137.1053160 144.2542520  57.9519460
 133.6057720 139.4560080  53.9654980 132.6797500 139.6981220  53.9560390
 134.0714150 140.2834340  53.8439730 135.7270520 142.5732580  67.2799050
 136.5283250 142.8944630  67.6934450 135.2122340 142.2128160  68.0018960
 139.8314550 142.5616820  49.9139040 140.6243160 142.8505650  49.4620830
 139.3118900 142.1308990  49.2351520 144.5635150 138.6812450  67.2274460
 143.9573310 138.7044050  66.4870210 144.2589260 137.9495490  67.7641710
 145.9935520 142.4092740  65.8383870 146.9457270 142.3250760  65.7884110
 145.8463740 143.0734450  66.5117660 148.8844720 141.7886950  51.3375780
 148.5986230 141.3752090  50.5229960 148.6864270 142.7174660  51.2176300
 133.4468330 135.0606040  66.2235100 133.9507350 134.4813320  66.7951330
 132.7075750 135.3446270  66.7611470 140.3491950 137.7820230  49.7781390
 140.2442590 137.1672580  50.5042770 140.1816170 137.2586120  48.9944400
 140.5006270 136.4677030  65.7570620 139.7351940 137.0362030  65.6725290
 140.6822230 136.1753240  64.8638850 143.5894680 136.8440260  50.3823380
 143.0404780 137.2909560  51.0266120 144.2113940 136.3389510  50.9061050
 147.6429620 138.1982360  66.3145640 148.3839090 138.5358120  65.8113100
 146.8802300 138.3674420  65.7615410 135.4791410 133.2035630  67.1185170
 135.5196750 132.9049500  68.0270400 136.3336910 133.6043240  66.9592690
 139.2569800 135.8031180  52.2788680 139.6786220 135.6371050  53.1220070
 139.3820640 134.9931410  51.7843820 137.4197220 131.7827730  65.0859660
 136.8893680 131.2918680  64.4583000 138.0885290 132.2111930  64.5517590
 141.7697440 134.8268790  49.5265780 142.2903100 134.1117810  49.1606930
 142.4165840 135.4654660  49.8266290 146.3175280 136.2497190  64.8500850
 146.7316300 136.4042270  65.6991270 145.3826280 136.3752410  65.0126630
 146.7897450 133.5893350  66.8540000 147.3718220 132.8345670  66.7660480
 146.9659220 134.1200790  66.0771480 137.9069520 128.7490100  65.1656950
 137.8126390 128.1310850  64.4407820 137.3266910 129.4756390  64.9386860
 140.6730960 127.3063340  62.1984340 140.2248260 127.3287600  61.3529890
 140.0396160 126.9082360  62.7954640 141.0790510 136.2017670  62.8196780
 141.4978620 137.0450400  62.6473020 140.1599140 136.3389710  62.5903560
 143.4154410 133.9333850  64.2034620 143.5350620 133.3374990  64.9429460
 144.2748410 133.9703540  63.7835920 145.7542310 134.4871040  62.7797130
 145.2277530 135.0113660  62.1762270 146.0973650 135.1198430  63.4106860
 138.1528700 131.8764410  49.2246840 137.9517760 131.0131770  49.5860180
 137.9820750 131.7897770  48.2868440 138.9297930 142.5070680  63.9354510
 138.3919020 143.2316740  63.6163210 139.1831890 142.0301020  63.1451850
 140.1823180 130.4755200  65.4610440 140.7722870 130.1671050  66.1488260
 139.3643420 130.0034950  65.6170340 145.0016610 130.0921010  65.6943460
 144.3132130 129.4302550  65.6293450 145.7222630 129.6459280  66.1391920
 145.6317010 126.6872640  51.7533720 145.9119300 125.8440540  52.1093140
 144.8582740 126.9195750  52.2672470 136.9511500 128.9765030  49.2124720
 137.2537400 128.9832460  48.3043870 137.6906090 128.6262890  49.7092380
 141.7860140 143.7421890  64.1941160 141.7118840 144.6457030  64.5013530
 140.8838980 143.4233790  64.1663230 140.1696430 127.9199650  50.1980920
 139.8218430 127.2423640  49.6183370 140.3709200 127.4589160  51.0124310
 142.3345470 142.9080400  51.8167520 143.2296260 143.2465370  51.8386280
 142.3663100 142.1859810  51.1891800 135.9741630 138.2807450  50.0454520
 136.4116500 138.8237120  50.7012100 136.4589360 137.4554400  50.0550860
 133.1887430 141.0696480  57.4974780 133.5190440 140.2017540  57.2653420
 133.6178430 141.2755000  58.3279740 137.7849350 139.4005490  55.1576750
 137.4844890 139.2770460  56.0580660 137.6786840 138.5414080  54.7492480
 133.6777640 141.9367070  60.2356410 133.2408630 142.1167870  61.0680560
 134.2455320 142.6941690  60.0938130 149.3139820 141.4384070  64.5233720
 148.7141810 141.4976630  63.7797640 149.4433720 140.4989050  64.6530570
 133.5102070 134.4487300  56.5945290 132.8550910 134.1798940  55.9504990
 134.3480020 134.3391780  56.1447270 147.9991460 138.1636050  62.6209880
 147.1851300 138.5933210  62.8835670 148.4065660 138.7754460  62.0078930
 150.0616900 136.2183740  49.5210150 150.3365740 137.1262620  49.3929370
 149.8727640 136.1546270  50.4572140 146.4592510 129.2428590  50.8163780
 146.8777390 129.0559570  49.9760440 146.1528570 128.3907640  51.1266710
 149.9582240 134.1552730  54.5139580 149.5825840 133.3880660  54.0820870
 149.2285360 134.5375430  55.0014510 134.5478000 134.8339870  61.1348630
 134.9151040 134.7467270  62.0144650 133.9788820 134.0706420  61.0355490
 149.3481860 133.3024250  64.1479100 149.1167950 133.0737000  63.2477050
 149.6086410 134.2223800  64.1023990 134.0994000 131.7448960  65.0407050
 133.2050050 131.7115720  65.3800760 134.6391550 131.9435750  65.8058300
 147.7869930 128.5280680  66.9258800 148.6640110 128.5364080  67.3092800
 147.7990770 127.7911520  66.3151150 132.7240150 131.6586230  52.5370620
 131.8204230 131.9216430  52.3622280 133.2080770 131.9297400  51.7570580
 149.2333200 132.3810220  57.8146820 149.7570680 131.8872870  57.1836990
 149.8192620 132.5160580  58.5594390 149.4122920 132.4650090  61.3366370
 148.4625630 132.4313630  61.4511360 149.5935930 133.3750200  61.1016140
 135.2667360 130.7151770  50.4465000 135.9759060 130.2934990  49.9612280
 134.5507300 130.7827000  49.8148350 134.9141520 126.7691100  49.4867650
 135.6369650 127.3100040  49.8048870 135.1866040 126.4954520  48.6109190
 148.7233170 131.6383570  53.7539230 149.2192290 131.4054440  54.5388110
 148.5249240 130.7995410  53.3376870 134.6033710 126.0197290  59.3890270
 135.2509900 125.4694670  58.9485430 135.0235550 126.2740440  60.2106080
 148.4986050 126.2138650  62.7459910 149.1358270 126.8272790  63.1119100
 148.6460940 126.2499310  61.8009140 148.0567510 142.9154650  56.1478150
 148.6526580 142.5939220  55.4712570 148.3145660 142.4426470  56.9391420
 134.3565710 126.1752960  62.1315590 134.0080530 126.6316780  62.8973770
 134.0253410 125.2810090  62.2138020 135.9630080 139.3472560  66.2968780
 135.9199710 138.9765470  67.1783240 136.0941090 140.2850130  66.4370600
 139.6636110 140.9032150  61.8978500 139.4227470 141.1706710  61.0109020
 140.6038750 141.0737880  61.9529360 141.8690530 127.3664840  65.6535010
 141.8079420 127.9586670  66.4030420 142.8090910 127.2590800  65.5085270
 144.5065090 127.0234900  65.2927300 145.1205500 127.3414190  64.6308380
 145.0514650 126.5383490  65.9123160 135.0286350 125.7029160  65.4066360
 135.5769340 125.5217210  64.6432470 135.0941660 124.9123270  65.9422670
 135.8018110 142.2934810  63.4166560 135.2078430 142.1619510  64.1556600
 135.7941950 141.4572950  62.9508660 145.2473130 125.5867040  61.6196590
 144.3732970 125.9202150  61.4169520 145.1383880 125.1140220  62.4448460
 146.1545110 127.7937910  63.0038310 145.8258470 126.9789670  62.6240040
 147.1027410 127.7507720  62.8804000 148.6079720 143.5649950  59.9775880
 148.1482690 144.3165760  59.6033900 147.9792180 142.8456420  59.9190680
 135.4330340 139.6593190  62.3674600 134.7064400 139.0398480  62.3000550
 135.4939490 140.0533800  61.4972680 139.0375440 141.8738190  59.1524010
 139.5540460 141.2625550  58.6272270 139.6872820 142.3766970  59.6435020
 141.7770940 142.7646680  59.9792990 142.0648750 142.5100980  59.1026000
 142.2894160 142.2124040  60.5698560 142.9947950 126.5036880  60.5589500
 142.2119740 126.9782380  60.8386260 142.7010880 125.5991710  60.4502680
 147.5469020 127.2059980  58.6038590 147.9877110 127.1505080  57.7560190
 147.2776610 128.1217990  58.6748770 149.4107590 126.8375220  56.6147410
 149.3495990 125.8936440  56.4678430 150.1899620 126.9455310  57.1600870
 133.7160340 142.9767580  55.5771360 133.5482380 142.3438260  56.2753250
 132.8494850 143.1826980  55.2265550 134.3388360 126.8084360  53.0803220
 135.0967720 126.9213240  52.5067250 133.8765530 127.6453560  53.0346650
 140.8802170 128.9223630  56.0705530 140.0676680 128.5480520  55.7301410
 141.3843810 128.1668710  56.3726720 145.3827150 125.5866080  57.3088600
 145.9856520 126.1586290  57.7837120 144.6420140 126.1505520  57.0862500
 148.5261750 125.9887640  52.5828880 148.7212380 126.8871090  52.8496310
 147.7391620 125.7574720  53.0761830 135.3223040 141.6700810  53.0221500
 134.7970660 142.0508840  52.3183460 135.2467620 142.2951580  53.7431210
 136.7113510 127.3348410  51.6205190 137.2406270 126.5478210  51.4913140
 137.3441830 128.0139600  51.8540720 138.9051350 127.0723550  54.6750580
 138.2754090 126.3710860  54.8420710 138.3656490 127.8327680  54.4583740
 141.8443300 143.6862780  67.3461190 142.7710610 143.4507050  67.3897150
 141.8293730 144.5134780  66.8647220 150.0788360 143.2288350  54.3435440
 150.2540550 142.5426090  53.6996360 149.3809930 143.7535400  53.9512110
 139.0306910 126.3507530  67.1103070 138.7491180 126.8541130  66.3463890
 139.4126610 125.5529280  66.7445200 137.9216010 143.6183190  51.8970750
 138.6534830 143.3342470  51.3494640 138.1809680 143.3796470  52.7870130
 137.0830800 139.7347920  51.9017080 136.4539680 140.2033020  52.4502910
 137.1978630 138.8897140  52.3363270 145.6322370 125.7661110  67.6883540
 145.5187820 126.0855720  68.5835060 146.4492110 126.1673620  67.3920820
 148.4120860 142.9132640  67.1702230 149.2046180 142.4181870  66.9628190
 148.7054010 143.5922780  67.7777840 144.5380520 133.7853580  38.0518280
 144.4574570 132.8708190  37.7809990 144.1244940 134.2820650  37.3457990
 142.6698560 135.5632600  39.9327550 141.8940660 135.0833040  40.2226120
 143.3211490 134.8838250  39.7583710 136.6864390 135.8752410  40.8103310
 135.8549270 135.6201120  41.2099820 137.2945370 135.9463180  41.5461230
 146.6905990 139.9692790  38.7126680 146.2287520 139.1980030  39.0413850
 147.5031540 139.9958860  39.2179130 136.6665650 139.9092500  41.0061330
 136.9693690 139.0190240  40.8271550 137.4109240 140.4662720  40.7783580
 135.0956340 130.8354300  34.5945700 134.2073040 131.1770270  34.4925580
 135.3797530 130.6354620  33.7026530 133.0589350 133.4359950  40.4785400
 133.6305460 132.6682150  40.4789040 133.0590890 133.7348710  39.5692010
 142.9169300 142.2550800  38.3330670 142.2980740 142.7108300  37.7625110
 143.7721080 142.4102260  37.9320370 142.1107550 138.2389790  39.9397710
 142.0415830 137.2979730  39.7786840 142.8727410 138.3291200  40.5120280
 134.3014220 128.8444310  42.2654330 134.1217060 127.9470060  42.5457090
 133.8994300 129.3916180  42.9401280 143.1412720 131.0460170  40.1666640
 143.5177540 130.1732050  40.0540310 143.0432230 131.3818870  39.2757080
 137.2717730 129.4185800  35.6284080 137.3784480 130.3189530  35.9352840
 136.3610090 129.3703770  35.3378730 146.9236840 128.5410610  37.0994980
 147.7446460 128.0507180  37.1420460 146.9570920 129.1308270  37.8526820
 134.9200890 131.3404810  40.8736670 135.6011000 131.6043180  41.4924070
 134.6048940 130.5005680  41.2074680 139.1125460 132.3872170  39.9609260
 139.6203680 132.8853140  40.6014280 139.6438700 131.6107370  39.7848620
 137.3961560 127.0270730  44.2272680 137.3980000 127.5443120  43.4218580
 136.5665870 126.5500910  44.2042610 143.7832650 137.1390040  35.7262580
 143.1649920 137.6039490  35.1625300 144.2955900 137.8317520  36.1432090
 138.6464410 136.6665910  42.4046180 138.3133790 137.2934830  43.0467250
 138.8231090 137.1927790  41.6247850 147.1598320 130.4810990  39.8722520
 146.4553890 130.7695880  40.4525630 147.5210480 131.2911100  39.5122080
 137.0776890 128.7380690  42.2343130 137.4193700 129.5822740  41.9397000
 136.1392700 128.8864430  42.3508470 137.8583510 138.6346710  44.2195360
 138.4757510 139.3097790  43.9379810 136.9976630 139.0434690  44.1282860
 133.1515850 137.8246570  33.1002210 132.7743830 138.3133670  32.3687110
 133.4088920 138.4971850  33.7308740 148.7761100 140.0986120  42.1350000
 148.0924620 140.7685230  42.1266670 149.3155390 140.2966770  41.3694860
 140.7604780 126.2262960  38.5587720 141.0679760 125.6709850  37.8423220
 139.8305480 126.3607420  38.3760710 146.3119840 141.9430250  40.8495180
 146.3247000 141.5392540  39.9817440 145.7595060 142.7177540  40.7456610
 147.6065260 138.6646470  35.9385350 147.4961590 137.7220800  36.0634770
 147.6033510 139.0262110  36.8248110 145.7105280 136.8460090  42.1777790
 146.1274070 136.6320200  41.3431250 146.4345100 137.1032880  42.7486410
 143.1485540 134.2911790  35.2947840 142.2214820 134.2249170  35.5236310
 143.3010360 135.2291920  35.1803080 143.1354620 130.5628790  32.2915000
 142.1958290 130.7242750  32.3767460 143.4537880 131.2814470  31.7450990
 149.6567380 135.2447310  42.2694030 148.8286010 135.3140400  41.7944160
 150.2517860 135.8301620  41.8009860 147.1782830 135.8532090  35.7983090
 146.5595250 135.5151640  35.1509390 147.1607280 135.2091850  36.5062280
 146.6209390 132.0316630  43.2148900 146.2080570 132.8570340  43.4688890
 145.8885340 131.4461670  43.0225260 138.7542180 134.8176530  38.0767570
 138.3499180 134.1053780  37.5813470 138.8405300 134.4729770  38.9655610
 139.2223880 138.5044090  40.2406780 138.9252170 137.8989560  39.5614560
 140.1723700 138.5421400  40.1296140 137.4670800 131.5919740  41.8566610
 138.0185390 131.7015080  41.0819860 137.9814310 131.9657340  42.5721840
 147.3109490 142.0775960  43.9029880 146.8340050 142.8848150  43.7102490
 146.6271280 141.4254290  44.0556090 138.3142310 138.2425780  46.8914580
 137.4170840 138.4665750  47.1387980 138.3395180 138.3660720  45.9425980
 145.3547530 135.0918900  32.8055840 145.7940810 134.2541330  32.6593660
 146.0675950 135.7248300  32.8919980 137.1413530 135.1139100  45.4671950
 137.0021300 135.9861900  45.8359350 136.2594890 134.7711910  45.3219890
 143.4642910 140.0314970  36.7737080 143.9038820 140.7739300  36.3592470
 143.4029800 140.2741540  37.6976040 138.9393880 141.0560800  47.6757100
 138.9109310 141.4603750  46.8085530 138.7758850 140.1271160  47.5128700
 148.9364670 126.3461710  31.1196880 148.6237330 126.4388540  32.0195950
 149.6977140 126.9242740  31.0694310 135.4546810 133.7121510  35.5774220
 135.3344410 134.4383600  34.9655490 135.1447700 132.9424420  35.1002130
 133.0932180 136.8836650  41.3842860 133.1712600 137.0185420  40.4398580
 133.7073860 136.1752540  41.5770980 134.3379810 138.5836840  37.7949040
 133.9307890 138.7251430  36.9402640 135.2292820 138.2997000  37.5920250
 150.2941950 139.0300750  46.1321280 150.4205010 138.7912630  45.2138460
 150.3363330 138.1985290  46.6043360 144.1558690 142.7328750  44.7016090
 144.6703360 142.6436760  45.5038520 143.3127770 143.0788450  44.9944000
 146.1313090 143.0184090  34.1300090 145.9714230 142.7287030  35.0281920
 145.9659800 142.2424220  33.5945320 138.6101470 142.7982620  35.9071710
 138.4343950 141.8818160  35.6939510 137.7557210 143.1569910  36.1469510
 145.8339220 140.5271650  32.6898090 145.1404380 140.5248940  32.0300370
 146.5762080 140.1030970  32.2592260 145.3989150 142.1534360  36.7646580
 145.8546100 141.3723740  37.0785200 145.7381670 142.8641180  37.3087760
 150.1465960 131.0833210  47.0971020 149.5310230 131.5912880  46.5686480
 149.8262380 130.1831540  47.0396960 133.1491700 137.9250820  43.9237320
 133.3122740 137.4556180  43.1056690 133.6144150 137.4174380  44.5886160
 137.9210470 127.0556580  38.9597890 137.4778620 127.8366120  38.6282410
 138.4795460 127.3786470  39.6668830 142.2080280 129.9225100  44.5633210
 141.7459650 130.1308120  45.3753150 141.8058390 129.1084450  44.2603880
 147.2084790 131.1434050  45.6929870 146.3578380 130.8439800  46.0138940
 147.0486580 131.3876060  44.7813690 144.3034500 132.6435800  47.7928660
 144.6287910 131.8099550  47.4530890 145.0914830 133.1664320  47.9406990
 141.0369290 126.6767280  33.8403720 140.4123470 126.6727150  34.5657030
 140.9499410 125.8098240  33.4439690 139.9586370 127.6003910  40.8187490
 140.2558700 128.5066740  40.7379510 140.5071930 127.1122690  40.2047060
 137.7124690 132.1790150  36.6879140 137.4865610 131.9627320  37.5925760
 136.9317220 132.6118610  36.3425110 144.9422450 132.1853520  35.2869790
 144.3431340 132.9089320  35.1033410 145.4902060 132.1230300  34.5046240
 140.1523900 133.0775730  47.3539410 140.0567500 132.1370460  47.2039810
 140.9955880 133.2990800  46.9587480 143.5487320 130.8217060  37.3173070
 143.9416890 131.1389260  36.5041760 143.9104170 129.9428940  37.4317590
 135.2834440 129.4889400  45.5073190 134.8897830 130.3364610  45.7145970
 134.5952840 128.8515770  45.6981830 141.8579490 129.5724370  48.5769930
 141.1677810 129.3796570  49.2116020 142.6011790 129.8559010  49.1094230
 132.5851490 127.4117860  39.5403270 132.2964540 127.9820720  40.2528250
 133.3297250 126.9322310  39.9034500 132.7721720 131.3537980  30.7505990
 132.6896390 132.2968740  30.8920980 132.4204780 131.2112890  29.8718340
 144.1342460 133.4122810  41.4123850 143.4023580 133.9209620  41.7613950
 143.7366800 132.5952790  41.1112630 140.5719850 130.0877010  39.8176340
 140.5755910 129.6466960  38.9680880 141.4670970 130.4094340  39.9248160
 136.4222230 129.9703500  38.7770550 136.0822280 130.4478730  39.5337600
 135.6599550 129.5168620  38.4171650 140.6340000 131.0889090  32.8083100
 140.7552820 131.0475570  33.7568920 140.2488510 131.9513240  32.6529830
 144.5968370 128.8656490  40.8246790 144.6141110 129.3165140  41.6688640
 144.3483950 127.9662130  41.0380230 139.6461500 133.3990230  32.2066400
 139.0778400 132.9508480  31.5802310 140.3550500 133.7583010  31.6731550
 148.0239120 126.2788670  46.6633170 148.3484890 125.5478330  47.1891150
 148.0595630 125.9602310  45.7614160 134.7230680 137.3002250  46.0833130
 134.3385470 136.6595920  46.6816090 135.0342870 138.0038370  46.6527860
 140.8727820 134.1478790  41.5641750 141.2397950 133.6737360  42.3103090
 140.6832880 135.0220360  41.9050090 133.7368310 128.8922480  37.6935220
 133.4515230 128.5278150  38.5313840 133.6747170 128.1602940  37.0798360
 138.6627190 133.1887430  43.8825960 138.3584260 134.0679410  44.1076320
 139.6173650 133.2487220  43.9183400 137.1908980 137.3948420  34.4792810
 136.4171240 136.8546040  34.3191530 137.9203610 136.8755030  34.1410570
 147.9496960 136.3913780  40.2719200 148.6696080 136.8869070  39.8815310
 147.7478780 135.7131670  39.6273070 143.4106900 127.7851740  34.4148590
 142.5971510 127.2864910  34.3393900 143.2168850 128.6249990  33.9984940
 143.3315760 136.4622840  46.1588200 143.2653070 135.5418510  45.9045790
 142.7020900 136.5598280  46.8732840 146.1255290 132.1571390  32.7110750
 147.0134910 132.4688620  32.5362090 146.0960380 131.2843640  32.3191330
 137.2346380 137.0628800  38.1171620 137.7525050 136.2597060  38.0628510
 136.7830400 137.0007940  38.9588450 142.1215880 138.3295080  33.3898920
 142.4631580 139.0737310  32.8942240 141.2928590 138.6426200  33.7523750
 134.7190920 134.0290170  45.0297320 134.3605860 134.6944020  45.6170660
 134.4245480 133.1973720  45.4009940 137.9204040 134.4874410  47.9136870
 137.6204180 134.6331590  47.0164690 138.6915280 133.9279700  47.8210260
 143.2632490 139.2843410  45.9092000 143.2777030 138.3524370  45.6910910
 142.5557590 139.3703170  46.5481770 148.3969560 133.4683230  32.1790610
 148.3133280 133.8997450  31.3287050 149.1163750 133.9281580  32.6117430
 149.4743700 135.9250750  45.2560580 148.7491890 136.5179530  45.0589970
 150.0019160 135.9174290  44.4573950 149.4256810 140.3225490  34.9072740
 148.7832970 139.6681110  35.1816460 149.0387470 140.7280580  34.1313410
 145.0043290 137.6510920  38.7544430 145.3567110 137.0539050  38.0945800
 144.1205620 137.3255150  38.9252680 141.0906570 138.4108610  36.1614840
 141.7777700 138.9577820  36.5422430 140.3038990 138.9549340  36.1964450
 133.2298970 134.0281430  31.6531920 134.0993820 134.3106230  31.9367840
 132.7389290 134.8417300  31.5380730 140.3933780 135.4154640  35.7740200
 140.8496560 136.2259890  36.0000390 140.0421990 135.0977780  36.6058690
 142.6966390 140.9260980  43.0032500 143.3408610 141.1320360  43.6805920
 143.0595830 140.1649380  42.5503350 136.2945560 125.7592290  36.2462720
 136.1660190 125.7510190  37.1947640 135.4707580 126.0975380  35.8953730
 143.9698470 138.9293330  41.7209950 144.6120700 138.2286490  41.8342120
 144.4947820 139.7091770  41.5406840 147.8154190 139.2141950  31.4449090
 147.5891770 138.4972390  32.0373730 147.4250390 138.9654390  30.6070840
 145.7436090 139.7288230  44.9246010 146.0792330 140.3154920  45.6023930
 144.8236430 139.5980940  45.1543800 133.5970220 143.2408810  32.2193550
 133.9567860 143.8398150  31.5650820 133.4562560 143.7868700  32.9928580
 133.2939490 127.5183410  45.7069420 132.5798010 127.7180330  46.3122030
 133.7134530 126.7422980  46.0784220 147.3970440 137.1313890  33.1063250
 147.1092140 137.5926580  33.8941130 148.1922610 136.6711660  33.3747470
 133.5812080 141.5063670  46.6935950 133.6903200 140.5658410  46.5531340
 132.9292640 141.7718420  46.0449680 141.5724670 139.7779560  48.0934070
 141.2521540 139.0588800  48.6379760 140.8983030 140.4534630  48.1670130
 139.6138840 140.6240010  33.0367220 139.6048940 141.3569700  32.4211730
 138.6937200 140.3771590  33.1294180 135.2145480 135.8454900  33.7813980
 134.6073430 136.5853800  33.7909280 135.6894830 135.9354260  32.9552180
 144.7878270 130.0105720  43.4570870 145.1559090 129.1900930  43.7850440
 143.9276470 130.0707610  43.8726520 148.1540300 128.9662660  34.2658430
 147.5253460 129.0708330  33.5516660 147.6592220 129.1859440  35.0552310
 142.5998440 140.6868250  31.6992410 142.7010420 140.4832240  30.7694390
 141.7000180 140.4326530  31.9040190 140.1224330 131.2448610  35.6816310
 139.4140480 131.7134950  36.1229920 140.4068810 130.5870620  36.3161500
 141.7480260 132.6645310  43.6808840 142.2465510 133.1391130  44.3460690
 141.8903210 131.7408830  43.8878870 144.1539760 127.9699270  37.1212100
 144.0307540 127.9885400  36.1721610 145.1024320 128.0178210  37.2410500
 141.2416550 143.2054570  36.3940080 141.4958050 143.1675960  35.4719450
 140.2929030 143.0787900  36.3868330 138.3259350 129.5533690  33.0567020
 139.1749880 129.9903840  32.9907210 137.9590620 129.8653950  33.8839080
 148.9547120 128.8813270  44.5237230 148.4520720 129.6218670  44.8631040
 149.7703780 129.2697270  44.2074020 147.2469130 134.1246450  37.9698590
 146.3059270 134.1396680  38.1446280 147.5613200 133.3382410  38.4158890
 137.2250770 135.8066050  31.5302550 137.9914040 135.6947410  32.0927980
 137.3025460 135.1104020  30.8779320 135.9197530 133.2391120  32.2135440
 136.0001120 132.2918630  32.3252840 136.8117280 133.5698000  32.3196100
 149.2494710 141.2955300  39.6452850 149.3742130 142.1186470  40.1176660
 150.1160270 141.0846030  39.2977000 136.7212240 143.3886510  39.3169980
 137.4574720 142.8401970  39.5878550 137.1053160 144.2542520  39.1775970
 133.6057720 139.4560080  35.1911490 132.6797500 139.6981220  35.1816900
 134.0714150 140.2834340  35.0696240 135.7270520 142.5732580  48.5055560
 136.5283250 142.8944630  48.9190960 135.2122340 142.2128160  49.2275470
 139.8314550 142.5616820  31.1395550 140.6243160 142.8505650  30.6877340
 139.3118900 142.1308990  30.4608030 144.5635150 138.6812450  48.4530970
 143.9573310 138.7044050  47.7126720 144.2589260 137.9495490  48.9898220
 145.9935520 142.4092740  47.0640380 146.9457270 142.3250760  47.0140620
 145.8463740 143.0734450  47.7374170 148.8844720 141.7886950  32.5632290
 148.5986230 141.3752090  31.7486470 148.6864270 142.7174660  32.4432810
 133.4468330 135.0606040  47.4491610 133.9507350 134.4813320  48.0207840
 132.7075750 135.3446270  47.9867980 140.3491950 137.7820230  31.0037900
 140.2442590 137.1672580  31.7299280 140.1816170 137.2586120  30.2200910
 140.5006270 136.4677030  46.9827130 139.7351940 137.0362030  46.8981800
 140.6822230 136.1753240  46.0895360 143.5894680 136.8440260  31.6079890
 143.0404780 137.2909560  32.2522630 144.2113940 136.3389510  32.1317560
 147.6429620 138.1982360  47.5402150 148.3839090 138.5358120  47.0369610
 146.8802300 138.3674420  46.9871920 135.4791410 133.2035630  48.3441680
 135.5196750 132.9049500  49.2526910 136.3336910 133.6043240  48.1849200
 139.2569800 135.8031180  33.5045190 139.6786220 135.6371050  34.3476580
 139.3820640 134.9931410  33.0100330 137.4197220 131.7827730  46.3116170
 136.8893680 131.2918680  45.6839510 138.0885290 132.2111930  45.7774100
 141.7697440 134.8268790  30.7522290 142.2903100 134.1117810  30.3863440
 142.4165840 135.4654660  31.0522800 146.3175280 136.2497190  46.0757360
 146.7316300 136.4042270  46.9247780 145.3826280 136.3752410  46.2383140
 146.7897450 133.5893350  48.0796510 147.3718220 132.8345670  47.9916990
 146.9659220 134.1200790  47.3027990 137.9069520 128.7490100  46.3913460
 137.8126390 128.1310850  45.6664330 137.3266910 129.4756390  46.1643370
 140.6730960 127.3063340  43.4240850 140.2248260 127.3287600  42.5786400
 140.0396160 126.9082360  44.0211150 141.0790510 136.2017670  44.0453290
 141.4978620 137.0450400  43.8729530 140.1599140 136.3389710  43.8160070
 143.4154410 133.9333850  45.4291130 143.5350620 133.3374990  46.1685970
 144.2748410 133.9703540  45.0092430 145.7542310 134.4871040  44.0053640
 145.2277530 135.0113660  43.4018780 146.0973650 135.1198430  44.6363370
 138.1528700 131.8764410  30.4503350 137.9517760 131.0131770  30.8116690
 137.9820750 131.7897770  29.5124950 138.9297930 142.5070680  45.1611020
 138.3919020 143.2316740  44.8419720 139.1831890 142.0301020  44.3708360
 140.1823180 130.4755200  46.6866950 140.7722870 130.1671050  47.3744770
 139.3643420 130.0034950  46.8426850 145.0016610 130.0921010  46.9199970
 144.3132130 129.4302550  46.8549960 145.7222630 129.6459280  47.3648430
 145.6317010 126.6872640  32.9790230 145.9119300 125.8440540  33.3349650
 144.8582740 126.9195750  33.4928980 136.9511500 128.9765030  30.4381230
 137.2537400 128.9832460  29.5300380 137.6906090 128.6262890  30.9348890
 141.7860140 143.7421890  45.4197670 141.7118840 144.6457030  45.7270040
 140.8838980 143.4233790  45.3919740 140.1696430 127.9199650  31.4237430
 139.8218430 127.2423640  30.8439880 140.3709200 127.4589160  32.2380820
 142.3345470 142.9080400  33.0424030 143.2296260 143.2465370  33.0642790
 142.3663100 142.1859810  32.4148310 135.9741630 138.2807450  31.2711030
 136.4116500 138.8237120  31.9268610 136.4589360 137.4554400  31.2807370
 133.1887430 141.0696480  38.7231290 133.5190440 140.2017540  38.4909930
 133.6178430 141.2755000  39.5536250 137.7849350 139.4005490  36.3833260
 137.4844890 139.2770460  37.2837170 137.6786840 138.5414080  35.9748990
 133.6777640 141.9367070  41.4612920 133.2408630 142.1167870  42.2937070
 134.2455320 142.6941690  41.3194640 149.3139820 141.4384070  45.7490230
 148.7141810 141.4976630  45.0054150 149.4433720 140.4989050  45.8787080
 133.5102070 134.4487300  37.8201800 132.8550910 134.1798940  37.1761500
 134.3480020 134.3391780  37.3703780 147.9991460 138.1636050  43.8466390
 147.1851300 138.5933210  44.1092180 148.4065660 138.7754460  43.2335440
 150.0616900 136.2183740  30.7466660 150.3365740 137.1262620  30.6185880
 149.8727640 136.1546270  31.6828650 146.4592510 129.2428590  32.0420290
 146.8777390 129.0559570  31.2016950 146.1528570 128.3907640  32.3523220
 149.9582240 134.1552730  35.7396090 149.5825840 133.3880660  35.3077380
 149.2285360 134.5375430  36.2271020 134.5478000 134.8339870  42.3605140
 134.9151040 134.7467270  43.2401160 133.9788820 134.0706420  42.2612000
 149.3481860 133.3024250  45.3735610 149.1167950 133.0737000  44.4733560
 149.6086410 134.2223800  45.3280500 134.0994000 131.7448960  46.2663560
 133.2050050 131.7115720  46.6057270 134.6391550 131.9435750  47.0314810
 147.7869930 128.5280680  48.1515310 148.6640110 128.5364080  48.5349310
 147.7990770 127.7911520  47.5407660 132.7240150 131.6586230  33.7627130
 131.8204230 131.9216430  33.5878790 133.2080770 131.9297400  32.9827090
 149.2333200 132.3810220  39.0403330 149.7570680 131.8872870  38.4093500
 149.8192620 132.5160580  39.7850900 149.4122920 132.4650090  42.5622880
 148.4625630 132.4313630  42.6767870 149.5935930 133.3750200  42.3272650
 135.2667360 130.7151770  31.6721510 135.9759060 130.2934990  31.1868790
 134.5507300 130.7827000  31.0404860 134.9141520 126.7691100  30.7124160
 135.6369650 127.3100040  31.0305380 135.1866040 126.4954520  29.8365700
 148.7233170 131.6383570  34.9795740 149.2192290 131.4054440  35.7644620
 148.5249240 130.7995410  34.5633380 134.6033710 126.0197290  40.6146780
 135.2509900 125.4694670  40.1741940 135.0235550 126.2740440  41.4362590
 148.4986050 126.2138650  43.9716420 149.1358270 126.8272790  44.3375610
 148.6460940 126.2499310  43.0265650 148.0567510 142.9154650  37.3734660
 148.6526580 142.5939220  36.6969080 148.3145660 142.4426470  38.1647930
 134.3565710 126.1752960  43.3572100 134.0080530 126.6316780  44.1230280
 134.0253410 125.2810090  43.4394530 135.9630080 139.3472560  47.5225290
 135.9199710 138.9765470  48.4039750 136.0941090 140.2850130  47.6627110
 139.6636110 140.9032150  43.1235010 139.4227470 141.1706710  42.2365530
 140.6038750 141.0737880  43.1785870 141.8690530 127.3664840  46.8791520
 141.8079420 127.9586670  47.6286930 142.8090910 127.2590800  46.7341780
 144.5065090 127.0234900  46.5183810 145.1205500 127.3414190  45.8564890
 145.0514650 126.5383490  47.1379670 135.0286350 125.7029160  46.6322870
 135.5769340 125.5217210  45.8688980 135.0941660 124.9123270  47.1679180
 135.8018110 142.2934810  44.6423070 135.2078430 142.1619510  45.3813110
 135.7941950 141.4572950  44.1765170 145.2473130 125.5867040  42.8453100
 144.3732970 125.9202150  42.6426030 145.1383880 125.1140220  43.6704970
 146.1545110 127.7937910  44.2294820 145.8258470 126.9789670  43.8496550
 147.1027410 127.7507720  44.1060510 148.6079720 143.5649950  41.2032390
 148.1482690 144.3165760  40.8290410 147.9792180 142.8456420  41.1447190
 135.4330340 139.6593190  43.5931110 134.7064400 139.0398480  43.5257060
 135.4939490 140.0533800  42.7229190 139.0375440 141.8738190  40.3780520
 139.5540460 141.2625550  39.8528780 139.6872820 142.3766970  40.8691530
 141.7770940 142.7646680  41.2049500 142.0648750 142.5100980  40.3282510
 142.2894160 142.2124040  41.7955070 142.9947950 126.5036880  41.7846010
 142.2119740 126.9782380  42.0642770 142.7010880 125.5991710  41.6759190
 147.5469020 127.2059980  39.8295100 147.9877110 127.1505080  38.9816700
 147.2776610 128.1217990  39.9005280 149.4107590 126.8375220  37.8403920
 149.3495990 125.8936440  37.6934940 150.1899620 126.9455310  38.3857380
 133.7160340 142.9767580  36.8027870 133.5482380 142.3438260  37.5009760
 132.8494850 143.1826980  36.4522060 134.3388360 126.8084360  34.3059730
 135.0967720 126.9213240  33.7323760 133.8765530 127.6453560  34.2603160
 140.8802170 128.9223630  37.2962040 140.0676680 128.5480520  36.9557920
 141.3843810 128.1668710  37.5983230 145.3827150 125.5866080  38.5345110
 145.9856520 126.1586290  39.0093630 144.6420140 126.1505520  38.3119010
 148.5261750 125.9887640  33.8085390 148.7212380 126.8871090  34.0752820
 147.7391620 125.7574720  34.3018340 135.3223040 141.6700810  34.2478010
 134.7970660 142.0508840  33.5439970 135.2467620 142.2951580  34.9687720
 136.7113510 127.3348410  32.8461700 137.2406270 126.5478210  32.7169650
 137.3441830 128.0139600  33.0797230 138.9051350 127.0723550  35.9007090
 138.2754090 126.3710860  36.0677220 138.3656490 127.8327680  35.6840250
 141.8443300 143.6862780  48.5717700 142.7710610 143.4507050  48.6153660
 141.8293730 144.5134780  48.0903730 150.0788360 143.2288350  35.5691950
 150.2540550 142.5426090  34.9252870 149.3809930 143.7535400  35.1768620
 139.0306910 126.3507530  48.3359580 138.7491180 126.8541130  47.5720400
 139.4126610 125.5529280  47.9701710 137.9216010 143.6183190  33.1227260
 138.6534830 143.3342470  32.5751150 138.1809680 143.3796470  34.0126640
 137.0830800 139.7347920  33.1273590 136.4539680 140.2033020  33.6759420
 137.1978630 138.8897140  33.5619780 145.6322370 125.7661110  48.9140050
 145.5187820 126.0855720  49.8091570 146.4492110 126.1673620  48.6177330
 148.4120860 142.9132640  48.3958740 149.2046180 142.4181870  48.1884700
 148.7054010 143.5922780  49.0034350 144.5380520 133.7853580  19.2774790
 144.4574570 132.8708190  19.0066500 144.1244940 134.2820650  18.5714500
 142.6698560 135.5632600  21.1584060 141.8940660 135.0833040  21.4482630
 143.3211490 134.8838250  20.9840220 136.6864390 135.8752410  22.0359820
 135.8549270 135.6201120  22.4356330 137.2945370 135.9463180  22.7717740
 146.6905990 139.9692790  19.9383190 146.2287520 139.1980030  20.2670360
 147.5031540 139.9958860  20.4435640 136.6665650 139.9092500  22.2317840
 136.9693690 139.0190240  22.0528060 137.4109240 140.4662720  22.0040090
 135.0956340 130.8354300  15.8202210 134.2073040 131.1770270  15.7182090
 135.3797530 130.6354620  14.9283040 133.0589350 133.4359950  21.7041910
 133.6305460 132.6682150  21.7045550 133.0590890 133.7348710  20.7948520
 142.9169300 142.2550800  19.5587180 142.2980740 142.7108300  18.9881620
 143.7721080 142.4102260  19.1576880 142.1107550 138.2389790  21.1654220
 142.0415830 137.2979730  21.0043350 142.8727410 138.3291200  21.7376790
 134.3014220 128.8444310  23.4910840 134.1217060 127.9470060  23.7713600
 133.8994300 129.3916180  24.1657790 143.1412720 131.0460170  21.3923150
 143.5177540 130.1732050  21.2796820 143.0432230 131.3818870  20.5013590
 137.2717730 129.4185800  16.8540590 137.3784480 130.3189530  17.1609350
 136.3610090 129.3703770  16.5635240 146.9236840 128.5410610  18.3251490
 147.7446460 128.0507180  18.3676970 146.9570920 129.1308270  19.0783330
 134.9200890 131.3404810  22.0993180 135.6011000 131.6043180  22.7180580
 134.6048940 130.5005680  22.4331190 139.1125460 132.3872170  21.1865770
 139.6203680 132.8853140  21.8270790 139.6438700 131.6107370  21.0105130
 137.3961560 127.0270730  25.4529190 137.3980000 127.5443120  24.6475090
 136.5665870 126.5500910  25.4299120 143.7832650 137.1390040  16.9519090
 143.1649920 137.6039490  16.3881810 144.2955900 137.8317520  17.3688600
 138.6464410 136.6665910  23.6302690 138.3133790 137.2934830  24.2723760
 138.8231090 137.1927790  22.8504360 147.1598320 130.4810990  21.0979030
 146.4553890 130.7695880  21.6782140 147.5210480 131.2911100  20.7378590
 137.0776890 128.7380690  23.4599640 137.4193700 129.5822740  23.1653510
 136.1392700 128.8864430  23.5764980 137.8583510 138.6346710  25.4451870
 138.4757510 139.3097790  25.1636320 136.9976630 139.0434690  25.3539370
 133.1515850 137.8246570  14.3258720 132.7743830 138.3133670  13.5943620
 133.4088920 138.4971850  14.9565250 148.7761100 140.0986120  23.3606510
 148.0924620 140.7685230  23.3523180 149.3155390 140.2966770  22.5951370
 140.7604780 126.2262960  19.7844230 141.0679760 125.6709850  19.0679730
 139.8305480 126.3607420  19.6017220 146.3119840 141.9430250  22.0751690
 146.3247000 141.5392540  21.2073950 145.7595060 142.7177540  21.9713120
 147.6065260 138.6646470  17.1641860 147.4961590 137.7220800  17.2891280
 147.6033510 139.0262110  18.0504620 145.7105280 136.8460090  23.4034300
 146.1274070 136.6320200  22.5687760 146.4345100 137.1032880  23.9742920
 143.1485540 134.2911790  16.5204350 142.2214820 134.2249170  16.7492820
 143.3010360 135.2291920  16.4059590 143.1354620 130.5628790  13.5171510
 142.1958290 130.7242750  13.6023970 143.4537880 131.2814470  12.9707500
 149.6567380 135.2447310  23.4950540 148.8286010 135.3140400  23.0200670
 150.2517860 135.8301620  23.0266370 147.1782830 135.8532090  17.0239600
 146.5595250 135.5151640  16.3765900 147.1607280 135.2091850  17.7318790
 146.6209390 132.0316630  24.4405410 146.2080570 132.8570340  24.6945400
 145.8885340 131.4461670  24.2481770 138.7542180 134.8176530  19.3024080
 138.3499180 134.1053780  18.8069980 138.8405300 134.4729770  20.1912120
 139.2223880 138.5044090  21.4663290 138.9252170 137.8989560  20.7871070
 140.1723700 138.5421400  21.3552650 137.4670800 131.5919740  23.0823120
 138.0185390 131.7015080  22.3076370 137.9814310 131.9657340  23.7978350
 147.3109490 142.0775960  25.1286390 146.8340050 142.8848150  24.9359000
 146.6271280 141.4254290  25.2812600 138.3142310 138.2425780  28.1171090
 137.4170840 138.4665750  28.3644490 138.3395180 138.3660720  27.1682490
 145.3547530 135.0918900  14.0312350 145.7940810 134.2541330  13.8850170
 146.0675950 135.7248300  14.1176490 137.1413530 135.1139100  26.6928460
 137.0021300 135.9861900  27.0615860 136.2594890 134.7711910  26.5476400
 143.4642910 140.0314970  17.9993590 143.9038820 140.7739300  17.5848980
 143.4029800 140.2741540  18.9232550 138.9393880 141.0560800  28.9013610
 138.9109310 141.4603750  28.0342040 138.7758850 140.1271160  28.7385210
 148.9364670 126.3461710  12.3453390 148.6237330 126.4388540  13.2452460
 149.6977140 126.9242740  12.2950820 135.4546810 133.7121510  16.8030730
 135.3344410 134.4383600  16.1912000 135.1447700 132.9424420  16.3258640
 133.0932180 136.8836650  22.6099370 133.1712600 137.0185420  21.6655090
 133.7073860 136.1752540  22.8027490 134.3379810 138.5836840  19.0205550
 133.9307890 138.7251430  18.1659150 135.2292820 138.2997000  18.8176760
 150.2941950 139.0300750  27.3577790 150.4205010 138.7912630  26.4394970
 150.3363330 138.1985290  27.8299870 144.1558690 142.7328750  25.9272600
 144.6703360 142.6436760  26.7295030 143.3127770 143.0788450  26.2200510
 146.1313090 143.0184090  15.3556600 145.9714230 142.7287030  16.2538430
 145.9659800 142.2424220  14.8201830 138.6101470 142.7982620  17.1328220
 138.4343950 141.8818160  16.9196020 137.7557210 143.1569910  17.3726020
 145.8339220 140.5271650  13.9154600 145.1404380 140.5248940  13.2556880
 146.5762080 140.1030970  13.4848770 145.3989150 142.1534360  17.9903090
 145.8546100 141.3723740  18.3041710 145.7381670 142.8641180  18.5344270
 150.1465960 131.0833210  28.3227530 149.5310230 131.5912880  27.7942990
 149.8262380 130.1831540  28.2653470 133.1491700 137.9250820  25.1493830
 133.3122740 137.4556180  24.3313200 133.6144150 137.4174380  25.8142670
 137.9210470 127.0556580  20.1854400 137.4778620 127.8366120  19.8538920
 138.4795460 127.3786470  20.8925340 142.2080280 129.9225100  25.7889720
 141.7459650 130.1308120  26.6009660 141.8058390 129.1084450  25.4860390
 147.2084790 131.1434050  26.9186380 146.3578380 130.8439800  27.2395450
 147.0486580 131.3876060  26.0070200 144.3034500 132.6435800  29.0185170
 144.6287910 131.8099550  28.6787400 145.0914830 133.1664320  29.1663500
 141.0369290 126.6767280  15.0660230 140.4123470 126.6727150  15.7913540
 140.9499410 125.8098240  14.6696200 139.9586370 127.6003910  22.0444000
 140.2558700 128.5066740  21.9636020 140.5071930 127.1122690  21.4303570
 137.7124690 132.1790150  17.9135650 137.4865610 131.9627320  18.8182270
 136.9317220 132.6118610  17.5681620 144.9422450 132.1853520  16.5126300
 144.3431340 132.9089320  16.3289920 145.4902060 132.1230300  15.7302750
 140.1523900 133.0775730  28.5795920 140.0567500 132.1370460  28.4296320
 140.9955880 133.2990800  28.1843990 143.5487320 130.8217060  18.5429580
 143.9416890 131.1389260  17.7298270 143.9104170 129.9428940  18.6574100
 135.2834440 129.4889400  26.7329700 134.8897830 130.3364610  26.9402480
 134.5952840 128.8515770  26.9238340 141.8579490 129.5724370  29.8026440
 141.1677810 129.3796570  30.4372530 142.6011790 129.8559010  30.3350740
 132.5851490 127.4117860  20.7659780 132.2964540 127.9820720  21.4784760
 133.3297250 126.9322310  21.1291010 132.7721720 131.3537980  11.9762500
 132.6896390 132.2968740  12.1177490 132.4204780 131.2112890  11.0974850
 144.1342460 133.4122810  22.6380360 143.4023580 133.9209620  22.9870460
 143.7366800 132.5952790  22.3369140 140.5719850 130.0877010  21.0432850
 140.5755910 129.6466960  20.1937390 141.4670970 130.4094340  21.1504670
 136.4222230 129.9703500  20.0027060 136.0822280 130.4478730  20.7594110
 135.6599550 129.5168620  19.6428160 140.6340000 131.0889090  14.0339610
 140.7552820 131.0475570  14.9825430 140.2488510 131.9513240  13.8786340
 144.5968370 128.8656490  22.0503300 144.6141110 129.3165140  22.8945150
 144.3483950 127.9662130  22.2636740 139.6461500 133.3990230  13.4322910
 139.0778400 132.9508480  12.8058820 140.3550500 133.7583010  12.8988060
 148.0239120 126.2788670  27.8889680 148.3484890 125.5478330  28.4147660
 148.0595630 125.9602310  26.9870670 134.7230680 137.3002250  27.3089640
 134.3385470 136.6595920  27.9072600 135.0342870 138.0038370  27.8784370
 140.8727820 134.1478790  22.7898260 141.2397950 133.6737360  23.5359600
 140.6832880 135.0220360  23.1306600 133.7368310 128.8922480  18.9191730
 133.4515230 128.5278150  19.7570350 133.6747170 128.1602940  18.3054870
 138.6627190 133.1887430  25.1082470 138.3584260 134.0679410  25.3332830
 139.6173650 133.2487220  25.1439910 137.1908980 137.3948420  15.7049320
 136.4171240 136.8546040  15.5448040 137.9203610 136.8755030  15.3667080
 147.9496960 136.3913780  21.4975710 148.6696080 136.8869070  21.1071820
 147.7478780 135.7131670  20.8529580 143.4106900 127.7851740  15.6405100
 142.5971510 127.2864910  15.5650410 143.2168850 128.6249990  15.2241450
 143.3315760 136.4622840  27.3844710 143.2653070 135.5418510  27.1302300
 142.7020900 136.5598280  28.0989350 146.1255290 132.1571390  13.9367260
 147.0134910 132.4688620  13.7618600 146.0960380 131.2843640  13.5447840
 137.2346380 137.0628800  19.3428130 137.7525050 136.2597060  19.2885020
 136.7830400 137.0007940  20.1844960 142.1215880 138.3295080  14.6155430
 142.4631580 139.0737310  14.1198750 141.2928590 138.6426200  14.9780260
 134.7190920 134.0290170  26.2553830 134.3605860 134.6944020  26.8427170
 134.4245480 133.1973720  26.6266450 137.9204040 134.4874410  29.1393380
 137.6204180 134.6331590  28.2421200 138.6915280 133.9279700  29.0466770
 143.2632490 139.2843410  27.1348510 143.2777030 138.3524370  26.9167420
 142.5557590 139.3703170  27.7738280 148.3969560 133.4683230  13.4047120
 148.3133280 133.8997450  12.5543560 149.1163750 133.9281580  13.8373940
 149.4743700 135.9250750  26.4817090 148.7491890 136.5179530  26.2846480
 150.0019160 135.9174290  25.6830460 149.4256810 140.3225490  16.1329250
 148.7832970 139.6681110  16.4072970 149.0387470 140.7280580  15.3569920
 145.0043290 137.6510920  19.9800940 145.3567110 137.0539050  19.3202310
 144.1205620 137.3255150  20.1509190 141.0906570 138.4108610  17.3871350
 141.7777700 138.9577820  17.7678940 140.3038990 138.9549340  17.4220960
 133.2298970 134.0281430  12.8788430 134.0993820 134.3106230  13.1624350
 132.7389290 134.8417300  12.7637240 140.3933780 135.4154640  16.9996710
 140.8496560 136.2259890  17.2256900 140.0421990 135.0977780  17.8315200
 142.6966390 140.9260980  24.2289010 143.3408610 141.1320360  24.9062430
 143.0595830 140.1649380  23.7759860 136.2945560 125.7592290  17.4719230
 136.1660190 125.7510190  18.4204150 135.4707580 126.0975380  17.1210240
 143.9698470 138.9293330  22.9466460 144.6120700 138.2286490  23.0598630
 144.4947820 139.7091770  22.7663350 147.8154190 139.2141950  12.6705600
 147.5891770 138.4972390  13.2630240 147.4250390 138.9654390  11.8327350
 145.7436090 139.7288230  26.1502520 146.0792330 140.3154920  26.8280440
 144.8236430 139.5980940  26.3800310 133.5970220 143.2408810  13.4450060
 133.9567860 143.8398150  12.7907330 133.4562560 143.7868700  14.2185090
 133.2939490 127.5183410  26.9325930 132.5798010 127.7180330  27.5378540
 133.7134530 126.7422980  27.3040730 147.3970440 137.1313890  14.3319760
 147.1092140 137.5926580  15.1197640 148.1922610 136.6711660  14.6003980
 133.5812080 141.5063670  27.9192460 133.6903200 140.5658410  27.7787850
 132.9292640 141.7718420  27.2706190 141.5724670 139.7779560  29.3190580
 141.2521540 139.0588800  29.8636270 140.8983030 140.4534630  29.3926640
 139.6138840 140.6240010  14.2623730 139.6048940 141.3569700  13.6468240
 138.6937200 140.3771590  14.3550690 135.2145480 135.8454900  15.0070490
 134.6073430 136.5853800  15.0165790 135.6894830 135.9354260  14.1808690
 144.7878270 130.0105720  24.6827380 145.1559090 129.1900930  25.0106950
 143.9276470 130.0707610  25.0983030 148.1540300 128.9662660  15.4914940
 147.5253460 129.0708330  14.7773170 147.6592220 129.1859440  16.2808820
 142.5998440 140.6868250  12.9248920 142.7010420 140.4832240  11.9950900
 141.7000180 140.4326530  13.1296700 140.1224330 131.2448610  16.9072820
 139.4140480 131.7134950  17.3486430 140.4068810 130.5870620  17.5418010
 141.7480260 132.6645310  24.9065350 142.2465510 133.1391130  25.5717200
 141.8903210 131.7408830  25.1135380 144.1539760 127.9699270  18.3468610
 144.0307540 127.9885400  17.3978120 145.1024320 128.0178210  18.4667010
 141.2416550 143.2054570  17.6196590 141.4958050 143.1675960  16.6975960
 140.2929030 143.0787900  17.6124840 138.3259350 129.5533690  14.2823530
 139.1749880 129.9903840  14.2163720 137.9590620 129.8653950  15.1095590
 148.9547120 128.8813270  25.7493740 148.4520720 129.6218670  26.0887550
 149.7703780 129.2697270  25.4330530 147.2469130 134.1246450  19.1955100
 146.3059270 134.1396680  19.3702790 147.5613200 133.3382410  19.6415400
 137.2250770 135.8066050  12.7559060 137.9914040 135.6947410  13.3184490
 137.3025460 135.1104020  12.1035830 135.9197530 133.2391120  13.4391950
 136.0001120 132.2918630  13.5509350 136.8117280 133.5698000  13.5452610
 149.2494710 141.2955300  20.8709360 149.3742130 142.1186470  21.3433170
 150.1160270 141.0846030  20.5233510 136.7212240 143.3886510  20.5426490
 137.4574720 142.8401970  20.8135060 137.1053160 144.2542520  20.4032480
 133.6057720 139.4560080  16.4168000 132.6797500 139.6981220  16.4073410
 134.0714150 140.2834340  16.2952750 135.7270520 142.5732580  29.7312070
 136.5283250 142.8944630  30.1447470 135.2122340 142.2128160  30.4531980
 139.8314550 142.5616820  12.3652060 140.6243160 142.8505650  11.9133850
 139.3118900 142.1308990  11.6864540 144.5635150 138.6812450  29.6787480
 143.9573310 138.7044050  28.9383230 144.2589260 137.9495490  30.2154730
 145.9935520 142.4092740  28.2896890 146.9457270 142.3250760  28.2397130
 145.8463740 143.0734450  28.9630680 148.8844720 141.7886950  13.7888800
 148.5986230 141.3752090  12.9742980 148.6864270 142.7174660  13.6689320
 133.4468330 135.0606040  28.6748120 133.9507350 134.4813320  29.2464350
 132.7075750 135.3446270  29.2124490 140.3491950 137.7820230  12.2294410
 140.2442590 137.1672580  12.9555790 140.1816170 137.2586120  11.4457420
 140.5006270 136.4677030  28.2083640 139.7351940 137.0362030  28.1238310
 140.6822230 136.1753240  27.3151870 143.5894680 136.8440260  12.8336400
 143.0404780 137.2909560  13.4779140 144.2113940 136.3389510  13.3574070
 147.6429620 138.1982360  28.7658660 148.3839090 138.5358120  28.2626120
 146.8802300 138.3674420  28.2128430 135.4791410 133.2035630  29.5698190
 135.5196750 132.9049500  30.4783420 136.3336910 133.6043240  29.4105710
 139.2569800 135.8031180  14.7301700 139.6786220 135.6371050  15.5733090
 139.3820640 134.9931410  14.2356840 137.4197220 131.7827730  27.5372680
 136.8893680 131.2918680  26.9096020 138.0885290 132.2111930  27.0030610
 141.7697440 134.8268790  11.9778800 142.2903100 134.1117810  11.6119950
 142.4165840 135.4654660  12.2779310 146.3175280 136.2497190  27.3013870
 146.7316300 136.4042270  28.1504290 145.3826280 136.3752410  27.4639650
 146.7897450 133.5893350  29.3053020 147.3718220 132.8345670  29.2173500
 146.9659220 134.1200790  28.5284500 137.9069520 128.7490100  27.6169970
 137.8126390 128.1310850  26.8920840 137.3266910 129.4756390  27.3899880
 140.6730960 127.3063340  24.6497360 140.2248260 127.3287600  23.8042910
 140.0396160 126.9082360  25.2467660 141.0790510 136.2017670  25.2709800
 141.4978620 137.0450400  25.0986040 140.1599140 136.3389710  25.0416580
 143.4154410 133.9333850  26.6547640 143.5350620 133.3374990  27.3942480
 144.2748410 133.9703540  26.2348940 145.7542310 134.4871040  25.2310150
 145.2277530 135.0113660  24.6275290 146.0973650 135.1198430  25.8619880
 138.1528700 131.8764410  11.6759860 137.9517760 131.0131770  12.0373200
 137.9820750 131.7897770  10.7381460 138.9297930 142.5070680  26.3867530
 138.3919020 143.2316740  26.0676230 139.1831890 142.0301020  25.5964870
 140.1823180 130.4755200  27.9123460 140.7722870 130.1671050  28.6001280
 139.3643420 130.0034950  28.0683360 145.0016610 130.0921010  28.1456480
 144.3132130 129.4302550  28.0806470 145.7222630 129.6459280  28.5904940
 145.6317010 126.6872640  14.2046740 145.9119300 125.8440540  14.5606160
 144.8582740 126.9195750  14.7185490 136.9511500 128.9765030  11.6637740
 137.2537400 128.9832460  10.7556890 137.6906090 128.6262890  12.1605400
 141.7860140 143.7421890  26.6454180 141.7118840 144.6457030  26.9526550
 140.8838980 143.4233790  26.6176250 140.1696430 127.9199650  12.6493940
 139.8218430 127.2423640  12.0696390 140.3709200 127.4589160  13.4637330
 142.3345470 142.9080400  14.2680540 143.2296260 143.2465370  14.2899300
 142.3663100 142.1859810  13.6404820 135.9741630 138.2807450  12.4967540
 136.4116500 138.8237120  13.1525120 136.4589360 137.4554400  12.5063880
 133.1887430 141.0696480  19.9487800 133.5190440 140.2017540  19.7166440
 133.6178430 141.2755000  20.7792760 137.7849350 139.4005490  17.6089770
 137.4844890 139.2770460  18.5093680 137.6786840 138.5414080  17.2005500
 133.6777640 141.9367070  22.6869430 133.2408630 142.1167870  23.5193580
 134.2455320 142.6941690  22.5451150 149.3139820 141.4384070  26.9746740
 148.7141810 141.4976630  26.2310660 149.4433720 140.4989050  27.1043590
 133.5102070 134.4487300  19.0458310 132.8550910 134.1798940  18.4018010
 134.3480020 134.3391780  18.5960290 147.9991460 138.1636050  25.0722900
 147.1851300 138.5933210  25.3348690 148.4065660 138.7754460  24.4591950
 150.0616900 136.2183740  11.9723170 150.3365740 137.1262620  11.8442390
 149.8727640 136.1546270  12.9085160 146.4592510 129.2428590  13.2676800
 146.8777390 129.0559570  12.4273460 146.1528570 128.3907640  13.5779730
 149.9582240 134.1552730  16.9652600 149.5825840 133.3880660  16.5333890
 149.2285360 134.5375430  17.4527530 134.5478000 134.8339870  23.5861650
 134.9151040 134.7467270  24.4657670 133.9788820 134.0706420  23.4868510
 149.3481860 133.3024250  26.5992120 149.1167950 133.0737000  25.6990070
 149.6086410 134.2223800  26.5537010 134.0994000 131.7448960  27.4920070
 133.2050050 131.7115720  27.8313780 134.6391550 131.9435750  28.2571320
 147.7869930 128.5280680  29.3771820 148.6640110 128.5364080  29.7605820
 147.7990770 127.7911520  28.7664170 132.7240150 131.6586230  14.9883640
 131.8204230 131.9216430  14.8135300 133.2080770 131.9297400  14.2083600
 149.2333200 132.3810220  20.2659840 149.7570680 131.8872870  19.6350010
 149.8192620 132.5160580  21.0107410 149.4122920 132.4650090  23.7879390
 148.4625630 132.4313630  23.9024380 149.5935930 133.3750200  23.5529160
 135.2667360 130.7151770  12.8978020 135.9759060 130.2934990  12.4125300
 134.5507300 130.7827000  12.2661370 134.9141520 126.7691100  11.9380670
 135.6369650 127.3100040  12.2561890 135.1866040 126.4954520  11.0622210
 148.7233170 131.6383570  16.2052250 149.2192290 131.4054440  16.9901130
 148.5249240 130.7995410  15.7889890 134.6033710 126.0197290  21.8403290
 135.2509900 125.4694670  21.3998450 135.0235550 126.2740440  22.6619100
 148.4986050 126.2138650  25.1972930 149.1358270 126.8272790  25.5632120
 148.6460940 126.2499310  24.2522160 148.0567510 142.9154650  18.5991170
 148.6526580 142.5939220  17.9225590 148.3145660 142.4426470  19.3904440
 134.3565710 126.1752960  24.5828610 134.0080530 126.6316780  25.3486790
 134.0253410 125.2810090  24.6651040 135.9630080 139.3472560  28.7481800
 135.9199710 138.9765470  29.6296260 136.0941090 140.2850130  28.8883620
 139.6636110 140.9032150  24.3491520 139.4227470 141.1706710  23.4622040
 140.6038750 141.0737880  24.4042380 141.8690530 127.3664840  28.1048030
 141.8079420 127.9586670  28.8543440 142.8090910 127.2590800  27.9598290
 144.5065090 127.0234900  27.7440320 145.1205500 127.3414190  27.0821400
 145.0514650 126.5383490  28.3636180 135.0286350 125.7029160  27.8579380
 135.5769340 125.5217210  27.0945490 135.0941660 124.9123270  28.3935690
 135.8018110 142.2934810  25.8679580 135.2078430 142.1619510  26.6069620
 135.7941950 141.4572950  25.4021680 145.2473130 125.5867040  24.0709610
 144.3732970 125.9202150  23.8682540 145.1383880 125.1140220  24.8961480
 146.1545110 127.7937910  25.4551330 145.8258470 126.9789670  25.0753060
 147.1027410 127.7507720  25.3317020 148.6079720 143.5649950  22.4288900
 148.1482690 144.3165760  22.0546920 147.9792180 142.8456420  22.3703700
 135.4330340 139.6593190  24.8187620 134.7064400 139.0398480  24.7513570
 135.4939490 140.0533800  23.9485700 139.0375440 141.8738190  21.6037030
 139.5540460 141.2625550  21.0785290 139.6872820 142.3766970  22.0948040
 141.7770940 142.7646680  22.4306010 142.0648750 142.5100980  21.5539020
 142.2894160 142.2124040  23.0211580 142.9947950 126.5036880  23.0102520
 142.2119740 126.9782380  23.2899280 142.7010880 125.5991710  22.9015700
 147.5469020 127.2059980  21.0551610 147.9877110 127.1505080  20.2073210
 147.2776610 128.1217990  21.1261790 149.4107590 126.8375220  19.0660430
 149.3495990 125.8936440  18.9191450 150.1899620 126.9455310  19.6113890
 133.7160340 142.9767580  18.0284380 133.5482380 142.3438260  18.7266270
 132.8494850 143.1826980  17.6778570 134.3388360 126.8084360  15.5316240
 135.0967720 126.9213240  14.9580270 133.8765530 127.6453560  15.4859670
 140.8802170 128.9223630  18.5218550 140.0676680 128.5480520  18.1814430
 141.3843810 128.1668710  18.8239740 145.3827150 125.5866080  19.7601620
 145.9856520 126.1586290  20.2350140 144.6420140 126.1505520  19.5375520
 148.5261750 125.9887640  15.0341900 148.7212380 126.8871090  15.3009330
 147.7391620 125.7574720  15.5274850 135.3223040 141.6700810  15.4734520
 134.7970660 142.0508840  14.7696480 135.2467620 142.2951580  16.1944230
 136.7113510 127.3348410  14.0718210 137.2406270 126.5478210  13.9426160
 137.3441830 128.0139600  14.3053740 138.9051350 127.0723550  17.1263600
 138.2754090 126.3710860  17.2933730 138.3656490 127.8327680  16.9096760
 141.8443300 143.6862780  29.7974210 142.7710610 143.4507050  29.8410170
 141.8293730 144.5134780  29.3160240 150.0788360 143.2288350  16.7948460
 150.2540550 142.5426090  16.1509380 149.3809930 143.7535400  16.4025130
 139.0306910 126.3507530  29.5616090 138.7491180 126.8541130  28.7976910
 139.4126610 125.5529280  29.1958220 137.9216010 143.6183190  14.3483770
 138.6534830 143.3342470  13.8007660 138.1809680 143.3796470  15.2383150
 137.0830800 139.7347920  14.3530100 136.4539680 140.2033020  14.9015930
 137.1978630 138.8897140  14.7876290 145.6322370 125.7661110  30.1396560
 145.5187820 126.0855720  31.0348080 146.4492110 126.1673620  29.8433840
 148.4120860 142.9132640  29.6215250 149.2046180 142.4181870  29.4141210
 148.7054010 143.5922780  30.2290860 142.6698560 135.5632600   2.3840570
 141.8940660 135.0833040   2.6739140 143.3211490 134.8838250   2.2096730
 136.6864390 135.8752410   3.2616330 135.8549270 135.6201120   3.6612840
 137.2945370 135.9463180   3.9974250 136.6665650 139.9092500   3.4574350
 136.9693690 139.0190240   3.2784570 137.4109240 140.4662720   3.2296600
 133.0589350 133.4359950   2.9298420 133.6305460 132.6682150   2.9302060
 133.0590890 133.7348710   2.0205030 142.1107550 138.2389790   2.3910730
 142.0415830 137.2979730   2.2299860 142.8727410 138.3291200   2.9633300
 134.3014220 128.8444310   4.7167350 134.1217060 127.9470060   4.9970110
 133.8994300 129.3916180   5.3914300 143.1412720 131.0460170   2.6179660
 143.5177540 130.1732050   2.5053330 143.0432230 131.3818870   1.7270100
 134.9200890 131.3404810   3.3249690 135.6011000 131.6043180   3.9437090
 134.6048940 130.5005680   3.6587700 139.1125460 132.3872170   2.4122280
 139.6203680 132.8853140   3.0527300 139.6438700 131.6107370   2.2361640
 137.3961560 127.0270730   6.6785700 137.3980000 127.5443120   5.8731600
 136.5665870 126.5500910   6.6555630 138.6464410 136.6665910   4.8559200
 138.3133790 137.2934830   5.4980270 138.8231090 137.1927790   4.0760870
 147.1598320 130.4810990   2.3235540 146.4553890 130.7695880   2.9038650
 147.5210480 131.2911100   1.9635100 137.0776890 128.7380690   4.6856150
 137.4193700 129.5822740   4.3910020 136.1392700 128.8864430   4.8021490
 137.8583510 138.6346710   6.6708380 138.4757510 139.3097790   6.3892830
 136.9976630 139.0434690   6.5795880 148.7761100 140.0986120   4.5863020
 148.0924620 140.7685230   4.5779690 149.3155390 140.2966770   3.8207880
 146.3119840 141.9430250   3.3008200 146.3247000 141.5392540   2.4330460
 145.7595060 142.7177540   3.1969630 145.7105280 136.8460090   4.6290810
 146.1274070 136.6320200   3.7944270 146.4345100 137.1032880   5.1999430
 149.6567380 135.2447310   4.7207050 148.8286010 135.3140400   4.2457180
 150.2517860 135.8301620   4.2522880 146.6209390 132.0316630   5.6661920
 146.2080570 132.8570340   5.9201910 145.8885340 131.4461670   5.4738280
 139.2223880 138.5044090   2.6919800 138.9252170 137.8989560   2.0127580
 140.1723700 138.5421400   2.5809160 137.4670800 131.5919740   4.3079630
 138.0185390 131.7015080   3.5332880 137.9814310 131.9657340   5.0234860
 147.3109490 142.0775960   6.3542900 146.8340050 142.8848150   6.1615510
 146.6271280 141.4254290   6.5069110 138.3142310 138.2425780   9.3427600
 137.4170840 138.4665750   9.5901000 138.3395180 138.3660720   8.3939000
 137.1413530 135.1139100   7.9184970 137.0021300 135.9861900   8.2872370
 136.2594890 134.7711910   7.7732910 138.9393880 141.0560800  10.1270120
 138.9109310 141.4603750   9.2598550 138.7758850 140.1271160   9.9641720
 133.0932180 136.8836650   3.8355880 133.1712600 137.0185420   2.8911600
 133.7073860 136.1752540   4.0284000 150.2941950 139.0300750   8.5834300
 150.4205010 138.7912630   7.6651480 150.3363330 138.1985290   9.0556380
 144.1558690 142.7328750   7.1529110 144.6703360 142.6436760   7.9551540
 143.3127770 143.0788450   7.4457020 150.1465960 131.0833210   9.5484040
 149.5310230 131.5912880   9.0199500 149.8262380 130.1831540   9.4909980
 133.1491700 137.9250820   6.3750340 133.3122740 137.4556180   5.5569710
 133.6144150 137.4174380   7.0399180 142.2080280 129.9225100   7.0146230
 141.7459650 130.1308120   7.8266170 141.8058390 129.1084450   6.7116900
 147.2084790 131.1434050   8.1442890 146.3578380 130.8439800   8.4651960
 147.0486580 131.3876060   7.2326710 144.3034500 132.6435800  10.2441680
 144.6287910 131.8099550   9.9043910 145.0914830 133.1664320  10.3920010
 139.9586370 127.6003910   3.2700510 140.2558700 128.5066740   3.1892530
 140.5071930 127.1122690   2.6560080 140.1523900 133.0775730   9.8052430
 140.0567500 132.1370460   9.6552830 140.9955880 133.2990800   9.4100500
 135.2834440 129.4889400   7.9586210 134.8897830 130.3364610   8.1658990
 134.5952840 128.8515770   8.1494850 141.8579490 129.5724370  11.0282950
 141.1677810 129.3796570  11.6629040 142.6011790 129.8559010  11.5607250
 132.5851490 127.4117860   1.9916290 132.2964540 127.9820720   2.7041270
 133.3297250 126.9322310   2.3547520 144.1342460 133.4122810   3.8636870
 143.4023580 133.9209620   4.2126970 143.7366800 132.5952790   3.5625650
 140.5719850 130.0877010   2.2689360 140.5755910 129.6466960   1.4193900
 141.4670970 130.4094340   2.3761180 144.5968370 128.8656490   3.2759810
 144.6141110 129.3165140   4.1201660 144.3483950 127.9662130   3.4893250
 148.0239120 126.2788670   9.1146190 148.3484890 125.5478330   9.6404170
 148.0595630 125.9602310   8.2127180 134.7230680 137.3002250   8.5346150
 134.3385470 136.6595920   9.1329110 135.0342870 138.0038370   9.1040880
 140.8727820 134.1478790   4.0154770 141.2397950 133.6737360   4.7616110
 140.6832880 135.0220360   4.3563110 138.6627190 133.1887430   6.3338980
 138.3584260 134.0679410   6.5589340 139.6173650 133.2487220   6.3696420
 147.9496960 136.3913780   2.7232220 148.6696080 136.8869070   2.3328330
 147.7478780 135.7131670   2.0786090 143.3315760 136.4622840   8.6101220
 143.2653070 135.5418510   8.3558810 142.7020900 136.5598280   9.3245860
 134.7190920 134.0290170   7.4810340 134.3605860 134.6944020   8.0683680
 134.4245480 133.1973720   7.8522960 137.9204040 134.4874410  10.3649890
 137.6204180 134.6331590   9.4677710 138.6915280 133.9279700  10.2723280
 143.2632490 139.2843410   8.3605020 143.2777030 138.3524370   8.1423930
 142.5557590 139.3703170   8.9994790 149.4743700 135.9250750   7.7073600
 148.7491890 136.5179530   7.5102990 150.0019160 135.9174290   6.9086970
 142.6966390 140.9260980   5.4545520 143.3408610 141.1320360   6.1318940
 143.0595830 140.1649380   5.0016370 143.9698470 138.9293330   4.1722970
 144.6120700 138.2286490   4.2855140 144.4947820 139.7091770   3.9919860
 145.7436090 139.7288230   7.3759030 146.0792330 140.3154920   8.0536950
 144.8236430 139.5980940   7.6056820 133.2939490 127.5183410   8.1582440
 132.5798010 127.7180330   8.7635050 133.7134530 126.7422980   8.5297240
 133.5812080 141.5063670   9.1448970 133.6903200 140.5658410   9.0044360
 132.9292640 141.7718420   8.4962700 141.5724670 139.7779560  10.5447090
 141.2521540 139.0588800  11.0892780 140.8983030 140.4534630  10.6183150
 144.7878270 130.0105720   5.9083890 145.1559090 129.1900930   6.2363460
 143.9276470 130.0707610   6.3239540 141.7480260 132.6645310   6.1321860
 142.2465510 133.1391130   6.7973710 141.8903210 131.7408830   6.3391890
 148.9547120 128.8813270   6.9750250 148.4520720 129.6218670   7.3144060
 149.7703780 129.2697270   6.6587040 149.2494710 141.2955300   2.0965870
 149.3742130 142.1186470   2.5689680 150.1160270 141.0846030   1.7490020
 136.7212240 143.3886510   1.7683000 137.4574720 142.8401970   2.0391570
 137.1053160 144.2542520   1.6288990 135.7270520 142.5732580  10.9568580
 136.5283250 142.8944630  11.3703980 135.2122340 142.2128160  11.6788490
 144.5635150 138.6812450  10.9043990 143.9573310 138.7044050  10.1639740
 144.2589260 137.9495490  11.4411240 145.9935520 142.4092740   9.5153400
 146.9457270 142.3250760   9.4653640 145.8463740 143.0734450  10.1887190
 133.4468330 135.0606040   9.9004630 133.9507350 134.4813320  10.4720860
 132.7075750 135.3446270  10.4381000 140.5006270 136.4677030   9.4340150
 139.7351940 137.0362030   9.3494820 140.6822230 136.1753240   8.5408380
 147.6429620 138.1982360   9.9915170 148.3839090 138.5358120   9.4882630
 146.8802300 138.3674420   9.4384940 135.4791410 133.2035630  10.7954700
 135.5196750 132.9049500  11.7039930 136.3336910 133.6043240  10.6362220
 137.4197220 131.7827730   8.7629190 136.8893680 131.2918680   8.1352530
 138.0885290 132.2111930   8.2287120 146.3175280 136.2497190   8.5270380
 146.7316300 136.4042270   9.3760800 145.3826280 136.3752410   8.6896160
 146.7897450 133.5893350  10.5309530 147.3718220 132.8345670  10.4430010
 146.9659220 134.1200790   9.7541010 137.9069520 128.7490100   8.8426480
 137.8126390 128.1310850   8.1177350 137.3266910 129.4756390   8.6156390
 140.6730960 127.3063340   5.8753870 140.2248260 127.3287600   5.0299420
 140.0396160 126.9082360   6.4724170 141.0790510 136.2017670   6.4966310
 141.4978620 137.0450400   6.3242550 140.1599140 136.3389710   6.2673090
 143.4154410 133.9333850   7.8804150 143.5350620 133.3374990   8.6198990
 144.2748410 133.9703540   7.4605450 145.7542310 134.4871040   6.4566660
 145.2277530 135.0113660   5.8531800 146.0973650 135.1198430   7.0876390
 138.9297930 142.5070680   7.6124040 138.3919020 143.2316740   7.2932740
 139.1831890 142.0301020   6.8221380 140.1823180 130.4755200   9.1379970
 140.7722870 130.1671050   9.8257790 139.3643420 130.0034950   9.2939870
 145.0016610 130.0921010   9.3712990 144.3132130 129.4302550   9.3062980
 145.7222630 129.6459280   9.8161450 141.7860140 143.7421890   7.8710690
 141.7118840 144.6457030   8.1783060 140.8838980 143.4233790   7.8432760
 133.6777640 141.9367070   3.9125940 133.2408630 142.1167870   4.7450090
 134.2455320 142.6941690   3.7707660 149.3139820 141.4384070   8.2003250
 148.7141810 141.4976630   7.4567170 149.4433720 140.4989050   8.3300100
 147.9991460 138.1636050   6.2979410 147.1851300 138.5933210   6.5605200
 148.4065660 138.7754460   5.6848460 134.5478000 134.8339870   4.8118160
 134.9151040 134.7467270   5.6914180 133.9788820 134.0706420   4.7125020
 149.3481860 133.3024250   7.8248630 149.1167950 133.0737000   6.9246580
 149.6086410 134.2223800   7.7793520 134.0994000 131.7448960   8.7176580
 133.2050050 131.7115720   9.0570290 134.6391550 131.9435750   9.4827830
 147.7869930 128.5280680  10.6028330 148.6640110 128.5364080  10.9862330
 147.7990770 127.7911520   9.9920680 149.4122920 132.4650090   5.0135900
 148.4625630 132.4313630   5.1280890 149.5935930 133.3750200   4.7785670
 134.6033710 126.0197290   3.0659800 135.2509900 125.4694670   2.6254960
 135.0235550 126.2740440   3.8875610 148.4986050 126.2138650   6.4229440
 149.1358270 126.8272790   6.7888630 148.6460940 126.2499310   5.4778670
 134.3565710 126.1752960   5.8085120 134.0080530 126.6316780   6.5743300
 134.0253410 125.2810090   5.8907550 135.9630080 139.3472560   9.9738310
 135.9199710 138.9765470  10.8552770 136.0941090 140.2850130  10.1140130
 139.6636110 140.9032150   5.5748030 139.4227470 141.1706710   4.6878550
 140.6038750 141.0737880   5.6298890 141.8690530 127.3664840   9.3304540
 141.8079420 127.9586670  10.0799950 142.8090910 127.2590800   9.1854800
 144.5065090 127.0234900   8.9696830 145.1205500 127.3414190   8.3077910
 145.0514650 126.5383490   9.5892690 135.0286350 125.7029160   9.0835890
 135.5769340 125.5217210   8.3202000 135.0941660 124.9123270   9.6192200
 135.8018110 142.2934810   7.0936090 135.2078430 142.1619510   7.8326130
 135.7941950 141.4572950   6.6278190 145.2473130 125.5867040   5.2966120
 144.3732970 125.9202150   5.0939050 145.1383880 125.1140220   6.1217990
 146.1545110 127.7937910   6.6807840 145.8258470 126.9789670   6.3009570
 147.1027410 127.7507720   6.5573530 148.6079720 143.5649950   3.6545410
 148.1482690 144.3165760   3.2803430 147.9792180 142.8456420   3.5960210
 135.4330340 139.6593190   6.0444130 134.7064400 139.0398480   5.9770080
 135.4939490 140.0533800   5.1742210 139.0375440 141.8738190   2.8293540
 139.5540460 141.2625550   2.3041800 139.6872820 142.3766970   3.3204550
 141.7770940 142.7646680   3.6562520 142.0648750 142.5100980   2.7795530
 142.2894160 142.2124040   4.2468090 142.9947950 126.5036880   4.2359030
 142.2119740 126.9782380   4.5155790 142.7010880 125.5991710   4.1272210
 147.5469020 127.2059980   2.2808120 147.9877110 127.1505080   1.4329720
 147.2776610 128.1217990   2.3518300 141.8443300 143.6862780  11.0230720
 142.7710610 143.4507050  11.0666680 141.8293730 144.5134780  10.5416750
 139.0306910 126.3507530  10.7872600 138.7491180 126.8541130  10.0233420
 139.4126610 125.5529280  10.4214730 145.6322370 125.7661110  11.3653070
 145.5187820 126.0855720  12.2604590 146.4492110 126.1673620  11.0690350
 148.4120860 142.9132640  10.8471760 149.2046180 142.4181870  10.6397720
 148.7054010 143.5922780  11.4547370 144.5380520 115.0110090 150.6979220
 144.4574570 114.0964700 150.4270930 144.1244940 115.5077160 149.9918930
 142.6698560 116.7889110 152.5788490 141.8940660 116.3089550 152.8687060
 143.3211490 116.1094760 152.4044650 146.6905990 121.1949300 151.3587620
 146.2287520 120.4236540 151.6874790 147.5031540 121.2215370 151.8640070
 135.0956340 112.0610810 147.2406640 134.2073040 112.4026780 147.1386520
 135.3797530 111.8611130 146.3487470 133.0589350 114.6616460 153.1246340
 133.6305460 113.8938660 153.1249980 133.0590890 114.9605220 152.2152950
 142.9169300 123.4807310 150.9791610 142.2980740 123.9364810 150.4086050
 143.7721080 123.6358770 150.5781310 142.1107550 119.4646300 152.5858650
 142.0415830 118.5236240 152.4247780 142.8727410 119.5547710 153.1581220
 143.1412720 112.2716680 152.8127580 143.5177540 111.3988560 152.7001250
 143.0432230 112.6075380 151.9218020 137.2717730 110.6442310 148.2745020
 137.3784480 111.5446040 148.5813780 136.3610090 110.5960280 147.9839670
 146.9236840 109.7667120 149.7455920 147.7446460 109.2763690 149.7881400
 146.9570920 110.3564780 150.4987760 143.7832650 118.3646550 148.3723520
 143.1649920 118.8296000 147.8086240 144.2955900 119.0574030 148.7893030
 147.1598320 111.7067500 152.5183460 146.4553890 111.9952390 153.0986570
 147.5210480 112.5167610 152.1583020 133.1515850 119.0503080 145.7463150
 132.7743830 119.5390180 145.0148050 133.4088920 119.7228360 146.3769680
 140.7604780 107.4519470 151.2048660 141.0679760 106.8966360 150.4884160
 139.8305480 107.5863930 151.0221650 147.6065260 119.8902980 148.5846290
 147.4961590 118.9477310 148.7095710 147.6033510 120.2518620 149.4709050
 143.1485540 115.5168300 147.9408780 142.2214820 115.4505680 148.1697250
 143.3010360 116.4548430 147.8264020 143.1354620 111.7885300 144.9375940
 142.1958290 111.9499260 145.0228400 143.4537880 112.5070980 144.3911930
 147.1782830 117.0788600 148.4444030 146.5595250 116.7408150 147.7970330
 147.1607280 116.4348360 149.1523220 138.7542180 116.0433040 150.7228510
 138.3499180 115.3310290 150.2274410 138.8405300 115.6986280 151.6116550
 139.2223880 119.7300600 152.8867720 138.9252170 119.1246070 152.2075500
 140.1723700 119.7677910 152.7757080 145.3547530 116.3175410 145.4516780
 145.7940810 115.4797840 145.3054600 146.0675950 116.9504810 145.5380920
 143.4642910 121.2571480 149.4198020 143.9038820 121.9995810 149.0053410
 143.4029800 121.4998050 150.3436980 148.9364670 107.5718220 143.7657820
 148.6237330 107.6645050 144.6656890 149.6977140 108.1499250 143.7155250
 135.4546810 114.9378020 148.2235160 135.3344410 115.6640110 147.6116430
 135.1447700 114.1680930 147.7463070 134.3379810 119.8093350 150.4409980
 133.9307890 119.9507940 149.5863580 135.2292820 119.5253510 150.2381190
 146.1313090 124.2440600 146.7761030 145.9714230 123.9543540 147.6742860
 145.9659800 123.4680730 146.2406260 138.6101470 124.0239130 148.5532650
 138.4343950 123.1074670 148.3400450 137.7557210 124.3826420 148.7930450
 145.8339220 121.7528160 145.3359030 145.1404380 121.7505450 144.6761310
 146.5762080 121.3287480 144.9053200 145.3989150 123.3790870 149.4107520
 145.8546100 122.5980250 149.7246140 145.7381670 124.0897690 149.9548700
 137.9210470 108.2813090 151.6058830 137.4778620 109.0622630 151.2743350
 138.4795460 108.6042980 152.3129770 141.0369290 107.9023790 146.4864660
 140.4123470 107.8983660 147.2117970 140.9499410 107.0354750 146.0900630
 137.7124690 113.4046660 149.3340080 137.4865610 113.1883830 150.2386700
 136.9317220 113.8375120 148.9886050 144.9422450 113.4110030 147.9330730
 144.3431340 114.1345830 147.7494350 145.4902060 113.3486810 147.1507180
 143.5487320 112.0473570 149.9634010 143.9416890 112.3645770 149.1502700
 143.9104170 111.1685450 150.0778530 132.5851490 108.6374370 152.1864210
 132.2964540 109.2077230 152.8989190 133.3297250 108.1578820 152.5495440
 132.7721720 112.5794490 143.3966930 132.6896390 113.5225250 143.5381920
 132.4204780 112.4369400 142.5179280 140.5719850 111.3133520 152.4637280
 140.5755910 110.8723470 151.6141820 141.4670970 111.6350850 152.5709100
 136.4222230 111.1960010 151.4231490 136.0822280 111.6735240 152.1798540
 135.6599550 110.7425130 151.0632590 140.6340000 112.3145600 145.4544040
 140.7552820 112.2732080 146.4029860 140.2488510 113.1769750 145.2990770
 139.6461500 114.6246740 144.8527340 139.0778400 114.1764990 144.2263250
 140.3550500 114.9839520 144.3192490 133.7368310 110.1178990 150.3396160
 133.4515230 109.7534660 151.1774780 133.6747170 109.3859450 149.7259300
 137.1908980 118.6204930 147.1253750 136.4171240 118.0802550 146.9652470
 137.9203610 118.1011540 146.7871510 147.9496960 117.6170290 152.9180140
 148.6696080 118.1125580 152.5276250 147.7478780 116.9388180 152.2734010
 143.4106900 109.0108250 147.0609530 142.5971510 108.5121420 146.9854840
 143.2168850 109.8506500 146.6445880 146.1255290 113.3827900 145.3571690
 147.0134910 113.6945130 145.1823030 146.0960380 112.5100150 144.9652270
 137.2346380 118.2885310 150.7632560 137.7525050 117.4853570 150.7089450
 136.7830400 118.2264450 151.6049390 142.1215880 119.5551590 146.0359860
 142.4631580 120.2993820 145.5403180 141.2928590 119.8682710 146.3984690
 148.3969560 114.6939740 144.8251550 148.3133280 115.1253960 143.9747990
 149.1163750 115.1538090 145.2578370 149.4256810 121.5482000 147.5533680
 148.7832970 120.8937620 147.8277400 149.0387470 121.9537090 146.7774350
 145.0043290 118.8767430 151.4005370 145.3567110 118.2795560 150.7406740
 144.1205620 118.5511660 151.5713620 141.0906570 119.6365120 148.8075780
 141.7777700 120.1834330 149.1883370 140.3038990 120.1805850 148.8425390
 133.2298970 115.2537940 144.2992860 134.0993820 115.5362740 144.5828780
 132.7389290 116.0673810 144.1841670 140.3933780 116.6411150 148.4201140
 140.8496560 117.4516400 148.6461330 140.0421990 116.3234290 149.2519630
 136.2945560 106.9848800 148.8923660 136.1660190 106.9766700 149.8408580
 135.4707580 107.3231890 148.5414670 147.8154190 120.4398460 144.0910030
 147.5891770 119.7228900 144.6834670 147.4250390 120.1910900 143.2531780
 133.5970220 124.4665320 144.8654490 133.9567860 125.0654660 144.2111760
 133.4562560 125.0125210 145.6389520 147.3970440 118.3570400 145.7524190
 147.1092140 118.8183090 146.5402070 148.1922610 117.8968170 146.0208410
 139.6138840 121.8496520 145.6828160 139.6048940 122.5826210 145.0672670
 138.6937200 121.6028100 145.7755120 135.2145480 117.0711410 146.4274920
 134.6073430 117.8110310 146.4370220 135.6894830 117.1610770 145.6013120
 148.1540300 110.1919170 146.9119370 147.5253460 110.2964840 146.1977600
 147.6592220 110.4115950 147.7013250 142.5998440 121.9124760 144.3453350
 142.7010420 121.7088750 143.4155330 141.7000180 121.6583040 144.5501130
 140.1224330 112.4705120 148.3277250 139.4140480 112.9391460 148.7690860
 140.4068810 111.8127130 148.9622440 144.1539760 109.1955780 149.7673040
 144.0307540 109.2141910 148.8182550 145.1024320 109.2434720 149.8871440
 141.2416550 124.4311080 149.0401020 141.4958050 124.3932470 148.1180390
 140.2929030 124.3044410 149.0329270 138.3259350 110.7790200 145.7027960
 139.1749880 111.2160350 145.6368150 137.9590620 111.0910460 146.5300020
 147.2469130 115.3502960 150.6159530 146.3059270 115.3653190 150.7907220
 147.5613200 114.5638920 151.0619830 137.2250770 117.0322560 144.1763490
 137.9914040 116.9203920 144.7388920 137.3025460 116.3360530 143.5240260
 135.9197530 114.4647630 144.8596380 136.0001120 113.5175140 144.9713780
 136.8117280 114.7954510 144.9657040 149.2494710 122.5211810 152.2913790
 149.3742130 123.3442980 152.7637600 150.1160270 122.3102540 151.9437940
 136.7212240 124.6143020 151.9630920 137.4574720 124.0658480 152.2339490
 137.1053160 125.4799030 151.8236910 133.6057720 120.6816590 147.8372430
 132.6797500 120.9237730 147.8277840 134.0714150 121.5090850 147.7157180
 139.8314550 123.7873330 143.7856490 140.6243160 124.0762160 143.3338280
 139.3118900 123.3565500 143.1068970 148.8844720 123.0143460 145.2093230
 148.5986230 122.6008600 144.3947410 148.6864270 123.9431170 145.0893750
 140.3491950 119.0076740 143.6498840 140.2442590 118.3929090 144.3760220
 140.1816170 118.4842630 142.8661850 143.5894680 118.0696770 144.2540830
 143.0404780 118.5166070 144.8983570 144.2113940 117.5646020 144.7778500
 139.2569800 117.0287690 146.1506130 139.6786220 116.8627560 146.9937520
 139.3820640 116.2187920 145.6561270 141.7697440 116.0525300 143.3983230
 142.2903100 115.3374320 143.0324380 142.4165840 116.6911170 143.6983740
 138.1528700 113.1020920 143.0964290 137.9517760 112.2388280 143.4577630
 137.9820750 113.0154280 142.1585890 145.6317010 107.9129150 145.6251170
 145.9119300 107.0697050 145.9810590 144.8582740 108.1452260 146.1389920
 136.9511500 110.2021540 143.0842170 137.2537400 110.2088970 142.1761320
 137.6906090 109.8519400 143.5809830 140.1696430 109.1456160 144.0698370
 139.8218430 108.4680150 143.4900820 140.3709200 108.6845670 144.8841760
 142.3345470 124.1336910 145.6884970 143.2296260 124.4721880 145.7103730
 142.3663100 123.4116320 145.0609250 135.9741630 119.5063960 143.9171970
 136.4116500 120.0493630 144.5729550 136.4589360 118.6810910 143.9268310
 133.1887430 122.2952990 151.3692230 133.5190440 121.4274050 151.1370870
 133.6178430 122.5011510 152.1997190 137.7849350 120.6262000 149.0294200
 137.4844890 120.5026970 149.9298110 137.6786840 119.7670590 148.6209930
 133.5102070 115.6743810 150.4662740 132.8550910 115.4055450 149.8222440
 134.3480020 115.5648290 150.0164720 150.0616900 117.4440250 143.3927600
 150.3365740 118.3519130 143.2646820 149.8727640 117.3802780 144.3289590
 146.4592510 110.4685100 144.6881230 146.8777390 110.2816080 143.8477890
 146.1528570 109.6164150 144.9984160 149.9582240 115.3809240 148.3857030
 149.5825840 114.6137170 147.9538320 149.2285360 115.7631940 148.8731960
 132.7240150 112.8842740 146.4088070 131.8204230 113.1472940 146.2339730
 133.2080770 113.1553910 145.6288030 149.2333200 113.6066730 151.6864270
 149.7570680 113.1129380 151.0554440 149.8192620 113.7417090 152.4311840
 135.2667360 111.9408280 144.3182450 135.9759060 111.5191500 143.8329730
 134.5507300 112.0083510 143.6865800 134.9141520 107.9947610 143.3585100
 135.6369650 108.5356550 143.6766320 135.1866040 107.7211030 142.4826640
 148.7233170 112.8640080 147.6256680 149.2192290 112.6310950 148.4105560
 148.5249240 112.0251920 147.2094320 148.0567510 124.1411160 150.0195600
 148.6526580 123.8195730 149.3430020 148.3145660 123.6682980 150.8108870
 147.5469020 108.4316490 152.4756040 147.9877110 108.3761590 151.6277640
 147.2776610 109.3474500 152.5466220 149.4107590 108.0631730 150.4864860
 149.3495990 107.1192950 150.3395880 150.1899620 108.1711820 151.0318320
 133.7160340 124.2024090 149.4488810 133.5482380 123.5694770 150.1470700
 132.8494850 124.4083490 149.0983000 134.3388360 108.0340870 146.9520670
 135.0967720 108.1469750 146.3784700 133.8765530 108.8710070 146.9064100
 140.8802170 110.1480140 149.9422980 140.0676680 109.7737030 149.6018860
 141.3843810 109.3925220 150.2444170 145.3827150 106.8122590 151.1806050
 145.9856520 107.3842800 151.6554570 144.6420140 107.3762030 150.9579950
 148.5261750 107.2144150 146.4546330 148.7212380 108.1127600 146.7213760
 147.7391620 106.9831230 146.9479280 135.3223040 122.8957320 146.8938950
 134.7970660 123.2765350 146.1900910 135.2467620 123.5208090 147.6148660
 136.7113510 108.5604920 145.4922640 137.2406270 107.7734720 145.3630590
 137.3441830 109.2396110 145.7258170 138.9051350 108.2980060 148.5468030
 138.2754090 107.5967370 148.7138160 138.3656490 109.0584190 148.3301190
 150.0788360 124.4544860 148.2152890 150.2540550 123.7682600 147.5713810
 149.3809930 124.9791910 147.8229560 137.9216010 124.8439700 145.7688200
 138.6534830 124.5598980 145.2212090 138.1809680 124.6052980 146.6587580
 137.0830800 120.9604430 145.7734530 136.4539680 121.4289530 146.3220360
 137.1978630 120.1153650 146.2080720 144.5380520 115.0110090 131.9235730
 144.4574570 114.0964700 131.6527440 144.1244940 115.5077160 131.2175440
 142.6698560 116.7889110 133.8045000 141.8940660 116.3089550 134.0943570
 143.3211490 116.1094760 133.6301160 136.6864390 117.1008920 134.6820760
 135.8549270 116.8457630 135.0817270 137.2945370 117.1719690 135.4178680
 146.6905990 121.1949300 132.5844130 146.2287520 120.4236540 132.9131300
 147.5031540 121.2215370 133.0896580 136.6665650 121.1349010 134.8778780
 136.9693690 120.2446750 134.6989000 137.4109240 121.6919230 134.6501030
 135.0956340 112.0610810 128.4663150 134.2073040 112.4026780 128.3643030
 135.3797530 111.8611130 127.5743980 133.0589350 114.6616460 134.3502850
 133.6305460 113.8938660 134.3506490 133.0590890 114.9605220 133.4409460
 142.9169300 123.4807310 132.2048120 142.2980740 123.9364810 131.6342560
 143.7721080 123.6358770 131.8037820 142.1107550 119.4646300 133.8115160
 142.0415830 118.5236240 133.6504290 142.8727410 119.5547710 134.3837730
 134.3014220 110.0700820 136.1371780 134.1217060 109.1726570 136.4174540
 133.8994300 110.6172690 136.8118730 143.1412720 112.2716680 134.0384090
 143.5177540 111.3988560 133.9257760 143.0432230 112.6075380 133.1474530
 137.2717730 110.6442310 129.5001530 137.3784480 111.5446040 129.8070290
 136.3610090 110.5960280 129.2096180 146.9236840 109.7667120 130.9712430
 147.7446460 109.2763690 131.0137910 146.9570920 110.3564780 131.7244270
 134.9200890 112.5661320 134.7454120 135.6011000 112.8299690 135.3641520
 134.6048940 111.7262190 135.0792130 139.1125460 113.6128680 133.8326710
 139.6203680 114.1109650 134.4731730 139.6438700 112.8363880 133.6566070
 137.3961560 108.2527240 138.0990130 137.3980000 108.7699630 137.2936030
 136.5665870 107.7757420 138.0760060 143.7832650 118.3646550 129.5980030
 143.1649920 118.8296000 129.0342750 144.2955900 119.0574030 130.0149540
 138.6464410 117.8922420 136.2763630 138.3133790 118.5191340 136.9184700
 138.8231090 118.4184300 135.4965300 147.1598320 111.7067500 133.7439970
 146.4553890 111.9952390 134.3243080 147.5210480 112.5167610 133.3839530
 137.0776890 109.9637200 136.1060580 137.4193700 110.8079250 135.8114450
 136.1392700 110.1120940 136.2225920 137.8583510 119.8603220 138.0912810
 138.4757510 120.5354300 137.8097260 136.9976630 120.2691200 138.0000310
 133.1515850 119.0503080 126.9719660 132.7743830 119.5390180 126.2404560
 133.4088920 119.7228360 127.6026190 148.7761100 121.3242630 136.0067450
 148.0924620 121.9941740 135.9984120 149.3155390 121.5223280 135.2412310
 140.7604780 107.4519470 132.4305170 141.0679760 106.8966360 131.7140670
 139.8305480 107.5863930 132.2478160 146.3119840 123.1686760 134.7212630
 146.3247000 122.7649050 133.8534890 145.7595060 123.9434050 134.6174060
 147.6065260 119.8902980 129.8102800 147.4961590 118.9477310 129.9352220
 147.6033510 120.2518620 130.6965560 145.7105280 118.0716600 136.0495240
 146.1274070 117.8576710 135.2148700 146.4345100 118.3289390 136.6203860
 143.1485540 115.5168300 129.1665290 142.2214820 115.4505680 129.3953760
 143.3010360 116.4548430 129.0520530 143.1354620 111.7885300 126.1632450
 142.1958290 111.9499260 126.2484910 143.4537880 112.5070980 125.6168440
 149.6567380 116.4703820 136.1411480 148.8286010 116.5396910 135.6661610
 150.2517860 117.0558130 135.6727310 147.1782830 117.0788600 129.6700540
 146.5595250 116.7408150 129.0226840 147.1607280 116.4348360 130.3779730
 146.6209390 113.2573140 137.0866350 146.2080570 114.0826850 137.3406340
 145.8885340 112.6718180 136.8942710 138.7542180 116.0433040 131.9485020
 138.3499180 115.3310290 131.4530920 138.8405300 115.6986280 132.8373060
 139.2223880 119.7300600 134.1124230 138.9252170 119.1246070 133.4332010
 140.1723700 119.7677910 134.0013590 137.4670800 112.8176250 135.7284060
 138.0185390 112.9271590 134.9537310 137.9814310 113.1913850 136.4439290
 147.3109490 123.3032470 137.7747330 146.8340050 124.1104660 137.5819940
 146.6271280 122.6510800 137.9273540 138.3142310 119.4682290 140.7632030
 137.4170840 119.6922260 141.0105430 138.3395180 119.5917230 139.8143430
 145.3547530 116.3175410 126.6773290 145.7940810 115.4797840 126.5311110
 146.0675950 116.9504810 126.7637430 137.1413530 116.3395610 139.3389400
 137.0021300 117.2118410 139.7076800 136.2594890 115.9968420 139.1937340
 143.4642910 121.2571480 130.6454530 143.9038820 121.9995810 130.2309920
 143.4029800 121.4998050 131.5693490 138.9393880 122.2817310 141.5474550
 138.9109310 122.6860260 140.6802980 138.7758850 121.3527670 141.3846150
 148.9364670 107.5718220 124.9914330 148.6237330 107.6645050 125.8913400
 149.6977140 108.1499250 124.9411760 135.4546810 114.9378020 129.4491670
 135.3344410 115.6640110 128.8372940 135.1447700 114.1680930 128.9719580
 133.0932180 118.1093160 135.2560310 133.1712600 118.2441930 134.3116030
 133.7073860 117.4009050 135.4488430 134.3379810 119.8093350 131.6666490
 133.9307890 119.9507940 130.8120090 135.2292820 119.5253510 131.4637700
 150.2941950 120.2557260 140.0038730 150.4205010 120.0169140 139.0855910
 150.3363330 119.4241800 140.4760810 144.1558690 123.9585260 138.5733540
 144.6703360 123.8693270 139.3755970 143.3127770 124.3044960 138.8661450
 146.1313090 124.2440600 128.0017540 145.9714230 123.9543540 128.8999370
 145.9659800 123.4680730 127.4662770 138.6101470 124.0239130 129.7789160
 138.4343950 123.1074670 129.5656960 137.7557210 124.3826420 130.0186960
 145.8339220 121.7528160 126.5615540 145.1404380 121.7505450 125.9017820
 146.5762080 121.3287480 126.1309710 145.3989150 123.3790870 130.6364030
 145.8546100 122.5980250 130.9502650 145.7381670 124.0897690 131.1805210
 150.1465960 112.3089720 140.9688470 149.5310230 112.8169390 140.4403930
 149.8262380 111.4088050 140.9114410 133.1491700 119.1507330 137.7954770
 133.3122740 118.6812690 136.9774140 133.6144150 118.6430890 138.4603610
 137.9210470 108.2813090 132.8315340 137.4778620 109.0622630 132.4999860
 138.4795460 108.6042980 133.5386280 142.2080280 111.1481610 138.4350660
 141.7459650 111.3564630 139.2470600 141.8058390 110.3340960 138.1321330
 147.2084790 112.3690560 139.5647320 146.3578380 112.0696310 139.8856390
 147.0486580 112.6132570 138.6531140 144.3034500 113.8692310 141.6646110
 144.6287910 113.0356060 141.3248340 145.0914830 114.3920830 141.8124440
 141.0369290 107.9023790 127.7121170 140.4123470 107.8983660 128.4374480
 140.9499410 107.0354750 127.3157140 139.9586370 108.8260420 134.6904940
 140.2558700 109.7323250 134.6096960 140.5071930 108.3379200 134.0764510
 137.7124690 113.4046660 130.5596590 137.4865610 113.1883830 131.4643210
 136.9317220 113.8375120 130.2142560 144.9422450 113.4110030 129.1587240
 144.3431340 114.1345830 128.9750860 145.4902060 113.3486810 128.3763690
 140.1523900 114.3032240 141.2256860 140.0567500 113.3626970 141.0757260
 140.9955880 114.5247310 140.8304930 143.5487320 112.0473570 131.1890520
 143.9416890 112.3645770 130.3759210 143.9104170 111.1685450 131.3035040
 135.2834440 110.7145910 139.3790640 134.8897830 111.5621120 139.5863420
 134.5952840 110.0772280 139.5699280 141.8579490 110.7980880 142.4487380
 141.1677810 110.6053080 143.0833470 142.6011790 111.0815520 142.9811680
 132.5851490 108.6374370 133.4120720 132.2964540 109.2077230 134.1245700
 133.3297250 108.1578820 133.7751950 132.7721720 112.5794490 124.6223440
 132.6896390 113.5225250 124.7638430 132.4204780 112.4369400 123.7435790
 144.1342460 114.6379320 135.2841300 143.4023580 115.1466130 135.6331400
 143.7366800 113.8209300 134.9830080 140.5719850 111.3133520 133.6893790
 140.5755910 110.8723470 132.8398330 141.4670970 111.6350850 133.7965610
 136.4222230 111.1960010 132.6488000 136.0822280 111.6735240 133.4055050
 135.6599550 110.7425130 132.2889100 140.6340000 112.3145600 126.6800550
 140.7552820 112.2732080 127.6286370 140.2488510 113.1769750 126.5247280
 144.5968370 110.0913000 134.6964240 144.6141110 110.5421650 135.5406090
 144.3483950 109.1918640 134.9097680 139.6461500 114.6246740 126.0783850
 139.0778400 114.1764990 125.4519760 140.3550500 114.9839520 125.5449000
 148.0239120 107.5045180 140.5350620 148.3484890 106.7734840 141.0608600
 148.0595630 107.1858820 139.6331610 134.7230680 118.5258760 139.9550580
 134.3385470 117.8852430 140.5533540 135.0342870 119.2294880 140.5245310
 140.8727820 115.3735300 135.4359200 141.2397950 114.8993870 136.1820540
 140.6832880 116.2476870 135.7767540 133.7368310 110.1178990 131.5652670
 133.4515230 109.7534660 132.4031290 133.6747170 109.3859450 130.9515810
 138.6627190 114.4143940 137.7543410 138.3584260 115.2935920 137.9793770
 139.6173650 114.4743730 137.7900850 137.1908980 118.6204930 128.3510260
 136.4171240 118.0802550 128.1908980 137.9203610 118.1011540 128.0128020
 147.9496960 117.6170290 134.1436650 148.6696080 118.1125580 133.7532760
 147.7478780 116.9388180 133.4990520 143.4106900 109.0108250 128.2866040
 142.5971510 108.5121420 128.2111350 143.2168850 109.8506500 127.8702390
 143.3315760 117.6879350 140.0305650 143.2653070 116.7675020 139.7763240
 142.7020900 117.7854790 140.7450290 146.1255290 113.3827900 126.5828200
 147.0134910 113.6945130 126.4079540 146.0960380 112.5100150 126.1908780
 137.2346380 118.2885310 131.9889070 137.7525050 117.4853570 131.9345960
 136.7830400 118.2264450 132.8305900 142.1215880 119.5551590 127.2616370
 142.4631580 120.2993820 126.7659690 141.2928590 119.8682710 127.6241200
 134.7190920 115.2546680 138.9014770 134.3605860 115.9200530 139.4888110
 134.4245480 114.4230230 139.2727390 137.9204040 115.7130920 141.7854320
 137.6204180 115.8588100 140.8882140 138.6915280 115.1536210 141.6927710
 143.2632490 120.5099920 139.7809450 143.2777030 119.5780880 139.5628360
 142.5557590 120.5959680 140.4199220 148.3969560 114.6939740 126.0508060
 148.3133280 115.1253960 125.2004500 149.1163750 115.1538090 126.4834880
 149.4743700 117.1507260 139.1278030 148.7491890 117.7436040 138.9307420
 150.0019160 117.1430800 138.3291400 149.4256810 121.5482000 128.7790190
 148.7832970 120.8937620 129.0533910 149.0387470 121.9537090 128.0030860
 145.0043290 118.8767430 132.6261880 145.3567110 118.2795560 131.9663250
 144.1205620 118.5511660 132.7970130 141.0906570 119.6365120 130.0332290
 141.7777700 120.1834330 130.4139880 140.3038990 120.1805850 130.0681900
 133.2298970 115.2537940 125.5249370 134.0993820 115.5362740 125.8085290
 132.7389290 116.0673810 125.4098180 140.3933780 116.6411150 129.6457650
 140.8496560 117.4516400 129.8717840 140.0421990 116.3234290 130.4776140
 142.6966390 122.1517490 136.8749950 143.3408610 122.3576870 137.5523370
 143.0595830 121.3905890 136.4220800 136.2945560 106.9848800 130.1180170
 136.1660190 106.9766700 131.0665090 135.4707580 107.3231890 129.7671180
 143.9698470 120.1549840 135.5927400 144.6120700 119.4543000 135.7059570
 144.4947820 120.9348280 135.4124290 147.8154190 120.4398460 125.3166540
 147.5891770 119.7228900 125.9091180 147.4250390 120.1910900 124.4788290
 145.7436090 120.9544740 138.7963460 146.0792330 121.5411430 139.4741380
 144.8236430 120.8237450 139.0261250 133.5970220 124.4665320 126.0911000
 133.9567860 125.0654660 125.4368270 133.4562560 125.0125210 126.8646030
 133.2939490 108.7439920 139.5786870 132.5798010 108.9436840 140.1839480
 133.7134530 107.9679490 139.9501670 147.3970440 118.3570400 126.9780700
 147.1092140 118.8183090 127.7658580 148.1922610 117.8968170 127.2464920
 133.5812080 122.7320180 140.5653400 133.6903200 121.7914920 140.4248790
 132.9292640 122.9974930 139.9167130 141.5724670 121.0036070 141.9651520
 141.2521540 120.2845310 142.5097210 140.8983030 121.6791140 142.0387580
 139.6138840 121.8496520 126.9084670 139.6048940 122.5826210 126.2929180
 138.6937200 121.6028100 127.0011630 135.2145480 117.0711410 127.6531430
 134.6073430 117.8110310 127.6626730 135.6894830 117.1610770 126.8269630
 144.7878270 111.2362230 137.3288320 145.1559090 110.4157440 137.6567890
 143.9276470 111.2964120 137.7443970 148.1540300 110.1919170 128.1375880
 147.5253460 110.2964840 127.4234110 147.6592220 110.4115950 128.9269760
 142.5998440 121.9124760 125.5709860 142.7010420 121.7088750 124.6411840
 141.7000180 121.6583040 125.7757640 140.1224330 112.4705120 129.5533760
 139.4140480 112.9391460 129.9947370 140.4068810 111.8127130 130.1878950
 141.7480260 113.8901820 137.5526290 142.2465510 114.3647640 138.2178140
 141.8903210 112.9665340 137.7596320 144.1539760 109.1955780 130.9929550
 144.0307540 109.2141910 130.0439060 145.1024320 109.2434720 131.1127950
 141.2416550 124.4311080 130.2657530 141.4958050 124.3932470 129.3436900
 140.2929030 124.3044410 130.2585780 138.3259350 110.7790200 126.9284470
 139.1749880 111.2160350 126.8624660 137.9590620 111.0910460 127.7556530
 148.9547120 110.1069780 138.3954680 148.4520720 110.8475180 138.7348490
 149.7703780 110.4953780 138.0791470 147.2469130 115.3502960 131.8416040
 146.3059270 115.3653190 132.0163730 147.5613200 114.5638920 132.2876340
 137.2250770 117.0322560 125.4020000 137.9914040 116.9203920 125.9645430
 137.3025460 116.3360530 124.7496770 135.9197530 114.4647630 126.0852890
 136.0001120 113.5175140 126.1970290 136.8117280 114.7954510 126.1913550
 149.2494710 122.5211810 133.5170300 149.3742130 123.3442980 133.9894110
 150.1160270 122.3102540 133.1694450 136.7212240 124.6143020 133.1887430
 137.4574720 124.0658480 133.4596000 137.1053160 125.4799030 133.0493420
 133.6057720 120.6816590 129.0628940 132.6797500 120.9237730 129.0534350
 134.0714150 121.5090850 128.9413690 135.7270520 123.7989090 142.3773010
 136.5283250 124.1201140 142.7908410 135.2122340 123.4384670 143.0992920
 139.8314550 123.7873330 125.0113000 140.6243160 124.0762160 124.5594790
 139.3118900 123.3565500 124.3325480 144.5635150 119.9068960 142.3248420
 143.9573310 119.9300560 141.5844170 144.2589260 119.1752000 142.8615670
 145.9935520 123.6349250 140.9357830 146.9457270 123.5507270 140.8858070
 145.8463740 124.2990960 141.6091620 148.8844720 123.0143460 126.4349740
 148.5986230 122.6008600 125.6203920 148.6864270 123.9431170 126.3150260
 133.4468330 116.2862550 141.3209060 133.9507350 115.7069830 141.8925290
 132.7075750 116.5702780 141.8585430 140.3491950 119.0076740 124.8755350
 140.2442590 118.3929090 125.6016730 140.1816170 118.4842630 124.0918360
 140.5006270 117.6933540 140.8544580 139.7351940 118.2618540 140.7699250
 140.6822230 117.4009750 139.9612810 143.5894680 118.0696770 125.4797340
 143.0404780 118.5166070 126.1240080 144.2113940 117.5646020 126.0035010
 147.6429620 119.4238870 141.4119600 148.3839090 119.7614630 140.9087060
 146.8802300 119.5930930 140.8589370 135.4791410 114.4292140 142.2159130
 135.5196750 114.1306010 143.1244360 136.3336910 114.8299750 142.0566650
 139.2569800 117.0287690 127.3762640 139.6786220 116.8627560 128.2194030
 139.3820640 116.2187920 126.8817780 137.4197220 113.0084240 140.1833620
 136.8893680 112.5175190 139.5556960 138.0885290 113.4368440 139.6491550
 141.7697440 116.0525300 124.6239740 142.2903100 115.3374320 124.2580890
 142.4165840 116.6911170 124.9240250 146.3175280 117.4753700 139.9474810
 146.7316300 117.6298780 140.7965230 145.3826280 117.6008920 140.1100590
 146.7897450 114.8149860 141.9513960 147.3718220 114.0602180 141.8634440
 146.9659220 115.3457300 141.1745440 137.9069520 109.9746610 140.2630910
 137.8126390 109.3567360 139.5381780 137.3266910 110.7012900 140.0360820
 140.6730960 108.5319850 137.2958300 140.2248260 108.5544110 136.4503850
 140.0396160 108.1338870 137.8928600 141.0790510 117.4274180 137.9170740
 141.4978620 118.2706910 137.7446980 140.1599140 117.5646220 137.6877520
 143.4154410 115.1590360 139.3008580 143.5350620 114.5631500 140.0403420
 144.2748410 115.1960050 138.8809880 145.7542310 115.7127550 137.8771090
 145.2277530 116.2370170 137.2736230 146.0973650 116.3454940 138.5080820
 138.1528700 113.1020920 124.3220800 137.9517760 112.2388280 124.6834140
 137.9820750 113.0154280 123.3842400 138.9297930 123.7327190 139.0328470
 138.3919020 124.4573250 138.7137170 139.1831890 123.2557530 138.2425810
 140.1823180 111.7011710 140.5584400 140.7722870 111.3927560 141.2462220
 139.3643420 111.2291460 140.7144300 145.0016610 111.3177520 140.7917420
 144.3132130 110.6559060 140.7267410 145.7222630 110.8715790 141.2365880
 145.6317010 107.9129150 126.8507680 145.9119300 107.0697050 127.2067100
 144.8582740 108.1452260 127.3646430 136.9511500 110.2021540 124.3098680
 137.2537400 110.2088970 123.4017830 137.6906090 109.8519400 124.8066340
 141.7860140 124.9678400 139.2915120 141.7118840 125.8713540 139.5987490
 140.8838980 124.6490300 139.2637190 140.1696430 109.1456160 125.2954880
 139.8218430 108.4680150 124.7157330 140.3709200 108.6845670 126.1098270
 142.3345470 124.1336910 126.9141480 143.2296260 124.4721880 126.9360240
 142.3663100 123.4116320 126.2865760 135.9741630 119.5063960 125.1428480
 136.4116500 120.0493630 125.7986060 136.4589360 118.6810910 125.1524820
 133.1887430 122.2952990 132.5948740 133.5190440 121.4274050 132.3627380
 133.6178430 122.5011510 133.4253700 137.7849350 120.6262000 130.2550710
 137.4844890 120.5026970 131.1554620 137.6786840 119.7670590 129.8466440
 133.6777640 123.1623580 135.3330370 133.2408630 123.3424380 136.1654520
 134.2455320 123.9198200 135.1912090 149.3139820 122.6640580 139.6207680
 148.7141810 122.7233140 138.8771600 149.4433720 121.7245560 139.7504530
 133.5102070 115.6743810 131.6919250 132.8550910 115.4055450 131.0478950
 134.3480020 115.5648290 131.2421230 147.9991460 119.3892560 137.7183840
 147.1851300 119.8189720 137.9809630 148.4065660 120.0010970 137.1052890
 150.0616900 117.4440250 124.6184110 150.3365740 118.3519130 124.4903330
 149.8727640 117.3802780 125.5546100 146.4592510 110.4685100 125.9137740
 146.8777390 110.2816080 125.0734400 146.1528570 109.6164150 126.2240670
 149.9582240 115.3809240 129.6113540 149.5825840 114.6137170 129.1794830
 149.2285360 115.7631940 130.0988470 134.5478000 116.0596380 136.2322590
 134.9151040 115.9723780 137.1118610 133.9788820 115.2962930 136.1329450
 149.3481860 114.5280760 139.2453060 149.1167950 114.2993510 138.3451010
 149.6086410 115.4480310 139.1997950 134.0994000 112.9705470 140.1381010
 133.2050050 112.9372230 140.4774720 134.6391550 113.1692260 140.9032260
 147.7869930 109.7537190 142.0232760 148.6640110 109.7620590 142.4066760
 147.7990770 109.0168030 141.4125110 132.7240150 112.8842740 127.6344580
 131.8204230 113.1472940 127.4596240 133.2080770 113.1553910 126.8544540
 149.2333200 113.6066730 132.9120780 149.7570680 113.1129380 132.2810950
 149.8192620 113.7417090 133.6568350 149.4122920 113.6906600 136.4340330
 148.4625630 113.6570140 136.5485320 149.5935930 114.6006710 136.1990100
 135.2667360 111.9408280 125.5438960 135.9759060 111.5191500 125.0586240
 134.5507300 112.0083510 124.9122310 134.9141520 107.9947610 124.5841610
 135.6369650 108.5356550 124.9022830 135.1866040 107.7211030 123.7083150
 148.7233170 112.8640080 128.8513190 149.2192290 112.6310950 129.6362070
 148.5249240 112.0251920 128.4350830 134.6033710 107.2453800 134.4864230
 135.2509900 106.6951180 134.0459390 135.0235550 107.4996950 135.3080040
 148.4986050 107.4395160 137.8433870 149.1358270 108.0529300 138.2093060
 148.6460940 107.4755820 136.8983100 148.0567510 124.1411160 131.2452110
 148.6526580 123.8195730 130.5686530 148.3145660 123.6682980 132.0365380
 134.3565710 107.4009470 137.2289550 134.0080530 107.8573290 137.9947730
 134.0253410 106.5066600 137.3111980 135.9630080 120.5729070 141.3942740
 135.9199710 120.2021980 142.2757200 136.0941090 121.5106640 141.5344560
 139.6636110 122.1288660 136.9952460 139.4227470 122.3963220 136.1082980
 140.6038750 122.2994390 137.0503320 141.8690530 108.5921350 140.7508970
 141.8079420 109.1843180 141.5004380 142.8090910 108.4847310 140.6059230
 144.5065090 108.2491410 140.3901260 145.1205500 108.5670700 139.7282340
 145.0514650 107.7640000 141.0097120 135.0286350 106.9285670 140.5040320
 135.5769340 106.7473720 139.7406430 135.0941660 106.1379780 141.0396630
 135.8018110 123.5191320 138.5140520 135.2078430 123.3876020 139.2530560
 135.7941950 122.6829460 138.0482620 145.2473130 106.8123550 136.7170550
 144.3732970 107.1458660 136.5143480 145.1383880 106.3396730 137.5422420
 146.1545110 109.0194420 138.1012270 145.8258470 108.2046180 137.7214000
 147.1027410 108.9764230 137.9777960 148.6079720 124.7906460 135.0749840
 148.1482690 125.5422270 134.7007860 147.9792180 124.0712930 135.0164640
 135.4330340 120.8849700 137.4648560 134.7064400 120.2654990 137.3974510
 135.4939490 121.2790310 136.5946640 139.0375440 123.0994700 134.2497970
 139.5540460 122.4882060 133.7246230 139.6872820 123.6023480 134.7408980
 141.7770940 123.9903190 135.0766950 142.0648750 123.7357490 134.1999960
 142.2894160 123.4380550 135.6672520 142.9947950 107.7293390 135.6563460
 142.2119740 108.2038890 135.9360220 142.7010880 106.8248220 135.5476640
 147.5469020 108.4316490 133.7012550 147.9877110 108.3761590 132.8534150
 147.2776610 109.3474500 133.7722730 149.4107590 108.0631730 131.7121370
 149.3495990 107.1192950 131.5652390 150.1899620 108.1711820 132.2574830
 133.7160340 124.2024090 130.6745320 133.5482380 123.5694770 131.3727210
 132.8494850 124.4083490 130.3239510 134.3388360 108.0340870 128.1777180
 135.0967720 108.1469750 127.6041210 133.8765530 108.8710070 128.1320610
 140.8802170 110.1480140 131.1679490 140.0676680 109.7737030 130.8275370
 141.3843810 109.3925220 131.4700680 145.3827150 106.8122590 132.4062560
 145.9856520 107.3842800 132.8811080 144.6420140 107.3762030 132.1836460
 148.5261750 107.2144150 127.6802840 148.7212380 108.1127600 127.9470270
 147.7391620 106.9831230 128.1735790 135.3223040 122.8957320 128.1195460
 134.7970660 123.2765350 127.4157420 135.2467620 123.5208090 128.8405170
 136.7113510 108.5604920 126.7179150 137.2406270 107.7734720 126.5887100
 137.3441830 109.2396110 126.9514680 138.9051350 108.2980060 129.7724540
 138.2754090 107.5967370 129.9394670 138.3656490 109.0584190 129.5557700
 141.8443300 124.9119290 142.4435150 142.7710610 124.6763560 142.4871110
 141.8293730 125.7391290 141.9621180 150.0788360 124.4544860 129.4409400
 150.2540550 123.7682600 128.7970320 149.3809930 124.9791910 129.0486070
 139.0306910 107.5764040 142.2077030 138.7491180 108.0797640 141.4437850
 139.4126610 106.7785790 141.8419160 137.9216010 124.8439700 126.9944710
 138.6534830 124.5598980 126.4468600 138.1809680 124.6052980 127.8844090
 137.0830800 120.9604430 126.9991040 136.4539680 121.4289530 127.5476870
 137.1978630 120.1153650 127.4337230 145.6322370 106.9917620 142.7857500
 145.5187820 107.3112230 143.6809020 146.4492110 107.3930130 142.4894780
 148.4120860 124.1389150 142.2676190 149.2046180 123.6438380 142.0602150
 148.7054010 124.8179290 142.8751800 144.5380520 115.0110090 113.1492240
 144.4574570 114.0964700 112.8783950 144.1244940 115.5077160 112.4431950
 142.6698560 116.7889110 115.0301510 141.8940660 116.3089550 115.3200080
 143.3211490 116.1094760 114.8557670 136.6864390 117.1008920 115.9077270
 135.8549270 116.8457630 116.3073780 137.2945370 117.1719690 116.6435190
 146.6905990 121.1949300 113.8100640 146.2287520 120.4236540 114.1387810
 147.5031540 121.2215370 114.3153090 136.6665650 121.1349010 116.1035290
 136.9693690 120.2446750 115.9245510 137.4109240 121.6919230 115.8757540
 135.0956340 112.0610810 109.6919660 134.2073040 112.4026780 109.5899540
 135.3797530 111.8611130 108.8000490 133.0589350 114.6616460 115.5759360
 133.6305460 113.8938660 115.5763000 133.0590890 114.9605220 114.6665970
 142.9169300 123.4807310 113.4304630 142.2980740 123.9364810 112.8599070
 143.7721080 123.6358770 113.0294330 142.1107550 119.4646300 115.0371670
 142.0415830 118.5236240 114.8760800 142.8727410 119.5547710 115.6094240
 134.3014220 110.0700820 117.3628290 134.1217060 109.1726570 117.6431050
 133.8994300 110.6172690 118.0375240 143.1412720 112.2716680 115.2640600
 143.5177540 111.3988560 115.1514270 143.0432230 112.6075380 114.3731040
 137.2717730 110.6442310 110.7258040 137.3784480 111.5446040 111.0326800
 136.3610090 110.5960280 110.4352690 146.9236840 109.7667120 112.1968940
 147.7446460 109.2763690 112.2394420 146.9570920 110.3564780 112.9500780
 134.9200890 112.5661320 115.9710630 135.6011000 112.8299690 116.5898030
 134.6048940 111.7262190 116.3048640 139.1125460 113.6128680 115.0583220
 139.6203680 114.1109650 115.6988240 139.6438700 112.8363880 114.8822580
 137.3961560 108.2527240 119.3246640 137.3980000 108.7699630 118.5192540
 136.5665870 107.7757420 119.3016570 143.7832650 118.3646550 110.8236540
 143.1649920 118.8296000 110.2599260 144.2955900 119.0574030 111.2406050
 138.6464410 117.8922420 117.5020140 138.3133790 118.5191340 118.1441210
 138.8231090 118.4184300 116.7221810 147.1598320 111.7067500 114.9696480
 146.4553890 111.9952390 115.5499590 147.5210480 112.5167610 114.6096040
 137.0776890 109.9637200 117.3317090 137.4193700 110.8079250 117.0370960
 136.1392700 110.1120940 117.4482430 137.8583510 119.8603220 119.3169320
 138.4757510 120.5354300 119.0353770 136.9976630 120.2691200 119.2256820
 133.1515850 119.0503080 108.1976170 132.7743830 119.5390180 107.4661070
 133.4088920 119.7228360 108.8282700 148.7761100 121.3242630 117.2323960
 148.0924620 121.9941740 117.2240630 149.3155390 121.5223280 116.4668820
 140.7604780 107.4519470 113.6561680 141.0679760 106.8966360 112.9397180
 139.8305480 107.5863930 113.4734670 146.3119840 123.1686760 115.9469140
 146.3247000 122.7649050 115.0791400 145.7595060 123.9434050 115.8430570
 147.6065260 119.8902980 111.0359310 147.4961590 118.9477310 111.1608730
 147.6033510 120.2518620 111.9222070 145.7105280 118.0716600 117.2751750
 146.1274070 117.8576710 116.4405210 146.4345100 118.3289390 117.8460370
 143.1485540 115.5168300 110.3921800 142.2214820 115.4505680 110.6210270
 143.3010360 116.4548430 110.2777040 143.1354620 111.7885300 107.3888960
 142.1958290 111.9499260 107.4741420 143.4537880 112.5070980 106.8424950
 149.6567380 116.4703820 117.3667990 148.8286010 116.5396910 116.8918120
 150.2517860 117.0558130 116.8983820 147.1782830 117.0788600 110.8957050
 146.5595250 116.7408150 110.2483350 147.1607280 116.4348360 111.6036240
 146.6209390 113.2573140 118.3122860 146.2080570 114.0826850 118.5662850
 145.8885340 112.6718180 118.1199220 138.7542180 116.0433040 113.1741530
 138.3499180 115.3310290 112.6787430 138.8405300 115.6986280 114.0629570
 139.2223880 119.7300600 115.3380740 138.9252170 119.1246070 114.6588520
 140.1723700 119.7677910 115.2270100 137.4670800 112.8176250 116.9540570
 138.0185390 112.9271590 116.1793820 137.9814310 113.1913850 117.6695800
 147.3109490 123.3032470 119.0003840 146.8340050 124.1104660 118.8076450
 146.6271280 122.6510800 119.1530050 138.3142310 119.4682290 121.9888540
 137.4170840 119.6922260 122.2361940 138.3395180 119.5917230 121.0399940
 145.3547530 116.3175410 107.9029800 145.7940810 115.4797840 107.7567620
 146.0675950 116.9504810 107.9893940 137.1413530 116.3395610 120.5645910
 137.0021300 117.2118410 120.9333310 136.2594890 115.9968420 120.4193850
 143.4642910 121.2571480 111.8711040 143.9038820 121.9995810 111.4566430
 143.4029800 121.4998050 112.7950000 138.9393880 122.2817310 122.7731060
 138.9109310 122.6860260 121.9059490 138.7758850 121.3527670 122.6102660
 148.9364670 107.5718220 106.2170840 148.6237330 107.6645050 107.1169910
 149.6977140 108.1499250 106.1668270 135.4546810 114.9378020 110.6748180
 135.3344410 115.6640110 110.0629450 135.1447700 114.1680930 110.1976090
 133.0932180 118.1093160 116.4816820 133.1712600 118.2441930 115.5372540
 133.7073860 117.4009050 116.6744940 134.3379810 119.8093350 112.8923000
 133.9307890 119.9507940 112.0376600 135.2292820 119.5253510 112.6894210
 150.2941950 120.2557260 121.2295240 150.4205010 120.0169140 120.3112420
 150.3363330 119.4241800 121.7017320 144.1558690 123.9585260 119.7990050
 144.6703360 123.8693270 120.6012480 143.3127770 124.3044960 120.0917960
 146.1313090 124.2440600 109.2274050 145.9714230 123.9543540 110.1255880
 145.9659800 123.4680730 108.6919280 138.6101470 124.0239130 111.0045670
 138.4343950 123.1074670 110.7913470 137.7557210 124.3826420 111.2443470
 145.8339220 121.7528160 107.7872050 145.1404380 121.7505450 107.1274330
 146.5762080 121.3287480 107.3566220 145.3989150 123.3790870 111.8620540
 145.8546100 122.5980250 112.1759160 145.7381670 124.0897690 112.4061720
 150.1465960 112.3089720 122.1944980 149.5310230 112.8169390 121.6660440
 149.8262380 111.4088050 122.1370920 133.1491700 119.1507330 119.0211280
 133.3122740 118.6812690 118.2030650 133.6144150 118.6430890 119.6860120
 137.9210470 108.2813090 114.0571850 137.4778620 109.0622630 113.7256370
 138.4795460 108.6042980 114.7642790 142.2080280 111.1481610 119.6607170
 141.7459650 111.3564630 120.4727110 141.8058390 110.3340960 119.3577840
 147.2084790 112.3690560 120.7903830 146.3578380 112.0696310 121.1112900
 147.0486580 112.6132570 119.8787650 144.3034500 113.8692310 122.8902620
 144.6287910 113.0356060 122.5504850 145.0914830 114.3920830 123.0380950
 141.0369290 107.9023790 108.9377680 140.4123470 107.8983660 109.6630990
 140.9499410 107.0354750 108.5413650 139.9586370 108.8260420 115.9161450
 140.2558700 109.7323250 115.8353470 140.5071930 108.3379200 115.3021020
 137.7124690 113.4046660 111.7853100 137.4865610 113.1883830 112.6899720
 136.9317220 113.8375120 111.4399070 144.9422450 113.4110030 110.3843750
 144.3431340 114.1345830 110.2007370 145.4902060 113.3486810 109.6020200
 140.1523900 114.3032240 122.4513370 140.0567500 113.3626970 122.3013770
 140.9955880 114.5247310 122.0561440 143.5487320 112.0473570 112.4147030
 143.9416890 112.3645770 111.6015720 143.9104170 111.1685450 112.5291550
 135.2834440 110.7145910 120.6047150 134.8897830 111.5621120 120.8119930
 134.5952840 110.0772280 120.7955790 141.8579490 110.7980880 123.6743890
 141.1677810 110.6053080 124.3089980 142.6011790 111.0815520 124.2068190
 132.5851490 108.6374370 114.6377230 132.2964540 109.2077230 115.3502210
 133.3297250 108.1578820 115.0008460 132.7721720 112.5794490 105.8479950
 132.6896390 113.5225250 105.9894940 132.4204780 112.4369400 104.9692300
 144.1342460 114.6379320 116.5097810 143.4023580 115.1466130 116.8587910
 143.7366800 113.8209300 116.2086590 140.5719850 111.3133520 114.9150300
 140.5755910 110.8723470 114.0654840 141.4670970 111.6350850 115.0222120
 136.4222230 111.1960010 113.8744510 136.0822280 111.6735240 114.6311560
 135.6599550 110.7425130 113.5145610 140.6340000 112.3145600 107.9057060
 140.7552820 112.2732080 108.8542880 140.2488510 113.1769750 107.7503790
 144.5968370 110.0913000 115.9220750 144.6141110 110.5421650 116.7662600
 144.3483950 109.1918640 116.1354190 139.6461500 114.6246740 107.3040360
 139.0778400 114.1764990 106.6776270 140.3550500 114.9839520 106.7705510
 148.0239120 107.5045180 121.7607130 148.3484890 106.7734840 122.2865110
 148.0595630 107.1858820 120.8588120 134.7230680 118.5258760 121.1807090
 134.3385470 117.8852430 121.7790050 135.0342870 119.2294880 121.7501820
 140.8727820 115.3735300 116.6615710 141.2397950 114.8993870 117.4077050
 140.6832880 116.2476870 117.0024050 133.7368310 110.1178990 112.7909180
 133.4515230 109.7534660 113.6287800 133.6747170 109.3859450 112.1772320
 138.6627190 114.4143940 118.9799920 138.3584260 115.2935920 119.2050280
 139.6173650 114.4743730 119.0157360 137.1908980 118.6204930 109.5766770
 136.4171240 118.0802550 109.4165490 137.9203610 118.1011540 109.2384530
 147.9496960 117.6170290 115.3693160 148.6696080 118.1125580 114.9789270
 147.7478780 116.9388180 114.7247030 143.4106900 109.0108250 109.5122550
 142.5971510 108.5121420 109.4367860 143.2168850 109.8506500 109.0958900
 143.3315760 117.6879350 121.2562160 143.2653070 116.7675020 121.0019750
 142.7020900 117.7854790 121.9706800 146.1255290 113.3827900 107.8084710
 147.0134910 113.6945130 107.6336050 146.0960380 112.5100150 107.4165290
 137.2346380 118.2885310 113.2145580 137.7525050 117.4853570 113.1602470
 136.7830400 118.2264450 114.0562410 142.1215880 119.5551590 108.4872880
 142.4631580 120.2993820 107.9916200 141.2928590 119.8682710 108.8497710
 134.7190920 115.2546680 120.1271280 134.3605860 115.9200530 120.7144620
 134.4245480 114.4230230 120.4983900 137.9204040 115.7130920 123.0110830
 137.6204180 115.8588100 122.1138650 138.6915280 115.1536210 122.9184220
 143.2632490 120.5099920 121.0065960 143.2777030 119.5780880 120.7884870
 142.5557590 120.5959680 121.6455730 148.3969560 114.6939740 107.2764570
 148.3133280 115.1253960 106.4261010 149.1163750 115.1538090 107.7091390
 149.4743700 117.1507260 120.3534540 148.7491890 117.7436040 120.1563930
 150.0019160 117.1430800 119.5547910 149.4256810 121.5482000 110.0046700
 148.7832970 120.8937620 110.2790420 149.0387470 121.9537090 109.2287370
 145.0043290 118.8767430 113.8518390 145.3567110 118.2795560 113.1919760
 144.1205620 118.5511660 114.0226640 141.0906570 119.6365120 111.2588800
 141.7777700 120.1834330 111.6396390 140.3038990 120.1805850 111.2938410
 133.2298970 115.2537940 106.7505880 134.0993820 115.5362740 107.0341800
 132.7389290 116.0673810 106.6354690 140.3933780 116.6411150 110.8714160
 140.8496560 117.4516400 111.0974350 140.0421990 116.3234290 111.7032650
 142.6966390 122.1517490 118.1006460 143.3408610 122.3576870 118.7779880
 143.0595830 121.3905890 117.6477310 136.2945560 106.9848800 111.3436680
 136.1660190 106.9766700 112.2921600 135.4707580 107.3231890 110.9927690
 143.9698470 120.1549840 116.8183910 144.6120700 119.4543000 116.9316080
 144.4947820 120.9348280 116.6380800 147.8154190 120.4398460 106.5423050
 147.5891770 119.7228900 107.1347690 147.4250390 120.1910900 105.7044800
 145.7436090 120.9544740 120.0219970 146.0792330 121.5411430 120.6997890
 144.8236430 120.8237450 120.2517760 133.5970220 124.4665320 107.3167510
 133.9567860 125.0654660 106.6624780 133.4562560 125.0125210 108.0902540
 133.2939490 108.7439920 120.8043380 132.5798010 108.9436840 121.4095990
 133.7134530 107.9679490 121.1758180 147.3970440 118.3570400 108.2037210
 147.1092140 118.8183090 108.9915090 148.1922610 117.8968170 108.4721430
 133.5812080 122.7320180 121.7909910 133.6903200 121.7914920 121.6505300
 132.9292640 122.9974930 121.1423640 141.5724670 121.0036070 123.1908030
 141.2521540 120.2845310 123.7353720 140.8983030 121.6791140 123.2644090
 139.6138840 121.8496520 108.1341180 139.6048940 122.5826210 107.5185690
 138.6937200 121.6028100 108.2268140 135.2145480 117.0711410 108.8787940
 134.6073430 117.8110310 108.8883240 135.6894830 117.1610770 108.0526140
 144.7878270 111.2362230 118.5544830 145.1559090 110.4157440 118.8824400
 143.9276470 111.2964120 118.9700480 148.1540300 110.1919170 109.3632390
 147.5253460 110.2964840 108.6490620 147.6592220 110.4115950 110.1526270
 142.5998440 121.9124760 106.7966370 142.7010420 121.7088750 105.8668350
 141.7000180 121.6583040 107.0014150 140.1224330 112.4705120 110.7790270
 139.4140480 112.9391460 111.2203880 140.4068810 111.8127130 111.4135460
 141.7480260 113.8901820 118.7782800 142.2465510 114.3647640 119.4434650
 141.8903210 112.9665340 118.9852830 144.1539760 109.1955780 112.2186060
 144.0307540 109.2141910 111.2695570 145.1024320 109.2434720 112.3384460
 141.2416550 124.4311080 111.4914040 141.4958050 124.3932470 110.5693410
 140.2929030 124.3044410 111.4842290 138.3259350 110.7790200 108.1540980
 139.1749880 111.2160350 108.0881170 137.9590620 111.0910460 108.9813040
 148.9547120 110.1069780 119.6211190 148.4520720 110.8475180 119.9605000
 149.7703780 110.4953780 119.3047980 147.2469130 115.3502960 113.0672550
 146.3059270 115.3653190 113.2420240 147.5613200 114.5638920 113.5132850
 137.2250770 117.0322560 106.6276510 137.9914040 116.9203920 107.1901940
 137.3025460 116.3360530 105.9753280 135.9197530 114.4647630 107.3109400
 136.0001120 113.5175140 107.4226800 136.8117280 114.7954510 107.4170060
 149.2494710 122.5211810 114.7426810 149.3742130 123.3442980 115.2150620
 150.1160270 122.3102540 114.3950960 136.7212240 124.6143020 114.4143940
 137.4574720 124.0658480 114.6852510 137.1053160 125.4799030 114.2749930
 133.6057720 120.6816590 110.2885450 132.6797500 120.9237730 110.2790860
 134.0714150 121.5090850 110.1670200 135.7270520 123.7989090 123.6029520
 136.5283250 124.1201140 124.0164920 135.2122340 123.4384670 124.3249430
 139.8314550 123.7873330 106.2369510 140.6243160 124.0762160 105.7851300
 139.3118900 123.3565500 105.5581990 144.5635150 119.9068960 123.5504930
 143.9573310 119.9300560 122.8100680 144.2589260 119.1752000 124.0872180
 145.9935520 123.6349250 122.1614340 146.9457270 123.5507270 122.1114580
 145.8463740 124.2990960 122.8348130 148.8844720 123.0143460 107.6606250
 148.5986230 122.6008600 106.8460430 148.6864270 123.9431170 107.5406770
 133.4468330 116.2862550 122.5465570 133.9507350 115.7069830 123.1181800
 132.7075750 116.5702780 123.0841940 140.3491950 119.0076740 106.1011860
 140.2442590 118.3929090 106.8273240 140.1816170 118.4842630 105.3174870
 140.5006270 117.6933540 122.0801090 139.7351940 118.2618540 121.9955760
 140.6822230 117.4009750 121.1869320 143.5894680 118.0696770 106.7053850
 143.0404780 118.5166070 107.3496590 144.2113940 117.5646020 107.2291520
 147.6429620 119.4238870 122.6376110 148.3839090 119.7614630 122.1343570
 146.8802300 119.5930930 122.0845880 135.4791410 114.4292140 123.4415640
 135.5196750 114.1306010 124.3500870 136.3336910 114.8299750 123.2823160
 139.2569800 117.0287690 108.6019150 139.6786220 116.8627560 109.4450540
 139.3820640 116.2187920 108.1074290 137.4197220 113.0084240 121.4090130
 136.8893680 112.5175190 120.7813470 138.0885290 113.4368440 120.8748060
 141.7697440 116.0525300 105.8496250 142.2903100 115.3374320 105.4837400
 142.4165840 116.6911170 106.1496760 146.3175280 117.4753700 121.1731320
 146.7316300 117.6298780 122.0221740 145.3826280 117.6008920 121.3357100
 146.7897450 114.8149860 123.1770470 147.3718220 114.0602180 123.0890950
 146.9659220 115.3457300 122.4001950 137.9069520 109.9746610 121.4887420
 137.8126390 109.3567360 120.7638290 137.3266910 110.7012900 121.2617330
 140.6730960 108.5319850 118.5214810 140.2248260 108.5544110 117.6760360
 140.0396160 108.1338870 119.1185110 141.0790510 117.4274180 119.1427250
 141.4978620 118.2706910 118.9703490 140.1599140 117.5646220 118.9134030
 143.4154410 115.1590360 120.5265090 143.5350620 114.5631500 121.2659930
 144.2748410 115.1960050 120.1066390 145.7542310 115.7127550 119.1027600
 145.2277530 116.2370170 118.4992740 146.0973650 116.3454940 119.7337330
 138.1528700 113.1020920 105.5477310 137.9517760 112.2388280 105.9090650
 137.9820750 113.0154280 104.6098910 138.9297930 123.7327190 120.2584980
 138.3919020 124.4573250 119.9393680 139.1831890 123.2557530 119.4682320
 140.1823180 111.7011710 121.7840910 140.7722870 111.3927560 122.4718730
 139.3643420 111.2291460 121.9400810 145.0016610 111.3177520 122.0173930
 144.3132130 110.6559060 121.9523920 145.7222630 110.8715790 122.4622390
 145.6317010 107.9129150 108.0764190 145.9119300 107.0697050 108.4323610
 144.8582740 108.1452260 108.5902940 136.9511500 110.2021540 105.5355190
 137.2537400 110.2088970 104.6274340 137.6906090 109.8519400 106.0322850
 141.7860140 124.9678400 120.5171630 141.7118840 125.8713540 120.8244000
 140.8838980 124.6490300 120.4893700 140.1696430 109.1456160 106.5211390
 139.8218430 108.4680150 105.9413840 140.3709200 108.6845670 107.3354780
 142.3345470 124.1336910 108.1397990 143.2296260 124.4721880 108.1616750
 142.3663100 123.4116320 107.5122270 135.9741630 119.5063960 106.3684990
 136.4116500 120.0493630 107.0242570 136.4589360 118.6810910 106.3781330
 133.1887430 122.2952990 113.8205250 133.5190440 121.4274050 113.5883890
 133.6178430 122.5011510 114.6510210 137.7849350 120.6262000 111.4807220
 137.4844890 120.5026970 112.3811130 137.6786840 119.7670590 111.0722950
 133.6777640 123.1623580 116.5586880 133.2408630 123.3424380 117.3911030
 134.2455320 123.9198200 116.4168600 149.3139820 122.6640580 120.8464190
 148.7141810 122.7233140 120.1028110 149.4433720 121.7245560 120.9761040
 133.5102070 115.6743810 112.9175760 132.8550910 115.4055450 112.2735460
 134.3480020 115.5648290 112.4677740 147.9991460 119.3892560 118.9440350
 147.1851300 119.8189720 119.2066140 148.4065660 120.0010970 118.3309400
 150.0616900 117.4440250 105.8440620 150.3365740 118.3519130 105.7159840
 149.8727640 117.3802780 106.7802610 146.4592510 110.4685100 107.1394250
 146.8777390 110.2816080 106.2990910 146.1528570 109.6164150 107.4497180
 149.9582240 115.3809240 110.8370050 149.5825840 114.6137170 110.4051340
 149.2285360 115.7631940 111.3244980 134.5478000 116.0596380 117.4579100
 134.9151040 115.9723780 118.3375120 133.9788820 115.2962930 117.3585960
 149.3481860 114.5280760 120.4709570 149.1167950 114.2993510 119.5707520
 149.6086410 115.4480310 120.4254460 134.0994000 112.9705470 121.3637520
 133.2050050 112.9372230 121.7031230 134.6391550 113.1692260 122.1288770
 147.7869930 109.7537190 123.2489270 148.6640110 109.7620590 123.6323270
 147.7990770 109.0168030 122.6381620 132.7240150 112.8842740 108.8601090
 131.8204230 113.1472940 108.6852750 133.2080770 113.1553910 108.0801050
 149.2333200 113.6066730 114.1377290 149.7570680 113.1129380 113.5067460
 149.8192620 113.7417090 114.8824860 149.4122920 113.6906600 117.6596840
 148.4625630 113.6570140 117.7741830 149.5935930 114.6006710 117.4246610
 135.2667360 111.9408280 106.7695470 135.9759060 111.5191500 106.2842750
 134.5507300 112.0083510 106.1378820 134.9141520 107.9947610 105.8098120
 135.6369650 108.5356550 106.1279340 135.1866040 107.7211030 104.9339660
 148.7233170 112.8640080 110.0769700 149.2192290 112.6310950 110.8618580
 148.5249240 112.0251920 109.6607340 134.6033710 107.2453800 115.7120740
 135.2509900 106.6951180 115.2715900 135.0235550 107.4996950 116.5336550
 148.4986050 107.4395160 119.0690380 149.1358270 108.0529300 119.4349570
 148.6460940 107.4755820 118.1239610 148.0567510 124.1411160 112.4708620
 148.6526580 123.8195730 111.7943040 148.3145660 123.6682980 113.2621890
 134.3565710 107.4009470 118.4546060 134.0080530 107.8573290 119.2204240
 134.0253410 106.5066600 118.5368490 135.9630080 120.5729070 122.6199250
 135.9199710 120.2021980 123.5013710 136.0941090 121.5106640 122.7601070
 139.6636110 122.1288660 118.2208970 139.4227470 122.3963220 117.3339490
 140.6038750 122.2994390 118.2759830 141.8690530 108.5921350 121.9765480
 141.8079420 109.1843180 122.7260890 142.8090910 108.4847310 121.8315740
 144.5065090 108.2491410 121.6157770 145.1205500 108.5670700 120.9538850
 145.0514650 107.7640000 122.2353630 135.0286350 106.9285670 121.7296830
 135.5769340 106.7473720 120.9662940 135.0941660 106.1379780 122.2653140
 135.8018110 123.5191320 119.7397030 135.2078430 123.3876020 120.4787070
 135.7941950 122.6829460 119.2739130 145.2473130 106.8123550 117.9427060
 144.3732970 107.1458660 117.7399990 145.1383880 106.3396730 118.7678930
 146.1545110 109.0194420 119.3268780 145.8258470 108.2046180 118.9470510
 147.1027410 108.9764230 119.2034470 148.6079720 124.7906460 116.3006350
 148.1482690 125.5422270 115.9264370 147.9792180 124.0712930 116.2421150
 135.4330340 120.8849700 118.6905070 134.7064400 120.2654990 118.6231020
 135.4939490 121.2790310 117.8203150 139.0375440 123.0994700 115.4754480
 139.5540460 122.4882060 114.9502740 139.6872820 123.6023480 115.9665490
 141.7770940 123.9903190 116.3023460 142.0648750 123.7357490 115.4256470
 142.2894160 123.4380550 116.8929030 142.9947950 107.7293390 116.8819970
 142.2119740 108.2038890 117.1616730 142.7010880 106.8248220 116.7733150
 147.5469020 108.4316490 114.9269060 147.9877110 108.3761590 114.0790660
 147.2776610 109.3474500 114.9979240 149.4107590 108.0631730 112.9377880
 149.3495990 107.1192950 112.7908900 150.1899620 108.1711820 113.4831340
 133.7160340 124.2024090 111.9001830 133.5482380 123.5694770 112.5983720
 132.8494850 124.4083490 111.5496020 134.3388360 108.0340870 109.4033690
 135.0967720 108.1469750 108.8297720 133.8765530 108.8710070 109.3577120
 140.8802170 110.1480140 112.3936000 140.0676680 109.7737030 112.0531880
 141.3843810 109.3925220 112.6957190 145.3827150 106.8122590 113.6319070
 145.9856520 107.3842800 114.1067590 144.6420140 107.3762030 113.4092970
 148.5261750 107.2144150 108.9059350 148.7212380 108.1127600 109.1726780
 147.7391620 106.9831230 109.3992300 135.3223040 122.8957320 109.3451970
 134.7970660 123.2765350 108.6413930 135.2467620 123.5208090 110.0661680
 136.7113510 108.5604920 107.9435660 137.2406270 107.7734720 107.8143610
 137.3441830 109.2396110 108.1771190 138.9051350 108.2980060 110.9981050
 138.2754090 107.5967370 111.1651180 138.3656490 109.0584190 110.7814210
 141.8443300 124.9119290 123.6691660 142.7710610 124.6763560 123.7127620
 141.8293730 125.7391290 123.1877690 150.0788360 124.4544860 110.6665910
 150.2540550 123.7682600 110.0226830 149.3809930 124.9791910 110.2742580
 139.0306910 107.5764040 123.4333540 138.7491180 108.0797640 122.6694360
 139.4126610 106.7785790 123.0675670 137.9216010 124.8439700 108.2201220
 138.6534830 124.5598980 107.6725110 138.1809680 124.6052980 109.1100600
 137.0830800 120.9604430 108.2247550 136.4539680 121.4289530 108.7733380
 137.1978630 120.1153650 108.6593740 145.6322370 106.9917620 124.0114010
 145.5187820 107.3112230 124.9065530 146.4492110 107.3930130 123.7151290
 148.4120860 124.1389150 123.4932700 149.2046180 123.6438380 123.2858660
 148.7054010 124.8179290 124.1008310 144.5380520 115.0110090  94.3748750
 144.4574570 114.0964700  94.1040460 144.1244940 115.5077160  93.6688460
 142.6698560 116.7889110  96.2558020 141.8940660 116.3089550  96.5456590
 143.3211490 116.1094760  96.0814180 136.6864390 117.1008920  97.1333780
 135.8549270 116.8457630  97.5330290 137.2945370 117.1719690  97.8691700
 146.6905990 121.1949300  95.0357150 146.2287520 120.4236540  95.3644320
 147.5031540 121.2215370  95.5409600 136.6665650 121.1349010  97.3291800
 136.9693690 120.2446750  97.1502020 137.4109240 121.6919230  97.1014050
 135.0956340 112.0610810  90.9176170 134.2073040 112.4026780  90.8156050
 135.3797530 111.8611130  90.0257000 133.0589350 114.6616460  96.8015870
 133.6305460 113.8938660  96.8019510 133.0590890 114.9605220  95.8922480
 142.9169300 123.4807310  94.6561140 142.2980740 123.9364810  94.0855580
 143.7721080 123.6358770  94.2550840 142.1107550 119.4646300  96.2628180
 142.0415830 118.5236240  96.1017310 142.8727410 119.5547710  96.8350750
 134.3014220 110.0700820  98.5884800 134.1217060 109.1726570  98.8687560
 133.8994300 110.6172690  99.2631750 143.1412720 112.2716680  96.4897110
 143.5177540 111.3988560  96.3770780 143.0432230 112.6075380  95.5987550
 137.2717730 110.6442310  91.9514550 137.3784480 111.5446040  92.2583310
 136.3610090 110.5960280  91.6609200 146.9236840 109.7667120  93.4225450
 147.7446460 109.2763690  93.4650930 146.9570920 110.3564780  94.1757290
 134.9200890 112.5661320  97.1967140 135.6011000 112.8299690  97.8154540
 134.6048940 111.7262190  97.5305150 139.1125460 113.6128680  96.2839730
 139.6203680 114.1109650  96.9244750 139.6438700 112.8363880  96.1079090
 137.3961560 108.2527240 100.5503150 137.3980000 108.7699630  99.7449050
 136.5665870 107.7757420 100.5273080 143.7832650 118.3646550  92.0493050
 143.1649920 118.8296000  91.4855770 144.2955900 119.0574030  92.4662560
 138.6464410 117.8922420  98.7276650 138.3133790 118.5191340  99.3697720
 138.8231090 118.4184300  97.9478320 147.1598320 111.7067500  96.1952990
 146.4553890 111.9952390  96.7756100 147.5210480 112.5167610  95.8352550
 137.0776890 109.9637200  98.5573600 137.4193700 110.8079250  98.2627470
 136.1392700 110.1120940  98.6738940 137.8583510 119.8603220 100.5425830
 138.4757510 120.5354300 100.2610280 136.9976630 120.2691200 100.4513330
 133.1515850 119.0503080  89.4232680 132.7743830 119.5390180  88.6917580
 133.4088920 119.7228360  90.0539210 148.7761100 121.3242630  98.4580470
 148.0924620 121.9941740  98.4497140 149.3155390 121.5223280  97.6925330
 140.7604780 107.4519470  94.8818190 141.0679760 106.8966360  94.1653690
 139.8305480 107.5863930  94.6991180 146.3119840 123.1686760  97.1725650
 146.3247000 122.7649050  96.3047910 145.7595060 123.9434050  97.0687080
 147.6065260 119.8902980  92.2615820 147.4961590 118.9477310  92.3865240
 147.6033510 120.2518620  93.1478580 145.7105280 118.0716600  98.5008260
 146.1274070 117.8576710  97.6661720 146.4345100 118.3289390  99.0716880
 143.1485540 115.5168300  91.6178310 142.2214820 115.4505680  91.8466780
 143.3010360 116.4548430  91.5033550 143.1354620 111.7885300  88.6145470
 142.1958290 111.9499260  88.6997930 143.4537880 112.5070980  88.0681460
 149.6567380 116.4703820  98.5924500 148.8286010 116.5396910  98.1174630
 150.2517860 117.0558130  98.1240330 147.1782830 117.0788600  92.1213560
 146.5595250 116.7408150  91.4739860 147.1607280 116.4348360  92.8292750
 146.6209390 113.2573140  99.5379370 146.2080570 114.0826850  99.7919360
 145.8885340 112.6718180  99.3455730 138.7542180 116.0433040  94.3998040
 138.3499180 115.3310290  93.9043940 138.8405300 115.6986280  95.2886080
 139.2223880 119.7300600  96.5637250 138.9252170 119.1246070  95.8845030
 140.1723700 119.7677910  96.4526610 137.4670800 112.8176250  98.1797080
 138.0185390 112.9271590  97.4050330 137.9814310 113.1913850  98.8952310
 147.3109490 123.3032470 100.2260350 146.8340050 124.1104660 100.0332960
 146.6271280 122.6510800 100.3786560 138.3142310 119.4682290 103.2145050
 137.4170840 119.6922260 103.4618450 138.3395180 119.5917230 102.2656450
 145.3547530 116.3175410  89.1286310 145.7940810 115.4797840  88.9824130
 146.0675950 116.9504810  89.2150450 137.1413530 116.3395610 101.7902420
 137.0021300 117.2118410 102.1589820 136.2594890 115.9968420 101.6450360
 143.4642910 121.2571480  93.0967550 143.9038820 121.9995810  92.6822940
 143.4029800 121.4998050  94.0206510 138.9393880 122.2817310 103.9987570
 138.9109310 122.6860260 103.1316000 138.7758850 121.3527670 103.8359170
 148.9364670 107.5718220  87.4427350 148.6237330 107.6645050  88.3426420
 149.6977140 108.1499250  87.3924780 135.4546810 114.9378020  91.9004690
 135.3344410 115.6640110  91.2885960 135.1447700 114.1680930  91.4232600
 133.0932180 118.1093160  97.7073330 133.1712600 118.2441930  96.7629050
 133.7073860 117.4009050  97.9001450 134.3379810 119.8093350  94.1179510
 133.9307890 119.9507940  93.2633110 135.2292820 119.5253510  93.9150720
 150.2941950 120.2557260 102.4551750 150.4205010 120.0169140 101.5368930
 150.3363330 119.4241800 102.9273830 144.1558690 123.9585260 101.0246560
 144.6703360 123.8693270 101.8268990 143.3127770 124.3044960 101.3174470
 146.1313090 124.2440600  90.4530560 145.9714230 123.9543540  91.3512390
 145.9659800 123.4680730  89.9175790 138.6101470 124.0239130  92.2302180
 138.4343950 123.1074670  92.0169980 137.7557210 124.3826420  92.4699980
 145.8339220 121.7528160  89.0128560 145.1404380 121.7505450  88.3530840
 146.5762080 121.3287480  88.5822730 145.3989150 123.3790870  93.0877050
 145.8546100 122.5980250  93.4015670 145.7381670 124.0897690  93.6318230
 150.1465960 112.3089720 103.4201490 149.5310230 112.8169390 102.8916950
 149.8262380 111.4088050 103.3627430 133.1491700 119.1507330 100.2467790
 133.3122740 118.6812690  99.4287160 133.6144150 118.6430890 100.9116630
 137.9210470 108.2813090  95.2828360 137.4778620 109.0622630  94.9512880
 138.4795460 108.6042980  95.9899300 142.2080280 111.1481610 100.8863680
 141.7459650 111.3564630 101.6983620 141.8058390 110.3340960 100.5834350
 147.2084790 112.3690560 102.0160340 146.3578380 112.0696310 102.3369410
 147.0486580 112.6132570 101.1044160 144.3034500 113.8692310 104.1159130
 144.6287910 113.0356060 103.7761360 145.0914830 114.3920830 104.2637460
 141.0369290 107.9023790  90.1634190 140.4123470 107.8983660  90.8887500
 140.9499410 107.0354750  89.7670160 139.9586370 108.8260420  97.1417960
 140.2558700 109.7323250  97.0609980 140.5071930 108.3379200  96.5277530
 137.7124690 113.4046660  93.0109610 137.4865610 113.1883830  93.9156230
 136.9317220 113.8375120  92.6655580 144.9422450 113.4110030  91.6100260
 144.3431340 114.1345830  91.4263880 145.4902060 113.3486810  90.8276710
 140.1523900 114.3032240 103.6769880 140.0567500 113.3626970 103.5270280
 140.9955880 114.5247310 103.2817950 143.5487320 112.0473570  93.6403540
 143.9416890 112.3645770  92.8272230 143.9104170 111.1685450  93.7548060
 135.2834440 110.7145910 101.8303660 134.8897830 111.5621120 102.0376440
 134.5952840 110.0772280 102.0212300 141.8579490 110.7980880 104.9000400
 141.1677810 110.6053080 105.5346490 142.6011790 111.0815520 105.4324700
 132.5851490 108.6374370  95.8633740 132.2964540 109.2077230  96.5758720
 133.3297250 108.1578820  96.2264970 144.1342460 114.6379320  97.7354320
 143.4023580 115.1466130  98.0844420 143.7366800 113.8209300  97.4343100
 140.5719850 111.3133520  96.1406810 140.5755910 110.8723470  95.2911350
 141.4670970 111.6350850  96.2478630 136.4222230 111.1960010  95.1001020
 136.0822280 111.6735240  95.8568070 135.6599550 110.7425130  94.7402120
 140.6340000 112.3145600  89.1313570 140.7552820 112.2732080  90.0799390
 140.2488510 113.1769750  88.9760300 144.5968370 110.0913000  97.1477260
 144.6141110 110.5421650  97.9919110 144.3483950 109.1918640  97.3610700
 139.6461500 114.6246740  88.5296870 139.0778400 114.1764990  87.9032780
 140.3550500 114.9839520  87.9962020 148.0239120 107.5045180 102.9863640
 148.3484890 106.7734840 103.5121620 148.0595630 107.1858820 102.0844630
 134.7230680 118.5258760 102.4063600 134.3385470 117.8852430 103.0046560
 135.0342870 119.2294880 102.9758330 140.8727820 115.3735300  97.8872220
 141.2397950 114.8993870  98.6333560 140.6832880 116.2476870  98.2280560
 133.7368310 110.1178990  94.0165690 133.4515230 109.7534660  94.8544310
 133.6747170 109.3859450  93.4028830 138.6627190 114.4143940 100.2056430
 138.3584260 115.2935920 100.4306790 139.6173650 114.4743730 100.2413870
 137.1908980 118.6204930  90.8023280 136.4171240 118.0802550  90.6422000
 137.9203610 118.1011540  90.4641040 147.9496960 117.6170290  96.5949670
 148.6696080 118.1125580  96.2045780 147.7478780 116.9388180  95.9503540
 143.4106900 109.0108250  90.7379060 142.5971510 108.5121420  90.6624370
 143.2168850 109.8506500  90.3215410 143.3315760 117.6879350 102.4818670
 143.2653070 116.7675020 102.2276260 142.7020900 117.7854790 103.1963310
 146.1255290 113.3827900  89.0341220 147.0134910 113.6945130  88.8592560
 146.0960380 112.5100150  88.6421800 137.2346380 118.2885310  94.4402090
 137.7525050 117.4853570  94.3858980 136.7830400 118.2264450  95.2818920
 142.1215880 119.5551590  89.7129390 142.4631580 120.2993820  89.2172710
 141.2928590 119.8682710  90.0754220 134.7190920 115.2546680 101.3527790
 134.3605860 115.9200530 101.9401130 134.4245480 114.4230230 101.7240410
 137.9204040 115.7130920 104.2367340 137.6204180 115.8588100 103.3395160
 138.6915280 115.1536210 104.1440730 143.2632490 120.5099920 102.2322470
 143.2777030 119.5780880 102.0141380 142.5557590 120.5959680 102.8712240
 148.3969560 114.6939740  88.5021080 148.3133280 115.1253960  87.6517520
 149.1163750 115.1538090  88.9347900 149.4743700 117.1507260 101.5791050
 148.7491890 117.7436040 101.3820440 150.0019160 117.1430800 100.7804420
 149.4256810 121.5482000  91.2303210 148.7832970 120.8937620  91.5046930
 149.0387470 121.9537090  90.4543880 145.0043290 118.8767430  95.0774900
 145.3567110 118.2795560  94.4176270 144.1205620 118.5511660  95.2483150
 141.0906570 119.6365120  92.4845310 141.7777700 120.1834330  92.8652900
 140.3038990 120.1805850  92.5194920 133.2298970 115.2537940  87.9762390
 134.0993820 115.5362740  88.2598310 132.7389290 116.0673810  87.8611200
 140.3933780 116.6411150  92.0970670 140.8496560 117.4516400  92.3230860
 140.0421990 116.3234290  92.9289160 142.6966390 122.1517490  99.3262970
 143.3408610 122.3576870 100.0036390 143.0595830 121.3905890  98.8733820
 136.2945560 106.9848800  92.5693190 136.1660190 106.9766700  93.5178110
 135.4707580 107.3231890  92.2184200 143.9698470 120.1549840  98.0440420
 144.6120700 119.4543000  98.1572590 144.4947820 120.9348280  97.8637310
 147.8154190 120.4398460  87.7679560 147.5891770 119.7228900  88.3604200
 147.4250390 120.1910900  86.9301310 145.7436090 120.9544740 101.2476480
 146.0792330 121.5411430 101.9254400 144.8236430 120.8237450 101.4774270
 133.5970220 124.4665320  88.5424020 133.9567860 125.0654660  87.8881290
 133.4562560 125.0125210  89.3159050 133.2939490 108.7439920 102.0299890
 132.5798010 108.9436840 102.6352500 133.7134530 107.9679490 102.4014690
 147.3970440 118.3570400  89.4293720 147.1092140 118.8183090  90.2171600
 148.1922610 117.8968170  89.6977940 133.5812080 122.7320180 103.0166420
 133.6903200 121.7914920 102.8761810 132.9292640 122.9974930 102.3680150
 141.5724670 121.0036070 104.4164540 141.2521540 120.2845310 104.9610230
 140.8983030 121.6791140 104.4900600 139.6138840 121.8496520  89.3597690
 139.6048940 122.5826210  88.7442200 138.6937200 121.6028100  89.4524650
 135.2145480 117.0711410  90.1044450 134.6073430 117.8110310  90.1139750
 135.6894830 117.1610770  89.2782650 144.7878270 111.2362230  99.7801340
 145.1559090 110.4157440 100.1080910 143.9276470 111.2964120 100.1956990
 148.1540300 110.1919170  90.5888900 147.5253460 110.2964840  89.8747130
 147.6592220 110.4115950  91.3782780 142.5998440 121.9124760  88.0222880
 142.7010420 121.7088750  87.0924860 141.7000180 121.6583040  88.2270660
 140.1224330 112.4705120  92.0046780 139.4140480 112.9391460  92.4460390
 140.4068810 111.8127130  92.6391970 141.7480260 113.8901820 100.0039310
 142.2465510 114.3647640 100.6691160 141.8903210 112.9665340 100.2109340
 144.1539760 109.1955780  93.4442570 144.0307540 109.2141910  92.4952080
 145.1024320 109.2434720  93.5640970 141.2416550 124.4311080  92.7170550
 141.4958050 124.3932470  91.7949920 140.2929030 124.3044410  92.7098800
 138.3259350 110.7790200  89.3797490 139.1749880 111.2160350  89.3137680
 137.9590620 111.0910460  90.2069550 148.9547120 110.1069780 100.8467700
 148.4520720 110.8475180 101.1861510 149.7703780 110.4953780 100.5304490
 147.2469130 115.3502960  94.2929060 146.3059270 115.3653190  94.4676750
 147.5613200 114.5638920  94.7389360 137.2250770 117.0322560  87.8533020
 137.9914040 116.9203920  88.4158450 137.3025460 116.3360530  87.2009790
 135.9197530 114.4647630  88.5365910 136.0001120 113.5175140  88.6483310
 136.8117280 114.7954510  88.6426570 149.2494710 122.5211810  95.9683320
 149.3742130 123.3442980  96.4407130 150.1160270 122.3102540  95.6207470
 136.7212240 124.6143020  95.6400450 137.4574720 124.0658480  95.9109020
 137.1053160 125.4799030  95.5006440 133.6057720 120.6816590  91.5141960
 132.6797500 120.9237730  91.5047370 134.0714150 121.5090850  91.3926710
 135.7270520 123.7989090 104.8286030 136.5283250 124.1201140 105.2421430
 135.2122340 123.4384670 105.5505940 139.8314550 123.7873330  87.4626020
 140.6243160 124.0762160  87.0107810 139.3118900 123.3565500  86.7838500
 144.5635150 119.9068960 104.7761440 143.9573310 119.9300560 104.0357190
 144.2589260 119.1752000 105.3128690 145.9935520 123.6349250 103.3870850
 146.9457270 123.5507270 103.3371090 145.8463740 124.2990960 104.0604640
 148.8844720 123.0143460  88.8862760 148.5986230 122.6008600  88.0716940
 148.6864270 123.9431170  88.7663280 133.4468330 116.2862550 103.7722080
 133.9507350 115.7069830 104.3438310 132.7075750 116.5702780 104.3098450
 140.3491950 119.0076740  87.3268370 140.2442590 118.3929090  88.0529750
 140.1816170 118.4842630  86.5431380 140.5006270 117.6933540 103.3057600
 139.7351940 118.2618540 103.2212270 140.6822230 117.4009750 102.4125830
 143.5894680 118.0696770  87.9310360 143.0404780 118.5166070  88.5753100
 144.2113940 117.5646020  88.4548030 147.6429620 119.4238870 103.8632620
 148.3839090 119.7614630 103.3600080 146.8802300 119.5930930 103.3102390
 135.4791410 114.4292140 104.6672150 135.5196750 114.1306010 105.5757380
 136.3336910 114.8299750 104.5079670 139.2569800 117.0287690  89.8275660
 139.6786220 116.8627560  90.6707050 139.3820640 116.2187920  89.3330800
 137.4197220 113.0084240 102.6346640 136.8893680 112.5175190 102.0069980
 138.0885290 113.4368440 102.1004570 141.7697440 116.0525300  87.0752760
 142.2903100 115.3374320  86.7093910 142.4165840 116.6911170  87.3753270
 146.3175280 117.4753700 102.3987830 146.7316300 117.6298780 103.2478250
 145.3826280 117.6008920 102.5613610 146.7897450 114.8149860 104.4026980
 147.3718220 114.0602180 104.3147460 146.9659220 115.3457300 103.6258460
 137.9069520 109.9746610 102.7143930 137.8126390 109.3567360 101.9894800
 137.3266910 110.7012900 102.4873840 140.6730960 108.5319850  99.7471320
 140.2248260 108.5544110  98.9016870 140.0396160 108.1338870 100.3441620
 141.0790510 117.4274180 100.3683760 141.4978620 118.2706910 100.1960000
 140.1599140 117.5646220 100.1390540 143.4154410 115.1590360 101.7521600
 143.5350620 114.5631500 102.4916440 144.2748410 115.1960050 101.3322900
 145.7542310 115.7127550 100.3284110 145.2277530 116.2370170  99.7249250
 146.0973650 116.3454940 100.9593840 138.1528700 113.1020920  86.7733820
 137.9517760 112.2388280  87.1347160 137.9820750 113.0154280  85.8355420
 138.9297930 123.7327190 101.4841490 138.3919020 124.4573250 101.1650190
 139.1831890 123.2557530 100.6938830 140.1823180 111.7011710 103.0097420
 140.7722870 111.3927560 103.6975240 139.3643420 111.2291460 103.1657320
 145.0016610 111.3177520 103.2430440 144.3132130 110.6559060 103.1780430
 145.7222630 110.8715790 103.6878900 145.6317010 107.9129150  89.3020700
 145.9119300 107.0697050  89.6580120 144.8582740 108.1452260  89.8159450
 141.7860140 124.9678400 101.7428140 141.7118840 125.8713540 102.0500510
 140.8838980 124.6490300 101.7150210 140.1696430 109.1456160  87.7467900
 139.8218430 108.4680150  87.1670350 140.3709200 108.6845670  88.5611290
 142.3345470 124.1336910  89.3654500 143.2296260 124.4721880  89.3873260
 142.3663100 123.4116320  88.7378780 135.9741630 119.5063960  87.5941500
 136.4116500 120.0493630  88.2499080 136.4589360 118.6810910  87.6037840
 133.1887430 122.2952990  95.0461760 133.5190440 121.4274050  94.8140400
 133.6178430 122.5011510  95.8766720 137.7849350 120.6262000  92.7063730
 137.4844890 120.5026970  93.6067640 137.6786840 119.7670590  92.2979460
 133.6777640 123.1623580  97.7843390 133.2408630 123.3424380  98.6167540
 134.2455320 123.9198200  97.6425110 149.3139820 122.6640580 102.0720700
 148.7141810 122.7233140 101.3284620 149.4433720 121.7245560 102.2017550
 133.5102070 115.6743810  94.1432270 132.8550910 115.4055450  93.4991970
 134.3480020 115.5648290  93.6934250 147.9991460 119.3892560 100.1696860
 147.1851300 119.8189720 100.4322650 148.4065660 120.0010970  99.5565910
 150.0616900 117.4440250  87.0697130 150.3365740 118.3519130  86.9416350
 149.8727640 117.3802780  88.0059120 146.4592510 110.4685100  88.3650760
 146.8777390 110.2816080  87.5247420 146.1528570 109.6164150  88.6753690
 149.9582240 115.3809240  92.0626560 149.5825840 114.6137170  91.6307850
 149.2285360 115.7631940  92.5501490 134.5478000 116.0596380  98.6835610
 134.9151040 115.9723780  99.5631630 133.9788820 115.2962930  98.5842470
 149.3481860 114.5280760 101.6966080 149.1167950 114.2993510 100.7964030
 149.6086410 115.4480310 101.6510970 134.0994000 112.9705470 102.5894030
 133.2050050 112.9372230 102.9287740 134.6391550 113.1692260 103.3545280
 147.7869930 109.7537190 104.4745780 148.6640110 109.7620590 104.8579780
 147.7990770 109.0168030 103.8638130 132.7240150 112.8842740  90.0857600
 131.8204230 113.1472940  89.9109260 133.2080770 113.1553910  89.3057560
 149.2333200 113.6066730  95.3633800 149.7570680 113.1129380  94.7323970
 149.8192620 113.7417090  96.1081370 149.4122920 113.6906600  98.8853350
 148.4625630 113.6570140  98.9998340 149.5935930 114.6006710  98.6503120
 148.7233170 112.8640080  91.3026210 149.2192290 112.6310950  92.0875090
 148.5249240 112.0251920  90.8863850 134.6033710 107.2453800  96.9377250
 135.2509900 106.6951180  96.4972410 135.0235550 107.4996950  97.7593060
 148.4986050 107.4395160 100.2946890 149.1358270 108.0529300 100.6606080
 148.6460940 107.4755820  99.3496120 148.0567510 124.1411160  93.6965130
 148.6526580 123.8195730  93.0199550 148.3145660 123.6682980  94.4878400
 134.3565710 107.4009470  99.6802570 134.0080530 107.8573290 100.4460750
 134.0253410 106.5066600  99.7625000 135.9630080 120.5729070 103.8455760
 135.9199710 120.2021980 104.7270220 136.0941090 121.5106640 103.9857580
 139.6636110 122.1288660  99.4465480 139.4227470 122.3963220  98.5596000
 140.6038750 122.2994390  99.5016340 141.8690530 108.5921350 103.2021990
 141.8079420 109.1843180 103.9517400 142.8090910 108.4847310 103.0572250
 144.5065090 108.2491410 102.8414280 145.1205500 108.5670700 102.1795360
 145.0514650 107.7640000 103.4610140 135.0286350 106.9285670 102.9553340
 135.5769340 106.7473720 102.1919450 135.0941660 106.1379780 103.4909650
 135.8018110 123.5191320 100.9653540 135.2078430 123.3876020 101.7043580
 135.7941950 122.6829460 100.4995640 145.2473130 106.8123550  99.1683570
 144.3732970 107.1458660  98.9656500 145.1383880 106.3396730  99.9935440
 146.1545110 109.0194420 100.5525290 145.8258470 108.2046180 100.1727020
 147.1027410 108.9764230 100.4290980 148.6079720 124.7906460  97.5262860
 148.1482690 125.5422270  97.1520880 147.9792180 124.0712930  97.4677660
 135.4330340 120.8849700  99.9161580 134.7064400 120.2654990  99.8487530
 135.4939490 121.2790310  99.0459660 139.0375440 123.0994700  96.7010990
 139.5540460 122.4882060  96.1759250 139.6872820 123.6023480  97.1922000
 141.7770940 123.9903190  97.5279970 142.0648750 123.7357490  96.6512980
 142.2894160 123.4380550  98.1185540 142.9947950 107.7293390  98.1076480
 142.2119740 108.2038890  98.3873240 142.7010880 106.8248220  97.9989660
 147.5469020 108.4316490  96.1525570 147.9877110 108.3761590  95.3047170
 147.2776610 109.3474500  96.2235750 149.4107590 108.0631730  94.1634390
 149.3495990 107.1192950  94.0165410 150.1899620 108.1711820  94.7087850
 133.7160340 124.2024090  93.1258340 133.5482380 123.5694770  93.8240230
 132.8494850 124.4083490  92.7752530 140.8802170 110.1480140  93.6192510
 140.0676680 109.7737030  93.2788390 141.3843810 109.3925220  93.9213700
 145.3827150 106.8122590  94.8575580 145.9856520 107.3842800  95.3324100
 144.6420140 107.3762030  94.6349480 148.5261750 107.2144150  90.1315860
 148.7212380 108.1127600  90.3983290 147.7391620 106.9831230  90.6248810
 135.3223040 122.8957320  90.5708480 134.7970660 123.2765350  89.8670440
 135.2467620 123.5208090  91.2918190 138.9051350 108.2980060  92.2237560
 138.2754090 107.5967370  92.3907690 138.3656490 109.0584190  92.0070720
 141.8443300 124.9119290 104.8948170 142.7710610 124.6763560 104.9384130
 141.8293730 125.7391290 104.4134200 150.0788360 124.4544860  91.8922420
 150.2540550 123.7682600  91.2483340 149.3809930 124.9791910  91.4999090
 139.0306910 107.5764040 104.6590050 138.7491180 108.0797640 103.8950870
 139.4126610 106.7785790 104.2932180 137.9216010 124.8439700  89.4457730
 138.6534830 124.5598980  88.8981620 138.1809680 124.6052980  90.3357110
 137.0830800 120.9604430  89.4504060 136.4539680 121.4289530  89.9989890
 137.1978630 120.1153650  89.8850250 145.6322370 106.9917620 105.2370520
 145.5187820 107.3112230 106.1322040 146.4492110 107.3930130 104.9407800
 148.4120860 124.1389150 104.7189210 149.2046180 123.6438380 104.5115170
 148.7054010 124.8179290 105.3264820 144.5380520 115.0110090  75.6005260
 144.4574570 114.0964700  75.3296970 144.1244940 115.5077160  74.8944970
 142.6698560 116.7889110  77.4814530 141.8940660 116.3089550  77.7713100
 143.3211490 116.1094760  77.3070690 136.6864390 117.1008920  78.3590290
 135.8549270 116.8457630  78.7586800 137.2945370 117.1719690  79.0948210
 146.6905990 121.1949300  76.2613660 146.2287520 120.4236540  76.5900830
 147.5031540 121.2215370  76.7666110 136.6665650 121.1349010  78.5548310
 136.9693690 120.2446750  78.3758530 137.4109240 121.6919230  78.3270560
 135.0956340 112.0610810  72.1432680 134.2073040 112.4026780  72.0412560
 135.3797530 111.8611130  71.2513510 133.0589350 114.6616460  78.0272380
 133.6305460 113.8938660  78.0276020 133.0590890 114.9605220  77.1178990
 142.9169300 123.4807310  75.8817650 142.2980740 123.9364810  75.3112090
 143.7721080 123.6358770  75.4807350 142.1107550 119.4646300  77.4884690
 142.0415830 118.5236240  77.3273820 142.8727410 119.5547710  78.0607260
 143.1412720 112.2716680  77.7153620 143.5177540 111.3988560  77.6027290
 143.0432230 112.6075380  76.8244060 137.2717730 110.6442310  73.1771060
 137.3784480 111.5446040  73.4839820 136.3610090 110.5960280  72.8865710
 146.9236840 109.7667120  74.6481960 147.7446460 109.2763690  74.6907440
 146.9570920 110.3564780  75.4013800 134.9200890 112.5661320  78.4223650
 135.6011000 112.8299690  79.0411050 134.6048940 111.7262190  78.7561660
 139.1125460 113.6128680  77.5096240 139.6203680 114.1109650  78.1501260
 139.6438700 112.8363880  77.3335600 143.7832650 118.3646550  73.2749560
 143.1649920 118.8296000  72.7112280 144.2955900 119.0574030  73.6919070
 138.6464410 117.8922420  79.9533160 138.3133790 118.5191340  80.5954230
 138.8231090 118.4184300  79.1734830 147.1598320 111.7067500  77.4209500
 146.4553890 111.9952390  78.0012610 147.5210480 112.5167610  77.0609060
 137.0776890 109.9637200  79.7830110 137.4193700 110.8079250  79.4883980
 136.1392700 110.1120940  79.8995450 137.8583510 119.8603220  81.7682340
 138.4757510 120.5354300  81.4866790 136.9976630 120.2691200  81.6769840
 133.1515850 119.0503080  70.6489190 132.7743830 119.5390180  69.9174090
 133.4088920 119.7228360  71.2795720 148.7761100 121.3242630  79.6836980
 148.0924620 121.9941740  79.6753650 149.3155390 121.5223280  78.9181840
 140.7604780 107.4519470  76.1074700 141.0679760 106.8966360  75.3910200
 139.8305480 107.5863930  75.9247690 146.3119840 123.1686760  78.3982160
 146.3247000 122.7649050  77.5304420 145.7595060 123.9434050  78.2943590
 147.6065260 119.8902980  73.4872330 147.4961590 118.9477310  73.6121750
 147.6033510 120.2518620  74.3735090 145.7105280 118.0716600  79.7264770
 146.1274070 117.8576710  78.8918230 146.4345100 118.3289390  80.2973390
 143.1485540 115.5168300  72.8434820 142.2214820 115.4505680  73.0723290
 143.3010360 116.4548430  72.7290060 143.1354620 111.7885300  69.8401980
 142.1958290 111.9499260  69.9254440 143.4537880 112.5070980  69.2937970
 149.6567380 116.4703820  79.8181010 148.8286010 116.5396910  79.3431140
 150.2517860 117.0558130  79.3496840 147.1782830 117.0788600  73.3470070
 146.5595250 116.7408150  72.6996370 147.1607280 116.4348360  74.0549260
 146.6209390 113.2573140  80.7635880 146.2080570 114.0826850  81.0175870
 145.8885340 112.6718180  80.5712240 138.7542180 116.0433040  75.6254550
 138.3499180 115.3310290  75.1300450 138.8405300 115.6986280  76.5142590
 139.2223880 119.7300600  77.7893760 138.9252170 119.1246070  77.1101540
 140.1723700 119.7677910  77.6783120 137.4670800 112.8176250  79.4053590
 138.0185390 112.9271590  78.6306840 137.9814310 113.1913850  80.1208820
 147.3109490 123.3032470  81.4516860 146.8340050 124.1104660  81.2589470
 146.6271280 122.6510800  81.6043070 138.3142310 119.4682290  84.4401560
 137.4170840 119.6922260  84.6874960 138.3395180 119.5917230  83.4912960
 145.3547530 116.3175410  70.3542820 145.7940810 115.4797840  70.2080640
 146.0675950 116.9504810  70.4406960 137.1413530 116.3395610  83.0158930
 137.0021300 117.2118410  83.3846330 136.2594890 115.9968420  82.8706870
 143.4642910 121.2571480  74.3224060 143.9038820 121.9995810  73.9079450
 143.4029800 121.4998050  75.2463020 138.9393880 122.2817310  85.2244080
 138.9109310 122.6860260  84.3572510 138.7758850 121.3527670  85.0615680
 148.9364670 107.5718220  68.6683860 148.6237330 107.6645050  69.5682930
 149.6977140 108.1499250  68.6181290 135.4546810 114.9378020  73.1261200
 135.3344410 115.6640110  72.5142470 135.1447700 114.1680930  72.6489110
 133.0932180 118.1093160  78.9329840 133.1712600 118.2441930  77.9885560
 133.7073860 117.4009050  79.1257960 134.3379810 119.8093350  75.3436020
 133.9307890 119.9507940  74.4889620 135.2292820 119.5253510  75.1407230
 150.2941950 120.2557260  83.6808260 150.4205010 120.0169140  82.7625440
 150.3363330 119.4241800  84.1530340 144.1558690 123.9585260  82.2503070
 144.6703360 123.8693270  83.0525500 143.3127770 124.3044960  82.5430980
 146.1313090 124.2440600  71.6787070 145.9714230 123.9543540  72.5768900
 145.9659800 123.4680730  71.1432300 138.6101470 124.0239130  73.4558690
 138.4343950 123.1074670  73.2426490 137.7557210 124.3826420  73.6956490
 145.8339220 121.7528160  70.2385070 145.1404380 121.7505450  69.5787350
 146.5762080 121.3287480  69.8079240 145.3989150 123.3790870  74.3133560
 145.8546100 122.5980250  74.6272180 145.7381670 124.0897690  74.8574740
 150.1465960 112.3089720  84.6458000 149.5310230 112.8169390  84.1173460
 149.8262380 111.4088050  84.5883940 133.1491700 119.1507330  81.4724300
 133.3122740 118.6812690  80.6543670 133.6144150 118.6430890  82.1373140
 137.9210470 108.2813090  76.5084870 137.4778620 109.0622630  76.1769390
 138.4795460 108.6042980  77.2155810 142.2080280 111.1481610  82.1120190
 141.7459650 111.3564630  82.9240130 141.8058390 110.3340960  81.8090860
 147.2084790 112.3690560  83.2416850 146.3578380 112.0696310  83.5625920
 147.0486580 112.6132570  82.3300670 144.3034500 113.8692310  85.3415640
 144.6287910 113.0356060  85.0017870 145.0914830 114.3920830  85.4893970
 141.0369290 107.9023790  71.3890700 140.4123470 107.8983660  72.1144010
 140.9499410 107.0354750  70.9926670 139.9586370 108.8260420  78.3674470
 140.2558700 109.7323250  78.2866490 140.5071930 108.3379200  77.7534040
 137.7124690 113.4046660  74.2366120 137.4865610 113.1883830  75.1412740
 136.9317220 113.8375120  73.8912090 144.9422450 113.4110030  72.8356770
 144.3431340 114.1345830  72.6520390 145.4902060 113.3486810  72.0533220
 140.1523900 114.3032240  84.9026390 140.0567500 113.3626970  84.7526790
 140.9955880 114.5247310  84.5074460 143.5487320 112.0473570  74.8660050
 143.9416890 112.3645770  74.0528740 143.9104170 111.1685450  74.9804570
 141.8579490 110.7980880  86.1256910 141.1677810 110.6053080  86.7603000
 142.6011790 111.0815520  86.6581210 144.1342460 114.6379320  78.9610830
 143.4023580 115.1466130  79.3100930 143.7366800 113.8209300  78.6599610
 140.5719850 111.3133520  77.3663320 140.5755910 110.8723470  76.5167860
 141.4670970 111.6350850  77.4735140 136.4222230 111.1960010  76.3257530
 136.0822280 111.6735240  77.0824580 135.6599550 110.7425130  75.9658630
 140.6340000 112.3145600  70.3570080 140.7552820 112.2732080  71.3055900
 140.2488510 113.1769750  70.2016810 144.5968370 110.0913000  78.3733770
 144.6141110 110.5421650  79.2175620 144.3483950 109.1918640  78.5867210
 139.6461500 114.6246740  69.7553380 139.0778400 114.1764990  69.1289290
 140.3550500 114.9839520  69.2218530 148.0239120 107.5045180  84.2120150
 148.3484890 106.7734840  84.7378130 148.0595630 107.1858820  83.3101140
 134.7230680 118.5258760  83.6320110 134.3385470 117.8852430  84.2303070
 135.0342870 119.2294880  84.2014840 140.8727820 115.3735300  79.1128730
 141.2397950 114.8993870  79.8590070 140.6832880 116.2476870  79.4537070
 133.7368310 110.1178990  75.2422200 133.4515230 109.7534660  76.0800820
 133.6747170 109.3859450  74.6285340 138.6627190 114.4143940  81.4312940
 138.3584260 115.2935920  81.6563300 139.6173650 114.4743730  81.4670380
 137.1908980 118.6204930  72.0279790 136.4171240 118.0802550  71.8678510
 137.9203610 118.1011540  71.6897550 147.9496960 117.6170290  77.8206180
 148.6696080 118.1125580  77.4302290 147.7478780 116.9388180  77.1760050
 143.4106900 109.0108250  71.9635570 142.5971510 108.5121420  71.8880880
 143.2168850 109.8506500  71.5471920 143.3315760 117.6879350  83.7075180
 143.2653070 116.7675020  83.4532770 142.7020900 117.7854790  84.4219820
 146.1255290 113.3827900  70.2597730 147.0134910 113.6945130  70.0849070
 146.0960380 112.5100150  69.8678310 137.2346380 118.2885310  75.6658600
 137.7525050 117.4853570  75.6115490 136.7830400 118.2264450  76.5075430
 142.1215880 119.5551590  70.9385900 142.4631580 120.2993820  70.4429220
 141.2928590 119.8682710  71.3010730 134.7190920 115.2546680  82.5784300
 134.3605860 115.9200530  83.1657640 134.4245480 114.4230230  82.9496920
 137.9204040 115.7130920  85.4623850 137.6204180 115.8588100  84.5651670
 138.6915280 115.1536210  85.3697240 143.2632490 120.5099920  83.4578980
 143.2777030 119.5780880  83.2397890 142.5557590 120.5959680  84.0968750
 148.3969560 114.6939740  69.7277590 148.3133280 115.1253960  68.8774030
 149.1163750 115.1538090  70.1604410 149.4743700 117.1507260  82.8047560
 148.7491890 117.7436040  82.6076950 150.0019160 117.1430800  82.0060930
 149.4256810 121.5482000  72.4559720 148.7832970 120.8937620  72.7303440
 149.0387470 121.9537090  71.6800390 145.0043290 118.8767430  76.3031410
 145.3567110 118.2795560  75.6432780 144.1205620 118.5511660  76.4739660
 141.0906570 119.6365120  73.7101820 141.7777700 120.1834330  74.0909410
 140.3038990 120.1805850  73.7451430 133.2298970 115.2537940  69.2018900
 134.0993820 115.5362740  69.4854820 132.7389290 116.0673810  69.0867710
 140.3933780 116.6411150  73.3227180 140.8496560 117.4516400  73.5487370
 140.0421990 116.3234290  74.1545670 142.6966390 122.1517490  80.5519480
 143.3408610 122.3576870  81.2292900 143.0595830 121.3905890  80.0990330
 143.9698470 120.1549840  79.2696930 144.6120700 119.4543000  79.3829100
 144.4947820 120.9348280  79.0893820 147.8154190 120.4398460  68.9936070
 147.5891770 119.7228900  69.5860710 147.4250390 120.1910900  68.1557820
 145.7436090 120.9544740  82.4732990 146.0792330 121.5411430  83.1510910
 144.8236430 120.8237450  82.7030780 133.5970220 124.4665320  69.7680530
 133.9567860 125.0654660  69.1137800 133.4562560 125.0125210  70.5415560
 147.3970440 118.3570400  70.6550230 147.1092140 118.8183090  71.4428110
 148.1922610 117.8968170  70.9234450 133.5812080 122.7320180  84.2422930
 133.6903200 121.7914920  84.1018320 132.9292640 122.9974930  83.5936660
 141.5724670 121.0036070  85.6421050 141.2521540 120.2845310  86.1866740
 140.8983030 121.6791140  85.7157110 139.6138840 121.8496520  70.5854200
 139.6048940 122.5826210  69.9698710 138.6937200 121.6028100  70.6781160
 135.2145480 117.0711410  71.3300960 134.6073430 117.8110310  71.3396260
 135.6894830 117.1610770  70.5039160 144.7878270 111.2362230  81.0057850
 145.1559090 110.4157440  81.3337420 143.9276470 111.2964120  81.4213500
 148.1540300 110.1919170  71.8145410 147.5253460 110.2964840  71.1003640
 147.6592220 110.4115950  72.6039290 142.5998440 121.9124760  69.2479390
 142.7010420 121.7088750  68.3181370 141.7000180 121.6583040  69.4527170
 140.1224330 112.4705120  73.2303290 139.4140480 112.9391460  73.6716900
 140.4068810 111.8127130  73.8648480 141.7480260 113.8901820  81.2295820
 142.2465510 114.3647640  81.8947670 141.8903210 112.9665340  81.4365850
 144.1539760 109.1955780  74.6699080 144.0307540 109.2141910  73.7208590
 145.1024320 109.2434720  74.7897480 141.2416550 124.4311080  73.9427060
 141.4958050 124.3932470  73.0206430 140.2929030 124.3044410  73.9355310
 138.3259350 110.7790200  70.6054000 139.1749880 111.2160350  70.5394190
 137.9590620 111.0910460  71.4326060 148.9547120 110.1069780  82.0724210
 148.4520720 110.8475180  82.4118020 149.7703780 110.4953780  81.7561000
 147.2469130 115.3502960  75.5185570 146.3059270 115.3653190  75.6933260
 147.5613200 114.5638920  75.9645870 137.2250770 117.0322560  69.0789530
 137.9914040 116.9203920  69.6414960 137.3025460 116.3360530  68.4266300
 135.9197530 114.4647630  69.7622420 136.0001120 113.5175140  69.8739820
 136.8117280 114.7954510  69.8683080 149.2494710 122.5211810  77.1939830
 149.3742130 123.3442980  77.6663640 150.1160270 122.3102540  76.8463980
 136.7212240 124.6143020  76.8656960 137.4574720 124.0658480  77.1365530
 137.1053160 125.4799030  76.7262950 133.6057720 120.6816590  72.7398470
 132.6797500 120.9237730  72.7303880 134.0714150 121.5090850  72.6183220
 135.7270520 123.7989090  86.0542540 136.5283250 124.1201140  86.4677940
 135.2122340 123.4384670  86.7762450 139.8314550 123.7873330  68.6882530
 140.6243160 124.0762160  68.2364320 139.3118900 123.3565500  68.0095010
 144.5635150 119.9068960  86.0017950 143.9573310 119.9300560  85.2613700
 144.2589260 119.1752000  86.5385200 145.9935520 123.6349250  84.6127360
 146.9457270 123.5507270  84.5627600 145.8463740 124.2990960  85.2861150
 148.8844720 123.0143460  70.1119270 148.5986230 122.6008600  69.2973450
 148.6864270 123.9431170  69.9919790 133.4468330 116.2862550  84.9978590
 133.9507350 115.7069830  85.5694820 132.7075750 116.5702780  85.5354960
 140.3491950 119.0076740  68.5524880 140.2442590 118.3929090  69.2786260
 140.1816170 118.4842630  67.7687890 140.5006270 117.6933540  84.5314110
 139.7351940 118.2618540  84.4468780 140.6822230 117.4009750  83.6382340
 143.5894680 118.0696770  69.1566870 143.0404780 118.5166070  69.8009610
 144.2113940 117.5646020  69.6804540 147.6429620 119.4238870  85.0889130
 148.3839090 119.7614630  84.5856590 146.8802300 119.5930930  84.5358900
 135.4791410 114.4292140  85.8928660 135.5196750 114.1306010  86.8013890
 136.3336910 114.8299750  85.7336180 139.2569800 117.0287690  71.0532170
 139.6786220 116.8627560  71.8963560 139.3820640 116.2187920  70.5587310
 137.4197220 113.0084240  83.8603150 136.8893680 112.5175190  83.2326490
 138.0885290 113.4368440  83.3261080 141.7697440 116.0525300  68.3009270
 142.2903100 115.3374320  67.9350420 142.4165840 116.6911170  68.6009780
 146.3175280 117.4753700  83.6244340 146.7316300 117.6298780  84.4734760
 145.3826280 117.6008920  83.7870120 146.7897450 114.8149860  85.6283490
 147.3718220 114.0602180  85.5403970 146.9659220 115.3457300  84.8514970
 137.9069520 109.9746610  83.9400440 137.8126390 109.3567360  83.2151310
 137.3266910 110.7012900  83.7130350 140.6730960 108.5319850  80.9727830
 140.2248260 108.5544110  80.1273380 140.0396160 108.1338870  81.5698130
 141.0790510 117.4274180  81.5940270 141.4978620 118.2706910  81.4216510
 140.1599140 117.5646220  81.3647050 143.4154410 115.1590360  82.9778110
 143.5350620 114.5631500  83.7172950 144.2748410 115.1960050  82.5579410
 145.7542310 115.7127550  81.5540620 145.2277530 116.2370170  80.9505760
 146.0973650 116.3454940  82.1850350 138.1528700 113.1020920  67.9990330
 137.9517760 112.2388280  68.3603670 137.9820750 113.0154280  67.0611930
 138.9297930 123.7327190  82.7098000 138.3919020 124.4573250  82.3906700
 139.1831890 123.2557530  81.9195340 140.1823180 111.7011710  84.2353930
 140.7722870 111.3927560  84.9231750 139.3643420 111.2291460  84.3913830
 145.0016610 111.3177520  84.4686950 144.3132130 110.6559060  84.4036940
 145.7222630 110.8715790  84.9135410 145.6317010 107.9129150  70.5277210
 145.9119300 107.0697050  70.8836630 144.8582740 108.1452260  71.0415960
 141.7860140 124.9678400  82.9684650 141.7118840 125.8713540  83.2757020
 140.8838980 124.6490300  82.9406720 140.1696430 109.1456160  68.9724410
 139.8218430 108.4680150  68.3926860 140.3709200 108.6845670  69.7867800
 142.3345470 124.1336910  70.5911010 143.2296260 124.4721880  70.6129770
 142.3663100 123.4116320  69.9635290 135.9741630 119.5063960  68.8198010
 136.4116500 120.0493630  69.4755590 136.4589360 118.6810910  68.8294350
 133.1887430 122.2952990  76.2718270 133.5190440 121.4274050  76.0396910
 133.6178430 122.5011510  77.1023230 137.7849350 120.6262000  73.9320240
 137.4844890 120.5026970  74.8324150 137.6786840 119.7670590  73.5235970
 133.6777640 123.1623580  79.0099900 133.2408630 123.3424380  79.8424050
 134.2455320 123.9198200  78.8681620 149.3139820 122.6640580  83.2977210
 148.7141810 122.7233140  82.5541130 149.4433720 121.7245560  83.4274060
 133.5102070 115.6743810  75.3688780 132.8550910 115.4055450  74.7248480
 134.3480020 115.5648290  74.9190760 147.9991460 119.3892560  81.3953370
 147.1851300 119.8189720  81.6579160 148.4065660 120.0010970  80.7822420
 150.0616900 117.4440250  68.2953640 150.3365740 118.3519130  68.1672860
 149.8727640 117.3802780  69.2315630 146.4592510 110.4685100  69.5907270
 146.8777390 110.2816080  68.7503930 146.1528570 109.6164150  69.9010200
 149.9582240 115.3809240  73.2883070 149.5825840 114.6137170  72.8564360
 149.2285360 115.7631940  73.7758000 134.5478000 116.0596380  79.9092120
 134.9151040 115.9723780  80.7888140 133.9788820 115.2962930  79.8098980
 149.3481860 114.5280760  82.9222590 149.1167950 114.2993510  82.0220540
 149.6086410 115.4480310  82.8767480 147.7869930 109.7537190  85.7002290
 148.6640110 109.7620590  86.0836290 147.7990770 109.0168030  85.0894640
 132.7240150 112.8842740  71.3114110 131.8204230 113.1472940  71.1365770
 133.2080770 113.1553910  70.5314070 149.2333200 113.6066730  76.5890310
 149.7570680 113.1129380  75.9580480 149.8192620 113.7417090  77.3337880
 149.4122920 113.6906600  80.1109860 148.4625630 113.6570140  80.2254850
 149.5935930 114.6006710  79.8759630 148.7233170 112.8640080  72.5282720
 149.2192290 112.6310950  73.3131600 148.5249240 112.0251920  72.1120360
 148.4986050 107.4395160  81.5203400 149.1358270 108.0529300  81.8862590
 148.6460940 107.4755820  80.5752630 148.0567510 124.1411160  74.9221640
 148.6526580 123.8195730  74.2456060 148.3145660 123.6682980  75.7134910
 135.9630080 120.5729070  85.0712270 135.9199710 120.2021980  85.9526730
 136.0941090 121.5106640  85.2114090 139.6636110 122.1288660  80.6721990
 139.4227470 122.3963220  79.7852510 140.6038750 122.2994390  80.7272850
 141.8690530 108.5921350  84.4278500 141.8079420 109.1843180  85.1773910
 142.8090910 108.4847310  84.2828760 144.5065090 108.2491410  84.0670790
 145.1205500 108.5670700  83.4051870 145.0514650 107.7640000  84.6866650
 135.8018110 123.5191320  82.1910050 135.2078430 123.3876020  82.9300090
 135.7941950 122.6829460  81.7252150 145.2473130 106.8123550  80.3940080
 144.3732970 107.1458660  80.1913010 145.1383880 106.3396730  81.2191950
 146.1545110 109.0194420  81.7781800 145.8258470 108.2046180  81.3983530
 147.1027410 108.9764230  81.6547490 148.6079720 124.7906460  78.7519370
 148.1482690 125.5422270  78.3777390 147.9792180 124.0712930  78.6934170
 135.4330340 120.8849700  81.1418090 134.7064400 120.2654990  81.0744040
 135.4939490 121.2790310  80.2716170 139.0375440 123.0994700  77.9267500
 139.5540460 122.4882060  77.4015760 139.6872820 123.6023480  78.4178510
 141.7770940 123.9903190  78.7536480 142.0648750 123.7357490  77.8769490
 142.2894160 123.4380550  79.3442050 142.9947950 107.7293390  79.3332990
 142.2119740 108.2038890  79.6129750 142.7010880 106.8248220  79.2246170
 147.5469020 108.4316490  77.3782080 147.9877110 108.3761590  76.5303680
 147.2776610 109.3474500  77.4492260 149.4107590 108.0631730  75.3890900
 149.3495990 107.1192950  75.2421920 150.1899620 108.1711820  75.9344360
 133.7160340 124.2024090  74.3514850 133.5482380 123.5694770  75.0496740
 132.8494850 124.4083490  74.0009040 134.3388360 108.0340870  71.8546710
 135.0967720 108.1469750  71.2810740 133.8765530 108.8710070  71.8090140
 140.8802170 110.1480140  74.8449020 140.0676680 109.7737030  74.5044900
 141.3843810 109.3925220  75.1470210 145.3827150 106.8122590  76.0832090
 145.9856520 107.3842800  76.5580610 144.6420140 107.3762030  75.8605990
 148.5261750 107.2144150  71.3572370 148.7212380 108.1127600  71.6239800
 147.7391620 106.9831230  71.8505320 135.3223040 122.8957320  71.7964990
 134.7970660 123.2765350  71.0926950 135.2467620 123.5208090  72.5174700
 136.7113510 108.5604920  70.3948680 137.2406270 107.7734720  70.2656630
 137.3441830 109.2396110  70.6284210 138.9051350 108.2980060  73.4494070
 138.2754090 107.5967370  73.6164200 138.3656490 109.0584190  73.2327230
 141.8443300 124.9119290  86.1204680 142.7710610 124.6763560  86.1640640
 141.8293730 125.7391290  85.6390710 150.0788360 124.4544860  73.1178930
 150.2540550 123.7682600  72.4739850 149.3809930 124.9791910  72.7255600
 139.0306910 107.5764040  85.8846560 138.7491180 108.0797640  85.1207380
 139.4126610 106.7785790  85.5188690 137.9216010 124.8439700  70.6714240
 138.6534830 124.5598980  70.1238130 138.1809680 124.6052980  71.5613620
 137.0830800 120.9604430  70.6760570 136.4539680 121.4289530  71.2246400
 137.1978630 120.1153650  71.1106760 145.6322370 106.9917620  86.4627030
 145.5187820 107.3112230  87.3578550 146.4492110 107.3930130  86.1664310
 148.4120860 124.1389150  85.9445720 149.2046180 123.6438380  85.7371680
 148.7054010 124.8179290  86.5521330 144.5380520 115.0110090  56.8261770
 144.4574570 114.0964700  56.5553480 144.1244940 115.5077160  56.1201480
 142.6698560 116.7889110  58.7071040 141.8940660 116.3089550  58.9969610
 143.3211490 116.1094760  58.5327200 136.6864390 117.1008920  59.5846800
 135.8549270 116.8457630  59.9843310 137.2945370 117.1719690  60.3204720
 146.6905990 121.1949300  57.4870170 146.2287520 120.4236540  57.8157340
 147.5031540 121.2215370  57.9922620 136.6665650 121.1349010  59.7804820
 136.9693690 120.2446750  59.6015040 137.4109240 121.6919230  59.5527070
 135.0956340 112.0610810  53.3689190 134.2073040 112.4026780  53.2669070
 135.3797530 111.8611130  52.4770020 133.0589350 114.6616460  59.2528890
 133.6305460 113.8938660  59.2532530 133.0590890 114.9605220  58.3435500
 142.9169300 123.4807310  57.1074160 142.2980740 123.9364810  56.5368600
 143.7721080 123.6358770  56.7063860 142.1107550 119.4646300  58.7141200
 142.0415830 118.5236240  58.5530330 142.8727410 119.5547710  59.2863770
 134.3014220 110.0700820  61.0397820 134.1217060 109.1726570  61.3200580
 133.8994300 110.6172690  61.7144770 143.1412720 112.2716680  58.9410130
 143.5177540 111.3988560  58.8283800 143.0432230 112.6075380  58.0500570
 137.2717730 110.6442310  54.4027570 137.3784480 111.5446040  54.7096330
 136.3610090 110.5960280  54.1122220 146.9236840 109.7667120  55.8738470
 147.7446460 109.2763690  55.9163950 146.9570920 110.3564780  56.6270310
 134.9200890 112.5661320  59.6480160 135.6011000 112.8299690  60.2667560
 134.6048940 111.7262190  59.9818170 139.1125460 113.6128680  58.7352750
 139.6203680 114.1109650  59.3757770 139.6438700 112.8363880  58.5592110
 137.3961560 108.2527240  63.0016170 137.3980000 108.7699630  62.1962070
 136.5665870 107.7757420  62.9786100 143.7832650 118.3646550  54.5006070
 143.1649920 118.8296000  53.9368790 144.2955900 119.0574030  54.9175580
 138.6464410 117.8922420  61.1789670 138.3133790 118.5191340  61.8210740
 138.8231090 118.4184300  60.3991340 147.1598320 111.7067500  58.6466010
 146.4553890 111.9952390  59.2269120 147.5210480 112.5167610  58.2865570
 137.0776890 109.9637200  61.0086620 137.4193700 110.8079250  60.7140490
 136.1392700 110.1120940  61.1251960 137.8583510 119.8603220  62.9938850
 138.4757510 120.5354300  62.7123300 136.9976630 120.2691200  62.9026350
 133.1515850 119.0503080  51.8745700 132.7743830 119.5390180  51.1430600
 133.4088920 119.7228360  52.5052230 148.7761100 121.3242630  60.9093490
 148.0924620 121.9941740  60.9010160 149.3155390 121.5223280  60.1438350
 140.7604780 107.4519470  57.3331210 141.0679760 106.8966360  56.6166710
 139.8305480 107.5863930  57.1504200 146.3119840 123.1686760  59.6238670
 146.3247000 122.7649050  58.7560930 145.7595060 123.9434050  59.5200100
 147.6065260 119.8902980  54.7128840 147.4961590 118.9477310  54.8378260
 147.6033510 120.2518620  55.5991600 145.7105280 118.0716600  60.9521280
 146.1274070 117.8576710  60.1174740 146.4345100 118.3289390  61.5229900
 143.1485540 115.5168300  54.0691330 142.2214820 115.4505680  54.2979800
 143.3010360 116.4548430  53.9546570 143.1354620 111.7885300  51.0658490
 142.1958290 111.9499260  51.1510950 143.4537880 112.5070980  50.5194480
 149.6567380 116.4703820  61.0437520 148.8286010 116.5396910  60.5687650
 150.2517860 117.0558130  60.5753350 147.1782830 117.0788600  54.5726580
 146.5595250 116.7408150  53.9252880 147.1607280 116.4348360  55.2805770
 146.6209390 113.2573140  61.9892390 146.2080570 114.0826850  62.2432380
 145.8885340 112.6718180  61.7968750 138.7542180 116.0433040  56.8511060
 138.3499180 115.3310290  56.3556960 138.8405300 115.6986280  57.7399100
 139.2223880 119.7300600  59.0150270 138.9252170 119.1246070  58.3358050
 140.1723700 119.7677910  58.9039630 137.4670800 112.8176250  60.6310100
 138.0185390 112.9271590  59.8563350 137.9814310 113.1913850  61.3465330
 147.3109490 123.3032470  62.6773370 146.8340050 124.1104660  62.4845980
 146.6271280 122.6510800  62.8299580 138.3142310 119.4682290  65.6658070
 137.4170840 119.6922260  65.9131470 138.3395180 119.5917230  64.7169470
 145.3547530 116.3175410  51.5799330 145.7940810 115.4797840  51.4337150
 146.0675950 116.9504810  51.6663470 137.1413530 116.3395610  64.2415440
 137.0021300 117.2118410  64.6102840 136.2594890 115.9968420  64.0963380
 143.4642910 121.2571480  55.5480570 143.9038820 121.9995810  55.1335960
 143.4029800 121.4998050  56.4719530 138.9393880 122.2817310  66.4500590
 138.9109310 122.6860260  65.5829020 138.7758850 121.3527670  66.2872190
 148.9364670 107.5718220  49.8940370 148.6237330 107.6645050  50.7939440
 149.6977140 108.1499250  49.8437800 135.4546810 114.9378020  54.3517710
 135.3344410 115.6640110  53.7398980 135.1447700 114.1680930  53.8745620
 133.0932180 118.1093160  60.1586350 133.1712600 118.2441930  59.2142070
 133.7073860 117.4009050  60.3514470 134.3379810 119.8093350  56.5692530
 133.9307890 119.9507940  55.7146130 135.2292820 119.5253510  56.3663740
 150.2941950 120.2557260  64.9064770 150.4205010 120.0169140  63.9881950
 150.3363330 119.4241800  65.3786850 144.1558690 123.9585260  63.4759580
 144.6703360 123.8693270  64.2782010 143.3127770 124.3044960  63.7687490
 146.1313090 124.2440600  52.9043580 145.9714230 123.9543540  53.8025410
 145.9659800 123.4680730  52.3688810 138.6101470 124.0239130  54.6815200
 138.4343950 123.1074670  54.4683000 137.7557210 124.3826420  54.9213000
 145.8339220 121.7528160  51.4641580 145.1404380 121.7505450  50.8043860
 146.5762080 121.3287480  51.0335750 145.3989150 123.3790870  55.5390070
 145.8546100 122.5980250  55.8528690 145.7381670 124.0897690  56.0831250
 150.1465960 112.3089720  65.8714510 149.5310230 112.8169390  65.3429970
 149.8262380 111.4088050  65.8140450 133.1491700 119.1507330  62.6980810
 133.3122740 118.6812690  61.8800180 133.6144150 118.6430890  63.3629650
 137.9210470 108.2813090  57.7341380 137.4778620 109.0622630  57.4025900
 138.4795460 108.6042980  58.4412320 142.2080280 111.1481610  63.3376700
 141.7459650 111.3564630  64.1496640 141.8058390 110.3340960  63.0347370
 147.2084790 112.3690560  64.4673360 146.3578380 112.0696310  64.7882430
 147.0486580 112.6132570  63.5557180 144.3034500 113.8692310  66.5672150
 144.6287910 113.0356060  66.2274380 145.0914830 114.3920830  66.7150480
 141.0369290 107.9023790  52.6147210 140.4123470 107.8983660  53.3400520
 140.9499410 107.0354750  52.2183180 139.9586370 108.8260420  59.5930980
 140.2558700 109.7323250  59.5123000 140.5071930 108.3379200  58.9790550
 137.7124690 113.4046660  55.4622630 137.4865610 113.1883830  56.3669250
 136.9317220 113.8375120  55.1168600 144.9422450 113.4110030  54.0613280
 144.3431340 114.1345830  53.8776900 145.4902060 113.3486810  53.2789730
 140.1523900 114.3032240  66.1282900 140.0567500 113.3626970  65.9783300
 140.9955880 114.5247310  65.7330970 143.5487320 112.0473570  56.0916560
 143.9416890 112.3645770  55.2785250 143.9104170 111.1685450  56.2061080
 141.8579490 110.7980880  67.3513420 141.1677810 110.6053080  67.9859510
 142.6011790 111.0815520  67.8837720 132.5851490 108.6374370  58.3146760
 132.2964540 109.2077230  59.0271740 133.3297250 108.1578820  58.6777990
 132.7721720 112.5794490  49.5249480 132.6896390 113.5225250  49.6664470
 132.4204780 112.4369400  48.6461830 144.1342460 114.6379320  60.1867340
 143.4023580 115.1466130  60.5357440 143.7366800 113.8209300  59.8856120
 140.5719850 111.3133520  58.5919830 140.5755910 110.8723470  57.7424370
 141.4670970 111.6350850  58.6991650 136.4222230 111.1960010  57.5514040
 136.0822280 111.6735240  58.3081090 135.6599550 110.7425130  57.1915140
 140.6340000 112.3145600  51.5826590 140.7552820 112.2732080  52.5312410
 140.2488510 113.1769750  51.4273320 144.5968370 110.0913000  59.5990280
 144.6141110 110.5421650  60.4432130 144.3483950 109.1918640  59.8123720
 139.6461500 114.6246740  50.9809890 139.0778400 114.1764990  50.3545800
 140.3550500 114.9839520  50.4475040 148.0239120 107.5045180  65.4376660
 148.3484890 106.7734840  65.9634640 148.0595630 107.1858820  64.5357650
 134.7230680 118.5258760  64.8576620 134.3385470 117.8852430  65.4559580
 135.0342870 119.2294880  65.4271350 140.8727820 115.3735300  60.3385240
 141.2397950 114.8993870  61.0846580 140.6832880 116.2476870  60.6793580
 133.7368310 110.1178990  56.4678710 133.4515230 109.7534660  57.3057330
 133.6747170 109.3859450  55.8541850 138.6627190 114.4143940  62.6569450
 138.3584260 115.2935920  62.8819810 139.6173650 114.4743730  62.6926890
 137.1908980 118.6204930  53.2536300 136.4171240 118.0802550  53.0935020
 137.9203610 118.1011540  52.9154060 147.9496960 117.6170290  59.0462690
 148.6696080 118.1125580  58.6558800 147.7478780 116.9388180  58.4016560
 143.4106900 109.0108250  53.1892080 142.5971510 108.5121420  53.1137390
 143.2168850 109.8506500  52.7728430 143.3315760 117.6879350  64.9331690
 143.2653070 116.7675020  64.6789280 142.7020900 117.7854790  65.6476330
 146.1255290 113.3827900  51.4854240 147.0134910 113.6945130  51.3105580
 146.0960380 112.5100150  51.0934820 137.2346380 118.2885310  56.8915110
 137.7525050 117.4853570  56.8372000 136.7830400 118.2264450  57.7331940
 142.1215880 119.5551590  52.1642410 142.4631580 120.2993820  51.6685730
 141.2928590 119.8682710  52.5267240 134.7190920 115.2546680  63.8040810
 134.3605860 115.9200530  64.3914150 134.4245480 114.4230230  64.1753430
 137.9204040 115.7130920  66.6880360 137.6204180 115.8588100  65.7908180
 138.6915280 115.1536210  66.5953750 143.2632490 120.5099920  64.6835490
 143.2777030 119.5780880  64.4654400 142.5557590 120.5959680  65.3225260
 148.3969560 114.6939740  50.9534100 148.3133280 115.1253960  50.1030540
 149.1163750 115.1538090  51.3860920 149.4743700 117.1507260  64.0304070
 148.7491890 117.7436040  63.8333460 150.0019160 117.1430800  63.2317440
 149.4256810 121.5482000  53.6816230 148.7832970 120.8937620  53.9559950
 149.0387470 121.9537090  52.9056900 145.0043290 118.8767430  57.5287920
 145.3567110 118.2795560  56.8689290 144.1205620 118.5511660  57.6996170
 141.0906570 119.6365120  54.9358330 141.7777700 120.1834330  55.3165920
 140.3038990 120.1805850  54.9707940 133.2298970 115.2537940  50.4275410
 134.0993820 115.5362740  50.7111330 132.7389290 116.0673810  50.3124220
 140.3933780 116.6411150  54.5483690 140.8496560 117.4516400  54.7743880
 140.0421990 116.3234290  55.3802180 142.6966390 122.1517490  61.7775990
 143.3408610 122.3576870  62.4549410 143.0595830 121.3905890  61.3246840
 136.2945560 106.9848800  55.0206210 136.1660190 106.9766700  55.9691130
 135.4707580 107.3231890  54.6697220 143.9698470 120.1549840  60.4953440
 144.6120700 119.4543000  60.6085610 144.4947820 120.9348280  60.3150330
 147.8154190 120.4398460  50.2192580 147.5891770 119.7228900  50.8117220
 147.4250390 120.1910900  49.3814330 145.7436090 120.9544740  63.6989500
 146.0792330 121.5411430  64.3767420 144.8236430 120.8237450  63.9287290
 133.5970220 124.4665320  50.9937040 133.9567860 125.0654660  50.3394310
 133.4562560 125.0125210  51.7672070 147.3970440 118.3570400  51.8806740
 147.1092140 118.8183090  52.6684620 148.1922610 117.8968170  52.1490960
 133.5812080 122.7320180  65.4679440 133.6903200 121.7914920  65.3274830
 132.9292640 122.9974930  64.8193170 141.5724670 121.0036070  66.8677560
 141.2521540 120.2845310  67.4123250 140.8983030 121.6791140  66.9413620
 139.6138840 121.8496520  51.8110710 139.6048940 122.5826210  51.1955220
 138.6937200 121.6028100  51.9037670 135.2145480 117.0711410  52.5557470
 134.6073430 117.8110310  52.5652770 135.6894830 117.1610770  51.7295670
 144.7878270 111.2362230  62.2314360 145.1559090 110.4157440  62.5593930
 143.9276470 111.2964120  62.6470010 148.1540300 110.1919170  53.0401920
 147.5253460 110.2964840  52.3260150 147.6592220 110.4115950  53.8295800
 142.5998440 121.9124760  50.4735900 142.7010420 121.7088750  49.5437880
 141.7000180 121.6583040  50.6783680 140.1224330 112.4705120  54.4559800
 139.4140480 112.9391460  54.8973410 140.4068810 111.8127130  55.0904990
 141.7480260 113.8901820  62.4552330 142.2465510 114.3647640  63.1204180
 141.8903210 112.9665340  62.6622360 144.1539760 109.1955780  55.8955590
 144.0307540 109.2141910  54.9465100 145.1024320 109.2434720  56.0153990
 141.2416550 124.4311080  55.1683570 141.4958050 124.3932470  54.2462940
 140.2929030 124.3044410  55.1611820 138.3259350 110.7790200  51.8310510
 139.1749880 111.2160350  51.7650700 137.9590620 111.0910460  52.6582570
 148.9547120 110.1069780  63.2980720 148.4520720 110.8475180  63.6374530
 149.7703780 110.4953780  62.9817510 147.2469130 115.3502960  56.7442080
 146.3059270 115.3653190  56.9189770 147.5613200 114.5638920  57.1902380
 137.2250770 117.0322560  50.3046040 137.9914040 116.9203920  50.8671470
 137.3025460 116.3360530  49.6522810 135.9197530 114.4647630  50.9878930
 136.0001120 113.5175140  51.0996330 136.8117280 114.7954510  51.0939590
 149.2494710 122.5211810  58.4196340 149.3742130 123.3442980  58.8920150
 150.1160270 122.3102540  58.0720490 136.7212240 124.6143020  58.0913470
 137.4574720 124.0658480  58.3622040 137.1053160 125.4799030  57.9519460
 133.6057720 120.6816590  53.9654980 132.6797500 120.9237730  53.9560390
 134.0714150 121.5090850  53.8439730 135.7270520 123.7989090  67.2799050
 136.5283250 124.1201140  67.6934450 135.2122340 123.4384670  68.0018960
 139.8314550 123.7873330  49.9139040 140.6243160 124.0762160  49.4620830
 139.3118900 123.3565500  49.2351520 144.5635150 119.9068960  67.2274460
 143.9573310 119.9300560  66.4870210 144.2589260 119.1752000  67.7641710
 145.9935520 123.6349250  65.8383870 146.9457270 123.5507270  65.7884110
 145.8463740 124.2990960  66.5117660 148.8844720 123.0143460  51.3375780
 148.5986230 122.6008600  50.5229960 148.6864270 123.9431170  51.2176300
 133.4468330 116.2862550  66.2235100 133.9507350 115.7069830  66.7951330
 132.7075750 116.5702780  66.7611470 140.3491950 119.0076740  49.7781390
 140.2442590 118.3929090  50.5042770 140.1816170 118.4842630  48.9944400
 140.5006270 117.6933540  65.7570620 139.7351940 118.2618540  65.6725290
 140.6822230 117.4009750  64.8638850 143.5894680 118.0696770  50.3823380
 143.0404780 118.5166070  51.0266120 144.2113940 117.5646020  50.9061050
 147.6429620 119.4238870  66.3145640 148.3839090 119.7614630  65.8113100
 146.8802300 119.5930930  65.7615410 135.4791410 114.4292140  67.1185170
 135.5196750 114.1306010  68.0270400 136.3336910 114.8299750  66.9592690
 139.2569800 117.0287690  52.2788680 139.6786220 116.8627560  53.1220070
 139.3820640 116.2187920  51.7843820 137.4197220 113.0084240  65.0859660
 136.8893680 112.5175190  64.4583000 138.0885290 113.4368440  64.5517590
 141.7697440 116.0525300  49.5265780 142.2903100 115.3374320  49.1606930
 142.4165840 116.6911170  49.8266290 146.3175280 117.4753700  64.8500850
 146.7316300 117.6298780  65.6991270 145.3826280 117.6008920  65.0126630
 146.7897450 114.8149860  66.8540000 147.3718220 114.0602180  66.7660480
 146.9659220 115.3457300  66.0771480 137.9069520 109.9746610  65.1656950
 137.8126390 109.3567360  64.4407820 137.3266910 110.7012900  64.9386860
 140.6730960 108.5319850  62.1984340 140.2248260 108.5544110  61.3529890
 140.0396160 108.1338870  62.7954640 141.0790510 117.4274180  62.8196780
 141.4978620 118.2706910  62.6473020 140.1599140 117.5646220  62.5903560
 143.4154410 115.1590360  64.2034620 143.5350620 114.5631500  64.9429460
 144.2748410 115.1960050  63.7835920 145.7542310 115.7127550  62.7797130
 145.2277530 116.2370170  62.1762270 146.0973650 116.3454940  63.4106860
 138.1528700 113.1020920  49.2246840 137.9517760 112.2388280  49.5860180
 137.9820750 113.0154280  48.2868440 138.9297930 123.7327190  63.9354510
 138.3919020 124.4573250  63.6163210 139.1831890 123.2557530  63.1451850
 140.1823180 111.7011710  65.4610440 140.7722870 111.3927560  66.1488260
 139.3643420 111.2291460  65.6170340 145.0016610 111.3177520  65.6943460
 144.3132130 110.6559060  65.6293450 145.7222630 110.8715790  66.1391920
 145.6317010 107.9129150  51.7533720 145.9119300 107.0697050  52.1093140
 144.8582740 108.1452260  52.2672470 136.9511500 110.2021540  49.2124720
 137.2537400 110.2088970  48.3043870 137.6906090 109.8519400  49.7092380
 141.7860140 124.9678400  64.1941160 141.7118840 125.8713540  64.5013530
 140.8838980 124.6490300  64.1663230 140.1696430 109.1456160  50.1980920
 139.8218430 108.4680150  49.6183370 140.3709200 108.6845670  51.0124310
 142.3345470 124.1336910  51.8167520 143.2296260 124.4721880  51.8386280
 142.3663100 123.4116320  51.1891800 135.9741630 119.5063960  50.0454520
 136.4116500 120.0493630  50.7012100 136.4589360 118.6810910  50.0550860
 133.1887430 122.2952990  57.4974780 133.5190440 121.4274050  57.2653420
 133.6178430 122.5011510  58.3279740 137.7849350 120.6262000  55.1576750
 137.4844890 120.5026970  56.0580660 137.6786840 119.7670590  54.7492480
 133.6777640 123.1623580  60.2356410 133.2408630 123.3424380  61.0680560
 134.2455320 123.9198200  60.0938130 149.3139820 122.6640580  64.5233720
 148.7141810 122.7233140  63.7797640 149.4433720 121.7245560  64.6530570
 133.5102070 115.6743810  56.5945290 132.8550910 115.4055450  55.9504990
 134.3480020 115.5648290  56.1447270 147.9991460 119.3892560  62.6209880
 147.1851300 119.8189720  62.8835670 148.4065660 120.0010970  62.0078930
 150.0616900 117.4440250  49.5210150 150.3365740 118.3519130  49.3929370
 149.8727640 117.3802780  50.4572140 146.4592510 110.4685100  50.8163780
 146.8777390 110.2816080  49.9760440 146.1528570 109.6164150  51.1266710
 149.9582240 115.3809240  54.5139580 149.5825840 114.6137170  54.0820870
 149.2285360 115.7631940  55.0014510 134.5478000 116.0596380  61.1348630
 134.9151040 115.9723780  62.0144650 133.9788820 115.2962930  61.0355490
 149.3481860 114.5280760  64.1479100 149.1167950 114.2993510  63.2477050
 149.6086410 115.4480310  64.1023990 134.0994000 112.9705470  65.0407050
 133.2050050 112.9372230  65.3800760 134.6391550 113.1692260  65.8058300
 147.7869930 109.7537190  66.9258800 148.6640110 109.7620590  67.3092800
 147.7990770 109.0168030  66.3151150 132.7240150 112.8842740  52.5370620
 131.8204230 113.1472940  52.3622280 133.2080770 113.1553910  51.7570580
 149.2333200 113.6066730  57.8146820 149.7570680 113.1129380  57.1836990
 149.8192620 113.7417090  58.5594390 149.4122920 113.6906600  61.3366370
 148.4625630 113.6570140  61.4511360 149.5935930 114.6006710  61.1016140
 135.2667360 111.9408280  50.4465000 135.9759060 111.5191500  49.9612280
 134.5507300 112.0083510  49.8148350 134.9141520 107.9947610  49.4867650
 135.6369650 108.5356550  49.8048870 135.1866040 107.7211030  48.6109190
 148.7233170 112.8640080  53.7539230 149.2192290 112.6310950  54.5388110
 148.5249240 112.0251920  53.3376870 134.6033710 107.2453800  59.3890270
 135.2509900 106.6951180  58.9485430 135.0235550 107.4996950  60.2106080
 148.4986050 107.4395160  62.7459910 149.1358270 108.0529300  63.1119100
 148.6460940 107.4755820  61.8009140 148.0567510 124.1411160  56.1478150
 148.6526580 123.8195730  55.4712570 148.3145660 123.6682980  56.9391420
 134.3565710 107.4009470  62.1315590 134.0080530 107.8573290  62.8973770
 134.0253410 106.5066600  62.2138020 135.9630080 120.5729070  66.2968780
 135.9199710 120.2021980  67.1783240 136.0941090 121.5106640  66.4370600
 139.6636110 122.1288660  61.8978500 139.4227470 122.3963220  61.0109020
 140.6038750 122.2994390  61.9529360 141.8690530 108.5921350  65.6535010
 141.8079420 109.1843180  66.4030420 142.8090910 108.4847310  65.5085270
 144.5065090 108.2491410  65.2927300 145.1205500 108.5670700  64.6308380
 145.0514650 107.7640000  65.9123160 135.8018110 123.5191320  63.4166560
 135.2078430 123.3876020  64.1556600 135.7941950 122.6829460  62.9508660
 145.2473130 106.8123550  61.6196590 144.3732970 107.1458660  61.4169520
 145.1383880 106.3396730  62.4448460 146.1545110 109.0194420  63.0038310
 145.8258470 108.2046180  62.6240040 147.1027410 108.9764230  62.8804000
 148.6079720 124.7906460  59.9775880 148.1482690 125.5422270  59.6033900
 147.9792180 124.0712930  59.9190680 135.4330340 120.8849700  62.3674600
 134.7064400 120.2654990  62.3000550 135.4939490 121.2790310  61.4972680
 139.0375440 123.0994700  59.1524010 139.5540460 122.4882060  58.6272270
 139.6872820 123.6023480  59.6435020 141.7770940 123.9903190  59.9792990
 142.0648750 123.7357490  59.1026000 142.2894160 123.4380550  60.5698560
 142.9947950 107.7293390  60.5589500 142.2119740 108.2038890  60.8386260
 142.7010880 106.8248220  60.4502680 147.5469020 108.4316490  58.6038590
 147.9877110 108.3761590  57.7560190 147.2776610 109.3474500  58.6748770
 149.4107590 108.0631730  56.6147410 149.3495990 107.1192950  56.4678430
 150.1899620 108.1711820  57.1600870 133.7160340 124.2024090  55.5771360
 133.5482380 123.5694770  56.2753250 132.8494850 124.4083490  55.2265550
 134.3388360 108.0340870  53.0803220 135.0967720 108.1469750  52.5067250
 133.8765530 108.8710070  53.0346650 140.8802170 110.1480140  56.0705530
 140.0676680 109.7737030  55.7301410 141.3843810 109.3925220  56.3726720
 145.3827150 106.8122590  57.3088600 145.9856520 107.3842800  57.7837120
 144.6420140 107.3762030  57.0862500 148.5261750 107.2144150  52.5828880
 148.7212380 108.1127600  52.8496310 147.7391620 106.9831230  53.0761830
 135.3223040 122.8957320  53.0221500 134.7970660 123.2765350  52.3183460
 135.2467620 123.5208090  53.7431210 136.7113510 108.5604920  51.6205190
 137.2406270 107.7734720  51.4913140 137.3441830 109.2396110  51.8540720
 138.9051350 108.2980060  54.6750580 138.2754090 107.5967370  54.8420710
 138.3656490 109.0584190  54.4583740 141.8443300 124.9119290  67.3461190
 142.7710610 124.6763560  67.3897150 141.8293730 125.7391290  66.8647220
 150.0788360 124.4544860  54.3435440 150.2540550 123.7682600  53.6996360
 149.3809930 124.9791910  53.9512110 139.0306910 107.5764040  67.1103070
 138.7491180 108.0797640  66.3463890 139.4126610 106.7785790  66.7445200
 137.9216010 124.8439700  51.8970750 138.6534830 124.5598980  51.3494640
 138.1809680 124.6052980  52.7870130 137.0830800 120.9604430  51.9017080
 136.4539680 121.4289530  52.4502910 137.1978630 120.1153650  52.3363270
 145.6322370 106.9917620  67.6883540 145.5187820 107.3112230  68.5835060
 146.4492110 107.3930130  67.3920820 148.4120860 124.1389150  67.1702230
 149.2046180 123.6438380  66.9628190 148.7054010 124.8179290  67.7777840
 144.5380520 115.0110090  38.0518280 144.4574570 114.0964700  37.7809990
 144.1244940 115.5077160  37.3457990 142.6698560 116.7889110  39.9327550
 141.8940660 116.3089550  40.2226120 143.3211490 116.1094760  39.7583710
 136.6864390 117.1008920  40.8103310 135.8549270 116.8457630  41.2099820
 137.2945370 117.1719690  41.5461230 146.6905990 121.1949300  38.7126680
 146.2287520 120.4236540  39.0413850 147.5031540 121.2215370  39.2179130
 136.6665650 121.1349010  41.0061330 136.9693690 120.2446750  40.8271550
 137.4109240 121.6919230  40.7783580 135.0956340 112.0610810  34.5945700
 134.2073040 112.4026780  34.4925580 135.3797530 111.8611130  33.7026530
 133.0589350 114.6616460  40.4785400 133.6305460 113.8938660  40.4789040
 133.0590890 114.9605220  39.5692010 142.9169300 123.4807310  38.3330670
 142.2980740 123.9364810  37.7625110 143.7721080 123.6358770  37.9320370
 142.1107550 119.4646300  39.9397710 142.0415830 118.5236240  39.7786840
 142.8727410 119.5547710  40.5120280 134.3014220 110.0700820  42.2654330
 134.1217060 109.1726570  42.5457090 133.8994300 110.6172690  42.9401280
 143.1412720 112.2716680  40.1666640 143.5177540 111.3988560  40.0540310
 143.0432230 112.6075380  39.2757080 137.2717730 110.6442310  35.6284080
 137.3784480 111.5446040  35.9352840 136.3610090 110.5960280  35.3378730
 146.9236840 109.7667120  37.0994980 147.7446460 109.2763690  37.1420460
 146.9570920 110.3564780  37.8526820 134.9200890 112.5661320  40.8736670
 135.6011000 112.8299690  41.4924070 134.6048940 111.7262190  41.2074680
 139.1125460 113.6128680  39.9609260 139.6203680 114.1109650  40.6014280
 139.6438700 112.8363880  39.7848620 137.3961560 108.2527240  44.2272680
 137.3980000 108.7699630  43.4218580 136.5665870 107.7757420  44.2042610
 143.7832650 118.3646550  35.7262580 143.1649920 118.8296000  35.1625300
 144.2955900 119.0574030  36.1432090 138.6464410 117.8922420  42.4046180
 138.3133790 118.5191340  43.0467250 138.8231090 118.4184300  41.6247850
 147.1598320 111.7067500  39.8722520 146.4553890 111.9952390  40.4525630
 147.5210480 112.5167610  39.5122080 137.0776890 109.9637200  42.2343130
 137.4193700 110.8079250  41.9397000 136.1392700 110.1120940  42.3508470
 137.8583510 119.8603220  44.2195360 138.4757510 120.5354300  43.9379810
 136.9976630 120.2691200  44.1282860 133.1515850 119.0503080  33.1002210
 132.7743830 119.5390180  32.3687110 133.4088920 119.7228360  33.7308740
 148.7761100 121.3242630  42.1350000 148.0924620 121.9941740  42.1266670
 149.3155390 121.5223280  41.3694860 140.7604780 107.4519470  38.5587720
 141.0679760 106.8966360  37.8423220 139.8305480 107.5863930  38.3760710
 146.3119840 123.1686760  40.8495180 146.3247000 122.7649050  39.9817440
 145.7595060 123.9434050  40.7456610 147.6065260 119.8902980  35.9385350
 147.4961590 118.9477310  36.0634770 147.6033510 120.2518620  36.8248110
 145.7105280 118.0716600  42.1777790 146.1274070 117.8576710  41.3431250
 146.4345100 118.3289390  42.7486410 143.1485540 115.5168300  35.2947840
 142.2214820 115.4505680  35.5236310 143.3010360 116.4548430  35.1803080
 143.1354620 111.7885300  32.2915000 142.1958290 111.9499260  32.3767460
 143.4537880 112.5070980  31.7450990 149.6567380 116.4703820  42.2694030
 148.8286010 116.5396910  41.7944160 150.2517860 117.0558130  41.8009860
 147.1782830 117.0788600  35.7983090 146.5595250 116.7408150  35.1509390
 147.1607280 116.4348360  36.5062280 146.6209390 113.2573140  43.2148900
 146.2080570 114.0826850  43.4688890 145.8885340 112.6718180  43.0225260
 138.7542180 116.0433040  38.0767570 138.3499180 115.3310290  37.5813470
 138.8405300 115.6986280  38.9655610 139.2223880 119.7300600  40.2406780
 138.9252170 119.1246070  39.5614560 140.1723700 119.7677910  40.1296140
 137.4670800 112.8176250  41.8566610 138.0185390 112.9271590  41.0819860
 137.9814310 113.1913850  42.5721840 147.3109490 123.3032470  43.9029880
 146.8340050 124.1104660  43.7102490 146.6271280 122.6510800  44.0556090
 138.3142310 119.4682290  46.8914580 137.4170840 119.6922260  47.1387980
 138.3395180 119.5917230  45.9425980 145.3547530 116.3175410  32.8055840
 145.7940810 115.4797840  32.6593660 146.0675950 116.9504810  32.8919980
 137.1413530 116.3395610  45.4671950 137.0021300 117.2118410  45.8359350
 136.2594890 115.9968420  45.3219890 143.4642910 121.2571480  36.7737080
 143.9038820 121.9995810  36.3592470 143.4029800 121.4998050  37.6976040
 138.9393880 122.2817310  47.6757100 138.9109310 122.6860260  46.8085530
 138.7758850 121.3527670  47.5128700 148.9364670 107.5718220  31.1196880
 148.6237330 107.6645050  32.0195950 149.6977140 108.1499250  31.0694310
 135.4546810 114.9378020  35.5774220 135.3344410 115.6640110  34.9655490
 135.1447700 114.1680930  35.1002130 133.0932180 118.1093160  41.3842860
 133.1712600 118.2441930  40.4398580 133.7073860 117.4009050  41.5770980
 134.3379810 119.8093350  37.7949040 133.9307890 119.9507940  36.9402640
 135.2292820 119.5253510  37.5920250 150.2941950 120.2557260  46.1321280
 150.4205010 120.0169140  45.2138460 150.3363330 119.4241800  46.6043360
 144.1558690 123.9585260  44.7016090 144.6703360 123.8693270  45.5038520
 143.3127770 124.3044960  44.9944000 146.1313090 124.2440600  34.1300090
 145.9714230 123.9543540  35.0281920 145.9659800 123.4680730  33.5945320
 138.6101470 124.0239130  35.9071710 138.4343950 123.1074670  35.6939510
 137.7557210 124.3826420  36.1469510 145.8339220 121.7528160  32.6898090
 145.1404380 121.7505450  32.0300370 146.5762080 121.3287480  32.2592260
 145.3989150 123.3790870  36.7646580 145.8546100 122.5980250  37.0785200
 145.7381670 124.0897690  37.3087760 150.1465960 112.3089720  47.0971020
 149.5310230 112.8169390  46.5686480 149.8262380 111.4088050  47.0396960
 133.1491700 119.1507330  43.9237320 133.3122740 118.6812690  43.1056690
 133.6144150 118.6430890  44.5886160 137.9210470 108.2813090  38.9597890
 137.4778620 109.0622630  38.6282410 138.4795460 108.6042980  39.6668830
 142.2080280 111.1481610  44.5633210 141.7459650 111.3564630  45.3753150
 141.8058390 110.3340960  44.2603880 147.2084790 112.3690560  45.6929870
 146.3578380 112.0696310  46.0138940 147.0486580 112.6132570  44.7813690
 144.3034500 113.8692310  47.7928660 144.6287910 113.0356060  47.4530890
 145.0914830 114.3920830  47.9406990 141.0369290 107.9023790  33.8403720
 140.4123470 107.8983660  34.5657030 140.9499410 107.0354750  33.4439690
 139.9586370 108.8260420  40.8187490 140.2558700 109.7323250  40.7379510
 140.5071930 108.3379200  40.2047060 137.7124690 113.4046660  36.6879140
 137.4865610 113.1883830  37.5925760 136.9317220 113.8375120  36.3425110
 144.9422450 113.4110030  35.2869790 144.3431340 114.1345830  35.1033410
 145.4902060 113.3486810  34.5046240 140.1523900 114.3032240  47.3539410
 140.0567500 113.3626970  47.2039810 140.9955880 114.5247310  46.9587480
 143.5487320 112.0473570  37.3173070 143.9416890 112.3645770  36.5041760
 143.9104170 111.1685450  37.4317590 135.2834440 110.7145910  45.5073190
 134.8897830 111.5621120  45.7145970 134.5952840 110.0772280  45.6981830
 141.8579490 110.7980880  48.5769930 141.1677810 110.6053080  49.2116020
 142.6011790 111.0815520  49.1094230 132.5851490 108.6374370  39.5403270
 132.2964540 109.2077230  40.2528250 133.3297250 108.1578820  39.9034500
 132.7721720 112.5794490  30.7505990 132.6896390 113.5225250  30.8920980
 132.4204780 112.4369400  29.8718340 144.1342460 114.6379320  41.4123850
 143.4023580 115.1466130  41.7613950 143.7366800 113.8209300  41.1112630
 140.5719850 111.3133520  39.8176340 140.5755910 110.8723470  38.9680880
 141.4670970 111.6350850  39.9248160 136.4222230 111.1960010  38.7770550
 136.0822280 111.6735240  39.5337600 135.6599550 110.7425130  38.4171650
 140.6340000 112.3145600  32.8083100 140.7552820 112.2732080  33.7568920
 140.2488510 113.1769750  32.6529830 144.5968370 110.0913000  40.8246790
 144.6141110 110.5421650  41.6688640 144.3483950 109.1918640  41.0380230
 139.6461500 114.6246740  32.2066400 139.0778400 114.1764990  31.5802310
 140.3550500 114.9839520  31.6731550 148.0239120 107.5045180  46.6633170
 148.3484890 106.7734840  47.1891150 148.0595630 107.1858820  45.7614160
 134.7230680 118.5258760  46.0833130 134.3385470 117.8852430  46.6816090
 135.0342870 119.2294880  46.6527860 140.8727820 115.3735300  41.5641750
 141.2397950 114.8993870  42.3103090 140.6832880 116.2476870  41.9050090
 133.7368310 110.1178990  37.6935220 133.4515230 109.7534660  38.5313840
 133.6747170 109.3859450  37.0798360 138.6627190 114.4143940  43.8825960
 138.3584260 115.2935920  44.1076320 139.6173650 114.4743730  43.9183400
 137.1908980 118.6204930  34.4792810 136.4171240 118.0802550  34.3191530
 137.9203610 118.1011540  34.1410570 147.9496960 117.6170290  40.2719200
 148.6696080 118.1125580  39.8815310 147.7478780 116.9388180  39.6273070
 143.4106900 109.0108250  34.4148590 142.5971510 108.5121420  34.3393900
 143.2168850 109.8506500  33.9984940 143.3315760 117.6879350  46.1588200
 143.2653070 116.7675020  45.9045790 142.7020900 117.7854790  46.8732840
 146.1255290 113.3827900  32.7110750 147.0134910 113.6945130  32.5362090
 146.0960380 112.5100150  32.3191330 137.2346380 118.2885310  38.1171620
 137.7525050 117.4853570  38.0628510 136.7830400 118.2264450  38.9588450
 142.1215880 119.5551590  33.3898920 142.4631580 120.2993820  32.8942240
 141.2928590 119.8682710  33.7523750 134.7190920 115.2546680  45.0297320
 134.3605860 115.9200530  45.6170660 134.4245480 114.4230230  45.4009940
 137.9204040 115.7130920  47.9136870 137.6204180 115.8588100  47.0164690
 138.6915280 115.1536210  47.8210260 143.2632490 120.5099920  45.9092000
 143.2777030 119.5780880  45.6910910 142.5557590 120.5959680  46.5481770
 148.3969560 114.6939740  32.1790610 148.3133280 115.1253960  31.3287050
 149.1163750 115.1538090  32.6117430 149.4743700 117.1507260  45.2560580
 148.7491890 117.7436040  45.0589970 150.0019160 117.1430800  44.4573950
 149.4256810 121.5482000  34.9072740 148.7832970 120.8937620  35.1816460
 149.0387470 121.9537090  34.1313410 145.0043290 118.8767430  38.7544430
 145.3567110 118.2795560  38.0945800 144.1205620 118.5511660  38.9252680
 141.0906570 119.6365120  36.1614840 141.7777700 120.1834330  36.5422430
 140.3038990 120.1805850  36.1964450 133.2298970 115.2537940  31.6531920
 134.0993820 115.5362740  31.9367840 132.7389290 116.0673810  31.5380730
 140.3933780 116.6411150  35.7740200 140.8496560 117.4516400  36.0000390
 140.0421990 116.3234290  36.6058690 142.6966390 122.1517490  43.0032500
 143.3408610 122.3576870  43.6805920 143.0595830 121.3905890  42.5503350
 136.2945560 106.9848800  36.2462720 136.1660190 106.9766700  37.1947640
 135.4707580 107.3231890  35.8953730 143.9698470 120.1549840  41.7209950
 144.6120700 119.4543000  41.8342120 144.4947820 120.9348280  41.5406840
 147.8154190 120.4398460  31.4449090 147.5891770 119.7228900  32.0373730
 147.4250390 120.1910900  30.6070840 145.7436090 120.9544740  44.9246010
 146.0792330 121.5411430  45.6023930 144.8236430 120.8237450  45.1543800
 133.5970220 124.4665320  32.2193550 133.9567860 125.0654660  31.5650820
 133.4562560 125.0125210  32.9928580 133.2939490 108.7439920  45.7069420
 132.5798010 108.9436840  46.3122030 133.7134530 107.9679490  46.0784220
 147.3970440 118.3570400  33.1063250 147.1092140 118.8183090  33.8941130
 148.1922610 117.8968170  33.3747470 133.5812080 122.7320180  46.6935950
 133.6903200 121.7914920  46.5531340 132.9292640 122.9974930  46.0449680
 141.5724670 121.0036070  48.0934070 141.2521540 120.2845310  48.6379760
 140.8983030 121.6791140  48.1670130 139.6138840 121.8496520  33.0367220
 139.6048940 122.5826210  32.4211730 138.6937200 121.6028100  33.1294180
 135.2145480 117.0711410  33.7813980 134.6073430 117.8110310  33.7909280
 135.6894830 117.1610770  32.9552180 144.7878270 111.2362230  43.4570870
 145.1559090 110.4157440  43.7850440 143.9276470 111.2964120  43.8726520
 148.1540300 110.1919170  34.2658430 147.5253460 110.2964840  33.5516660
 147.6592220 110.4115950  35.0552310 142.5998440 121.9124760  31.6992410
 142.7010420 121.7088750  30.7694390 141.7000180 121.6583040  31.9040190
 140.1224330 112.4705120  35.6816310 139.4140480 112.9391460  36.1229920
 140.4068810 111.8127130  36.3161500 141.7480260 113.8901820  43.6808840
 142.2465510 114.3647640  44.3460690 141.8903210 112.9665340  43.8878870
 144.1539760 109.1955780  37.1212100 144.0307540 109.2141910  36.1721610
 145.1024320 109.2434720  37.2410500 141.2416550 124.4311080  36.3940080
 141.4958050 124.3932470  35.4719450 140.2929030 124.3044410  36.3868330
 138.3259350 110.7790200  33.0567020 139.1749880 111.2160350  32.9907210
 137.9590620 111.0910460  33.8839080 148.9547120 110.1069780  44.5237230
 148.4520720 110.8475180  44.8631040 149.7703780 110.4953780  44.2074020
 147.2469130 115.3502960  37.9698590 146.3059270 115.3653190  38.1446280
 147.5613200 114.5638920  38.4158890 137.2250770 117.0322560  31.5302550
 137.9914040 116.9203920  32.0927980 137.3025460 116.3360530  30.8779320
 135.9197530 114.4647630  32.2135440 136.0001120 113.5175140  32.3252840
 136.8117280 114.7954510  32.3196100 149.2494710 122.5211810  39.6452850
 149.3742130 123.3442980  40.1176660 150.1160270 122.3102540  39.2977000
 136.7212240 124.6143020  39.3169980 137.4574720 124.0658480  39.5878550
 137.1053160 125.4799030  39.1775970 133.6057720 120.6816590  35.1911490
 132.6797500 120.9237730  35.1816900 134.0714150 121.5090850  35.0696240
 135.7270520 123.7989090  48.5055560 136.5283250 124.1201140  48.9190960
 135.2122340 123.4384670  49.2275470 139.8314550 123.7873330  31.1395550
 140.6243160 124.0762160  30.6877340 139.3118900 123.3565500  30.4608030
 144.5635150 119.9068960  48.4530970 143.9573310 119.9300560  47.7126720
 144.2589260 119.1752000  48.9898220 145.9935520 123.6349250  47.0640380
 146.9457270 123.5507270  47.0140620 145.8463740 124.2990960  47.7374170
 148.8844720 123.0143460  32.5632290 148.5986230 122.6008600  31.7486470
 148.6864270 123.9431170  32.4432810 133.4468330 116.2862550  47.4491610
 133.9507350 115.7069830  48.0207840 132.7075750 116.5702780  47.9867980
 140.3491950 119.0076740  31.0037900 140.2442590 118.3929090  31.7299280
 140.1816170 118.4842630  30.2200910 140.5006270 117.6933540  46.9827130
 139.7351940 118.2618540  46.8981800 140.6822230 117.4009750  46.0895360
 143.5894680 118.0696770  31.6079890 143.0404780 118.5166070  32.2522630
 144.2113940 117.5646020  32.1317560 147.6429620 119.4238870  47.5402150
 148.3839090 119.7614630  47.0369610 146.8802300 119.5930930  46.9871920
 135.4791410 114.4292140  48.3441680 135.5196750 114.1306010  49.2526910
 136.3336910 114.8299750  48.1849200 139.2569800 117.0287690  33.5045190
 139.6786220 116.8627560  34.3476580 139.3820640 116.2187920  33.0100330
 137.4197220 113.0084240  46.3116170 136.8893680 112.5175190  45.6839510
 138.0885290 113.4368440  45.7774100 141.7697440 116.0525300  30.7522290
 142.2903100 115.3374320  30.3863440 142.4165840 116.6911170  31.0522800
 146.3175280 117.4753700  46.0757360 146.7316300 117.6298780  46.9247780
 145.3826280 117.6008920  46.2383140 146.7897450 114.8149860  48.0796510
 147.3718220 114.0602180  47.9916990 146.9659220 115.3457300  47.3027990
 137.9069520 109.9746610  46.3913460 137.8126390 109.3567360  45.6664330
 137.3266910 110.7012900  46.1643370 140.6730960 108.5319850  43.4240850
 140.2248260 108.5544110  42.5786400 140.0396160 108.1338870  44.0211150
 141.0790510 117.4274180  44.0453290 141.4978620 118.2706910  43.8729530
 140.1599140 117.5646220  43.8160070 143.4154410 115.1590360  45.4291130
 143.5350620 114.5631500  46.1685970 144.2748410 115.1960050  45.0092430
 145.7542310 115.7127550  44.0053640 145.2277530 116.2370170  43.4018780
 146.0973650 116.3454940  44.6363370 138.1528700 113.1020920  30.4503350
 137.9517760 112.2388280  30.8116690 137.9820750 113.0154280  29.5124950
 138.9297930 123.7327190  45.1611020 138.3919020 124.4573250  44.8419720
 139.1831890 123.2557530  44.3708360 140.1823180 111.7011710  46.6866950
 140.7722870 111.3927560  47.3744770 139.3643420 111.2291460  46.8426850
 145.0016610 111.3177520  46.9199970 144.3132130 110.6559060  46.8549960
 145.7222630 110.8715790  47.3648430 145.6317010 107.9129150  32.9790230
 145.9119300 107.0697050  33.3349650 144.8582740 108.1452260  33.4928980
 136.9511500 110.2021540  30.4381230 137.2537400 110.2088970  29.5300380
 137.6906090 109.8519400  30.9348890 141.7860140 124.9678400  45.4197670
 141.7118840 125.8713540  45.7270040 140.8838980 124.6490300  45.3919740
 140.1696430 109.1456160  31.4237430 139.8218430 108.4680150  30.8439880
 140.3709200 108.6845670  32.2380820 142.3345470 124.1336910  33.0424030
 143.2296260 124.4721880  33.0642790 142.3663100 123.4116320  32.4148310
 135.9741630 119.5063960  31.2711030 136.4116500 120.0493630  31.9268610
 136.4589360 118.6810910  31.2807370 133.1887430 122.2952990  38.7231290
 133.5190440 121.4274050  38.4909930 133.6178430 122.5011510  39.5536250
 137.7849350 120.6262000  36.3833260 137.4844890 120.5026970  37.2837170
 137.6786840 119.7670590  35.9748990 133.6777640 123.1623580  41.4612920
 133.2408630 123.3424380  42.2937070 134.2455320 123.9198200  41.3194640
 149.3139820 122.6640580  45.7490230 148.7141810 122.7233140  45.0054150
 149.4433720 121.7245560  45.8787080 133.5102070 115.6743810  37.8201800
 132.8550910 115.4055450  37.1761500 134.3480020 115.5648290  37.3703780
 147.9991460 119.3892560  43.8466390 147.1851300 119.8189720  44.1092180
 148.4065660 120.0010970  43.2335440 150.0616900 117.4440250  30.7466660
 150.3365740 118.3519130  30.6185880 149.8727640 117.3802780  31.6828650
 146.4592510 110.4685100  32.0420290 146.8777390 110.2816080  31.2016950
 146.1528570 109.6164150  32.3523220 149.9582240 115.3809240  35.7396090
 149.5825840 114.6137170  35.3077380 149.2285360 115.7631940  36.2271020
 134.5478000 116.0596380  42.3605140 134.9151040 115.9723780  43.2401160
 133.9788820 115.2962930  42.2612000 149.3481860 114.5280760  45.3735610
 149.1167950 114.2993510  44.4733560 149.6086410 115.4480310  45.3280500
 134.0994000 112.9705470  46.2663560 133.2050050 112.9372230  46.6057270
 134.6391550 113.1692260  47.0314810 147.7869930 109.7537190  48.1515310
 148.6640110 109.7620590  48.5349310 147.7990770 109.0168030  47.5407660
 132.7240150 112.8842740  33.7627130 131.8204230 113.1472940  33.5878790
 133.2080770 113.1553910  32.9827090 149.2333200 113.6066730  39.0403330
 149.7570680 113.1129380  38.4093500 149.8192620 113.7417090  39.7850900
 149.4122920 113.6906600  42.5622880 148.4625630 113.6570140  42.6767870
 149.5935930 114.6006710  42.3272650 135.2667360 111.9408280  31.6721510
 135.9759060 111.5191500  31.1868790 134.5507300 112.0083510  31.0404860
 134.9141520 107.9947610  30.7124160 135.6369650 108.5356550  31.0305380
 135.1866040 107.7211030  29.8365700 148.7233170 112.8640080  34.9795740
 149.2192290 112.6310950  35.7644620 148.5249240 112.0251920  34.5633380
 134.6033710 107.2453800  40.6146780 135.2509900 106.6951180  40.1741940
 135.0235550 107.4996950  41.4362590 148.4986050 107.4395160  43.9716420
 149.1358270 108.0529300  44.3375610 148.6460940 107.4755820  43.0265650
 148.0567510 124.1411160  37.3734660 148.6526580 123.8195730  36.6969080
 148.3145660 123.6682980  38.1647930 134.3565710 107.4009470  43.3572100
 134.0080530 107.8573290  44.1230280 134.0253410 106.5066600  43.4394530
 135.9630080 120.5729070  47.5225290 135.9199710 120.2021980  48.4039750
 136.0941090 121.5106640  47.6627110 139.6636110 122.1288660  43.1235010
 139.4227470 122.3963220  42.2365530 140.6038750 122.2994390  43.1785870
 141.8690530 108.5921350  46.8791520 141.8079420 109.1843180  47.6286930
 142.8090910 108.4847310  46.7341780 144.5065090 108.2491410  46.5183810
 145.1205500 108.5670700  45.8564890 145.0514650 107.7640000  47.1379670
 135.0286350 106.9285670  46.6322870 135.5769340 106.7473720  45.8688980
 135.0941660 106.1379780  47.1679180 135.8018110 123.5191320  44.6423070
 135.2078430 123.3876020  45.3813110 135.7941950 122.6829460  44.1765170
 145.2473130 106.8123550  42.8453100 144.3732970 107.1458660  42.6426030
 145.1383880 106.3396730  43.6704970 146.1545110 109.0194420  44.2294820
 145.8258470 108.2046180  43.8496550 147.1027410 108.9764230  44.1060510
 148.6079720 124.7906460  41.2032390 148.1482690 125.5422270  40.8290410
 147.9792180 124.0712930  41.1447190 135.4330340 120.8849700  43.5931110
 134.7064400 120.2654990  43.5257060 135.4939490 121.2790310  42.7229190
 139.0375440 123.0994700  40.3780520 139.5540460 122.4882060  39.8528780
 139.6872820 123.6023480  40.8691530 141.7770940 123.9903190  41.2049500
 142.0648750 123.7357490  40.3282510 142.2894160 123.4380550  41.7955070
 142.9947950 107.7293390  41.7846010 142.2119740 108.2038890  42.0642770
 142.7010880 106.8248220  41.6759190 147.5469020 108.4316490  39.8295100
 147.9877110 108.3761590  38.9816700 147.2776610 109.3474500  39.9005280
 149.4107590 108.0631730  37.8403920 149.3495990 107.1192950  37.6934940
 150.1899620 108.1711820  38.3857380 133.7160340 124.2024090  36.8027870
 133.5482380 123.5694770  37.5009760 132.8494850 124.4083490  36.4522060
 134.3388360 108.0340870  34.3059730 135.0967720 108.1469750  33.7323760
 133.8765530 108.8710070  34.2603160 140.8802170 110.1480140  37.2962040
 140.0676680 109.7737030  36.9557920 141.3843810 109.3925220  37.5983230
 145.3827150 106.8122590  38.5345110 145.9856520 107.3842800  39.0093630
 144.6420140 107.3762030  38.3119010 148.5261750 107.2144150  33.8085390
 148.7212380 108.1127600  34.0752820 147.7391620 106.9831230  34.3018340
 135.3223040 122.8957320  34.2478010 134.7970660 123.2765350  33.5439970
 135.2467620 123.5208090  34.9687720 136.7113510 108.5604920  32.8461700
 137.2406270 107.7734720  32.7169650 137.3441830 109.2396110  33.0797230
 138.9051350 108.2980060  35.9007090 138.2754090 107.5967370  36.0677220
 138.3656490 109.0584190  35.6840250 141.8443300 124.9119290  48.5717700
 142.7710610 124.6763560  48.6153660 141.8293730 125.7391290  48.0903730
 150.0788360 124.4544860  35.5691950 150.2540550 123.7682600  34.9252870
 149.3809930 124.9791910  35.1768620 139.0306910 107.5764040  48.3359580
 138.7491180 108.0797640  47.5720400 139.4126610 106.7785790  47.9701710
 137.9216010 124.8439700  33.1227260 138.6534830 124.5598980  32.5751150
 138.1809680 124.6052980  34.0126640 137.0830800 120.9604430  33.1273590
 136.4539680 121.4289530  33.6759420 137.1978630 120.1153650  33.5619780
 145.6322370 106.9917620  48.9140050 145.5187820 107.3112230  49.8091570
 146.4492110 107.3930130  48.6177330 148.4120860 124.1389150  48.3958740
 149.2046180 123.6438380  48.1884700 148.7054010 124.8179290  49.0034350
 144.5380520 115.0110090  19.2774790 144.4574570 114.0964700  19.0066500
 144.1244940 115.5077160  18.5714500 142.6698560 116.7889110  21.1584060
 141.8940660 116.3089550  21.4482630 143.3211490 116.1094760  20.9840220
 136.6864390 117.1008920  22.0359820 135.8549270 116.8457630  22.4356330
 137.2945370 117.1719690  22.7717740 146.6905990 121.1949300  19.9383190
 146.2287520 120.4236540  20.2670360 147.5031540 121.2215370  20.4435640
 136.6665650 121.1349010  22.2317840 136.9693690 120.2446750  22.0528060
 137.4109240 121.6919230  22.0040090 135.0956340 112.0610810  15.8202210
 134.2073040 112.4026780  15.7182090 135.3797530 111.8611130  14.9283040
 133.0589350 114.6616460  21.7041910 133.6305460 113.8938660  21.7045550
 133.0590890 114.9605220  20.7948520 142.9169300 123.4807310  19.5587180
 142.2980740 123.9364810  18.9881620 143.7721080 123.6358770  19.1576880
 142.1107550 119.4646300  21.1654220 142.0415830 118.5236240  21.0043350
 142.8727410 119.5547710  21.7376790 134.3014220 110.0700820  23.4910840
 134.1217060 109.1726570  23.7713600 133.8994300 110.6172690  24.1657790
 143.1412720 112.2716680  21.3923150 143.5177540 111.3988560  21.2796820
 143.0432230 112.6075380  20.5013590 137.2717730 110.6442310  16.8540590
 137.3784480 111.5446040  17.1609350 136.3610090 110.5960280  16.5635240
 146.9236840 109.7667120  18.3251490 147.7446460 109.2763690  18.3676970
 146.9570920 110.3564780  19.0783330 134.9200890 112.5661320  22.0993180
 135.6011000 112.8299690  22.7180580 134.6048940 111.7262190  22.4331190
 139.1125460 113.6128680  21.1865770 139.6203680 114.1109650  21.8270790
 139.6438700 112.8363880  21.0105130 137.3961560 108.2527240  25.4529190
 137.3980000 108.7699630  24.6475090 136.5665870 107.7757420  25.4299120
 143.7832650 118.3646550  16.9519090 143.1649920 118.8296000  16.3881810
 144.2955900 119.0574030  17.3688600 138.6464410 117.8922420  23.6302690
 138.3133790 118.5191340  24.2723760 138.8231090 118.4184300  22.8504360
 147.1598320 111.7067500  21.0979030 146.4553890 111.9952390  21.6782140
 147.5210480 112.5167610  20.7378590 137.0776890 109.9637200  23.4599640
 137.4193700 110.8079250  23.1653510 136.1392700 110.1120940  23.5764980
 137.8583510 119.8603220  25.4451870 138.4757510 120.5354300  25.1636320
 136.9976630 120.2691200  25.3539370 133.1515850 119.0503080  14.3258720
 132.7743830 119.5390180  13.5943620 133.4088920 119.7228360  14.9565250
 148.7761100 121.3242630  23.3606510 148.0924620 121.9941740  23.3523180
 149.3155390 121.5223280  22.5951370 140.7604780 107.4519470  19.7844230
 141.0679760 106.8966360  19.0679730 139.8305480 107.5863930  19.6017220
 146.3119840 123.1686760  22.0751690 146.3247000 122.7649050  21.2073950
 145.7595060 123.9434050  21.9713120 147.6065260 119.8902980  17.1641860
 147.4961590 118.9477310  17.2891280 147.6033510 120.2518620  18.0504620
 145.7105280 118.0716600  23.4034300 146.1274070 117.8576710  22.5687760
 146.4345100 118.3289390  23.9742920 143.1485540 115.5168300  16.5204350
 142.2214820 115.4505680  16.7492820 143.3010360 116.4548430  16.4059590
 143.1354620 111.7885300  13.5171510 142.1958290 111.9499260  13.6023970
 143.4537880 112.5070980  12.9707500 149.6567380 116.4703820  23.4950540
 148.8286010 116.5396910  23.0200670 150.2517860 117.0558130  23.0266370
 147.1782830 117.0788600  17.0239600 146.5595250 116.7408150  16.3765900
 147.1607280 116.4348360  17.7318790 146.6209390 113.2573140  24.4405410
 146.2080570 114.0826850  24.6945400 145.8885340 112.6718180  24.2481770
 138.7542180 116.0433040  19.3024080 138.3499180 115.3310290  18.8069980
 138.8405300 115.6986280  20.1912120 139.2223880 119.7300600  21.4663290
 138.9252170 119.1246070  20.7871070 140.1723700 119.7677910  21.3552650
 137.4670800 112.8176250  23.0823120 138.0185390 112.9271590  22.3076370
 137.9814310 113.1913850  23.7978350 147.3109490 123.3032470  25.1286390
 146.8340050 124.1104660  24.9359000 146.6271280 122.6510800  25.2812600
 138.3142310 119.4682290  28.1171090 137.4170840 119.6922260  28.3644490
 138.3395180 119.5917230  27.1682490 145.3547530 116.3175410  14.0312350
 145.7940810 115.4797840  13.8850170 146.0675950 116.9504810  14.1176490
 137.1413530 116.3395610  26.6928460 137.0021300 117.2118410  27.0615860
 136.2594890 115.9968420  26.5476400 143.4642910 121.2571480  17.9993590
 143.9038820 121.9995810  17.5848980 143.4029800 121.4998050  18.9232550
 138.9393880 122.2817310  28.9013610 138.9109310 122.6860260  28.0342040
 138.7758850 121.3527670  28.7385210 148.9364670 107.5718220  12.3453390
 148.6237330 107.6645050  13.2452460 149.6977140 108.1499250  12.2950820
 135.4546810 114.9378020  16.8030730 135.3344410 115.6640110  16.1912000
 135.1447700 114.1680930  16.3258640 133.0932180 118.1093160  22.6099370
 133.1712600 118.2441930  21.6655090 133.7073860 117.4009050  22.8027490
 134.3379810 119.8093350  19.0205550 133.9307890 119.9507940  18.1659150
 135.2292820 119.5253510  18.8176760 150.2941950 120.2557260  27.3577790
 150.4205010 120.0169140  26.4394970 150.3363330 119.4241800  27.8299870
 144.1558690 123.9585260  25.9272600 144.6703360 123.8693270  26.7295030
 143.3127770 124.3044960  26.2200510 146.1313090 124.2440600  15.3556600
 145.9714230 123.9543540  16.2538430 145.9659800 123.4680730  14.8201830
 138.6101470 124.0239130  17.1328220 138.4343950 123.1074670  16.9196020
 137.7557210 124.3826420  17.3726020 145.8339220 121.7528160  13.9154600
 145.1404380 121.7505450  13.2556880 146.5762080 121.3287480  13.4848770
 145.3989150 123.3790870  17.9903090 145.8546100 122.5980250  18.3041710
 145.7381670 124.0897690  18.5344270 150.1465960 112.3089720  28.3227530
 149.5310230 112.8169390  27.7942990 149.8262380 111.4088050  28.2653470
 133.1491700 119.1507330  25.1493830 133.3122740 118.6812690  24.3313200
 133.6144150 118.6430890  25.8142670 137.9210470 108.2813090  20.1854400
 137.4778620 109.0622630  19.8538920 138.4795460 108.6042980  20.8925340
 142.2080280 111.1481610  25.7889720 141.7459650 111.3564630  26.6009660
 141.8058390 110.3340960  25.4860390 147.2084790 112.3690560  26.9186380
 146.3578380 112.0696310  27.2395450 147.0486580 112.6132570  26.0070200
 144.3034500 113.8692310  29.0185170 144.6287910 113.0356060  28.6787400
 145.0914830 114.3920830  29.1663500 141.0369290 107.9023790  15.0660230
 140.4123470 107.8983660  15.7913540 140.9499410 107.0354750  14.6696200
 139.9586370 108.8260420  22.0444000 140.2558700 109.7323250  21.9636020
 140.5071930 108.3379200  21.4303570 137.7124690 113.4046660  17.9135650
 137.4865610 113.1883830  18.8182270 136.9317220 113.8375120  17.5681620
 144.9422450 113.4110030  16.5126300 144.3431340 114.1345830  16.3289920
 145.4902060 113.3486810  15.7302750 140.1523900 114.3032240  28.5795920
 140.0567500 113.3626970  28.4296320 140.9955880 114.5247310  28.1843990
 143.5487320 112.0473570  18.5429580 143.9416890 112.3645770  17.7298270
 143.9104170 111.1685450  18.6574100 135.2834440 110.7145910  26.7329700
 134.8897830 111.5621120  26.9402480 134.5952840 110.0772280  26.9238340
 141.8579490 110.7980880  29.8026440 141.1677810 110.6053080  30.4372530
 142.6011790 111.0815520  30.3350740 132.5851490 108.6374370  20.7659780
 132.2964540 109.2077230  21.4784760 133.3297250 108.1578820  21.1291010
 132.7721720 112.5794490  11.9762500 132.6896390 113.5225250  12.1177490
 132.4204780 112.4369400  11.0974850 144.1342460 114.6379320  22.6380360
 143.4023580 115.1466130  22.9870460 143.7366800 113.8209300  22.3369140
 140.5719850 111.3133520  21.0432850 140.5755910 110.8723470  20.1937390
 141.4670970 111.6350850  21.1504670 136.4222230 111.1960010  20.0027060
 136.0822280 111.6735240  20.7594110 135.6599550 110.7425130  19.6428160
 140.6340000 112.3145600  14.0339610 140.7552820 112.2732080  14.9825430
 140.2488510 113.1769750  13.8786340 144.5968370 110.0913000  22.0503300
 144.6141110 110.5421650  22.8945150 144.3483950 109.1918640  22.2636740
 139.6461500 114.6246740  13.4322910 139.0778400 114.1764990  12.8058820
 140.3550500 114.9839520  12.8988060 148.0239120 107.5045180  27.8889680
 148.3484890 106.7734840  28.4147660 148.0595630 107.1858820  26.9870670
 134.7230680 118.5258760  27.3089640 134.3385470 117.8852430  27.9072600
 135.0342870 119.2294880  27.8784370 140.8727820 115.3735300  22.7898260
 141.2397950 114.8993870  23.5359600 140.6832880 116.2476870  23.1306600
 133.7368310 110.1178990  18.9191730 133.4515230 109.7534660  19.7570350
 133.6747170 109.3859450  18.3054870 138.6627190 114.4143940  25.1082470
 138.3584260 115.2935920  25.3332830 139.6173650 114.4743730  25.1439910
 137.1908980 118.6204930  15.7049320 136.4171240 118.0802550  15.5448040
 137.9203610 118.1011540  15.3667080 147.9496960 117.6170290  21.4975710
 148.6696080 118.1125580  21.1071820 147.7478780 116.9388180  20.8529580
 143.4106900 109.0108250  15.6405100 142.5971510 108.5121420  15.5650410
 143.2168850 109.8506500  15.2241450 143.3315760 117.6879350  27.3844710
 143.2653070 116.7675020  27.1302300 142.7020900 117.7854790  28.0989350
 146.1255290 113.3827900  13.9367260 147.0134910 113.6945130  13.7618600
 146.0960380 112.5100150  13.5447840 137.2346380 118.2885310  19.3428130
 137.7525050 117.4853570  19.2885020 136.7830400 118.2264450  20.1844960
 142.1215880 119.5551590  14.6155430 142.4631580 120.2993820  14.1198750
 141.2928590 119.8682710  14.9780260 134.7190920 115.2546680  26.2553830
 134.3605860 115.9200530  26.8427170 134.4245480 114.4230230  26.6266450
 137.9204040 115.7130920  29.1393380 137.6204180 115.8588100  28.2421200
 138.6915280 115.1536210  29.0466770 143.2632490 120.5099920  27.1348510
 143.2777030 119.5780880  26.9167420 142.5557590 120.5959680  27.7738280
 148.3969560 114.6939740  13.4047120 148.3133280 115.1253960  12.5543560
 149.1163750 115.1538090  13.8373940 149.4743700 117.1507260  26.4817090
 148.7491890 117.7436040  26.2846480 150.0019160 117.1430800  25.6830460
 149.4256810 121.5482000  16.1329250 148.7832970 120.8937620  16.4072970
 149.0387470 121.9537090  15.3569920 145.0043290 118.8767430  19.9800940
 145.3567110 118.2795560  19.3202310 144.1205620 118.5511660  20.1509190
 141.0906570 119.6365120  17.3871350 141.7777700 120.1834330  17.7678940
 140.3038990 120.1805850  17.4220960 133.2298970 115.2537940  12.8788430
 134.0993820 115.5362740  13.1624350 132.7389290 116.0673810  12.7637240
 140.3933780 116.6411150  16.9996710 140.8496560 117.4516400  17.2256900
 140.0421990 116.3234290  17.8315200 142.6966390 122.1517490  24.2289010
 143.3408610 122.3576870  24.9062430 143.0595830 121.3905890  23.7759860
 136.2945560 106.9848800  17.4719230 136.1660190 106.9766700  18.4204150
 135.4707580 107.3231890  17.1210240 143.9698470 120.1549840  22.9466460
 144.6120700 119.4543000  23.0598630 144.4947820 120.9348280  22.7663350
 147.8154190 120.4398460  12.6705600 147.5891770 119.7228900  13.2630240
 147.4250390 120.1910900  11.8327350 145.7436090 120.9544740  26.1502520
 146.0792330 121.5411430  26.8280440 144.8236430 120.8237450  26.3800310
 133.5970220 124.4665320  13.4450060 133.9567860 125.0654660  12.7907330
 133.4562560 125.0125210  14.2185090 133.2939490 108.7439920  26.9325930
 132.5798010 108.9436840  27.5378540 133.7134530 107.9679490  27.3040730
 147.3970440 118.3570400  14.3319760 147.1092140 118.8183090  15.1197640
 148.1922610 117.8968170  14.6003980 133.5812080 122.7320180  27.9192460
 133.6903200 121.7914920  27.7787850 132.9292640 122.9974930  27.2706190
 141.5724670 121.0036070  29.3190580 141.2521540 120.2845310  29.8636270
 140.8983030 121.6791140  29.3926640 139.6138840 121.8496520  14.2623730
 139.6048940 122.5826210  13.6468240 138.6937200 121.6028100  14.3550690
 135.2145480 117.0711410  15.0070490 134.6073430 117.8110310  15.0165790
 135.6894830 117.1610770  14.1808690 144.7878270 111.2362230  24.6827380
 145.1559090 110.4157440  25.0106950 143.9276470 111.2964120  25.0983030
 148.1540300 110.1919170  15.4914940 147.5253460 110.2964840  14.7773170
 147.6592220 110.4115950  16.2808820 142.5998440 121.9124760  12.9248920
 142.7010420 121.7088750  11.9950900 141.7000180 121.6583040  13.1296700
 140.1224330 112.4705120  16.9072820 139.4140480 112.9391460  17.3486430
 140.4068810 111.8127130  17.5418010 141.7480260 113.8901820  24.9065350
 142.2465510 114.3647640  25.5717200 141.8903210 112.9665340  25.1135380
 144.1539760 109.1955780  18.3468610 144.0307540 109.2141910  17.3978120
 145.1024320 109.2434720  18.4667010 141.2416550 124.4311080  17.6196590
 141.4958050 124.3932470  16.6975960 140.2929030 124.3044410  17.6124840
 138.3259350 110.7790200  14.2823530 139.1749880 111.2160350  14.2163720
 137.9590620 111.0910460  15.1095590 148.9547120 110.1069780  25.7493740
 148.4520720 110.8475180  26.0887550 149.7703780 110.4953780  25.4330530
 147.2469130 115.3502960  19.1955100 146.3059270 115.3653190  19.3702790
 147.5613200 114.5638920  19.6415400 137.2250770 117.0322560  12.7559060
 137.9914040 116.9203920  13.3184490 137.3025460 116.3360530  12.1035830
 135.9197530 114.4647630  13.4391950 136.0001120 113.5175140  13.5509350
 136.8117280 114.7954510  13.5452610 149.2494710 122.5211810  20.8709360
 149.3742130 123.3442980  21.3433170 150.1160270 122.3102540  20.5233510
 136.7212240 124.6143020  20.5426490 137.4574720 124.0658480  20.8135060
 137.1053160 125.4799030  20.4032480 133.6057720 120.6816590  16.4168000
 132.6797500 120.9237730  16.4073410 134.0714150 121.5090850  16.2952750
 135.7270520 123.7989090  29.7312070 136.5283250 124.1201140  30.1447470
 135.2122340 123.4384670  30.4531980 139.8314550 123.7873330  12.3652060
 140.6243160 124.0762160  11.9133850 139.3118900 123.3565500  11.6864540
 144.5635150 119.9068960  29.6787480 143.9573310 119.9300560  28.9383230
 144.2589260 119.1752000  30.2154730 145.9935520 123.6349250  28.2896890
 146.9457270 123.5507270  28.2397130 145.8463740 124.2990960  28.9630680
 148.8844720 123.0143460  13.7888800 148.5986230 122.6008600  12.9742980
 148.6864270 123.9431170  13.6689320 133.4468330 116.2862550  28.6748120
 133.9507350 115.7069830  29.2464350 132.7075750 116.5702780  29.2124490
 140.3491950 119.0076740  12.2294410 140.2442590 118.3929090  12.9555790
 140.1816170 118.4842630  11.4457420 140.5006270 117.6933540  28.2083640
 139.7351940 118.2618540  28.1238310 140.6822230 117.4009750  27.3151870
 143.5894680 118.0696770  12.8336400 143.0404780 118.5166070  13.4779140
 144.2113940 117.5646020  13.3574070 147.6429620 119.4238870  28.7658660
 148.3839090 119.7614630  28.2626120 146.8802300 119.5930930  28.2128430
 135.4791410 114.4292140  29.5698190 135.5196750 114.1306010  30.4783420
 136.3336910 114.8299750  29.4105710 139.2569800 117.0287690  14.7301700
 139.6786220 116.8627560  15.5733090 139.3820640 116.2187920  14.2356840
 137.4197220 113.0084240  27.5372680 136.8893680 112.5175190  26.9096020
 138.0885290 113.4368440  27.0030610 141.7697440 116.0525300  11.9778800
 142.2903100 115.3374320  11.6119950 142.4165840 116.6911170  12.2779310
 146.3175280 117.4753700  27.3013870 146.7316300 117.6298780  28.1504290
 145.3826280 117.6008920  27.4639650 146.7897450 114.8149860  29.3053020
 147.3718220 114.0602180  29.2173500 146.9659220 115.3457300  28.5284500
 137.9069520 109.9746610  27.6169970 137.8126390 109.3567360  26.8920840
 137.3266910 110.7012900  27.3899880 140.6730960 108.5319850  24.6497360
 140.2248260 108.5544110  23.8042910 140.0396160 108.1338870  25.2467660
 141.0790510 117.4274180  25.2709800 141.4978620 118.2706910  25.0986040
 140.1599140 117.5646220  25.0416580 143.4154410 115.1590360  26.6547640
 143.5350620 114.5631500  27.3942480 144.2748410 115.1960050  26.2348940
 145.7542310 115.7127550  25.2310150 145.2277530 116.2370170  24.6275290
 146.0973650 116.3454940  25.8619880 138.1528700 113.1020920  11.6759860
 137.9517760 112.2388280  12.0373200 137.9820750 113.0154280  10.7381460
 138.9297930 123.7327190  26.3867530 138.3919020 124.4573250  26.0676230
 139.1831890 123.2557530  25.5964870 140.1823180 111.7011710  27.9123460
 140.7722870 111.3927560  28.6001280 139.3643420 111.2291460  28.0683360
 145.0016610 111.3177520  28.1456480 144.3132130 110.6559060  28.0806470
 145.7222630 110.8715790  28.5904940 145.6317010 107.9129150  14.2046740
 145.9119300 107.0697050  14.5606160 144.8582740 108.1452260  14.7185490
 136.9511500 110.2021540  11.6637740 137.2537400 110.2088970  10.7556890
 137.6906090 109.8519400  12.1605400 141.7860140 124.9678400  26.6454180
 141.7118840 125.8713540  26.9526550 140.8838980 124.6490300  26.6176250
 140.1696430 109.1456160  12.6493940 139.8218430 108.4680150  12.0696390
 140.3709200 108.6845670  13.4637330 142.3345470 124.1336910  14.2680540
 143.2296260 124.4721880  14.2899300 142.3663100 123.4116320  13.6404820
 135.9741630 119.5063960  12.4967540 136.4116500 120.0493630  13.1525120
 136.4589360 118.6810910  12.5063880 133.1887430 122.2952990  19.9487800
 133.5190440 121.4274050  19.7166440 133.6178430 122.5011510  20.7792760
 137.7849350 120.6262000  17.6089770 137.4844890 120.5026970  18.5093680
 137.6786840 119.7670590  17.2005500 133.6777640 123.1623580  22.6869430
 133.2408630 123.3424380  23.5193580 134.2455320 123.9198200  22.5451150
 149.3139820 122.6640580  26.9746740 148.7141810 122.7233140  26.2310660
 149.4433720 121.7245560  27.1043590 133.5102070 115.6743810  19.0458310
 132.8550910 115.4055450  18.4018010 134.3480020 115.5648290  18.5960290
 147.9991460 119.3892560  25.0722900 147.1851300 119.8189720  25.3348690
 148.4065660 120.0010970  24.4591950 150.0616900 117.4440250  11.9723170
 150.3365740 118.3519130  11.8442390 149.8727640 117.3802780  12.9085160
 146.4592510 110.4685100  13.2676800 146.8777390 110.2816080  12.4273460
 146.1528570 109.6164150  13.5779730 149.9582240 115.3809240  16.9652600
 149.5825840 114.6137170  16.5333890 149.2285360 115.7631940  17.4527530
 134.5478000 116.0596380  23.5861650 134.9151040 115.9723780  24.4657670
 133.9788820 115.2962930  23.4868510 149.3481860 114.5280760  26.5992120
 149.1167950 114.2993510  25.6990070 149.6086410 115.4480310  26.5537010
 134.0994000 112.9705470  27.4920070 133.2050050 112.9372230  27.8313780
 134.6391550 113.1692260  28.2571320 147.7869930 109.7537190  29.3771820
 148.6640110 109.7620590  29.7605820 147.7990770 109.0168030  28.7664170
 132.7240150 112.8842740  14.9883640 131.8204230 113.1472940  14.8135300
 133.2080770 113.1553910  14.2083600 149.2333200 113.6066730  20.2659840
 149.7570680 113.1129380  19.6350010 149.8192620 113.7417090  21.0107410
 149.4122920 113.6906600  23.7879390 148.4625630 113.6570140  23.9024380
 149.5935930 114.6006710  23.5529160 135.2667360 111.9408280  12.8978020
 135.9759060 111.5191500  12.4125300 134.5507300 112.0083510  12.2661370
 134.9141520 107.9947610  11.9380670 135.6369650 108.5356550  12.2561890
 135.1866040 107.7211030  11.0622210 148.7233170 112.8640080  16.2052250
 149.2192290 112.6310950  16.9901130 148.5249240 112.0251920  15.7889890
 134.6033710 107.2453800  21.8403290 135.2509900 106.6951180  21.3998450
 135.0235550 107.4996950  22.6619100 148.4986050 107.4395160  25.1972930
 149.1358270 108.0529300  25.5632120 148.6460940 107.4755820  24.2522160
 148.0567510 124.1411160  18.5991170 148.6526580 123.8195730  17.9225590
 148.3145660 123.6682980  19.3904440 134.3565710 107.4009470  24.5828610
 134.0080530 107.8573290  25.3486790 134.0253410 106.5066600  24.6651040
 135.9630080 120.5729070  28.7481800 135.9199710 120.2021980  29.6296260
 136.0941090 121.5106640  28.8883620 139.6636110 122.1288660  24.3491520
 139.4227470 122.3963220  23.4622040 140.6038750 122.2994390  24.4042380
 141.8690530 108.5921350  28.1048030 141.8079420 109.1843180  28.8543440
 142.8090910 108.4847310  27.9598290 144.5065090 108.2491410  27.7440320
 145.1205500 108.5670700  27.0821400 145.0514650 107.7640000  28.3636180
 135.0286350 106.9285670  27.8579380 135.5769340 106.7473720  27.0945490
 135.0941660 106.1379780  28.3935690 135.8018110 123.5191320  25.8679580
 135.2078430 123.3876020  26.6069620 135.7941950 122.6829460  25.4021680
 145.2473130 106.8123550  24.0709610 144.3732970 107.1458660  23.8682540
 145.1383880 106.3396730  24.8961480 146.1545110 109.0194420  25.4551330
 145.8258470 108.2046180  25.0753060 147.1027410 108.9764230  25.3317020
 148.6079720 124.7906460  22.4288900 148.1482690 125.5422270  22.0546920
 147.9792180 124.0712930  22.3703700 135.4330340 120.8849700  24.8187620
 134.7064400 120.2654990  24.7513570 135.4939490 121.2790310  23.9485700
 139.0375440 123.0994700  21.6037030 139.5540460 122.4882060  21.0785290
 139.6872820 123.6023480  22.0948040 141.7770940 123.9903190  22.4306010
 142.0648750 123.7357490  21.5539020 142.2894160 123.4380550  23.0211580
 142.9947950 107.7293390  23.0102520 142.2119740 108.2038890  23.2899280
 142.7010880 106.8248220  22.9015700 147.5469020 108.4316490  21.0551610
 147.9877110 108.3761590  20.2073210 147.2776610 109.3474500  21.1261790
 149.4107590 108.0631730  19.0660430 149.3495990 107.1192950  18.9191450
 150.1899620 108.1711820  19.6113890 133.7160340 124.2024090  18.0284380
 133.5482380 123.5694770  18.7266270 132.8494850 124.4083490  17.6778570
 134.3388360 108.0340870  15.5316240 135.0967720 108.1469750  14.9580270
 133.8765530 108.8710070  15.4859670 140.8802170 110.1480140  18.5218550
 140.0676680 109.7737030  18.1814430 141.3843810 109.3925220  18.8239740
 145.3827150 106.8122590  19.7601620 145.9856520 107.3842800  20.2350140
 144.6420140 107.3762030  19.5375520 148.5261750 107.2144150  15.0341900
 148.7212380 108.1127600  15.3009330 147.7391620 106.9831230  15.5274850
 135.3223040 122.8957320  15.4734520 134.7970660 123.2765350  14.7696480
 135.2467620 123.5208090  16.1944230 136.7113510 108.5604920  14.0718210
 137.2406270 107.7734720  13.9426160 137.3441830 109.2396110  14.3053740
 138.9051350 108.2980060  17.1263600 138.2754090 107.5967370  17.2933730
 138.3656490 109.0584190  16.9096760 141.8443300 124.9119290  29.7974210
 142.7710610 124.6763560  29.8410170 141.8293730 125.7391290  29.3160240
 150.0788360 124.4544860  16.7948460 150.2540550 123.7682600  16.1509380
 149.3809930 124.9791910  16.4025130 139.0306910 107.5764040  29.5616090
 138.7491180 108.0797640  28.7976910 139.4126610 106.7785790  29.1958220
 137.9216010 124.8439700  14.3483770 138.6534830 124.5598980  13.8007660
 138.1809680 124.6052980  15.2383150 137.0830800 120.9604430  14.3530100
 136.4539680 121.4289530  14.9015930 137.1978630 120.1153650  14.7876290
 145.6322370 106.9917620  30.1396560 145.5187820 107.3112230  31.0348080
 146.4492110 107.3930130  29.8433840 148.4120860 124.1389150  29.6215250
 149.2046180 123.6438380  29.4141210 148.7054010 124.8179290  30.2290860
 142.6698560 116.7889110   2.3840570 141.8940660 116.3089550   2.6739140
 143.3211490 116.1094760   2.2096730 136.6864390 117.1008920   3.2616330
 135.8549270 116.8457630   3.6612840 137.2945370 117.1719690   3.9974250
 136.6665650 121.1349010   3.4574350 136.9693690 120.2446750   3.2784570
 137.4109240 121.6919230   3.2296600 133.0589350 114.6616460   2.9298420
 133.6305460 113.8938660   2.9302060 133.0590890 114.9605220   2.0205030
 142.1107550 119.4646300   2.3910730 142.0415830 118.5236240   2.2299860
 142.8727410 119.5547710   2.9633300 134.3014220 110.0700820   4.7167350
 134.1217060 109.1726570   4.9970110 133.8994300 110.6172690   5.3914300
 143.1412720 112.2716680   2.6179660 143.5177540 111.3988560   2.5053330
 143.0432230 112.6075380   1.7270100 134.9200890 112.5661320   3.3249690
 135.6011000 112.8299690   3.9437090 134.6048940 111.7262190   3.6587700
 139.1125460 113.6128680   2.4122280 139.6203680 114.1109650   3.0527300
 139.6438700 112.8363880   2.2361640 137.3961560 108.2527240   6.6785700
 137.3980000 108.7699630   5.8731600 136.5665870 107.7757420   6.6555630
 138.6464410 117.8922420   4.8559200 138.3133790 118.5191340   5.4980270
 138.8231090 118.4184300   4.0760870 147.1598320 111.7067500   2.3235540
 146.4553890 111.9952390   2.9038650 147.5210480 112.5167610   1.9635100
 137.0776890 109.9637200   4.6856150 137.4193700 110.8079250   4.3910020
 136.1392700 110.1120940   4.8021490 137.8583510 119.8603220   6.6708380
 138.4757510 120.5354300   6.3892830 136.9976630 120.2691200   6.5795880
 148.7761100 121.3242630   4.5863020 148.0924620 121.9941740   4.5779690
 149.3155390 121.5223280   3.8207880 146.3119840 123.1686760   3.3008200
 146.3247000 122.7649050   2.4330460 145.7595060 123.9434050   3.1969630
 145.7105280 118.0716600   4.6290810 146.1274070 117.8576710   3.7944270
 146.4345100 118.3289390   5.1999430 149.6567380 116.4703820   4.7207050
 148.8286010 116.5396910   4.2457180 150.2517860 117.0558130   4.2522880
 146.6209390 113.2573140   5.6661920 146.2080570 114.0826850   5.9201910
 145.8885340 112.6718180   5.4738280 139.2223880 119.7300600   2.6919800
 138.9252170 119.1246070   2.0127580 140.1723700 119.7677910   2.5809160
 137.4670800 112.8176250   4.3079630 138.0185390 112.9271590   3.5332880
 137.9814310 113.1913850   5.0234860 147.3109490 123.3032470   6.3542900
 146.8340050 124.1104660   6.1615510 146.6271280 122.6510800   6.5069110
 138.3142310 119.4682290   9.3427600 137.4170840 119.6922260   9.5901000
 138.3395180 119.5917230   8.3939000 137.1413530 116.3395610   7.9184970
 137.0021300 117.2118410   8.2872370 136.2594890 115.9968420   7.7732910
 138.9393880 122.2817310  10.1270120 138.9109310 122.6860260   9.2598550
 138.7758850 121.3527670   9.9641720 133.0932180 118.1093160   3.8355880
 133.1712600 118.2441930   2.8911600 133.7073860 117.4009050   4.0284000
 150.2941950 120.2557260   8.5834300 150.4205010 120.0169140   7.6651480
 150.3363330 119.4241800   9.0556380 144.1558690 123.9585260   7.1529110
 144.6703360 123.8693270   7.9551540 143.3127770 124.3044960   7.4457020
 150.1465960 112.3089720   9.5484040 149.5310230 112.8169390   9.0199500
 149.8262380 111.4088050   9.4909980 133.1491700 119.1507330   6.3750340
 133.3122740 118.6812690   5.5569710 133.6144150 118.6430890   7.0399180
 142.2080280 111.1481610   7.0146230 141.7459650 111.3564630   7.8266170
 141.8058390 110.3340960   6.7116900 147.2084790 112.3690560   8.1442890
 146.3578380 112.0696310   8.4651960 147.0486580 112.6132570   7.2326710
 144.3034500 113.8692310  10.2441680 144.6287910 113.0356060   9.9043910
 145.0914830 114.3920830  10.3920010 139.9586370 108.8260420   3.2700510
 140.2558700 109.7323250   3.1892530 140.5071930 108.3379200   2.6560080
 140.1523900 114.3032240   9.8052430 140.0567500 113.3626970   9.6552830
 140.9955880 114.5247310   9.4100500 135.2834440 110.7145910   7.9586210
 134.8897830 111.5621120   8.1658990 134.5952840 110.0772280   8.1494850
 141.8579490 110.7980880  11.0282950 141.1677810 110.6053080  11.6629040
 142.6011790 111.0815520  11.5607250 132.5851490 108.6374370   1.9916290
 132.2964540 109.2077230   2.7041270 133.3297250 108.1578820   2.3547520
 144.1342460 114.6379320   3.8636870 143.4023580 115.1466130   4.2126970
 143.7366800 113.8209300   3.5625650 140.5719850 111.3133520   2.2689360
 140.5755910 110.8723470   1.4193900 141.4670970 111.6350850   2.3761180
 144.5968370 110.0913000   3.2759810 144.6141110 110.5421650   4.1201660
 144.3483950 109.1918640   3.4893250 148.0239120 107.5045180   9.1146190
 148.3484890 106.7734840   9.6404170 148.0595630 107.1858820   8.2127180
 134.7230680 118.5258760   8.5346150 134.3385470 117.8852430   9.1329110
 135.0342870 119.2294880   9.1040880 140.8727820 115.3735300   4.0154770
 141.2397950 114.8993870   4.7616110 140.6832880 116.2476870   4.3563110
 138.6627190 114.4143940   6.3338980 138.3584260 115.2935920   6.5589340
 139.6173650 114.4743730   6.3696420 147.9496960 117.6170290   2.7232220
 148.6696080 118.1125580   2.3328330 147.7478780 116.9388180   2.0786090
 143.3315760 117.6879350   8.6101220 143.2653070 116.7675020   8.3558810
 142.7020900 117.7854790   9.3245860 134.7190920 115.2546680   7.4810340
 134.3605860 115.9200530   8.0683680 134.4245480 114.4230230   7.8522960
 137.9204040 115.7130920  10.3649890 137.6204180 115.8588100   9.4677710
 138.6915280 115.1536210  10.2723280 143.2632490 120.5099920   8.3605020
 143.2777030 119.5780880   8.1423930 142.5557590 120.5959680   8.9994790
 149.4743700 117.1507260   7.7073600 148.7491890 117.7436040   7.5102990
 150.0019160 117.1430800   6.9086970 142.6966390 122.1517490   5.4545520
 143.3408610 122.3576870   6.1318940 143.0595830 121.3905890   5.0016370
 143.9698470 120.1549840   4.1722970 144.6120700 119.4543000   4.2855140
 144.4947820 120.9348280   3.9919860 145.7436090 120.9544740   7.3759030
 146.0792330 121.5411430   8.0536950 144.8236430 120.8237450   7.6056820
 133.2939490 108.7439920   8.1582440 132.5798010 108.9436840   8.7635050
 133.7134530 107.9679490   8.5297240 133.5812080 122.7320180   9.1448970
 133.6903200 121.7914920   9.0044360 132.9292640 122.9974930   8.4962700
 141.5724670 121.0036070  10.5447090 141.2521540 120.2845310  11.0892780
 140.8983030 121.6791140  10.6183150 144.7878270 111.2362230   5.9083890
 145.1559090 110.4157440   6.2363460 143.9276470 111.2964120   6.3239540
 141.7480260 113.8901820   6.1321860 142.2465510 114.3647640   6.7973710
 141.8903210 112.9665340   6.3391890 148.9547120 110.1069780   6.9750250
 148.4520720 110.8475180   7.3144060 149.7703780 110.4953780   6.6587040
 149.2494710 122.5211810   2.0965870 149.3742130 123.3442980   2.5689680
 150.1160270 122.3102540   1.7490020 136.7212240 124.6143020   1.7683000
 137.4574720 124.0658480   2.0391570 137.1053160 125.4799030   1.6288990
 135.7270520 123.7989090  10.9568580 136.5283250 124.1201140  11.3703980
 135.2122340 123.4384670  11.6788490 144.5635150 119.9068960  10.9043990
 143.9573310 119.9300560  10.1639740 144.2589260 119.1752000  11.4411240
 145.9935520 123.6349250   9.5153400 146.9457270 123.5507270   9.4653640
 145.8463740 124.2990960  10.1887190 133.4468330 116.2862550   9.9004630
 133.9507350 115.7069830  10.4720860 132.7075750 116.5702780  10.4381000
 140.5006270 117.6933540   9.4340150 139.7351940 118.2618540   9.3494820
 140.6822230 117.4009750   8.5408380 147.6429620 119.4238870   9.9915170
 148.3839090 119.7614630   9.4882630 146.8802300 119.5930930   9.4384940
 135.4791410 114.4292140  10.7954700 135.5196750 114.1306010  11.7039930
 136.3336910 114.8299750  10.6362220 137.4197220 113.0084240   8.7629190
 136.8893680 112.5175190   8.1352530 138.0885290 113.4368440   8.2287120
 146.3175280 117.4753700   8.5270380 146.7316300 117.6298780   9.3760800
 145.3826280 117.6008920   8.6896160 146.7897450 114.8149860  10.5309530
 147.3718220 114.0602180  10.4430010 146.9659220 115.3457300   9.7541010
 137.9069520 109.9746610   8.8426480 137.8126390 109.3567360   8.1177350
 137.3266910 110.7012900   8.6156390 140.6730960 108.5319850   5.8753870
 140.2248260 108.5544110   5.0299420 140.0396160 108.1338870   6.4724170
 141.0790510 117.4274180   6.4966310 141.4978620 118.2706910   6.3242550
 140.1599140 117.5646220   6.2673090 143.4154410 115.1590360   7.8804150
 143.5350620 114.5631500   8.6198990 144.2748410 115.1960050   7.4605450
 145.7542310 115.7127550   6.4566660 145.2277530 116.2370170   5.8531800
 146.0973650 116.3454940   7.0876390 138.9297930 123.7327190   7.6124040
 138.3919020 124.4573250   7.2932740 139.1831890 123.2557530   6.8221380
 140.1823180 111.7011710   9.1379970 140.7722870 111.3927560   9.8257790
 139.3643420 111.2291460   9.2939870 145.0016610 111.3177520   9.3712990
 144.3132130 110.6559060   9.3062980 145.7222630 110.8715790   9.8161450
 141.7860140 124.9678400   7.8710690 141.7118840 125.8713540   8.1783060
 140.8838980 124.6490300   7.8432760 133.6777640 123.1623580   3.9125940
 133.2408630 123.3424380   4.7450090 134.2455320 123.9198200   3.7707660
 149.3139820 122.6640580   8.2003250 148.7141810 122.7233140   7.4567170
 149.4433720 121.7245560   8.3300100 147.9991460 119.3892560   6.2979410
 147.1851300 119.8189720   6.5605200 148.4065660 120.0010970   5.6848460
 134.5478000 116.0596380   4.8118160 134.9151040 115.9723780   5.6914180
 133.9788820 115.2962930   4.7125020 149.3481860 114.5280760   7.8248630
 149.1167950 114.2993510   6.9246580 149.6086410 115.4480310   7.7793520
 134.0994000 112.9705470   8.7176580 133.2050050 112.9372230   9.0570290
 134.6391550 113.1692260   9.4827830 147.7869930 109.7537190  10.6028330
 148.6640110 109.7620590  10.9862330 147.7990770 109.0168030   9.9920680
 149.4122920 113.6906600   5.0135900 148.4625630 113.6570140   5.1280890
 149.5935930 114.6006710   4.7785670 134.6033710 107.2453800   3.0659800
 135.2509900 106.6951180   2.6254960 135.0235550 107.4996950   3.8875610
 148.4986050 107.4395160   6.4229440 149.1358270 108.0529300   6.7888630
 148.6460940 107.4755820   5.4778670 134.3565710 107.4009470   5.8085120
 134.0080530 107.8573290   6.5743300 134.0253410 106.5066600   5.8907550
 135.9630080 120.5729070   9.9738310 135.9199710 120.2021980  10.8552770
 136.0941090 121.5106640  10.1140130 139.6636110 122.1288660   5.5748030
 139.4227470 122.3963220   4.6878550 140.6038750 122.2994390   5.6298890
 141.8690530 108.5921350   9.3304540 141.8079420 109.1843180  10.0799950
 142.8090910 108.4847310   9.1854800 144.5065090 108.2491410   8.9696830
 145.1205500 108.5670700   8.3077910 145.0514650 107.7640000   9.5892690
 135.0286350 106.9285670   9.0835890 135.5769340 106.7473720   8.3202000
 135.0941660 106.1379780   9.6192200 135.8018110 123.5191320   7.0936090
 135.2078430 123.3876020   7.8326130 135.7941950 122.6829460   6.6278190
 145.2473130 106.8123550   5.2966120 144.3732970 107.1458660   5.0939050
 145.1383880 106.3396730   6.1217990 146.1545110 109.0194420   6.6807840
 145.8258470 108.2046180   6.3009570 147.1027410 108.9764230   6.5573530
 148.6079720 124.7906460   3.6545410 148.1482690 125.5422270   3.2803430
 147.9792180 124.0712930   3.5960210 135.4330340 120.8849700   6.0444130
 134.7064400 120.2654990   5.9770080 135.4939490 121.2790310   5.1742210
 139.0375440 123.0994700   2.8293540 139.5540460 122.4882060   2.3041800
 139.6872820 123.6023480   3.3204550 141.7770940 123.9903190   3.6562520
 142.0648750 123.7357490   2.7795530 142.2894160 123.4380550   4.2468090
 142.9947950 107.7293390   4.2359030 142.2119740 108.2038890   4.5155790
 142.7010880 106.8248220   4.1272210 147.5469020 108.4316490   2.2808120
 147.9877110 108.3761590   1.4329720 147.2776610 109.3474500   2.3518300
 141.8443300 124.9119290  11.0230720 142.7710610 124.6763560  11.0666680
 141.8293730 125.7391290  10.5416750 139.0306910 107.5764040  10.7872600
 138.7491180 108.0797640  10.0233420 139.4126610 106.7785790  10.4214730
 145.6322370 106.9917620  11.3653070 145.5187820 107.3112230  12.2604590
 146.4492110 107.3930130  11.0690350 148.4120860 124.1389150  10.8471760
 149.2046180 123.6438380  10.6397720 148.7054010 124.8179290  11.4547370
 144.5380520  96.2366600 150.6979220 144.4574570  95.3221210 150.4270930
 144.1244940  96.7333670 149.9918930 142.6698560  98.0145620 152.5788490
 141.8940660  97.5346060 152.8687060 143.3211490  97.3351270 152.4044650
 146.6905990 102.4205810 151.3587620 146.2287520 101.6493050 151.6874790
 147.5031540 102.4471880 151.8640070 135.0956340  93.2867320 147.2406640
 134.2073040  93.6283290 147.1386520 135.3797530  93.0867640 146.3487470
 133.0589350  95.8872970 153.1246340 133.6305460  95.1195170 153.1249980
 133.0590890  96.1861730 152.2152950 142.9169300 104.7063820 150.9791610
 142.2980740 105.1621320 150.4086050 143.7721080 104.8615280 150.5781310
 142.1107550 100.6902810 152.5858650 142.0415830  99.7492750 152.4247780
 142.8727410 100.7804220 153.1581220 143.1412720  93.4973190 152.8127580
 143.5177540  92.6245070 152.7001250 143.0432230  93.8331890 151.9218020
 137.2717730  91.8698820 148.2745020 137.3784480  92.7702550 148.5813780
 136.3610090  91.8216790 147.9839670 146.9236840  90.9923630 149.7455920
 147.7446460  90.5020200 149.7881400 146.9570920  91.5821290 150.4987760
 143.7832650  99.5903060 148.3723520 143.1649920 100.0552510 147.8086240
 144.2955900 100.2830540 148.7893030 147.1598320  92.9324010 152.5183460
 146.4553890  93.2208900 153.0986570 147.5210480  93.7424120 152.1583020
 133.1515850 100.2759590 145.7463150 132.7743830 100.7646690 145.0148050
 133.4088920 100.9484870 146.3769680 140.7604780  88.6775980 151.2048660
 141.0679760  88.1222870 150.4884160 139.8305480  88.8120440 151.0221650
 147.6065260 101.1159490 148.5846290 147.4961590 100.1733820 148.7095710
 147.6033510 101.4775130 149.4709050 143.1485540  96.7424810 147.9408780
 142.2214820  96.6762190 148.1697250 143.3010360  97.6804940 147.8264020
 143.1354620  93.0141810 144.9375940 142.1958290  93.1755770 145.0228400
 143.4537880  93.7327490 144.3911930 147.1782830  98.3045110 148.4444030
 146.5595250  97.9664660 147.7970330 147.1607280  97.6604870 149.1523220
 138.7542180  97.2689550 150.7228510 138.3499180  96.5566800 150.2274410
 138.8405300  96.9242790 151.6116550 139.2223880 100.9557110 152.8867720
 138.9252170 100.3502580 152.2075500 140.1723700 100.9934420 152.7757080
 145.3547530  97.5431920 145.4516780 145.7940810  96.7054350 145.3054600
 146.0675950  98.1761320 145.5380920 143.4642910 102.4827990 149.4198020
 143.9038820 103.2252320 149.0053410 143.4029800 102.7254560 150.3436980
 148.9364670  88.7974730 143.7657820 148.6237330  88.8901560 144.6656890
 149.6977140  89.3755760 143.7155250 135.4546810  96.1634530 148.2235160
 135.3344410  96.8896620 147.6116430 135.1447700  95.3937440 147.7463070
 134.3379810 101.0349860 150.4409980 133.9307890 101.1764450 149.5863580
 135.2292820 100.7510020 150.2381190 146.1313090 105.4697110 146.7761030
 145.9714230 105.1800050 147.6742860 145.9659800 104.6937240 146.2406260
 138.6101470 105.2495640 148.5532650 138.4343950 104.3331180 148.3400450
 137.7557210 105.6082930 148.7930450 145.8339220 102.9784670 145.3359030
 145.1404380 102.9761960 144.6761310 146.5762080 102.5543990 144.9053200
 145.3989150 104.6047380 149.4107520 145.8546100 103.8236760 149.7246140
 145.7381670 105.3154200 149.9548700 137.9210470  89.5069600 151.6058830
 137.4778620  90.2879140 151.2743350 138.4795460  89.8299490 152.3129770
 141.0369290  89.1280300 146.4864660 140.4123470  89.1240170 147.2117970
 140.9499410  88.2611260 146.0900630 137.7124690  94.6303170 149.3340080
 137.4865610  94.4140340 150.2386700 136.9317220  95.0631630 148.9886050
 144.9422450  94.6366540 147.9330730 144.3431340  95.3602340 147.7494350
 145.4902060  94.5743320 147.1507180 143.5487320  93.2730080 149.9634010
 143.9416890  93.5902280 149.1502700 143.9104170  92.3941960 150.0778530
 132.5851490  89.8630880 152.1864210 132.2964540  90.4333740 152.8989190
 133.3297250  89.3835330 152.5495440 132.7721720  93.8051000 143.3966930
 132.6896390  94.7481760 143.5381920 132.4204780  93.6625910 142.5179280
 140.5719850  92.5390030 152.4637280 140.5755910  92.0979980 151.6141820
 141.4670970  92.8607360 152.5709100 136.4222230  92.4216520 151.4231490
 136.0822280  92.8991750 152.1798540 135.6599550  91.9681640 151.0632590
 140.6340000  93.5402110 145.4544040 140.7552820  93.4988590 146.4029860
 140.2488510  94.4026260 145.2990770 139.6461500  95.8503250 144.8527340
 139.0778400  95.4021500 144.2263250 140.3550500  96.2096030 144.3192490
 133.7368310  91.3435500 150.3396160 133.4515230  90.9791170 151.1774780
 133.6747170  90.6115960 149.7259300 137.1908980  99.8461440 147.1253750
 136.4171240  99.3059060 146.9652470 137.9203610  99.3268050 146.7871510
 147.9496960  98.8426800 152.9180140 148.6696080  99.3382090 152.5276250
 147.7478780  98.1644690 152.2734010 143.4106900  90.2364760 147.0609530
 142.5971510  89.7377930 146.9854840 143.2168850  91.0763010 146.6445880
 146.1255290  94.6084410 145.3571690 147.0134910  94.9201640 145.1823030
 146.0960380  93.7356660 144.9652270 137.2346380  99.5141820 150.7632560
 137.7525050  98.7110080 150.7089450 136.7830400  99.4520960 151.6049390
 142.1215880 100.7808100 146.0359860 142.4631580 101.5250330 145.5403180
 141.2928590 101.0939220 146.3984690 148.3969560  95.9196250 144.8251550
 148.3133280  96.3510470 143.9747990 149.1163750  96.3794600 145.2578370
 149.4256810 102.7738510 147.5533680 148.7832970 102.1194130 147.8277400
 149.0387470 103.1793600 146.7774350 145.0043290 100.1023940 151.4005370
 145.3567110  99.5052070 150.7406740 144.1205620  99.7768170 151.5713620
 141.0906570 100.8621630 148.8075780 141.7777700 101.4090840 149.1883370
 140.3038990 101.4062360 148.8425390 133.2298970  96.4794450 144.2992860
 134.0993820  96.7619250 144.5828780 132.7389290  97.2930320 144.1841670
 140.3933780  97.8667660 148.4201140 140.8496560  98.6772910 148.6461330
 140.0421990  97.5490800 149.2519630 136.2945560  88.2105310 148.8923660
 136.1660190  88.2023210 149.8408580 135.4707580  88.5488400 148.5414670
 147.8154190 101.6654970 144.0910030 147.5891770 100.9485410 144.6834670
 147.4250390 101.4167410 143.2531780 133.5970220 105.6921830 144.8654490
 133.9567860 106.2911170 144.2111760 133.4562560 106.2381720 145.6389520
 147.3970440  99.5826910 145.7524190 147.1092140 100.0439600 146.5402070
 148.1922610  99.1224680 146.0208410 139.6138840 103.0753030 145.6828160
 139.6048940 103.8082720 145.0672670 138.6937200 102.8284610 145.7755120
 135.2145480  98.2967920 146.4274920 134.6073430  99.0366820 146.4370220
 135.6894830  98.3867280 145.6013120 148.1540300  91.4175680 146.9119370
 147.5253460  91.5221350 146.1977600 147.6592220  91.6372460 147.7013250
 142.5998440 103.1381270 144.3453350 142.7010420 102.9345260 143.4155330
 141.7000180 102.8839550 144.5501130 140.1224330  93.6961630 148.3277250
 139.4140480  94.1647970 148.7690860 140.4068810  93.0383640 148.9622440
 144.1539760  90.4212290 149.7673040 144.0307540  90.4398420 148.8182550
 145.1024320  90.4691230 149.8871440 141.2416550 105.6567590 149.0401020
 141.4958050 105.6188980 148.1180390 140.2929030 105.5300920 149.0329270
 138.3259350  92.0046710 145.7027960 139.1749880  92.4416860 145.6368150
 137.9590620  92.3166970 146.5300020 147.2469130  96.5759470 150.6159530
 146.3059270  96.5909700 150.7907220 147.5613200  95.7895430 151.0619830
 137.2250770  98.2579070 144.1763490 137.9914040  98.1460430 144.7388920
 137.3025460  97.5617040 143.5240260 135.9197530  95.6904140 144.8596380
 136.0001120  94.7431650 144.9713780 136.8117280  96.0211020 144.9657040
 149.2494710 103.7468320 152.2913790 149.3742130 104.5699490 152.7637600
 150.1160270 103.5359050 151.9437940 136.7212240 105.8399530 151.9630920
 137.4574720 105.2914990 152.2339490 137.1053160 106.7055540 151.8236910
 133.6057720 101.9073100 147.8372430 132.6797500 102.1494240 147.8277840
 134.0714150 102.7347360 147.7157180 139.8314550 105.0129840 143.7856490
 140.6243160 105.3018670 143.3338280 139.3118900 104.5822010 143.1068970
 148.8844720 104.2399970 145.2093230 148.5986230 103.8265110 144.3947410
 148.6864270 105.1687680 145.0893750 140.3491950 100.2333250 143.6498840
 140.2442590  99.6185600 144.3760220 140.1816170  99.7099140 142.8661850
 143.5894680  99.2953280 144.2540830 143.0404780  99.7422580 144.8983570
 144.2113940  98.7902530 144.7778500 139.2569800  98.2544200 146.1506130
 139.6786220  98.0884070 146.9937520 139.3820640  97.4444430 145.6561270
 141.7697440  97.2781810 143.3983230 142.2903100  96.5630830 143.0324380
 142.4165840  97.9167680 143.6983740 138.1528700  94.3277430 143.0964290
 137.9517760  93.4644790 143.4577630 137.9820750  94.2410790 142.1585890
 145.6317010  89.1385660 145.6251170 145.9119300  88.2953560 145.9810590
 144.8582740  89.3708770 146.1389920 136.9511500  91.4278050 143.0842170
 137.2537400  91.4345480 142.1761320 137.6906090  91.0775910 143.5809830
 140.1696430  90.3712670 144.0698370 139.8218430  89.6936660 143.4900820
 140.3709200  89.9102180 144.8841760 142.3345470 105.3593420 145.6884970
 143.2296260 105.6978390 145.7103730 142.3663100 104.6372830 145.0609250
 135.9741630 100.7320470 143.9171970 136.4116500 101.2750140 144.5729550
 136.4589360  99.9067420 143.9268310 133.1887430 103.5209500 151.3692230
 133.5190440 102.6530560 151.1370870 133.6178430 103.7268020 152.1997190
 137.7849350 101.8518510 149.0294200 137.4844890 101.7283480 149.9298110
 137.6786840 100.9927100 148.6209930 133.5102070  96.9000320 150.4662740
 132.8550910  96.6311960 149.8222440 134.3480020  96.7904800 150.0164720
 150.0616900  98.6696760 143.3927600 150.3365740  99.5775640 143.2646820
 149.8727640  98.6059290 144.3289590 146.4592510  91.6941610 144.6881230
 146.8777390  91.5072590 143.8477890 146.1528570  90.8420660 144.9984160
 149.9582240  96.6065750 148.3857030 149.5825840  95.8393680 147.9538320
 149.2285360  96.9888450 148.8731960 132.7240150  94.1099250 146.4088070
 131.8204230  94.3729450 146.2339730 133.2080770  94.3810420 145.6288030
 149.2333200  94.8323240 151.6864270 149.7570680  94.3385890 151.0554440
 149.8192620  94.9673600 152.4311840 135.2667360  93.1664790 144.3182450
 135.9759060  92.7448010 143.8329730 134.5507300  93.2340020 143.6865800
 134.9141520  89.2204120 143.3585100 135.6369650  89.7613060 143.6766320
 135.1866040  88.9467540 142.4826640 148.7233170  94.0896590 147.6256680
 149.2192290  93.8567460 148.4105560 148.5249240  93.2508430 147.2094320
 148.0567510 105.3667670 150.0195600 148.6526580 105.0452240 149.3430020
 148.3145660 104.8939490 150.8108870 147.5469020  89.6573000 152.4756040
 147.9877110  89.6018100 151.6277640 147.2776610  90.5731010 152.5466220
 149.4107590  89.2888240 150.4864860 149.3495990  88.3449460 150.3395880
 150.1899620  89.3968330 151.0318320 133.7160340 105.4280600 149.4488810
 133.5482380 104.7951280 150.1470700 132.8494850 105.6340000 149.0983000
 134.3388360  89.2597380 146.9520670 135.0967720  89.3726260 146.3784700
 133.8765530  90.0966580 146.9064100 140.8802170  91.3736650 149.9422980
 140.0676680  90.9993540 149.6018860 141.3843810  90.6181730 150.2444170
 145.3827150  88.0379100 151.1806050 145.9856520  88.6099310 151.6554570
 144.6420140  88.6018540 150.9579950 148.5261750  88.4400660 146.4546330
 148.7212380  89.3384110 146.7213760 147.7391620  88.2087740 146.9479280
 135.3223040 104.1213830 146.8938950 134.7970660 104.5021860 146.1900910
 135.2467620 104.7464600 147.6148660 136.7113510  89.7861430 145.4922640
 137.2406270  88.9991230 145.3630590 137.3441830  90.4652620 145.7258170
 138.9051350  89.5236570 148.5468030 138.2754090  88.8223880 148.7138160
 138.3656490  90.2840700 148.3301190 150.0788360 105.6801370 148.2152890
 150.2540550 104.9939110 147.5713810 149.3809930 106.2048420 147.8229560
 137.9216010 106.0696210 145.7688200 138.6534830 105.7855490 145.2212090
 138.1809680 105.8309490 146.6587580 137.0830800 102.1860940 145.7734530
 136.4539680 102.6546040 146.3220360 137.1978630 101.3410160 146.2080720
 144.5380520  96.2366600 131.9235730 144.4574570  95.3221210 131.6527440
 144.1244940  96.7333670 131.2175440 142.6698560  98.0145620 133.8045000
 141.8940660  97.5346060 134.0943570 143.3211490  97.3351270 133.6301160
 136.6864390  98.3265430 134.6820760 135.8549270  98.0714140 135.0817270
 137.2945370  98.3976200 135.4178680 146.6905990 102.4205810 132.5844130
 146.2287520 101.6493050 132.9131300 147.5031540 102.4471880 133.0896580
 136.6665650 102.3605520 134.8778780 136.9693690 101.4703260 134.6989000
 137.4109240 102.9175740 134.6501030 135.0956340  93.2867320 128.4663150
 134.2073040  93.6283290 128.3643030 135.3797530  93.0867640 127.5743980
 133.0589350  95.8872970 134.3502850 133.6305460  95.1195170 134.3506490
 133.0590890  96.1861730 133.4409460 142.9169300 104.7063820 132.2048120
 142.2980740 105.1621320 131.6342560 143.7721080 104.8615280 131.8037820
 142.1107550 100.6902810 133.8115160 142.0415830  99.7492750 133.6504290
 142.8727410 100.7804220 134.3837730 134.3014220  91.2957330 136.1371780
 134.1217060  90.3983080 136.4174540 133.8994300  91.8429200 136.8118730
 143.1412720  93.4973190 134.0384090 143.5177540  92.6245070 133.9257760
 143.0432230  93.8331890 133.1474530 137.2717730  91.8698820 129.5001530
 137.3784480  92.7702550 129.8070290 136.3610090  91.8216790 129.2096180
 146.9236840  90.9923630 130.9712430 147.7446460  90.5020200 131.0137910
 146.9570920  91.5821290 131.7244270 134.9200890  93.7917830 134.7454120
 135.6011000  94.0556200 135.3641520 134.6048940  92.9518700 135.0792130
 139.1125460  94.8385190 133.8326710 139.6203680  95.3366160 134.4731730
 139.6438700  94.0620390 133.6566070 137.3961560  89.4783750 138.0990130
 137.3980000  89.9956140 137.2936030 136.5665870  89.0013930 138.0760060
 143.7832650  99.5903060 129.5980030 143.1649920 100.0552510 129.0342750
 144.2955900 100.2830540 130.0149540 138.6464410  99.1178930 136.2763630
 138.3133790  99.7447850 136.9184700 138.8231090  99.6440810 135.4965300
 147.1598320  92.9324010 133.7439970 146.4553890  93.2208900 134.3243080
 147.5210480  93.7424120 133.3839530 137.0776890  91.1893710 136.1060580
 137.4193700  92.0335760 135.8114450 136.1392700  91.3377450 136.2225920
 137.8583510 101.0859730 138.0912810 138.4757510 101.7610810 137.8097260
 136.9976630 101.4947710 138.0000310 133.1515850 100.2759590 126.9719660
 132.7743830 100.7646690 126.2404560 133.4088920 100.9484870 127.6026190
 148.7761100 102.5499140 136.0067450 148.0924620 103.2198250 135.9984120
 149.3155390 102.7479790 135.2412310 140.7604780  88.6775980 132.4305170
 141.0679760  88.1222870 131.7140670 139.8305480  88.8120440 132.2478160
 146.3119840 104.3943270 134.7212630 146.3247000 103.9905560 133.8534890
 145.7595060 105.1690560 134.6174060 147.6065260 101.1159490 129.8102800
 147.4961590 100.1733820 129.9352220 147.6033510 101.4775130 130.6965560
 145.7105280  99.2973110 136.0495240 146.1274070  99.0833220 135.2148700
 146.4345100  99.5545900 136.6203860 143.1485540  96.7424810 129.1665290
 142.2214820  96.6762190 129.3953760 143.3010360  97.6804940 129.0520530
 143.1354620  93.0141810 126.1632450 142.1958290  93.1755770 126.2484910
 143.4537880  93.7327490 125.6168440 149.6567380  97.6960330 136.1411480
 148.8286010  97.7653420 135.6661610 150.2517860  98.2814640 135.6727310
 147.1782830  98.3045110 129.6700540 146.5595250  97.9664660 129.0226840
 147.1607280  97.6604870 130.3779730 146.6209390  94.4829650 137.0866350
 146.2080570  95.3083360 137.3406340 145.8885340  93.8974690 136.8942710
 138.7542180  97.2689550 131.9485020 138.3499180  96.5566800 131.4530920
 138.8405300  96.9242790 132.8373060 139.2223880 100.9557110 134.1124230
 138.9252170 100.3502580 133.4332010 140.1723700 100.9934420 134.0013590
 137.4670800  94.0432760 135.7284060 138.0185390  94.1528100 134.9537310
 137.9814310  94.4170360 136.4439290 147.3109490 104.5288980 137.7747330
 146.8340050 105.3361170 137.5819940 146.6271280 103.8767310 137.9273540
 138.3142310 100.6938800 140.7632030 137.4170840 100.9178770 141.0105430
 138.3395180 100.8173740 139.8143430 145.3547530  97.5431920 126.6773290
 145.7940810  96.7054350 126.5311110 146.0675950  98.1761320 126.7637430
 137.1413530  97.5652120 139.3389400 137.0021300  98.4374920 139.7076800
 136.2594890  97.2224930 139.1937340 143.4642910 102.4827990 130.6454530
 143.9038820 103.2252320 130.2309920 143.4029800 102.7254560 131.5693490
 138.9393880 103.5073820 141.5474550 138.9109310 103.9116770 140.6802980
 138.7758850 102.5784180 141.3846150 148.9364670  88.7974730 124.9914330
 148.6237330  88.8901560 125.8913400 149.6977140  89.3755760 124.9411760
 135.4546810  96.1634530 129.4491670 135.3344410  96.8896620 128.8372940
 135.1447700  95.3937440 128.9719580 133.0932180  99.3349670 135.2560310
 133.1712600  99.4698440 134.3116030 133.7073860  98.6265560 135.4488430
 134.3379810 101.0349860 131.6666490 133.9307890 101.1764450 130.8120090
 135.2292820 100.7510020 131.4637700 150.2941950 101.4813770 140.0038730
 150.4205010 101.2425650 139.0855910 150.3363330 100.6498310 140.4760810
 144.1558690 105.1841770 138.5733540 144.6703360 105.0949780 139.3755970
 143.3127770 105.5301470 138.8661450 146.1313090 105.4697110 128.0017540
 145.9714230 105.1800050 128.8999370 145.9659800 104.6937240 127.4662770
 138.6101470 105.2495640 129.7789160 138.4343950 104.3331180 129.5656960
 137.7557210 105.6082930 130.0186960 145.8339220 102.9784670 126.5615540
 145.1404380 102.9761960 125.9017820 146.5762080 102.5543990 126.1309710
 145.3989150 104.6047380 130.6364030 145.8546100 103.8236760 130.9502650
 145.7381670 105.3154200 131.1805210 150.1465960  93.5346230 140.9688470
 149.5310230  94.0425900 140.4403930 149.8262380  92.6344560 140.9114410
 133.1491700 100.3763840 137.7954770 133.3122740  99.9069200 136.9774140
 133.6144150  99.8687400 138.4603610 137.9210470  89.5069600 132.8315340
 137.4778620  90.2879140 132.4999860 138.4795460  89.8299490 133.5386280
 142.2080280  92.3738120 138.4350660 141.7459650  92.5821140 139.2470600
 141.8058390  91.5597470 138.1321330 147.2084790  93.5947070 139.5647320
 146.3578380  93.2952820 139.8856390 147.0486580  93.8389080 138.6531140
 144.3034500  95.0948820 141.6646110 144.6287910  94.2612570 141.3248340
 145.0914830  95.6177340 141.8124440 141.0369290  89.1280300 127.7121170
 140.4123470  89.1240170 128.4374480 140.9499410  88.2611260 127.3157140
 139.9586370  90.0516930 134.6904940 140.2558700  90.9579760 134.6096960
 140.5071930  89.5635710 134.0764510 137.7124690  94.6303170 130.5596590
 137.4865610  94.4140340 131.4643210 136.9317220  95.0631630 130.2142560
 144.9422450  94.6366540 129.1587240 144.3431340  95.3602340 128.9750860
 145.4902060  94.5743320 128.3763690 140.1523900  95.5288750 141.2256860
 140.0567500  94.5883480 141.0757260 140.9955880  95.7503820 140.8304930
 143.5487320  93.2730080 131.1890520 143.9416890  93.5902280 130.3759210
 143.9104170  92.3941960 131.3035040 135.2834440  91.9402420 139.3790640
 134.8897830  92.7877630 139.5863420 134.5952840  91.3028790 139.5699280
 141.8579490  92.0237390 142.4487380 141.1677810  91.8309590 143.0833470
 142.6011790  92.3072030 142.9811680 132.5851490  89.8630880 133.4120720
 132.2964540  90.4333740 134.1245700 133.3297250  89.3835330 133.7751950
 132.7721720  93.8051000 124.6223440 132.6896390  94.7481760 124.7638430
 132.4204780  93.6625910 123.7435790 144.1342460  95.8635830 135.2841300
 143.4023580  96.3722640 135.6331400 143.7366800  95.0465810 134.9830080
 140.5719850  92.5390030 133.6893790 140.5755910  92.0979980 132.8398330
 141.4670970  92.8607360 133.7965610 136.4222230  92.4216520 132.6488000
 136.0822280  92.8991750 133.4055050 135.6599550  91.9681640 132.2889100
 140.6340000  93.5402110 126.6800550 140.7552820  93.4988590 127.6286370
 140.2488510  94.4026260 126.5247280 144.5968370  91.3169510 134.6964240
 144.6141110  91.7678160 135.5406090 144.3483950  90.4175150 134.9097680
 139.6461500  95.8503250 126.0783850 139.0778400  95.4021500 125.4519760
 140.3550500  96.2096030 125.5449000 148.0239120  88.7301690 140.5350620
 148.3484890  87.9991350 141.0608600 148.0595630  88.4115330 139.6331610
 134.7230680  99.7515270 139.9550580 134.3385470  99.1108940 140.5533540
 135.0342870 100.4551390 140.5245310 140.8727820  96.5991810 135.4359200
 141.2397950  96.1250380 136.1820540 140.6832880  97.4733380 135.7767540
 133.7368310  91.3435500 131.5652670 133.4515230  90.9791170 132.4031290
 133.6747170  90.6115960 130.9515810 138.6627190  95.6400450 137.7543410
 138.3584260  96.5192430 137.9793770 139.6173650  95.7000240 137.7900850
 137.1908980  99.8461440 128.3510260 136.4171240  99.3059060 128.1908980
 137.9203610  99.3268050 128.0128020 147.9496960  98.8426800 134.1436650
 148.6696080  99.3382090 133.7532760 147.7478780  98.1644690 133.4990520
 143.4106900  90.2364760 128.2866040 142.5971510  89.7377930 128.2111350
 143.2168850  91.0763010 127.8702390 143.3315760  98.9135860 140.0305650
 143.2653070  97.9931530 139.7763240 142.7020900  99.0111300 140.7450290
 146.1255290  94.6084410 126.5828200 147.0134910  94.9201640 126.4079540
 146.0960380  93.7356660 126.1908780 137.2346380  99.5141820 131.9889070
 137.7525050  98.7110080 131.9345960 136.7830400  99.4520960 132.8305900
 142.1215880 100.7808100 127.2616370 142.4631580 101.5250330 126.7659690
 141.2928590 101.0939220 127.6241200 134.7190920  96.4803190 138.9014770
 134.3605860  97.1457040 139.4888110 134.4245480  95.6486740 139.2727390
 137.9204040  96.9387430 141.7854320 137.6204180  97.0844610 140.8882140
 138.6915280  96.3792720 141.6927710 143.2632490 101.7356430 139.7809450
 143.2777030 100.8037390 139.5628360 142.5557590 101.8216190 140.4199220
 148.3969560  95.9196250 126.0508060 148.3133280  96.3510470 125.2004500
 149.1163750  96.3794600 126.4834880 149.4743700  98.3763770 139.1278030
 148.7491890  98.9692550 138.9307420 150.0019160  98.3687310 138.3291400
 149.4256810 102.7738510 128.7790190 148.7832970 102.1194130 129.0533910
 149.0387470 103.1793600 128.0030860 145.0043290 100.1023940 132.6261880
 145.3567110  99.5052070 131.9663250 144.1205620  99.7768170 132.7970130
 141.0906570 100.8621630 130.0332290 141.7777700 101.4090840 130.4139880
 140.3038990 101.4062360 130.0681900 133.2298970  96.4794450 125.5249370
 134.0993820  96.7619250 125.8085290 132.7389290  97.2930320 125.4098180
 140.3933780  97.8667660 129.6457650 140.8496560  98.6772910 129.8717840
 140.0421990  97.5490800 130.4776140 142.6966390 103.3774000 136.8749950
 143.3408610 103.5833380 137.5523370 143.0595830 102.6162400 136.4220800
 136.2945560  88.2105310 130.1180170 136.1660190  88.2023210 131.0665090
 135.4707580  88.5488400 129.7671180 143.9698470 101.3806350 135.5927400
 144.6120700 100.6799510 135.7059570 144.4947820 102.1604790 135.4124290
 147.8154190 101.6654970 125.3166540 147.5891770 100.9485410 125.9091180
 147.4250390 101.4167410 124.4788290 145.7436090 102.1801250 138.7963460
 146.0792330 102.7667940 139.4741380 144.8236430 102.0493960 139.0261250
 133.5970220 105.6921830 126.0911000 133.9567860 106.2911170 125.4368270
 133.4562560 106.2381720 126.8646030 133.2939490  89.9696430 139.5786870
 132.5798010  90.1693350 140.1839480 133.7134530  89.1936000 139.9501670
 147.3970440  99.5826910 126.9780700 147.1092140 100.0439600 127.7658580
 148.1922610  99.1224680 127.2464920 133.5812080 103.9576690 140.5653400
 133.6903200 103.0171430 140.4248790 132.9292640 104.2231440 139.9167130
 141.5724670 102.2292580 141.9651520 141.2521540 101.5101820 142.5097210
 140.8983030 102.9047650 142.0387580 139.6138840 103.0753030 126.9084670
 139.6048940 103.8082720 126.2929180 138.6937200 102.8284610 127.0011630
 135.2145480  98.2967920 127.6531430 134.6073430  99.0366820 127.6626730
 135.6894830  98.3867280 126.8269630 144.7878270  92.4618740 137.3288320
 145.1559090  91.6413950 137.6567890 143.9276470  92.5220630 137.7443970
 148.1540300  91.4175680 128.1375880 147.5253460  91.5221350 127.4234110
 147.6592220  91.6372460 128.9269760 142.5998440 103.1381270 125.5709860
 142.7010420 102.9345260 124.6411840 141.7000180 102.8839550 125.7757640
 140.1224330  93.6961630 129.5533760 139.4140480  94.1647970 129.9947370
 140.4068810  93.0383640 130.1878950 141.7480260  95.1158330 137.5526290
 142.2465510  95.5904150 138.2178140 141.8903210  94.1921850 137.7596320
 144.1539760  90.4212290 130.9929550 144.0307540  90.4398420 130.0439060
 145.1024320  90.4691230 131.1127950 141.2416550 105.6567590 130.2657530
 141.4958050 105.6188980 129.3436900 140.2929030 105.5300920 130.2585780
 138.3259350  92.0046710 126.9284470 139.1749880  92.4416860 126.8624660
 137.9590620  92.3166970 127.7556530 148.9547120  91.3326290 138.3954680
 148.4520720  92.0731690 138.7348490 149.7703780  91.7210290 138.0791470
 147.2469130  96.5759470 131.8416040 146.3059270  96.5909700 132.0163730
 147.5613200  95.7895430 132.2876340 137.2250770  98.2579070 125.4020000
 137.9914040  98.1460430 125.9645430 137.3025460  97.5617040 124.7496770
 135.9197530  95.6904140 126.0852890 136.0001120  94.7431650 126.1970290
 136.8117280  96.0211020 126.1913550 149.2494710 103.7468320 133.5170300
 149.3742130 104.5699490 133.9894110 150.1160270 103.5359050 133.1694450
 136.7212240 105.8399530 133.1887430 137.4574720 105.2914990 133.4596000
 137.1053160 106.7055540 133.0493420 133.6057720 101.9073100 129.0628940
 132.6797500 102.1494240 129.0534350 134.0714150 102.7347360 128.9413690
 135.7270520 105.0245600 142.3773010 136.5283250 105.3457650 142.7908410
 135.2122340 104.6641180 143.0992920 139.8314550 105.0129840 125.0113000
 140.6243160 105.3018670 124.5594790 139.3118900 104.5822010 124.3325480
 144.5635150 101.1325470 142.3248420 143.9573310 101.1557070 141.5844170
 144.2589260 100.4008510 142.8615670 145.9935520 104.8605760 140.9357830
 146.9457270 104.7763780 140.8858070 145.8463740 105.5247470 141.6091620
 148.8844720 104.2399970 126.4349740 148.5986230 103.8265110 125.6203920
 148.6864270 105.1687680 126.3150260 133.4468330  97.5119060 141.3209060
 133.9507350  96.9326340 141.8925290 132.7075750  97.7959290 141.8585430
 140.3491950 100.2333250 124.8755350 140.2442590  99.6185600 125.6016730
 140.1816170  99.7099140 124.0918360 140.5006270  98.9190050 140.8544580
 139.7351940  99.4875050 140.7699250 140.6822230  98.6266260 139.9612810
 143.5894680  99.2953280 125.4797340 143.0404780  99.7422580 126.1240080
 144.2113940  98.7902530 126.0035010 147.6429620 100.6495380 141.4119600
 148.3839090 100.9871140 140.9087060 146.8802300 100.8187440 140.8589370
 135.4791410  95.6548650 142.2159130 135.5196750  95.3562520 143.1244360
 136.3336910  96.0556260 142.0566650 139.2569800  98.2544200 127.3762640
 139.6786220  98.0884070 128.2194030 139.3820640  97.4444430 126.8817780
 137.4197220  94.2340750 140.1833620 136.8893680  93.7431700 139.5556960
 138.0885290  94.6624950 139.6491550 141.7697440  97.2781810 124.6239740
 142.2903100  96.5630830 124.2580890 142.4165840  97.9167680 124.9240250
 146.3175280  98.7010210 139.9474810 146.7316300  98.8555290 140.7965230
 145.3826280  98.8265430 140.1100590 146.7897450  96.0406370 141.9513960
 147.3718220  95.2858690 141.8634440 146.9659220  96.5713810 141.1745440
 137.9069520  91.2003120 140.2630910 137.8126390  90.5823870 139.5381780
 137.3266910  91.9269410 140.0360820 140.6730960  89.7576360 137.2958300
 140.2248260  89.7800620 136.4503850 140.0396160  89.3595380 137.8928600
 141.0790510  98.6530690 137.9170740 141.4978620  99.4963420 137.7446980
 140.1599140  98.7902730 137.6877520 143.4154410  96.3846870 139.3008580
 143.5350620  95.7888010 140.0403420 144.2748410  96.4216560 138.8809880
 145.7542310  96.9384060 137.8771090 145.2277530  97.4626680 137.2736230
 146.0973650  97.5711450 138.5080820 138.1528700  94.3277430 124.3220800
 137.9517760  93.4644790 124.6834140 137.9820750  94.2410790 123.3842400
 138.9297930 104.9583700 139.0328470 138.3919020 105.6829760 138.7137170
 139.1831890 104.4814040 138.2425810 140.1823180  92.9268220 140.5584400
 140.7722870  92.6184070 141.2462220 139.3643420  92.4547970 140.7144300
 145.0016610  92.5434030 140.7917420 144.3132130  91.8815570 140.7267410
 145.7222630  92.0972300 141.2365880 145.6317010  89.1385660 126.8507680
 145.9119300  88.2953560 127.2067100 144.8582740  89.3708770 127.3646430
 136.9511500  91.4278050 124.3098680 137.2537400  91.4345480 123.4017830
 137.6906090  91.0775910 124.8066340 141.7860140 106.1934910 139.2915120
 141.7118840 107.0970050 139.5987490 140.8838980 105.8746810 139.2637190
 140.1696430  90.3712670 125.2954880 139.8218430  89.6936660 124.7157330
 140.3709200  89.9102180 126.1098270 142.3345470 105.3593420 126.9141480
 143.2296260 105.6978390 126.9360240 142.3663100 104.6372830 126.2865760
 135.9741630 100.7320470 125.1428480 136.4116500 101.2750140 125.7986060
 136.4589360  99.9067420 125.1524820 133.1887430 103.5209500 132.5948740
 133.5190440 102.6530560 132.3627380 133.6178430 103.7268020 133.4253700
 137.7849350 101.8518510 130.2550710 137.4844890 101.7283480 131.1554620
 137.6786840 100.9927100 129.8466440 133.6777640 104.3880090 135.3330370
 133.2408630 104.5680890 136.1654520 134.2455320 105.1454710 135.1912090
 149.3139820 103.8897090 139.6207680 148.7141810 103.9489650 138.8771600
 149.4433720 102.9502070 139.7504530 133.5102070  96.9000320 131.6919250
 132.8550910  96.6311960 131.0478950 134.3480020  96.7904800 131.2421230
 147.9991460 100.6149070 137.7183840 147.1851300 101.0446230 137.9809630
 148.4065660 101.2267480 137.1052890 150.0616900  98.6696760 124.6184110
 150.3365740  99.5775640 124.4903330 149.8727640  98.6059290 125.5546100
 146.4592510  91.6941610 125.9137740 146.8777390  91.5072590 125.0734400
 146.1528570  90.8420660 126.2240670 149.9582240  96.6065750 129.6113540
 149.5825840  95.8393680 129.1794830 149.2285360  96.9888450 130.0988470
 134.5478000  97.2852890 136.2322590 134.9151040  97.1980290 137.1118610
 133.9788820  96.5219440 136.1329450 149.3481860  95.7537270 139.2453060
 149.1167950  95.5250020 138.3451010 149.6086410  96.6736820 139.1997950
 134.0994000  94.1961980 140.1381010 133.2050050  94.1628740 140.4774720
 134.6391550  94.3948770 140.9032260 147.7869930  90.9793700 142.0232760
 148.6640110  90.9877100 142.4066760 147.7990770  90.2424540 141.4125110
 132.7240150  94.1099250 127.6344580 131.8204230  94.3729450 127.4596240
 133.2080770  94.3810420 126.8544540 149.2333200  94.8323240 132.9120780
 149.7570680  94.3385890 132.2810950 149.8192620  94.9673600 133.6568350
 149.4122920  94.9163110 136.4340330 148.4625630  94.8826650 136.5485320
 149.5935930  95.8263220 136.1990100 135.2667360  93.1664790 125.5438960
 135.9759060  92.7448010 125.0586240 134.5507300  93.2340020 124.9122310
 134.9141520  89.2204120 124.5841610 135.6369650  89.7613060 124.9022830
 135.1866040  88.9467540 123.7083150 148.7233170  94.0896590 128.8513190
 149.2192290  93.8567460 129.6362070 148.5249240  93.2508430 128.4350830
 134.6033710  88.4710310 134.4864230 135.2509900  87.9207690 134.0459390
 135.0235550  88.7253460 135.3080040 148.4986050  88.6651670 137.8433870
 149.1358270  89.2785810 138.2093060 148.6460940  88.7012330 136.8983100
 148.0567510 105.3667670 131.2452110 148.6526580 105.0452240 130.5686530
 148.3145660 104.8939490 132.0365380 134.3565710  88.6265980 137.2289550
 134.0080530  89.0829800 137.9947730 134.0253410  87.7323110 137.3111980
 135.9630080 101.7985580 141.3942740 135.9199710 101.4278490 142.2757200
 136.0941090 102.7363150 141.5344560 139.6636110 103.3545170 136.9952460
 139.4227470 103.6219730 136.1082980 140.6038750 103.5250900 137.0503320
 141.8690530  89.8177860 140.7508970 141.8079420  90.4099690 141.5004380
 142.8090910  89.7103820 140.6059230 144.5065090  89.4747920 140.3901260
 145.1205500  89.7927210 139.7282340 145.0514650  88.9896510 141.0097120
 135.0286350  88.1542180 140.5040320 135.5769340  87.9730230 139.7406430
 135.0941660  87.3636290 141.0396630 135.8018110 104.7447830 138.5140520
 135.2078430 104.6132530 139.2530560 135.7941950 103.9085970 138.0482620
 145.2473130  88.0380060 136.7170550 144.3732970  88.3715170 136.5143480
 145.1383880  87.5653240 137.5422420 146.1545110  90.2450930 138.1012270
 145.8258470  89.4302690 137.7214000 147.1027410  90.2020740 137.9777960
 148.6079720 106.0162970 135.0749840 148.1482690 106.7678780 134.7007860
 147.9792180 105.2969440 135.0164640 135.4330340 102.1106210 137.4648560
 134.7064400 101.4911500 137.3974510 135.4939490 102.5046820 136.5946640
 139.0375440 104.3251210 134.2497970 139.5540460 103.7138570 133.7246230
 139.6872820 104.8279990 134.7408980 141.7770940 105.2159700 135.0766950
 142.0648750 104.9614000 134.1999960 142.2894160 104.6637060 135.6672520
 142.9947950  88.9549900 135.6563460 142.2119740  89.4295400 135.9360220
 142.7010880  88.0504730 135.5476640 147.5469020  89.6573000 133.7012550
 147.9877110  89.6018100 132.8534150 147.2776610  90.5731010 133.7722730
 149.4107590  89.2888240 131.7121370 149.3495990  88.3449460 131.5652390
 150.1899620  89.3968330 132.2574830 133.7160340 105.4280600 130.6745320
 133.5482380 104.7951280 131.3727210 132.8494850 105.6340000 130.3239510
 134.3388360  89.2597380 128.1777180 135.0967720  89.3726260 127.6041210
 133.8765530  90.0966580 128.1320610 140.8802170  91.3736650 131.1679490
 140.0676680  90.9993540 130.8275370 141.3843810  90.6181730 131.4700680
 145.3827150  88.0379100 132.4062560 145.9856520  88.6099310 132.8811080
 144.6420140  88.6018540 132.1836460 148.5261750  88.4400660 127.6802840
 148.7212380  89.3384110 127.9470270 147.7391620  88.2087740 128.1735790
 135.3223040 104.1213830 128.1195460 134.7970660 104.5021860 127.4157420
 135.2467620 104.7464600 128.8405170 136.7113510  89.7861430 126.7179150
 137.2406270  88.9991230 126.5887100 137.3441830  90.4652620 126.9514680
 138.9051350  89.5236570 129.7724540 138.2754090  88.8223880 129.9394670
 138.3656490  90.2840700 129.5557700 141.8443300 106.1375800 142.4435150
 142.7710610 105.9020070 142.4871110 141.8293730 106.9647800 141.9621180
 150.0788360 105.6801370 129.4409400 150.2540550 104.9939110 128.7970320
 149.3809930 106.2048420 129.0486070 139.0306910  88.8020550 142.2077030
 138.7491180  89.3054150 141.4437850 139.4126610  88.0042300 141.8419160
 137.9216010 106.0696210 126.9944710 138.6534830 105.7855490 126.4468600
 138.1809680 105.8309490 127.8844090 137.0830800 102.1860940 126.9991040
 136.4539680 102.6546040 127.5476870 137.1978630 101.3410160 127.4337230
 145.6322370  88.2174130 142.7857500 145.5187820  88.5368740 143.6809020
 146.4492110  88.6186640 142.4894780 148.4120860 105.3645660 142.2676190
 149.2046180 104.8694890 142.0602150 148.7054010 106.0435800 142.8751800
 144.5380520  96.2366600 113.1492240 144.4574570  95.3221210 112.8783950
 144.1244940  96.7333670 112.4431950 142.6698560  98.0145620 115.0301510
 141.8940660  97.5346060 115.3200080 143.3211490  97.3351270 114.8557670
 136.6864390  98.3265430 115.9077270 135.8549270  98.0714140 116.3073780
 137.2945370  98.3976200 116.6435190 146.6905990 102.4205810 113.8100640
 146.2287520 101.6493050 114.1387810 147.5031540 102.4471880 114.3153090
 136.6665650 102.3605520 116.1035290 136.9693690 101.4703260 115.9245510
 137.4109240 102.9175740 115.8757540 135.0956340  93.2867320 109.6919660
 134.2073040  93.6283290 109.5899540 135.3797530  93.0867640 108.8000490
 133.0589350  95.8872970 115.5759360 133.6305460  95.1195170 115.5763000
 133.0590890  96.1861730 114.6665970 142.9169300 104.7063820 113.4304630
 142.2980740 105.1621320 112.8599070 143.7721080 104.8615280 113.0294330
 142.1107550 100.6902810 115.0371670 142.0415830  99.7492750 114.8760800
 142.8727410 100.7804220 115.6094240 134.3014220  91.2957330 117.3628290
 134.1217060  90.3983080 117.6431050 133.8994300  91.8429200 118.0375240
 143.1412720  93.4973190 115.2640600 143.5177540  92.6245070 115.1514270
 143.0432230  93.8331890 114.3731040 137.2717730  91.8698820 110.7258040
 137.3784480  92.7702550 111.0326800 136.3610090  91.8216790 110.4352690
 146.9236840  90.9923630 112.1968940 147.7446460  90.5020200 112.2394420
 146.9570920  91.5821290 112.9500780 134.9200890  93.7917830 115.9710630
 135.6011000  94.0556200 116.5898030 134.6048940  92.9518700 116.3048640
 139.1125460  94.8385190 115.0583220 139.6203680  95.3366160 115.6988240
 139.6438700  94.0620390 114.8822580 137.3961560  89.4783750 119.3246640
 137.3980000  89.9956140 118.5192540 136.5665870  89.0013930 119.3016570
 143.7832650  99.5903060 110.8236540 143.1649920 100.0552510 110.2599260
 144.2955900 100.2830540 111.2406050 138.6464410  99.1178930 117.5020140
 138.3133790  99.7447850 118.1441210 138.8231090  99.6440810 116.7221810
 147.1598320  92.9324010 114.9696480 146.4553890  93.2208900 115.5499590
 147.5210480  93.7424120 114.6096040 137.0776890  91.1893710 117.3317090
 137.4193700  92.0335760 117.0370960 136.1392700  91.3377450 117.4482430
 137.8583510 101.0859730 119.3169320 138.4757510 101.7610810 119.0353770
 136.9976630 101.4947710 119.2256820 133.1515850 100.2759590 108.1976170
 132.7743830 100.7646690 107.4661070 133.4088920 100.9484870 108.8282700
 148.7761100 102.5499140 117.2323960 148.0924620 103.2198250 117.2240630
 149.3155390 102.7479790 116.4668820 140.7604780  88.6775980 113.6561680
 141.0679760  88.1222870 112.9397180 139.8305480  88.8120440 113.4734670
 146.3119840 104.3943270 115.9469140 146.3247000 103.9905560 115.0791400
 145.7595060 105.1690560 115.8430570 147.6065260 101.1159490 111.0359310
 147.4961590 100.1733820 111.1608730 147.6033510 101.4775130 111.9222070
 145.7105280  99.2973110 117.2751750 146.1274070  99.0833220 116.4405210
 146.4345100  99.5545900 117.8460370 143.1485540  96.7424810 110.3921800
 142.2214820  96.6762190 110.6210270 143.3010360  97.6804940 110.2777040
 143.1354620  93.0141810 107.3888960 142.1958290  93.1755770 107.4741420
 143.4537880  93.7327490 106.8424950 149.6567380  97.6960330 117.3667990
 148.8286010  97.7653420 116.8918120 150.2517860  98.2814640 116.8983820
 147.1782830  98.3045110 110.8957050 146.5595250  97.9664660 110.2483350
 147.1607280  97.6604870 111.6036240 146.6209390  94.4829650 118.3122860
 146.2080570  95.3083360 118.5662850 145.8885340  93.8974690 118.1199220
 138.7542180  97.2689550 113.1741530 138.3499180  96.5566800 112.6787430
 138.8405300  96.9242790 114.0629570 139.2223880 100.9557110 115.3380740
 138.9252170 100.3502580 114.6588520 140.1723700 100.9934420 115.2270100
 137.4670800  94.0432760 116.9540570 138.0185390  94.1528100 116.1793820
 137.9814310  94.4170360 117.6695800 147.3109490 104.5288980 119.0003840
 146.8340050 105.3361170 118.8076450 146.6271280 103.8767310 119.1530050
 138.3142310 100.6938800 121.9888540 137.4170840 100.9178770 122.2361940
 138.3395180 100.8173740 121.0399940 145.3547530  97.5431920 107.9029800
 145.7940810  96.7054350 107.7567620 146.0675950  98.1761320 107.9893940
 137.1413530  97.5652120 120.5645910 137.0021300  98.4374920 120.9333310
 136.2594890  97.2224930 120.4193850 143.4642910 102.4827990 111.8711040
 143.9038820 103.2252320 111.4566430 143.4029800 102.7254560 112.7950000
 138.9393880 103.5073820 122.7731060 138.9109310 103.9116770 121.9059490
 138.7758850 102.5784180 122.6102660 148.9364670  88.7974730 106.2170840
 148.6237330  88.8901560 107.1169910 149.6977140  89.3755760 106.1668270
 135.4546810  96.1634530 110.6748180 135.3344410  96.8896620 110.0629450
 135.1447700  95.3937440 110.1976090 133.0932180  99.3349670 116.4816820
 133.1712600  99.4698440 115.5372540 133.7073860  98.6265560 116.6744940
 134.3379810 101.0349860 112.8923000 133.9307890 101.1764450 112.0376600
 135.2292820 100.7510020 112.6894210 150.2941950 101.4813770 121.2295240
 150.4205010 101.2425650 120.3112420 150.3363330 100.6498310 121.7017320
 144.1558690 105.1841770 119.7990050 144.6703360 105.0949780 120.6012480
 143.3127770 105.5301470 120.0917960 146.1313090 105.4697110 109.2274050
 145.9714230 105.1800050 110.1255880 145.9659800 104.6937240 108.6919280
 138.6101470 105.2495640 111.0045670 138.4343950 104.3331180 110.7913470
 137.7557210 105.6082930 111.2443470 145.8339220 102.9784670 107.7872050
 145.1404380 102.9761960 107.1274330 146.5762080 102.5543990 107.3566220
 145.3989150 104.6047380 111.8620540 145.8546100 103.8236760 112.1759160
 145.7381670 105.3154200 112.4061720 150.1465960  93.5346230 122.1944980
 149.5310230  94.0425900 121.6660440 149.8262380  92.6344560 122.1370920
 133.1491700 100.3763840 119.0211280 133.3122740  99.9069200 118.2030650
 133.6144150  99.8687400 119.6860120 137.9210470  89.5069600 114.0571850
 137.4778620  90.2879140 113.7256370 138.4795460  89.8299490 114.7642790
 142.2080280  92.3738120 119.6607170 141.7459650  92.5821140 120.4727110
 141.8058390  91.5597470 119.3577840 147.2084790  93.5947070 120.7903830
 146.3578380  93.2952820 121.1112900 147.0486580  93.8389080 119.8787650
 144.3034500  95.0948820 122.8902620 144.6287910  94.2612570 122.5504850
 145.0914830  95.6177340 123.0380950 141.0369290  89.1280300 108.9377680
 140.4123470  89.1240170 109.6630990 140.9499410  88.2611260 108.5413650
 139.9586370  90.0516930 115.9161450 140.2558700  90.9579760 115.8353470
 140.5071930  89.5635710 115.3021020 137.7124690  94.6303170 111.7853100
 137.4865610  94.4140340 112.6899720 136.9317220  95.0631630 111.4399070
 144.9422450  94.6366540 110.3843750 144.3431340  95.3602340 110.2007370
 145.4902060  94.5743320 109.6020200 140.1523900  95.5288750 122.4513370
 140.0567500  94.5883480 122.3013770 140.9955880  95.7503820 122.0561440
 143.5487320  93.2730080 112.4147030 143.9416890  93.5902280 111.6015720
 143.9104170  92.3941960 112.5291550 135.2834440  91.9402420 120.6047150
 134.8897830  92.7877630 120.8119930 134.5952840  91.3028790 120.7955790
 141.8579490  92.0237390 123.6743890 141.1677810  91.8309590 124.3089980
 142.6011790  92.3072030 124.2068190 132.5851490  89.8630880 114.6377230
 132.2964540  90.4333740 115.3502210 133.3297250  89.3835330 115.0008460
 132.7721720  93.8051000 105.8479950 132.6896390  94.7481760 105.9894940
 132.4204780  93.6625910 104.9692300 144.1342460  95.8635830 116.5097810
 143.4023580  96.3722640 116.8587910 143.7366800  95.0465810 116.2086590
 140.5719850  92.5390030 114.9150300 140.5755910  92.0979980 114.0654840
 141.4670970  92.8607360 115.0222120 136.4222230  92.4216520 113.8744510
 136.0822280  92.8991750 114.6311560 135.6599550  91.9681640 113.5145610
 140.6340000  93.5402110 107.9057060 140.7552820  93.4988590 108.8542880
 140.2488510  94.4026260 107.7503790 144.5968370  91.3169510 115.9220750
 144.6141110  91.7678160 116.7662600 144.3483950  90.4175150 116.1354190
 139.6461500  95.8503250 107.3040360 139.0778400  95.4021500 106.6776270
 140.3550500  96.2096030 106.7705510 148.0239120  88.7301690 121.7607130
 148.3484890  87.9991350 122.2865110 148.0595630  88.4115330 120.8588120
 134.7230680  99.7515270 121.1807090 134.3385470  99.1108940 121.7790050
 135.0342870 100.4551390 121.7501820 140.8727820  96.5991810 116.6615710
 141.2397950  96.1250380 117.4077050 140.6832880  97.4733380 117.0024050
 133.7368310  91.3435500 112.7909180 133.4515230  90.9791170 113.6287800
 133.6747170  90.6115960 112.1772320 138.6627190  95.6400450 118.9799920
 138.3584260  96.5192430 119.2050280 139.6173650  95.7000240 119.0157360
 137.1908980  99.8461440 109.5766770 136.4171240  99.3059060 109.4165490
 137.9203610  99.3268050 109.2384530 147.9496960  98.8426800 115.3693160
 148.6696080  99.3382090 114.9789270 147.7478780  98.1644690 114.7247030
 143.4106900  90.2364760 109.5122550 142.5971510  89.7377930 109.4367860
 143.2168850  91.0763010 109.0958900 143.3315760  98.9135860 121.2562160
 143.2653070  97.9931530 121.0019750 142.7020900  99.0111300 121.9706800
 146.1255290  94.6084410 107.8084710 147.0134910  94.9201640 107.6336050
 146.0960380  93.7356660 107.4165290 137.2346380  99.5141820 113.2145580
 137.7525050  98.7110080 113.1602470 136.7830400  99.4520960 114.0562410
 142.1215880 100.7808100 108.4872880 142.4631580 101.5250330 107.9916200
 141.2928590 101.0939220 108.8497710 134.7190920  96.4803190 120.1271280
 134.3605860  97.1457040 120.7144620 134.4245480  95.6486740 120.4983900
 137.9204040  96.9387430 123.0110830 137.6204180  97.0844610 122.1138650
 138.6915280  96.3792720 122.9184220 143.2632490 101.7356430 121.0065960
 143.2777030 100.8037390 120.7884870 142.5557590 101.8216190 121.6455730
 148.3969560  95.9196250 107.2764570 148.3133280  96.3510470 106.4261010
 149.1163750  96.3794600 107.7091390 149.4743700  98.3763770 120.3534540
 148.7491890  98.9692550 120.1563930 150.0019160  98.3687310 119.5547910
 149.4256810 102.7738510 110.0046700 148.7832970 102.1194130 110.2790420
 149.0387470 103.1793600 109.2287370 145.0043290 100.1023940 113.8518390
 145.3567110  99.5052070 113.1919760 144.1205620  99.7768170 114.0226640
 141.0906570 100.8621630 111.2588800 141.7777700 101.4090840 111.6396390
 140.3038990 101.4062360 111.2938410 133.2298970  96.4794450 106.7505880
 134.0993820  96.7619250 107.0341800 132.7389290  97.2930320 106.6354690
 140.3933780  97.8667660 110.8714160 140.8496560  98.6772910 111.0974350
 140.0421990  97.5490800 111.7032650 142.6966390 103.3774000 118.1006460
 143.3408610 103.5833380 118.7779880 143.0595830 102.6162400 117.6477310
 136.2945560  88.2105310 111.3436680 136.1660190  88.2023210 112.2921600
 135.4707580  88.5488400 110.9927690 143.9698470 101.3806350 116.8183910
 144.6120700 100.6799510 116.9316080 144.4947820 102.1604790 116.6380800
 147.8154190 101.6654970 106.5423050 147.5891770 100.9485410 107.1347690
 147.4250390 101.4167410 105.7044800 145.7436090 102.1801250 120.0219970
 146.0792330 102.7667940 120.6997890 144.8236430 102.0493960 120.2517760
 133.5970220 105.6921830 107.3167510 133.9567860 106.2911170 106.6624780
 133.4562560 106.2381720 108.0902540 133.2939490  89.9696430 120.8043380
 132.5798010  90.1693350 121.4095990 133.7134530  89.1936000 121.1758180
 147.3970440  99.5826910 108.2037210 147.1092140 100.0439600 108.9915090
 148.1922610  99.1224680 108.4721430 133.5812080 103.9576690 121.7909910
 133.6903200 103.0171430 121.6505300 132.9292640 104.2231440 121.1423640
 141.5724670 102.2292580 123.1908030 141.2521540 101.5101820 123.7353720
 140.8983030 102.9047650 123.2644090 139.6138840 103.0753030 108.1341180
 139.6048940 103.8082720 107.5185690 138.6937200 102.8284610 108.2268140
 135.2145480  98.2967920 108.8787940 134.6073430  99.0366820 108.8883240
 135.6894830  98.3867280 108.0526140 144.7878270  92.4618740 118.5544830
 145.1559090  91.6413950 118.8824400 143.9276470  92.5220630 118.9700480
 148.1540300  91.4175680 109.3632390 147.5253460  91.5221350 108.6490620
 147.6592220  91.6372460 110.1526270 142.5998440 103.1381270 106.7966370
 142.7010420 102.9345260 105.8668350 141.7000180 102.8839550 107.0014150
 140.1224330  93.6961630 110.7790270 139.4140480  94.1647970 111.2203880
 140.4068810  93.0383640 111.4135460 141.7480260  95.1158330 118.7782800
 142.2465510  95.5904150 119.4434650 141.8903210  94.1921850 118.9852830
 144.1539760  90.4212290 112.2186060 144.0307540  90.4398420 111.2695570
 145.1024320  90.4691230 112.3384460 141.2416550 105.6567590 111.4914040
 141.4958050 105.6188980 110.5693410 140.2929030 105.5300920 111.4842290
 138.3259350  92.0046710 108.1540980 139.1749880  92.4416860 108.0881170
 137.9590620  92.3166970 108.9813040 148.9547120  91.3326290 119.6211190
 148.4520720  92.0731690 119.9605000 149.7703780  91.7210290 119.3047980
 147.2469130  96.5759470 113.0672550 146.3059270  96.5909700 113.2420240
 147.5613200  95.7895430 113.5132850 137.2250770  98.2579070 106.6276510
 137.9914040  98.1460430 107.1901940 137.3025460  97.5617040 105.9753280
 135.9197530  95.6904140 107.3109400 136.0001120  94.7431650 107.4226800
 136.8117280  96.0211020 107.4170060 149.2494710 103.7468320 114.7426810
 149.3742130 104.5699490 115.2150620 150.1160270 103.5359050 114.3950960
 136.7212240 105.8399530 114.4143940 137.4574720 105.2914990 114.6852510
 137.1053160 106.7055540 114.2749930 133.6057720 101.9073100 110.2885450
 132.6797500 102.1494240 110.2790860 134.0714150 102.7347360 110.1670200
 135.7270520 105.0245600 123.6029520 136.5283250 105.3457650 124.0164920
 135.2122340 104.6641180 124.3249430 139.8314550 105.0129840 106.2369510
 140.6243160 105.3018670 105.7851300 139.3118900 104.5822010 105.5581990
 144.5635150 101.1325470 123.5504930 143.9573310 101.1557070 122.8100680
 144.2589260 100.4008510 124.0872180 145.9935520 104.8605760 122.1614340
 146.9457270 104.7763780 122.1114580 145.8463740 105.5247470 122.8348130
 148.8844720 104.2399970 107.6606250 148.5986230 103.8265110 106.8460430
 148.6864270 105.1687680 107.5406770 133.4468330  97.5119060 122.5465570
 133.9507350  96.9326340 123.1181800 132.7075750  97.7959290 123.0841940
 140.3491950 100.2333250 106.1011860 140.2442590  99.6185600 106.8273240
 140.1816170  99.7099140 105.3174870 140.5006270  98.9190050 122.0801090
 139.7351940  99.4875050 121.9955760 140.6822230  98.6266260 121.1869320
 143.5894680  99.2953280 106.7053850 143.0404780  99.7422580 107.3496590
 144.2113940  98.7902530 107.2291520 147.6429620 100.6495380 122.6376110
 148.3839090 100.9871140 122.1343570 146.8802300 100.8187440 122.0845880
 135.4791410  95.6548650 123.4415640 135.5196750  95.3562520 124.3500870
 136.3336910  96.0556260 123.2823160 139.2569800  98.2544200 108.6019150
 139.6786220  98.0884070 109.4450540 139.3820640  97.4444430 108.1074290
 137.4197220  94.2340750 121.4090130 136.8893680  93.7431700 120.7813470
 138.0885290  94.6624950 120.8748060 141.7697440  97.2781810 105.8496250
 142.2903100  96.5630830 105.4837400 142.4165840  97.9167680 106.1496760
 146.3175280  98.7010210 121.1731320 146.7316300  98.8555290 122.0221740
 145.3826280  98.8265430 121.3357100 146.7897450  96.0406370 123.1770470
 147.3718220  95.2858690 123.0890950 146.9659220  96.5713810 122.4001950
 137.9069520  91.2003120 121.4887420 137.8126390  90.5823870 120.7638290
 137.3266910  91.9269410 121.2617330 140.6730960  89.7576360 118.5214810
 140.2248260  89.7800620 117.6760360 140.0396160  89.3595380 119.1185110
 141.0790510  98.6530690 119.1427250 141.4978620  99.4963420 118.9703490
 140.1599140  98.7902730 118.9134030 143.4154410  96.3846870 120.5265090
 143.5350620  95.7888010 121.2659930 144.2748410  96.4216560 120.1066390
 145.7542310  96.9384060 119.1027600 145.2277530  97.4626680 118.4992740
 146.0973650  97.5711450 119.7337330 138.1528700  94.3277430 105.5477310
 137.9517760  93.4644790 105.9090650 137.9820750  94.2410790 104.6098910
 138.9297930 104.9583700 120.2584980 138.3919020 105.6829760 119.9393680
 139.1831890 104.4814040 119.4682320 140.1823180  92.9268220 121.7840910
 140.7722870  92.6184070 122.4718730 139.3643420  92.4547970 121.9400810
 145.0016610  92.5434030 122.0173930 144.3132130  91.8815570 121.9523920
 145.7222630  92.0972300 122.4622390 145.6317010  89.1385660 108.0764190
 145.9119300  88.2953560 108.4323610 144.8582740  89.3708770 108.5902940
 136.9511500  91.4278050 105.5355190 137.2537400  91.4345480 104.6274340
 137.6906090  91.0775910 106.0322850 141.7860140 106.1934910 120.5171630
 141.7118840 107.0970050 120.8244000 140.8838980 105.8746810 120.4893700
 140.1696430  90.3712670 106.5211390 139.8218430  89.6936660 105.9413840
 140.3709200  89.9102180 107.3354780 142.3345470 105.3593420 108.1397990
 143.2296260 105.6978390 108.1616750 142.3663100 104.6372830 107.5122270
 135.9741630 100.7320470 106.3684990 136.4116500 101.2750140 107.0242570
 136.4589360  99.9067420 106.3781330 133.1887430 103.5209500 113.8205250
 133.5190440 102.6530560 113.5883890 133.6178430 103.7268020 114.6510210
 137.7849350 101.8518510 111.4807220 137.4844890 101.7283480 112.3811130
 137.6786840 100.9927100 111.0722950 133.6777640 104.3880090 116.5586880
 133.2408630 104.5680890 117.3911030 134.2455320 105.1454710 116.4168600
 149.3139820 103.8897090 120.8464190 148.7141810 103.9489650 120.1028110
 149.4433720 102.9502070 120.9761040 133.5102070  96.9000320 112.9175760
 132.8550910  96.6311960 112.2735460 134.3480020  96.7904800 112.4677740
 147.9991460 100.6149070 118.9440350 147.1851300 101.0446230 119.2066140
 148.4065660 101.2267480 118.3309400 150.0616900  98.6696760 105.8440620
 150.3365740  99.5775640 105.7159840 149.8727640  98.6059290 106.7802610
 146.4592510  91.6941610 107.1394250 146.8777390  91.5072590 106.2990910
 146.1528570  90.8420660 107.4497180 149.9582240  96.6065750 110.8370050
 149.5825840  95.8393680 110.4051340 149.2285360  96.9888450 111.3244980
 134.5478000  97.2852890 117.4579100 134.9151040  97.1980290 118.3375120
 133.9788820  96.5219440 117.3585960 149.3481860  95.7537270 120.4709570
 149.1167950  95.5250020 119.5707520 149.6086410  96.6736820 120.4254460
 134.0994000  94.1961980 121.3637520 133.2050050  94.1628740 121.7031230
 134.6391550  94.3948770 122.1288770 147.7869930  90.9793700 123.2489270
 148.6640110  90.9877100 123.6323270 147.7990770  90.2424540 122.6381620
 132.7240150  94.1099250 108.8601090 131.8204230  94.3729450 108.6852750
 133.2080770  94.3810420 108.0801050 149.2333200  94.8323240 114.1377290
 149.7570680  94.3385890 113.5067460 149.8192620  94.9673600 114.8824860
 149.4122920  94.9163110 117.6596840 148.4625630  94.8826650 117.7741830
 149.5935930  95.8263220 117.4246610 135.2667360  93.1664790 106.7695470
 135.9759060  92.7448010 106.2842750 134.5507300  93.2340020 106.1378820
 134.9141520  89.2204120 105.8098120 135.6369650  89.7613060 106.1279340
 135.1866040  88.9467540 104.9339660 148.7233170  94.0896590 110.0769700
 149.2192290  93.8567460 110.8618580 148.5249240  93.2508430 109.6607340
 134.6033710  88.4710310 115.7120740 135.2509900  87.9207690 115.2715900
 135.0235550  88.7253460 116.5336550 148.4986050  88.6651670 119.0690380
 149.1358270  89.2785810 119.4349570 148.6460940  88.7012330 118.1239610
 148.0567510 105.3667670 112.4708620 148.6526580 105.0452240 111.7943040
 148.3145660 104.8939490 113.2621890 134.3565710  88.6265980 118.4546060
 134.0080530  89.0829800 119.2204240 134.0253410  87.7323110 118.5368490
 135.9630080 101.7985580 122.6199250 135.9199710 101.4278490 123.5013710
 136.0941090 102.7363150 122.7601070 139.6636110 103.3545170 118.2208970
 139.4227470 103.6219730 117.3339490 140.6038750 103.5250900 118.2759830
 141.8690530  89.8177860 121.9765480 141.8079420  90.4099690 122.7260890
 142.8090910  89.7103820 121.8315740 144.5065090  89.4747920 121.6157770
 145.1205500  89.7927210 120.9538850 145.0514650  88.9896510 122.2353630
 135.0286350  88.1542180 121.7296830 135.5769340  87.9730230 120.9662940
 135.0941660  87.3636290 122.2653140 135.8018110 104.7447830 119.7397030
 135.2078430 104.6132530 120.4787070 135.7941950 103.9085970 119.2739130
 145.2473130  88.0380060 117.9427060 144.3732970  88.3715170 117.7399990
 145.1383880  87.5653240 118.7678930 146.1545110  90.2450930 119.3268780
 145.8258470  89.4302690 118.9470510 147.1027410  90.2020740 119.2034470
 148.6079720 106.0162970 116.3006350 148.1482690 106.7678780 115.9264370
 147.9792180 105.2969440 116.2421150 135.4330340 102.1106210 118.6905070
 134.7064400 101.4911500 118.6231020 135.4939490 102.5046820 117.8203150
 139.0375440 104.3251210 115.4754480 139.5540460 103.7138570 114.9502740
 139.6872820 104.8279990 115.9665490 141.7770940 105.2159700 116.3023460
 142.0648750 104.9614000 115.4256470 142.2894160 104.6637060 116.8929030
 142.9947950  88.9549900 116.8819970 142.2119740  89.4295400 117.1616730
 142.7010880  88.0504730 116.7733150 147.5469020  89.6573000 114.9269060
 147.9877110  89.6018100 114.0790660 147.2776610  90.5731010 114.9979240
 149.4107590  89.2888240 112.9377880 149.3495990  88.3449460 112.7908900
 150.1899620  89.3968330 113.4831340 133.7160340 105.4280600 111.9001830
 133.5482380 104.7951280 112.5983720 132.8494850 105.6340000 111.5496020
 134.3388360  89.2597380 109.4033690 135.0967720  89.3726260 108.8297720
 133.8765530  90.0966580 109.3577120 140.8802170  91.3736650 112.3936000
 140.0676680  90.9993540 112.0531880 141.3843810  90.6181730 112.6957190
 145.3827150  88.0379100 113.6319070 145.9856520  88.6099310 114.1067590
 144.6420140  88.6018540 113.4092970 148.5261750  88.4400660 108.9059350
 148.7212380  89.3384110 109.1726780 147.7391620  88.2087740 109.3992300
 135.3223040 104.1213830 109.3451970 134.7970660 104.5021860 108.6413930
 135.2467620 104.7464600 110.0661680 136.7113510  89.7861430 107.9435660
 137.2406270  88.9991230 107.8143610 137.3441830  90.4652620 108.1771190
 138.9051350  89.5236570 110.9981050 138.2754090  88.8223880 111.1651180
 138.3656490  90.2840700 110.7814210 141.8443300 106.1375800 123.6691660
 142.7710610 105.9020070 123.7127620 141.8293730 106.9647800 123.1877690
 150.0788360 105.6801370 110.6665910 150.2540550 104.9939110 110.0226830
 149.3809930 106.2048420 110.2742580 139.0306910  88.8020550 123.4333540
 138.7491180  89.3054150 122.6694360 139.4126610  88.0042300 123.0675670
 137.9216010 106.0696210 108.2201220 138.6534830 105.7855490 107.6725110
 138.1809680 105.8309490 109.1100600 137.0830800 102.1860940 108.2247550
 136.4539680 102.6546040 108.7733380 137.1978630 101.3410160 108.6593740
 145.6322370  88.2174130 124.0114010 145.5187820  88.5368740 124.9065530
 146.4492110  88.6186640 123.7151290 148.4120860 105.3645660 123.4932700
 149.2046180 104.8694890 123.2858660 148.7054010 106.0435800 124.1008310
 144.5380520  96.2366600  94.3748750 144.4574570  95.3221210  94.1040460
 144.1244940  96.7333670  93.6688460 142.6698560  98.0145620  96.2558020
 141.8940660  97.5346060  96.5456590 143.3211490  97.3351270  96.0814180
 136.6864390  98.3265430  97.1333780 135.8549270  98.0714140  97.5330290
 137.2945370  98.3976200  97.8691700 146.6905990 102.4205810  95.0357150
 146.2287520 101.6493050  95.3644320 147.5031540 102.4471880  95.5409600
 136.6665650 102.3605520  97.3291800 136.9693690 101.4703260  97.1502020
 137.4109240 102.9175740  97.1014050 133.0589350  95.8872970  96.8015870
 133.6305460  95.1195170  96.8019510 133.0590890  96.1861730  95.8922480
 142.9169300 104.7063820  94.6561140 142.2980740 105.1621320  94.0855580
 143.7721080 104.8615280  94.2550840 142.1107550 100.6902810  96.2628180
 142.0415830  99.7492750  96.1017310 142.8727410 100.7804220  96.8350750
 134.3014220  91.2957330  98.5884800 134.1217060  90.3983080  98.8687560
 133.8994300  91.8429200  99.2631750 143.1412720  93.4973190  96.4897110
 143.5177540  92.6245070  96.3770780 143.0432230  93.8331890  95.5987550
 137.2717730  91.8698820  91.9514550 137.3784480  92.7702550  92.2583310
 136.3610090  91.8216790  91.6609200 146.9236840  90.9923630  93.4225450
 147.7446460  90.5020200  93.4650930 146.9570920  91.5821290  94.1757290
 134.9200890  93.7917830  97.1967140 135.6011000  94.0556200  97.8154540
 134.6048940  92.9518700  97.5305150 139.1125460  94.8385190  96.2839730
 139.6203680  95.3366160  96.9244750 139.6438700  94.0620390  96.1079090
 137.3961560  89.4783750 100.5503150 137.3980000  89.9956140  99.7449050
 136.5665870  89.0013930 100.5273080 143.7832650  99.5903060  92.0493050
 143.1649920 100.0552510  91.4855770 144.2955900 100.2830540  92.4662560
 138.6464410  99.1178930  98.7276650 138.3133790  99.7447850  99.3697720
 138.8231090  99.6440810  97.9478320 147.1598320  92.9324010  96.1952990
 146.4553890  93.2208900  96.7756100 147.5210480  93.7424120  95.8352550
 137.0776890  91.1893710  98.5573600 137.4193700  92.0335760  98.2627470
 136.1392700  91.3377450  98.6738940 137.8583510 101.0859730 100.5425830
 138.4757510 101.7610810 100.2610280 136.9976630 101.4947710 100.4513330
 133.1515850 100.2759590  89.4232680 132.7743830 100.7646690  88.6917580
 133.4088920 100.9484870  90.0539210 148.7761100 102.5499140  98.4580470
 148.0924620 103.2198250  98.4497140 149.3155390 102.7479790  97.6925330
 140.7604780  88.6775980  94.8818190 141.0679760  88.1222870  94.1653690
 139.8305480  88.8120440  94.6991180 146.3119840 104.3943270  97.1725650
 146.3247000 103.9905560  96.3047910 145.7595060 105.1690560  97.0687080
 147.6065260 101.1159490  92.2615820 147.4961590 100.1733820  92.3865240
 147.6033510 101.4775130  93.1478580 145.7105280  99.2973110  98.5008260
 146.1274070  99.0833220  97.6661720 146.4345100  99.5545900  99.0716880
 143.1485540  96.7424810  91.6178310 142.2214820  96.6762190  91.8466780
 143.3010360  97.6804940  91.5033550 143.1354620  93.0141810  88.6145470
 142.1958290  93.1755770  88.6997930 143.4537880  93.7327490  88.0681460
 149.6567380  97.6960330  98.5924500 148.8286010  97.7653420  98.1174630
 150.2517860  98.2814640  98.1240330 147.1782830  98.3045110  92.1213560
 146.5595250  97.9664660  91.4739860 147.1607280  97.6604870  92.8292750
 146.6209390  94.4829650  99.5379370 146.2080570  95.3083360  99.7919360
 145.8885340  93.8974690  99.3455730 138.7542180  97.2689550  94.3998040
 138.3499180  96.5566800  93.9043940 138.8405300  96.9242790  95.2886080
 139.2223880 100.9557110  96.5637250 138.9252170 100.3502580  95.8845030
 140.1723700 100.9934420  96.4526610 137.4670800  94.0432760  98.1797080
 138.0185390  94.1528100  97.4050330 137.9814310  94.4170360  98.8952310
 147.3109490 104.5288980 100.2260350 146.8340050 105.3361170 100.0332960
 146.6271280 103.8767310 100.3786560 138.3142310 100.6938800 103.2145050
 137.4170840 100.9178770 103.4618450 138.3395180 100.8173740 102.2656450
 145.3547530  97.5431920  89.1286310 145.7940810  96.7054350  88.9824130
 146.0675950  98.1761320  89.2150450 137.1413530  97.5652120 101.7902420
 137.0021300  98.4374920 102.1589820 136.2594890  97.2224930 101.6450360
 143.4642910 102.4827990  93.0967550 143.9038820 103.2252320  92.6822940
 143.4029800 102.7254560  94.0206510 138.9393880 103.5073820 103.9987570
 138.9109310 103.9116770 103.1316000 138.7758850 102.5784180 103.8359170
 148.9364670  88.7974730  87.4427350 148.6237330  88.8901560  88.3426420
 149.6977140  89.3755760  87.3924780 135.4546810  96.1634530  91.9004690
 135.3344410  96.8896620  91.2885960 135.1447700  95.3937440  91.4232600
 133.0932180  99.3349670  97.7073330 133.1712600  99.4698440  96.7629050
 133.7073860  98.6265560  97.9001450 134.3379810 101.0349860  94.1179510
 133.9307890 101.1764450  93.2633110 135.2292820 100.7510020  93.9150720
 150.2941950 101.4813770 102.4551750 150.4205010 101.2425650 101.5368930
 150.3363330 100.6498310 102.9273830 144.1558690 105.1841770 101.0246560
 144.6703360 105.0949780 101.8268990 143.3127770 105.5301470 101.3174470
 146.1313090 105.4697110  90.4530560 145.9714230 105.1800050  91.3512390
 145.9659800 104.6937240  89.9175790 138.6101470 105.2495640  92.2302180
 138.4343950 104.3331180  92.0169980 137.7557210 105.6082930  92.4699980
 145.8339220 102.9784670  89.0128560 145.1404380 102.9761960  88.3530840
 146.5762080 102.5543990  88.5822730 145.3989150 104.6047380  93.0877050
 145.8546100 103.8236760  93.4015670 145.7381670 105.3154200  93.6318230
 150.1465960  93.5346230 103.4201490 149.5310230  94.0425900 102.8916950
 149.8262380  92.6344560 103.3627430 133.1491700 100.3763840 100.2467790
 133.3122740  99.9069200  99.4287160 133.6144150  99.8687400 100.9116630
 137.9210470  89.5069600  95.2828360 137.4778620  90.2879140  94.9512880
 138.4795460  89.8299490  95.9899300 142.2080280  92.3738120 100.8863680
 141.7459650  92.5821140 101.6983620 141.8058390  91.5597470 100.5834350
 147.2084790  93.5947070 102.0160340 146.3578380  93.2952820 102.3369410
 147.0486580  93.8389080 101.1044160 144.3034500  95.0948820 104.1159130
 144.6287910  94.2612570 103.7761360 145.0914830  95.6177340 104.2637460
 141.0369290  89.1280300  90.1634190 140.4123470  89.1240170  90.8887500
 140.9499410  88.2611260  89.7670160 139.9586370  90.0516930  97.1417960
 140.2558700  90.9579760  97.0609980 140.5071930  89.5635710  96.5277530
 137.7124690  94.6303170  93.0109610 137.4865610  94.4140340  93.9156230
 136.9317220  95.0631630  92.6655580 144.9422450  94.6366540  91.6100260
 144.3431340  95.3602340  91.4263880 145.4902060  94.5743320  90.8276710
 140.1523900  95.5288750 103.6769880 140.0567500  94.5883480 103.5270280
 140.9955880  95.7503820 103.2817950 143.5487320  93.2730080  93.6403540
 143.9416890  93.5902280  92.8272230 143.9104170  92.3941960  93.7548060
 135.2834440  91.9402420 101.8303660 134.8897830  92.7877630 102.0376440
 134.5952840  91.3028790 102.0212300 141.8579490  92.0237390 104.9000400
 141.1677810  91.8309590 105.5346490 142.6011790  92.3072030 105.4324700
 132.5851490  89.8630880  95.8633740 132.2964540  90.4333740  96.5758720
 133.3297250  89.3835330  96.2264970 144.1342460  95.8635830  97.7354320
 143.4023580  96.3722640  98.0844420 143.7366800  95.0465810  97.4343100
 140.5719850  92.5390030  96.1406810 140.5755910  92.0979980  95.2911350
 141.4670970  92.8607360  96.2478630 140.6340000  93.5402110  89.1313570
 140.7552820  93.4988590  90.0799390 140.2488510  94.4026260  88.9760300
 144.5968370  91.3169510  97.1477260 144.6141110  91.7678160  97.9919110
 144.3483950  90.4175150  97.3610700 139.6461500  95.8503250  88.5296870
 139.0778400  95.4021500  87.9032780 140.3550500  96.2096030  87.9962020
 148.0239120  88.7301690 102.9863640 148.3484890  87.9991350 103.5121620
 148.0595630  88.4115330 102.0844630 134.7230680  99.7515270 102.4063600
 134.3385470  99.1108940 103.0046560 135.0342870 100.4551390 102.9758330
 140.8727820  96.5991810  97.8872220 141.2397950  96.1250380  98.6333560
 140.6832880  97.4733380  98.2280560 138.6627190  95.6400450 100.2056430
 138.3584260  96.5192430 100.4306790 139.6173650  95.7000240 100.2413870
 137.1908980  99.8461440  90.8023280 136.4171240  99.3059060  90.6422000
 137.9203610  99.3268050  90.4641040 147.9496960  98.8426800  96.5949670
 148.6696080  99.3382090  96.2045780 147.7478780  98.1644690  95.9503540
 143.4106900  90.2364760  90.7379060 142.5971510  89.7377930  90.6624370
 143.2168850  91.0763010  90.3215410 143.3315760  98.9135860 102.4818670
 143.2653070  97.9931530 102.2276260 142.7020900  99.0111300 103.1963310
 146.1255290  94.6084410  89.0341220 147.0134910  94.9201640  88.8592560
 146.0960380  93.7356660  88.6421800 137.2346380  99.5141820  94.4402090
 137.7525050  98.7110080  94.3858980 136.7830400  99.4520960  95.2818920
 142.1215880 100.7808100  89.7129390 142.4631580 101.5250330  89.2172710
 141.2928590 101.0939220  90.0754220 134.7190920  96.4803190 101.3527790
 134.3605860  97.1457040 101.9401130 134.4245480  95.6486740 101.7240410
 137.9204040  96.9387430 104.2367340 137.6204180  97.0844610 103.3395160
 138.6915280  96.3792720 104.1440730 143.2632490 101.7356430 102.2322470
 143.2777030 100.8037390 102.0141380 142.5557590 101.8216190 102.8712240
 148.3969560  95.9196250  88.5021080 148.3133280  96.3510470  87.6517520
 149.1163750  96.3794600  88.9347900 149.4743700  98.3763770 101.5791050
 148.7491890  98.9692550 101.3820440 150.0019160  98.3687310 100.7804420
 149.4256810 102.7738510  91.2303210 148.7832970 102.1194130  91.5046930
 149.0387470 103.1793600  90.4543880 145.0043290 100.1023940  95.0774900
 145.3567110  99.5052070  94.4176270 144.1205620  99.7768170  95.2483150
 141.0906570 100.8621630  92.4845310 141.7777700 101.4090840  92.8652900
 140.3038990 101.4062360  92.5194920 140.3933780  97.8667660  92.0970670
 140.8496560  98.6772910  92.3230860 140.0421990  97.5490800  92.9289160
 142.6966390 103.3774000  99.3262970 143.3408610 103.5833380 100.0036390
 143.0595830 102.6162400  98.8733820 136.2945560  88.2105310  92.5693190
 136.1660190  88.2023210  93.5178110 135.4707580  88.5488400  92.2184200
 143.9698470 101.3806350  98.0440420 144.6120700 100.6799510  98.1572590
 144.4947820 102.1604790  97.8637310 147.8154190 101.6654970  87.7679560
 147.5891770 100.9485410  88.3604200 147.4250390 101.4167410  86.9301310
 145.7436090 102.1801250 101.2476480 146.0792330 102.7667940 101.9254400
 144.8236430 102.0493960 101.4774270 133.2939490  89.9696430 102.0299890
 132.5798010  90.1693350 102.6352500 133.7134530  89.1936000 102.4014690
 147.3970440  99.5826910  89.4293720 147.1092140 100.0439600  90.2171600
 148.1922610  99.1224680  89.6977940 133.5812080 103.9576690 103.0166420
 133.6903200 103.0171430 102.8761810 132.9292640 104.2231440 102.3680150
 141.5724670 102.2292580 104.4164540 141.2521540 101.5101820 104.9610230
 140.8983030 102.9047650 104.4900600 139.6138840 103.0753030  89.3597690
 139.6048940 103.8082720  88.7442200 138.6937200 102.8284610  89.4524650
 135.2145480  98.2967920  90.1044450 134.6073430  99.0366820  90.1139750
 135.6894830  98.3867280  89.2782650 144.7878270  92.4618740  99.7801340
 145.1559090  91.6413950 100.1080910 143.9276470  92.5220630 100.1956990
 148.1540300  91.4175680  90.5888900 147.5253460  91.5221350  89.8747130
 147.6592220  91.6372460  91.3782780 142.5998440 103.1381270  88.0222880
 142.7010420 102.9345260  87.0924860 141.7000180 102.8839550  88.2270660
 140.1224330  93.6961630  92.0046780 139.4140480  94.1647970  92.4460390
 140.4068810  93.0383640  92.6391970 141.7480260  95.1158330 100.0039310
 142.2465510  95.5904150 100.6691160 141.8903210  94.1921850 100.2109340
 144.1539760  90.4212290  93.4442570 144.0307540  90.4398420  92.4952080
 145.1024320  90.4691230  93.5640970 141.2416550 105.6567590  92.7170550
 141.4958050 105.6188980  91.7949920 140.2929030 105.5300920  92.7098800
 138.3259350  92.0046710  89.3797490 139.1749880  92.4416860  89.3137680
 137.9590620  92.3166970  90.2069550 148.9547120  91.3326290 100.8467700
 148.4520720  92.0731690 101.1861510 149.7703780  91.7210290 100.5304490
 147.2469130  96.5759470  94.2929060 146.3059270  96.5909700  94.4676750
 147.5613200  95.7895430  94.7389360 137.2250770  98.2579070  87.8533020
 137.9914040  98.1460430  88.4158450 137.3025460  97.5617040  87.2009790
 135.9197530  95.6904140  88.5365910 136.0001120  94.7431650  88.6483310
 136.8117280  96.0211020  88.6426570 149.2494710 103.7468320  95.9683320
 149.3742130 104.5699490  96.4407130 150.1160270 103.5359050  95.6207470
 136.7212240 105.8399530  95.6400450 137.4574720 105.2914990  95.9109020
 137.1053160 106.7055540  95.5006440 133.6057720 101.9073100  91.5141960
 132.6797500 102.1494240  91.5047370 134.0714150 102.7347360  91.3926710
 135.7270520 105.0245600 104.8286030 136.5283250 105.3457650 105.2421430
 135.2122340 104.6641180 105.5505940 139.8314550 105.0129840  87.4626020
 140.6243160 105.3018670  87.0107810 139.3118900 104.5822010  86.7838500
 144.5635150 101.1325470 104.7761440 143.9573310 101.1557070 104.0357190
 144.2589260 100.4008510 105.3128690 145.9935520 104.8605760 103.3870850
 146.9457270 104.7763780 103.3371090 145.8463740 105.5247470 104.0604640
 148.8844720 104.2399970  88.8862760 148.5986230 103.8265110  88.0716940
 148.6864270 105.1687680  88.7663280 133.4468330  97.5119060 103.7722080
 133.9507350  96.9326340 104.3438310 132.7075750  97.7959290 104.3098450
 140.3491950 100.2333250  87.3268370 140.2442590  99.6185600  88.0529750
 140.1816170  99.7099140  86.5431380 140.5006270  98.9190050 103.3057600
 139.7351940  99.4875050 103.2212270 140.6822230  98.6266260 102.4125830
 143.5894680  99.2953280  87.9310360 143.0404780  99.7422580  88.5753100
 144.2113940  98.7902530  88.4548030 147.6429620 100.6495380 103.8632620
 148.3839090 100.9871140 103.3600080 146.8802300 100.8187440 103.3102390
 135.4791410  95.6548650 104.6672150 135.5196750  95.3562520 105.5757380
 136.3336910  96.0556260 104.5079670 139.2569800  98.2544200  89.8275660
 139.6786220  98.0884070  90.6707050 139.3820640  97.4444430  89.3330800
 137.4197220  94.2340750 102.6346640 136.8893680  93.7431700 102.0069980
 138.0885290  94.6624950 102.1004570 141.7697440  97.2781810  87.0752760
 142.2903100  96.5630830  86.7093910 142.4165840  97.9167680  87.3753270
 146.3175280  98.7010210 102.3987830 146.7316300  98.8555290 103.2478250
 145.3826280  98.8265430 102.5613610 146.7897450  96.0406370 104.4026980
 147.3718220  95.2858690 104.3147460 146.9659220  96.5713810 103.6258460
 137.9069520  91.2003120 102.7143930 137.8126390  90.5823870 101.9894800
 137.3266910  91.9269410 102.4873840 140.6730960  89.7576360  99.7471320
 140.2248260  89.7800620  98.9016870 140.0396160  89.3595380 100.3441620
 141.0790510  98.6530690 100.3683760 141.4978620  99.4963420 100.1960000
 140.1599140  98.7902730 100.1390540 143.4154410  96.3846870 101.7521600
 143.5350620  95.7888010 102.4916440 144.2748410  96.4216560 101.3322900
 145.7542310  96.9384060 100.3284110 145.2277530  97.4626680  99.7249250
 146.0973650  97.5711450 100.9593840 138.1528700  94.3277430  86.7733820
 137.9517760  93.4644790  87.1347160 137.9820750  94.2410790  85.8355420
 138.9297930 104.9583700 101.4841490 138.3919020 105.6829760 101.1650190
 139.1831890 104.4814040 100.6938830 140.1823180  92.9268220 103.0097420
 140.7722870  92.6184070 103.6975240 139.3643420  92.4547970 103.1657320
 145.0016610  92.5434030 103.2430440 144.3132130  91.8815570 103.1780430
 145.7222630  92.0972300 103.6878900 145.6317010  89.1385660  89.3020700
 145.9119300  88.2953560  89.6580120 144.8582740  89.3708770  89.8159450
 141.7860140 106.1934910 101.7428140 141.7118840 107.0970050 102.0500510
 140.8838980 105.8746810 101.7150210 140.1696430  90.3712670  87.7467900
 139.8218430  89.6936660  87.1670350 140.3709200  89.9102180  88.5611290
 142.3345470 105.3593420  89.3654500 143.2296260 105.6978390  89.3873260
 142.3663100 104.6372830  88.7378780 135.9741630 100.7320470  87.5941500
 136.4116500 101.2750140  88.2499080 136.4589360  99.9067420  87.6037840
 133.1887430 103.5209500  95.0461760 133.5190440 102.6530560  94.8140400
 133.6178430 103.7268020  95.8766720 137.7849350 101.8518510  92.7063730
 137.4844890 101.7283480  93.6067640 137.6786840 100.9927100  92.2979460
 133.6777640 104.3880090  97.7843390 133.2408630 104.5680890  98.6167540
 134.2455320 105.1454710  97.6425110 149.3139820 103.8897090 102.0720700
 148.7141810 103.9489650 101.3284620 149.4433720 102.9502070 102.2017550
 133.5102070  96.9000320  94.1432270 132.8550910  96.6311960  93.4991970
 134.3480020  96.7904800  93.6934250 147.9991460 100.6149070 100.1696860
 147.1851300 101.0446230 100.4322650 148.4065660 101.2267480  99.5565910
 150.0616900  98.6696760  87.0697130 150.3365740  99.5775640  86.9416350
 149.8727640  98.6059290  88.0059120 146.4592510  91.6941610  88.3650760
 146.8777390  91.5072590  87.5247420 146.1528570  90.8420660  88.6753690
 149.9582240  96.6065750  92.0626560 149.5825840  95.8393680  91.6307850
 149.2285360  96.9888450  92.5501490 134.5478000  97.2852890  98.6835610
 134.9151040  97.1980290  99.5631630 133.9788820  96.5219440  98.5842470
 149.3481860  95.7537270 101.6966080 149.1167950  95.5250020 100.7964030
 149.6086410  96.6736820 101.6510970 134.0994000  94.1961980 102.5894030
 133.2050050  94.1628740 102.9287740 134.6391550  94.3948770 103.3545280
 147.7869930  90.9793700 104.4745780 148.6640110  90.9877100 104.8579780
 147.7990770  90.2424540 103.8638130 149.2333200  94.8323240  95.3633800
 149.7570680  94.3385890  94.7323970 149.8192620  94.9673600  96.1081370
 149.4122920  94.9163110  98.8853350 148.4625630  94.8826650  98.9998340
 149.5935930  95.8263220  98.6503120 148.7233170  94.0896590  91.3026210
 149.2192290  93.8567460  92.0875090 148.5249240  93.2508430  90.8863850
 134.6033710  88.4710310  96.9377250 135.2509900  87.9207690  96.4972410
 135.0235550  88.7253460  97.7593060 148.4986050  88.6651670 100.2946890
 149.1358270  89.2785810 100.6606080 148.6460940  88.7012330  99.3496120
 148.0567510 105.3667670  93.6965130 148.6526580 105.0452240  93.0199550
 148.3145660 104.8939490  94.4878400 134.3565710  88.6265980  99.6802570
 134.0080530  89.0829800 100.4460750 134.0253410  87.7323110  99.7625000
 135.9630080 101.7985580 103.8455760 135.9199710 101.4278490 104.7270220
 136.0941090 102.7363150 103.9857580 139.6636110 103.3545170  99.4465480
 139.4227470 103.6219730  98.5596000 140.6038750 103.5250900  99.5016340
 141.8690530  89.8177860 103.2021990 141.8079420  90.4099690 103.9517400
 142.8090910  89.7103820 103.0572250 144.5065090  89.4747920 102.8414280
 145.1205500  89.7927210 102.1795360 145.0514650  88.9896510 103.4610140
 135.8018110 104.7447830 100.9653540 135.2078430 104.6132530 101.7043580
 135.7941950 103.9085970 100.4995640 145.2473130  88.0380060  99.1683570
 144.3732970  88.3715170  98.9656500 145.1383880  87.5653240  99.9935440
 146.1545110  90.2450930 100.5525290 145.8258470  89.4302690 100.1727020
 147.1027410  90.2020740 100.4290980 148.6079720 106.0162970  97.5262860
 148.1482690 106.7678780  97.1520880 147.9792180 105.2969440  97.4677660
 135.4330340 102.1106210  99.9161580 134.7064400 101.4911500  99.8487530
 135.4939490 102.5046820  99.0459660 139.0375440 104.3251210  96.7010990
 139.5540460 103.7138570  96.1759250 139.6872820 104.8279990  97.1922000
 141.7770940 105.2159700  97.5279970 142.0648750 104.9614000  96.6512980
 142.2894160 104.6637060  98.1185540 142.9947950  88.9549900  98.1076480
 142.2119740  89.4295400  98.3873240 142.7010880  88.0504730  97.9989660
 147.5469020  89.6573000  96.1525570 147.9877110  89.6018100  95.3047170
 147.2776610  90.5731010  96.2235750 149.4107590  89.2888240  94.1634390
 149.3495990  88.3449460  94.0165410 150.1899620  89.3968330  94.7087850
 133.7160340 105.4280600  93.1258340 133.5482380 104.7951280  93.8240230
 132.8494850 105.6340000  92.7752530 140.8802170  91.3736650  93.6192510
 140.0676680  90.9993540  93.2788390 141.3843810  90.6181730  93.9213700
 145.3827150  88.0379100  94.8575580 145.9856520  88.6099310  95.3324100
 144.6420140  88.6018540  94.6349480 148.5261750  88.4400660  90.1315860
 148.7212380  89.3384110  90.3983290 147.7391620  88.2087740  90.6248810
 136.7113510  89.7861430  89.1692170 137.2406270  88.9991230  89.0400120
 137.3441830  90.4652620  89.4027700 138.9051350  89.5236570  92.2237560
 138.2754090  88.8223880  92.3907690 138.3656490  90.2840700  92.0070720
 141.8443300 106.1375800 104.8948170 142.7710610 105.9020070 104.9384130
 141.8293730 106.9647800 104.4134200 150.0788360 105.6801370  91.8922420
 150.2540550 104.9939110  91.2483340 149.3809930 106.2048420  91.4999090
 139.0306910  88.8020550 104.6590050 138.7491180  89.3054150 103.8950870
 139.4126610  88.0042300 104.2932180 137.9216010 106.0696210  89.4457730
 138.6534830 105.7855490  88.8981620 138.1809680 105.8309490  90.3357110
 137.0830800 102.1860940  89.4504060 136.4539680 102.6546040  89.9989890
 137.1978630 101.3410160  89.8850250 145.6322370  88.2174130 105.2370520
 145.5187820  88.5368740 106.1322040 146.4492110  88.6186640 104.9407800
 148.4120860 105.3645660 104.7189210 149.2046180 104.8694890 104.5115170
 148.7054010 106.0435800 105.3264820 144.5380520  96.2366600  75.6005260
 144.4574570  95.3221210  75.3296970 144.1244940  96.7333670  74.8944970
 142.6698560  98.0145620  77.4814530 141.8940660  97.5346060  77.7713100
 143.3211490  97.3351270  77.3070690 146.6905990 102.4205810  76.2613660
 146.2287520 101.6493050  76.5900830 147.5031540 102.4471880  76.7666110
 142.9169300 104.7063820  75.8817650 142.2980740 105.1621320  75.3112090
 143.7721080 104.8615280  75.4807350 142.1107550 100.6902810  77.4884690
 142.0415830  99.7492750  77.3273820 142.8727410 100.7804220  78.0607260
 143.1412720  93.4973190  77.7153620 143.5177540  92.6245070  77.6027290
 143.0432230  93.8331890  76.8244060 146.9236840  90.9923630  74.6481960
 147.7446460  90.5020200  74.6907440 146.9570920  91.5821290  75.4013800
 139.1125460  94.8385190  77.5096240 139.6203680  95.3366160  78.1501260
 139.6438700  94.0620390  77.3335600 137.3961560  89.4783750  81.7759660
 137.3980000  89.9956140  80.9705560 136.5665870  89.0013930  81.7529590
 143.7832650  99.5903060  73.2749560 143.1649920 100.0552510  72.7112280
 144.2955900 100.2830540  73.6919070 147.1598320  92.9324010  77.4209500
 146.4553890  93.2208900  78.0012610 147.5210480  93.7424120  77.0609060
 137.0776890  91.1893710  79.7830110 137.4193700  92.0335760  79.4883980
 136.1392700  91.3377450  79.8995450 148.7761100 102.5499140  79.6836980
 148.0924620 103.2198250  79.6753650 149.3155390 102.7479790  78.9181840
 140.7604780  88.6775980  76.1074700 141.0679760  88.1222870  75.3910200
 139.8305480  88.8120440  75.9247690 146.3119840 104.3943270  78.3982160
 146.3247000 103.9905560  77.5304420 145.7595060 105.1690560  78.2943590
 147.6065260 101.1159490  73.4872330 147.4961590 100.1733820  73.6121750
 147.6033510 101.4775130  74.3735090 145.7105280  99.2973110  79.7264770
 146.1274070  99.0833220  78.8918230 146.4345100  99.5545900  80.2973390
 143.1485540  96.7424810  72.8434820 142.2214820  96.6762190  73.0723290
 143.3010360  97.6804940  72.7290060 143.1354620  93.0141810  69.8401980
 142.1958290  93.1755770  69.9254440 143.4537880  93.7327490  69.2937970
 149.6567380  97.6960330  79.8181010 148.8286010  97.7653420  79.3431140
 150.2517860  98.2814640  79.3496840 147.1782830  98.3045110  73.3470070
 146.5595250  97.9664660  72.6996370 147.1607280  97.6604870  74.0549260
 146.6209390  94.4829650  80.7635880 146.2080570  95.3083360  81.0175870
 145.8885340  93.8974690  80.5712240 138.7542180  97.2689550  75.6254550
 138.3499180  96.5566800  75.1300450 138.8405300  96.9242790  76.5142590
 147.3109490 104.5288980  81.4516860 146.8340050 105.3361170  81.2589470
 146.6271280 103.8767310  81.6043070 138.3142310 100.6938800  84.4401560
 137.4170840 100.9178770  84.6874960 138.3395180 100.8173740  83.4912960
 145.3547530  97.5431920  70.3542820 145.7940810  96.7054350  70.2080640
 146.0675950  98.1761320  70.4406960 143.4642910 102.4827990  74.3224060
 143.9038820 103.2252320  73.9079450 143.4029800 102.7254560  75.2463020
 138.9393880 103.5073820  85.2244080 138.9109310 103.9116770  84.3572510
 138.7758850 102.5784180  85.0615680 148.9364670  88.7974730  68.6683860
 148.6237330  88.8901560  69.5682930 149.6977140  89.3755760  68.6181290
 150.2941950 101.4813770  83.6808260 150.4205010 101.2425650  82.7625440
 150.3363330 100.6498310  84.1530340 144.1558690 105.1841770  82.2503070
 144.6703360 105.0949780  83.0525500 143.3127770 105.5301470  82.5430980
 146.1313090 105.4697110  71.6787070 145.9714230 105.1800050  72.5768900
 145.9659800 104.6937240  71.1432300 138.6101470 105.2495640  73.4558690
 138.4343950 104.3331180  73.2426490 137.7557210 105.6082930  73.6956490
 145.8339220 102.9784670  70.2385070 145.1404380 102.9761960  69.5787350
 146.5762080 102.5543990  69.8079240 145.3989150 104.6047380  74.3133560
 145.8546100 103.8236760  74.6272180 145.7381670 105.3154200  74.8574740
 150.1465960  93.5346230  84.6458000 149.5310230  94.0425900  84.1173460
 149.8262380  92.6344560  84.5883940 137.9210470  89.5069600  76.5084870
 137.4778620  90.2879140  76.1769390 138.4795460  89.8299490  77.2155810
 142.2080280  92.3738120  82.1120190 141.7459650  92.5821140  82.9240130
 141.8058390  91.5597470  81.8090860 147.2084790  93.5947070  83.2416850
 146.3578380  93.2952820  83.5625920 147.0486580  93.8389080  82.3300670
 144.3034500  95.0948820  85.3415640 144.6287910  94.2612570  85.0017870
 145.0914830  95.6177340  85.4893970 141.0369290  89.1280300  71.3890700
 140.4123470  89.1240170  72.1144010 140.9499410  88.2611260  70.9926670
 139.9586370  90.0516930  78.3674470 140.2558700  90.9579760  78.2866490
 140.5071930  89.5635710  77.7534040 137.7124690  94.6303170  74.2366120
 137.4865610  94.4140340  75.1412740 136.9317220  95.0631630  73.8912090
 144.9422450  94.6366540  72.8356770 144.3431340  95.3602340  72.6520390
 145.4902060  94.5743320  72.0533220 140.1523900  95.5288750  84.9026390
 140.0567500  94.5883480  84.7526790 140.9955880  95.7503820  84.5074460
 143.5487320  93.2730080  74.8660050 143.9416890  93.5902280  74.0528740
 143.9104170  92.3941960  74.9804570 141.8579490  92.0237390  86.1256910
 141.1677810  91.8309590  86.7603000 142.6011790  92.3072030  86.6581210
 132.5851490  89.8630880  77.0890250 132.2964540  90.4333740  77.8015230
 133.3297250  89.3835330  77.4521480 132.7721720  93.8051000  68.2992970
 132.6896390  94.7481760  68.4407960 132.4204780  93.6625910  67.4205320
 144.1342460  95.8635830  78.9610830 143.4023580  96.3722640  79.3100930
 143.7366800  95.0465810  78.6599610 140.5719850  92.5390030  77.3663320
 140.5755910  92.0979980  76.5167860 141.4670970  92.8607360  77.4735140
 136.4222230  92.4216520  76.3257530 136.0822280  92.8991750  77.0824580
 135.6599550  91.9681640  75.9658630 140.6340000  93.5402110  70.3570080
 140.7552820  93.4988590  71.3055900 140.2488510  94.4026260  70.2016810
 144.5968370  91.3169510  78.3733770 144.6141110  91.7678160  79.2175620
 144.3483950  90.4175150  78.5867210 139.6461500  95.8503250  69.7553380
 139.0778400  95.4021500  69.1289290 140.3550500  96.2096030  69.2218530
 148.0239120  88.7301690  84.2120150 148.3484890  87.9991350  84.7378130
 148.0595630  88.4115330  83.3101140 134.7230680  99.7515270  83.6320110
 134.3385470  99.1108940  84.2303070 135.0342870 100.4551390  84.2014840
 140.8727820  96.5991810  79.1128730 141.2397950  96.1250380  79.8590070
 140.6832880  97.4733380  79.4537070 133.7368310  91.3435500  75.2422200
 133.4515230  90.9791170  76.0800820 133.6747170  90.6115960  74.6285340
 137.1908980  99.8461440  72.0279790 136.4171240  99.3059060  71.8678510
 137.9203610  99.3268050  71.6897550 147.9496960  98.8426800  77.8206180
 148.6696080  99.3382090  77.4302290 147.7478780  98.1644690  77.1760050
 143.4106900  90.2364760  71.9635570 142.5971510  89.7377930  71.8880880
 143.2168850  91.0763010  71.5471920 143.3315760  98.9135860  83.7075180
 143.2653070  97.9931530  83.4532770 142.7020900  99.0111300  84.4219820
 146.1255290  94.6084410  70.2597730 147.0134910  94.9201640  70.0849070
 146.0960380  93.7356660  69.8678310 137.2346380  99.5141820  75.6658600
 137.7525050  98.7110080  75.6115490 136.7830400  99.4520960  76.5075430
 142.1215880 100.7808100  70.9385900 142.4631580 101.5250330  70.4429220
 141.2928590 101.0939220  71.3010730 137.9204040  96.9387430  85.4623850
 137.6204180  97.0844610  84.5651670 138.6915280  96.3792720  85.3697240
 143.2632490 101.7356430  83.4578980 143.2777030 100.8037390  83.2397890
 142.5557590 101.8216190  84.0968750 148.3969560  95.9196250  69.7277590
 148.3133280  96.3510470  68.8774030 149.1163750  96.3794600  70.1604410
 149.4743700  98.3763770  82.8047560 148.7491890  98.9692550  82.6076950
 150.0019160  98.3687310  82.0060930 149.4256810 102.7738510  72.4559720
 148.7832970 102.1194130  72.7303440 149.0387470 103.1793600  71.6800390
 145.0043290 100.1023940  76.3031410 145.3567110  99.5052070  75.6432780
 144.1205620  99.7768170  76.4739660 141.0906570 100.8621630  73.7101820
 141.7777700 101.4090840  74.0909410 140.3038990 101.4062360  73.7451430
 133.2298970  96.4794450  69.2018900 134.0993820  96.7619250  69.4854820
 132.7389290  97.2930320  69.0867710 140.3933780  97.8667660  73.3227180
 140.8496560  98.6772910  73.5487370 140.0421990  97.5490800  74.1545670
 142.6966390 103.3774000  80.5519480 143.3408610 103.5833380  81.2292900
 143.0595830 102.6162400  80.0990330 143.9698470 101.3806350  79.2696930
 144.6120700 100.6799510  79.3829100 144.4947820 102.1604790  79.0893820
 147.8154190 101.6654970  68.9936070 147.5891770 100.9485410  69.5860710
 147.4250390 101.4167410  68.1557820 145.7436090 102.1801250  82.4732990
 146.0792330 102.7667940  83.1510910 144.8236430 102.0493960  82.7030780
 147.3970440  99.5826910  70.6550230 147.1092140 100.0439600  71.4428110
 148.1922610  99.1224680  70.9234450 141.5724670 102.2292580  85.6421050
 141.2521540 101.5101820  86.1866740 140.8983030 102.9047650  85.7157110
 139.6138840 103.0753030  70.5854200 139.6048940 103.8082720  69.9698710
 138.6937200 102.8284610  70.6781160 144.7878270  92.4618740  81.0057850
 145.1559090  91.6413950  81.3337420 143.9276470  92.5220630  81.4213500
 148.1540300  91.4175680  71.8145410 147.5253460  91.5221350  71.1003640
 147.6592220  91.6372460  72.6039290 142.5998440 103.1381270  69.2479390
 142.7010420 102.9345260  68.3181370 141.7000180 102.8839550  69.4527170
 140.1224330  93.6961630  73.2303290 139.4140480  94.1647970  73.6716900
 140.4068810  93.0383640  73.8648480 141.7480260  95.1158330  81.2295820
 142.2465510  95.5904150  81.8947670 141.8903210  94.1921850  81.4365850
 144.1539760  90.4212290  74.6699080 144.0307540  90.4398420  73.7208590
 145.1024320  90.4691230  74.7897480 141.2416550 105.6567590  73.9427060
 141.4958050 105.6188980  73.0206430 140.2929030 105.5300920  73.9355310
 138.3259350  92.0046710  70.6054000 139.1749880  92.4416860  70.5394190
 137.9590620  92.3166970  71.4326060 148.9547120  91.3326290  82.0724210
 148.4520720  92.0731690  82.4118020 149.7703780  91.7210290  81.7561000
 147.2469130  96.5759470  75.5185570 146.3059270  96.5909700  75.6933260
 147.5613200  95.7895430  75.9645870 137.2250770  98.2579070  69.0789530
 137.9914040  98.1460430  69.6414960 137.3025460  97.5617040  68.4266300
 135.9197530  95.6904140  69.7622420 136.0001120  94.7431650  69.8739820
 136.8117280  96.0211020  69.8683080 149.2494710 103.7468320  77.1939830
 149.3742130 104.5699490  77.6663640 150.1160270 103.5359050  76.8463980
 139.8314550 105.0129840  68.6882530 140.6243160 105.3018670  68.2364320
 139.3118900 104.5822010  68.0095010 144.5635150 101.1325470  86.0017950
 143.9573310 101.1557070  85.2613700 144.2589260 100.4008510  86.5385200
 145.9935520 104.8605760  84.6127360 146.9457270 104.7763780  84.5627600
 145.8463740 105.5247470  85.2861150 148.8844720 104.2399970  70.1119270
 148.5986230 103.8265110  69.2973450 148.6864270 105.1687680  69.9919790
 140.3491950 100.2333250  68.5524880 140.2442590  99.6185600  69.2786260
 140.1816170  99.7099140  67.7687890 140.5006270  98.9190050  84.5314110
 139.7351940  99.4875050  84.4468780 140.6822230  98.6266260  83.6382340
 143.5894680  99.2953280  69.1566870 143.0404780  99.7422580  69.8009610
 144.2113940  98.7902530  69.6804540 147.6429620 100.6495380  85.0889130
 148.3839090 100.9871140  84.5856590 146.8802300 100.8187440  84.5358900
 135.4791410  95.6548650  85.8928660 135.5196750  95.3562520  86.8013890
 136.3336910  96.0556260  85.7336180 139.2569800  98.2544200  71.0532170
 139.6786220  98.0884070  71.8963560 139.3820640  97.4444430  70.5587310
 137.4197220  94.2340750  83.8603150 136.8893680  93.7431700  83.2326490
 138.0885290  94.6624950  83.3261080 141.7697440  97.2781810  68.3009270
 142.2903100  96.5630830  67.9350420 142.4165840  97.9167680  68.6009780
 146.3175280  98.7010210  83.6244340 146.7316300  98.8555290  84.4734760
 145.3826280  98.8265430  83.7870120 146.7897450  96.0406370  85.6283490
 147.3718220  95.2858690  85.5403970 146.9659220  96.5713810  84.8514970
 137.9069520  91.2003120  83.9400440 137.8126390  90.5823870  83.2151310
 137.3266910  91.9269410  83.7130350 140.6730960  89.7576360  80.9727830
 140.2248260  89.7800620  80.1273380 140.0396160  89.3595380  81.5698130
 143.4154410  96.3846870  82.9778110 143.5350620  95.7888010  83.7172950
 144.2748410  96.4216560  82.5579410 145.7542310  96.9384060  81.5540620
 145.2277530  97.4626680  80.9505760 146.0973650  97.5711450  82.1850350
 138.1528700  94.3277430  67.9990330 137.9517760  93.4644790  68.3603670
 137.9820750  94.2410790  67.0611930 138.9297930 104.9583700  82.7098000
 138.3919020 105.6829760  82.3906700 139.1831890 104.4814040  81.9195340
 140.1823180  92.9268220  84.2353930 140.7722870  92.6184070  84.9231750
 139.3643420  92.4547970  84.3913830 145.0016610  92.5434030  84.4686950
 144.3132130  91.8815570  84.4036940 145.7222630  92.0972300  84.9135410
 145.6317010  89.1385660  70.5277210 145.9119300  88.2953560  70.8836630
 144.8582740  89.3708770  71.0415960 141.7860140 106.1934910  82.9684650
 141.7118840 107.0970050  83.2757020 140.8838980 105.8746810  82.9406720
 140.1696430  90.3712670  68.9724410 139.8218430  89.6936660  68.3926860
 140.3709200  89.9102180  69.7867800 142.3345470 105.3593420  70.5911010
 143.2296260 105.6978390  70.6129770 142.3663100 104.6372830  69.9635290
 135.9741630 100.7320470  68.8198010 136.4116500 101.2750140  69.4755590
 136.4589360  99.9067420  68.8294350 137.7849350 101.8518510  73.9320240
 137.4844890 101.7283480  74.8324150 137.6786840 100.9927100  73.5235970
 149.3139820 103.8897090  83.2977210 148.7141810 103.9489650  82.5541130
 149.4433720 102.9502070  83.4274060 147.9991460 100.6149070  81.3953370
 147.1851300 101.0446230  81.6579160 148.4065660 101.2267480  80.7822420
 150.0616900  98.6696760  68.2953640 150.3365740  99.5775640  68.1672860
 149.8727640  98.6059290  69.2315630 146.4592510  91.6941610  69.5907270
 146.8777390  91.5072590  68.7503930 146.1528570  90.8420660  69.9010200
 149.9582240  96.6065750  73.2883070 149.5825840  95.8393680  72.8564360
 149.2285360  96.9888450  73.7758000 149.3481860  95.7537270  82.9222590
 149.1167950  95.5250020  82.0220540 149.6086410  96.6736820  82.8767480
 134.0994000  94.1961980  83.8150540 133.2050050  94.1628740  84.1544250
 134.6391550  94.3948770  84.5801790 147.7869930  90.9793700  85.7002290
 148.6640110  90.9877100  86.0836290 147.7990770  90.2424540  85.0894640
 132.7240150  94.1099250  71.3114110 131.8204230  94.3729450  71.1365770
 133.2080770  94.3810420  70.5314070 149.2333200  94.8323240  76.5890310
 149.7570680  94.3385890  75.9580480 149.8192620  94.9673600  77.3337880
 149.4122920  94.9163110  80.1109860 148.4625630  94.8826650  80.2254850
 149.5935930  95.8263220  79.8759630 135.2667360  93.1664790  69.2208490
 135.9759060  92.7448010  68.7355770 134.5507300  93.2340020  68.5891840
 148.7233170  94.0896590  72.5282720 149.2192290  93.8567460  73.3131600
 148.5249240  93.2508430  72.1120360 148.4986050  88.6651670  81.5203400
 149.1358270  89.2785810  81.8862590 148.6460940  88.7012330  80.5752630
 148.0567510 105.3667670  74.9221640 148.6526580 105.0452240  74.2456060
 148.3145660 104.8939490  75.7134910 135.9630080 101.7985580  85.0712270
 135.9199710 101.4278490  85.9526730 136.0941090 102.7363150  85.2114090
 139.6636110 103.3545170  80.6721990 139.4227470 103.6219730  79.7852510
 140.6038750 103.5250900  80.7272850 141.8690530  89.8177860  84.4278500
 141.8079420  90.4099690  85.1773910 142.8090910  89.7103820  84.2828760
 144.5065090  89.4747920  84.0670790 145.1205500  89.7927210  83.4051870
 145.0514650  88.9896510  84.6866650 135.0286350  88.1542180  84.1809850
 135.5769340  87.9730230  83.4175960 135.0941660  87.3636290  84.7166160
 145.2473130  88.0380060  80.3940080 144.3732970  88.3715170  80.1913010
 145.1383880  87.5653240  81.2191950 146.1545110  90.2450930  81.7781800
 145.8258470  89.4302690  81.3983530 147.1027410  90.2020740  81.6547490
 148.6079720 106.0162970  78.7519370 148.1482690 106.7678780  78.3777390
 147.9792180 105.2969440  78.6934170 139.0375440 104.3251210  77.9267500
 139.5540460 103.7138570  77.4015760 139.6872820 104.8279990  78.4178510
 141.7770940 105.2159700  78.7536480 142.0648750 104.9614000  77.8769490
 142.2894160 104.6637060  79.3442050 142.9947950  88.9549900  79.3332990
 142.2119740  89.4295400  79.6129750 142.7010880  88.0504730  79.2246170
 147.5469020  89.6573000  77.3782080 147.9877110  89.6018100  76.5303680
 147.2776610  90.5731010  77.4492260 149.4107590  89.2888240  75.3890900
 149.3495990  88.3449460  75.2421920 150.1899620  89.3968330  75.9344360
 140.8802170  91.3736650  74.8449020 140.0676680  90.9993540  74.5044900
 141.3843810  90.6181730  75.1470210 145.3827150  88.0379100  76.0832090
 145.9856520  88.6099310  76.5580610 144.6420140  88.6018540  75.8605990
 148.5261750  88.4400660  71.3572370 148.7212380  89.3384110  71.6239800
 147.7391620  88.2087740  71.8505320 138.9051350  89.5236570  73.4494070
 138.2754090  88.8223880  73.6164200 138.3656490  90.2840700  73.2327230
 141.8443300 106.1375800  86.1204680 142.7710610 105.9020070  86.1640640
 141.8293730 106.9647800  85.6390710 150.0788360 105.6801370  73.1178930
 150.2540550 104.9939110  72.4739850 149.3809930 106.2048420  72.7255600
 139.0306910  88.8020550  85.8846560 138.7491180  89.3054150  85.1207380
 139.4126610  88.0042300  85.5188690 137.9216010 106.0696210  70.6714240
 138.6534830 105.7855490  70.1238130 138.1809680 105.8309490  71.5613620
 137.0830800 102.1860940  70.6760570 136.4539680 102.6546040  71.2246400
 137.1978630 101.3410160  71.1106760 145.6322370  88.2174130  86.4627030
 145.5187820  88.5368740  87.3578550 146.4492110  88.6186640  86.1664310
 148.4120860 105.3645660  85.9445720 149.2046180 104.8694890  85.7371680
 148.7054010 106.0435800  86.5521330 144.5380520  96.2366600  56.8261770
 144.4574570  95.3221210  56.5553480 144.1244940  96.7333670  56.1201480
 142.6698560  98.0145620  58.7071040 141.8940660  97.5346060  58.9969610
 143.3211490  97.3351270  58.5327200 146.6905990 102.4205810  57.4870170
 146.2287520 101.6493050  57.8157340 147.5031540 102.4471880  57.9922620
 136.6665650 102.3605520  59.7804820 136.9693690 101.4703260  59.6015040
 137.4109240 102.9175740  59.5527070 135.0956340  93.2867320  53.3689190
 134.2073040  93.6283290  53.2669070 135.3797530  93.0867640  52.4770020
 142.9169300 104.7063820  57.1074160 142.2980740 105.1621320  56.5368600
 143.7721080 104.8615280  56.7063860 142.1107550 100.6902810  58.7141200
 142.0415830  99.7492750  58.5530330 142.8727410 100.7804220  59.2863770
 143.1412720  93.4973190  58.9410130 143.5177540  92.6245070  58.8283800
 143.0432230  93.8331890  58.0500570 137.2717730  91.8698820  54.4027570
 137.3784480  92.7702550  54.7096330 136.3610090  91.8216790  54.1122220
 146.9236840  90.9923630  55.8738470 147.7446460  90.5020200  55.9163950
 146.9570920  91.5821290  56.6270310 139.1125460  94.8385190  58.7352750
 139.6203680  95.3366160  59.3757770 139.6438700  94.0620390  58.5592110
 143.7832650  99.5903060  54.5006070 143.1649920 100.0552510  53.9368790
 144.2955900 100.2830540  54.9175580 138.6464410  99.1178930  61.1789670
 138.3133790  99.7447850  61.8210740 138.8231090  99.6440810  60.3991340
 147.1598320  92.9324010  58.6466010 146.4553890  93.2208900  59.2269120
 147.5210480  93.7424120  58.2865570 137.8583510 101.0859730  62.9938850
 138.4757510 101.7610810  62.7123300 136.9976630 101.4947710  62.9026350
 133.1515850 100.2759590  51.8745700 132.7743830 100.7646690  51.1430600
 133.4088920 100.9484870  52.5052230 148.7761100 102.5499140  60.9093490
 148.0924620 103.2198250  60.9010160 149.3155390 102.7479790  60.1438350
 140.7604780  88.6775980  57.3331210 141.0679760  88.1222870  56.6166710
 139.8305480  88.8120440  57.1504200 146.3119840 104.3943270  59.6238670
 146.3247000 103.9905560  58.7560930 145.7595060 105.1690560  59.5200100
 147.6065260 101.1159490  54.7128840 147.4961590 100.1733820  54.8378260
 147.6033510 101.4775130  55.5991600 145.7105280  99.2973110  60.9521280
 146.1274070  99.0833220  60.1174740 146.4345100  99.5545900  61.5229900
 143.1485540  96.7424810  54.0691330 142.2214820  96.6762190  54.2979800
 143.3010360  97.6804940  53.9546570 143.1354620  93.0141810  51.0658490
 142.1958290  93.1755770  51.1510950 143.4537880  93.7327490  50.5194480
 149.6567380  97.6960330  61.0437520 148.8286010  97.7653420  60.5687650
 150.2517860  98.2814640  60.5753350 147.1782830  98.3045110  54.5726580
 146.5595250  97.9664660  53.9252880 147.1607280  97.6604870  55.2805770
 146.6209390  94.4829650  61.9892390 146.2080570  95.3083360  62.2432380
 145.8885340  93.8974690  61.7968750 138.7542180  97.2689550  56.8511060
 138.3499180  96.5566800  56.3556960 138.8405300  96.9242790  57.7399100
 139.2223880 100.9557110  59.0150270 138.9252170 100.3502580  58.3358050
 140.1723700 100.9934420  58.9039630 147.3109490 104.5288980  62.6773370
 146.8340050 105.3361170  62.4845980 146.6271280 103.8767310  62.8299580
 138.3142310 100.6938800  65.6658070 137.4170840 100.9178770  65.9131470
 138.3395180 100.8173740  64.7169470 145.3547530  97.5431920  51.5799330
 145.7940810  96.7054350  51.4337150 146.0675950  98.1761320  51.6663470
 137.1413530  97.5652120  64.2415440 137.0021300  98.4374920  64.6102840
 136.2594890  97.2224930  64.0963380 143.4642910 102.4827990  55.5480570
 143.9038820 103.2252320  55.1335960 143.4029800 102.7254560  56.4719530
 138.9393880 103.5073820  66.4500590 138.9109310 103.9116770  65.5829020
 138.7758850 102.5784180  66.2872190 148.9364670  88.7974730  49.8940370
 148.6237330  88.8901560  50.7939440 149.6977140  89.3755760  49.8437800
 150.2941950 101.4813770  64.9064770 150.4205010 101.2425650  63.9881950
 150.3363330 100.6498310  65.3786850 144.1558690 105.1841770  63.4759580
 144.6703360 105.0949780  64.2782010 143.3127770 105.5301470  63.7687490
 146.1313090 105.4697110  52.9043580 145.9714230 105.1800050  53.8025410
 145.9659800 104.6937240  52.3688810 138.6101470 105.2495640  54.6815200
 138.4343950 104.3331180  54.4683000 137.7557210 105.6082930  54.9213000
 145.8339220 102.9784670  51.4641580 145.1404380 102.9761960  50.8043860
 146.5762080 102.5543990  51.0335750 145.3989150 104.6047380  55.5390070
 145.8546100 103.8236760  55.8528690 145.7381670 105.3154200  56.0831250
 150.1465960  93.5346230  65.8714510 149.5310230  94.0425900  65.3429970
 149.8262380  92.6344560  65.8140450 133.1491700 100.3763840  62.6980810
 133.3122740  99.9069200  61.8800180 133.6144150  99.8687400  63.3629650
 137.9210470  89.5069600  57.7341380 137.4778620  90.2879140  57.4025900
 138.4795460  89.8299490  58.4412320 142.2080280  92.3738120  63.3376700
 141.7459650  92.5821140  64.1496640 141.8058390  91.5597470  63.0347370
 147.2084790  93.5947070  64.4673360 146.3578380  93.2952820  64.7882430
 147.0486580  93.8389080  63.5557180 144.3034500  95.0948820  66.5672150
 144.6287910  94.2612570  66.2274380 145.0914830  95.6177340  66.7150480
 141.0369290  89.1280300  52.6147210 140.4123470  89.1240170  53.3400520
 140.9499410  88.2611260  52.2183180 139.9586370  90.0516930  59.5930980
 140.2558700  90.9579760  59.5123000 140.5071930  89.5635710  58.9790550
 137.7124690  94.6303170  55.4622630 137.4865610  94.4140340  56.3669250
 136.9317220  95.0631630  55.1168600 144.9422450  94.6366540  54.0613280
 144.3431340  95.3602340  53.8776900 145.4902060  94.5743320  53.2789730
 140.1523900  95.5288750  66.1282900 140.0567500  94.5883480  65.9783300
 140.9955880  95.7503820  65.7330970 143.5487320  93.2730080  56.0916560
 143.9416890  93.5902280  55.2785250 143.9104170  92.3941960  56.2061080
 141.8579490  92.0237390  67.3513420 141.1677810  91.8309590  67.9859510
 142.6011790  92.3072030  67.8837720 132.5851490  89.8630880  58.3146760
 132.2964540  90.4333740  59.0271740 133.3297250  89.3835330  58.6777990
 132.7721720  93.8051000  49.5249480 132.6896390  94.7481760  49.6664470
 132.4204780  93.6625910  48.6461830 144.1342460  95.8635830  60.1867340
 143.4023580  96.3722640  60.5357440 143.7366800  95.0465810  59.8856120
 140.5719850  92.5390030  58.5919830 140.5755910  92.0979980  57.7424370
 141.4670970  92.8607360  58.6991650 140.6340000  93.5402110  51.5826590
 140.7552820  93.4988590  52.5312410 140.2488510  94.4026260  51.4273320
 144.5968370  91.3169510  59.5990280 144.6141110  91.7678160  60.4432130
 144.3483950  90.4175150  59.8123720 139.6461500  95.8503250  50.9809890
 139.0778400  95.4021500  50.3545800 140.3550500  96.2096030  50.4475040
 148.0239120  88.7301690  65.4376660 148.3484890  87.9991350  65.9634640
 148.0595630  88.4115330  64.5357650 134.7230680  99.7515270  64.8576620
 134.3385470  99.1108940  65.4559580 135.0342870 100.4551390  65.4271350
 140.8727820  96.5991810  60.3385240 141.2397950  96.1250380  61.0846580
 140.6832880  97.4733380  60.6793580 133.7368310  91.3435500  56.4678710
 133.4515230  90.9791170  57.3057330 133.6747170  90.6115960  55.8541850
 138.6627190  95.6400450  62.6569450 138.3584260  96.5192430  62.8819810
 139.6173650  95.7000240  62.6926890 137.1908980  99.8461440  53.2536300
 136.4171240  99.3059060  53.0935020 137.9203610  99.3268050  52.9154060
 147.9496960  98.8426800  59.0462690 148.6696080  99.3382090  58.6558800
 147.7478780  98.1644690  58.4016560 143.4106900  90.2364760  53.1892080
 142.5971510  89.7377930  53.1137390 143.2168850  91.0763010  52.7728430
 143.3315760  98.9135860  64.9331690 143.2653070  97.9931530  64.6789280
 142.7020900  99.0111300  65.6476330 146.1255290  94.6084410  51.4854240
 147.0134910  94.9201640  51.3105580 146.0960380  93.7356660  51.0934820
 137.2346380  99.5141820  56.8915110 137.7525050  98.7110080  56.8372000
 136.7830400  99.4520960  57.7331940 142.1215880 100.7808100  52.1642410
 142.4631580 101.5250330  51.6685730 141.2928590 101.0939220  52.5267240
 134.7190920  96.4803190  63.8040810 134.3605860  97.1457040  64.3914150
 134.4245480  95.6486740  64.1753430 137.9204040  96.9387430  66.6880360
 137.6204180  97.0844610  65.7908180 138.6915280  96.3792720  66.5953750
 143.2632490 101.7356430  64.6835490 143.2777030 100.8037390  64.4654400
 142.5557590 101.8216190  65.3225260 148.3969560  95.9196250  50.9534100
 148.3133280  96.3510470  50.1030540 149.1163750  96.3794600  51.3860920
 149.4743700  98.3763770  64.0304070 148.7491890  98.9692550  63.8333460
 150.0019160  98.3687310  63.2317440 149.4256810 102.7738510  53.6816230
 148.7832970 102.1194130  53.9559950 149.0387470 103.1793600  52.9056900
 145.0043290 100.1023940  57.5287920 145.3567110  99.5052070  56.8689290
 144.1205620  99.7768170  57.6996170 141.0906570 100.8621630  54.9358330
 141.7777700 101.4090840  55.3165920 140.3038990 101.4062360  54.9707940
 133.2298970  96.4794450  50.4275410 134.0993820  96.7619250  50.7111330
 132.7389290  97.2930320  50.3124220 140.3933780  97.8667660  54.5483690
 140.8496560  98.6772910  54.7743880 140.0421990  97.5490800  55.3802180
 142.6966390 103.3774000  61.7775990 143.3408610 103.5833380  62.4549410
 143.0595830 102.6162400  61.3246840 136.2945560  88.2105310  55.0206210
 136.1660190  88.2023210  55.9691130 135.4707580  88.5488400  54.6697220
 143.9698470 101.3806350  60.4953440 144.6120700 100.6799510  60.6085610
 144.4947820 102.1604790  60.3150330 147.8154190 101.6654970  50.2192580
 147.5891770 100.9485410  50.8117220 147.4250390 101.4167410  49.3814330
 145.7436090 102.1801250  63.6989500 146.0792330 102.7667940  64.3767420
 144.8236430 102.0493960  63.9287290 133.5970220 105.6921830  50.9937040
 133.9567860 106.2911170  50.3394310 133.4562560 106.2381720  51.7672070
 147.3970440  99.5826910  51.8806740 147.1092140 100.0439600  52.6684620
 148.1922610  99.1224680  52.1490960 133.5812080 103.9576690  65.4679440
 133.6903200 103.0171430  65.3274830 132.9292640 104.2231440  64.8193170
 141.5724670 102.2292580  66.8677560 141.2521540 101.5101820  67.4123250
 140.8983030 102.9047650  66.9413620 139.6138840 103.0753030  51.8110710
 139.6048940 103.8082720  51.1955220 138.6937200 102.8284610  51.9037670
 135.2145480  98.2967920  52.5557470 134.6073430  99.0366820  52.5652770
 135.6894830  98.3867280  51.7295670 144.7878270  92.4618740  62.2314360
 145.1559090  91.6413950  62.5593930 143.9276470  92.5220630  62.6470010
 148.1540300  91.4175680  53.0401920 147.5253460  91.5221350  52.3260150
 147.6592220  91.6372460  53.8295800 142.5998440 103.1381270  50.4735900
 142.7010420 102.9345260  49.5437880 141.7000180 102.8839550  50.6783680
 140.1224330  93.6961630  54.4559800 139.4140480  94.1647970  54.8973410
 140.4068810  93.0383640  55.0904990 141.7480260  95.1158330  62.4552330
 142.2465510  95.5904150  63.1204180 141.8903210  94.1921850  62.6622360
 144.1539760  90.4212290  55.8955590 144.0307540  90.4398420  54.9465100
 145.1024320  90.4691230  56.0153990 141.2416550 105.6567590  55.1683570
 141.4958050 105.6188980  54.2462940 140.2929030 105.5300920  55.1611820
 138.3259350  92.0046710  51.8310510 139.1749880  92.4416860  51.7650700
 137.9590620  92.3166970  52.6582570 148.9547120  91.3326290  63.2980720
 148.4520720  92.0731690  63.6374530 149.7703780  91.7210290  62.9817510
 147.2469130  96.5759470  56.7442080 146.3059270  96.5909700  56.9189770
 147.5613200  95.7895430  57.1902380 137.2250770  98.2579070  50.3046040
 137.9914040  98.1460430  50.8671470 137.3025460  97.5617040  49.6522810
 135.9197530  95.6904140  50.9878930 136.0001120  94.7431650  51.0996330
 136.8117280  96.0211020  51.0939590 149.2494710 103.7468320  58.4196340
 149.3742130 104.5699490  58.8920150 150.1160270 103.5359050  58.0720490
 136.7212240 105.8399530  58.0913470 137.4574720 105.2914990  58.3622040
 137.1053160 106.7055540  57.9519460 133.6057720 101.9073100  53.9654980
 132.6797500 102.1494240  53.9560390 134.0714150 102.7347360  53.8439730
 135.7270520 105.0245600  67.2799050 136.5283250 105.3457650  67.6934450
 135.2122340 104.6641180  68.0018960 139.8314550 105.0129840  49.9139040
 140.6243160 105.3018670  49.4620830 139.3118900 104.5822010  49.2351520
 144.5635150 101.1325470  67.2274460 143.9573310 101.1557070  66.4870210
 144.2589260 100.4008510  67.7641710 145.9935520 104.8605760  65.8383870
 146.9457270 104.7763780  65.7884110 145.8463740 105.5247470  66.5117660
 148.8844720 104.2399970  51.3375780 148.5986230 103.8265110  50.5229960
 148.6864270 105.1687680  51.2176300 133.4468330  97.5119060  66.2235100
 133.9507350  96.9326340  66.7951330 132.7075750  97.7959290  66.7611470
 140.3491950 100.2333250  49.7781390 140.2442590  99.6185600  50.5042770
 140.1816170  99.7099140  48.9944400 140.5006270  98.9190050  65.7570620
 139.7351940  99.4875050  65.6725290 140.6822230  98.6266260  64.8638850
 143.5894680  99.2953280  50.3823380 143.0404780  99.7422580  51.0266120
 144.2113940  98.7902530  50.9061050 147.6429620 100.6495380  66.3145640
 148.3839090 100.9871140  65.8113100 146.8802300 100.8187440  65.7615410
 135.4791410  95.6548650  67.1185170 135.5196750  95.3562520  68.0270400
 136.3336910  96.0556260  66.9592690 139.2569800  98.2544200  52.2788680
 139.6786220  98.0884070  53.1220070 139.3820640  97.4444430  51.7843820
 137.4197220  94.2340750  65.0859660 136.8893680  93.7431700  64.4583000
 138.0885290  94.6624950  64.5517590 141.7697440  97.2781810  49.5265780
 142.2903100  96.5630830  49.1606930 142.4165840  97.9167680  49.8266290
 146.3175280  98.7010210  64.8500850 146.7316300  98.8555290  65.6991270
 145.3826280  98.8265430  65.0126630 146.7897450  96.0406370  66.8540000
 147.3718220  95.2858690  66.7660480 146.9659220  96.5713810  66.0771480
 140.6730960  89.7576360  62.1984340 140.2248260  89.7800620  61.3529890
 140.0396160  89.3595380  62.7954640 141.0790510  98.6530690  62.8196780
 141.4978620  99.4963420  62.6473020 140.1599140  98.7902730  62.5903560
 143.4154410  96.3846870  64.2034620 143.5350620  95.7888010  64.9429460
 144.2748410  96.4216560  63.7835920 145.7542310  96.9384060  62.7797130
 145.2277530  97.4626680  62.1762270 146.0973650  97.5711450  63.4106860
 138.1528700  94.3277430  49.2246840 137.9517760  93.4644790  49.5860180
 137.9820750  94.2410790  48.2868440 138.9297930 104.9583700  63.9354510
 138.3919020 105.6829760  63.6163210 139.1831890 104.4814040  63.1451850
 140.1823180  92.9268220  65.4610440 140.7722870  92.6184070  66.1488260
 139.3643420  92.4547970  65.6170340 145.0016610  92.5434030  65.6943460
 144.3132130  91.8815570  65.6293450 145.7222630  92.0972300  66.1391920
 145.6317010  89.1385660  51.7533720 145.9119300  88.2953560  52.1093140
 144.8582740  89.3708770  52.2672470 136.9511500  91.4278050  49.2124720
 137.2537400  91.4345480  48.3043870 137.6906090  91.0775910  49.7092380
 141.7860140 106.1934910  64.1941160 141.7118840 107.0970050  64.5013530
 140.8838980 105.8746810  64.1663230 140.1696430  90.3712670  50.1980920
 139.8218430  89.6936660  49.6183370 140.3709200  89.9102180  51.0124310
 142.3345470 105.3593420  51.8167520 143.2296260 105.6978390  51.8386280
 142.3663100 104.6372830  51.1891800 135.9741630 100.7320470  50.0454520
 136.4116500 101.2750140  50.7012100 136.4589360  99.9067420  50.0550860
 133.1887430 103.5209500  57.4974780 133.5190440 102.6530560  57.2653420
 133.6178430 103.7268020  58.3279740 137.7849350 101.8518510  55.1576750
 137.4844890 101.7283480  56.0580660 137.6786840 100.9927100  54.7492480
 133.6777640 104.3880090  60.2356410 133.2408630 104.5680890  61.0680560
 134.2455320 105.1454710  60.0938130 149.3139820 103.8897090  64.5233720
 148.7141810 103.9489650  63.7797640 149.4433720 102.9502070  64.6530570
 147.9991460 100.6149070  62.6209880 147.1851300 101.0446230  62.8835670
 148.4065660 101.2267480  62.0078930 150.0616900  98.6696760  49.5210150
 150.3365740  99.5775640  49.3929370 149.8727640  98.6059290  50.4572140
 146.4592510  91.6941610  50.8163780 146.8777390  91.5072590  49.9760440
 146.1528570  90.8420660  51.1266710 149.9582240  96.6065750  54.5139580
 149.5825840  95.8393680  54.0820870 149.2285360  96.9888450  55.0014510
 134.5478000  97.2852890  61.1348630 134.9151040  97.1980290  62.0144650
 133.9788820  96.5219440  61.0355490 149.3481860  95.7537270  64.1479100
 149.1167950  95.5250020  63.2477050 149.6086410  96.6736820  64.1023990
 134.0994000  94.1961980  65.0407050 133.2050050  94.1628740  65.3800760
 134.6391550  94.3948770  65.8058300 147.7869930  90.9793700  66.9258800
 148.6640110  90.9877100  67.3092800 147.7990770  90.2424540  66.3151150
 132.7240150  94.1099250  52.5370620 131.8204230  94.3729450  52.3622280
 133.2080770  94.3810420  51.7570580 149.2333200  94.8323240  57.8146820
 149.7570680  94.3385890  57.1836990 149.8192620  94.9673600  58.5594390
 149.4122920  94.9163110  61.3366370 148.4625630  94.8826650  61.4511360
 149.5935930  95.8263220  61.1016140 135.2667360  93.1664790  50.4465000
 135.9759060  92.7448010  49.9612280 134.5507300  93.2340020  49.8148350
 134.9141520  89.2204120  49.4867650 135.6369650  89.7613060  49.8048870
 135.1866040  88.9467540  48.6109190 148.7233170  94.0896590  53.7539230
 149.2192290  93.8567460  54.5388110 148.5249240  93.2508430  53.3376870
 134.6033710  88.4710310  59.3890270 135.2509900  87.9207690  58.9485430
 135.0235550  88.7253460  60.2106080 148.4986050  88.6651670  62.7459910
 149.1358270  89.2785810  63.1119100 148.6460940  88.7012330  61.8009140
 148.0567510 105.3667670  56.1478150 148.6526580 105.0452240  55.4712570
 148.3145660 104.8939490  56.9391420 135.9630080 101.7985580  66.2968780
 135.9199710 101.4278490  67.1783240 136.0941090 102.7363150  66.4370600
 139.6636110 103.3545170  61.8978500 139.4227470 103.6219730  61.0109020
 140.6038750 103.5250900  61.9529360 141.8690530  89.8177860  65.6535010
 141.8079420  90.4099690  66.4030420 142.8090910  89.7103820  65.5085270
 144.5065090  89.4747920  65.2927300 145.1205500  89.7927210  64.6308380
 145.0514650  88.9896510  65.9123160 135.8018110 104.7447830  63.4166560
 135.2078430 104.6132530  64.1556600 135.7941950 103.9085970  62.9508660
 145.2473130  88.0380060  61.6196590 144.3732970  88.3715170  61.4169520
 145.1383880  87.5653240  62.4448460 146.1545110  90.2450930  63.0038310
 145.8258470  89.4302690  62.6240040 147.1027410  90.2020740  62.8804000
 148.6079720 106.0162970  59.9775880 148.1482690 106.7678780  59.6033900
 147.9792180 105.2969440  59.9190680 135.4330340 102.1106210  62.3674600
 134.7064400 101.4911500  62.3000550 135.4939490 102.5046820  61.4972680
 139.0375440 104.3251210  59.1524010 139.5540460 103.7138570  58.6272270
 139.6872820 104.8279990  59.6435020 141.7770940 105.2159700  59.9792990
 142.0648750 104.9614000  59.1026000 142.2894160 104.6637060  60.5698560
 142.9947950  88.9549900  60.5589500 142.2119740  89.4295400  60.8386260
 142.7010880  88.0504730  60.4502680 147.5469020  89.6573000  58.6038590
 147.9877110  89.6018100  57.7560190 147.2776610  90.5731010  58.6748770
 149.4107590  89.2888240  56.6147410 149.3495990  88.3449460  56.4678430
 150.1899620  89.3968330  57.1600870 133.7160340 105.4280600  55.5771360
 133.5482380 104.7951280  56.2753250 132.8494850 105.6340000  55.2265550
 134.3388360  89.2597380  53.0803220 135.0967720  89.3726260  52.5067250
 133.8765530  90.0966580  53.0346650 140.8802170  91.3736650  56.0705530
 140.0676680  90.9993540  55.7301410 141.3843810  90.6181730  56.3726720
 145.3827150  88.0379100  57.3088600 145.9856520  88.6099310  57.7837120
 144.6420140  88.6018540  57.0862500 148.5261750  88.4400660  52.5828880
 148.7212380  89.3384110  52.8496310 147.7391620  88.2087740  53.0761830
 135.3223040 104.1213830  53.0221500 134.7970660 104.5021860  52.3183460
 135.2467620 104.7464600  53.7431210 136.7113510  89.7861430  51.6205190
 137.2406270  88.9991230  51.4913140 137.3441830  90.4652620  51.8540720
 138.9051350  89.5236570  54.6750580 138.2754090  88.8223880  54.8420710
 138.3656490  90.2840700  54.4583740 141.8443300 106.1375800  67.3461190
 142.7710610 105.9020070  67.3897150 141.8293730 106.9647800  66.8647220
 150.0788360 105.6801370  54.3435440 150.2540550 104.9939110  53.6996360
 149.3809930 106.2048420  53.9512110 139.0306910  88.8020550  67.1103070
 138.7491180  89.3054150  66.3463890 139.4126610  88.0042300  66.7445200
 137.9216010 106.0696210  51.8970750 138.6534830 105.7855490  51.3494640
 138.1809680 105.8309490  52.7870130 137.0830800 102.1860940  51.9017080
 136.4539680 102.6546040  52.4502910 137.1978630 101.3410160  52.3363270
 145.6322370  88.2174130  67.6883540 145.5187820  88.5368740  68.5835060
 146.4492110  88.6186640  67.3920820 148.4120860 105.3645660  67.1702230
 149.2046180 104.8694890  66.9628190 148.7054010 106.0435800  67.7777840
 144.5380520  96.2366600  38.0518280 144.4574570  95.3221210  37.7809990
 144.1244940  96.7333670  37.3457990 142.6698560  98.0145620  39.9327550
 141.8940660  97.5346060  40.2226120 143.3211490  97.3351270  39.7583710
 136.6864390  98.3265430  40.8103310 135.8549270  98.0714140  41.2099820
 137.2945370  98.3976200  41.5461230 146.6905990 102.4205810  38.7126680
 146.2287520 101.6493050  39.0413850 147.5031540 102.4471880  39.2179130
 136.6665650 102.3605520  41.0061330 136.9693690 101.4703260  40.8271550
 137.4109240 102.9175740  40.7783580 135.0956340  93.2867320  34.5945700
 134.2073040  93.6283290  34.4925580 135.3797530  93.0867640  33.7026530
 133.0589350  95.8872970  40.4785400 133.6305460  95.1195170  40.4789040
 133.0590890  96.1861730  39.5692010 142.9169300 104.7063820  38.3330670
 142.2980740 105.1621320  37.7625110 143.7721080 104.8615280  37.9320370
 142.1107550 100.6902810  39.9397710 142.0415830  99.7492750  39.7786840
 142.8727410 100.7804220  40.5120280 134.3014220  91.2957330  42.2654330
 134.1217060  90.3983080  42.5457090 133.8994300  91.8429200  42.9401280
 143.1412720  93.4973190  40.1666640 143.5177540  92.6245070  40.0540310
 143.0432230  93.8331890  39.2757080 137.2717730  91.8698820  35.6284080
 137.3784480  92.7702550  35.9352840 136.3610090  91.8216790  35.3378730
 146.9236840  90.9923630  37.0994980 147.7446460  90.5020200  37.1420460
 146.9570920  91.5821290  37.8526820 134.9200890  93.7917830  40.8736670
 135.6011000  94.0556200  41.4924070 134.6048940  92.9518700  41.2074680
 139.1125460  94.8385190  39.9609260 139.6203680  95.3366160  40.6014280
 139.6438700  94.0620390  39.7848620 137.3961560  89.4783750  44.2272680
 137.3980000  89.9956140  43.4218580 136.5665870  89.0013930  44.2042610
 143.7832650  99.5903060  35.7262580 143.1649920 100.0552510  35.1625300
 144.2955900 100.2830540  36.1432090 138.6464410  99.1178930  42.4046180
 138.3133790  99.7447850  43.0467250 138.8231090  99.6440810  41.6247850
 147.1598320  92.9324010  39.8722520 146.4553890  93.2208900  40.4525630
 147.5210480  93.7424120  39.5122080 137.0776890  91.1893710  42.2343130
 137.4193700  92.0335760  41.9397000 136.1392700  91.3377450  42.3508470
 137.8583510 101.0859730  44.2195360 138.4757510 101.7610810  43.9379810
 136.9976630 101.4947710  44.1282860 133.1515850 100.2759590  33.1002210
 132.7743830 100.7646690  32.3687110 133.4088920 100.9484870  33.7308740
 148.7761100 102.5499140  42.1350000 148.0924620 103.2198250  42.1266670
 149.3155390 102.7479790  41.3694860 140.7604780  88.6775980  38.5587720
 141.0679760  88.1222870  37.8423220 139.8305480  88.8120440  38.3760710
 146.3119840 104.3943270  40.8495180 146.3247000 103.9905560  39.9817440
 145.7595060 105.1690560  40.7456610 147.6065260 101.1159490  35.9385350
 147.4961590 100.1733820  36.0634770 147.6033510 101.4775130  36.8248110
 145.7105280  99.2973110  42.1777790 146.1274070  99.0833220  41.3431250
 146.4345100  99.5545900  42.7486410 143.1485540  96.7424810  35.2947840
 142.2214820  96.6762190  35.5236310 143.3010360  97.6804940  35.1803080
 143.1354620  93.0141810  32.2915000 142.1958290  93.1755770  32.3767460
 143.4537880  93.7327490  31.7450990 149.6567380  97.6960330  42.2694030
 148.8286010  97.7653420  41.7944160 150.2517860  98.2814640  41.8009860
 147.1782830  98.3045110  35.7983090 146.5595250  97.9664660  35.1509390
 147.1607280  97.6604870  36.5062280 146.6209390  94.4829650  43.2148900
 146.2080570  95.3083360  43.4688890 145.8885340  93.8974690  43.0225260
 138.7542180  97.2689550  38.0767570 138.3499180  96.5566800  37.5813470
 138.8405300  96.9242790  38.9655610 139.2223880 100.9557110  40.2406780
 138.9252170 100.3502580  39.5614560 140.1723700 100.9934420  40.1296140
 137.4670800  94.0432760  41.8566610 138.0185390  94.1528100  41.0819860
 137.9814310  94.4170360  42.5721840 147.3109490 104.5288980  43.9029880
 146.8340050 105.3361170  43.7102490 146.6271280 103.8767310  44.0556090
 138.3142310 100.6938800  46.8914580 137.4170840 100.9178770  47.1387980
 138.3395180 100.8173740  45.9425980 145.3547530  97.5431920  32.8055840
 145.7940810  96.7054350  32.6593660 146.0675950  98.1761320  32.8919980
 137.1413530  97.5652120  45.4671950 137.0021300  98.4374920  45.8359350
 136.2594890  97.2224930  45.3219890 143.4642910 102.4827990  36.7737080
 143.9038820 103.2252320  36.3592470 143.4029800 102.7254560  37.6976040
 138.9393880 103.5073820  47.6757100 138.9109310 103.9116770  46.8085530
 138.7758850 102.5784180  47.5128700 148.9364670  88.7974730  31.1196880
 148.6237330  88.8901560  32.0195950 149.6977140  89.3755760  31.0694310
 135.4546810  96.1634530  35.5774220 135.3344410  96.8896620  34.9655490
 135.1447700  95.3937440  35.1002130 133.0932180  99.3349670  41.3842860
 133.1712600  99.4698440  40.4398580 133.7073860  98.6265560  41.5770980
 134.3379810 101.0349860  37.7949040 133.9307890 101.1764450  36.9402640
 135.2292820 100.7510020  37.5920250 150.2941950 101.4813770  46.1321280
 150.4205010 101.2425650  45.2138460 150.3363330 100.6498310  46.6043360
 144.1558690 105.1841770  44.7016090 144.6703360 105.0949780  45.5038520
 143.3127770 105.5301470  44.9944000 146.1313090 105.4697110  34.1300090
 145.9714230 105.1800050  35.0281920 145.9659800 104.6937240  33.5945320
 138.6101470 105.2495640  35.9071710 138.4343950 104.3331180  35.6939510
 137.7557210 105.6082930  36.1469510 145.8339220 102.9784670  32.6898090
 145.1404380 102.9761960  32.0300370 146.5762080 102.5543990  32.2592260
 145.3989150 104.6047380  36.7646580 145.8546100 103.8236760  37.0785200
 145.7381670 105.3154200  37.3087760 150.1465960  93.5346230  47.0971020
 149.5310230  94.0425900  46.5686480 149.8262380  92.6344560  47.0396960
 133.1491700 100.3763840  43.9237320 133.3122740  99.9069200  43.1056690
 133.6144150  99.8687400  44.5886160 137.9210470  89.5069600  38.9597890
 137.4778620  90.2879140  38.6282410 138.4795460  89.8299490  39.6668830
 142.2080280  92.3738120  44.5633210 141.7459650  92.5821140  45.3753150
 141.8058390  91.5597470  44.2603880 147.2084790  93.5947070  45.6929870
 146.3578380  93.2952820  46.0138940 147.0486580  93.8389080  44.7813690
 144.3034500  95.0948820  47.7928660 144.6287910  94.2612570  47.4530890
 145.0914830  95.6177340  47.9406990 141.0369290  89.1280300  33.8403720
 140.4123470  89.1240170  34.5657030 140.9499410  88.2611260  33.4439690
 139.9586370  90.0516930  40.8187490 140.2558700  90.9579760  40.7379510
 140.5071930  89.5635710  40.2047060 137.7124690  94.6303170  36.6879140
 137.4865610  94.4140340  37.5925760 136.9317220  95.0631630  36.3425110
 144.9422450  94.6366540  35.2869790 144.3431340  95.3602340  35.1033410
 145.4902060  94.5743320  34.5046240 140.1523900  95.5288750  47.3539410
 140.0567500  94.5883480  47.2039810 140.9955880  95.7503820  46.9587480
 143.5487320  93.2730080  37.3173070 143.9416890  93.5902280  36.5041760
 143.9104170  92.3941960  37.4317590 135.2834440  91.9402420  45.5073190
 134.8897830  92.7877630  45.7145970 134.5952840  91.3028790  45.6981830
 141.8579490  92.0237390  48.5769930 141.1677810  91.8309590  49.2116020
 142.6011790  92.3072030  49.1094230 132.5851490  89.8630880  39.5403270
 132.2964540  90.4333740  40.2528250 133.3297250  89.3835330  39.9034500
 132.7721720  93.8051000  30.7505990 132.6896390  94.7481760  30.8920980
 132.4204780  93.6625910  29.8718340 144.1342460  95.8635830  41.4123850
 143.4023580  96.3722640  41.7613950 143.7366800  95.0465810  41.1112630
 140.5719850  92.5390030  39.8176340 140.5755910  92.0979980  38.9680880
 141.4670970  92.8607360  39.9248160 136.4222230  92.4216520  38.7770550
 136.0822280  92.8991750  39.5337600 135.6599550  91.9681640  38.4171650
 140.6340000  93.5402110  32.8083100 140.7552820  93.4988590  33.7568920
 140.2488510  94.4026260  32.6529830 144.5968370  91.3169510  40.8246790
 144.6141110  91.7678160  41.6688640 144.3483950  90.4175150  41.0380230
 139.6461500  95.8503250  32.2066400 139.0778400  95.4021500  31.5802310
 140.3550500  96.2096030  31.6731550 148.0239120  88.7301690  46.6633170
 148.3484890  87.9991350  47.1891150 148.0595630  88.4115330  45.7614160
 134.7230680  99.7515270  46.0833130 134.3385470  99.1108940  46.6816090
 135.0342870 100.4551390  46.6527860 140.8727820  96.5991810  41.5641750
 141.2397950  96.1250380  42.3103090 140.6832880  97.4733380  41.9050090
 133.7368310  91.3435500  37.6935220 133.4515230  90.9791170  38.5313840
 133.6747170  90.6115960  37.0798360 138.6627190  95.6400450  43.8825960
 138.3584260  96.5192430  44.1076320 139.6173650  95.7000240  43.9183400
 137.1908980  99.8461440  34.4792810 136.4171240  99.3059060  34.3191530
 137.9203610  99.3268050  34.1410570 147.9496960  98.8426800  40.2719200
 148.6696080  99.3382090  39.8815310 147.7478780  98.1644690  39.6273070
 143.4106900  90.2364760  34.4148590 142.5971510  89.7377930  34.3393900
 143.2168850  91.0763010  33.9984940 143.3315760  98.9135860  46.1588200
 143.2653070  97.9931530  45.9045790 142.7020900  99.0111300  46.8732840
 146.1255290  94.6084410  32.7110750 147.0134910  94.9201640  32.5362090
 146.0960380  93.7356660  32.3191330 137.2346380  99.5141820  38.1171620
 137.7525050  98.7110080  38.0628510 136.7830400  99.4520960  38.9588450
 142.1215880 100.7808100  33.3898920 142.4631580 101.5250330  32.8942240
 141.2928590 101.0939220  33.7523750 134.7190920  96.4803190  45.0297320
 134.3605860  97.1457040  45.6170660 134.4245480  95.6486740  45.4009940
 137.9204040  96.9387430  47.9136870 137.6204180  97.0844610  47.0164690
 138.6915280  96.3792720  47.8210260 143.2632490 101.7356430  45.9092000
 143.2777030 100.8037390  45.6910910 142.5557590 101.8216190  46.5481770
 148.3969560  95.9196250  32.1790610 148.3133280  96.3510470  31.3287050
 149.1163750  96.3794600  32.6117430 149.4743700  98.3763770  45.2560580
 148.7491890  98.9692550  45.0589970 150.0019160  98.3687310  44.4573950
 149.4256810 102.7738510  34.9072740 148.7832970 102.1194130  35.1816460
 149.0387470 103.1793600  34.1313410 145.0043290 100.1023940  38.7544430
 145.3567110  99.5052070  38.0945800 144.1205620  99.7768170  38.9252680
 141.0906570 100.8621630  36.1614840 141.7777700 101.4090840  36.5422430
 140.3038990 101.4062360  36.1964450 133.2298970  96.4794450  31.6531920
 134.0993820  96.7619250  31.9367840 132.7389290  97.2930320  31.5380730
 140.3933780  97.8667660  35.7740200 140.8496560  98.6772910  36.0000390
 140.0421990  97.5490800  36.6058690 142.6966390 103.3774000  43.0032500
 143.3408610 103.5833380  43.6805920 143.0595830 102.6162400  42.5503350
 136.2945560  88.2105310  36.2462720 136.1660190  88.2023210  37.1947640
 135.4707580  88.5488400  35.8953730 143.9698470 101.3806350  41.7209950
 144.6120700 100.6799510  41.8342120 144.4947820 102.1604790  41.5406840
 147.8154190 101.6654970  31.4449090 147.5891770 100.9485410  32.0373730
 147.4250390 101.4167410  30.6070840 145.7436090 102.1801250  44.9246010
 146.0792330 102.7667940  45.6023930 144.8236430 102.0493960  45.1543800
 133.5970220 105.6921830  32.2193550 133.9567860 106.2911170  31.5650820
 133.4562560 106.2381720  32.9928580 133.2939490  89.9696430  45.7069420
 132.5798010  90.1693350  46.3122030 133.7134530  89.1936000  46.0784220
 147.3970440  99.5826910  33.1063250 147.1092140 100.0439600  33.8941130
 148.1922610  99.1224680  33.3747470 133.5812080 103.9576690  46.6935950
 133.6903200 103.0171430  46.5531340 132.9292640 104.2231440  46.0449680
 141.5724670 102.2292580  48.0934070 141.2521540 101.5101820  48.6379760
 140.8983030 102.9047650  48.1670130 139.6138840 103.0753030  33.0367220
 139.6048940 103.8082720  32.4211730 138.6937200 102.8284610  33.1294180
 135.2145480  98.2967920  33.7813980 134.6073430  99.0366820  33.7909280
 135.6894830  98.3867280  32.9552180 144.7878270  92.4618740  43.4570870
 145.1559090  91.6413950  43.7850440 143.9276470  92.5220630  43.8726520
 148.1540300  91.4175680  34.2658430 147.5253460  91.5221350  33.5516660
 147.6592220  91.6372460  35.0552310 142.5998440 103.1381270  31.6992410
 142.7010420 102.9345260  30.7694390 141.7000180 102.8839550  31.9040190
 140.1224330  93.6961630  35.6816310 139.4140480  94.1647970  36.1229920
 140.4068810  93.0383640  36.3161500 141.7480260  95.1158330  43.6808840
 142.2465510  95.5904150  44.3460690 141.8903210  94.1921850  43.8878870
 144.1539760  90.4212290  37.1212100 144.0307540  90.4398420  36.1721610
 145.1024320  90.4691230  37.2410500 141.2416550 105.6567590  36.3940080
 141.4958050 105.6188980  35.4719450 140.2929030 105.5300920  36.3868330
 138.3259350  92.0046710  33.0567020 139.1749880  92.4416860  32.9907210
 137.9590620  92.3166970  33.8839080 148.9547120  91.3326290  44.5237230
 148.4520720  92.0731690  44.8631040 149.7703780  91.7210290  44.2074020
 147.2469130  96.5759470  37.9698590 146.3059270  96.5909700  38.1446280
 147.5613200  95.7895430  38.4158890 137.2250770  98.2579070  31.5302550
 137.9914040  98.1460430  32.0927980 137.3025460  97.5617040  30.8779320
 135.9197530  95.6904140  32.2135440 136.0001120  94.7431650  32.3252840
 136.8117280  96.0211020  32.3196100 149.2494710 103.7468320  39.6452850
 149.3742130 104.5699490  40.1176660 150.1160270 103.5359050  39.2977000
 136.7212240 105.8399530  39.3169980 137.4574720 105.2914990  39.5878550
 137.1053160 106.7055540  39.1775970 133.6057720 101.9073100  35.1911490
 132.6797500 102.1494240  35.1816900 134.0714150 102.7347360  35.0696240
 135.7270520 105.0245600  48.5055560 136.5283250 105.3457650  48.9190960
 135.2122340 104.6641180  49.2275470 139.8314550 105.0129840  31.1395550
 140.6243160 105.3018670  30.6877340 139.3118900 104.5822010  30.4608030
 144.5635150 101.1325470  48.4530970 143.9573310 101.1557070  47.7126720
 144.2589260 100.4008510  48.9898220 145.9935520 104.8605760  47.0640380
 146.9457270 104.7763780  47.0140620 145.8463740 105.5247470  47.7374170
 148.8844720 104.2399970  32.5632290 148.5986230 103.8265110  31.7486470
 148.6864270 105.1687680  32.4432810 133.4468330  97.5119060  47.4491610
 133.9507350  96.9326340  48.0207840 132.7075750  97.7959290  47.9867980
 140.3491950 100.2333250  31.0037900 140.2442590  99.6185600  31.7299280
 140.1816170  99.7099140  30.2200910 140.5006270  98.9190050  46.9827130
 139.7351940  99.4875050  46.8981800 140.6822230  98.6266260  46.0895360
 143.5894680  99.2953280  31.6079890 143.0404780  99.7422580  32.2522630
 144.2113940  98.7902530  32.1317560 147.6429620 100.6495380  47.5402150
 148.3839090 100.9871140  47.0369610 146.8802300 100.8187440  46.9871920
 135.4791410  95.6548650  48.3441680 135.5196750  95.3562520  49.2526910
 136.3336910  96.0556260  48.1849200 139.2569800  98.2544200  33.5045190
 139.6786220  98.0884070  34.3476580 139.3820640  97.4444430  33.0100330
 137.4197220  94.2340750  46.3116170 136.8893680  93.7431700  45.6839510
 138.0885290  94.6624950  45.7774100 141.7697440  97.2781810  30.7522290
 142.2903100  96.5630830  30.3863440 142.4165840  97.9167680  31.0522800
 146.3175280  98.7010210  46.0757360 146.7316300  98.8555290  46.9247780
 145.3826280  98.8265430  46.2383140 146.7897450  96.0406370  48.0796510
 147.3718220  95.2858690  47.9916990 146.9659220  96.5713810  47.3027990
 137.9069520  91.2003120  46.3913460 137.8126390  90.5823870  45.6664330
 137.3266910  91.9269410  46.1643370 140.6730960  89.7576360  43.4240850
 140.2248260  89.7800620  42.5786400 140.0396160  89.3595380  44.0211150
 141.0790510  98.6530690  44.0453290 141.4978620  99.4963420  43.8729530
 140.1599140  98.7902730  43.8160070 143.4154410  96.3846870  45.4291130
 143.5350620  95.7888010  46.1685970 144.2748410  96.4216560  45.0092430
 145.7542310  96.9384060  44.0053640 145.2277530  97.4626680  43.4018780
 146.0973650  97.5711450  44.6363370 138.1528700  94.3277430  30.4503350
 137.9517760  93.4644790  30.8116690 137.9820750  94.2410790  29.5124950
 138.9297930 104.9583700  45.1611020 138.3919020 105.6829760  44.8419720
 139.1831890 104.4814040  44.3708360 140.1823180  92.9268220  46.6866950
 140.7722870  92.6184070  47.3744770 139.3643420  92.4547970  46.8426850
 145.0016610  92.5434030  46.9199970 144.3132130  91.8815570  46.8549960
 145.7222630  92.0972300  47.3648430 145.6317010  89.1385660  32.9790230
 145.9119300  88.2953560  33.3349650 144.8582740  89.3708770  33.4928980
 136.9511500  91.4278050  30.4381230 137.2537400  91.4345480  29.5300380
 137.6906090  91.0775910  30.9348890 141.7860140 106.1934910  45.4197670
 141.7118840 107.0970050  45.7270040 140.8838980 105.8746810  45.3919740
 140.1696430  90.3712670  31.4237430 139.8218430  89.6936660  30.8439880
 140.3709200  89.9102180  32.2380820 142.3345470 105.3593420  33.0424030
 143.2296260 105.6978390  33.0642790 142.3663100 104.6372830  32.4148310
 135.9741630 100.7320470  31.2711030 136.4116500 101.2750140  31.9268610
 136.4589360  99.9067420  31.2807370 133.1887430 103.5209500  38.7231290
 133.5190440 102.6530560  38.4909930 133.6178430 103.7268020  39.5536250
 137.7849350 101.8518510  36.3833260 137.4844890 101.7283480  37.2837170
 137.6786840 100.9927100  35.9748990 133.6777640 104.3880090  41.4612920
 133.2408630 104.5680890  42.2937070 134.2455320 105.1454710  41.3194640
 149.3139820 103.8897090  45.7490230 148.7141810 103.9489650  45.0054150
 149.4433720 102.9502070  45.8787080 133.5102070  96.9000320  37.8201800
 132.8550910  96.6311960  37.1761500 134.3480020  96.7904800  37.3703780
 147.9991460 100.6149070  43.8466390 147.1851300 101.0446230  44.1092180
 148.4065660 101.2267480  43.2335440 150.0616900  98.6696760  30.7466660
 150.3365740  99.5775640  30.6185880 149.8727640  98.6059290  31.6828650
 146.4592510  91.6941610  32.0420290 146.8777390  91.5072590  31.2016950
 146.1528570  90.8420660  32.3523220 149.9582240  96.6065750  35.7396090
 149.5825840  95.8393680  35.3077380 149.2285360  96.9888450  36.2271020
 134.5478000  97.2852890  42.3605140 134.9151040  97.1980290  43.2401160
 133.9788820  96.5219440  42.2612000 149.3481860  95.7537270  45.3735610
 149.1167950  95.5250020  44.4733560 149.6086410  96.6736820  45.3280500
 134.0994000  94.1961980  46.2663560 133.2050050  94.1628740  46.6057270
 134.6391550  94.3948770  47.0314810 147.7869930  90.9793700  48.1515310
 148.6640110  90.9877100  48.5349310 147.7990770  90.2424540  47.5407660
 132.7240150  94.1099250  33.7627130 131.8204230  94.3729450  33.5878790
 133.2080770  94.3810420  32.9827090 149.2333200  94.8323240  39.0403330
 149.7570680  94.3385890  38.4093500 149.8192620  94.9673600  39.7850900
 149.4122920  94.9163110  42.5622880 148.4625630  94.8826650  42.6767870
 149.5935930  95.8263220  42.3272650 135.2667360  93.1664790  31.6721510
 135.9759060  92.7448010  31.1868790 134.5507300  93.2340020  31.0404860
 134.9141520  89.2204120  30.7124160 135.6369650  89.7613060  31.0305380
 135.1866040  88.9467540  29.8365700 148.7233170  94.0896590  34.9795740
 149.2192290  93.8567460  35.7644620 148.5249240  93.2508430  34.5633380
 134.6033710  88.4710310  40.6146780 135.2509900  87.9207690  40.1741940
 135.0235550  88.7253460  41.4362590 148.4986050  88.6651670  43.9716420
 149.1358270  89.2785810  44.3375610 148.6460940  88.7012330  43.0265650
 148.0567510 105.3667670  37.3734660 148.6526580 105.0452240  36.6969080
 148.3145660 104.8939490  38.1647930 134.3565710  88.6265980  43.3572100
 134.0080530  89.0829800  44.1230280 134.0253410  87.7323110  43.4394530
 135.9630080 101.7985580  47.5225290 135.9199710 101.4278490  48.4039750
 136.0941090 102.7363150  47.6627110 139.6636110 103.3545170  43.1235010
 139.4227470 103.6219730  42.2365530 140.6038750 103.5250900  43.1785870
 141.8690530  89.8177860  46.8791520 141.8079420  90.4099690  47.6286930
 142.8090910  89.7103820  46.7341780 144.5065090  89.4747920  46.5183810
 145.1205500  89.7927210  45.8564890 145.0514650  88.9896510  47.1379670
 135.0286350  88.1542180  46.6322870 135.5769340  87.9730230  45.8688980
 135.0941660  87.3636290  47.1679180 135.8018110 104.7447830  44.6423070
 135.2078430 104.6132530  45.3813110 135.7941950 103.9085970  44.1765170
 145.2473130  88.0380060  42.8453100 144.3732970  88.3715170  42.6426030
 145.1383880  87.5653240  43.6704970 146.1545110  90.2450930  44.2294820
 145.8258470  89.4302690  43.8496550 147.1027410  90.2020740  44.1060510
 148.6079720 106.0162970  41.2032390 148.1482690 106.7678780  40.8290410
 147.9792180 105.2969440  41.1447190 135.4330340 102.1106210  43.5931110
 134.7064400 101.4911500  43.5257060 135.4939490 102.5046820  42.7229190
 139.0375440 104.3251210  40.3780520 139.5540460 103.7138570  39.8528780
 139.6872820 104.8279990  40.8691530 141.7770940 105.2159700  41.2049500
 142.0648750 104.9614000  40.3282510 142.2894160 104.6637060  41.7955070
 142.9947950  88.9549900  41.7846010 142.2119740  89.4295400  42.0642770
 142.7010880  88.0504730  41.6759190 147.5469020  89.6573000  39.8295100
 147.9877110  89.6018100  38.9816700 147.2776610  90.5731010  39.9005280
 149.4107590  89.2888240  37.8403920 149.3495990  88.3449460  37.6934940
 150.1899620  89.3968330  38.3857380 133.7160340 105.4280600  36.8027870
 133.5482380 104.7951280  37.5009760 132.8494850 105.6340000  36.4522060
 134.3388360  89.2597380  34.3059730 135.0967720  89.3726260  33.7323760
 133.8765530  90.0966580  34.2603160 140.8802170  91.3736650  37.2962040
 140.0676680  90.9993540  36.9557920 141.3843810  90.6181730  37.5983230
 145.3827150  88.0379100  38.5345110 145.9856520  88.6099310  39.0093630
 144.6420140  88.6018540  38.3119010 148.5261750  88.4400660  33.8085390
 148.7212380  89.3384110  34.0752820 147.7391620  88.2087740  34.3018340
 135.3223040 104.1213830  34.2478010 134.7970660 104.5021860  33.5439970
 135.2467620 104.7464600  34.9687720 136.7113510  89.7861430  32.8461700
 137.2406270  88.9991230  32.7169650 137.3441830  90.4652620  33.0797230
 138.9051350  89.5236570  35.9007090 138.2754090  88.8223880  36.0677220
 138.3656490  90.2840700  35.6840250 141.8443300 106.1375800  48.5717700
 142.7710610 105.9020070  48.6153660 141.8293730 106.9647800  48.0903730
 150.0788360 105.6801370  35.5691950 150.2540550 104.9939110  34.9252870
 149.3809930 106.2048420  35.1768620 139.0306910  88.8020550  48.3359580
 138.7491180  89.3054150  47.5720400 139.4126610  88.0042300  47.9701710
 137.9216010 106.0696210  33.1227260 138.6534830 105.7855490  32.5751150
 138.1809680 105.8309490  34.0126640 137.0830800 102.1860940  33.1273590
 136.4539680 102.6546040  33.6759420 137.1978630 101.3410160  33.5619780
 145.6322370  88.2174130  48.9140050 145.5187820  88.5368740  49.8091570
 146.4492110  88.6186640  48.6177330 148.4120860 105.3645660  48.3958740
 149.2046180 104.8694890  48.1884700 148.7054010 106.0435800  49.0034350
 144.5380520  96.2366600  19.2774790 144.4574570  95.3221210  19.0066500
 144.1244940  96.7333670  18.5714500 142.6698560  98.0145620  21.1584060
 141.8940660  97.5346060  21.4482630 143.3211490  97.3351270  20.9840220
 136.6864390  98.3265430  22.0359820 135.8549270  98.0714140  22.4356330
 137.2945370  98.3976200  22.7717740 146.6905990 102.4205810  19.9383190
 146.2287520 101.6493050  20.2670360 147.5031540 102.4471880  20.4435640
 136.6665650 102.3605520  22.2317840 136.9693690 101.4703260  22.0528060
 137.4109240 102.9175740  22.0040090 135.0956340  93.2867320  15.8202210
 134.2073040  93.6283290  15.7182090 135.3797530  93.0867640  14.9283040
 133.0589350  95.8872970  21.7041910 133.6305460  95.1195170  21.7045550
 133.0590890  96.1861730  20.7948520 142.9169300 104.7063820  19.5587180
 142.2980740 105.1621320  18.9881620 143.7721080 104.8615280  19.1576880
 142.1107550 100.6902810  21.1654220 142.0415830  99.7492750  21.0043350
 142.8727410 100.7804220  21.7376790 134.3014220  91.2957330  23.4910840
 134.1217060  90.3983080  23.7713600 133.8994300  91.8429200  24.1657790
 143.1412720  93.4973190  21.3923150 143.5177540  92.6245070  21.2796820
 143.0432230  93.8331890  20.5013590 137.2717730  91.8698820  16.8540590
 137.3784480  92.7702550  17.1609350 136.3610090  91.8216790  16.5635240
 146.9236840  90.9923630  18.3251490 147.7446460  90.5020200  18.3676970
 146.9570920  91.5821290  19.0783330 134.9200890  93.7917830  22.0993180
 135.6011000  94.0556200  22.7180580 134.6048940  92.9518700  22.4331190
 139.1125460  94.8385190  21.1865770 139.6203680  95.3366160  21.8270790
 139.6438700  94.0620390  21.0105130 137.3961560  89.4783750  25.4529190
 137.3980000  89.9956140  24.6475090 136.5665870  89.0013930  25.4299120
 143.7832650  99.5903060  16.9519090 143.1649920 100.0552510  16.3881810
 144.2955900 100.2830540  17.3688600 138.6464410  99.1178930  23.6302690
 138.3133790  99.7447850  24.2723760 138.8231090  99.6440810  22.8504360
 147.1598320  92.9324010  21.0979030 146.4553890  93.2208900  21.6782140
 147.5210480  93.7424120  20.7378590 137.0776890  91.1893710  23.4599640
 137.4193700  92.0335760  23.1653510 136.1392700  91.3377450  23.5764980
 137.8583510 101.0859730  25.4451870 138.4757510 101.7610810  25.1636320
 136.9976630 101.4947710  25.3539370 133.1515850 100.2759590  14.3258720
 132.7743830 100.7646690  13.5943620 133.4088920 100.9484870  14.9565250
 148.7761100 102.5499140  23.3606510 148.0924620 103.2198250  23.3523180
 149.3155390 102.7479790  22.5951370 140.7604780  88.6775980  19.7844230
 141.0679760  88.1222870  19.0679730 139.8305480  88.8120440  19.6017220
 146.3119840 104.3943270  22.0751690 146.3247000 103.9905560  21.2073950
 145.7595060 105.1690560  21.9713120 147.6065260 101.1159490  17.1641860
 147.4961590 100.1733820  17.2891280 147.6033510 101.4775130  18.0504620
 145.7105280  99.2973110  23.4034300 146.1274070  99.0833220  22.5687760
 146.4345100  99.5545900  23.9742920 143.1485540  96.7424810  16.5204350
 142.2214820  96.6762190  16.7492820 143.3010360  97.6804940  16.4059590
 143.1354620  93.0141810  13.5171510 142.1958290  93.1755770  13.6023970
 143.4537880  93.7327490  12.9707500 149.6567380  97.6960330  23.4950540
 148.8286010  97.7653420  23.0200670 150.2517860  98.2814640  23.0266370
 147.1782830  98.3045110  17.0239600 146.5595250  97.9664660  16.3765900
 147.1607280  97.6604870  17.7318790 146.6209390  94.4829650  24.4405410
 146.2080570  95.3083360  24.6945400 145.8885340  93.8974690  24.2481770
 138.7542180  97.2689550  19.3024080 138.3499180  96.5566800  18.8069980
 138.8405300  96.9242790  20.1912120 139.2223880 100.9557110  21.4663290
 138.9252170 100.3502580  20.7871070 140.1723700 100.9934420  21.3552650
 137.4670800  94.0432760  23.0823120 138.0185390  94.1528100  22.3076370
 137.9814310  94.4170360  23.7978350 147.3109490 104.5288980  25.1286390
 146.8340050 105.3361170  24.9359000 146.6271280 103.8767310  25.2812600
 138.3142310 100.6938800  28.1171090 137.4170840 100.9178770  28.3644490
 138.3395180 100.8173740  27.1682490 145.3547530  97.5431920  14.0312350
 145.7940810  96.7054350  13.8850170 146.0675950  98.1761320  14.1176490
 137.1413530  97.5652120  26.6928460 137.0021300  98.4374920  27.0615860
 136.2594890  97.2224930  26.5476400 143.4642910 102.4827990  17.9993590
 143.9038820 103.2252320  17.5848980 143.4029800 102.7254560  18.9232550
 138.9393880 103.5073820  28.9013610 138.9109310 103.9116770  28.0342040
 138.7758850 102.5784180  28.7385210 148.9364670  88.7974730  12.3453390
 148.6237330  88.8901560  13.2452460 149.6977140  89.3755760  12.2950820
 135.4546810  96.1634530  16.8030730 135.3344410  96.8896620  16.1912000
 135.1447700  95.3937440  16.3258640 133.0932180  99.3349670  22.6099370
 133.1712600  99.4698440  21.6655090 133.7073860  98.6265560  22.8027490
 134.3379810 101.0349860  19.0205550 133.9307890 101.1764450  18.1659150
 135.2292820 100.7510020  18.8176760 150.2941950 101.4813770  27.3577790
 150.4205010 101.2425650  26.4394970 150.3363330 100.6498310  27.8299870
 144.1558690 105.1841770  25.9272600 144.6703360 105.0949780  26.7295030
 143.3127770 105.5301470  26.2200510 146.1313090 105.4697110  15.3556600
 145.9714230 105.1800050  16.2538430 145.9659800 104.6937240  14.8201830
 138.6101470 105.2495640  17.1328220 138.4343950 104.3331180  16.9196020
 137.7557210 105.6082930  17.3726020 145.8339220 102.9784670  13.9154600
 145.1404380 102.9761960  13.2556880 146.5762080 102.5543990  13.4848770
 145.3989150 104.6047380  17.9903090 145.8546100 103.8236760  18.3041710
 145.7381670 105.3154200  18.5344270 150.1465960  93.5346230  28.3227530
 149.5310230  94.0425900  27.7942990 149.8262380  92.6344560  28.2653470
 133.1491700 100.3763840  25.1493830 133.3122740  99.9069200  24.3313200
 133.6144150  99.8687400  25.8142670 137.9210470  89.5069600  20.1854400
 137.4778620  90.2879140  19.8538920 138.4795460  89.8299490  20.8925340
 142.2080280  92.3738120  25.7889720 141.7459650  92.5821140  26.6009660
 141.8058390  91.5597470  25.4860390 147.2084790  93.5947070  26.9186380
 146.3578380  93.2952820  27.2395450 147.0486580  93.8389080  26.0070200
 144.3034500  95.0948820  29.0185170 144.6287910  94.2612570  28.6787400
 145.0914830  95.6177340  29.1663500 141.0369290  89.1280300  15.0660230
 140.4123470  89.1240170  15.7913540 140.9499410  88.2611260  14.6696200
 139.9586370  90.0516930  22.0444000 140.2558700  90.9579760  21.9636020
 140.5071930  89.5635710  21.4303570 137.7124690  94.6303170  17.9135650
 137.4865610  94.4140340  18.8182270 136.9317220  95.0631630  17.5681620
 144.9422450  94.6366540  16.5126300 144.3431340  95.3602340  16.3289920
 145.4902060  94.5743320  15.7302750 140.1523900  95.5288750  28.5795920
 140.0567500  94.5883480  28.4296320 140.9955880  95.7503820  28.1843990
 143.5487320  93.2730080  18.5429580 143.9416890  93.5902280  17.7298270
 143.9104170  92.3941960  18.6574100 135.2834440  91.9402420  26.7329700
 134.8897830  92.7877630  26.9402480 134.5952840  91.3028790  26.9238340
 141.8579490  92.0237390  29.8026440 141.1677810  91.8309590  30.4372530
 142.6011790  92.3072030  30.3350740 132.5851490  89.8630880  20.7659780
 132.2964540  90.4333740  21.4784760 133.3297250  89.3835330  21.1291010
 132.7721720  93.8051000  11.9762500 132.6896390  94.7481760  12.1177490
 132.4204780  93.6625910  11.0974850 144.1342460  95.8635830  22.6380360
 143.4023580  96.3722640  22.9870460 143.7366800  95.0465810  22.3369140
 140.5719850  92.5390030  21.0432850 140.5755910  92.0979980  20.1937390
 141.4670970  92.8607360  21.1504670 136.4222230  92.4216520  20.0027060
 136.0822280  92.8991750  20.7594110 135.6599550  91.9681640  19.6428160
 140.6340000  93.5402110  14.0339610 140.7552820  93.4988590  14.9825430
 140.2488510  94.4026260  13.8786340 144.5968370  91.3169510  22.0503300
 144.6141110  91.7678160  22.8945150 144.3483950  90.4175150  22.2636740
 139.6461500  95.8503250  13.4322910 139.0778400  95.4021500  12.8058820
 140.3550500  96.2096030  12.8988060 148.0239120  88.7301690  27.8889680
 148.3484890  87.9991350  28.4147660 148.0595630  88.4115330  26.9870670
 134.7230680  99.7515270  27.3089640 134.3385470  99.1108940  27.9072600
 135.0342870 100.4551390  27.8784370 140.8727820  96.5991810  22.7898260
 141.2397950  96.1250380  23.5359600 140.6832880  97.4733380  23.1306600
 133.7368310  91.3435500  18.9191730 133.4515230  90.9791170  19.7570350
 133.6747170  90.6115960  18.3054870 138.6627190  95.6400450  25.1082470
 138.3584260  96.5192430  25.3332830 139.6173650  95.7000240  25.1439910
 137.1908980  99.8461440  15.7049320 136.4171240  99.3059060  15.5448040
 137.9203610  99.3268050  15.3667080 147.9496960  98.8426800  21.4975710
 148.6696080  99.3382090  21.1071820 147.7478780  98.1644690  20.8529580
 143.4106900  90.2364760  15.6405100 142.5971510  89.7377930  15.5650410
 143.2168850  91.0763010  15.2241450 143.3315760  98.9135860  27.3844710
 143.2653070  97.9931530  27.1302300 142.7020900  99.0111300  28.0989350
 146.1255290  94.6084410  13.9367260 147.0134910  94.9201640  13.7618600
 146.0960380  93.7356660  13.5447840 137.2346380  99.5141820  19.3428130
 137.7525050  98.7110080  19.2885020 136.7830400  99.4520960  20.1844960
 142.1215880 100.7808100  14.6155430 142.4631580 101.5250330  14.1198750
 141.2928590 101.0939220  14.9780260 134.7190920  96.4803190  26.2553830
 134.3605860  97.1457040  26.8427170 134.4245480  95.6486740  26.6266450
 137.9204040  96.9387430  29.1393380 137.6204180  97.0844610  28.2421200
 138.6915280  96.3792720  29.0466770 143.2632490 101.7356430  27.1348510
 143.2777030 100.8037390  26.9167420 142.5557590 101.8216190  27.7738280
 148.3969560  95.9196250  13.4047120 148.3133280  96.3510470  12.5543560
 149.1163750  96.3794600  13.8373940 149.4743700  98.3763770  26.4817090
 148.7491890  98.9692550  26.2846480 150.0019160  98.3687310  25.6830460
 149.4256810 102.7738510  16.1329250 148.7832970 102.1194130  16.4072970
 149.0387470 103.1793600  15.3569920 145.0043290 100.1023940  19.9800940
 145.3567110  99.5052070  19.3202310 144.1205620  99.7768170  20.1509190
 141.0906570 100.8621630  17.3871350 141.7777700 101.4090840  17.7678940
 140.3038990 101.4062360  17.4220960 133.2298970  96.4794450  12.8788430
 134.0993820  96.7619250  13.1624350 132.7389290  97.2930320  12.7637240
 140.3933780  97.8667660  16.9996710 140.8496560  98.6772910  17.2256900
 140.0421990  97.5490800  17.8315200 142.6966390 103.3774000  24.2289010
 143.3408610 103.5833380  24.9062430 143.0595830 102.6162400  23.7759860
 136.2945560  88.2105310  17.4719230 136.1660190  88.2023210  18.4204150
 135.4707580  88.5488400  17.1210240 143.9698470 101.3806350  22.9466460
 144.6120700 100.6799510  23.0598630 144.4947820 102.1604790  22.7663350
 147.8154190 101.6654970  12.6705600 147.5891770 100.9485410  13.2630240
 147.4250390 101.4167410  11.8327350 145.7436090 102.1801250  26.1502520
 146.0792330 102.7667940  26.8280440 144.8236430 102.0493960  26.3800310
 133.5970220 105.6921830  13.4450060 133.9567860 106.2911170  12.7907330
 133.4562560 106.2381720  14.2185090 133.2939490  89.9696430  26.9325930
 132.5798010  90.1693350  27.5378540 133.7134530  89.1936000  27.3040730
 147.3970440  99.5826910  14.3319760 147.1092140 100.0439600  15.1197640
 148.1922610  99.1224680  14.6003980 133.5812080 103.9576690  27.9192460
 133.6903200 103.0171430  27.7787850 132.9292640 104.2231440  27.2706190
 141.5724670 102.2292580  29.3190580 141.2521540 101.5101820  29.8636270
 140.8983030 102.9047650  29.3926640 139.6138840 103.0753030  14.2623730
 139.6048940 103.8082720  13.6468240 138.6937200 102.8284610  14.3550690
 135.2145480  98.2967920  15.0070490 134.6073430  99.0366820  15.0165790
 135.6894830  98.3867280  14.1808690 144.7878270  92.4618740  24.6827380
 145.1559090  91.6413950  25.0106950 143.9276470  92.5220630  25.0983030
 148.1540300  91.4175680  15.4914940 147.5253460  91.5221350  14.7773170
 147.6592220  91.6372460  16.2808820 142.5998440 103.1381270  12.9248920
 142.7010420 102.9345260  11.9950900 141.7000180 102.8839550  13.1296700
 140.1224330  93.6961630  16.9072820 139.4140480  94.1647970  17.3486430
 140.4068810  93.0383640  17.5418010 141.7480260  95.1158330  24.9065350
 142.2465510  95.5904150  25.5717200 141.8903210  94.1921850  25.1135380
 144.1539760  90.4212290  18.3468610 144.0307540  90.4398420  17.3978120
 145.1024320  90.4691230  18.4667010 141.2416550 105.6567590  17.6196590
 141.4958050 105.6188980  16.6975960 140.2929030 105.5300920  17.6124840
 138.3259350  92.0046710  14.2823530 139.1749880  92.4416860  14.2163720
 137.9590620  92.3166970  15.1095590 148.9547120  91.3326290  25.7493740
 148.4520720  92.0731690  26.0887550 149.7703780  91.7210290  25.4330530
 147.2469130  96.5759470  19.1955100 146.3059270  96.5909700  19.3702790
 147.5613200  95.7895430  19.6415400 137.2250770  98.2579070  12.7559060
 137.9914040  98.1460430  13.3184490 137.3025460  97.5617040  12.1035830
 135.9197530  95.6904140  13.4391950 136.0001120  94.7431650  13.5509350
 136.8117280  96.0211020  13.5452610 149.2494710 103.7468320  20.8709360
 149.3742130 104.5699490  21.3433170 150.1160270 103.5359050  20.5233510
 136.7212240 105.8399530  20.5426490 137.4574720 105.2914990  20.8135060
 137.1053160 106.7055540  20.4032480 133.6057720 101.9073100  16.4168000
 132.6797500 102.1494240  16.4073410 134.0714150 102.7347360  16.2952750
 135.7270520 105.0245600  29.7312070 136.5283250 105.3457650  30.1447470
 135.2122340 104.6641180  30.4531980 139.8314550 105.0129840  12.3652060
 140.6243160 105.3018670  11.9133850 139.3118900 104.5822010  11.6864540
 144.5635150 101.1325470  29.6787480 143.9573310 101.1557070  28.9383230
 144.2589260 100.4008510  30.2154730 145.9935520 104.8605760  28.2896890
 146.9457270 104.7763780  28.2397130 145.8463740 105.5247470  28.9630680
 148.8844720 104.2399970  13.7888800 148.5986230 103.8265110  12.9742980
 148.6864270 105.1687680  13.6689320 133.4468330  97.5119060  28.6748120
 133.9507350  96.9326340  29.2464350 132.7075750  97.7959290  29.2124490
 140.3491950 100.2333250  12.2294410 140.2442590  99.6185600  12.9555790
 140.1816170  99.7099140  11.4457420 140.5006270  98.9190050  28.2083640
 139.7351940  99.4875050  28.1238310 140.6822230  98.6266260  27.3151870
 143.5894680  99.2953280  12.8336400 143.0404780  99.7422580  13.4779140
 144.2113940  98.7902530  13.3574070 147.6429620 100.6495380  28.7658660
 148.3839090 100.9871140  28.2626120 146.8802300 100.8187440  28.2128430
 135.4791410  95.6548650  29.5698190 135.5196750  95.3562520  30.4783420
 136.3336910  96.0556260  29.4105710 139.2569800  98.2544200  14.7301700
 139.6786220  98.0884070  15.5733090 139.3820640  97.4444430  14.2356840
 137.4197220  94.2340750  27.5372680 136.8893680  93.7431700  26.9096020
 138.0885290  94.6624950  27.0030610 141.7697440  97.2781810  11.9778800
 142.2903100  96.5630830  11.6119950 142.4165840  97.9167680  12.2779310
 146.3175280  98.7010210  27.3013870 146.7316300  98.8555290  28.1504290
 145.3826280  98.8265430  27.4639650 146.7897450  96.0406370  29.3053020
 147.3718220  95.2858690  29.2173500 146.9659220  96.5713810  28.5284500
 137.9069520  91.2003120  27.6169970 137.8126390  90.5823870  26.8920840
 137.3266910  91.9269410  27.3899880 140.6730960  89.7576360  24.6497360
 140.2248260  89.7800620  23.8042910 140.0396160  89.3595380  25.2467660
 141.0790510  98.6530690  25.2709800 141.4978620  99.4963420  25.0986040
 140.1599140  98.7902730  25.0416580 143.4154410  96.3846870  26.6547640
 143.5350620  95.7888010  27.3942480 144.2748410  96.4216560  26.2348940
 145.7542310  96.9384060  25.2310150 145.2277530  97.4626680  24.6275290
 146.0973650  97.5711450  25.8619880 138.1528700  94.3277430  11.6759860
 137.9517760  93.4644790  12.0373200 137.9820750  94.2410790  10.7381460
 138.9297930 104.9583700  26.3867530 138.3919020 105.6829760  26.0676230
 139.1831890 104.4814040  25.5964870 140.1823180  92.9268220  27.9123460
 140.7722870  92.6184070  28.6001280 139.3643420  92.4547970  28.0683360
 145.0016610  92.5434030  28.1456480 144.3132130  91.8815570  28.0806470
 145.7222630  92.0972300  28.5904940 145.6317010  89.1385660  14.2046740
 145.9119300  88.2953560  14.5606160 144.8582740  89.3708770  14.7185490
 136.9511500  91.4278050  11.6637740 137.2537400  91.4345480  10.7556890
 137.6906090  91.0775910  12.1605400 141.7860140 106.1934910  26.6454180
 141.7118840 107.0970050  26.9526550 140.8838980 105.8746810  26.6176250
 140.1696430  90.3712670  12.6493940 139.8218430  89.6936660  12.0696390
 140.3709200  89.9102180  13.4637330 142.3345470 105.3593420  14.2680540
 143.2296260 105.6978390  14.2899300 142.3663100 104.6372830  13.6404820
 135.9741630 100.7320470  12.4967540 136.4116500 101.2750140  13.1525120
 136.4589360  99.9067420  12.5063880 133.1887430 103.5209500  19.9487800
 133.5190440 102.6530560  19.7166440 133.6178430 103.7268020  20.7792760
 137.7849350 101.8518510  17.6089770 137.4844890 101.7283480  18.5093680
 137.6786840 100.9927100  17.2005500 133.6777640 104.3880090  22.6869430
 133.2408630 104.5680890  23.5193580 134.2455320 105.1454710  22.5451150
 149.3139820 103.8897090  26.9746740 148.7141810 103.9489650  26.2310660
 149.4433720 102.9502070  27.1043590 133.5102070  96.9000320  19.0458310
 132.8550910  96.6311960  18.4018010 134.3480020  96.7904800  18.5960290
 147.9991460 100.6149070  25.0722900 147.1851300 101.0446230  25.3348690
 148.4065660 101.2267480  24.4591950 150.0616900  98.6696760  11.9723170
 150.3365740  99.5775640  11.8442390 149.8727640  98.6059290  12.9085160
 146.4592510  91.6941610  13.2676800 146.8777390  91.5072590  12.4273460
 146.1528570  90.8420660  13.5779730 149.9582240  96.6065750  16.9652600
 149.5825840  95.8393680  16.5333890 149.2285360  96.9888450  17.4527530
 134.5478000  97.2852890  23.5861650 134.9151040  97.1980290  24.4657670
 133.9788820  96.5219440  23.4868510 149.3481860  95.7537270  26.5992120
 149.1167950  95.5250020  25.6990070 149.6086410  96.6736820  26.5537010
 134.0994000  94.1961980  27.4920070 133.2050050  94.1628740  27.8313780
 134.6391550  94.3948770  28.2571320 147.7869930  90.9793700  29.3771820
 148.6640110  90.9877100  29.7605820 147.7990770  90.2424540  28.7664170
 132.7240150  94.1099250  14.9883640 131.8204230  94.3729450  14.8135300
 133.2080770  94.3810420  14.2083600 149.2333200  94.8323240  20.2659840
 149.7570680  94.3385890  19.6350010 149.8192620  94.9673600  21.0107410
 149.4122920  94.9163110  23.7879390 148.4625630  94.8826650  23.9024380
 149.5935930  95.8263220  23.5529160 135.2667360  93.1664790  12.8978020
 135.9759060  92.7448010  12.4125300 134.5507300  93.2340020  12.2661370
 134.9141520  89.2204120  11.9380670 135.6369650  89.7613060  12.2561890
 135.1866040  88.9467540  11.0622210 148.7233170  94.0896590  16.2052250
 149.2192290  93.8567460  16.9901130 148.5249240  93.2508430  15.7889890
 134.6033710  88.4710310  21.8403290 135.2509900  87.9207690  21.3998450
 135.0235550  88.7253460  22.6619100 148.4986050  88.6651670  25.1972930
 149.1358270  89.2785810  25.5632120 148.6460940  88.7012330  24.2522160
 148.0567510 105.3667670  18.5991170 148.6526580 105.0452240  17.9225590
 148.3145660 104.8939490  19.3904440 134.3565710  88.6265980  24.5828610
 134.0080530  89.0829800  25.3486790 134.0253410  87.7323110  24.6651040
 135.9630080 101.7985580  28.7481800 135.9199710 101.4278490  29.6296260
 136.0941090 102.7363150  28.8883620 139.6636110 103.3545170  24.3491520
 139.4227470 103.6219730  23.4622040 140.6038750 103.5250900  24.4042380
 141.8690530  89.8177860  28.1048030 141.8079420  90.4099690  28.8543440
 142.8090910  89.7103820  27.9598290 144.5065090  89.4747920  27.7440320
 145.1205500  89.7927210  27.0821400 145.0514650  88.9896510  28.3636180
 135.0286350  88.1542180  27.8579380 135.5769340  87.9730230  27.0945490
 135.0941660  87.3636290  28.3935690 135.8018110 104.7447830  25.8679580
 135.2078430 104.6132530  26.6069620 135.7941950 103.9085970  25.4021680
 145.2473130  88.0380060  24.0709610 144.3732970  88.3715170  23.8682540
 145.1383880  87.5653240  24.8961480 146.1545110  90.2450930  25.4551330
 145.8258470  89.4302690  25.0753060 147.1027410  90.2020740  25.3317020
 148.6079720 106.0162970  22.4288900 148.1482690 106.7678780  22.0546920
 147.9792180 105.2969440  22.3703700 135.4330340 102.1106210  24.8187620
 134.7064400 101.4911500  24.7513570 135.4939490 102.5046820  23.9485700
 139.0375440 104.3251210  21.6037030 139.5540460 103.7138570  21.0785290
 139.6872820 104.8279990  22.0948040 141.7770940 105.2159700  22.4306010
 142.0648750 104.9614000  21.5539020 142.2894160 104.6637060  23.0211580
 142.9947950  88.9549900  23.0102520 142.2119740  89.4295400  23.2899280
 142.7010880  88.0504730  22.9015700 147.5469020  89.6573000  21.0551610
 147.9877110  89.6018100  20.2073210 147.2776610  90.5731010  21.1261790
 149.4107590  89.2888240  19.0660430 149.3495990  88.3449460  18.9191450
 150.1899620  89.3968330  19.6113890 133.7160340 105.4280600  18.0284380
 133.5482380 104.7951280  18.7266270 132.8494850 105.6340000  17.6778570
 134.3388360  89.2597380  15.5316240 135.0967720  89.3726260  14.9580270
 133.8765530  90.0966580  15.4859670 140.8802170  91.3736650  18.5218550
 140.0676680  90.9993540  18.1814430 141.3843810  90.6181730  18.8239740
 145.3827150  88.0379100  19.7601620 145.9856520  88.6099310  20.2350140
 144.6420140  88.6018540  19.5375520 148.5261750  88.4400660  15.0341900
 148.7212380  89.3384110  15.3009330 147.7391620  88.2087740  15.5274850
 135.3223040 104.1213830  15.4734520 134.7970660 104.5021860  14.7696480
 135.2467620 104.7464600  16.1944230 136.7113510  89.7861430  14.0718210
 137.2406270  88.9991230  13.9426160 137.3441830  90.4652620  14.3053740
 138.9051350  89.5236570  17.1263600 138.2754090  88.8223880  17.2933730
 138.3656490  90.2840700  16.9096760 141.8443300 106.1375800  29.7974210
 142.7710610 105.9020070  29.8410170 141.8293730 106.9647800  29.3160240
 150.0788360 105.6801370  16.7948460 150.2540550 104.9939110  16.1509380
 149.3809930 106.2048420  16.4025130 139.0306910  88.8020550  29.5616090
 138.7491180  89.3054150  28.7976910 139.4126610  88.0042300  29.1958220
 137.9216010 106.0696210  14.3483770 138.6534830 105.7855490  13.8007660
 138.1809680 105.8309490  15.2383150 137.0830800 102.1860940  14.3530100
 136.4539680 102.6546040  14.9015930 137.1978630 101.3410160  14.7876290
 145.6322370  88.2174130  30.1396560 145.5187820  88.5368740  31.0348080
 146.4492110  88.6186640  29.8433840 148.4120860 105.3645660  29.6215250
 149.2046180 104.8694890  29.4141210 148.7054010 106.0435800  30.2290860
 142.6698560  98.0145620   2.3840570 141.8940660  97.5346060   2.6739140
 143.3211490  97.3351270   2.2096730 136.6864390  98.3265430   3.2616330
 135.8549270  98.0714140   3.6612840 137.2945370  98.3976200   3.9974250
 136.6665650 102.3605520   3.4574350 136.9693690 101.4703260   3.2784570
 137.4109240 102.9175740   3.2296600 133.0589350  95.8872970   2.9298420
 133.6305460  95.1195170   2.9302060 133.0590890  96.1861730   2.0205030
 142.1107550 100.6902810   2.3910730 142.0415830  99.7492750   2.2299860
 142.8727410 100.7804220   2.9633300 134.3014220  91.2957330   4.7167350
 134.1217060  90.3983080   4.9970110 133.8994300  91.8429200   5.3914300
 143.1412720  93.4973190   2.6179660 143.5177540  92.6245070   2.5053330
 143.0432230  93.8331890   1.7270100 134.9200890  93.7917830   3.3249690
 135.6011000  94.0556200   3.9437090 134.6048940  92.9518700   3.6587700
 139.1125460  94.8385190   2.4122280 139.6203680  95.3366160   3.0527300
 139.6438700  94.0620390   2.2361640 137.3961560  89.4783750   6.6785700
 137.3980000  89.9956140   5.8731600 136.5665870  89.0013930   6.6555630
 138.6464410  99.1178930   4.8559200 138.3133790  99.7447850   5.4980270
 138.8231090  99.6440810   4.0760870 147.1598320  92.9324010   2.3235540
 146.4553890  93.2208900   2.9038650 147.5210480  93.7424120   1.9635100
 137.0776890  91.1893710   4.6856150 137.4193700  92.0335760   4.3910020
 136.1392700  91.3377450   4.8021490 137.8583510 101.0859730   6.6708380
 138.4757510 101.7610810   6.3892830 136.9976630 101.4947710   6.5795880
 148.7761100 102.5499140   4.5863020 148.0924620 103.2198250   4.5779690
 149.3155390 102.7479790   3.8207880 146.3119840 104.3943270   3.3008200
 146.3247000 103.9905560   2.4330460 145.7595060 105.1690560   3.1969630
 145.7105280  99.2973110   4.6290810 146.1274070  99.0833220   3.7944270
 146.4345100  99.5545900   5.1999430 149.6567380  97.6960330   4.7207050
 148.8286010  97.7653420   4.2457180 150.2517860  98.2814640   4.2522880
 146.6209390  94.4829650   5.6661920 146.2080570  95.3083360   5.9201910
 145.8885340  93.8974690   5.4738280 139.2223880 100.9557110   2.6919800
 138.9252170 100.3502580   2.0127580 140.1723700 100.9934420   2.5809160
 137.4670800  94.0432760   4.3079630 138.0185390  94.1528100   3.5332880
 137.9814310  94.4170360   5.0234860 147.3109490 104.5288980   6.3542900
 146.8340050 105.3361170   6.1615510 146.6271280 103.8767310   6.5069110
 138.3142310 100.6938800   9.3427600 137.4170840 100.9178770   9.5901000
 138.3395180 100.8173740   8.3939000 137.1413530  97.5652120   7.9184970
 137.0021300  98.4374920   8.2872370 136.2594890  97.2224930   7.7732910
 138.9393880 103.5073820  10.1270120 138.9109310 103.9116770   9.2598550
 138.7758850 102.5784180   9.9641720 133.0932180  99.3349670   3.8355880
 133.1712600  99.4698440   2.8911600 133.7073860  98.6265560   4.0284000
 150.2941950 101.4813770   8.5834300 150.4205010 101.2425650   7.6651480
 150.3363330 100.6498310   9.0556380 144.1558690 105.1841770   7.1529110
 144.6703360 105.0949780   7.9551540 143.3127770 105.5301470   7.4457020
 150.1465960  93.5346230   9.5484040 149.5310230  94.0425900   9.0199500
 149.8262380  92.6344560   9.4909980 133.1491700 100.3763840   6.3750340
 133.3122740  99.9069200   5.5569710 133.6144150  99.8687400   7.0399180
 142.2080280  92.3738120   7.0146230 141.7459650  92.5821140   7.8266170
 141.8058390  91.5597470   6.7116900 147.2084790  93.5947070   8.1442890
 146.3578380  93.2952820   8.4651960 147.0486580  93.8389080   7.2326710
 144.3034500  95.0948820  10.2441680 144.6287910  94.2612570   9.9043910
 145.0914830  95.6177340  10.3920010 139.9586370  90.0516930   3.2700510
 140.2558700  90.9579760   3.1892530 140.5071930  89.5635710   2.6560080
 140.1523900  95.5288750   9.8052430 140.0567500  94.5883480   9.6552830
 140.9955880  95.7503820   9.4100500 135.2834440  91.9402420   7.9586210
 134.8897830  92.7877630   8.1658990 134.5952840  91.3028790   8.1494850
 141.8579490  92.0237390  11.0282950 141.1677810  91.8309590  11.6629040
 142.6011790  92.3072030  11.5607250 132.5851490  89.8630880   1.9916290
 132.2964540  90.4333740   2.7041270 133.3297250  89.3835330   2.3547520
 144.1342460  95.8635830   3.8636870 143.4023580  96.3722640   4.2126970
 143.7366800  95.0465810   3.5625650 140.5719850  92.5390030   2.2689360
 140.5755910  92.0979980   1.4193900 141.4670970  92.8607360   2.3761180
 144.5968370  91.3169510   3.2759810 144.6141110  91.7678160   4.1201660
 144.3483950  90.4175150   3.4893250 148.0239120  88.7301690   9.1146190
 148.3484890  87.9991350   9.6404170 148.0595630  88.4115330   8.2127180
 134.7230680  99.7515270   8.5346150 134.3385470  99.1108940   9.1329110
 135.0342870 100.4551390   9.1040880 140.8727820  96.5991810   4.0154770
 141.2397950  96.1250380   4.7616110 140.6832880  97.4733380   4.3563110
 138.6627190  95.6400450   6.3338980 138.3584260  96.5192430   6.5589340
 139.6173650  95.7000240   6.3696420 147.9496960  98.8426800   2.7232220
 148.6696080  99.3382090   2.3328330 147.7478780  98.1644690   2.0786090
 143.3315760  98.9135860   8.6101220 143.2653070  97.9931530   8.3558810
 142.7020900  99.0111300   9.3245860 134.7190920  96.4803190   7.4810340
 134.3605860  97.1457040   8.0683680 134.4245480  95.6486740   7.8522960
 137.9204040  96.9387430  10.3649890 137.6204180  97.0844610   9.4677710
 138.6915280  96.3792720  10.2723280 143.2632490 101.7356430   8.3605020
 143.2777030 100.8037390   8.1423930 142.5557590 101.8216190   8.9994790
 149.4743700  98.3763770   7.7073600 148.7491890  98.9692550   7.5102990
 150.0019160  98.3687310   6.9086970 142.6966390 103.3774000   5.4545520
 143.3408610 103.5833380   6.1318940 143.0595830 102.6162400   5.0016370
 143.9698470 101.3806350   4.1722970 144.6120700 100.6799510   4.2855140
 144.4947820 102.1604790   3.9919860 145.7436090 102.1801250   7.3759030
 146.0792330 102.7667940   8.0536950 144.8236430 102.0493960   7.6056820
 133.2939490  89.9696430   8.1582440 132.5798010  90.1693350   8.7635050
 133.7134530  89.1936000   8.5297240 133.5812080 103.9576690   9.1448970
 133.6903200 103.0171430   9.0044360 132.9292640 104.2231440   8.4962700
 141.5724670 102.2292580  10.5447090 141.2521540 101.5101820  11.0892780
 140.8983030 102.9047650  10.6183150 144.7878270  92.4618740   5.9083890
 145.1559090  91.6413950   6.2363460 143.9276470  92.5220630   6.3239540
 141.7480260  95.1158330   6.1321860 142.2465510  95.5904150   6.7973710
 141.8903210  94.1921850   6.3391890 148.9547120  91.3326290   6.9750250
 148.4520720  92.0731690   7.3144060 149.7703780  91.7210290   6.6587040
 149.2494710 103.7468320   2.0965870 149.3742130 104.5699490   2.5689680
 150.1160270 103.5359050   1.7490020 136.7212240 105.8399530   1.7683000
 137.4574720 105.2914990   2.0391570 137.1053160 106.7055540   1.6288990
 135.7270520 105.0245600  10.9568580 136.5283250 105.3457650  11.3703980
 135.2122340 104.6641180  11.6788490 144.5635150 101.1325470  10.9043990
 143.9573310 101.1557070  10.1639740 144.2589260 100.4008510  11.4411240
 145.9935520 104.8605760   9.5153400 146.9457270 104.7763780   9.4653640
 145.8463740 105.5247470  10.1887190 133.4468330  97.5119060   9.9004630
 133.9507350  96.9326340  10.4720860 132.7075750  97.7959290  10.4381000
 140.5006270  98.9190050   9.4340150 139.7351940  99.4875050   9.3494820
 140.6822230  98.6266260   8.5408380 147.6429620 100.6495380   9.9915170
 148.3839090 100.9871140   9.4882630 146.8802300 100.8187440   9.4384940
 135.4791410  95.6548650  10.7954700 135.5196750  95.3562520  11.7039930
 136.3336910  96.0556260  10.6362220 137.4197220  94.2340750   8.7629190
 136.8893680  93.7431700   8.1352530 138.0885290  94.6624950   8.2287120
 146.3175280  98.7010210   8.5270380 146.7316300  98.8555290   9.3760800
 145.3826280  98.8265430   8.6896160 146.7897450  96.0406370  10.5309530
 147.3718220  95.2858690  10.4430010 146.9659220  96.5713810   9.7541010
 137.9069520  91.2003120   8.8426480 137.8126390  90.5823870   8.1177350
 137.3266910  91.9269410   8.6156390 140.6730960  89.7576360   5.8753870
 140.2248260  89.7800620   5.0299420 140.0396160  89.3595380   6.4724170
 141.0790510  98.6530690   6.4966310 141.4978620  99.4963420   6.3242550
 140.1599140  98.7902730   6.2673090 143.4154410  96.3846870   7.8804150
 143.5350620  95.7888010   8.6198990 144.2748410  96.4216560   7.4605450
 145.7542310  96.9384060   6.4566660 145.2277530  97.4626680   5.8531800
 146.0973650  97.5711450   7.0876390 138.9297930 104.9583700   7.6124040
 138.3919020 105.6829760   7.2932740 139.1831890 104.4814040   6.8221380
 140.1823180  92.9268220   9.1379970 140.7722870  92.6184070   9.8257790
 139.3643420  92.4547970   9.2939870 145.0016610  92.5434030   9.3712990
 144.3132130  91.8815570   9.3062980 145.7222630  92.0972300   9.8161450
 141.7860140 106.1934910   7.8710690 141.7118840 107.0970050   8.1783060
 140.8838980 105.8746810   7.8432760 133.6777640 104.3880090   3.9125940
 133.2408630 104.5680890   4.7450090 134.2455320 105.1454710   3.7707660
 149.3139820 103.8897090   8.2003250 148.7141810 103.9489650   7.4567170
 149.4433720 102.9502070   8.3300100 147.9991460 100.6149070   6.2979410
 147.1851300 101.0446230   6.5605200 148.4065660 101.2267480   5.6848460
 134.5478000  97.2852890   4.8118160 134.9151040  97.1980290   5.6914180
 133.9788820  96.5219440   4.7125020 149.3481860  95.7537270   7.8248630
 149.1167950  95.5250020   6.9246580 149.6086410  96.6736820   7.7793520
 134.0994000  94.1961980   8.7176580 133.2050050  94.1628740   9.0570290
 134.6391550  94.3948770   9.4827830 147.7869930  90.9793700  10.6028330
 148.6640110  90.9877100  10.9862330 147.7990770  90.2424540   9.9920680
 149.4122920  94.9163110   5.0135900 148.4625630  94.8826650   5.1280890
 149.5935930  95.8263220   4.7785670 134.6033710  88.4710310   3.0659800
 135.2509900  87.9207690   2.6254960 135.0235550  88.7253460   3.8875610
 148.4986050  88.6651670   6.4229440 149.1358270  89.2785810   6.7888630
 148.6460940  88.7012330   5.4778670 134.3565710  88.6265980   5.8085120
 134.0080530  89.0829800   6.5743300 134.0253410  87.7323110   5.8907550
 135.9630080 101.7985580   9.9738310 135.9199710 101.4278490  10.8552770
 136.0941090 102.7363150  10.1140130 139.6636110 103.3545170   5.5748030
 139.4227470 103.6219730   4.6878550 140.6038750 103.5250900   5.6298890
 141.8690530  89.8177860   9.3304540 141.8079420  90.4099690  10.0799950
 142.8090910  89.7103820   9.1854800 144.5065090  89.4747920   8.9696830
 145.1205500  89.7927210   8.3077910 145.0514650  88.9896510   9.5892690
 135.0286350  88.1542180   9.0835890 135.5769340  87.9730230   8.3202000
 135.0941660  87.3636290   9.6192200 135.8018110 104.7447830   7.0936090
 135.2078430 104.6132530   7.8326130 135.7941950 103.9085970   6.6278190
 145.2473130  88.0380060   5.2966120 144.3732970  88.3715170   5.0939050
 145.1383880  87.5653240   6.1217990 146.1545110  90.2450930   6.6807840
 145.8258470  89.4302690   6.3009570 147.1027410  90.2020740   6.5573530
 148.6079720 106.0162970   3.6545410 148.1482690 106.7678780   3.2803430
 147.9792180 105.2969440   3.5960210 135.4330340 102.1106210   6.0444130
 134.7064400 101.4911500   5.9770080 135.4939490 102.5046820   5.1742210
 139.0375440 104.3251210   2.8293540 139.5540460 103.7138570   2.3041800
 139.6872820 104.8279990   3.3204550 141.7770940 105.2159700   3.6562520
 142.0648750 104.9614000   2.7795530 142.2894160 104.6637060   4.2468090
 142.9947950  88.9549900   4.2359030 142.2119740  89.4295400   4.5155790
 142.7010880  88.0504730   4.1272210 147.5469020  89.6573000   2.2808120
 147.9877110  89.6018100   1.4329720 147.2776610  90.5731010   2.3518300
 141.8443300 106.1375800  11.0230720 142.7710610 105.9020070  11.0666680
 141.8293730 106.9647800  10.5416750 139.0306910  88.8020550  10.7872600
 138.7491180  89.3054150  10.0233420 139.4126610  88.0042300  10.4214730
 145.6322370  88.2174130  11.3653070 145.5187820  88.5368740  12.2604590
 146.4492110  88.6186640  11.0690350 148.4120860 105.3645660  10.8471760
 149.2046180 104.8694890  10.6397720 148.7054010 106.0435800  11.4547370
 144.5380520  77.4623110 150.6979220 144.4574570  76.5477720 150.4270930
 144.1244940  77.9590180 149.9918930 142.6698560  79.2402130 152.5788490
 141.8940660  78.7602570 152.8687060 143.3211490  78.5607780 152.4044650
 146.6905990  83.6462320 151.3587620 146.2287520  82.8749560 151.6874790
 147.5031540  83.6728390 151.8640070 135.0956340  74.5123830 147.2406640
 134.2073040  74.8539800 147.1386520 135.3797530  74.3124150 146.3487470
 133.0589350  77.1129480 153.1246340 133.6305460  76.3451680 153.1249980
 133.0590890  77.4118240 152.2152950 142.9169300  85.9320330 150.9791610
 142.2980740  86.3877830 150.4086050 143.7721080  86.0871790 150.5781310
 142.1107550  81.9159320 152.5858650 142.0415830  80.9749260 152.4247780
 142.8727410  82.0060730 153.1581220 143.1412720  74.7229700 152.8127580
 143.5177540  73.8501580 152.7001250 143.0432230  75.0588400 151.9218020
 137.2717730  73.0955330 148.2745020 137.3784480  73.9959060 148.5813780
 136.3610090  73.0473300 147.9839670 146.9236840  72.2180140 149.7455920
 147.7446460  71.7276710 149.7881400 146.9570920  72.8077800 150.4987760
 143.7832650  80.8159570 148.3723520 143.1649920  81.2809020 147.8086240
 144.2955900  81.5087050 148.7893030 147.1598320  74.1580520 152.5183460
 146.4553890  74.4465410 153.0986570 147.5210480  74.9680630 152.1583020
 133.1515850  81.5016100 145.7463150 132.7743830  81.9903200 145.0148050
 133.4088920  82.1741380 146.3769680 140.7604780  69.9032490 151.2048660
 141.0679760  69.3479380 150.4884160 139.8305480  70.0376950 151.0221650
 147.6065260  82.3416000 148.5846290 147.4961590  81.3990330 148.7095710
 147.6033510  82.7031640 149.4709050 143.1485540  77.9681320 147.9408780
 142.2214820  77.9018700 148.1697250 143.3010360  78.9061450 147.8264020
 143.1354620  74.2398320 144.9375940 142.1958290  74.4012280 145.0228400
 143.4537880  74.9584000 144.3911930 147.1782830  79.5301620 148.4444030
 146.5595250  79.1921170 147.7970330 147.1607280  78.8861380 149.1523220
 138.7542180  78.4946060 150.7228510 138.3499180  77.7823310 150.2274410
 138.8405300  78.1499300 151.6116550 139.2223880  82.1813620 152.8867720
 138.9252170  81.5759090 152.2075500 140.1723700  82.2190930 152.7757080
 145.3547530  78.7688430 145.4516780 145.7940810  77.9310860 145.3054600
 146.0675950  79.4017830 145.5380920 143.4642910  83.7084500 149.4198020
 143.9038820  84.4508830 149.0053410 143.4029800  83.9511070 150.3436980
 148.9364670  70.0231240 143.7657820 148.6237330  70.1158070 144.6656890
 149.6977140  70.6012270 143.7155250 135.4546810  77.3891040 148.2235160
 135.3344410  78.1153130 147.6116430 135.1447700  76.6193950 147.7463070
 134.3379810  82.2606370 150.4409980 133.9307890  82.4020960 149.5863580
 135.2292820  81.9766530 150.2381190 146.1313090  86.6953620 146.7761030
 145.9714230  86.4056560 147.6742860 145.9659800  85.9193750 146.2406260
 138.6101470  86.4752150 148.5532650 138.4343950  85.5587690 148.3400450
 137.7557210  86.8339440 148.7930450 145.8339220  84.2041180 145.3359030
 145.1404380  84.2018470 144.6761310 146.5762080  83.7800500 144.9053200
 145.3989150  85.8303890 149.4107520 145.8546100  85.0493270 149.7246140
 145.7381670  86.5410710 149.9548700 137.9210470  70.7326110 151.6058830
 137.4778620  71.5135650 151.2743350 138.4795460  71.0556000 152.3129770
 141.0369290  70.3536810 146.4864660 140.4123470  70.3496680 147.2117970
 140.9499410  69.4867770 146.0900630 137.7124690  75.8559680 149.3340080
 137.4865610  75.6396850 150.2386700 136.9317220  76.2888140 148.9886050
 144.9422450  75.8623050 147.9330730 144.3431340  76.5858850 147.7494350
 145.4902060  75.7999830 147.1507180 143.5487320  74.4986590 149.9634010
 143.9416890  74.8158790 149.1502700 143.9104170  73.6198470 150.0778530
 132.5851490  71.0887390 152.1864210 132.2964540  71.6590250 152.8989190
 133.3297250  70.6091840 152.5495440 132.7721720  75.0307510 143.3966930
 132.6896390  75.9738270 143.5381920 132.4204780  74.8882420 142.5179280
 140.5719850  73.7646540 152.4637280 140.5755910  73.3236490 151.6141820
 141.4670970  74.0863870 152.5709100 136.4222230  73.6473030 151.4231490
 136.0822280  74.1248260 152.1798540 135.6599550  73.1938150 151.0632590
 140.6340000  74.7658620 145.4544040 140.7552820  74.7245100 146.4029860
 140.2488510  75.6282770 145.2990770 139.6461500  77.0759760 144.8527340
 139.0778400  76.6278010 144.2263250 140.3550500  77.4352540 144.3192490
 133.7368310  72.5692010 150.3396160 133.4515230  72.2047680 151.1774780
 133.6747170  71.8372470 149.7259300 137.1908980  81.0717950 147.1253750
 136.4171240  80.5315570 146.9652470 137.9203610  80.5524560 146.7871510
 147.9496960  80.0683310 152.9180140 148.6696080  80.5638600 152.5276250
 147.7478780  79.3901200 152.2734010 143.4106900  71.4621270 147.0609530
 142.5971510  70.9634440 146.9854840 143.2168850  72.3019520 146.6445880
 146.1255290  75.8340920 145.3571690 147.0134910  76.1458150 145.1823030
 146.0960380  74.9613170 144.9652270 137.2346380  80.7398330 150.7632560
 137.7525050  79.9366590 150.7089450 136.7830400  80.6777470 151.6049390
 142.1215880  82.0064610 146.0359860 142.4631580  82.7506840 145.5403180
 141.2928590  82.3195730 146.3984690 148.3969560  77.1452760 144.8251550
 148.3133280  77.5766980 143.9747990 149.1163750  77.6051110 145.2578370
 149.4256810  83.9995020 147.5533680 148.7832970  83.3450640 147.8277400
 149.0387470  84.4050110 146.7774350 145.0043290  81.3280450 151.4005370
 145.3567110  80.7308580 150.7406740 144.1205620  81.0024680 151.5713620
 141.0906570  82.0878140 148.8075780 141.7777700  82.6347350 149.1883370
 140.3038990  82.6318870 148.8425390 133.2298970  77.7050960 144.2992860
 134.0993820  77.9875760 144.5828780 132.7389290  78.5186830 144.1841670
 140.3933780  79.0924170 148.4201140 140.8496560  79.9029420 148.6461330
 140.0421990  78.7747310 149.2519630 136.2945560  69.4361820 148.8923660
 136.1660190  69.4279720 149.8408580 135.4707580  69.7744910 148.5414670
 147.8154190  82.8911480 144.0910030 147.5891770  82.1741920 144.6834670
 147.4250390  82.6423920 143.2531780 133.5970220  86.9178340 144.8654490
 133.9567860  87.5167680 144.2111760 133.4562560  87.4638230 145.6389520
 147.3970440  80.8083420 145.7524190 147.1092140  81.2696110 146.5402070
 148.1922610  80.3481190 146.0208410 139.6138840  84.3009540 145.6828160
 139.6048940  85.0339230 145.0672670 138.6937200  84.0541120 145.7755120
 135.2145480  79.5224430 146.4274920 134.6073430  80.2623330 146.4370220
 135.6894830  79.6123790 145.6013120 148.1540300  72.6432190 146.9119370
 147.5253460  72.7477860 146.1977600 147.6592220  72.8628970 147.7013250
 142.5998440  84.3637780 144.3453350 142.7010420  84.1601770 143.4155330
 141.7000180  84.1096060 144.5501130 140.1224330  74.9218140 148.3277250
 139.4140480  75.3904480 148.7690860 140.4068810  74.2640150 148.9622440
 144.1539760  71.6468800 149.7673040 144.0307540  71.6654930 148.8182550
 145.1024320  71.6947740 149.8871440 141.2416550  86.8824100 149.0401020
 141.4958050  86.8445490 148.1180390 140.2929030  86.7557430 149.0329270
 138.3259350  73.2303220 145.7027960 139.1749880  73.6673370 145.6368150
 137.9590620  73.5423480 146.5300020 147.2469130  77.8015980 150.6159530
 146.3059270  77.8166210 150.7907220 147.5613200  77.0151940 151.0619830
 137.2250770  79.4835580 144.1763490 137.9914040  79.3716940 144.7388920
 137.3025460  78.7873550 143.5240260 135.9197530  76.9160650 144.8596380
 136.0001120  75.9688160 144.9713780 136.8117280  77.2467530 144.9657040
 149.2494710  84.9724830 152.2913790 149.3742130  85.7956000 152.7637600
 150.1160270  84.7615560 151.9437940 136.7212240  87.0656040 151.9630920
 137.4574720  86.5171500 152.2339490 137.1053160  87.9312050 151.8236910
 133.6057720  83.1329610 147.8372430 132.6797500  83.3750750 147.8277840
 134.0714150  83.9603870 147.7157180 139.8314550  86.2386350 143.7856490
 140.6243160  86.5275180 143.3338280 139.3118900  85.8078520 143.1068970
 148.8844720  85.4656480 145.2093230 148.5986230  85.0521620 144.3947410
 148.6864270  86.3944190 145.0893750 140.3491950  81.4589760 143.6498840
 140.2442590  80.8442110 144.3760220 140.1816170  80.9355650 142.8661850
 143.5894680  80.5209790 144.2540830 143.0404780  80.9679090 144.8983570
 144.2113940  80.0159040 144.7778500 139.2569800  79.4800710 146.1506130
 139.6786220  79.3140580 146.9937520 139.3820640  78.6700940 145.6561270
 141.7697440  78.5038320 143.3983230 142.2903100  77.7887340 143.0324380
 142.4165840  79.1424190 143.6983740 138.1528700  75.5533940 143.0964290
 137.9517760  74.6901300 143.4577630 137.9820750  75.4667300 142.1585890
 145.6317010  70.3642170 145.6251170 145.9119300  69.5210070 145.9810590
 144.8582740  70.5965280 146.1389920 136.9511500  72.6534560 143.0842170
 137.2537400  72.6601990 142.1761320 137.6906090  72.3032420 143.5809830
 140.1696430  71.5969180 144.0698370 139.8218430  70.9193170 143.4900820
 140.3709200  71.1358690 144.8841760 142.3345470  86.5849930 145.6884970
 143.2296260  86.9234900 145.7103730 142.3663100  85.8629340 145.0609250
 135.9741630  81.9576980 143.9171970 136.4116500  82.5006650 144.5729550
 136.4589360  81.1323930 143.9268310 133.1887430  84.7466010 151.3692230
 133.5190440  83.8787070 151.1370870 133.6178430  84.9524530 152.1997190
 137.7849350  83.0775020 149.0294200 137.4844890  82.9539990 149.9298110
 137.6786840  82.2183610 148.6209930 133.5102070  78.1256830 150.4662740
 132.8550910  77.8568470 149.8222440 134.3480020  78.0161310 150.0164720
 150.0616900  79.8953270 143.3927600 150.3365740  80.8032150 143.2646820
 149.8727640  79.8315800 144.3289590 146.4592510  72.9198120 144.6881230
 146.8777390  72.7329100 143.8477890 146.1528570  72.0677170 144.9984160
 149.9582240  77.8322260 148.3857030 149.5825840  77.0650190 147.9538320
 149.2285360  78.2144960 148.8731960 132.7240150  75.3355760 146.4088070
 131.8204230  75.5985960 146.2339730 133.2080770  75.6066930 145.6288030
 149.2333200  76.0579750 151.6864270 149.7570680  75.5642400 151.0554440
 149.8192620  76.1930110 152.4311840 135.2667360  74.3921300 144.3182450
 135.9759060  73.9704520 143.8329730 134.5507300  74.4596530 143.6865800
 134.9141520  70.4460630 143.3585100 135.6369650  70.9869570 143.6766320
 135.1866040  70.1724050 142.4826640 148.7233170  75.3153100 147.6256680
 149.2192290  75.0823970 148.4105560 148.5249240  74.4764940 147.2094320
 148.0567510  86.5924180 150.0195600 148.6526580  86.2708750 149.3430020
 148.3145660  86.1196000 150.8108870 147.5469020  70.8829510 152.4756040
 147.9877110  70.8274610 151.6277640 147.2776610  71.7987520 152.5466220
 149.4107590  70.5144750 150.4864860 149.3495990  69.5705970 150.3395880
 150.1899620  70.6224840 151.0318320 133.7160340  86.6537110 149.4488810
 133.5482380  86.0207790 150.1470700 132.8494850  86.8596510 149.0983000
 134.3388360  70.4853890 146.9520670 135.0967720  70.5982770 146.3784700
 133.8765530  71.3223090 146.9064100 140.8802170  72.5993160 149.9422980
 140.0676680  72.2250050 149.6018860 141.3843810  71.8438240 150.2444170
 145.3827150  69.2635610 151.1806050 145.9856520  69.8355820 151.6554570
 144.6420140  69.8275050 150.9579950 148.5261750  69.6657170 146.4546330
 148.7212380  70.5640620 146.7213760 147.7391620  69.4344250 146.9479280
 135.3223040  85.3470340 146.8938950 134.7970660  85.7278370 146.1900910
 135.2467620  85.9721110 147.6148660 136.7113510  71.0117940 145.4922640
 137.2406270  70.2247740 145.3630590 137.3441830  71.6909130 145.7258170
 138.9051350  70.7493080 148.5468030 138.2754090  70.0480390 148.7138160
 138.3656490  71.5097210 148.3301190 150.0788360  86.9057880 148.2152890
 150.2540550  86.2195620 147.5713810 149.3809930  87.4304930 147.8229560
 137.9216010  87.2952720 145.7688200 138.6534830  87.0112000 145.2212090
 138.1809680  87.0566000 146.6587580 137.0830800  83.4117450 145.7734530
 136.4539680  83.8802550 146.3220360 137.1978630  82.5666670 146.2080720
 144.5380520  77.4623110 131.9235730 144.4574570  76.5477720 131.6527440
 144.1244940  77.9590180 131.2175440 142.6698560  79.2402130 133.8045000
 141.8940660  78.7602570 134.0943570 143.3211490  78.5607780 133.6301160
 136.6864390  79.5521940 134.6820760 135.8549270  79.2970650 135.0817270
 137.2945370  79.6232710 135.4178680 146.6905990  83.6462320 132.5844130
 146.2287520  82.8749560 132.9131300 147.5031540  83.6728390 133.0896580
 136.6665650  83.5862030 134.8778780 136.9693690  82.6959770 134.6989000
 137.4109240  84.1432250 134.6501030 135.0956340  74.5123830 128.4663150
 134.2073040  74.8539800 128.3643030 135.3797530  74.3124150 127.5743980
 133.0589350  77.1129480 134.3502850 133.6305460  76.3451680 134.3506490
 133.0590890  77.4118240 133.4409460 142.9169300  85.9320330 132.2048120
 142.2980740  86.3877830 131.6342560 143.7721080  86.0871790 131.8037820
 142.1107550  81.9159320 133.8115160 142.0415830  80.9749260 133.6504290
 142.8727410  82.0060730 134.3837730 134.3014220  72.5213840 136.1371780
 134.1217060  71.6239590 136.4174540 133.8994300  73.0685710 136.8118730
 143.1412720  74.7229700 134.0384090 143.5177540  73.8501580 133.9257760
 143.0432230  75.0588400 133.1474530 137.2717730  73.0955330 129.5001530
 137.3784480  73.9959060 129.8070290 136.3610090  73.0473300 129.2096180
 146.9236840  72.2180140 130.9712430 147.7446460  71.7276710 131.0137910
 146.9570920  72.8077800 131.7244270 134.9200890  75.0174340 134.7454120
 135.6011000  75.2812710 135.3641520 134.6048940  74.1775210 135.0792130
 139.1125460  76.0641700 133.8326710 139.6203680  76.5622670 134.4731730
 139.6438700  75.2876900 133.6566070 137.3961560  70.7040260 138.0990130
 137.3980000  71.2212650 137.2936030 136.5665870  70.2270440 138.0760060
 143.7832650  80.8159570 129.5980030 143.1649920  81.2809020 129.0342750
 144.2955900  81.5087050 130.0149540 138.6464410  80.3435440 136.2763630
 138.3133790  80.9704360 136.9184700 138.8231090  80.8697320 135.4965300
 147.1598320  74.1580520 133.7439970 146.4553890  74.4465410 134.3243080
 147.5210480  74.9680630 133.3839530 137.0776890  72.4150220 136.1060580
 137.4193700  73.2592270 135.8114450 136.1392700  72.5633960 136.2225920
 137.8583510  82.3116240 138.0912810 138.4757510  82.9867320 137.8097260
 136.9976630  82.7204220 138.0000310 133.1515850  81.5016100 126.9719660
 132.7743830  81.9903200 126.2404560 133.4088920  82.1741380 127.6026190
 148.7761100  83.7755650 136.0067450 148.0924620  84.4454760 135.9984120
 149.3155390  83.9736300 135.2412310 140.7604780  69.9032490 132.4305170
 141.0679760  69.3479380 131.7140670 139.8305480  70.0376950 132.2478160
 146.3119840  85.6199780 134.7212630 146.3247000  85.2162070 133.8534890
 145.7595060  86.3947070 134.6174060 147.6065260  82.3416000 129.8102800
 147.4961590  81.3990330 129.9352220 147.6033510  82.7031640 130.6965560
 145.7105280  80.5229620 136.0495240 146.1274070  80.3089730 135.2148700
 146.4345100  80.7802410 136.6203860 143.1485540  77.9681320 129.1665290
 142.2214820  77.9018700 129.3953760 143.3010360  78.9061450 129.0520530
 143.1354620  74.2398320 126.1632450 142.1958290  74.4012280 126.2484910
 143.4537880  74.9584000 125.6168440 149.6567380  78.9216840 136.1411480
 148.8286010  78.9909930 135.6661610 150.2517860  79.5071150 135.6727310
 147.1782830  79.5301620 129.6700540 146.5595250  79.1921170 129.0226840
 147.1607280  78.8861380 130.3779730 146.6209390  75.7086160 137.0866350
 146.2080570  76.5339870 137.3406340 145.8885340  75.1231200 136.8942710
 138.7542180  78.4946060 131.9485020 138.3499180  77.7823310 131.4530920
 138.8405300  78.1499300 132.8373060 139.2223880  82.1813620 134.1124230
 138.9252170  81.5759090 133.4332010 140.1723700  82.2190930 134.0013590
 137.4670800  75.2689270 135.7284060 138.0185390  75.3784610 134.9537310
 137.9814310  75.6426870 136.4439290 147.3109490  85.7545490 137.7747330
 146.8340050  86.5617680 137.5819940 146.6271280  85.1023820 137.9273540
 138.3142310  81.9195310 140.7632030 137.4170840  82.1435280 141.0105430
 138.3395180  82.0430250 139.8143430 145.3547530  78.7688430 126.6773290
 145.7940810  77.9310860 126.5311110 146.0675950  79.4017830 126.7637430
 137.1413530  78.7908630 139.3389400 137.0021300  79.6631430 139.7076800
 136.2594890  78.4481440 139.1937340 143.4642910  83.7084500 130.6454530
 143.9038820  84.4508830 130.2309920 143.4029800  83.9511070 131.5693490
 138.9393880  84.7330330 141.5474550 138.9109310  85.1373280 140.6802980
 138.7758850  83.8040690 141.3846150 148.9364670  70.0231240 124.9914330
 148.6237330  70.1158070 125.8913400 149.6977140  70.6012270 124.9411760
 135.4546810  77.3891040 129.4491670 135.3344410  78.1153130 128.8372940
 135.1447700  76.6193950 128.9719580 133.0932180  80.5606180 135.2560310
 133.1712600  80.6954950 134.3116030 133.7073860  79.8522070 135.4488430
 134.3379810  82.2606370 131.6666490 133.9307890  82.4020960 130.8120090
 135.2292820  81.9766530 131.4637700 150.2941950  82.7070280 140.0038730
 150.4205010  82.4682160 139.0855910 150.3363330  81.8754820 140.4760810
 144.1558690  86.4098280 138.5733540 144.6703360  86.3206290 139.3755970
 143.3127770  86.7557980 138.8661450 146.1313090  86.6953620 128.0017540
 145.9714230  86.4056560 128.8999370 145.9659800  85.9193750 127.4662770
 138.6101470  86.4752150 129.7789160 138.4343950  85.5587690 129.5656960
 137.7557210  86.8339440 130.0186960 145.8339220  84.2041180 126.5615540
 145.1404380  84.2018470 125.9017820 146.5762080  83.7800500 126.1309710
 145.3989150  85.8303890 130.6364030 145.8546100  85.0493270 130.9502650
 145.7381670  86.5410710 131.1805210 150.1465960  74.7602740 140.9688470
 149.5310230  75.2682410 140.4403930 149.8262380  73.8601070 140.9114410
 133.1491700  81.6020350 137.7954770 133.3122740  81.1325710 136.9774140
 133.6144150  81.0943910 138.4603610 137.9210470  70.7326110 132.8315340
 137.4778620  71.5135650 132.4999860 138.4795460  71.0556000 133.5386280
 142.2080280  73.5994630 138.4350660 141.7459650  73.8077650 139.2470600
 141.8058390  72.7853980 138.1321330 147.2084790  74.8203580 139.5647320
 146.3578380  74.5209330 139.8856390 147.0486580  75.0645590 138.6531140
 144.3034500  76.3205330 141.6646110 144.6287910  75.4869080 141.3248340
 145.0914830  76.8433850 141.8124440 141.0369290  70.3536810 127.7121170
 140.4123470  70.3496680 128.4374480 140.9499410  69.4867770 127.3157140
 139.9586370  71.2773440 134.6904940 140.2558700  72.1836270 134.6096960
 140.5071930  70.7892220 134.0764510 137.7124690  75.8559680 130.5596590
 137.4865610  75.6396850 131.4643210 136.9317220  76.2888140 130.2142560
 144.9422450  75.8623050 129.1587240 144.3431340  76.5858850 128.9750860
 145.4902060  75.7999830 128.3763690 140.1523900  76.7545260 141.2256860
 140.0567500  75.8139990 141.0757260 140.9955880  76.9760330 140.8304930
 143.5487320  74.4986590 131.1890520 143.9416890  74.8158790 130.3759210
 143.9104170  73.6198470 131.3035040 135.2834440  73.1658930 139.3790640
 134.8897830  74.0134140 139.5863420 134.5952840  72.5285300 139.5699280
 141.8579490  73.2493900 142.4487380 141.1677810  73.0566100 143.0833470
 142.6011790  73.5328540 142.9811680 132.5851490  71.0887390 133.4120720
 132.2964540  71.6590250 134.1245700 133.3297250  70.6091840 133.7751950
 132.7721720  75.0307510 124.6223440 132.6896390  75.9738270 124.7638430
 132.4204780  74.8882420 123.7435790 144.1342460  77.0892340 135.2841300
 143.4023580  77.5979150 135.6331400 143.7366800  76.2722320 134.9830080
 140.5719850  73.7646540 133.6893790 140.5755910  73.3236490 132.8398330
 141.4670970  74.0863870 133.7965610 136.4222230  73.6473030 132.6488000
 136.0822280  74.1248260 133.4055050 135.6599550  73.1938150 132.2889100
 140.6340000  74.7658620 126.6800550 140.7552820  74.7245100 127.6286370
 140.2488510  75.6282770 126.5247280 144.5968370  72.5426020 134.6964240
 144.6141110  72.9934670 135.5406090 144.3483950  71.6431660 134.9097680
 139.6461500  77.0759760 126.0783850 139.0778400  76.6278010 125.4519760
 140.3550500  77.4352540 125.5449000 148.0239120  69.9558200 140.5350620
 148.3484890  69.2247860 141.0608600 148.0595630  69.6371840 139.6331610
 134.7230680  80.9771780 139.9550580 134.3385470  80.3365450 140.5533540
 135.0342870  81.6807900 140.5245310 140.8727820  77.8248320 135.4359200
 141.2397950  77.3506890 136.1820540 140.6832880  78.6989890 135.7767540
 133.7368310  72.5692010 131.5652670 133.4515230  72.2047680 132.4031290
 133.6747170  71.8372470 130.9515810 138.6627190  76.8656960 137.7543410
 138.3584260  77.7448940 137.9793770 139.6173650  76.9256750 137.7900850
 137.1908980  81.0717950 128.3510260 136.4171240  80.5315570 128.1908980
 137.9203610  80.5524560 128.0128020 147.9496960  80.0683310 134.1436650
 148.6696080  80.5638600 133.7532760 147.7478780  79.3901200 133.4990520
 143.4106900  71.4621270 128.2866040 142.5971510  70.9634440 128.2111350
 143.2168850  72.3019520 127.8702390 143.3315760  80.1392370 140.0305650
 143.2653070  79.2188040 139.7763240 142.7020900  80.2367810 140.7450290
 146.1255290  75.8340920 126.5828200 147.0134910  76.1458150 126.4079540
 146.0960380  74.9613170 126.1908780 137.2346380  80.7398330 131.9889070
 137.7525050  79.9366590 131.9345960 136.7830400  80.6777470 132.8305900
 142.1215880  82.0064610 127.2616370 142.4631580  82.7506840 126.7659690
 141.2928590  82.3195730 127.6241200 134.7190920  77.7059700 138.9014770
 134.3605860  78.3713550 139.4888110 134.4245480  76.8743250 139.2727390
 137.9204040  78.1643940 141.7854320 137.6204180  78.3101120 140.8882140
 138.6915280  77.6049230 141.6927710 143.2632490  82.9612940 139.7809450
 143.2777030  82.0293900 139.5628360 142.5557590  83.0472700 140.4199220
 148.3969560  77.1452760 126.0508060 148.3133280  77.5766980 125.2004500
 149.1163750  77.6051110 126.4834880 149.4743700  79.6020280 139.1278030
 148.7491890  80.1949060 138.9307420 150.0019160  79.5943820 138.3291400
 149.4256810  83.9995020 128.7790190 148.7832970  83.3450640 129.0533910
 149.0387470  84.4050110 128.0030860 145.0043290  81.3280450 132.6261880
 145.3567110  80.7308580 131.9663250 144.1205620  81.0024680 132.7970130
 141.0906570  82.0878140 130.0332290 141.7777700  82.6347350 130.4139880
 140.3038990  82.6318870 130.0681900 133.2298970  77.7050960 125.5249370
 134.0993820  77.9875760 125.8085290 132.7389290  78.5186830 125.4098180
 140.3933780  79.0924170 129.6457650 140.8496560  79.9029420 129.8717840
 140.0421990  78.7747310 130.4776140 142.6966390  84.6030510 136.8749950
 143.3408610  84.8089890 137.5523370 143.0595830  83.8418910 136.4220800
 136.2945560  69.4361820 130.1180170 136.1660190  69.4279720 131.0665090
 135.4707580  69.7744910 129.7671180 143.9698470  82.6062860 135.5927400
 144.6120700  81.9056020 135.7059570 144.4947820  83.3861300 135.4124290
 147.8154190  82.8911480 125.3166540 147.5891770  82.1741920 125.9091180
 147.4250390  82.6423920 124.4788290 145.7436090  83.4057760 138.7963460
 146.0792330  83.9924450 139.4741380 144.8236430  83.2750470 139.0261250
 133.5970220  86.9178340 126.0911000 133.9567860  87.5167680 125.4368270
 133.4562560  87.4638230 126.8646030 133.2939490  71.1952940 139.5786870
 132.5798010  71.3949860 140.1839480 133.7134530  70.4192510 139.9501670
 147.3970440  80.8083420 126.9780700 147.1092140  81.2696110 127.7658580
 148.1922610  80.3481190 127.2464920 133.5812080  85.1833200 140.5653400
 133.6903200  84.2427940 140.4248790 132.9292640  85.4487950 139.9167130
 141.5724670  83.4549090 141.9651520 141.2521540  82.7358330 142.5097210
 140.8983030  84.1304160 142.0387580 139.6138840  84.3009540 126.9084670
 139.6048940  85.0339230 126.2929180 138.6937200  84.0541120 127.0011630
 135.2145480  79.5224430 127.6531430 134.6073430  80.2623330 127.6626730
 135.6894830  79.6123790 126.8269630 144.7878270  73.6875250 137.3288320
 145.1559090  72.8670460 137.6567890 143.9276470  73.7477140 137.7443970
 148.1540300  72.6432190 128.1375880 147.5253460  72.7477860 127.4234110
 147.6592220  72.8628970 128.9269760 142.5998440  84.3637780 125.5709860
 142.7010420  84.1601770 124.6411840 141.7000180  84.1096060 125.7757640
 140.1224330  74.9218140 129.5533760 139.4140480  75.3904480 129.9947370
 140.4068810  74.2640150 130.1878950 141.7480260  76.3414840 137.5526290
 142.2465510  76.8160660 138.2178140 141.8903210  75.4178360 137.7596320
 144.1539760  71.6468800 130.9929550 144.0307540  71.6654930 130.0439060
 145.1024320  71.6947740 131.1127950 141.2416550  86.8824100 130.2657530
 141.4958050  86.8445490 129.3436900 140.2929030  86.7557430 130.2585780
 138.3259350  73.2303220 126.9284470 139.1749880  73.6673370 126.8624660
 137.9590620  73.5423480 127.7556530 148.9547120  72.5582800 138.3954680
 148.4520720  73.2988200 138.7348490 149.7703780  72.9466800 138.0791470
 147.2469130  77.8015980 131.8416040 146.3059270  77.8166210 132.0163730
 147.5613200  77.0151940 132.2876340 137.2250770  79.4835580 125.4020000
 137.9914040  79.3716940 125.9645430 137.3025460  78.7873550 124.7496770
 135.9197530  76.9160650 126.0852890 136.0001120  75.9688160 126.1970290
 136.8117280  77.2467530 126.1913550 149.2494710  84.9724830 133.5170300
 149.3742130  85.7956000 133.9894110 150.1160270  84.7615560 133.1694450
 136.7212240  87.0656040 133.1887430 137.4574720  86.5171500 133.4596000
 137.1053160  87.9312050 133.0493420 133.6057720  83.1329610 129.0628940
 132.6797500  83.3750750 129.0534350 134.0714150  83.9603870 128.9413690
 135.7270520  86.2502110 142.3773010 136.5283250  86.5714160 142.7908410
 135.2122340  85.8897690 143.0992920 139.8314550  86.2386350 125.0113000
 140.6243160  86.5275180 124.5594790 139.3118900  85.8078520 124.3325480
 144.5635150  82.3581980 142.3248420 143.9573310  82.3813580 141.5844170
 144.2589260  81.6265020 142.8615670 145.9935520  86.0862270 140.9357830
 146.9457270  86.0020290 140.8858070 145.8463740  86.7503980 141.6091620
 148.8844720  85.4656480 126.4349740 148.5986230  85.0521620 125.6203920
 148.6864270  86.3944190 126.3150260 133.4468330  78.7375570 141.3209060
 133.9507350  78.1582850 141.8925290 132.7075750  79.0215800 141.8585430
 140.3491950  81.4589760 124.8755350 140.2442590  80.8442110 125.6016730
 140.1816170  80.9355650 124.0918360 140.5006270  80.1446560 140.8544580
 139.7351940  80.7131560 140.7699250 140.6822230  79.8522770 139.9612810
 143.5894680  80.5209790 125.4797340 143.0404780  80.9679090 126.1240080
 144.2113940  80.0159040 126.0035010 147.6429620  81.8751890 141.4119600
 148.3839090  82.2127650 140.9087060 146.8802300  82.0443950 140.8589370
 135.4791410  76.8805160 142.2159130 135.5196750  76.5819030 143.1244360
 136.3336910  77.2812770 142.0566650 139.2569800  79.4800710 127.3762640
 139.6786220  79.3140580 128.2194030 139.3820640  78.6700940 126.8817780
 137.4197220  75.4597260 140.1833620 136.8893680  74.9688210 139.5556960
 138.0885290  75.8881460 139.6491550 141.7697440  78.5038320 124.6239740
 142.2903100  77.7887340 124.2580890 142.4165840  79.1424190 124.9240250
 146.3175280  79.9266720 139.9474810 146.7316300  80.0811800 140.7965230
 145.3826280  80.0521940 140.1100590 146.7897450  77.2662880 141.9513960
 147.3718220  76.5115200 141.8634440 146.9659220  77.7970320 141.1745440
 137.9069520  72.4259630 140.2630910 137.8126390  71.8080380 139.5381780
 137.3266910  73.1525920 140.0360820 140.6730960  70.9832870 137.2958300
 140.2248260  71.0057130 136.4503850 140.0396160  70.5851890 137.8928600
 141.0790510  79.8787200 137.9170740 141.4978620  80.7219930 137.7446980
 140.1599140  80.0159240 137.6877520 143.4154410  77.6103380 139.3008580
 143.5350620  77.0144520 140.0403420 144.2748410  77.6473070 138.8809880
 145.7542310  78.1640570 137.8771090 145.2277530  78.6883190 137.2736230
 146.0973650  78.7967960 138.5080820 138.1528700  75.5533940 124.3220800
 137.9517760  74.6901300 124.6834140 137.9820750  75.4667300 123.3842400
 138.9297930  86.1840210 139.0328470 138.3919020  86.9086270 138.7137170
 139.1831890  85.7070550 138.2425810 140.1823180  74.1524730 140.5584400
 140.7722870  73.8440580 141.2462220 139.3643420  73.6804480 140.7144300
 145.0016610  73.7690540 140.7917420 144.3132130  73.1072080 140.7267410
 145.7222630  73.3228810 141.2365880 145.6317010  70.3642170 126.8507680
 145.9119300  69.5210070 127.2067100 144.8582740  70.5965280 127.3646430
 136.9511500  72.6534560 124.3098680 137.2537400  72.6601990 123.4017830
 137.6906090  72.3032420 124.8066340 141.7860140  87.4191420 139.2915120
 141.7118840  88.3226560 139.5987490 140.8838980  87.1003320 139.2637190
 140.1696430  71.5969180 125.2954880 139.8218430  70.9193170 124.7157330
 140.3709200  71.1358690 126.1098270 142.3345470  86.5849930 126.9141480
 143.2296260  86.9234900 126.9360240 142.3663100  85.8629340 126.2865760
 135.9741630  81.9576980 125.1428480 136.4116500  82.5006650 125.7986060
 136.4589360  81.1323930 125.1524820 133.1887430  84.7466010 132.5948740
 133.5190440  83.8787070 132.3627380 133.6178430  84.9524530 133.4253700
 137.7849350  83.0775020 130.2550710 137.4844890  82.9539990 131.1554620
 137.6786840  82.2183610 129.8466440 133.6777640  85.6136600 135.3330370
 133.2408630  85.7937400 136.1654520 134.2455320  86.3711220 135.1912090
 149.3139820  85.1153600 139.6207680 148.7141810  85.1746160 138.8771600
 149.4433720  84.1758580 139.7504530 133.5102070  78.1256830 131.6919250
 132.8550910  77.8568470 131.0478950 134.3480020  78.0161310 131.2421230
 147.9991460  81.8405580 137.7183840 147.1851300  82.2702740 137.9809630
 148.4065660  82.4523990 137.1052890 150.0616900  79.8953270 124.6184110
 150.3365740  80.8032150 124.4903330 149.8727640  79.8315800 125.5546100
 146.4592510  72.9198120 125.9137740 146.8777390  72.7329100 125.0734400
 146.1528570  72.0677170 126.2240670 149.9582240  77.8322260 129.6113540
 149.5825840  77.0650190 129.1794830 149.2285360  78.2144960 130.0988470
 134.5478000  78.5109400 136.2322590 134.9151040  78.4236800 137.1118610
 133.9788820  77.7475950 136.1329450 149.3481860  76.9793780 139.2453060
 149.1167950  76.7506530 138.3451010 149.6086410  77.8993330 139.1997950
 134.0994000  75.4218490 140.1381010 133.2050050  75.3885250 140.4774720
 134.6391550  75.6205280 140.9032260 147.7869930  72.2050210 142.0232760
 148.6640110  72.2133610 142.4066760 147.7990770  71.4681050 141.4125110
 132.7240150  75.3355760 127.6344580 131.8204230  75.5985960 127.4596240
 133.2080770  75.6066930 126.8544540 149.2333200  76.0579750 132.9120780
 149.7570680  75.5642400 132.2810950 149.8192620  76.1930110 133.6568350
 149.4122920  76.1419620 136.4340330 148.4625630  76.1083160 136.5485320
 149.5935930  77.0519730 136.1990100 135.2667360  74.3921300 125.5438960
 135.9759060  73.9704520 125.0586240 134.5507300  74.4596530 124.9122310
 134.9141520  70.4460630 124.5841610 135.6369650  70.9869570 124.9022830
 135.1866040  70.1724050 123.7083150 148.7233170  75.3153100 128.8513190
 149.2192290  75.0823970 129.6362070 148.5249240  74.4764940 128.4350830
 134.6033710  69.6966820 134.4864230 135.2509900  69.1464200 134.0459390
 135.0235550  69.9509970 135.3080040 148.4986050  69.8908180 137.8433870
 149.1358270  70.5042320 138.2093060 148.6460940  69.9268840 136.8983100
 148.0567510  86.5924180 131.2452110 148.6526580  86.2708750 130.5686530
 148.3145660  86.1196000 132.0365380 134.3565710  69.8522490 137.2289550
 134.0080530  70.3086310 137.9947730 134.0253410  68.9579620 137.3111980
 135.9630080  83.0242090 141.3942740 135.9199710  82.6535000 142.2757200
 136.0941090  83.9619660 141.5344560 139.6636110  84.5801680 136.9952460
 139.4227470  84.8476240 136.1082980 140.6038750  84.7507410 137.0503320
 141.8690530  71.0434370 140.7508970 141.8079420  71.6356200 141.5004380
 142.8090910  70.9360330 140.6059230 144.5065090  70.7004430 140.3901260
 145.1205500  71.0183720 139.7282340 145.0514650  70.2153020 141.0097120
 135.0286350  69.3798690 140.5040320 135.5769340  69.1986740 139.7406430
 135.0941660  68.5892800 141.0396630 135.8018110  85.9704340 138.5140520
 135.2078430  85.8389040 139.2530560 135.7941950  85.1342480 138.0482620
 145.2473130  69.2636570 136.7170550 144.3732970  69.5971680 136.5143480
 145.1383880  68.7909750 137.5422420 146.1545110  71.4707440 138.1012270
 145.8258470  70.6559200 137.7214000 147.1027410  71.4277250 137.9777960
 148.6079720  87.2419480 135.0749840 148.1482690  87.9935290 134.7007860
 147.9792180  86.5225950 135.0164640 135.4330340  83.3362720 137.4648560
 134.7064400  82.7168010 137.3974510 135.4939490  83.7303330 136.5946640
 139.0375440  85.5507720 134.2497970 139.5540460  84.9395080 133.7246230
 139.6872820  86.0536500 134.7408980 141.7770940  86.4416210 135.0766950
 142.0648750  86.1870510 134.1999960 142.2894160  85.8893570 135.6672520
 142.9947950  70.1806410 135.6563460 142.2119740  70.6551910 135.9360220
 142.7010880  69.2761240 135.5476640 147.5469020  70.8829510 133.7012550
 147.9877110  70.8274610 132.8534150 147.2776610  71.7987520 133.7722730
 149.4107590  70.5144750 131.7121370 149.3495990  69.5705970 131.5652390
 150.1899620  70.6224840 132.2574830 133.7160340  86.6537110 130.6745320
 133.5482380  86.0207790 131.3727210 132.8494850  86.8596510 130.3239510
 134.3388360  70.4853890 128.1777180 135.0967720  70.5982770 127.6041210
 133.8765530  71.3223090 128.1320610 140.8802170  72.5993160 131.1679490
 140.0676680  72.2250050 130.8275370 141.3843810  71.8438240 131.4700680
 145.3827150  69.2635610 132.4062560 145.9856520  69.8355820 132.8811080
 144.6420140  69.8275050 132.1836460 148.5261750  69.6657170 127.6802840
 148.7212380  70.5640620 127.9470270 147.7391620  69.4344250 128.1735790
 135.3223040  85.3470340 128.1195460 134.7970660  85.7278370 127.4157420
 135.2467620  85.9721110 128.8405170 136.7113510  71.0117940 126.7179150
 137.2406270  70.2247740 126.5887100 137.3441830  71.6909130 126.9514680
 138.9051350  70.7493080 129.7724540 138.2754090  70.0480390 129.9394670
 138.3656490  71.5097210 129.5557700 141.8443300  87.3632310 142.4435150
 142.7710610  87.1276580 142.4871110 141.8293730  88.1904310 141.9621180
 150.0788360  86.9057880 129.4409400 150.2540550  86.2195620 128.7970320
 149.3809930  87.4304930 129.0486070 139.0306910  70.0277060 142.2077030
 138.7491180  70.5310660 141.4437850 139.4126610  69.2298810 141.8419160
 137.9216010  87.2952720 126.9944710 138.6534830  87.0112000 126.4468600
 138.1809680  87.0566000 127.8844090 137.0830800  83.4117450 126.9991040
 136.4539680  83.8802550 127.5476870 137.1978630  82.5666670 127.4337230
 145.6322370  69.4430640 142.7857500 145.5187820  69.7625250 143.6809020
 146.4492110  69.8443150 142.4894780 148.4120860  86.5902170 142.2676190
 149.2046180  86.0951400 142.0602150 148.7054010  87.2692310 142.8751800
 144.5380520  77.4623110 113.1492240 144.4574570  76.5477720 112.8783950
 144.1244940  77.9590180 112.4431950 142.6698560  79.2402130 115.0301510
 141.8940660  78.7602570 115.3200080 143.3211490  78.5607780 114.8557670
 136.6864390  79.5521940 115.9077270 135.8549270  79.2970650 116.3073780
 137.2945370  79.6232710 116.6435190 146.6905990  83.6462320 113.8100640
 146.2287520  82.8749560 114.1387810 147.5031540  83.6728390 114.3153090
 136.6665650  83.5862030 116.1035290 136.9693690  82.6959770 115.9245510
 137.4109240  84.1432250 115.8757540 135.0956340  74.5123830 109.6919660
 134.2073040  74.8539800 109.5899540 135.3797530  74.3124150 108.8000490
 142.9169300  85.9320330 113.4304630 142.2980740  86.3877830 112.8599070
 143.7721080  86.0871790 113.0294330 142.1107550  81.9159320 115.0371670
 142.0415830  80.9749260 114.8760800 142.8727410  82.0060730 115.6094240
 134.3014220  72.5213840 117.3628290 134.1217060  71.6239590 117.6431050
 133.8994300  73.0685710 118.0375240 143.1412720  74.7229700 115.2640600
 143.5177540  73.8501580 115.1514270 143.0432230  75.0588400 114.3731040
 137.2717730  73.0955330 110.7258040 137.3784480  73.9959060 111.0326800
 136.3610090  73.0473300 110.4352690 146.9236840  72.2180140 112.1968940
 147.7446460  71.7276710 112.2394420 146.9570920  72.8077800 112.9500780
 134.9200890  75.0174340 115.9710630 135.6011000  75.2812710 116.5898030
 134.6048940  74.1775210 116.3048640 139.1125460  76.0641700 115.0583220
 139.6203680  76.5622670 115.6988240 139.6438700  75.2876900 114.8822580
 137.3961560  70.7040260 119.3246640 137.3980000  71.2212650 118.5192540
 136.5665870  70.2270440 119.3016570 143.7832650  80.8159570 110.8236540
 143.1649920  81.2809020 110.2599260 144.2955900  81.5087050 111.2406050
 138.6464410  80.3435440 117.5020140 138.3133790  80.9704360 118.1441210
 138.8231090  80.8697320 116.7221810 147.1598320  74.1580520 114.9696480
 146.4553890  74.4465410 115.5499590 147.5210480  74.9680630 114.6096040
 137.0776890  72.4150220 117.3317090 137.4193700  73.2592270 117.0370960
 136.1392700  72.5633960 117.4482430 137.8583510  82.3116240 119.3169320
 138.4757510  82.9867320 119.0353770 136.9976630  82.7204220 119.2256820
 148.7761100  83.7755650 117.2323960 148.0924620  84.4454760 117.2240630
 149.3155390  83.9736300 116.4668820 140.7604780  69.9032490 113.6561680
 141.0679760  69.3479380 112.9397180 139.8305480  70.0376950 113.4734670
 146.3119840  85.6199780 115.9469140 146.3247000  85.2162070 115.0791400
 145.7595060  86.3947070 115.8430570 147.6065260  82.3416000 111.0359310
 147.4961590  81.3990330 111.1608730 147.6033510  82.7031640 111.9222070
 145.7105280  80.5229620 117.2751750 146.1274070  80.3089730 116.4405210
 146.4345100  80.7802410 117.8460370 143.1485540  77.9681320 110.3921800
 142.2214820  77.9018700 110.6210270 143.3010360  78.9061450 110.2777040
 143.1354620  74.2398320 107.3888960 142.1958290  74.4012280 107.4741420
 143.4537880  74.9584000 106.8424950 149.6567380  78.9216840 117.3667990
 148.8286010  78.9909930 116.8918120 150.2517860  79.5071150 116.8983820
 147.1782830  79.5301620 110.8957050 146.5595250  79.1921170 110.2483350
 147.1607280  78.8861380 111.6036240 146.6209390  75.7086160 118.3122860
 146.2080570  76.5339870 118.5662850 145.8885340  75.1231200 118.1199220
 138.7542180  78.4946060 113.1741530 138.3499180  77.7823310 112.6787430
 138.8405300  78.1499300 114.0629570 139.2223880  82.1813620 115.3380740
 138.9252170  81.5759090 114.6588520 140.1723700  82.2190930 115.2270100
 137.4670800  75.2689270 116.9540570 138.0185390  75.3784610 116.1793820
 137.9814310  75.6426870 117.6695800 147.3109490  85.7545490 119.0003840
 146.8340050  86.5617680 118.8076450 146.6271280  85.1023820 119.1530050
 138.3142310  81.9195310 121.9888540 137.4170840  82.1435280 122.2361940
 138.3395180  82.0430250 121.0399940 145.3547530  78.7688430 107.9029800
 145.7940810  77.9310860 107.7567620 146.0675950  79.4017830 107.9893940
 137.1413530  78.7908630 120.5645910 137.0021300  79.6631430 120.9333310
 136.2594890  78.4481440 120.4193850 143.4642910  83.7084500 111.8711040
 143.9038820  84.4508830 111.4566430 143.4029800  83.9511070 112.7950000
 138.9393880  84.7330330 122.7731060 138.9109310  85.1373280 121.9059490
 138.7758850  83.8040690 122.6102660 148.9364670  70.0231240 106.2170840
 148.6237330  70.1158070 107.1169910 149.6977140  70.6012270 106.1668270
 135.4546810  77.3891040 110.6748180 135.3344410  78.1153130 110.0629450
 135.1447700  76.6193950 110.1976090 134.3379810  82.2606370 112.8923000
 133.9307890  82.4020960 112.0376600 135.2292820  81.9766530 112.6894210
 150.2941950  82.7070280 121.2295240 150.4205010  82.4682160 120.3112420
 150.3363330  81.8754820 121.7017320 144.1558690  86.4098280 119.7990050
 144.6703360  86.3206290 120.6012480 143.3127770  86.7557980 120.0917960
 146.1313090  86.6953620 109.2274050 145.9714230  86.4056560 110.1255880
 145.9659800  85.9193750 108.6919280 138.6101470  86.4752150 111.0045670
 138.4343950  85.5587690 110.7913470 137.7557210  86.8339440 111.2443470
 145.8339220  84.2041180 107.7872050 145.1404380  84.2018470 107.1274330
 146.5762080  83.7800500 107.3566220 145.3989150  85.8303890 111.8620540
 145.8546100  85.0493270 112.1759160 145.7381670  86.5410710 112.4061720
 150.1465960  74.7602740 122.1944980 149.5310230  75.2682410 121.6660440
 149.8262380  73.8601070 122.1370920 133.1491700  81.6020350 119.0211280
 133.3122740  81.1325710 118.2030650 133.6144150  81.0943910 119.6860120
 137.9210470  70.7326110 114.0571850 137.4778620  71.5135650 113.7256370
 138.4795460  71.0556000 114.7642790 142.2080280  73.5994630 119.6607170
 141.7459650  73.8077650 120.4727110 141.8058390  72.7853980 119.3577840
 147.2084790  74.8203580 120.7903830 146.3578380  74.5209330 121.1112900
 147.0486580  75.0645590 119.8787650 144.3034500  76.3205330 122.8902620
 144.6287910  75.4869080 122.5504850 145.0914830  76.8433850 123.0380950
 141.0369290  70.3536810 108.9377680 140.4123470  70.3496680 109.6630990
 140.9499410  69.4867770 108.5413650 139.9586370  71.2773440 115.9161450
 140.2558700  72.1836270 115.8353470 140.5071930  70.7892220 115.3021020
 137.7124690  75.8559680 111.7853100 137.4865610  75.6396850 112.6899720
 136.9317220  76.2888140 111.4399070 144.9422450  75.8623050 110.3843750
 144.3431340  76.5858850 110.2007370 145.4902060  75.7999830 109.6020200
 140.1523900  76.7545260 122.4513370 140.0567500  75.8139990 122.3013770
 140.9955880  76.9760330 122.0561440 143.5487320  74.4986590 112.4147030
 143.9416890  74.8158790 111.6015720 143.9104170  73.6198470 112.5291550
 135.2834440  73.1658930 120.6047150 134.8897830  74.0134140 120.8119930
 134.5952840  72.5285300 120.7955790 141.8579490  73.2493900 123.6743890
 141.1677810  73.0566100 124.3089980 142.6011790  73.5328540 124.2068190
 132.5851490  71.0887390 114.6377230 132.2964540  71.6590250 115.3502210
 133.3297250  70.6091840 115.0008460 132.7721720  75.0307510 105.8479950
 132.6896390  75.9738270 105.9894940 132.4204780  74.8882420 104.9692300
 144.1342460  77.0892340 116.5097810 143.4023580  77.5979150 116.8587910
 143.7366800  76.2722320 116.2086590 140.5719850  73.7646540 114.9150300
 140.5755910  73.3236490 114.0654840 141.4670970  74.0863870 115.0222120
 136.4222230  73.6473030 113.8744510 136.0822280  74.1248260 114.6311560
 135.6599550  73.1938150 113.5145610 140.6340000  74.7658620 107.9057060
 140.7552820  74.7245100 108.8542880 140.2488510  75.6282770 107.7503790
 144.5968370  72.5426020 115.9220750 144.6141110  72.9934670 116.7662600
 144.3483950  71.6431660 116.1354190 139.6461500  77.0759760 107.3040360
 139.0778400  76.6278010 106.6776270 140.3550500  77.4352540 106.7705510
 148.0239120  69.9558200 121.7607130 148.3484890  69.2247860 122.2865110
 148.0595630  69.6371840 120.8588120 134.7230680  80.9771780 121.1807090
 134.3385470  80.3365450 121.7790050 135.0342870  81.6807900 121.7501820
 140.8727820  77.8248320 116.6615710 141.2397950  77.3506890 117.4077050
 140.6832880  78.6989890 117.0024050 133.7368310  72.5692010 112.7909180
 133.4515230  72.2047680 113.6287800 133.6747170  71.8372470 112.1772320
 138.6627190  76.8656960 118.9799920 138.3584260  77.7448940 119.2050280
 139.6173650  76.9256750 119.0157360 137.1908980  81.0717950 109.5766770
 136.4171240  80.5315570 109.4165490 137.9203610  80.5524560 109.2384530
 147.9496960  80.0683310 115.3693160 148.6696080  80.5638600 114.9789270
 147.7478780  79.3901200 114.7247030 143.4106900  71.4621270 109.5122550
 142.5971510  70.9634440 109.4367860 143.2168850  72.3019520 109.0958900
 143.3315760  80.1392370 121.2562160 143.2653070  79.2188040 121.0019750
 142.7020900  80.2367810 121.9706800 146.1255290  75.8340920 107.8084710
 147.0134910  76.1458150 107.6336050 146.0960380  74.9613170 107.4165290
 137.2346380  80.7398330 113.2145580 137.7525050  79.9366590 113.1602470
 136.7830400  80.6777470 114.0562410 142.1215880  82.0064610 108.4872880
 142.4631580  82.7506840 107.9916200 141.2928590  82.3195730 108.8497710
 134.7190920  77.7059700 120.1271280 134.3605860  78.3713550 120.7144620
 134.4245480  76.8743250 120.4983900 137.9204040  78.1643940 123.0110830
 137.6204180  78.3101120 122.1138650 138.6915280  77.6049230 122.9184220
 143.2632490  82.9612940 121.0065960 143.2777030  82.0293900 120.7884870
 142.5557590  83.0472700 121.6455730 148.3969560  77.1452760 107.2764570
 148.3133280  77.5766980 106.4261010 149.1163750  77.6051110 107.7091390
 149.4743700  79.6020280 120.3534540 148.7491890  80.1949060 120.1563930
 150.0019160  79.5943820 119.5547910 149.4256810  83.9995020 110.0046700
 148.7832970  83.3450640 110.2790420 149.0387470  84.4050110 109.2287370
 145.0043290  81.3280450 113.8518390 145.3567110  80.7308580 113.1919760
 144.1205620  81.0024680 114.0226640 141.0906570  82.0878140 111.2588800
 141.7777700  82.6347350 111.6396390 140.3038990  82.6318870 111.2938410
 133.2298970  77.7050960 106.7505880 134.0993820  77.9875760 107.0341800
 132.7389290  78.5186830 106.6354690 140.3933780  79.0924170 110.8714160
 140.8496560  79.9029420 111.0974350 140.0421990  78.7747310 111.7032650
 142.6966390  84.6030510 118.1006460 143.3408610  84.8089890 118.7779880
 143.0595830  83.8418910 117.6477310 136.2945560  69.4361820 111.3436680
 136.1660190  69.4279720 112.2921600 135.4707580  69.7744910 110.9927690
 143.9698470  82.6062860 116.8183910 144.6120700  81.9056020 116.9316080
 144.4947820  83.3861300 116.6380800 147.8154190  82.8911480 106.5423050
 147.5891770  82.1741920 107.1347690 147.4250390  82.6423920 105.7044800
 145.7436090  83.4057760 120.0219970 146.0792330  83.9924450 120.6997890
 144.8236430  83.2750470 120.2517760 133.2939490  71.1952940 120.8043380
 132.5798010  71.3949860 121.4095990 133.7134530  70.4192510 121.1758180
 147.3970440  80.8083420 108.2037210 147.1092140  81.2696110 108.9915090
 148.1922610  80.3481190 108.4721430 133.5812080  85.1833200 121.7909910
 133.6903200  84.2427940 121.6505300 132.9292640  85.4487950 121.1423640
 141.5724670  83.4549090 123.1908030 141.2521540  82.7358330 123.7353720
 140.8983030  84.1304160 123.2644090 139.6138840  84.3009540 108.1341180
 139.6048940  85.0339230 107.5185690 138.6937200  84.0541120 108.2268140
 144.7878270  73.6875250 118.5544830 145.1559090  72.8670460 118.8824400
 143.9276470  73.7477140 118.9700480 148.1540300  72.6432190 109.3632390
 147.5253460  72.7477860 108.6490620 147.6592220  72.8628970 110.1526270
 142.5998440  84.3637780 106.7966370 142.7010420  84.1601770 105.8668350
 141.7000180  84.1096060 107.0014150 140.1224330  74.9218140 110.7790270
 139.4140480  75.3904480 111.2203880 140.4068810  74.2640150 111.4135460
 141.7480260  76.3414840 118.7782800 142.2465510  76.8160660 119.4434650
 141.8903210  75.4178360 118.9852830 144.1539760  71.6468800 112.2186060
 144.0307540  71.6654930 111.2695570 145.1024320  71.6947740 112.3384460
 141.2416550  86.8824100 111.4914040 141.4958050  86.8445490 110.5693410
 140.2929030  86.7557430 111.4842290 138.3259350  73.2303220 108.1540980
 139.1749880  73.6673370 108.0881170 137.9590620  73.5423480 108.9813040
 148.9547120  72.5582800 119.6211190 148.4520720  73.2988200 119.9605000
 149.7703780  72.9466800 119.3047980 147.2469130  77.8015980 113.0672550
 146.3059270  77.8166210 113.2420240 147.5613200  77.0151940 113.5132850
 135.9197530  76.9160650 107.3109400 136.0001120  75.9688160 107.4226800
 136.8117280  77.2467530 107.4170060 149.2494710  84.9724830 114.7426810
 149.3742130  85.7956000 115.2150620 150.1160270  84.7615560 114.3950960
 136.7212240  87.0656040 114.4143940 137.4574720  86.5171500 114.6852510
 137.1053160  87.9312050 114.2749930 133.6057720  83.1329610 110.2885450
 132.6797500  83.3750750 110.2790860 134.0714150  83.9603870 110.1670200
 135.7270520  86.2502110 123.6029520 136.5283250  86.5714160 124.0164920
 135.2122340  85.8897690 124.3249430 139.8314550  86.2386350 106.2369510
 140.6243160  86.5275180 105.7851300 139.3118900  85.8078520 105.5581990
 144.5635150  82.3581980 123.5504930 143.9573310  82.3813580 122.8100680
 144.2589260  81.6265020 124.0872180 145.9935520  86.0862270 122.1614340
 146.9457270  86.0020290 122.1114580 145.8463740  86.7503980 122.8348130
 148.8844720  85.4656480 107.6606250 148.5986230  85.0521620 106.8460430
 148.6864270  86.3944190 107.5406770 133.4468330  78.7375570 122.5465570
 133.9507350  78.1582850 123.1181800 132.7075750  79.0215800 123.0841940
 140.3491950  81.4589760 106.1011860 140.2442590  80.8442110 106.8273240
 140.1816170  80.9355650 105.3174870 140.5006270  80.1446560 122.0801090
 139.7351940  80.7131560 121.9955760 140.6822230  79.8522770 121.1869320
 143.5894680  80.5209790 106.7053850 143.0404780  80.9679090 107.3496590
 144.2113940  80.0159040 107.2291520 147.6429620  81.8751890 122.6376110
 148.3839090  82.2127650 122.1343570 146.8802300  82.0443950 122.0845880
 135.4791410  76.8805160 123.4415640 135.5196750  76.5819030 124.3500870
 136.3336910  77.2812770 123.2823160 139.2569800  79.4800710 108.6019150
 139.6786220  79.3140580 109.4450540 139.3820640  78.6700940 108.1074290
 137.4197220  75.4597260 121.4090130 136.8893680  74.9688210 120.7813470
 138.0885290  75.8881460 120.8748060 141.7697440  78.5038320 105.8496250
 142.2903100  77.7887340 105.4837400 142.4165840  79.1424190 106.1496760
 146.3175280  79.9266720 121.1731320 146.7316300  80.0811800 122.0221740
 145.3826280  80.0521940 121.3357100 146.7897450  77.2662880 123.1770470
 147.3718220  76.5115200 123.0890950 146.9659220  77.7970320 122.4001950
 137.9069520  72.4259630 121.4887420 137.8126390  71.8080380 120.7638290
 137.3266910  73.1525920 121.2617330 140.6730960  70.9832870 118.5214810
 140.2248260  71.0057130 117.6760360 140.0396160  70.5851890 119.1185110
 141.0790510  79.8787200 119.1427250 141.4978620  80.7219930 118.9703490
 140.1599140  80.0159240 118.9134030 143.4154410  77.6103380 120.5265090
 143.5350620  77.0144520 121.2659930 144.2748410  77.6473070 120.1066390
 145.7542310  78.1640570 119.1027600 145.2277530  78.6883190 118.4992740
 146.0973650  78.7967960 119.7337330 138.1528700  75.5533940 105.5477310
 137.9517760  74.6901300 105.9090650 137.9820750  75.4667300 104.6098910
 138.9297930  86.1840210 120.2584980 138.3919020  86.9086270 119.9393680
 139.1831890  85.7070550 119.4682320 140.1823180  74.1524730 121.7840910
 140.7722870  73.8440580 122.4718730 139.3643420  73.6804480 121.9400810
 145.0016610  73.7690540 122.0173930 144.3132130  73.1072080 121.9523920
 145.7222630  73.3228810 122.4622390 145.6317010  70.3642170 108.0764190
 145.9119300  69.5210070 108.4323610 144.8582740  70.5965280 108.5902940
 136.9511500  72.6534560 105.5355190 137.2537400  72.6601990 104.6274340
 137.6906090  72.3032420 106.0322850 141.7860140  87.4191420 120.5171630
 141.7118840  88.3226560 120.8244000 140.8838980  87.1003320 120.4893700
 140.1696430  71.5969180 106.5211390 139.8218430  70.9193170 105.9413840
 140.3709200  71.1358690 107.3354780 142.3345470  86.5849930 108.1397990
 143.2296260  86.9234900 108.1616750 142.3663100  85.8629340 107.5122270
 133.1887430  84.7466010 113.8205250 133.5190440  83.8787070 113.5883890
 133.6178430  84.9524530 114.6510210 137.7849350  83.0775020 111.4807220
 137.4844890  82.9539990 112.3811130 137.6786840  82.2183610 111.0722950
 133.6777640  85.6136600 116.5586880 133.2408630  85.7937400 117.3911030
 134.2455320  86.3711220 116.4168600 149.3139820  85.1153600 120.8464190
 148.7141810  85.1746160 120.1028110 149.4433720  84.1758580 120.9761040
 147.9991460  81.8405580 118.9440350 147.1851300  82.2702740 119.2066140
 148.4065660  82.4523990 118.3309400 150.0616900  79.8953270 105.8440620
 150.3365740  80.8032150 105.7159840 149.8727640  79.8315800 106.7802610
 146.4592510  72.9198120 107.1394250 146.8777390  72.7329100 106.2990910
 146.1528570  72.0677170 107.4497180 149.9582240  77.8322260 110.8370050
 149.5825840  77.0650190 110.4051340 149.2285360  78.2144960 111.3244980
 134.5478000  78.5109400 117.4579100 134.9151040  78.4236800 118.3375120
 133.9788820  77.7475950 117.3585960 149.3481860  76.9793780 120.4709570
 149.1167950  76.7506530 119.5707520 149.6086410  77.8993330 120.4254460
 134.0994000  75.4218490 121.3637520 133.2050050  75.3885250 121.7031230
 134.6391550  75.6205280 122.1288770 147.7869930  72.2050210 123.2489270
 148.6640110  72.2133610 123.6323270 147.7990770  71.4681050 122.6381620
 132.7240150  75.3355760 108.8601090 131.8204230  75.5985960 108.6852750
 133.2080770  75.6066930 108.0801050 149.2333200  76.0579750 114.1377290
 149.7570680  75.5642400 113.5067460 149.8192620  76.1930110 114.8824860
 149.4122920  76.1419620 117.6596840 148.4625630  76.1083160 117.7741830
 149.5935930  77.0519730 117.4246610 135.2667360  74.3921300 106.7695470
 135.9759060  73.9704520 106.2842750 134.5507300  74.4596530 106.1378820
 134.9141520  70.4460630 105.8098120 135.6369650  70.9869570 106.1279340
 135.1866040  70.1724050 104.9339660 148.7233170  75.3153100 110.0769700
 149.2192290  75.0823970 110.8618580 148.5249240  74.4764940 109.6607340
 134.6033710  69.6966820 115.7120740 135.2509900  69.1464200 115.2715900
 135.0235550  69.9509970 116.5336550 148.4986050  69.8908180 119.0690380
 149.1358270  70.5042320 119.4349570 148.6460940  69.9268840 118.1239610
 148.0567510  86.5924180 112.4708620 148.6526580  86.2708750 111.7943040
 148.3145660  86.1196000 113.2621890 134.3565710  69.8522490 118.4546060
 134.0080530  70.3086310 119.2204240 134.0253410  68.9579620 118.5368490
 135.9630080  83.0242090 122.6199250 135.9199710  82.6535000 123.5013710
 136.0941090  83.9619660 122.7601070 139.6636110  84.5801680 118.2208970
 139.4227470  84.8476240 117.3339490 140.6038750  84.7507410 118.2759830
 141.8690530  71.0434370 121.9765480 141.8079420  71.6356200 122.7260890
 142.8090910  70.9360330 121.8315740 144.5065090  70.7004430 121.6157770
 145.1205500  71.0183720 120.9538850 145.0514650  70.2153020 122.2353630
 135.0286350  69.3798690 121.7296830 135.5769340  69.1986740 120.9662940
 135.0941660  68.5892800 122.2653140 135.8018110  85.9704340 119.7397030
 135.2078430  85.8389040 120.4787070 135.7941950  85.1342480 119.2739130
 145.2473130  69.2636570 117.9427060 144.3732970  69.5971680 117.7399990
 145.1383880  68.7909750 118.7678930 146.1545110  71.4707440 119.3268780
 145.8258470  70.6559200 118.9470510 147.1027410  71.4277250 119.2034470
 148.6079720  87.2419480 116.3006350 148.1482690  87.9935290 115.9264370
 147.9792180  86.5225950 116.2421150 135.4330340  83.3362720 118.6905070
 134.7064400  82.7168010 118.6231020 135.4939490  83.7303330 117.8203150
 139.0375440  85.5507720 115.4754480 139.5540460  84.9395080 114.9502740
 139.6872820  86.0536500 115.9665490 141.7770940  86.4416210 116.3023460
 142.0648750  86.1870510 115.4256470 142.2894160  85.8893570 116.8929030
 142.9947950  70.1806410 116.8819970 142.2119740  70.6551910 117.1616730
 142.7010880  69.2761240 116.7733150 147.5469020  70.8829510 114.9269060
 147.9877110  70.8274610 114.0790660 147.2776610  71.7987520 114.9979240
 149.4107590  70.5144750 112.9377880 149.3495990  69.5705970 112.7908900
 150.1899620  70.6224840 113.4831340 133.7160340  86.6537110 111.9001830
 133.5482380  86.0207790 112.5983720 132.8494850  86.8596510 111.5496020
 134.3388360  70.4853890 109.4033690 135.0967720  70.5982770 108.8297720
 133.8765530  71.3223090 109.3577120 140.8802170  72.5993160 112.3936000
 140.0676680  72.2250050 112.0531880 141.3843810  71.8438240 112.6957190
 145.3827150  69.2635610 113.6319070 145.9856520  69.8355820 114.1067590
 144.6420140  69.8275050 113.4092970 148.5261750  69.6657170 108.9059350
 148.7212380  70.5640620 109.1726780 147.7391620  69.4344250 109.3992300
 135.3223040  85.3470340 109.3451970 134.7970660  85.7278370 108.6413930
 135.2467620  85.9721110 110.0661680 136.7113510  71.0117940 107.9435660
 137.2406270  70.2247740 107.8143610 137.3441830  71.6909130 108.1771190
 138.9051350  70.7493080 110.9981050 138.2754090  70.0480390 111.1651180
 138.3656490  71.5097210 110.7814210 141.8443300  87.3632310 123.6691660
 142.7710610  87.1276580 123.7127620 141.8293730  88.1904310 123.1877690
 150.0788360  86.9057880 110.6665910 150.2540550  86.2195620 110.0226830
 149.3809930  87.4304930 110.2742580 139.0306910  70.0277060 123.4333540
 138.7491180  70.5310660 122.6694360 139.4126610  69.2298810 123.0675670
 137.9216010  87.2952720 108.2201220 138.6534830  87.0112000 107.6725110
 138.1809680  87.0566000 109.1100600 145.6322370  69.4430640 124.0114010
 145.5187820  69.7625250 124.9065530 146.4492110  69.8443150 123.7151290
 148.4120860  86.5902170 123.4932700 149.2046180  86.0951400 123.2858660
 148.7054010  87.2692310 124.1008310 144.5380520  77.4623110  94.3748750
 144.4574570  76.5477720  94.1040460 144.1244940  77.9590180  93.6688460
 142.6698560  79.2402130  96.2558020 141.8940660  78.7602570  96.5456590
 143.3211490  78.5607780  96.0814180 136.6864390  79.5521940  97.1333780
 135.8549270  79.2970650  97.5330290 137.2945370  79.6232710  97.8691700
 146.6905990  83.6462320  95.0357150 146.2287520  82.8749560  95.3644320
 147.5031540  83.6728390  95.5409600 136.6665650  83.5862030  97.3291800
 136.9693690  82.6959770  97.1502020 137.4109240  84.1432250  97.1014050
 135.0956340  74.5123830  90.9176170 134.2073040  74.8539800  90.8156050
 135.3797530  74.3124150  90.0257000 133.0589350  77.1129480  96.8015870
 133.6305460  76.3451680  96.8019510 133.0590890  77.4118240  95.8922480
 142.9169300  85.9320330  94.6561140 142.2980740  86.3877830  94.0855580
 143.7721080  86.0871790  94.2550840 142.1107550  81.9159320  96.2628180
 142.0415830  80.9749260  96.1017310 142.8727410  82.0060730  96.8350750
 134.3014220  72.5213840  98.5884800 134.1217060  71.6239590  98.8687560
 133.8994300  73.0685710  99.2631750 143.1412720  74.7229700  96.4897110
 143.5177540  73.8501580  96.3770780 143.0432230  75.0588400  95.5987550
 137.2717730  73.0955330  91.9514550 137.3784480  73.9959060  92.2583310
 136.3610090  73.0473300  91.6609200 146.9236840  72.2180140  93.4225450
 147.7446460  71.7276710  93.4650930 146.9570920  72.8077800  94.1757290
 134.9200890  75.0174340  97.1967140 135.6011000  75.2812710  97.8154540
 134.6048940  74.1775210  97.5305150 143.7832650  80.8159570  92.0493050
 143.1649920  81.2809020  91.4855770 144.2955900  81.5087050  92.4662560
 138.6464410  80.3435440  98.7276650 138.3133790  80.9704360  99.3697720
 138.8231090  80.8697320  97.9478320 147.1598320  74.1580520  96.1952990
 146.4553890  74.4465410  96.7756100 147.5210480  74.9680630  95.8352550
 137.8583510  82.3116240 100.5425830 138.4757510  82.9867320 100.2610280
 136.9976630  82.7204220 100.4513330 148.7761100  83.7755650  98.4580470
 148.0924620  84.4454760  98.4497140 149.3155390  83.9736300  97.6925330
 140.7604780  69.9032490  94.8818190 141.0679760  69.3479380  94.1653690
 139.8305480  70.0376950  94.6991180 146.3119840  85.6199780  97.1725650
 146.3247000  85.2162070  96.3047910 145.7595060  86.3947070  97.0687080
 147.6065260  82.3416000  92.2615820 147.4961590  81.3990330  92.3865240
 147.6033510  82.7031640  93.1478580 145.7105280  80.5229620  98.5008260
 146.1274070  80.3089730  97.6661720 146.4345100  80.7802410  99.0716880
 143.1485540  77.9681320  91.6178310 142.2214820  77.9018700  91.8466780
 143.3010360  78.9061450  91.5033550 143.1354620  74.2398320  88.6145470
 142.1958290  74.4012280  88.6997930 143.4537880  74.9584000  88.0681460
 149.6567380  78.9216840  98.5924500 148.8286010  78.9909930  98.1174630
 150.2517860  79.5071150  98.1240330 147.1782830  79.5301620  92.1213560
 146.5595250  79.1921170  91.4739860 147.1607280  78.8861380  92.8292750
 146.6209390  75.7086160  99.5379370 146.2080570  76.5339870  99.7919360
 145.8885340  75.1231200  99.3455730 138.7542180  78.4946060  94.3998040
 138.3499180  77.7823310  93.9043940 138.8405300  78.1499300  95.2886080
 139.2223880  82.1813620  96.5637250 138.9252170  81.5759090  95.8845030
 140.1723700  82.2190930  96.4526610 147.3109490  85.7545490 100.2260350
 146.8340050  86.5617680 100.0332960 146.6271280  85.1023820 100.3786560
 145.3547530  78.7688430  89.1286310 145.7940810  77.9310860  88.9824130
 146.0675950  79.4017830  89.2150450 137.1413530  78.7908630 101.7902420
 137.0021300  79.6631430 102.1589820 136.2594890  78.4481440 101.6450360
 143.4642910  83.7084500  93.0967550 143.9038820  84.4508830  92.6822940
 143.4029800  83.9511070  94.0206510 138.9393880  84.7330330 103.9987570
 138.9109310  85.1373280 103.1316000 138.7758850  83.8040690 103.8359170
 148.9364670  70.0231240  87.4427350 148.6237330  70.1158070  88.3426420
 149.6977140  70.6012270  87.3924780 135.4546810  77.3891040  91.9004690
 135.3344410  78.1153130  91.2885960 135.1447700  76.6193950  91.4232600
 133.0932180  80.5606180  97.7073330 133.1712600  80.6954950  96.7629050
 133.7073860  79.8522070  97.9001450 134.3379810  82.2606370  94.1179510
 133.9307890  82.4020960  93.2633110 135.2292820  81.9766530  93.9150720
 150.2941950  82.7070280 102.4551750 150.4205010  82.4682160 101.5368930
 150.3363330  81.8754820 102.9273830 144.1558690  86.4098280 101.0246560
 144.6703360  86.3206290 101.8268990 143.3127770  86.7557980 101.3174470
 146.1313090  86.6953620  90.4530560 145.9714230  86.4056560  91.3512390
 145.9659800  85.9193750  89.9175790 138.6101470  86.4752150  92.2302180
 138.4343950  85.5587690  92.0169980 137.7557210  86.8339440  92.4699980
 145.8339220  84.2041180  89.0128560 145.1404380  84.2018470  88.3530840
 146.5762080  83.7800500  88.5822730 145.3989150  85.8303890  93.0877050
 145.8546100  85.0493270  93.4015670 145.7381670  86.5410710  93.6318230
 150.1465960  74.7602740 103.4201490 149.5310230  75.2682410 102.8916950
 149.8262380  73.8601070 103.3627430 133.1491700  81.6020350 100.2467790
 133.3122740  81.1325710  99.4287160 133.6144150  81.0943910 100.9116630
 142.2080280  73.5994630 100.8863680 141.7459650  73.8077650 101.6983620
 141.8058390  72.7853980 100.5834350 147.2084790  74.8203580 102.0160340
 146.3578380  74.5209330 102.3369410 147.0486580  75.0645590 101.1044160
 144.3034500  76.3205330 104.1159130 144.6287910  75.4869080 103.7761360
 145.0914830  76.8433850 104.2637460 141.0369290  70.3536810  90.1634190
 140.4123470  70.3496680  90.8887500 140.9499410  69.4867770  89.7670160
 139.9586370  71.2773440  97.1417960 140.2558700  72.1836270  97.0609980
 140.5071930  70.7892220  96.5277530 137.7124690  75.8559680  93.0109610
 137.4865610  75.6396850  93.9156230 136.9317220  76.2888140  92.6655580
 144.9422450  75.8623050  91.6100260 144.3431340  76.5858850  91.4263880
 145.4902060  75.7999830  90.8276710 140.1523900  76.7545260 103.6769880
 140.0567500  75.8139990 103.5270280 140.9955880  76.9760330 103.2817950
 143.5487320  74.4986590  93.6403540 143.9416890  74.8158790  92.8272230
 143.9104170  73.6198470  93.7548060 135.2834440  73.1658930 101.8303660
 134.8897830  74.0134140 102.0376440 134.5952840  72.5285300 102.0212300
 141.8579490  73.2493900 104.9000400 141.1677810  73.0566100 105.5346490
 142.6011790  73.5328540 105.4324700 132.5851490  71.0887390  95.8633740
 132.2964540  71.6590250  96.5758720 133.3297250  70.6091840  96.2264970
 132.7721720  75.0307510  87.0736460 132.6896390  75.9738270  87.2151450
 132.4204780  74.8882420  86.1948810 144.1342460  77.0892340  97.7354320
 143.4023580  77.5979150  98.0844420 143.7366800  76.2722320  97.4343100
 140.6340000  74.7658620  89.1313570 140.7552820  74.7245100  90.0799390
 140.2488510  75.6282770  88.9760300 144.5968370  72.5426020  97.1477260
 144.6141110  72.9934670  97.9919110 144.3483950  71.6431660  97.3610700
 139.6461500  77.0759760  88.5296870 139.0778400  76.6278010  87.9032780
 140.3550500  77.4352540  87.9962020 148.0239120  69.9558200 102.9863640
 148.3484890  69.2247860 103.5121620 148.0595630  69.6371840 102.0844630
 140.8727820  77.8248320  97.8872220 141.2397950  77.3506890  98.6333560
 140.6832880  78.6989890  98.2280560 133.7368310  72.5692010  94.0165690
 133.4515230  72.2047680  94.8544310 133.6747170  71.8372470  93.4028830
 138.6627190  76.8656960 100.2056430 138.3584260  77.7448940 100.4306790
 139.6173650  76.9256750 100.2413870 147.9496960  80.0683310  96.5949670
 148.6696080  80.5638600  96.2045780 147.7478780  79.3901200  95.9503540
 143.4106900  71.4621270  90.7379060 142.5971510  70.9634440  90.6624370
 143.2168850  72.3019520  90.3215410 143.3315760  80.1392370 102.4818670
 143.2653070  79.2188040 102.2276260 142.7020900  80.2367810 103.1963310
 146.1255290  75.8340920  89.0341220 147.0134910  76.1458150  88.8592560
 146.0960380  74.9613170  88.6421800 137.2346380  80.7398330  94.4402090
 137.7525050  79.9366590  94.3858980 136.7830400  80.6777470  95.2818920
 142.1215880  82.0064610  89.7129390 142.4631580  82.7506840  89.2172710
 141.2928590  82.3195730  90.0754220 134.7190920  77.7059700 101.3527790
 134.3605860  78.3713550 101.9401130 134.4245480  76.8743250 101.7240410
 137.9204040  78.1643940 104.2367340 137.6204180  78.3101120 103.3395160
 138.6915280  77.6049230 104.1440730 143.2632490  82.9612940 102.2322470
 143.2777030  82.0293900 102.0141380 142.5557590  83.0472700 102.8712240
 148.3969560  77.1452760  88.5021080 148.3133280  77.5766980  87.6517520
 149.1163750  77.6051110  88.9347900 149.4743700  79.6020280 101.5791050
 148.7491890  80.1949060 101.3820440 150.0019160  79.5943820 100.7804420
 149.4256810  83.9995020  91.2303210 148.7832970  83.3450640  91.5046930
 149.0387470  84.4050110  90.4543880 145.0043290  81.3280450  95.0774900
 145.3567110  80.7308580  94.4176270 144.1205620  81.0024680  95.2483150
 141.0906570  82.0878140  92.4845310 141.7777700  82.6347350  92.8652900
 140.3038990  82.6318870  92.5194920 133.2298970  77.7050960  87.9762390
 134.0993820  77.9875760  88.2598310 132.7389290  78.5186830  87.8611200
 140.3933780  79.0924170  92.0970670 140.8496560  79.9029420  92.3230860
 140.0421990  78.7747310  92.9289160 142.6966390  84.6030510  99.3262970
 143.3408610  84.8089890 100.0036390 143.0595830  83.8418910  98.8733820
 136.2945560  69.4361820  92.5693190 136.1660190  69.4279720  93.5178110
 135.4707580  69.7744910  92.2184200 143.9698470  82.6062860  98.0440420
 144.6120700  81.9056020  98.1572590 144.4947820  83.3861300  97.8637310
 147.8154190  82.8911480  87.7679560 147.5891770  82.1741920  88.3604200
 147.4250390  82.6423920  86.9301310 145.7436090  83.4057760 101.2476480
 146.0792330  83.9924450 101.9254400 144.8236430  83.2750470 101.4774270
 133.5970220  86.9178340  88.5424020 133.9567860  87.5167680  87.8881290
 133.4562560  87.4638230  89.3159050 147.3970440  80.8083420  89.4293720
 147.1092140  81.2696110  90.2171600 148.1922610  80.3481190  89.6977940
 141.5724670  83.4549090 104.4164540 141.2521540  82.7358330 104.9610230
 140.8983030  84.1304160 104.4900600 139.6138840  84.3009540  89.3597690
 139.6048940  85.0339230  88.7442200 138.6937200  84.0541120  89.4524650
 144.7878270  73.6875250  99.7801340 145.1559090  72.8670460 100.1080910
 143.9276470  73.7477140 100.1956990 148.1540300  72.6432190  90.5888900
 147.5253460  72.7477860  89.8747130 147.6592220  72.8628970  91.3782780
 142.5998440  84.3637780  88.0222880 142.7010420  84.1601770  87.0924860
 141.7000180  84.1096060  88.2270660 140.1224330  74.9218140  92.0046780
 139.4140480  75.3904480  92.4460390 140.4068810  74.2640150  92.6391970
 141.7480260  76.3414840 100.0039310 142.2465510  76.8160660 100.6691160
 141.8903210  75.4178360 100.2109340 144.1539760  71.6468800  93.4442570
 144.0307540  71.6654930  92.4952080 145.1024320  71.6947740  93.5640970
 141.2416550  86.8824100  92.7170550 141.4958050  86.8445490  91.7949920
 140.2929030  86.7557430  92.7098800 138.3259350  73.2303220  89.3797490
 139.1749880  73.6673370  89.3137680 137.9590620  73.5423480  90.2069550
 148.9547120  72.5582800 100.8467700 148.4520720  73.2988200 101.1861510
 149.7703780  72.9466800 100.5304490 147.2469130  77.8015980  94.2929060
 146.3059270  77.8166210  94.4676750 147.5613200  77.0151940  94.7389360
 137.2250770  79.4835580  87.8533020 137.9914040  79.3716940  88.4158450
 137.3025460  78.7873550  87.2009790 135.9197530  76.9160650  88.5365910
 136.0001120  75.9688160  88.6483310 136.8117280  77.2467530  88.6426570
 149.2494710  84.9724830  95.9683320 149.3742130  85.7956000  96.4407130
 150.1160270  84.7615560  95.6207470 136.7212240  87.0656040  95.6400450
 137.4574720  86.5171500  95.9109020 137.1053160  87.9312050  95.5006440
 139.8314550  86.2386350  87.4626020 140.6243160  86.5275180  87.0107810
 139.3118900  85.8078520  86.7838500 144.5635150  82.3581980 104.7761440
 143.9573310  82.3813580 104.0357190 144.2589260  81.6265020 105.3128690
 145.9935520  86.0862270 103.3870850 146.9457270  86.0020290 103.3371090
 145.8463740  86.7503980 104.0604640 148.8844720  85.4656480  88.8862760
 148.5986230  85.0521620  88.0716940 148.6864270  86.3944190  88.7663280
 140.3491950  81.4589760  87.3268370 140.2442590  80.8442110  88.0529750
 140.1816170  80.9355650  86.5431380 140.5006270  80.1446560 103.3057600
 139.7351940  80.7131560 103.2212270 140.6822230  79.8522770 102.4125830
 143.5894680  80.5209790  87.9310360 143.0404780  80.9679090  88.5753100
 144.2113940  80.0159040  88.4548030 147.6429620  81.8751890 103.8632620
 148.3839090  82.2127650 103.3600080 146.8802300  82.0443950 103.3102390
 135.4791410  76.8805160 104.6672150 135.5196750  76.5819030 105.5757380
 136.3336910  77.2812770 104.5079670 139.2569800  79.4800710  89.8275660
 139.6786220  79.3140580  90.6707050 139.3820640  78.6700940  89.3330800
 137.4197220  75.4597260 102.6346640 136.8893680  74.9688210 102.0069980
 138.0885290  75.8881460 102.1004570 141.7697440  78.5038320  87.0752760
 142.2903100  77.7887340  86.7093910 142.4165840  79.1424190  87.3753270
 146.3175280  79.9266720 102.3987830 146.7316300  80.0811800 103.2478250
 145.3826280  80.0521940 102.5613610 146.7897450  77.2662880 104.4026980
 147.3718220  76.5115200 104.3147460 146.9659220  77.7970320 103.6258460
 137.9069520  72.4259630 102.7143930 137.8126390  71.8080380 101.9894800
 137.3266910  73.1525920 102.4873840 140.6730960  70.9832870  99.7471320
 140.2248260  71.0057130  98.9016870 140.0396160  70.5851890 100.3441620
 141.0790510  79.8787200 100.3683760 141.4978620  80.7219930 100.1960000
 140.1599140  80.0159240 100.1390540 143.4154410  77.6103380 101.7521600
 143.5350620  77.0144520 102.4916440 144.2748410  77.6473070 101.3322900
 145.7542310  78.1640570 100.3284110 145.2277530  78.6883190  99.7249250
 146.0973650  78.7967960 100.9593840 138.1528700  75.5533940  86.7733820
 137.9517760  74.6901300  87.1347160 137.9820750  75.4667300  85.8355420
 138.9297930  86.1840210 101.4841490 138.3919020  86.9086270 101.1650190
 139.1831890  85.7070550 100.6938830 140.1823180  74.1524730 103.0097420
 140.7722870  73.8440580 103.6975240 139.3643420  73.6804480 103.1657320
 145.0016610  73.7690540 103.2430440 144.3132130  73.1072080 103.1780430
 145.7222630  73.3228810 103.6878900 145.6317010  70.3642170  89.3020700
 145.9119300  69.5210070  89.6580120 144.8582740  70.5965280  89.8159450
 136.9511500  72.6534560  86.7611700 137.2537400  72.6601990  85.8530850
 137.6906090  72.3032420  87.2579360 141.7860140  87.4191420 101.7428140
 141.7118840  88.3226560 102.0500510 140.8838980  87.1003320 101.7150210
 140.1696430  71.5969180  87.7467900 139.8218430  70.9193170  87.1670350
 140.3709200  71.1358690  88.5611290 142.3345470  86.5849930  89.3654500
 143.2296260  86.9234900  89.3873260 142.3663100  85.8629340  88.7378780
 135.9741630  81.9576980  87.5941500 136.4116500  82.5006650  88.2499080
 136.4589360  81.1323930  87.6037840 133.1887430  84.7466010  95.0461760
 133.5190440  83.8787070  94.8140400 133.6178430  84.9524530  95.8766720
 137.7849350  83.0775020  92.7063730 137.4844890  82.9539990  93.6067640
 137.6786840  82.2183610  92.2979460 133.6777640  85.6136600  97.7843390
 133.2408630  85.7937400  98.6167540 134.2455320  86.3711220  97.6425110
 149.3139820  85.1153600 102.0720700 148.7141810  85.1746160 101.3284620
 149.4433720  84.1758580 102.2017550 133.5102070  78.1256830  94.1432270
 132.8550910  77.8568470  93.4991970 134.3480020  78.0161310  93.6934250
 147.9991460  81.8405580 100.1696860 147.1851300  82.2702740 100.4322650
 148.4065660  82.4523990  99.5565910 150.0616900  79.8953270  87.0697130
 150.3365740  80.8032150  86.9416350 149.8727640  79.8315800  88.0059120
 146.4592510  72.9198120  88.3650760 146.8777390  72.7329100  87.5247420
 146.1528570  72.0677170  88.6753690 149.9582240  77.8322260  92.0626560
 149.5825840  77.0650190  91.6307850 149.2285360  78.2144960  92.5501490
 134.5478000  78.5109400  98.6835610 134.9151040  78.4236800  99.5631630
 133.9788820  77.7475950  98.5842470 149.3481860  76.9793780 101.6966080
 149.1167950  76.7506530 100.7964030 149.6086410  77.8993330 101.6510970
 134.0994000  75.4218490 102.5894030 133.2050050  75.3885250 102.9287740
 134.6391550  75.6205280 103.3545280 147.7869930  72.2050210 104.4745780
 148.6640110  72.2133610 104.8579780 147.7990770  71.4681050 103.8638130
 132.7240150  75.3355760  90.0857600 131.8204230  75.5985960  89.9109260
 133.2080770  75.6066930  89.3057560 149.2333200  76.0579750  95.3633800
 149.7570680  75.5642400  94.7323970 149.8192620  76.1930110  96.1081370
 149.4122920  76.1419620  98.8853350 148.4625630  76.1083160  98.9998340
 149.5935930  77.0519730  98.6503120 135.2667360  74.3921300  87.9951980
 135.9759060  73.9704520  87.5099260 134.5507300  74.4596530  87.3635330
 134.9141520  70.4460630  87.0354630 135.6369650  70.9869570  87.3535850
 135.1866040  70.1724050  86.1596170 148.7233170  75.3153100  91.3026210
 149.2192290  75.0823970  92.0875090 148.5249240  74.4764940  90.8863850
 134.6033710  69.6966820  96.9377250 135.2509900  69.1464200  96.4972410
 135.0235550  69.9509970  97.7593060 148.4986050  69.8908180 100.2946890
 149.1358270  70.5042320 100.6606080 148.6460940  69.9268840  99.3496120
 148.0567510  86.5924180  93.6965130 148.6526580  86.2708750  93.0199550
 148.3145660  86.1196000  94.4878400 139.6636110  84.5801680  99.4465480
 139.4227470  84.8476240  98.5596000 140.6038750  84.7507410  99.5016340
 141.8690530  71.0434370 103.2021990 141.8079420  71.6356200 103.9517400
 142.8090910  70.9360330 103.0572250 144.5065090  70.7004430 102.8414280
 145.1205500  71.0183720 102.1795360 145.0514650  70.2153020 103.4610140
 145.2473130  69.2636570  99.1683570 144.3732970  69.5971680  98.9656500
 145.1383880  68.7909750  99.9935440 146.1545110  71.4707440 100.5525290
 145.8258470  70.6559200 100.1727020 147.1027410  71.4277250 100.4290980
 148.6079720  87.2419480  97.5262860 148.1482690  87.9935290  97.1520880
 147.9792180  86.5225950  97.4677660 139.0375440  85.5507720  96.7010990
 139.5540460  84.9395080  96.1759250 139.6872820  86.0536500  97.1922000
 141.7770940  86.4416210  97.5279970 142.0648750  86.1870510  96.6512980
 142.2894160  85.8893570  98.1185540 142.9947950  70.1806410  98.1076480
 142.2119740  70.6551910  98.3873240 142.7010880  69.2761240  97.9989660
 147.5469020  70.8829510  96.1525570 147.9877110  70.8274610  95.3047170
 147.2776610  71.7987520  96.2235750 149.4107590  70.5144750  94.1634390
 149.3495990  69.5705970  94.0165410 150.1899620  70.6224840  94.7087850
 133.7160340  86.6537110  93.1258340 133.5482380  86.0207790  93.8240230
 132.8494850  86.8596510  92.7752530 134.3388360  70.4853890  90.6290200
 135.0967720  70.5982770  90.0554230 133.8765530  71.3223090  90.5833630
 140.8802170  72.5993160  93.6192510 140.0676680  72.2250050  93.2788390
 141.3843810  71.8438240  93.9213700 145.3827150  69.2635610  94.8575580
 145.9856520  69.8355820  95.3324100 144.6420140  69.8275050  94.6349480
 148.5261750  69.6657170  90.1315860 148.7212380  70.5640620  90.3983290
 147.7391620  69.4344250  90.6248810 135.3223040  85.3470340  90.5708480
 134.7970660  85.7278370  89.8670440 135.2467620  85.9721110  91.2918190
 136.7113510  71.0117940  89.1692170 137.2406270  70.2247740  89.0400120
 137.3441830  71.6909130  89.4027700 138.9051350  70.7493080  92.2237560
 138.2754090  70.0480390  92.3907690 138.3656490  71.5097210  92.0070720
 141.8443300  87.3632310 104.8948170 142.7710610  87.1276580 104.9384130
 141.8293730  88.1904310 104.4134200 150.0788360  86.9057880  91.8922420
 150.2540550  86.2195620  91.2483340 149.3809930  87.4304930  91.4999090
 139.0306910  70.0277060 104.6590050 138.7491180  70.5310660 103.8950870
 139.4126610  69.2298810 104.2932180 137.9216010  87.2952720  89.4457730
 138.6534830  87.0112000  88.8981620 138.1809680  87.0566000  90.3357110
 137.0830800  83.4117450  89.4504060 136.4539680  83.8802550  89.9989890
 137.1978630  82.5666670  89.8850250 145.6322370  69.4430640 105.2370520
 145.5187820  69.7625250 106.1322040 146.4492110  69.8443150 104.9407800
 148.4120860  86.5902170 104.7189210 149.2046180  86.0951400 104.5115170
 148.7054010  87.2692310 105.3264820 144.5380520  77.4623110  75.6005260
 144.4574570  76.5477720  75.3296970 144.1244940  77.9590180  74.8944970
 142.6698560  79.2402130  77.4814530 141.8940660  78.7602570  77.7713100
 143.3211490  78.5607780  77.3070690 136.6864390  79.5521940  78.3590290
 135.8549270  79.2970650  78.7586800 137.2945370  79.6232710  79.0948210
 146.6905990  83.6462320  76.2613660 146.2287520  82.8749560  76.5900830
 147.5031540  83.6728390  76.7666110 133.0589350  77.1129480  78.0272380
 133.6305460  76.3451680  78.0276020 133.0590890  77.4118240  77.1178990
 142.9169300  85.9320330  75.8817650 142.2980740  86.3877830  75.3112090
 143.7721080  86.0871790  75.4807350 142.1107550  81.9159320  77.4884690
 142.0415830  80.9749260  77.3273820 142.8727410  82.0060730  78.0607260
 134.3014220  72.5213840  79.8141310 134.1217060  71.6239590  80.0944070
 133.8994300  73.0685710  80.4888260 143.1412720  74.7229700  77.7153620
 143.5177540  73.8501580  77.6027290 143.0432230  75.0588400  76.8244060
 146.9236840  72.2180140  74.6481960 147.7446460  71.7276710  74.6907440
 146.9570920  72.8077800  75.4013800 134.9200890  75.0174340  78.4223650
 135.6011000  75.2812710  79.0411050 134.6048940  74.1775210  78.7561660
 139.1125460  76.0641700  77.5096240 139.6203680  76.5622670  78.1501260
 139.6438700  75.2876900  77.3335600 137.3961560  70.7040260  81.7759660
 137.3980000  71.2212650  80.9705560 136.5665870  70.2270440  81.7529590
 143.7832650  80.8159570  73.2749560 143.1649920  81.2809020  72.7112280
 144.2955900  81.5087050  73.6919070 138.6464410  80.3435440  79.9533160
 138.3133790  80.9704360  80.5954230 138.8231090  80.8697320  79.1734830
 147.1598320  74.1580520  77.4209500 146.4553890  74.4465410  78.0012610
 147.5210480  74.9680630  77.0609060 137.0776890  72.4150220  79.7830110
 137.4193700  73.2592270  79.4883980 136.1392700  72.5633960  79.8995450
 137.8583510  82.3116240  81.7682340 138.4757510  82.9867320  81.4866790
 136.9976630  82.7204220  81.6769840 133.1515850  81.5016100  70.6489190
 132.7743830  81.9903200  69.9174090 133.4088920  82.1741380  71.2795720
 148.7761100  83.7755650  79.6836980 148.0924620  84.4454760  79.6753650
 149.3155390  83.9736300  78.9181840 140.7604780  69.9032490  76.1074700
 141.0679760  69.3479380  75.3910200 139.8305480  70.0376950  75.9247690
 146.3119840  85.6199780  78.3982160 146.3247000  85.2162070  77.5304420
 145.7595060  86.3947070  78.2943590 147.6065260  82.3416000  73.4872330
 147.4961590  81.3990330  73.6121750 147.6033510  82.7031640  74.3735090
 145.7105280  80.5229620  79.7264770 146.1274070  80.3089730  78.8918230
 146.4345100  80.7802410  80.2973390 143.1485540  77.9681320  72.8434820
 142.2214820  77.9018700  73.0723290 143.3010360  78.9061450  72.7290060
 143.1354620  74.2398320  69.8401980 142.1958290  74.4012280  69.9254440
 143.4537880  74.9584000  69.2937970 149.6567380  78.9216840  79.8181010
 148.8286010  78.9909930  79.3431140 150.2517860  79.5071150  79.3496840
 147.1782830  79.5301620  73.3470070 146.5595250  79.1921170  72.6996370
 147.1607280  78.8861380  74.0549260 146.6209390  75.7086160  80.7635880
 146.2080570  76.5339870  81.0175870 145.8885340  75.1231200  80.5712240
 137.4670800  75.2689270  79.4053590 138.0185390  75.3784610  78.6306840
 137.9814310  75.6426870  80.1208820 147.3109490  85.7545490  81.4516860
 146.8340050  86.5617680  81.2589470 146.6271280  85.1023820  81.6043070
 138.3142310  81.9195310  84.4401560 137.4170840  82.1435280  84.6874960
 138.3395180  82.0430250  83.4912960 145.3547530  78.7688430  70.3542820
 145.7940810  77.9310860  70.2080640 146.0675950  79.4017830  70.4406960
 143.4642910  83.7084500  74.3224060 143.9038820  84.4508830  73.9079450
 143.4029800  83.9511070  75.2463020 138.9393880  84.7330330  85.2244080
 138.9109310  85.1373280  84.3572510 138.7758850  83.8040690  85.0615680
 148.9364670  70.0231240  68.6683860 148.6237330  70.1158070  69.5682930
 149.6977140  70.6012270  68.6181290 135.4546810  77.3891040  73.1261200
 135.3344410  78.1153130  72.5142470 135.1447700  76.6193950  72.6489110
 133.0932180  80.5606180  78.9329840 133.1712600  80.6954950  77.9885560
 133.7073860  79.8522070  79.1257960 150.2941950  82.7070280  83.6808260
 150.4205010  82.4682160  82.7625440 150.3363330  81.8754820  84.1530340
 144.1558690  86.4098280  82.2503070 144.6703360  86.3206290  83.0525500
 143.3127770  86.7557980  82.5430980 146.1313090  86.6953620  71.6787070
 145.9714230  86.4056560  72.5768900 145.9659800  85.9193750  71.1432300
 138.6101470  86.4752150  73.4558690 138.4343950  85.5587690  73.2426490
 137.7557210  86.8339440  73.6956490 145.8339220  84.2041180  70.2385070
 145.1404380  84.2018470  69.5787350 146.5762080  83.7800500  69.8079240
 145.3989150  85.8303890  74.3133560 145.8546100  85.0493270  74.6272180
 145.7381670  86.5410710  74.8574740 150.1465960  74.7602740  84.6458000
 149.5310230  75.2682410  84.1173460 149.8262380  73.8601070  84.5883940
 142.2080280  73.5994630  82.1120190 141.7459650  73.8077650  82.9240130
 141.8058390  72.7853980  81.8090860 147.2084790  74.8203580  83.2416850
 146.3578380  74.5209330  83.5625920 147.0486580  75.0645590  82.3300670
 144.3034500  76.3205330  85.3415640 144.6287910  75.4869080  85.0017870
 145.0914830  76.8433850  85.4893970 139.9586370  71.2773440  78.3674470
 140.2558700  72.1836270  78.2866490 140.5071930  70.7892220  77.7534040
 137.7124690  75.8559680  74.2366120 137.4865610  75.6396850  75.1412740
 136.9317220  76.2888140  73.8912090 144.9422450  75.8623050  72.8356770
 144.3431340  76.5858850  72.6520390 145.4902060  75.7999830  72.0533220
 140.1523900  76.7545260  84.9026390 140.0567500  75.8139990  84.7526790
 140.9955880  76.9760330  84.5074460 143.5487320  74.4986590  74.8660050
 143.9416890  74.8158790  74.0528740 143.9104170  73.6198470  74.9804570
 135.2834440  73.1658930  83.0560170 134.8897830  74.0134140  83.2632950
 134.5952840  72.5285300  83.2468810 141.8579490  73.2493900  86.1256910
 141.1677810  73.0566100  86.7603000 142.6011790  73.5328540  86.6581210
 132.5851490  71.0887390  77.0890250 132.2964540  71.6590250  77.8015230
 133.3297250  70.6091840  77.4521480 132.7721720  75.0307510  68.2992970
 132.6896390  75.9738270  68.4407960 132.4204780  74.8882420  67.4205320
 144.1342460  77.0892340  78.9610830 143.4023580  77.5979150  79.3100930
 143.7366800  76.2722320  78.6599610 140.5719850  73.7646540  77.3663320
 140.5755910  73.3236490  76.5167860 141.4670970  74.0863870  77.4735140
 140.6340000  74.7658620  70.3570080 140.7552820  74.7245100  71.3055900
 140.2488510  75.6282770  70.2016810 144.5968370  72.5426020  78.3733770
 144.6141110  72.9934670  79.2175620 144.3483950  71.6431660  78.5867210
 139.6461500  77.0759760  69.7553380 139.0778400  76.6278010  69.1289290
 140.3550500  77.4352540  69.2218530 148.0239120  69.9558200  84.2120150
 148.3484890  69.2247860  84.7378130 148.0595630  69.6371840  83.3101140
 134.7230680  80.9771780  83.6320110 134.3385470  80.3365450  84.2303070
 135.0342870  81.6807900  84.2014840 140.8727820  77.8248320  79.1128730
 141.2397950  77.3506890  79.8590070 140.6832880  78.6989890  79.4537070
 138.6627190  76.8656960  81.4312940 138.3584260  77.7448940  81.6563300
 139.6173650  76.9256750  81.4670380 147.9496960  80.0683310  77.8206180
 148.6696080  80.5638600  77.4302290 147.7478780  79.3901200  77.1760050
 143.4106900  71.4621270  71.9635570 142.5971510  70.9634440  71.8880880
 143.2168850  72.3019520  71.5471920 143.3315760  80.1392370  83.7075180
 143.2653070  79.2188040  83.4532770 142.7020900  80.2367810  84.4219820
 146.1255290  75.8340920  70.2597730 147.0134910  76.1458150  70.0849070
 146.0960380  74.9613170  69.8678310 142.1215880  82.0064610  70.9385900
 142.4631580  82.7506840  70.4429220 141.2928590  82.3195730  71.3010730
 137.9204040  78.1643940  85.4623850 137.6204180  78.3101120  84.5651670
 138.6915280  77.6049230  85.3697240 143.2632490  82.9612940  83.4578980
 143.2777030  82.0293900  83.2397890 142.5557590  83.0472700  84.0968750
 148.3969560  77.1452760  69.7277590 148.3133280  77.5766980  68.8774030
 149.1163750  77.6051110  70.1604410 149.4743700  79.6020280  82.8047560
 148.7491890  80.1949060  82.6076950 150.0019160  79.5943820  82.0060930
 149.4256810  83.9995020  72.4559720 148.7832970  83.3450640  72.7303440
 149.0387470  84.4050110  71.6800390 145.0043290  81.3280450  76.3031410
 145.3567110  80.7308580  75.6432780 144.1205620  81.0024680  76.4739660
 141.0906570  82.0878140  73.7101820 141.7777700  82.6347350  74.0909410
 140.3038990  82.6318870  73.7451430 133.2298970  77.7050960  69.2018900
 134.0993820  77.9875760  69.4854820 132.7389290  78.5186830  69.0867710
 142.6966390  84.6030510  80.5519480 143.3408610  84.8089890  81.2292900
 143.0595830  83.8418910  80.0990330 143.9698470  82.6062860  79.2696930
 144.6120700  81.9056020  79.3829100 144.4947820  83.3861300  79.0893820
 147.8154190  82.8911480  68.9936070 147.5891770  82.1741920  69.5860710
 147.4250390  82.6423920  68.1557820 145.7436090  83.4057760  82.4732990
 146.0792330  83.9924450  83.1510910 144.8236430  83.2750470  82.7030780
 133.2939490  71.1952940  83.2556400 132.5798010  71.3949860  83.8609010
 133.7134530  70.4192510  83.6271200 147.3970440  80.8083420  70.6550230
 147.1092140  81.2696110  71.4428110 148.1922610  80.3481190  70.9234450
 141.5724670  83.4549090  85.6421050 141.2521540  82.7358330  86.1866740
 140.8983030  84.1304160  85.7157110 139.6138840  84.3009540  70.5854200
 139.6048940  85.0339230  69.9698710 138.6937200  84.0541120  70.6781160
 135.2145480  79.5224430  71.3300960 134.6073430  80.2623330  71.3396260
 135.6894830  79.6123790  70.5039160 144.7878270  73.6875250  81.0057850
 145.1559090  72.8670460  81.3337420 143.9276470  73.7477140  81.4213500
 148.1540300  72.6432190  71.8145410 147.5253460  72.7477860  71.1003640
 147.6592220  72.8628970  72.6039290 142.5998440  84.3637780  69.2479390
 142.7010420  84.1601770  68.3181370 141.7000180  84.1096060  69.4527170
 141.7480260  76.3414840  81.2295820 142.2465510  76.8160660  81.8947670
 141.8903210  75.4178360  81.4365850 144.1539760  71.6468800  74.6699080
 144.0307540  71.6654930  73.7208590 145.1024320  71.6947740  74.7897480
 141.2416550  86.8824100  73.9427060 141.4958050  86.8445490  73.0206430
 140.2929030  86.7557430  73.9355310 148.9547120  72.5582800  82.0724210
 148.4520720  73.2988200  82.4118020 149.7703780  72.9466800  81.7561000
 147.2469130  77.8015980  75.5185570 146.3059270  77.8166210  75.6933260
 147.5613200  77.0151940  75.9645870 137.2250770  79.4835580  69.0789530
 137.9914040  79.3716940  69.6414960 137.3025460  78.7873550  68.4266300
 135.9197530  76.9160650  69.7622420 136.0001120  75.9688160  69.8739820
 136.8117280  77.2467530  69.8683080 149.2494710  84.9724830  77.1939830
 149.3742130  85.7956000  77.6663640 150.1160270  84.7615560  76.8463980
 133.6057720  83.1329610  72.7398470 132.6797500  83.3750750  72.7303880
 134.0714150  83.9603870  72.6183220 135.7270520  86.2502110  86.0542540
 136.5283250  86.5714160  86.4677940 135.2122340  85.8897690  86.7762450
 139.8314550  86.2386350  68.6882530 140.6243160  86.5275180  68.2364320
 139.3118900  85.8078520  68.0095010 144.5635150  82.3581980  86.0017950
 143.9573310  82.3813580  85.2613700 144.2589260  81.6265020  86.5385200
 145.9935520  86.0862270  84.6127360 146.9457270  86.0020290  84.5627600
 145.8463740  86.7503980  85.2861150 148.8844720  85.4656480  70.1119270
 148.5986230  85.0521620  69.2973450 148.6864270  86.3944190  69.9919790
 140.3491950  81.4589760  68.5524880 140.2442590  80.8442110  69.2786260
 140.1816170  80.9355650  67.7687890 140.5006270  80.1446560  84.5314110
 139.7351940  80.7131560  84.4468780 140.6822230  79.8522770  83.6382340
 143.5894680  80.5209790  69.1566870 143.0404780  80.9679090  69.8009610
 144.2113940  80.0159040  69.6804540 147.6429620  81.8751890  85.0889130
 148.3839090  82.2127650  84.5856590 146.8802300  82.0443950  84.5358900
 139.2569800  79.4800710  71.0532170 139.6786220  79.3140580  71.8963560
 139.3820640  78.6700940  70.5587310 141.7697440  78.5038320  68.3009270
 142.2903100  77.7887340  67.9350420 142.4165840  79.1424190  68.6009780
 146.3175280  79.9266720  83.6244340 146.7316300  80.0811800  84.4734760
 145.3826280  80.0521940  83.7870120 146.7897450  77.2662880  85.6283490
 147.3718220  76.5115200  85.5403970 146.9659220  77.7970320  84.8514970
 137.9069520  72.4259630  83.9400440 137.8126390  71.8080380  83.2151310
 137.3266910  73.1525920  83.7130350 140.6730960  70.9832870  80.9727830
 140.2248260  71.0057130  80.1273380 140.0396160  70.5851890  81.5698130
 141.0790510  79.8787200  81.5940270 141.4978620  80.7219930  81.4216510
 140.1599140  80.0159240  81.3647050 143.4154410  77.6103380  82.9778110
 143.5350620  77.0144520  83.7172950 144.2748410  77.6473070  82.5579410
 145.7542310  78.1640570  81.5540620 145.2277530  78.6883190  80.9505760
 146.0973650  78.7967960  82.1850350 138.1528700  75.5533940  67.9990330
 137.9517760  74.6901300  68.3603670 137.9820750  75.4667300  67.0611930
 138.9297930  86.1840210  82.7098000 138.3919020  86.9086270  82.3906700
 139.1831890  85.7070550  81.9195340 140.1823180  74.1524730  84.2353930
 140.7722870  73.8440580  84.9231750 139.3643420  73.6804480  84.3913830
 145.0016610  73.7690540  84.4686950 144.3132130  73.1072080  84.4036940
 145.7222630  73.3228810  84.9135410 145.6317010  70.3642170  70.5277210
 145.9119300  69.5210070  70.8836630 144.8582740  70.5965280  71.0415960
 136.9511500  72.6534560  67.9868210 137.2537400  72.6601990  67.0787360
 137.6906090  72.3032420  68.4835870 141.7860140  87.4191420  82.9684650
 141.7118840  88.3226560  83.2757020 140.8838980  87.1003320  82.9406720
 142.3345470  86.5849930  70.5911010 143.2296260  86.9234900  70.6129770
 142.3663100  85.8629340  69.9635290 135.9741630  81.9576980  68.8198010
 136.4116500  82.5006650  69.4755590 136.4589360  81.1323930  68.8294350
 149.3139820  85.1153600  83.2977210 148.7141810  85.1746160  82.5541130
 149.4433720  84.1758580  83.4274060 133.5102070  78.1256830  75.3688780
 132.8550910  77.8568470  74.7248480 134.3480020  78.0161310  74.9190760
 147.9991460  81.8405580  81.3953370 147.1851300  82.2702740  81.6579160
 148.4065660  82.4523990  80.7822420 150.0616900  79.8953270  68.2953640
 150.3365740  80.8032150  68.1672860 149.8727640  79.8315800  69.2315630
 146.4592510  72.9198120  69.5907270 146.8777390  72.7329100  68.7503930
 146.1528570  72.0677170  69.9010200 149.9582240  77.8322260  73.2883070
 149.5825840  77.0650190  72.8564360 149.2285360  78.2144960  73.7758000
 134.5478000  78.5109400  79.9092120 134.9151040  78.4236800  80.7888140
 133.9788820  77.7475950  79.8098980 149.3481860  76.9793780  82.9222590
 149.1167950  76.7506530  82.0220540 149.6086410  77.8993330  82.8767480
 147.7869930  72.2050210  85.7002290 148.6640110  72.2133610  86.0836290
 147.7990770  71.4681050  85.0894640 132.7240150  75.3355760  71.3114110
 131.8204230  75.5985960  71.1365770 133.2080770  75.6066930  70.5314070
 149.2333200  76.0579750  76.5890310 149.7570680  75.5642400  75.9580480
 149.8192620  76.1930110  77.3337880 149.4122920  76.1419620  80.1109860
 148.4625630  76.1083160  80.2254850 149.5935930  77.0519730  79.8759630
 135.2667360  74.3921300  69.2208490 135.9759060  73.9704520  68.7355770
 134.5507300  74.4596530  68.5891840 148.7233170  75.3153100  72.5282720
 149.2192290  75.0823970  73.3131600 148.5249240  74.4764940  72.1120360
 134.6033710  69.6966820  78.1633760 135.2509900  69.1464200  77.7228920
 135.0235550  69.9509970  78.9849570 148.4986050  69.8908180  81.5203400
 149.1358270  70.5042320  81.8862590 148.6460940  69.9268840  80.5752630
 148.0567510  86.5924180  74.9221640 148.6526580  86.2708750  74.2456060
 148.3145660  86.1196000  75.7134910 134.3565710  69.8522490  80.9059080
 134.0080530  70.3086310  81.6717260 134.0253410  68.9579620  80.9881510
 135.9630080  83.0242090  85.0712270 135.9199710  82.6535000  85.9526730
 136.0941090  83.9619660  85.2114090 141.8690530  71.0434370  84.4278500
 141.8079420  71.6356200  85.1773910 142.8090910  70.9360330  84.2828760
 144.5065090  70.7004430  84.0670790 145.1205500  71.0183720  83.4051870
 145.0514650  70.2153020  84.6866650 145.2473130  69.2636570  80.3940080
 144.3732970  69.5971680  80.1913010 145.1383880  68.7909750  81.2191950
 146.1545110  71.4707440  81.7781800 145.8258470  70.6559200  81.3983530
 147.1027410  71.4277250  81.6547490 148.6079720  87.2419480  78.7519370
 148.1482690  87.9935290  78.3777390 147.9792180  86.5225950  78.6934170
 141.7770940  86.4416210  78.7536480 142.0648750  86.1870510  77.8769490
 142.2894160  85.8893570  79.3442050 142.9947950  70.1806410  79.3332990
 142.2119740  70.6551910  79.6129750 142.7010880  69.2761240  79.2246170
 147.5469020  70.8829510  77.3782080 147.9877110  70.8274610  76.5303680
 147.2776610  71.7987520  77.4492260 149.4107590  70.5144750  75.3890900
 149.3495990  69.5705970  75.2421920 150.1899620  70.6224840  75.9344360
 145.3827150  69.2635610  76.0832090 145.9856520  69.8355820  76.5580610
 144.6420140  69.8275050  75.8605990 148.5261750  69.6657170  71.3572370
 148.7212380  70.5640620  71.6239800 147.7391620  69.4344250  71.8505320
 135.3223040  85.3470340  71.7964990 134.7970660  85.7278370  71.0926950
 135.2467620  85.9721110  72.5174700 141.8443300  87.3632310  86.1204680
 142.7710610  87.1276580  86.1640640 141.8293730  88.1904310  85.6390710
 150.0788360  86.9057880  73.1178930 150.2540550  86.2195620  72.4739850
 149.3809930  87.4304930  72.7255600 139.0306910  70.0277060  85.8846560
 138.7491180  70.5310660  85.1207380 139.4126610  69.2298810  85.5188690
 137.9216010  87.2952720  70.6714240 138.6534830  87.0112000  70.1238130
 138.1809680  87.0566000  71.5613620 137.0830800  83.4117450  70.6760570
 136.4539680  83.8802550  71.2246400 137.1978630  82.5666670  71.1106760
 145.6322370  69.4430640  86.4627030 145.5187820  69.7625250  87.3578550
 146.4492110  69.8443150  86.1664310 148.4120860  86.5902170  85.9445720
 149.2046180  86.0951400  85.7371680 148.7054010  87.2692310  86.5521330
 144.5380520  77.4623110  56.8261770 144.4574570  76.5477720  56.5553480
 144.1244940  77.9590180  56.1201480 142.6698560  79.2402130  58.7071040
 141.8940660  78.7602570  58.9969610 143.3211490  78.5607780  58.5327200
 146.6905990  83.6462320  57.4870170 146.2287520  82.8749560  57.8157340
 147.5031540  83.6728390  57.9922620 136.6665650  83.5862030  59.7804820
 136.9693690  82.6959770  59.6015040 137.4109240  84.1432250  59.5527070
 142.9169300  85.9320330  57.1074160 142.2980740  86.3877830  56.5368600
 143.7721080  86.0871790  56.7063860 142.1107550  81.9159320  58.7141200
 142.0415830  80.9749260  58.5530330 142.8727410  82.0060730  59.2863770
 143.1412720  74.7229700  58.9410130 143.5177540  73.8501580  58.8283800
 143.0432230  75.0588400  58.0500570 146.9236840  72.2180140  55.8738470
 147.7446460  71.7276710  55.9163950 146.9570920  72.8077800  56.6270310
 139.1125460  76.0641700  58.7352750 139.6203680  76.5622670  59.3757770
 139.6438700  75.2876900  58.5592110 137.3961560  70.7040260  63.0016170
 137.3980000  71.2212650  62.1962070 136.5665870  70.2270440  62.9786100
 143.7832650  80.8159570  54.5006070 143.1649920  81.2809020  53.9368790
 144.2955900  81.5087050  54.9175580 147.1598320  74.1580520  58.6466010
 146.4553890  74.4465410  59.2269120 147.5210480  74.9680630  58.2865570
 137.0776890  72.4150220  61.0086620 137.4193700  73.2592270  60.7140490
 136.1392700  72.5633960  61.1251960 133.1515850  81.5016100  51.8745700
 132.7743830  81.9903200  51.1430600 133.4088920  82.1741380  52.5052230
 148.7761100  83.7755650  60.9093490 148.0924620  84.4454760  60.9010160
 149.3155390  83.9736300  60.1438350 146.3119840  85.6199780  59.6238670
 146.3247000  85.2162070  58.7560930 145.7595060  86.3947070  59.5200100
 147.6065260  82.3416000  54.7128840 147.4961590  81.3990330  54.8378260
 147.6033510  82.7031640  55.5991600 145.7105280  80.5229620  60.9521280
 146.1274070  80.3089730  60.1174740 146.4345100  80.7802410  61.5229900
 143.1485540  77.9681320  54.0691330 142.2214820  77.9018700  54.2979800
 143.3010360  78.9061450  53.9546570 143.1354620  74.2398320  51.0658490
 142.1958290  74.4012280  51.1510950 143.4537880  74.9584000  50.5194480
 149.6567380  78.9216840  61.0437520 148.8286010  78.9909930  60.5687650
 150.2517860  79.5071150  60.5753350 147.1782830  79.5301620  54.5726580
 146.5595250  79.1921170  53.9252880 147.1607280  78.8861380  55.2805770
 146.6209390  75.7086160  61.9892390 146.2080570  76.5339870  62.2432380
 145.8885340  75.1231200  61.7968750 139.2223880  82.1813620  59.0150270
 138.9252170  81.5759090  58.3358050 140.1723700  82.2190930  58.9039630
 147.3109490  85.7545490  62.6773370 146.8340050  86.5617680  62.4845980
 146.6271280  85.1023820  62.8299580 138.3142310  81.9195310  65.6658070
 137.4170840  82.1435280  65.9131470 138.3395180  82.0430250  64.7169470
 145.3547530  78.7688430  51.5799330 145.7940810  77.9310860  51.4337150
 146.0675950  79.4017830  51.6663470 143.4642910  83.7084500  55.5480570
 143.9038820  84.4508830  55.1335960 143.4029800  83.9511070  56.4719530
 138.9393880  84.7330330  66.4500590 138.9109310  85.1373280  65.5829020
 138.7758850  83.8040690  66.2872190 148.9364670  70.0231240  49.8940370
 148.6237330  70.1158070  50.7939440 149.6977140  70.6012270  49.8437800
 150.2941950  82.7070280  64.9064770 150.4205010  82.4682160  63.9881950
 150.3363330  81.8754820  65.3786850 144.1558690  86.4098280  63.4759580
 144.6703360  86.3206290  64.2782010 143.3127770  86.7557980  63.7687490
 146.1313090  86.6953620  52.9043580 145.9714230  86.4056560  53.8025410
 145.9659800  85.9193750  52.3688810 138.6101470  86.4752150  54.6815200
 138.4343950  85.5587690  54.4683000 137.7557210  86.8339440  54.9213000
 145.8339220  84.2041180  51.4641580 145.1404380  84.2018470  50.8043860
 146.5762080  83.7800500  51.0335750 145.3989150  85.8303890  55.5390070
 145.8546100  85.0493270  55.8528690 145.7381670  86.5410710  56.0831250
 150.1465960  74.7602740  65.8714510 149.5310230  75.2682410  65.3429970
 149.8262380  73.8601070  65.8140450 142.2080280  73.5994630  63.3376700
 141.7459650  73.8077650  64.1496640 141.8058390  72.7853980  63.0347370
 147.2084790  74.8203580  64.4673360 146.3578380  74.5209330  64.7882430
 147.0486580  75.0645590  63.5557180 144.3034500  76.3205330  66.5672150
 144.6287910  75.4869080  66.2274380 145.0914830  76.8433850  66.7150480
 141.0369290  70.3536810  52.6147210 140.4123470  70.3496680  53.3400520
 140.9499410  69.4867770  52.2183180 139.9586370  71.2773440  59.5930980
 140.2558700  72.1836270  59.5123000 140.5071930  70.7892220  58.9790550
 144.9422450  75.8623050  54.0613280 144.3431340  76.5858850  53.8776900
 145.4902060  75.7999830  53.2789730 140.1523900  76.7545260  66.1282900
 140.0567500  75.8139990  65.9783300 140.9955880  76.9760330  65.7330970
 143.5487320  74.4986590  56.0916560 143.9416890  74.8158790  55.2785250
 143.9104170  73.6198470  56.2061080 135.2834440  73.1658930  64.2816680
 134.8897830  74.0134140  64.4889460 134.5952840  72.5285300  64.4725320
 141.8579490  73.2493900  67.3513420 141.1677810  73.0566100  67.9859510
 142.6011790  73.5328540  67.8837720 144.1342460  77.0892340  60.1867340
 143.4023580  77.5979150  60.5357440 143.7366800  76.2722320  59.8856120
 140.5719850  73.7646540  58.5919830 140.5755910  73.3236490  57.7424370
 141.4670970  74.0863870  58.6991650 136.4222230  73.6473030  57.5514040
 136.0822280  74.1248260  58.3081090 135.6599550  73.1938150  57.1915140
 144.5968370  72.5426020  59.5990280 144.6141110  72.9934670  60.4432130
 144.3483950  71.6431660  59.8123720 148.0239120  69.9558200  65.4376660
 148.3484890  69.2247860  65.9634640 148.0595630  69.6371840  64.5357650
 140.8727820  77.8248320  60.3385240 141.2397950  77.3506890  61.0846580
 140.6832880  78.6989890  60.6793580 137.1908980  81.0717950  53.2536300
 136.4171240  80.5315570  53.0935020 137.9203610  80.5524560  52.9154060
 147.9496960  80.0683310  59.0462690 148.6696080  80.5638600  58.6558800
 147.7478780  79.3901200  58.4016560 143.4106900  71.4621270  53.1892080
 142.5971510  70.9634440  53.1137390 143.2168850  72.3019520  52.7728430
 143.3315760  80.1392370  64.9331690 143.2653070  79.2188040  64.6789280
 142.7020900  80.2367810  65.6476330 146.1255290  75.8340920  51.4854240
 147.0134910  76.1458150  51.3105580 146.0960380  74.9613170  51.0934820
 142.1215880  82.0064610  52.1642410 142.4631580  82.7506840  51.6685730
 141.2928590  82.3195730  52.5267240 137.9204040  78.1643940  66.6880360
 137.6204180  78.3101120  65.7908180 138.6915280  77.6049230  66.5953750
 143.2632490  82.9612940  64.6835490 143.2777030  82.0293900  64.4654400
 142.5557590  83.0472700  65.3225260 148.3969560  77.1452760  50.9534100
 148.3133280  77.5766980  50.1030540 149.1163750  77.6051110  51.3860920
 149.4743700  79.6020280  64.0304070 148.7491890  80.1949060  63.8333460
 150.0019160  79.5943820  63.2317440 149.4256810  83.9995020  53.6816230
 148.7832970  83.3450640  53.9559950 149.0387470  84.4050110  52.9056900
 145.0043290  81.3280450  57.5287920 145.3567110  80.7308580  56.8689290
 144.1205620  81.0024680  57.6996170 141.0906570  82.0878140  54.9358330
 141.7777700  82.6347350  55.3165920 140.3038990  82.6318870  54.9707940
 140.3933780  79.0924170  54.5483690 140.8496560  79.9029420  54.7743880
 140.0421990  78.7747310  55.3802180 142.6966390  84.6030510  61.7775990
 143.3408610  84.8089890  62.4549410 143.0595830  83.8418910  61.3246840
 143.9698470  82.6062860  60.4953440 144.6120700  81.9056020  60.6085610
 144.4947820  83.3861300  60.3150330 147.8154190  82.8911480  50.2192580
 147.5891770  82.1741920  50.8117220 147.4250390  82.6423920  49.3814330
 145.7436090  83.4057760  63.6989500 146.0792330  83.9924450  64.3767420
 144.8236430  83.2750470  63.9287290 133.5970220  86.9178340  50.9937040
 133.9567860  87.5167680  50.3394310 133.4562560  87.4638230  51.7672070
 147.3970440  80.8083420  51.8806740 147.1092140  81.2696110  52.6684620
 148.1922610  80.3481190  52.1490960 141.5724670  83.4549090  66.8677560
 141.2521540  82.7358330  67.4123250 140.8983030  84.1304160  66.9413620
 139.6138840  84.3009540  51.8110710 139.6048940  85.0339230  51.1955220
 138.6937200  84.0541120  51.9037670 144.7878270  73.6875250  62.2314360
 145.1559090  72.8670460  62.5593930 143.9276470  73.7477140  62.6470010
 148.1540300  72.6432190  53.0401920 147.5253460  72.7477860  52.3260150
 147.6592220  72.8628970  53.8295800 142.5998440  84.3637780  50.4735900
 142.7010420  84.1601770  49.5437880 141.7000180  84.1096060  50.6783680
 141.7480260  76.3414840  62.4552330 142.2465510  76.8160660  63.1204180
 141.8903210  75.4178360  62.6622360 144.1539760  71.6468800  55.8955590
 144.0307540  71.6654930  54.9465100 145.1024320  71.6947740  56.0153990
 141.2416550  86.8824100  55.1683570 141.4958050  86.8445490  54.2462940
 140.2929030  86.7557430  55.1611820 148.9547120  72.5582800  63.2980720
 148.4520720  73.2988200  63.6374530 149.7703780  72.9466800  62.9817510
 147.2469130  77.8015980  56.7442080 146.3059270  77.8166210  56.9189770
 147.5613200  77.0151940  57.1902380 137.2250770  79.4835580  50.3046040
 137.9914040  79.3716940  50.8671470 137.3025460  78.7873550  49.6522810
 149.2494710  84.9724830  58.4196340 149.3742130  85.7956000  58.8920150
 150.1160270  84.7615560  58.0720490 136.7212240  87.0656040  58.0913470
 137.4574720  86.5171500  58.3622040 137.1053160  87.9312050  57.9519460
 133.6057720  83.1329610  53.9654980 132.6797500  83.3750750  53.9560390
 134.0714150  83.9603870  53.8439730 139.8314550  86.2386350  49.9139040
 140.6243160  86.5275180  49.4620830 139.3118900  85.8078520  49.2351520
 144.5635150  82.3581980  67.2274460 143.9573310  82.3813580  66.4870210
 144.2589260  81.6265020  67.7641710 145.9935520  86.0862270  65.8383870
 146.9457270  86.0020290  65.7884110 145.8463740  86.7503980  66.5117660
 148.8844720  85.4656480  51.3375780 148.5986230  85.0521620  50.5229960
 148.6864270  86.3944190  51.2176300 133.4468330  78.7375570  66.2235100
 133.9507350  78.1582850  66.7951330 132.7075750  79.0215800  66.7611470
 140.3491950  81.4589760  49.7781390 140.2442590  80.8442110  50.5042770
 140.1816170  80.9355650  48.9944400 140.5006270  80.1446560  65.7570620
 139.7351940  80.7131560  65.6725290 140.6822230  79.8522770  64.8638850
 143.5894680  80.5209790  50.3823380 143.0404780  80.9679090  51.0266120
 144.2113940  80.0159040  50.9061050 147.6429620  81.8751890  66.3145640
 148.3839090  82.2127650  65.8113100 146.8802300  82.0443950  65.7615410
 135.4791410  76.8805160  67.1185170 135.5196750  76.5819030  68.0270400
 136.3336910  77.2812770  66.9592690 139.2569800  79.4800710  52.2788680
 139.6786220  79.3140580  53.1220070 139.3820640  78.6700940  51.7843820
 137.4197220  75.4597260  65.0859660 136.8893680  74.9688210  64.4583000
 138.0885290  75.8881460  64.5517590 141.7697440  78.5038320  49.5265780
 142.2903100  77.7887340  49.1606930 142.4165840  79.1424190  49.8266290
 146.3175280  79.9266720  64.8500850 146.7316300  80.0811800  65.6991270
 145.3826280  80.0521940  65.0126630 146.7897450  77.2662880  66.8540000
 147.3718220  76.5115200  66.7660480 146.9659220  77.7970320  66.0771480
 137.9069520  72.4259630  65.1656950 137.8126390  71.8080380  64.4407820
 137.3266910  73.1525920  64.9386860 140.6730960  70.9832870  62.1984340
 140.2248260  71.0057130  61.3529890 140.0396160  70.5851890  62.7954640
 141.0790510  79.8787200  62.8196780 141.4978620  80.7219930  62.6473020
 140.1599140  80.0159240  62.5903560 143.4154410  77.6103380  64.2034620
 143.5350620  77.0144520  64.9429460 144.2748410  77.6473070  63.7835920
 145.7542310  78.1640570  62.7797130 145.2277530  78.6883190  62.1762270
 146.0973650  78.7967960  63.4106860 138.9297930  86.1840210  63.9354510
 138.3919020  86.9086270  63.6163210 139.1831890  85.7070550  63.1451850
 140.1823180  74.1524730  65.4610440 140.7722870  73.8440580  66.1488260
 139.3643420  73.6804480  65.6170340 145.0016610  73.7690540  65.6943460
 144.3132130  73.1072080  65.6293450 145.7222630  73.3228810  66.1391920
 145.6317010  70.3642170  51.7533720 145.9119300  69.5210070  52.1093140
 144.8582740  70.5965280  52.2672470 141.7860140  87.4191420  64.1941160
 141.7118840  88.3226560  64.5013530 140.8838980  87.1003320  64.1663230
 140.1696430  71.5969180  50.1980920 139.8218430  70.9193170  49.6183370
 140.3709200  71.1358690  51.0124310 142.3345470  86.5849930  51.8167520
 143.2296260  86.9234900  51.8386280 142.3663100  85.8629340  51.1891800
 135.9741630  81.9576980  50.0454520 136.4116500  82.5006650  50.7012100
 136.4589360  81.1323930  50.0550860 133.1887430  84.7466010  57.4974780
 133.5190440  83.8787070  57.2653420 133.6178430  84.9524530  58.3279740
 137.7849350  83.0775020  55.1576750 137.4844890  82.9539990  56.0580660
 137.6786840  82.2183610  54.7492480 133.6777640  85.6136600  60.2356410
 133.2408630  85.7937400  61.0680560 134.2455320  86.3711220  60.0938130
 149.3139820  85.1153600  64.5233720 148.7141810  85.1746160  63.7797640
 149.4433720  84.1758580  64.6530570 147.9991460  81.8405580  62.6209880
 147.1851300  82.2702740  62.8835670 148.4065660  82.4523990  62.0078930
 150.0616900  79.8953270  49.5210150 150.3365740  80.8032150  49.3929370
 149.8727640  79.8315800  50.4572140 146.4592510  72.9198120  50.8163780
 146.8777390  72.7329100  49.9760440 146.1528570  72.0677170  51.1266710
 149.9582240  77.8322260  54.5139580 149.5825840  77.0650190  54.0820870
 149.2285360  78.2144960  55.0014510 149.3481860  76.9793780  64.1479100
 149.1167950  76.7506530  63.2477050 149.6086410  77.8993330  64.1023990
 134.0994000  75.4218490  65.0407050 133.2050050  75.3885250  65.3800760
 134.6391550  75.6205280  65.8058300 147.7869930  72.2050210  66.9258800
 148.6640110  72.2133610  67.3092800 147.7990770  71.4681050  66.3151150
 149.2333200  76.0579750  57.8146820 149.7570680  75.5642400  57.1836990
 149.8192620  76.1930110  58.5594390 149.4122920  76.1419620  61.3366370
 148.4625630  76.1083160  61.4511360 149.5935930  77.0519730  61.1016140
 148.7233170  75.3153100  53.7539230 149.2192290  75.0823970  54.5388110
 148.5249240  74.4764940  53.3376870 148.4986050  69.8908180  62.7459910
 149.1358270  70.5042320  63.1119100 148.6460940  69.9268840  61.8009140
 148.0567510  86.5924180  56.1478150 148.6526580  86.2708750  55.4712570
 148.3145660  86.1196000  56.9391420 135.9630080  83.0242090  66.2968780
 135.9199710  82.6535000  67.1783240 136.0941090  83.9619660  66.4370600
 139.6636110  84.5801680  61.8978500 139.4227470  84.8476240  61.0109020
 140.6038750  84.7507410  61.9529360 141.8690530  71.0434370  65.6535010
 141.8079420  71.6356200  66.4030420 142.8090910  70.9360330  65.5085270
 144.5065090  70.7004430  65.2927300 145.1205500  71.0183720  64.6308380
 145.0514650  70.2153020  65.9123160 135.8018110  85.9704340  63.4166560
 135.2078430  85.8389040  64.1556600 135.7941950  85.1342480  62.9508660
 145.2473130  69.2636570  61.6196590 144.3732970  69.5971680  61.4169520
 145.1383880  68.7909750  62.4448460 146.1545110  71.4707440  63.0038310
 145.8258470  70.6559200  62.6240040 147.1027410  71.4277250  62.8804000
 148.6079720  87.2419480  59.9775880 148.1482690  87.9935290  59.6033900
 147.9792180  86.5225950  59.9190680 139.0375440  85.5507720  59.1524010
 139.5540460  84.9395080  58.6272270 139.6872820  86.0536500  59.6435020
 141.7770940  86.4416210  59.9792990 142.0648750  86.1870510  59.1026000
 142.2894160  85.8893570  60.5698560 142.9947950  70.1806410  60.5589500
 142.2119740  70.6551910  60.8386260 142.7010880  69.2761240  60.4502680
 147.5469020  70.8829510  58.6038590 147.9877110  70.8274610  57.7560190
 147.2776610  71.7987520  58.6748770 149.4107590  70.5144750  56.6147410
 149.3495990  69.5705970  56.4678430 150.1899620  70.6224840  57.1600870
 133.7160340  86.6537110  55.5771360 133.5482380  86.0207790  56.2753250
 132.8494850  86.8596510  55.2265550 140.8802170  72.5993160  56.0705530
 140.0676680  72.2250050  55.7301410 141.3843810  71.8438240  56.3726720
 145.3827150  69.2635610  57.3088600 145.9856520  69.8355820  57.7837120
 144.6420140  69.8275050  57.0862500 148.5261750  69.6657170  52.5828880
 148.7212380  70.5640620  52.8496310 147.7391620  69.4344250  53.0761830
 135.3223040  85.3470340  53.0221500 134.7970660  85.7278370  52.3183460
 135.2467620  85.9721110  53.7431210 141.8443300  87.3632310  67.3461190
 142.7710610  87.1276580  67.3897150 141.8293730  88.1904310  66.8647220
 150.0788360  86.9057880  54.3435440 150.2540550  86.2195620  53.6996360
 149.3809930  87.4304930  53.9512110 139.0306910  70.0277060  67.1103070
 138.7491180  70.5310660  66.3463890 139.4126610  69.2298810  66.7445200
 137.9216010  87.2952720  51.8970750 138.6534830  87.0112000  51.3494640
 138.1809680  87.0566000  52.7870130 137.0830800  83.4117450  51.9017080
 136.4539680  83.8802550  52.4502910 137.1978630  82.5666670  52.3363270
 145.6322370  69.4430640  67.6883540 145.5187820  69.7625250  68.5835060
 146.4492110  69.8443150  67.3920820 148.4120860  86.5902170  67.1702230
 149.2046180  86.0951400  66.9628190 148.7054010  87.2692310  67.7777840
 144.5380520  77.4623110  38.0518280 144.4574570  76.5477720  37.7809990
 144.1244940  77.9590180  37.3457990 142.6698560  79.2402130  39.9327550
 141.8940660  78.7602570  40.2226120 143.3211490  78.5607780  39.7583710
 136.6864390  79.5521940  40.8103310 135.8549270  79.2970650  41.2099820
 137.2945370  79.6232710  41.5461230 146.6905990  83.6462320  38.7126680
 146.2287520  82.8749560  39.0413850 147.5031540  83.6728390  39.2179130
 136.6665650  83.5862030  41.0061330 136.9693690  82.6959770  40.8271550
 137.4109240  84.1432250  40.7783580 135.0956340  74.5123830  34.5945700
 134.2073040  74.8539800  34.4925580 135.3797530  74.3124150  33.7026530
 133.0589350  77.1129480  40.4785400 133.6305460  76.3451680  40.4789040
 133.0590890  77.4118240  39.5692010 142.9169300  85.9320330  38.3330670
 142.2980740  86.3877830  37.7625110 143.7721080  86.0871790  37.9320370
 142.1107550  81.9159320  39.9397710 142.0415830  80.9749260  39.7786840
 142.8727410  82.0060730  40.5120280 134.3014220  72.5213840  42.2654330
 134.1217060  71.6239590  42.5457090 133.8994300  73.0685710  42.9401280
 143.1412720  74.7229700  40.1666640 143.5177540  73.8501580  40.0540310
 143.0432230  75.0588400  39.2757080 137.2717730  73.0955330  35.6284080
 137.3784480  73.9959060  35.9352840 136.3610090  73.0473300  35.3378730
 146.9236840  72.2180140  37.0994980 147.7446460  71.7276710  37.1420460
 146.9570920  72.8077800  37.8526820 134.9200890  75.0174340  40.8736670
 135.6011000  75.2812710  41.4924070 134.6048940  74.1775210  41.2074680
 139.1125460  76.0641700  39.9609260 139.6203680  76.5622670  40.6014280
 139.6438700  75.2876900  39.7848620 137.3961560  70.7040260  44.2272680
 137.3980000  71.2212650  43.4218580 136.5665870  70.2270440  44.2042610
 143.7832650  80.8159570  35.7262580 143.1649920  81.2809020  35.1625300
 144.2955900  81.5087050  36.1432090 138.6464410  80.3435440  42.4046180
 138.3133790  80.9704360  43.0467250 138.8231090  80.8697320  41.6247850
 147.1598320  74.1580520  39.8722520 146.4553890  74.4465410  40.4525630
 147.5210480  74.9680630  39.5122080 137.0776890  72.4150220  42.2343130
 137.4193700  73.2592270  41.9397000 136.1392700  72.5633960  42.3508470
 137.8583510  82.3116240  44.2195360 138.4757510  82.9867320  43.9379810
 136.9976630  82.7204220  44.1282860 133.1515850  81.5016100  33.1002210
 132.7743830  81.9903200  32.3687110 133.4088920  82.1741380  33.7308740
 148.7761100  83.7755650  42.1350000 148.0924620  84.4454760  42.1266670
 149.3155390  83.9736300  41.3694860 140.7604780  69.9032490  38.5587720
 141.0679760  69.3479380  37.8423220 139.8305480  70.0376950  38.3760710
 146.3119840  85.6199780  40.8495180 146.3247000  85.2162070  39.9817440
 145.7595060  86.3947070  40.7456610 147.6065260  82.3416000  35.9385350
 147.4961590  81.3990330  36.0634770 147.6033510  82.7031640  36.8248110
 145.7105280  80.5229620  42.1777790 146.1274070  80.3089730  41.3431250
 146.4345100  80.7802410  42.7486410 143.1485540  77.9681320  35.2947840
 142.2214820  77.9018700  35.5236310 143.3010360  78.9061450  35.1803080
 143.1354620  74.2398320  32.2915000 142.1958290  74.4012280  32.3767460
 143.4537880  74.9584000  31.7450990 149.6567380  78.9216840  42.2694030
 148.8286010  78.9909930  41.7944160 150.2517860  79.5071150  41.8009860
 147.1782830  79.5301620  35.7983090 146.5595250  79.1921170  35.1509390
 147.1607280  78.8861380  36.5062280 146.6209390  75.7086160  43.2148900
 146.2080570  76.5339870  43.4688890 145.8885340  75.1231200  43.0225260
 138.7542180  78.4946060  38.0767570 138.3499180  77.7823310  37.5813470
 138.8405300  78.1499300  38.9655610 139.2223880  82.1813620  40.2406780
 138.9252170  81.5759090  39.5614560 140.1723700  82.2190930  40.1296140
 137.4670800  75.2689270  41.8566610 138.0185390  75.3784610  41.0819860
 137.9814310  75.6426870  42.5721840 147.3109490  85.7545490  43.9029880
 146.8340050  86.5617680  43.7102490 146.6271280  85.1023820  44.0556090
 138.3142310  81.9195310  46.8914580 137.4170840  82.1435280  47.1387980
 138.3395180  82.0430250  45.9425980 145.3547530  78.7688430  32.8055840
 145.7940810  77.9310860  32.6593660 146.0675950  79.4017830  32.8919980
 137.1413530  78.7908630  45.4671950 137.0021300  79.6631430  45.8359350
 136.2594890  78.4481440  45.3219890 143.4642910  83.7084500  36.7737080
 143.9038820  84.4508830  36.3592470 143.4029800  83.9511070  37.6976040
 138.9393880  84.7330330  47.6757100 138.9109310  85.1373280  46.8085530
 138.7758850  83.8040690  47.5128700 148.9364670  70.0231240  31.1196880
 148.6237330  70.1158070  32.0195950 149.6977140  70.6012270  31.0694310
 135.4546810  77.3891040  35.5774220 135.3344410  78.1153130  34.9655490
 135.1447700  76.6193950  35.1002130 133.0932180  80.5606180  41.3842860
 133.1712600  80.6954950  40.4398580 133.7073860  79.8522070  41.5770980
 134.3379810  82.2606370  37.7949040 133.9307890  82.4020960  36.9402640
 135.2292820  81.9766530  37.5920250 150.2941950  82.7070280  46.1321280
 150.4205010  82.4682160  45.2138460 150.3363330  81.8754820  46.6043360
 144.1558690  86.4098280  44.7016090 144.6703360  86.3206290  45.5038520
 143.3127770  86.7557980  44.9944000 146.1313090  86.6953620  34.1300090
 145.9714230  86.4056560  35.0281920 145.9659800  85.9193750  33.5945320
 138.6101470  86.4752150  35.9071710 138.4343950  85.5587690  35.6939510
 137.7557210  86.8339440  36.1469510 145.8339220  84.2041180  32.6898090
 145.1404380  84.2018470  32.0300370 146.5762080  83.7800500  32.2592260
 145.3989150  85.8303890  36.7646580 145.8546100  85.0493270  37.0785200
 145.7381670  86.5410710  37.3087760 150.1465960  74.7602740  47.0971020
 149.5310230  75.2682410  46.5686480 149.8262380  73.8601070  47.0396960
 133.1491700  81.6020350  43.9237320 133.3122740  81.1325710  43.1056690
 133.6144150  81.0943910  44.5886160 137.9210470  70.7326110  38.9597890
 137.4778620  71.5135650  38.6282410 138.4795460  71.0556000  39.6668830
 142.2080280  73.5994630  44.5633210 141.7459650  73.8077650  45.3753150
 141.8058390  72.7853980  44.2603880 147.2084790  74.8203580  45.6929870
 146.3578380  74.5209330  46.0138940 147.0486580  75.0645590  44.7813690
 144.3034500  76.3205330  47.7928660 144.6287910  75.4869080  47.4530890
 145.0914830  76.8433850  47.9406990 141.0369290  70.3536810  33.8403720
 140.4123470  70.3496680  34.5657030 140.9499410  69.4867770  33.4439690
 139.9586370  71.2773440  40.8187490 140.2558700  72.1836270  40.7379510
 140.5071930  70.7892220  40.2047060 137.7124690  75.8559680  36.6879140
 137.4865610  75.6396850  37.5925760 136.9317220  76.2888140  36.3425110
 144.9422450  75.8623050  35.2869790 144.3431340  76.5858850  35.1033410
 145.4902060  75.7999830  34.5046240 140.1523900  76.7545260  47.3539410
 140.0567500  75.8139990  47.2039810 140.9955880  76.9760330  46.9587480
 143.5487320  74.4986590  37.3173070 143.9416890  74.8158790  36.5041760
 143.9104170  73.6198470  37.4317590 135.2834440  73.1658930  45.5073190
 134.8897830  74.0134140  45.7145970 134.5952840  72.5285300  45.6981830
 141.8579490  73.2493900  48.5769930 141.1677810  73.0566100  49.2116020
 142.6011790  73.5328540  49.1094230 132.5851490  71.0887390  39.5403270
 132.2964540  71.6590250  40.2528250 133.3297250  70.6091840  39.9034500
 132.7721720  75.0307510  30.7505990 132.6896390  75.9738270  30.8920980
 132.4204780  74.8882420  29.8718340 144.1342460  77.0892340  41.4123850
 143.4023580  77.5979150  41.7613950 143.7366800  76.2722320  41.1112630
 140.5719850  73.7646540  39.8176340 140.5755910  73.3236490  38.9680880
 141.4670970  74.0863870  39.9248160 136.4222230  73.6473030  38.7770550
 136.0822280  74.1248260  39.5337600 135.6599550  73.1938150  38.4171650
 140.6340000  74.7658620  32.8083100 140.7552820  74.7245100  33.7568920
 140.2488510  75.6282770  32.6529830 144.5968370  72.5426020  40.8246790
 144.6141110  72.9934670  41.6688640 144.3483950  71.6431660  41.0380230
 139.6461500  77.0759760  32.2066400 139.0778400  76.6278010  31.5802310
 140.3550500  77.4352540  31.6731550 148.0239120  69.9558200  46.6633170
 148.3484890  69.2247860  47.1891150 148.0595630  69.6371840  45.7614160
 134.7230680  80.9771780  46.0833130 134.3385470  80.3365450  46.6816090
 135.0342870  81.6807900  46.6527860 140.8727820  77.8248320  41.5641750
 141.2397950  77.3506890  42.3103090 140.6832880  78.6989890  41.9050090
 133.7368310  72.5692010  37.6935220 133.4515230  72.2047680  38.5313840
 133.6747170  71.8372470  37.0798360 138.6627190  76.8656960  43.8825960
 138.3584260  77.7448940  44.1076320 139.6173650  76.9256750  43.9183400
 137.1908980  81.0717950  34.4792810 136.4171240  80.5315570  34.3191530
 137.9203610  80.5524560  34.1410570 147.9496960  80.0683310  40.2719200
 148.6696080  80.5638600  39.8815310 147.7478780  79.3901200  39.6273070
 143.4106900  71.4621270  34.4148590 142.5971510  70.9634440  34.3393900
 143.2168850  72.3019520  33.9984940 143.3315760  80.1392370  46.1588200
 143.2653070  79.2188040  45.9045790 142.7020900  80.2367810  46.8732840
 146.1255290  75.8340920  32.7110750 147.0134910  76.1458150  32.5362090
 146.0960380  74.9613170  32.3191330 137.2346380  80.7398330  38.1171620
 137.7525050  79.9366590  38.0628510 136.7830400  80.6777470  38.9588450
 142.1215880  82.0064610  33.3898920 142.4631580  82.7506840  32.8942240
 141.2928590  82.3195730  33.7523750 134.7190920  77.7059700  45.0297320
 134.3605860  78.3713550  45.6170660 134.4245480  76.8743250  45.4009940
 137.9204040  78.1643940  47.9136870 137.6204180  78.3101120  47.0164690
 138.6915280  77.6049230  47.8210260 143.2632490  82.9612940  45.9092000
 143.2777030  82.0293900  45.6910910 142.5557590  83.0472700  46.5481770
 148.3969560  77.1452760  32.1790610 148.3133280  77.5766980  31.3287050
 149.1163750  77.6051110  32.6117430 149.4743700  79.6020280  45.2560580
 148.7491890  80.1949060  45.0589970 150.0019160  79.5943820  44.4573950
 149.4256810  83.9995020  34.9072740 148.7832970  83.3450640  35.1816460
 149.0387470  84.4050110  34.1313410 145.0043290  81.3280450  38.7544430
 145.3567110  80.7308580  38.0945800 144.1205620  81.0024680  38.9252680
 141.0906570  82.0878140  36.1614840 141.7777700  82.6347350  36.5422430
 140.3038990  82.6318870  36.1964450 133.2298970  77.7050960  31.6531920
 134.0993820  77.9875760  31.9367840 132.7389290  78.5186830  31.5380730
 140.3933780  79.0924170  35.7740200 140.8496560  79.9029420  36.0000390
 140.0421990  78.7747310  36.6058690 142.6966390  84.6030510  43.0032500
 143.3408610  84.8089890  43.6805920 143.0595830  83.8418910  42.5503350
 136.2945560  69.4361820  36.2462720 136.1660190  69.4279720  37.1947640
 135.4707580  69.7744910  35.8953730 143.9698470  82.6062860  41.7209950
 144.6120700  81.9056020  41.8342120 144.4947820  83.3861300  41.5406840
 147.8154190  82.8911480  31.4449090 147.5891770  82.1741920  32.0373730
 147.4250390  82.6423920  30.6070840 145.7436090  83.4057760  44.9246010
 146.0792330  83.9924450  45.6023930 144.8236430  83.2750470  45.1543800
 133.5970220  86.9178340  32.2193550 133.9567860  87.5167680  31.5650820
 133.4562560  87.4638230  32.9928580 147.3970440  80.8083420  33.1063250
 147.1092140  81.2696110  33.8941130 148.1922610  80.3481190  33.3747470
 133.5812080  85.1833200  46.6935950 133.6903200  84.2427940  46.5531340
 132.9292640  85.4487950  46.0449680 141.5724670  83.4549090  48.0934070
 141.2521540  82.7358330  48.6379760 140.8983030  84.1304160  48.1670130
 139.6138840  84.3009540  33.0367220 139.6048940  85.0339230  32.4211730
 138.6937200  84.0541120  33.1294180 135.2145480  79.5224430  33.7813980
 134.6073430  80.2623330  33.7909280 135.6894830  79.6123790  32.9552180
 144.7878270  73.6875250  43.4570870 145.1559090  72.8670460  43.7850440
 143.9276470  73.7477140  43.8726520 148.1540300  72.6432190  34.2658430
 147.5253460  72.7477860  33.5516660 147.6592220  72.8628970  35.0552310
 142.5998440  84.3637780  31.6992410 142.7010420  84.1601770  30.7694390
 141.7000180  84.1096060  31.9040190 140.1224330  74.9218140  35.6816310
 139.4140480  75.3904480  36.1229920 140.4068810  74.2640150  36.3161500
 141.7480260  76.3414840  43.6808840 142.2465510  76.8160660  44.3460690
 141.8903210  75.4178360  43.8878870 144.1539760  71.6468800  37.1212100
 144.0307540  71.6654930  36.1721610 145.1024320  71.6947740  37.2410500
 141.2416550  86.8824100  36.3940080 141.4958050  86.8445490  35.4719450
 140.2929030  86.7557430  36.3868330 138.3259350  73.2303220  33.0567020
 139.1749880  73.6673370  32.9907210 137.9590620  73.5423480  33.8839080
 148.9547120  72.5582800  44.5237230 148.4520720  73.2988200  44.8631040
 149.7703780  72.9466800  44.2074020 147.2469130  77.8015980  37.9698590
 146.3059270  77.8166210  38.1446280 147.5613200  77.0151940  38.4158890
 137.2250770  79.4835580  31.5302550 137.9914040  79.3716940  32.0927980
 137.3025460  78.7873550  30.8779320 135.9197530  76.9160650  32.2135440
 136.0001120  75.9688160  32.3252840 136.8117280  77.2467530  32.3196100
 149.2494710  84.9724830  39.6452850 149.3742130  85.7956000  40.1176660
 150.1160270  84.7615560  39.2977000 136.7212240  87.0656040  39.3169980
 137.4574720  86.5171500  39.5878550 137.1053160  87.9312050  39.1775970
 133.6057720  83.1329610  35.1911490 132.6797500  83.3750750  35.1816900
 134.0714150  83.9603870  35.0696240 135.7270520  86.2502110  48.5055560
 136.5283250  86.5714160  48.9190960 135.2122340  85.8897690  49.2275470
 139.8314550  86.2386350  31.1395550 140.6243160  86.5275180  30.6877340
 139.3118900  85.8078520  30.4608030 144.5635150  82.3581980  48.4530970
 143.9573310  82.3813580  47.7126720 144.2589260  81.6265020  48.9898220
 145.9935520  86.0862270  47.0640380 146.9457270  86.0020290  47.0140620
 145.8463740  86.7503980  47.7374170 148.8844720  85.4656480  32.5632290
 148.5986230  85.0521620  31.7486470 148.6864270  86.3944190  32.4432810
 140.3491950  81.4589760  31.0037900 140.2442590  80.8442110  31.7299280
 140.1816170  80.9355650  30.2200910 140.5006270  80.1446560  46.9827130
 139.7351940  80.7131560  46.8981800 140.6822230  79.8522770  46.0895360
 143.5894680  80.5209790  31.6079890 143.0404780  80.9679090  32.2522630
 144.2113940  80.0159040  32.1317560 147.6429620  81.8751890  47.5402150
 148.3839090  82.2127650  47.0369610 146.8802300  82.0443950  46.9871920
 139.2569800  79.4800710  33.5045190 139.6786220  79.3140580  34.3476580
 139.3820640  78.6700940  33.0100330 137.4197220  75.4597260  46.3116170
 136.8893680  74.9688210  45.6839510 138.0885290  75.8881460  45.7774100
 141.7697440  78.5038320  30.7522290 142.2903100  77.7887340  30.3863440
 142.4165840  79.1424190  31.0522800 146.3175280  79.9266720  46.0757360
 146.7316300  80.0811800  46.9247780 145.3826280  80.0521940  46.2383140
 146.7897450  77.2662880  48.0796510 147.3718220  76.5115200  47.9916990
 146.9659220  77.7970320  47.3027990 137.9069520  72.4259630  46.3913460
 137.8126390  71.8080380  45.6664330 137.3266910  73.1525920  46.1643370
 140.6730960  70.9832870  43.4240850 140.2248260  71.0057130  42.5786400
 140.0396160  70.5851890  44.0211150 141.0790510  79.8787200  44.0453290
 141.4978620  80.7219930  43.8729530 140.1599140  80.0159240  43.8160070
 143.4154410  77.6103380  45.4291130 143.5350620  77.0144520  46.1685970
 144.2748410  77.6473070  45.0092430 145.7542310  78.1640570  44.0053640
 145.2277530  78.6883190  43.4018780 146.0973650  78.7967960  44.6363370
 138.1528700  75.5533940  30.4503350 137.9517760  74.6901300  30.8116690
 137.9820750  75.4667300  29.5124950 138.9297930  86.1840210  45.1611020
 138.3919020  86.9086270  44.8419720 139.1831890  85.7070550  44.3708360
 140.1823180  74.1524730  46.6866950 140.7722870  73.8440580  47.3744770
 139.3643420  73.6804480  46.8426850 145.0016610  73.7690540  46.9199970
 144.3132130  73.1072080  46.8549960 145.7222630  73.3228810  47.3648430
 145.6317010  70.3642170  32.9790230 145.9119300  69.5210070  33.3349650
 144.8582740  70.5965280  33.4928980 136.9511500  72.6534560  30.4381230
 137.2537400  72.6601990  29.5300380 137.6906090  72.3032420  30.9348890
 141.7860140  87.4191420  45.4197670 141.7118840  88.3226560  45.7270040
 140.8838980  87.1003320  45.3919740 140.1696430  71.5969180  31.4237430
 139.8218430  70.9193170  30.8439880 140.3709200  71.1358690  32.2380820
 142.3345470  86.5849930  33.0424030 143.2296260  86.9234900  33.0642790
 142.3663100  85.8629340  32.4148310 135.9741630  81.9576980  31.2711030
 136.4116500  82.5006650  31.9268610 136.4589360  81.1323930  31.2807370
 133.1887430  84.7466010  38.7231290 133.5190440  83.8787070  38.4909930
 133.6178430  84.9524530  39.5536250 137.7849350  83.0775020  36.3833260
 137.4844890  82.9539990  37.2837170 137.6786840  82.2183610  35.9748990
 133.6777640  85.6136600  41.4612920 133.2408630  85.7937400  42.2937070
 134.2455320  86.3711220  41.3194640 149.3139820  85.1153600  45.7490230
 148.7141810  85.1746160  45.0054150 149.4433720  84.1758580  45.8787080
 133.5102070  78.1256830  37.8201800 132.8550910  77.8568470  37.1761500
 134.3480020  78.0161310  37.3703780 147.9991460  81.8405580  43.8466390
 147.1851300  82.2702740  44.1092180 148.4065660  82.4523990  43.2335440
 150.0616900  79.8953270  30.7466660 150.3365740  80.8032150  30.6185880
 149.8727640  79.8315800  31.6828650 146.4592510  72.9198120  32.0420290
 146.8777390  72.7329100  31.2016950 146.1528570  72.0677170  32.3523220
 149.9582240  77.8322260  35.7396090 149.5825840  77.0650190  35.3077380
 149.2285360  78.2144960  36.2271020 134.5478000  78.5109400  42.3605140
 134.9151040  78.4236800  43.2401160 133.9788820  77.7475950  42.2612000
 149.3481860  76.9793780  45.3735610 149.1167950  76.7506530  44.4733560
 149.6086410  77.8993330  45.3280500 134.0994000  75.4218490  46.2663560
 133.2050050  75.3885250  46.6057270 134.6391550  75.6205280  47.0314810
 147.7869930  72.2050210  48.1515310 148.6640110  72.2133610  48.5349310
 147.7990770  71.4681050  47.5407660 132.7240150  75.3355760  33.7627130
 131.8204230  75.5985960  33.5878790 133.2080770  75.6066930  32.9827090
 149.2333200  76.0579750  39.0403330 149.7570680  75.5642400  38.4093500
 149.8192620  76.1930110  39.7850900 149.4122920  76.1419620  42.5622880
 148.4625630  76.1083160  42.6767870 149.5935930  77.0519730  42.3272650
 135.2667360  74.3921300  31.6721510 135.9759060  73.9704520  31.1868790
 134.5507300  74.4596530  31.0404860 134.9141520  70.4460630  30.7124160
 135.6369650  70.9869570  31.0305380 135.1866040  70.1724050  29.8365700
 148.7233170  75.3153100  34.9795740 149.2192290  75.0823970  35.7644620
 148.5249240  74.4764940  34.5633380 134.6033710  69.6966820  40.6146780
 135.2509900  69.1464200  40.1741940 135.0235550  69.9509970  41.4362590
 148.4986050  69.8908180  43.9716420 149.1358270  70.5042320  44.3375610
 148.6460940  69.9268840  43.0265650 148.0567510  86.5924180  37.3734660
 148.6526580  86.2708750  36.6969080 148.3145660  86.1196000  38.1647930
 135.9630080  83.0242090  47.5225290 135.9199710  82.6535000  48.4039750
 136.0941090  83.9619660  47.6627110 139.6636110  84.5801680  43.1235010
 139.4227470  84.8476240  42.2365530 140.6038750  84.7507410  43.1785870
 141.8690530  71.0434370  46.8791520 141.8079420  71.6356200  47.6286930
 142.8090910  70.9360330  46.7341780 144.5065090  70.7004430  46.5183810
 145.1205500  71.0183720  45.8564890 145.0514650  70.2153020  47.1379670
 135.0286350  69.3798690  46.6322870 135.5769340  69.1986740  45.8688980
 135.0941660  68.5892800  47.1679180 135.8018110  85.9704340  44.6423070
 135.2078430  85.8389040  45.3813110 135.7941950  85.1342480  44.1765170
 145.2473130  69.2636570  42.8453100 144.3732970  69.5971680  42.6426030
 145.1383880  68.7909750  43.6704970 146.1545110  71.4707440  44.2294820
 145.8258470  70.6559200  43.8496550 147.1027410  71.4277250  44.1060510
 148.6079720  87.2419480  41.2032390 148.1482690  87.9935290  40.8290410
 147.9792180  86.5225950  41.1447190 135.4330340  83.3362720  43.5931110
 134.7064400  82.7168010  43.5257060 135.4939490  83.7303330  42.7229190
 139.0375440  85.5507720  40.3780520 139.5540460  84.9395080  39.8528780
 139.6872820  86.0536500  40.8691530 141.7770940  86.4416210  41.2049500
 142.0648750  86.1870510  40.3282510 142.2894160  85.8893570  41.7955070
 142.9947950  70.1806410  41.7846010 142.2119740  70.6551910  42.0642770
 142.7010880  69.2761240  41.6759190 147.5469020  70.8829510  39.8295100
 147.9877110  70.8274610  38.9816700 147.2776610  71.7987520  39.9005280
 149.4107590  70.5144750  37.8403920 149.3495990  69.5705970  37.6934940
 150.1899620  70.6224840  38.3857380 133.7160340  86.6537110  36.8027870
 133.5482380  86.0207790  37.5009760 132.8494850  86.8596510  36.4522060
 134.3388360  70.4853890  34.3059730 135.0967720  70.5982770  33.7323760
 133.8765530  71.3223090  34.2603160 140.8802170  72.5993160  37.2962040
 140.0676680  72.2250050  36.9557920 141.3843810  71.8438240  37.5983230
 145.3827150  69.2635610  38.5345110 145.9856520  69.8355820  39.0093630
 144.6420140  69.8275050  38.3119010 148.5261750  69.6657170  33.8085390
 148.7212380  70.5640620  34.0752820 147.7391620  69.4344250  34.3018340
 135.3223040  85.3470340  34.2478010 134.7970660  85.7278370  33.5439970
 135.2467620  85.9721110  34.9687720 136.7113510  71.0117940  32.8461700
 137.2406270  70.2247740  32.7169650 137.3441830  71.6909130  33.0797230
 138.9051350  70.7493080  35.9007090 138.2754090  70.0480390  36.0677220
 138.3656490  71.5097210  35.6840250 141.8443300  87.3632310  48.5717700
 142.7710610  87.1276580  48.6153660 141.8293730  88.1904310  48.0903730
 150.0788360  86.9057880  35.5691950 150.2540550  86.2195620  34.9252870
 149.3809930  87.4304930  35.1768620 139.0306910  70.0277060  48.3359580
 138.7491180  70.5310660  47.5720400 139.4126610  69.2298810  47.9701710
 137.9216010  87.2952720  33.1227260 138.6534830  87.0112000  32.5751150
 138.1809680  87.0566000  34.0126640 137.0830800  83.4117450  33.1273590
 136.4539680  83.8802550  33.6759420 137.1978630  82.5666670  33.5619780
 145.6322370  69.4430640  48.9140050 145.5187820  69.7625250  49.8091570
 146.4492110  69.8443150  48.6177330 148.4120860  86.5902170  48.3958740
 149.2046180  86.0951400  48.1884700 148.7054010  87.2692310  49.0034350
 144.5380520  77.4623110  19.2774790 144.4574570  76.5477720  19.0066500
 144.1244940  77.9590180  18.5714500 142.6698560  79.2402130  21.1584060
 141.8940660  78.7602570  21.4482630 143.3211490  78.5607780  20.9840220
 136.6864390  79.5521940  22.0359820 135.8549270  79.2970650  22.4356330
 137.2945370  79.6232710  22.7717740 146.6905990  83.6462320  19.9383190
 146.2287520  82.8749560  20.2670360 147.5031540  83.6728390  20.4435640
 136.6665650  83.5862030  22.2317840 136.9693690  82.6959770  22.0528060
 137.4109240  84.1432250  22.0040090 135.0956340  74.5123830  15.8202210
 134.2073040  74.8539800  15.7182090 135.3797530  74.3124150  14.9283040
 133.0589350  77.1129480  21.7041910 133.6305460  76.3451680  21.7045550
 133.0590890  77.4118240  20.7948520 142.9169300  85.9320330  19.5587180
 142.2980740  86.3877830  18.9881620 143.7721080  86.0871790  19.1576880
 142.1107550  81.9159320  21.1654220 142.0415830  80.9749260  21.0043350
 142.8727410  82.0060730  21.7376790 134.3014220  72.5213840  23.4910840
 134.1217060  71.6239590  23.7713600 133.8994300  73.0685710  24.1657790
 143.1412720  74.7229700  21.3923150 143.5177540  73.8501580  21.2796820
 143.0432230  75.0588400  20.5013590 137.2717730  73.0955330  16.8540590
 137.3784480  73.9959060  17.1609350 136.3610090  73.0473300  16.5635240
 146.9236840  72.2180140  18.3251490 147.7446460  71.7276710  18.3676970
 146.9570920  72.8077800  19.0783330 134.9200890  75.0174340  22.0993180
 135.6011000  75.2812710  22.7180580 134.6048940  74.1775210  22.4331190
 139.1125460  76.0641700  21.1865770 139.6203680  76.5622670  21.8270790
 139.6438700  75.2876900  21.0105130 137.3961560  70.7040260  25.4529190
 137.3980000  71.2212650  24.6475090 136.5665870  70.2270440  25.4299120
 143.7832650  80.8159570  16.9519090 143.1649920  81.2809020  16.3881810
 144.2955900  81.5087050  17.3688600 138.6464410  80.3435440  23.6302690
 138.3133790  80.9704360  24.2723760 138.8231090  80.8697320  22.8504360
 147.1598320  74.1580520  21.0979030 146.4553890  74.4465410  21.6782140
 147.5210480  74.9680630  20.7378590 137.0776890  72.4150220  23.4599640
 137.4193700  73.2592270  23.1653510 136.1392700  72.5633960  23.5764980
 137.8583510  82.3116240  25.4451870 138.4757510  82.9867320  25.1636320
 136.9976630  82.7204220  25.3539370 133.1515850  81.5016100  14.3258720
 132.7743830  81.9903200  13.5943620 133.4088920  82.1741380  14.9565250
 148.7761100  83.7755650  23.3606510 148.0924620  84.4454760  23.3523180
 149.3155390  83.9736300  22.5951370 140.7604780  69.9032490  19.7844230
 141.0679760  69.3479380  19.0679730 139.8305480  70.0376950  19.6017220
 146.3119840  85.6199780  22.0751690 146.3247000  85.2162070  21.2073950
 145.7595060  86.3947070  21.9713120 147.6065260  82.3416000  17.1641860
 147.4961590  81.3990330  17.2891280 147.6033510  82.7031640  18.0504620
 145.7105280  80.5229620  23.4034300 146.1274070  80.3089730  22.5687760
 146.4345100  80.7802410  23.9742920 143.1485540  77.9681320  16.5204350
 142.2214820  77.9018700  16.7492820 143.3010360  78.9061450  16.4059590
 143.1354620  74.2398320  13.5171510 142.1958290  74.4012280  13.6023970
 143.4537880  74.9584000  12.9707500 149.6567380  78.9216840  23.4950540
 148.8286010  78.9909930  23.0200670 150.2517860  79.5071150  23.0266370
 147.1782830  79.5301620  17.0239600 146.5595250  79.1921170  16.3765900
 147.1607280  78.8861380  17.7318790 146.6209390  75.7086160  24.4405410
 146.2080570  76.5339870  24.6945400 145.8885340  75.1231200  24.2481770
 138.7542180  78.4946060  19.3024080 138.3499180  77.7823310  18.8069980
 138.8405300  78.1499300  20.1912120 139.2223880  82.1813620  21.4663290
 138.9252170  81.5759090  20.7871070 140.1723700  82.2190930  21.3552650
 137.4670800  75.2689270  23.0823120 138.0185390  75.3784610  22.3076370
 137.9814310  75.6426870  23.7978350 147.3109490  85.7545490  25.1286390
 146.8340050  86.5617680  24.9359000 146.6271280  85.1023820  25.2812600
 138.3142310  81.9195310  28.1171090 137.4170840  82.1435280  28.3644490
 138.3395180  82.0430250  27.1682490 145.3547530  78.7688430  14.0312350
 145.7940810  77.9310860  13.8850170 146.0675950  79.4017830  14.1176490
 137.1413530  78.7908630  26.6928460 137.0021300  79.6631430  27.0615860
 136.2594890  78.4481440  26.5476400 143.4642910  83.7084500  17.9993590
 143.9038820  84.4508830  17.5848980 143.4029800  83.9511070  18.9232550
 138.9393880  84.7330330  28.9013610 138.9109310  85.1373280  28.0342040
 138.7758850  83.8040690  28.7385210 148.9364670  70.0231240  12.3453390
 148.6237330  70.1158070  13.2452460 149.6977140  70.6012270  12.2950820
 135.4546810  77.3891040  16.8030730 135.3344410  78.1153130  16.1912000
 135.1447700  76.6193950  16.3258640 133.0932180  80.5606180  22.6099370
 133.1712600  80.6954950  21.6655090 133.7073860  79.8522070  22.8027490
 134.3379810  82.2606370  19.0205550 133.9307890  82.4020960  18.1659150
 135.2292820  81.9766530  18.8176760 150.2941950  82.7070280  27.3577790
 150.4205010  82.4682160  26.4394970 150.3363330  81.8754820  27.8299870
 144.1558690  86.4098280  25.9272600 144.6703360  86.3206290  26.7295030
 143.3127770  86.7557980  26.2200510 146.1313090  86.6953620  15.3556600
 145.9714230  86.4056560  16.2538430 145.9659800  85.9193750  14.8201830
 138.6101470  86.4752150  17.1328220 138.4343950  85.5587690  16.9196020
 137.7557210  86.8339440  17.3726020 145.8339220  84.2041180  13.9154600
 145.1404380  84.2018470  13.2556880 146.5762080  83.7800500  13.4848770
 145.3989150  85.8303890  17.9903090 145.8546100  85.0493270  18.3041710
 145.7381670  86.5410710  18.5344270 150.1465960  74.7602740  28.3227530
 149.5310230  75.2682410  27.7942990 149.8262380  73.8601070  28.2653470
 133.1491700  81.6020350  25.1493830 133.3122740  81.1325710  24.3313200
 133.6144150  81.0943910  25.8142670 137.9210470  70.7326110  20.1854400
 137.4778620  71.5135650  19.8538920 138.4795460  71.0556000  20.8925340
 142.2080280  73.5994630  25.7889720 141.7459650  73.8077650  26.6009660
 141.8058390  72.7853980  25.4860390 147.2084790  74.8203580  26.9186380
 146.3578380  74.5209330  27.2395450 147.0486580  75.0645590  26.0070200
 144.3034500  76.3205330  29.0185170 144.6287910  75.4869080  28.6787400
 145.0914830  76.8433850  29.1663500 141.0369290  70.3536810  15.0660230
 140.4123470  70.3496680  15.7913540 140.9499410  69.4867770  14.6696200
 139.9586370  71.2773440  22.0444000 140.2558700  72.1836270  21.9636020
 140.5071930  70.7892220  21.4303570 137.7124690  75.8559680  17.9135650
 137.4865610  75.6396850  18.8182270 136.9317220  76.2888140  17.5681620
 144.9422450  75.8623050  16.5126300 144.3431340  76.5858850  16.3289920
 145.4902060  75.7999830  15.7302750 140.1523900  76.7545260  28.5795920
 140.0567500  75.8139990  28.4296320 140.9955880  76.9760330  28.1843990
 143.5487320  74.4986590  18.5429580 143.9416890  74.8158790  17.7298270
 143.9104170  73.6198470  18.6574100 135.2834440  73.1658930  26.7329700
 134.8897830  74.0134140  26.9402480 134.5952840  72.5285300  26.9238340
 141.8579490  73.2493900  29.8026440 141.1677810  73.0566100  30.4372530
 142.6011790  73.5328540  30.3350740 132.5851490  71.0887390  20.7659780
 132.2964540  71.6590250  21.4784760 133.3297250  70.6091840  21.1291010
 132.7721720  75.0307510  11.9762500 132.6896390  75.9738270  12.1177490
 132.4204780  74.8882420  11.0974850 144.1342460  77.0892340  22.6380360
 143.4023580  77.5979150  22.9870460 143.7366800  76.2722320  22.3369140
 140.5719850  73.7646540  21.0432850 140.5755910  73.3236490  20.1937390
 141.4670970  74.0863870  21.1504670 136.4222230  73.6473030  20.0027060
 136.0822280  74.1248260  20.7594110 135.6599550  73.1938150  19.6428160
 140.6340000  74.7658620  14.0339610 140.7552820  74.7245100  14.9825430
 140.2488510  75.6282770  13.8786340 144.5968370  72.5426020  22.0503300
 144.6141110  72.9934670  22.8945150 144.3483950  71.6431660  22.2636740
 139.6461500  77.0759760  13.4322910 139.0778400  76.6278010  12.8058820
 140.3550500  77.4352540  12.8988060 148.0239120  69.9558200  27.8889680
 148.3484890  69.2247860  28.4147660 148.0595630  69.6371840  26.9870670
 134.7230680  80.9771780  27.3089640 134.3385470  80.3365450  27.9072600
 135.0342870  81.6807900  27.8784370 140.8727820  77.8248320  22.7898260
 141.2397950  77.3506890  23.5359600 140.6832880  78.6989890  23.1306600
 133.7368310  72.5692010  18.9191730 133.4515230  72.2047680  19.7570350
 133.6747170  71.8372470  18.3054870 138.6627190  76.8656960  25.1082470
 138.3584260  77.7448940  25.3332830 139.6173650  76.9256750  25.1439910
 137.1908980  81.0717950  15.7049320 136.4171240  80.5315570  15.5448040
 137.9203610  80.5524560  15.3667080 147.9496960  80.0683310  21.4975710
 148.6696080  80.5638600  21.1071820 147.7478780  79.3901200  20.8529580
 143.4106900  71.4621270  15.6405100 142.5971510  70.9634440  15.5650410
 143.2168850  72.3019520  15.2241450 143.3315760  80.1392370  27.3844710
 143.2653070  79.2188040  27.1302300 142.7020900  80.2367810  28.0989350
 146.1255290  75.8340920  13.9367260 147.0134910  76.1458150  13.7618600
 146.0960380  74.9613170  13.5447840 137.2346380  80.7398330  19.3428130
 137.7525050  79.9366590  19.2885020 136.7830400  80.6777470  20.1844960
 142.1215880  82.0064610  14.6155430 142.4631580  82.7506840  14.1198750
 141.2928590  82.3195730  14.9780260 134.7190920  77.7059700  26.2553830
 134.3605860  78.3713550  26.8427170 134.4245480  76.8743250  26.6266450
 137.9204040  78.1643940  29.1393380 137.6204180  78.3101120  28.2421200
 138.6915280  77.6049230  29.0466770 143.2632490  82.9612940  27.1348510
 143.2777030  82.0293900  26.9167420 142.5557590  83.0472700  27.7738280
 148.3969560  77.1452760  13.4047120 148.3133280  77.5766980  12.5543560
 149.1163750  77.6051110  13.8373940 149.4743700  79.6020280  26.4817090
 148.7491890  80.1949060  26.2846480 150.0019160  79.5943820  25.6830460
 149.4256810  83.9995020  16.1329250 148.7832970  83.3450640  16.4072970
 149.0387470  84.4050110  15.3569920 145.0043290  81.3280450  19.9800940
 145.3567110  80.7308580  19.3202310 144.1205620  81.0024680  20.1509190
 141.0906570  82.0878140  17.3871350 141.7777700  82.6347350  17.7678940
 140.3038990  82.6318870  17.4220960 133.2298970  77.7050960  12.8788430
 134.0993820  77.9875760  13.1624350 132.7389290  78.5186830  12.7637240
 140.3933780  79.0924170  16.9996710 140.8496560  79.9029420  17.2256900
 140.0421990  78.7747310  17.8315200 142.6966390  84.6030510  24.2289010
 143.3408610  84.8089890  24.9062430 143.0595830  83.8418910  23.7759860
 136.2945560  69.4361820  17.4719230 136.1660190  69.4279720  18.4204150
 135.4707580  69.7744910  17.1210240 143.9698470  82.6062860  22.9466460
 144.6120700  81.9056020  23.0598630 144.4947820  83.3861300  22.7663350
 147.8154190  82.8911480  12.6705600 147.5891770  82.1741920  13.2630240
 147.4250390  82.6423920  11.8327350 145.7436090  83.4057760  26.1502520
 146.0792330  83.9924450  26.8280440 144.8236430  83.2750470  26.3800310
 133.5970220  86.9178340  13.4450060 133.9567860  87.5167680  12.7907330
 133.4562560  87.4638230  14.2185090 133.2939490  71.1952940  26.9325930
 132.5798010  71.3949860  27.5378540 133.7134530  70.4192510  27.3040730
 147.3970440  80.8083420  14.3319760 147.1092140  81.2696110  15.1197640
 148.1922610  80.3481190  14.6003980 133.5812080  85.1833200  27.9192460
 133.6903200  84.2427940  27.7787850 132.9292640  85.4487950  27.2706190
 141.5724670  83.4549090  29.3190580 141.2521540  82.7358330  29.8636270
 140.8983030  84.1304160  29.3926640 139.6138840  84.3009540  14.2623730
 139.6048940  85.0339230  13.6468240 138.6937200  84.0541120  14.3550690
 135.2145480  79.5224430  15.0070490 134.6073430  80.2623330  15.0165790
 135.6894830  79.6123790  14.1808690 144.7878270  73.6875250  24.6827380
 145.1559090  72.8670460  25.0106950 143.9276470  73.7477140  25.0983030
 148.1540300  72.6432190  15.4914940 147.5253460  72.7477860  14.7773170
 147.6592220  72.8628970  16.2808820 142.5998440  84.3637780  12.9248920
 142.7010420  84.1601770  11.9950900 141.7000180  84.1096060  13.1296700
 140.1224330  74.9218140  16.9072820 139.4140480  75.3904480  17.3486430
 140.4068810  74.2640150  17.5418010 141.7480260  76.3414840  24.9065350
 142.2465510  76.8160660  25.5717200 141.8903210  75.4178360  25.1135380
 144.1539760  71.6468800  18.3468610 144.0307540  71.6654930  17.3978120
 145.1024320  71.6947740  18.4667010 141.2416550  86.8824100  17.6196590
 141.4958050  86.8445490  16.6975960 140.2929030  86.7557430  17.6124840
 138.3259350  73.2303220  14.2823530 139.1749880  73.6673370  14.2163720
 137.9590620  73.5423480  15.1095590 148.9547120  72.5582800  25.7493740
 148.4520720  73.2988200  26.0887550 149.7703780  72.9466800  25.4330530
 147.2469130  77.8015980  19.1955100 146.3059270  77.8166210  19.3702790
 147.5613200  77.0151940  19.6415400 137.2250770  79.4835580  12.7559060
 137.9914040  79.3716940  13.3184490 137.3025460  78.7873550  12.1035830
 135.9197530  76.9160650  13.4391950 136.0001120  75.9688160  13.5509350
 136.8117280  77.2467530  13.5452610 149.2494710  84.9724830  20.8709360
 149.3742130  85.7956000  21.3433170 150.1160270  84.7615560  20.5233510
 136.7212240  87.0656040  20.5426490 137.4574720  86.5171500  20.8135060
 137.1053160  87.9312050  20.4032480 133.6057720  83.1329610  16.4168000
 132.6797500  83.3750750  16.4073410 134.0714150  83.9603870  16.2952750
 135.7270520  86.2502110  29.7312070 136.5283250  86.5714160  30.1447470
 135.2122340  85.8897690  30.4531980 139.8314550  86.2386350  12.3652060
 140.6243160  86.5275180  11.9133850 139.3118900  85.8078520  11.6864540
 144.5635150  82.3581980  29.6787480 143.9573310  82.3813580  28.9383230
 144.2589260  81.6265020  30.2154730 145.9935520  86.0862270  28.2896890
 146.9457270  86.0020290  28.2397130 145.8463740  86.7503980  28.9630680
 148.8844720  85.4656480  13.7888800 148.5986230  85.0521620  12.9742980
 148.6864270  86.3944190  13.6689320 133.4468330  78.7375570  28.6748120
 133.9507350  78.1582850  29.2464350 132.7075750  79.0215800  29.2124490
 140.3491950  81.4589760  12.2294410 140.2442590  80.8442110  12.9555790
 140.1816170  80.9355650  11.4457420 140.5006270  80.1446560  28.2083640
 139.7351940  80.7131560  28.1238310 140.6822230  79.8522770  27.3151870
 143.5894680  80.5209790  12.8336400 143.0404780  80.9679090  13.4779140
 144.2113940  80.0159040  13.3574070 147.6429620  81.8751890  28.7658660
 148.3839090  82.2127650  28.2626120 146.8802300  82.0443950  28.2128430
 135.4791410  76.8805160  29.5698190 135.5196750  76.5819030  30.4783420
 136.3336910  77.2812770  29.4105710 139.2569800  79.4800710  14.7301700
 139.6786220  79.3140580  15.5733090 139.3820640  78.6700940  14.2356840
 137.4197220  75.4597260  27.5372680 136.8893680  74.9688210  26.9096020
 138.0885290  75.8881460  27.0030610 141.7697440  78.5038320  11.9778800
 142.2903100  77.7887340  11.6119950 142.4165840  79.1424190  12.2779310
 146.3175280  79.9266720  27.3013870 146.7316300  80.0811800  28.1504290
 145.3826280  80.0521940  27.4639650 146.7897450  77.2662880  29.3053020
 147.3718220  76.5115200  29.2173500 146.9659220  77.7970320  28.5284500
 137.9069520  72.4259630  27.6169970 137.8126390  71.8080380  26.8920840
 137.3266910  73.1525920  27.3899880 140.6730960  70.9832870  24.6497360
 140.2248260  71.0057130  23.8042910 140.0396160  70.5851890  25.2467660
 141.0790510  79.8787200  25.2709800 141.4978620  80.7219930  25.0986040
 140.1599140  80.0159240  25.0416580 143.4154410  77.6103380  26.6547640
 143.5350620  77.0144520  27.3942480 144.2748410  77.6473070  26.2348940
 145.7542310  78.1640570  25.2310150 145.2277530  78.6883190  24.6275290
 146.0973650  78.7967960  25.8619880 138.1528700  75.5533940  11.6759860
 137.9517760  74.6901300  12.0373200 137.9820750  75.4667300  10.7381460
 138.9297930  86.1840210  26.3867530 138.3919020  86.9086270  26.0676230
 139.1831890  85.7070550  25.5964870 140.1823180  74.1524730  27.9123460
 140.7722870  73.8440580  28.6001280 139.3643420  73.6804480  28.0683360
 145.0016610  73.7690540  28.1456480 144.3132130  73.1072080  28.0806470
 145.7222630  73.3228810  28.5904940 145.6317010  70.3642170  14.2046740
 145.9119300  69.5210070  14.5606160 144.8582740  70.5965280  14.7185490
 136.9511500  72.6534560  11.6637740 137.2537400  72.6601990  10.7556890
 137.6906090  72.3032420  12.1605400 141.7860140  87.4191420  26.6454180
 141.7118840  88.3226560  26.9526550 140.8838980  87.1003320  26.6176250
 140.1696430  71.5969180  12.6493940 139.8218430  70.9193170  12.0696390
 140.3709200  71.1358690  13.4637330 142.3345470  86.5849930  14.2680540
 143.2296260  86.9234900  14.2899300 142.3663100  85.8629340  13.6404820
 135.9741630  81.9576980  12.4967540 136.4116500  82.5006650  13.1525120
 136.4589360  81.1323930  12.5063880 133.1887430  84.7466010  19.9487800
 133.5190440  83.8787070  19.7166440 133.6178430  84.9524530  20.7792760
 137.7849350  83.0775020  17.6089770 137.4844890  82.9539990  18.5093680
 137.6786840  82.2183610  17.2005500 133.6777640  85.6136600  22.6869430
 133.2408630  85.7937400  23.5193580 134.2455320  86.3711220  22.5451150
 149.3139820  85.1153600  26.9746740 148.7141810  85.1746160  26.2310660
 149.4433720  84.1758580  27.1043590 133.5102070  78.1256830  19.0458310
 132.8550910  77.8568470  18.4018010 134.3480020  78.0161310  18.5960290
 147.9991460  81.8405580  25.0722900 147.1851300  82.2702740  25.3348690
 148.4065660  82.4523990  24.4591950 150.0616900  79.8953270  11.9723170
 150.3365740  80.8032150  11.8442390 149.8727640  79.8315800  12.9085160
 146.4592510  72.9198120  13.2676800 146.8777390  72.7329100  12.4273460
 146.1528570  72.0677170  13.5779730 149.9582240  77.8322260  16.9652600
 149.5825840  77.0650190  16.5333890 149.2285360  78.2144960  17.4527530
 134.5478000  78.5109400  23.5861650 134.9151040  78.4236800  24.4657670
 133.9788820  77.7475950  23.4868510 149.3481860  76.9793780  26.5992120
 149.1167950  76.7506530  25.6990070 149.6086410  77.8993330  26.5537010
 134.0994000  75.4218490  27.4920070 133.2050050  75.3885250  27.8313780
 134.6391550  75.6205280  28.2571320 147.7869930  72.2050210  29.3771820
 148.6640110  72.2133610  29.7605820 147.7990770  71.4681050  28.7664170
 132.7240150  75.3355760  14.9883640 131.8204230  75.5985960  14.8135300
 133.2080770  75.6066930  14.2083600 149.2333200  76.0579750  20.2659840
 149.7570680  75.5642400  19.6350010 149.8192620  76.1930110  21.0107410
 149.4122920  76.1419620  23.7879390 148.4625630  76.1083160  23.9024380
 149.5935930  77.0519730  23.5529160 135.2667360  74.3921300  12.8978020
 135.9759060  73.9704520  12.4125300 134.5507300  74.4596530  12.2661370
 134.9141520  70.4460630  11.9380670 135.6369650  70.9869570  12.2561890
 135.1866040  70.1724050  11.0622210 148.7233170  75.3153100  16.2052250
 149.2192290  75.0823970  16.9901130 148.5249240  74.4764940  15.7889890
 134.6033710  69.6966820  21.8403290 135.2509900  69.1464200  21.3998450
 135.0235550  69.9509970  22.6619100 148.4986050  69.8908180  25.1972930
 149.1358270  70.5042320  25.5632120 148.6460940  69.9268840  24.2522160
 148.0567510  86.5924180  18.5991170 148.6526580  86.2708750  17.9225590
 148.3145660  86.1196000  19.3904440 134.3565710  69.8522490  24.5828610
 134.0080530  70.3086310  25.3486790 134.0253410  68.9579620  24.6651040
 135.9630080  83.0242090  28.7481800 135.9199710  82.6535000  29.6296260
 136.0941090  83.9619660  28.8883620 139.6636110  84.5801680  24.3491520
 139.4227470  84.8476240  23.4622040 140.6038750  84.7507410  24.4042380
 141.8690530  71.0434370  28.1048030 141.8079420  71.6356200  28.8543440
 142.8090910  70.9360330  27.9598290 144.5065090  70.7004430  27.7440320
 145.1205500  71.0183720  27.0821400 145.0514650  70.2153020  28.3636180
 135.0286350  69.3798690  27.8579380 135.5769340  69.1986740  27.0945490
 135.0941660  68.5892800  28.3935690 135.8018110  85.9704340  25.8679580
 135.2078430  85.8389040  26.6069620 135.7941950  85.1342480  25.4021680
 145.2473130  69.2636570  24.0709610 144.3732970  69.5971680  23.8682540
 145.1383880  68.7909750  24.8961480 146.1545110  71.4707440  25.4551330
 145.8258470  70.6559200  25.0753060 147.1027410  71.4277250  25.3317020
 148.6079720  87.2419480  22.4288900 148.1482690  87.9935290  22.0546920
 147.9792180  86.5225950  22.3703700 135.4330340  83.3362720  24.8187620
 134.7064400  82.7168010  24.7513570 135.4939490  83.7303330  23.9485700
 139.0375440  85.5507720  21.6037030 139.5540460  84.9395080  21.0785290
 139.6872820  86.0536500  22.0948040 141.7770940  86.4416210  22.4306010
 142.0648750  86.1870510  21.5539020 142.2894160  85.8893570  23.0211580
 142.9947950  70.1806410  23.0102520 142.2119740  70.6551910  23.2899280
 142.7010880  69.2761240  22.9015700 147.5469020  70.8829510  21.0551610
 147.9877110  70.8274610  20.2073210 147.2776610  71.7987520  21.1261790
 149.4107590  70.5144750  19.0660430 149.3495990  69.5705970  18.9191450
 150.1899620  70.6224840  19.6113890 133.7160340  86.6537110  18.0284380
 133.5482380  86.0207790  18.7266270 132.8494850  86.8596510  17.6778570
 134.3388360  70.4853890  15.5316240 135.0967720  70.5982770  14.9580270
 133.8765530  71.3223090  15.4859670 140.8802170  72.5993160  18.5218550
 140.0676680  72.2250050  18.1814430 141.3843810  71.8438240  18.8239740
 145.3827150  69.2635610  19.7601620 145.9856520  69.8355820  20.2350140
 144.6420140  69.8275050  19.5375520 148.5261750  69.6657170  15.0341900
 148.7212380  70.5640620  15.3009330 147.7391620  69.4344250  15.5274850
 135.3223040  85.3470340  15.4734520 134.7970660  85.7278370  14.7696480
 135.2467620  85.9721110  16.1944230 136.7113510  71.0117940  14.0718210
 137.2406270  70.2247740  13.9426160 137.3441830  71.6909130  14.3053740
 138.9051350  70.7493080  17.1263600 138.2754090  70.0480390  17.2933730
 138.3656490  71.5097210  16.9096760 141.8443300  87.3632310  29.7974210
 142.7710610  87.1276580  29.8410170 141.8293730  88.1904310  29.3160240
 150.0788360  86.9057880  16.7948460 150.2540550  86.2195620  16.1509380
 149.3809930  87.4304930  16.4025130 139.0306910  70.0277060  29.5616090
 138.7491180  70.5310660  28.7976910 139.4126610  69.2298810  29.1958220
 137.9216010  87.2952720  14.3483770 138.6534830  87.0112000  13.8007660
 138.1809680  87.0566000  15.2383150 137.0830800  83.4117450  14.3530100
 136.4539680  83.8802550  14.9015930 137.1978630  82.5666670  14.7876290
 145.6322370  69.4430640  30.1396560 145.5187820  69.7625250  31.0348080
 146.4492110  69.8443150  29.8433840 148.4120860  86.5902170  29.6215250
 149.2046180  86.0951400  29.4141210 148.7054010  87.2692310  30.2290860
 142.6698560  79.2402130   2.3840570 141.8940660  78.7602570   2.6739140
 143.3211490  78.5607780   2.2096730 136.6864390  79.5521940   3.2616330
 135.8549270  79.2970650   3.6612840 137.2945370  79.6232710   3.9974250
 136.6665650  83.5862030   3.4574350 136.9693690  82.6959770   3.2784570
 137.4109240  84.1432250   3.2296600 133.0589350  77.1129480   2.9298420
 133.6305460  76.3451680   2.9302060 133.0590890  77.4118240   2.0205030
 142.1107550  81.9159320   2.3910730 142.0415830  80.9749260   2.2299860
 142.8727410  82.0060730   2.9633300 134.3014220  72.5213840   4.7167350
 134.1217060  71.6239590   4.9970110 133.8994300  73.0685710   5.3914300
 143.1412720  74.7229700   2.6179660 143.5177540  73.8501580   2.5053330
 143.0432230  75.0588400   1.7270100 134.9200890  75.0174340   3.3249690
 135.6011000  75.2812710   3.9437090 134.6048940  74.1775210   3.6587700
 139.1125460  76.0641700   2.4122280 139.6203680  76.5622670   3.0527300
 139.6438700  75.2876900   2.2361640 137.3961560  70.7040260   6.6785700
 137.3980000  71.2212650   5.8731600 136.5665870  70.2270440   6.6555630
 138.6464410  80.3435440   4.8559200 138.3133790  80.9704360   5.4980270
 138.8231090  80.8697320   4.0760870 147.1598320  74.1580520   2.3235540
 146.4553890  74.4465410   2.9038650 147.5210480  74.9680630   1.9635100
 137.0776890  72.4150220   4.6856150 137.4193700  73.2592270   4.3910020
 136.1392700  72.5633960   4.8021490 137.8583510  82.3116240   6.6708380
 138.4757510  82.9867320   6.3892830 136.9976630  82.7204220   6.5795880
 148.7761100  83.7755650   4.5863020 148.0924620  84.4454760   4.5779690
 149.3155390  83.9736300   3.8207880 146.3119840  85.6199780   3.3008200
 146.3247000  85.2162070   2.4330460 145.7595060  86.3947070   3.1969630
 145.7105280  80.5229620   4.6290810 146.1274070  80.3089730   3.7944270
 146.4345100  80.7802410   5.1999430 149.6567380  78.9216840   4.7207050
 148.8286010  78.9909930   4.2457180 150.2517860  79.5071150   4.2522880
 146.6209390  75.7086160   5.6661920 146.2080570  76.5339870   5.9201910
 145.8885340  75.1231200   5.4738280 139.2223880  82.1813620   2.6919800
 138.9252170  81.5759090   2.0127580 140.1723700  82.2190930   2.5809160
 137.4670800  75.2689270   4.3079630 138.0185390  75.3784610   3.5332880
 137.9814310  75.6426870   5.0234860 147.3109490  85.7545490   6.3542900
 146.8340050  86.5617680   6.1615510 146.6271280  85.1023820   6.5069110
 138.3142310  81.9195310   9.3427600 137.4170840  82.1435280   9.5901000
 138.3395180  82.0430250   8.3939000 137.1413530  78.7908630   7.9184970
 137.0021300  79.6631430   8.2872370 136.2594890  78.4481440   7.7732910
 138.9393880  84.7330330  10.1270120 138.9109310  85.1373280   9.2598550
 138.7758850  83.8040690   9.9641720 133.0932180  80.5606180   3.8355880
 133.1712600  80.6954950   2.8911600 133.7073860  79.8522070   4.0284000
 150.2941950  82.7070280   8.5834300 150.4205010  82.4682160   7.6651480
 150.3363330  81.8754820   9.0556380 144.1558690  86.4098280   7.1529110
 144.6703360  86.3206290   7.9551540 143.3127770  86.7557980   7.4457020
 150.1465960  74.7602740   9.5484040 149.5310230  75.2682410   9.0199500
 149.8262380  73.8601070   9.4909980 133.1491700  81.6020350   6.3750340
 133.3122740  81.1325710   5.5569710 133.6144150  81.0943910   7.0399180
 142.2080280  73.5994630   7.0146230 141.7459650  73.8077650   7.8266170
 141.8058390  72.7853980   6.7116900 147.2084790  74.8203580   8.1442890
 146.3578380  74.5209330   8.4651960 147.0486580  75.0645590   7.2326710
 144.3034500  76.3205330  10.2441680 144.6287910  75.4869080   9.9043910
 145.0914830  76.8433850  10.3920010 139.9586370  71.2773440   3.2700510
 140.2558700  72.1836270   3.1892530 140.5071930  70.7892220   2.6560080
 140.1523900  76.7545260   9.8052430 140.0567500  75.8139990   9.6552830
 140.9955880  76.9760330   9.4100500 135.2834440  73.1658930   7.9586210
 134.8897830  74.0134140   8.1658990 134.5952840  72.5285300   8.1494850
 141.8579490  73.2493900  11.0282950 141.1677810  73.0566100  11.6629040
 142.6011790  73.5328540  11.5607250 132.5851490  71.0887390   1.9916290
 132.2964540  71.6590250   2.7041270 133.3297250  70.6091840   2.3547520
 144.1342460  77.0892340   3.8636870 143.4023580  77.5979150   4.2126970
 143.7366800  76.2722320   3.5625650 140.5719850  73.7646540   2.2689360
 140.5755910  73.3236490   1.4193900 141.4670970  74.0863870   2.3761180
 144.5968370  72.5426020   3.2759810 144.6141110  72.9934670   4.1201660
 144.3483950  71.6431660   3.4893250 148.0239120  69.9558200   9.1146190
 148.3484890  69.2247860   9.6404170 148.0595630  69.6371840   8.2127180
 134.7230680  80.9771780   8.5346150 134.3385470  80.3365450   9.1329110
 135.0342870  81.6807900   9.1040880 140.8727820  77.8248320   4.0154770
 141.2397950  77.3506890   4.7616110 140.6832880  78.6989890   4.3563110
 138.6627190  76.8656960   6.3338980 138.3584260  77.7448940   6.5589340
 139.6173650  76.9256750   6.3696420 147.9496960  80.0683310   2.7232220
 148.6696080  80.5638600   2.3328330 147.7478780  79.3901200   2.0786090
 143.3315760  80.1392370   8.6101220 143.2653070  79.2188040   8.3558810
 142.7020900  80.2367810   9.3245860 134.7190920  77.7059700   7.4810340
 134.3605860  78.3713550   8.0683680 134.4245480  76.8743250   7.8522960
 137.9204040  78.1643940  10.3649890 137.6204180  78.3101120   9.4677710
 138.6915280  77.6049230  10.2723280 143.2632490  82.9612940   8.3605020
 143.2777030  82.0293900   8.1423930 142.5557590  83.0472700   8.9994790
 149.4743700  79.6020280   7.7073600 148.7491890  80.1949060   7.5102990
 150.0019160  79.5943820   6.9086970 142.6966390  84.6030510   5.4545520
 143.3408610  84.8089890   6.1318940 143.0595830  83.8418910   5.0016370
 143.9698470  82.6062860   4.1722970 144.6120700  81.9056020   4.2855140
 144.4947820  83.3861300   3.9919860 145.7436090  83.4057760   7.3759030
 146.0792330  83.9924450   8.0536950 144.8236430  83.2750470   7.6056820
 133.2939490  71.1952940   8.1582440 132.5798010  71.3949860   8.7635050
 133.7134530  70.4192510   8.5297240 133.5812080  85.1833200   9.1448970
 133.6903200  84.2427940   9.0044360 132.9292640  85.4487950   8.4962700
 141.5724670  83.4549090  10.5447090 141.2521540  82.7358330  11.0892780
 140.8983030  84.1304160  10.6183150 144.7878270  73.6875250   5.9083890
 145.1559090  72.8670460   6.2363460 143.9276470  73.7477140   6.3239540
 141.7480260  76.3414840   6.1321860 142.2465510  76.8160660   6.7973710
 141.8903210  75.4178360   6.3391890 148.9547120  72.5582800   6.9750250
 148.4520720  73.2988200   7.3144060 149.7703780  72.9466800   6.6587040
 149.2494710  84.9724830   2.0965870 149.3742130  85.7956000   2.5689680
 150.1160270  84.7615560   1.7490020 136.7212240  87.0656040   1.7683000
 137.4574720  86.5171500   2.0391570 137.1053160  87.9312050   1.6288990
 135.7270520  86.2502110  10.9568580 136.5283250  86.5714160  11.3703980
 135.2122340  85.8897690  11.6788490 144.5635150  82.3581980  10.9043990
 143.9573310  82.3813580  10.1639740 144.2589260  81.6265020  11.4411240
 145.9935520  86.0862270   9.5153400 146.9457270  86.0020290   9.4653640
 145.8463740  86.7503980  10.1887190 133.4468330  78.7375570   9.9004630
 133.9507350  78.1582850  10.4720860 132.7075750  79.0215800  10.4381000
 140.5006270  80.1446560   9.4340150 139.7351940  80.7131560   9.3494820
 140.6822230  79.8522770   8.5408380 147.6429620  81.8751890   9.9915170
 148.3839090  82.2127650   9.4882630 146.8802300  82.0443950   9.4384940
 135.4791410  76.8805160  10.7954700 135.5196750  76.5819030  11.7039930
 136.3336910  77.2812770  10.6362220 137.4197220  75.4597260   8.7629190
 136.8893680  74.9688210   8.1352530 138.0885290  75.8881460   8.2287120
 146.3175280  79.9266720   8.5270380 146.7316300  80.0811800   9.3760800
 145.3826280  80.0521940   8.6896160 146.7897450  77.2662880  10.5309530
 147.3718220  76.5115200  10.4430010 146.9659220  77.7970320   9.7541010
 137.9069520  72.4259630   8.8426480 137.8126390  71.8080380   8.1177350
 137.3266910  73.1525920   8.6156390 140.6730960  70.9832870   5.8753870
 140.2248260  71.0057130   5.0299420 140.0396160  70.5851890   6.4724170
 141.0790510  79.8787200   6.4966310 141.4978620  80.7219930   6.3242550
 140.1599140  80.0159240   6.2673090 143.4154410  77.6103380   7.8804150
 143.5350620  77.0144520   8.6198990 144.2748410  77.6473070   7.4605450
 145.7542310  78.1640570   6.4566660 145.2277530  78.6883190   5.8531800
 146.0973650  78.7967960   7.0876390 138.9297930  86.1840210   7.6124040
 138.3919020  86.9086270   7.2932740 139.1831890  85.7070550   6.8221380
 140.1823180  74.1524730   9.1379970 140.7722870  73.8440580   9.8257790
 139.3643420  73.6804480   9.2939870 145.0016610  73.7690540   9.3712990
 144.3132130  73.1072080   9.3062980 145.7222630  73.3228810   9.8161450
 141.7860140  87.4191420   7.8710690 141.7118840  88.3226560   8.1783060
 140.8838980  87.1003320   7.8432760 133.6777640  85.6136600   3.9125940
 133.2408630  85.7937400   4.7450090 134.2455320  86.3711220   3.7707660
 149.3139820  85.1153600   8.2003250 148.7141810  85.1746160   7.4567170
 149.4433720  84.1758580   8.3300100 147.9991460  81.8405580   6.2979410
 147.1851300  82.2702740   6.5605200 148.4065660  82.4523990   5.6848460
 134.5478000  78.5109400   4.8118160 134.9151040  78.4236800   5.6914180
 133.9788820  77.7475950   4.7125020 149.3481860  76.9793780   7.8248630
 149.1167950  76.7506530   6.9246580 149.6086410  77.8993330   7.7793520
 134.0994000  75.4218490   8.7176580 133.2050050  75.3885250   9.0570290
 134.6391550  75.6205280   9.4827830 147.7869930  72.2050210  10.6028330
 148.6640110  72.2133610  10.9862330 147.7990770  71.4681050   9.9920680
 149.4122920  76.1419620   5.0135900 148.4625630  76.1083160   5.1280890
 149.5935930  77.0519730   4.7785670 134.6033710  69.6966820   3.0659800
 135.2509900  69.1464200   2.6254960 135.0235550  69.9509970   3.8875610
 148.4986050  69.8908180   6.4229440 149.1358270  70.5042320   6.7888630
 148.6460940  69.9268840   5.4778670 134.3565710  69.8522490   5.8085120
 134.0080530  70.3086310   6.5743300 134.0253410  68.9579620   5.8907550
 135.9630080  83.0242090   9.9738310 135.9199710  82.6535000  10.8552770
 136.0941090  83.9619660  10.1140130 139.6636110  84.5801680   5.5748030
 139.4227470  84.8476240   4.6878550 140.6038750  84.7507410   5.6298890
 141.8690530  71.0434370   9.3304540 141.8079420  71.6356200  10.0799950
 142.8090910  70.9360330   9.1854800 144.5065090  70.7004430   8.9696830
 145.1205500  71.0183720   8.3077910 145.0514650  70.2153020   9.5892690
 135.0286350  69.3798690   9.0835890 135.5769340  69.1986740   8.3202000
 135.0941660  68.5892800   9.6192200 135.8018110  85.9704340   7.0936090
 135.2078430  85.8389040   7.8326130 135.7941950  85.1342480   6.6278190
 145.2473130  69.2636570   5.2966120 144.3732970  69.5971680   5.0939050
 145.1383880  68.7909750   6.1217990 146.1545110  71.4707440   6.6807840
 145.8258470  70.6559200   6.3009570 147.1027410  71.4277250   6.5573530
 148.6079720  87.2419480   3.6545410 148.1482690  87.9935290   3.2803430
 147.9792180  86.5225950   3.5960210 135.4330340  83.3362720   6.0444130
 134.7064400  82.7168010   5.9770080 135.4939490  83.7303330   5.1742210
 139.0375440  85.5507720   2.8293540 139.5540460  84.9395080   2.3041800
 139.6872820  86.0536500   3.3204550 141.7770940  86.4416210   3.6562520
 142.0648750  86.1870510   2.7795530 142.2894160  85.8893570   4.2468090
 142.9947950  70.1806410   4.2359030 142.2119740  70.6551910   4.5155790
 142.7010880  69.2761240   4.1272210 147.5469020  70.8829510   2.2808120
 147.9877110  70.8274610   1.4329720 147.2776610  71.7987520   2.3518300
 141.8443300  87.3632310  11.0230720 142.7710610  87.1276580  11.0666680
 141.8293730  88.1904310  10.5416750 139.0306910  70.0277060  10.7872600
 138.7491180  70.5310660  10.0233420 139.4126610  69.2298810  10.4214730
 145.6322370  69.4430640  11.3653070 145.5187820  69.7625250  12.2604590
 146.4492110  69.8443150  11.0690350 148.4120860  86.5902170  10.8471760
 149.2046180  86.0951400  10.6397720 148.7054010  87.2692310  11.4547370
 144.5380520  58.6879620 150.6979220 144.4574570  57.7734230 150.4270930
 144.1244940  59.1846690 149.9918930 142.6698560  60.4658640 152.5788490
 141.8940660  59.9859080 152.8687060 143.3211490  59.7864290 152.4044650
 146.6905990  64.8718830 151.3587620 146.2287520  64.1006070 151.6874790
 147.5031540  64.8984900 151.8640070 135.0956340  55.7380340 147.2406640
 134.2073040  56.0796310 147.1386520 135.3797530  55.5380660 146.3487470
 133.0589350  58.3385990 153.1246340 133.6305460  57.5708190 153.1249980
 133.0590890  58.6374750 152.2152950 142.9169300  67.1576840 150.9791610
 142.2980740  67.6134340 150.4086050 143.7721080  67.3128300 150.5781310
 142.1107550  63.1415830 152.5858650 142.0415830  62.2005770 152.4247780
 142.8727410  63.2317240 153.1581220 143.1412720  55.9486210 152.8127580
 143.5177540  55.0758090 152.7001250 143.0432230  56.2844910 151.9218020
 137.2717730  54.3211840 148.2745020 137.3784480  55.2215570 148.5813780
 136.3610090  54.2729810 147.9839670 146.9236840  53.4436650 149.7455920
 147.7446460  52.9533220 149.7881400 146.9570920  54.0334310 150.4987760
 143.7832650  62.0416080 148.3723520 143.1649920  62.5065530 147.8086240
 144.2955900  62.7343560 148.7893030 147.1598320  55.3837030 152.5183460
 146.4553890  55.6721920 153.0986570 147.5210480  56.1937140 152.1583020
 133.1515850  62.7272610 145.7463150 132.7743830  63.2159710 145.0148050
 133.4088920  63.3997890 146.3769680 140.7604780  51.1289000 151.2048660
 141.0679760  50.5735890 150.4884160 139.8305480  51.2633460 151.0221650
 147.6065260  63.5672510 148.5846290 147.4961590  62.6246840 148.7095710
 147.6033510  63.9288150 149.4709050 143.1485540  59.1937830 147.9408780
 142.2214820  59.1275210 148.1697250 143.3010360  60.1317960 147.8264020
 143.1354620  55.4654830 144.9375940 142.1958290  55.6268790 145.0228400
 143.4537880  56.1840510 144.3911930 147.1782830  60.7558130 148.4444030
 146.5595250  60.4177680 147.7970330 147.1607280  60.1117890 149.1523220
 138.7542180  59.7202570 150.7228510 138.3499180  59.0079820 150.2274410
 138.8405300  59.3755810 151.6116550 139.2223880  63.4070130 152.8867720
 138.9252170  62.8015600 152.2075500 140.1723700  63.4447440 152.7757080
 145.3547530  59.9944940 145.4516780 145.7940810  59.1567370 145.3054600
 146.0675950  60.6274340 145.5380920 143.4642910  64.9341010 149.4198020
 143.9038820  65.6765340 149.0053410 143.4029800  65.1767580 150.3436980
 148.9364670  51.2487750 143.7657820 148.6237330  51.3414580 144.6656890
 149.6977140  51.8268780 143.7155250 135.4546810  58.6147550 148.2235160
 135.3344410  59.3409640 147.6116430 135.1447700  57.8450460 147.7463070
 134.3379810  63.4862880 150.4409980 133.9307890  63.6277470 149.5863580
 135.2292820  63.2023040 150.2381190 146.1313090  67.9210130 146.7761030
 145.9714230  67.6313070 147.6742860 145.9659800  67.1450260 146.2406260
 138.6101470  67.7008660 148.5532650 138.4343950  66.7844200 148.3400450
 137.7557210  68.0595950 148.7930450 145.8339220  65.4297690 145.3359030
 145.1404380  65.4274980 144.6761310 146.5762080  65.0057010 144.9053200
 145.3989150  67.0560400 149.4107520 145.8546100  66.2749780 149.7246140
 145.7381670  67.7667220 149.9548700 137.9210470  51.9582620 151.6058830
 137.4778620  52.7392160 151.2743350 138.4795460  52.2812510 152.3129770
 141.0369290  51.5793320 146.4864660 140.4123470  51.5753190 147.2117970
 140.9499410  50.7124280 146.0900630 137.7124690  57.0816190 149.3340080
 137.4865610  56.8653360 150.2386700 136.9317220  57.5144650 148.9886050
 144.9422450  57.0879560 147.9330730 144.3431340  57.8115360 147.7494350
 145.4902060  57.0256340 147.1507180 143.5487320  55.7243100 149.9634010
 143.9416890  56.0415300 149.1502700 143.9104170  54.8454980 150.0778530
 132.5851490  52.3143900 152.1864210 132.2964540  52.8846760 152.8989190
 133.3297250  51.8348350 152.5495440 132.7721720  56.2564020 143.3966930
 132.6896390  57.1994780 143.5381920 132.4204780  56.1138930 142.5179280
 140.5719850  54.9903050 152.4637280 140.5755910  54.5493000 151.6141820
 141.4670970  55.3120380 152.5709100 136.4222230  54.8729540 151.4231490
 136.0822280  55.3504770 152.1798540 135.6599550  54.4194660 151.0632590
 140.6340000  55.9915130 145.4544040 140.7552820  55.9501610 146.4029860
 140.2488510  56.8539280 145.2990770 139.6461500  58.3016270 144.8527340
 139.0778400  57.8534520 144.2263250 140.3550500  58.6609050 144.3192490
 133.7368310  53.7948520 150.3396160 133.4515230  53.4304190 151.1774780
 133.6747170  53.0628980 149.7259300 137.1908980  62.2974460 147.1253750
 136.4171240  61.7572080 146.9652470 137.9203610  61.7781070 146.7871510
 147.9496960  61.2939820 152.9180140 148.6696080  61.7895110 152.5276250
 147.7478780  60.6157710 152.2734010 143.4106900  52.6877780 147.0609530
 142.5971510  52.1890950 146.9854840 143.2168850  53.5276030 146.6445880
 146.1255290  57.0597430 145.3571690 147.0134910  57.3714660 145.1823030
 146.0960380  56.1869680 144.9652270 137.2346380  61.9654840 150.7632560
 137.7525050  61.1623100 150.7089450 136.7830400  61.9033980 151.6049390
 142.1215880  63.2321120 146.0359860 142.4631580  63.9763350 145.5403180
 141.2928590  63.5452240 146.3984690 148.3969560  58.3709270 144.8251550
 148.3133280  58.8023490 143.9747990 149.1163750  58.8307620 145.2578370
 149.4256810  65.2251530 147.5533680 148.7832970  64.5707150 147.8277400
 149.0387470  65.6306620 146.7774350 145.0043290  62.5536960 151.4005370
 145.3567110  61.9565090 150.7406740 144.1205620  62.2281190 151.5713620
 141.0906570  63.3134650 148.8075780 141.7777700  63.8603860 149.1883370
 140.3038990  63.8575380 148.8425390 133.2298970  58.9307470 144.2992860
 134.0993820  59.2132270 144.5828780 132.7389290  59.7443340 144.1841670
 140.3933780  60.3180680 148.4201140 140.8496560  61.1285930 148.6461330
 140.0421990  60.0003820 149.2519630 136.2945560  50.6618330 148.8923660
 136.1660190  50.6536230 149.8408580 135.4707580  51.0001420 148.5414670
 147.8154190  64.1167990 144.0910030 147.5891770  63.3998430 144.6834670
 147.4250390  63.8680430 143.2531780 133.5970220  68.1434850 144.8654490
 133.9567860  68.7424190 144.2111760 133.4562560  68.6894740 145.6389520
 147.3970440  62.0339930 145.7524190 147.1092140  62.4952620 146.5402070
 148.1922610  61.5737700 146.0208410 139.6138840  65.5266050 145.6828160
 139.6048940  66.2595740 145.0672670 138.6937200  65.2797630 145.7755120
 135.2145480  60.7480940 146.4274920 134.6073430  61.4879840 146.4370220
 135.6894830  60.8380300 145.6013120 148.1540300  53.8688700 146.9119370
 147.5253460  53.9734370 146.1977600 147.6592220  54.0885480 147.7013250
 142.5998440  65.5894290 144.3453350 142.7010420  65.3858280 143.4155330
 141.7000180  65.3352570 144.5501130 140.1224330  56.1474650 148.3277250
 139.4140480  56.6160990 148.7690860 140.4068810  55.4896660 148.9622440
 144.1539760  52.8725310 149.7673040 144.0307540  52.8911440 148.8182550
 145.1024320  52.9204250 149.8871440 141.2416550  68.1080610 149.0401020
 141.4958050  68.0702000 148.1180390 140.2929030  67.9813940 149.0329270
 138.3259350  54.4559730 145.7027960 139.1749880  54.8929880 145.6368150
 137.9590620  54.7679990 146.5300020 147.2469130  59.0272490 150.6159530
 146.3059270  59.0422720 150.7907220 147.5613200  58.2408450 151.0619830
 137.2250770  60.7092090 144.1763490 137.9914040  60.5973450 144.7388920
 137.3025460  60.0130060 143.5240260 135.9197530  58.1417160 144.8596380
 136.0001120  57.1944670 144.9713780 136.8117280  58.4724040 144.9657040
 149.2494710  66.1981340 152.2913790 149.3742130  67.0212510 152.7637600
 150.1160270  65.9872070 151.9437940 136.7212240  68.2912550 151.9630920
 137.4574720  67.7428010 152.2339490 137.1053160  69.1568560 151.8236910
 133.6057720  64.3586120 147.8372430 132.6797500  64.6007260 147.8277840
 134.0714150  65.1860380 147.7157180 139.8314550  67.4642860 143.7856490
 140.6243160  67.7531690 143.3338280 139.3118900  67.0335030 143.1068970
 148.8844720  66.6912990 145.2093230 148.5986230  66.2778130 144.3947410
 148.6864270  67.6200700 145.0893750 140.3491950  62.6846270 143.6498840
 140.2442590  62.0698620 144.3760220 140.1816170  62.1612160 142.8661850
 143.5894680  61.7466300 144.2540830 143.0404780  62.1935600 144.8983570
 144.2113940  61.2415550 144.7778500 139.2569800  60.7057220 146.1506130
 139.6786220  60.5397090 146.9937520 139.3820640  59.8957450 145.6561270
 141.7697440  59.7294830 143.3983230 142.2903100  59.0143850 143.0324380
 142.4165840  60.3680700 143.6983740 138.1528700  56.7790450 143.0964290
 137.9517760  55.9157810 143.4577630 137.9820750  56.6923810 142.1585890
 145.6317010  51.5898680 145.6251170 145.9119300  50.7466580 145.9810590
 144.8582740  51.8221790 146.1389920 136.9511500  53.8791070 143.0842170
 137.2537400  53.8858500 142.1761320 137.6906090  53.5288930 143.5809830
 140.1696430  52.8225690 144.0698370 139.8218430  52.1449680 143.4900820
 140.3709200  52.3615200 144.8841760 142.3345470  67.8106440 145.6884970
 143.2296260  68.1491410 145.7103730 142.3663100  67.0885850 145.0609250
 135.9741630  63.1833490 143.9171970 136.4116500  63.7263160 144.5729550
 136.4589360  62.3580440 143.9268310 133.1887430  65.9722520 151.3692230
 133.5190440  65.1043580 151.1370870 133.6178430  66.1781040 152.1997190
 137.7849350  64.3031530 149.0294200 137.4844890  64.1796500 149.9298110
 137.6786840  63.4440120 148.6209930 133.5102070  59.3513340 150.4662740
 132.8550910  59.0824980 149.8222440 134.3480020  59.2417820 150.0164720
 150.0616900  61.1209780 143.3927600 150.3365740  62.0288660 143.2646820
 149.8727640  61.0572310 144.3289590 146.4592510  54.1454630 144.6881230
 146.8777390  53.9585610 143.8477890 146.1528570  53.2933680 144.9984160
 149.9582240  59.0578770 148.3857030 149.5825840  58.2906700 147.9538320
 149.2285360  59.4401470 148.8731960 132.7240150  56.5612270 146.4088070
 131.8204230  56.8242470 146.2339730 133.2080770  56.8323440 145.6288030
 149.2333200  57.2836260 151.6864270 149.7570680  56.7898910 151.0554440
 149.8192620  57.4186620 152.4311840 135.2667360  55.6177810 144.3182450
 135.9759060  55.1961030 143.8329730 134.5507300  55.6853040 143.6865800
 134.9141520  51.6717140 143.3585100 135.6369650  52.2126080 143.6766320
 135.1866040  51.3980560 142.4826640 148.7233170  56.5409610 147.6256680
 149.2192290  56.3080480 148.4105560 148.5249240  55.7021450 147.2094320
 148.0567510  67.8180690 150.0195600 148.6526580  67.4965260 149.3430020
 148.3145660  67.3452510 150.8108870 147.5469020  52.1086020 152.4756040
 147.9877110  52.0531120 151.6277640 147.2776610  53.0244030 152.5466220
 149.4107590  51.7401260 150.4864860 149.3495990  50.7962480 150.3395880
 150.1899620  51.8481350 151.0318320 133.7160340  67.8793620 149.4488810
 133.5482380  67.2464300 150.1470700 132.8494850  68.0853020 149.0983000
 134.3388360  51.7110400 146.9520670 135.0967720  51.8239280 146.3784700
 133.8765530  52.5479600 146.9064100 140.8802170  53.8249670 149.9422980
 140.0676680  53.4506560 149.6018860 141.3843810  53.0694750 150.2444170
 145.3827150  50.4892120 151.1806050 145.9856520  51.0612330 151.6554570
 144.6420140  51.0531560 150.9579950 148.5261750  50.8913680 146.4546330
 148.7212380  51.7897130 146.7213760 147.7391620  50.6600760 146.9479280
 135.3223040  66.5726850 146.8938950 134.7970660  66.9534880 146.1900910
 135.2467620  67.1977620 147.6148660 136.7113510  52.2374450 145.4922640
 137.2406270  51.4504250 145.3630590 137.3441830  52.9165640 145.7258170
 138.9051350  51.9749590 148.5468030 138.2754090  51.2736900 148.7138160
 138.3656490  52.7353720 148.3301190 150.0788360  68.1314390 148.2152890
 150.2540550  67.4452130 147.5713810 149.3809930  68.6561440 147.8229560
 137.9216010  68.5209230 145.7688200 138.6534830  68.2368510 145.2212090
 138.1809680  68.2822510 146.6587580 137.0830800  64.6373960 145.7734530
 136.4539680  65.1059060 146.3220360 137.1978630  63.7923180 146.2080720
 144.5380520  58.6879620 131.9235730 144.4574570  57.7734230 131.6527440
 144.1244940  59.1846690 131.2175440 142.6698560  60.4658640 133.8045000
 141.8940660  59.9859080 134.0943570 143.3211490  59.7864290 133.6301160
 136.6864390  60.7778450 134.6820760 135.8549270  60.5227160 135.0817270
 137.2945370  60.8489220 135.4178680 146.6905990  64.8718830 132.5844130
 146.2287520  64.1006070 132.9131300 147.5031540  64.8984900 133.0896580
 136.6665650  64.8118540 134.8778780 136.9693690  63.9216280 134.6989000
 137.4109240  65.3688760 134.6501030 135.0956340  55.7380340 128.4663150
 134.2073040  56.0796310 128.3643030 135.3797530  55.5380660 127.5743980
 133.0589350  58.3385990 134.3502850 133.6305460  57.5708190 134.3506490
 133.0590890  58.6374750 133.4409460 142.9169300  67.1576840 132.2048120
 142.2980740  67.6134340 131.6342560 143.7721080  67.3128300 131.8037820
 142.1107550  63.1415830 133.8115160 142.0415830  62.2005770 133.6504290
 142.8727410  63.2317240 134.3837730 134.3014220  53.7470350 136.1371780
 134.1217060  52.8496100 136.4174540 133.8994300  54.2942220 136.8118730
 143.1412720  55.9486210 134.0384090 143.5177540  55.0758090 133.9257760
 143.0432230  56.2844910 133.1474530 137.2717730  54.3211840 129.5001530
 137.3784480  55.2215570 129.8070290 136.3610090  54.2729810 129.2096180
 146.9236840  53.4436650 130.9712430 147.7446460  52.9533220 131.0137910
 146.9570920  54.0334310 131.7244270 134.9200890  56.2430850 134.7454120
 135.6011000  56.5069220 135.3641520 134.6048940  55.4031720 135.0792130
 139.1125460  57.2898210 133.8326710 139.6203680  57.7879180 134.4731730
 139.6438700  56.5133410 133.6566070 137.3961560  51.9296770 138.0990130
 137.3980000  52.4469160 137.2936030 136.5665870  51.4526950 138.0760060
 143.7832650  62.0416080 129.5980030 143.1649920  62.5065530 129.0342750
 144.2955900  62.7343560 130.0149540 138.6464410  61.5691950 136.2763630
 138.3133790  62.1960870 136.9184700 138.8231090  62.0953830 135.4965300
 147.1598320  55.3837030 133.7439970 146.4553890  55.6721920 134.3243080
 147.5210480  56.1937140 133.3839530 137.0776890  53.6406730 136.1060580
 137.4193700  54.4848780 135.8114450 136.1392700  53.7890470 136.2225920
 137.8583510  63.5372750 138.0912810 138.4757510  64.2123830 137.8097260
 136.9976630  63.9460730 138.0000310 133.1515850  62.7272610 126.9719660
 132.7743830  63.2159710 126.2404560 133.4088920  63.3997890 127.6026190
 148.7761100  65.0012160 136.0067450 148.0924620  65.6711270 135.9984120
 149.3155390  65.1992810 135.2412310 140.7604780  51.1289000 132.4305170
 141.0679760  50.5735890 131.7140670 139.8305480  51.2633460 132.2478160
 146.3119840  66.8456290 134.7212630 146.3247000  66.4418580 133.8534890
 145.7595060  67.6203580 134.6174060 147.6065260  63.5672510 129.8102800
 147.4961590  62.6246840 129.9352220 147.6033510  63.9288150 130.6965560
 145.7105280  61.7486130 136.0495240 146.1274070  61.5346240 135.2148700
 146.4345100  62.0058920 136.6203860 143.1485540  59.1937830 129.1665290
 142.2214820  59.1275210 129.3953760 143.3010360  60.1317960 129.0520530
 143.1354620  55.4654830 126.1632450 142.1958290  55.6268790 126.2484910
 143.4537880  56.1840510 125.6168440 149.6567380  60.1473350 136.1411480
 148.8286010  60.2166440 135.6661610 150.2517860  60.7327660 135.6727310
 147.1782830  60.7558130 129.6700540 146.5595250  60.4177680 129.0226840
 147.1607280  60.1117890 130.3779730 146.6209390  56.9342670 137.0866350
 146.2080570  57.7596380 137.3406340 145.8885340  56.3487710 136.8942710
 138.7542180  59.7202570 131.9485020 138.3499180  59.0079820 131.4530920
 138.8405300  59.3755810 132.8373060 139.2223880  63.4070130 134.1124230
 138.9252170  62.8015600 133.4332010 140.1723700  63.4447440 134.0013590
 137.4670800  56.4945780 135.7284060 138.0185390  56.6041120 134.9537310
 137.9814310  56.8683380 136.4439290 147.3109490  66.9802000 137.7747330
 146.8340050  67.7874190 137.5819940 146.6271280  66.3280330 137.9273540
 138.3142310  63.1451820 140.7632030 137.4170840  63.3691790 141.0105430
 138.3395180  63.2686760 139.8143430 145.3547530  59.9944940 126.6773290
 145.7940810  59.1567370 126.5311110 146.0675950  60.6274340 126.7637430
 137.1413530  60.0165140 139.3389400 137.0021300  60.8887940 139.7076800
 136.2594890  59.6737950 139.1937340 143.4642910  64.9341010 130.6454530
 143.9038820  65.6765340 130.2309920 143.4029800  65.1767580 131.5693490
 138.9393880  65.9586840 141.5474550 138.9109310  66.3629790 140.6802980
 138.7758850  65.0297200 141.3846150 148.9364670  51.2487750 124.9914330
 148.6237330  51.3414580 125.8913400 149.6977140  51.8268780 124.9411760
 135.4546810  58.6147550 129.4491670 135.3344410  59.3409640 128.8372940
 135.1447700  57.8450460 128.9719580 133.0932180  61.7862690 135.2560310
 133.1712600  61.9211460 134.3116030 133.7073860  61.0778580 135.4488430
 134.3379810  63.4862880 131.6666490 133.9307890  63.6277470 130.8120090
 135.2292820  63.2023040 131.4637700 150.2941950  63.9326790 140.0038730
 150.4205010  63.6938670 139.0855910 150.3363330  63.1011330 140.4760810
 144.1558690  67.6354790 138.5733540 144.6703360  67.5462800 139.3755970
 143.3127770  67.9814490 138.8661450 146.1313090  67.9210130 128.0017540
 145.9714230  67.6313070 128.8999370 145.9659800  67.1450260 127.4662770
 138.6101470  67.7008660 129.7789160 138.4343950  66.7844200 129.5656960
 137.7557210  68.0595950 130.0186960 145.8339220  65.4297690 126.5615540
 145.1404380  65.4274980 125.9017820 146.5762080  65.0057010 126.1309710
 145.3989150  67.0560400 130.6364030 145.8546100  66.2749780 130.9502650
 145.7381670  67.7667220 131.1805210 150.1465960  55.9859250 140.9688470
 149.5310230  56.4938920 140.4403930 149.8262380  55.0857580 140.9114410
 133.1491700  62.8276860 137.7954770 133.3122740  62.3582220 136.9774140
 133.6144150  62.3200420 138.4603610 137.9210470  51.9582620 132.8315340
 137.4778620  52.7392160 132.4999860 138.4795460  52.2812510 133.5386280
 142.2080280  54.8251140 138.4350660 141.7459650  55.0334160 139.2470600
 141.8058390  54.0110490 138.1321330 147.2084790  56.0460090 139.5647320
 146.3578380  55.7465840 139.8856390 147.0486580  56.2902100 138.6531140
 144.3034500  57.5461840 141.6646110 144.6287910  56.7125590 141.3248340
 145.0914830  58.0690360 141.8124440 141.0369290  51.5793320 127.7121170
 140.4123470  51.5753190 128.4374480 140.9499410  50.7124280 127.3157140
 139.9586370  52.5029950 134.6904940 140.2558700  53.4092780 134.6096960
 140.5071930  52.0148730 134.0764510 137.7124690  57.0816190 130.5596590
 137.4865610  56.8653360 131.4643210 136.9317220  57.5144650 130.2142560
 144.9422450  57.0879560 129.1587240 144.3431340  57.8115360 128.9750860
 145.4902060  57.0256340 128.3763690 140.1523900  57.9801770 141.2256860
 140.0567500  57.0396500 141.0757260 140.9955880  58.2016840 140.8304930
 143.5487320  55.7243100 131.1890520 143.9416890  56.0415300 130.3759210
 143.9104170  54.8454980 131.3035040 135.2834440  54.3915440 139.3790640
 134.8897830  55.2390650 139.5863420 134.5952840  53.7541810 139.5699280
 141.8579490  54.4750410 142.4487380 141.1677810  54.2822610 143.0833470
 142.6011790  54.7585050 142.9811680 132.5851490  52.3143900 133.4120720
 132.2964540  52.8846760 134.1245700 133.3297250  51.8348350 133.7751950
 132.7721720  56.2564020 124.6223440 132.6896390  57.1994780 124.7638430
 132.4204780  56.1138930 123.7435790 144.1342460  58.3148850 135.2841300
 143.4023580  58.8235660 135.6331400 143.7366800  57.4978830 134.9830080
 140.5719850  54.9903050 133.6893790 140.5755910  54.5493000 132.8398330
 141.4670970  55.3120380 133.7965610 136.4222230  54.8729540 132.6488000
 136.0822280  55.3504770 133.4055050 135.6599550  54.4194660 132.2889100
 140.6340000  55.9915130 126.6800550 140.7552820  55.9501610 127.6286370
 140.2488510  56.8539280 126.5247280 144.5968370  53.7682530 134.6964240
 144.6141110  54.2191180 135.5406090 144.3483950  52.8688170 134.9097680
 139.6461500  58.3016270 126.0783850 139.0778400  57.8534520 125.4519760
 140.3550500  58.6609050 125.5449000 148.0239120  51.1814710 140.5350620
 148.3484890  50.4504370 141.0608600 148.0595630  50.8628350 139.6331610
 134.7230680  62.2028290 139.9550580 134.3385470  61.5621960 140.5533540
 135.0342870  62.9064410 140.5245310 140.8727820  59.0504830 135.4359200
 141.2397950  58.5763400 136.1820540 140.6832880  59.9246400 135.7767540
 133.7368310  53.7948520 131.5652670 133.4515230  53.4304190 132.4031290
 133.6747170  53.0628980 130.9515810 138.6627190  58.0913470 137.7543410
 138.3584260  58.9705450 137.9793770 139.6173650  58.1513260 137.7900850
 137.1908980  62.2974460 128.3510260 136.4171240  61.7572080 128.1908980
 137.9203610  61.7781070 128.0128020 147.9496960  61.2939820 134.1436650
 148.6696080  61.7895110 133.7532760 147.7478780  60.6157710 133.4990520
 143.4106900  52.6877780 128.2866040 142.5971510  52.1890950 128.2111350
 143.2168850  53.5276030 127.8702390 143.3315760  61.3648880 140.0305650
 143.2653070  60.4444550 139.7763240 142.7020900  61.4624320 140.7450290
 146.1255290  57.0597430 126.5828200 147.0134910  57.3714660 126.4079540
 146.0960380  56.1869680 126.1908780 137.2346380  61.9654840 131.9889070
 137.7525050  61.1623100 131.9345960 136.7830400  61.9033980 132.8305900
 142.1215880  63.2321120 127.2616370 142.4631580  63.9763350 126.7659690
 141.2928590  63.5452240 127.6241200 134.7190920  58.9316210 138.9014770
 134.3605860  59.5970060 139.4888110 134.4245480  58.0999760 139.2727390
 137.9204040  59.3900450 141.7854320 137.6204180  59.5357630 140.8882140
 138.6915280  58.8305740 141.6927710 143.2632490  64.1869450 139.7809450
 143.2777030  63.2550410 139.5628360 142.5557590  64.2729210 140.4199220
 148.3969560  58.3709270 126.0508060 148.3133280  58.8023490 125.2004500
 149.1163750  58.8307620 126.4834880 149.4743700  60.8276790 139.1278030
 148.7491890  61.4205570 138.9307420 150.0019160  60.8200330 138.3291400
 149.4256810  65.2251530 128.7790190 148.7832970  64.5707150 129.0533910
 149.0387470  65.6306620 128.0030860 145.0043290  62.5536960 132.6261880
 145.3567110  61.9565090 131.9663250 144.1205620  62.2281190 132.7970130
 141.0906570  63.3134650 130.0332290 141.7777700  63.8603860 130.4139880
 140.3038990  63.8575380 130.0681900 133.2298970  58.9307470 125.5249370
 134.0993820  59.2132270 125.8085290 132.7389290  59.7443340 125.4098180
 140.3933780  60.3180680 129.6457650 140.8496560  61.1285930 129.8717840
 140.0421990  60.0003820 130.4776140 142.6966390  65.8287020 136.8749950
 143.3408610  66.0346400 137.5523370 143.0595830  65.0675420 136.4220800
 136.2945560  50.6618330 130.1180170 136.1660190  50.6536230 131.0665090
 135.4707580  51.0001420 129.7671180 143.9698470  63.8319370 135.5927400
 144.6120700  63.1312530 135.7059570 144.4947820  64.6117810 135.4124290
 147.8154190  64.1167990 125.3166540 147.5891770  63.3998430 125.9091180
 147.4250390  63.8680430 124.4788290 145.7436090  64.6314270 138.7963460
 146.0792330  65.2180960 139.4741380 144.8236430  64.5006980 139.0261250
 133.5970220  68.1434850 126.0911000 133.9567860  68.7424190 125.4368270
 133.4562560  68.6894740 126.8646030 133.2939490  52.4209450 139.5786870
 132.5798010  52.6206370 140.1839480 133.7134530  51.6449020 139.9501670
 147.3970440  62.0339930 126.9780700 147.1092140  62.4952620 127.7658580
 148.1922610  61.5737700 127.2464920 133.5812080  66.4089710 140.5653400
 133.6903200  65.4684450 140.4248790 132.9292640  66.6744460 139.9167130
 141.5724670  64.6805600 141.9651520 141.2521540  63.9614840 142.5097210
 140.8983030  65.3560670 142.0387580 139.6138840  65.5266050 126.9084670
 139.6048940  66.2595740 126.2929180 138.6937200  65.2797630 127.0011630
 135.2145480  60.7480940 127.6531430 134.6073430  61.4879840 127.6626730
 135.6894830  60.8380300 126.8269630 144.7878270  54.9131760 137.3288320
 145.1559090  54.0926970 137.6567890 143.9276470  54.9733650 137.7443970
 148.1540300  53.8688700 128.1375880 147.5253460  53.9734370 127.4234110
 147.6592220  54.0885480 128.9269760 142.5998440  65.5894290 125.5709860
 142.7010420  65.3858280 124.6411840 141.7000180  65.3352570 125.7757640
 140.1224330  56.1474650 129.5533760 139.4140480  56.6160990 129.9947370
 140.4068810  55.4896660 130.1878950 141.7480260  57.5671350 137.5526290
 142.2465510  58.0417170 138.2178140 141.8903210  56.6434870 137.7596320
 144.1539760  52.8725310 130.9929550 144.0307540  52.8911440 130.0439060
 145.1024320  52.9204250 131.1127950 141.2416550  68.1080610 130.2657530
 141.4958050  68.0702000 129.3436900 140.2929030  67.9813940 130.2585780
 138.3259350  54.4559730 126.9284470 139.1749880  54.8929880 126.8624660
 137.9590620  54.7679990 127.7556530 148.9547120  53.7839310 138.3954680
 148.4520720  54.5244710 138.7348490 149.7703780  54.1723310 138.0791470
 147.2469130  59.0272490 131.8416040 146.3059270  59.0422720 132.0163730
 147.5613200  58.2408450 132.2876340 137.2250770  60.7092090 125.4020000
 137.9914040  60.5973450 125.9645430 137.3025460  60.0130060 124.7496770
 135.9197530  58.1417160 126.0852890 136.0001120  57.1944670 126.1970290
 136.8117280  58.4724040 126.1913550 149.2494710  66.1981340 133.5170300
 149.3742130  67.0212510 133.9894110 150.1160270  65.9872070 133.1694450
 136.7212240  68.2912550 133.1887430 137.4574720  67.7428010 133.4596000
 137.1053160  69.1568560 133.0493420 133.6057720  64.3586120 129.0628940
 132.6797500  64.6007260 129.0534350 134.0714150  65.1860380 128.9413690
 135.7270520  67.4758620 142.3773010 136.5283250  67.7970670 142.7908410
 135.2122340  67.1154200 143.0992920 139.8314550  67.4642860 125.0113000
 140.6243160  67.7531690 124.5594790 139.3118900  67.0335030 124.3325480
 144.5635150  63.5838490 142.3248420 143.9573310  63.6070090 141.5844170
 144.2589260  62.8521530 142.8615670 145.9935520  67.3118780 140.9357830
 146.9457270  67.2276800 140.8858070 145.8463740  67.9760490 141.6091620
 148.8844720  66.6912990 126.4349740 148.5986230  66.2778130 125.6203920
 148.6864270  67.6200700 126.3150260 133.4468330  59.9632080 141.3209060
 133.9507350  59.3839360 141.8925290 132.7075750  60.2472310 141.8585430
 140.3491950  62.6846270 124.8755350 140.2442590  62.0698620 125.6016730
 140.1816170  62.1612160 124.0918360 140.5006270  61.3703070 140.8544580
 139.7351940  61.9388070 140.7699250 140.6822230  61.0779280 139.9612810
 143.5894680  61.7466300 125.4797340 143.0404780  62.1935600 126.1240080
 144.2113940  61.2415550 126.0035010 147.6429620  63.1008400 141.4119600
 148.3839090  63.4384160 140.9087060 146.8802300  63.2700460 140.8589370
 135.4791410  58.1061670 142.2159130 135.5196750  57.8075540 143.1244360
 136.3336910  58.5069280 142.0566650 139.2569800  60.7057220 127.3762640
 139.6786220  60.5397090 128.2194030 139.3820640  59.8957450 126.8817780
 137.4197220  56.6853770 140.1833620 136.8893680  56.1944720 139.5556960
 138.0885290  57.1137970 139.6491550 141.7697440  59.7294830 124.6239740
 142.2903100  59.0143850 124.2580890 142.4165840  60.3680700 124.9240250
 146.3175280  61.1523230 139.9474810 146.7316300  61.3068310 140.7965230
 145.3826280  61.2778450 140.1100590 146.7897450  58.4919390 141.9513960
 147.3718220  57.7371710 141.8634440 146.9659220  59.0226830 141.1745440
 137.9069520  53.6516140 140.2630910 137.8126390  53.0336890 139.5381780
 137.3266910  54.3782430 140.0360820 140.6730960  52.2089380 137.2958300
 140.2248260  52.2313640 136.4503850 140.0396160  51.8108400 137.8928600
 141.0790510  61.1043710 137.9170740 141.4978620  61.9476440 137.7446980
 140.1599140  61.2415750 137.6877520 143.4154410  58.8359890 139.3008580
 143.5350620  58.2401030 140.0403420 144.2748410  58.8729580 138.8809880
 145.7542310  59.3897080 137.8771090 145.2277530  59.9139700 137.2736230
 146.0973650  60.0224470 138.5080820 138.1528700  56.7790450 124.3220800
 137.9517760  55.9157810 124.6834140 137.9820750  56.6923810 123.3842400
 138.9297930  67.4096720 139.0328470 138.3919020  68.1342780 138.7137170
 139.1831890  66.9327060 138.2425810 140.1823180  55.3781240 140.5584400
 140.7722870  55.0697090 141.2462220 139.3643420  54.9060990 140.7144300
 145.0016610  54.9947050 140.7917420 144.3132130  54.3328590 140.7267410
 145.7222630  54.5485320 141.2365880 145.6317010  51.5898680 126.8507680
 145.9119300  50.7466580 127.2067100 144.8582740  51.8221790 127.3646430
 136.9511500  53.8791070 124.3098680 137.2537400  53.8858500 123.4017830
 137.6906090  53.5288930 124.8066340 141.7860140  68.6447930 139.2915120
 141.7118840  69.5483070 139.5987490 140.8838980  68.3259830 139.2637190
 140.1696430  52.8225690 125.2954880 139.8218430  52.1449680 124.7157330
 140.3709200  52.3615200 126.1098270 142.3345470  67.8106440 126.9141480
 143.2296260  68.1491410 126.9360240 142.3663100  67.0885850 126.2865760
 135.9741630  63.1833490 125.1428480 136.4116500  63.7263160 125.7986060
 136.4589360  62.3580440 125.1524820 133.1887430  65.9722520 132.5948740
 133.5190440  65.1043580 132.3627380 133.6178430  66.1781040 133.4253700
 137.7849350  64.3031530 130.2550710 137.4844890  64.1796500 131.1554620
 137.6786840  63.4440120 129.8466440 133.6777640  66.8393110 135.3330370
 133.2408630  67.0193910 136.1654520 134.2455320  67.5967730 135.1912090
 149.3139820  66.3410110 139.6207680 148.7141810  66.4002670 138.8771600
 149.4433720  65.4015090 139.7504530 133.5102070  59.3513340 131.6919250
 132.8550910  59.0824980 131.0478950 134.3480020  59.2417820 131.2421230
 147.9991460  63.0662090 137.7183840 147.1851300  63.4959250 137.9809630
 148.4065660  63.6780500 137.1052890 150.0616900  61.1209780 124.6184110
 150.3365740  62.0288660 124.4903330 149.8727640  61.0572310 125.5546100
 146.4592510  54.1454630 125.9137740 146.8777390  53.9585610 125.0734400
 146.1528570  53.2933680 126.2240670 149.9582240  59.0578770 129.6113540
 149.5825840  58.2906700 129.1794830 149.2285360  59.4401470 130.0988470
 134.5478000  59.7365910 136.2322590 134.9151040  59.6493310 137.1118610
 133.9788820  58.9732460 136.1329450 149.3481860  58.2050290 139.2453060
 149.1167950  57.9763040 138.3451010 149.6086410  59.1249840 139.1997950
 134.0994000  56.6475000 140.1381010 133.2050050  56.6141760 140.4774720
 134.6391550  56.8461790 140.9032260 147.7869930  53.4306720 142.0232760
 148.6640110  53.4390120 142.4066760 147.7990770  52.6937560 141.4125110
 132.7240150  56.5612270 127.6344580 131.8204230  56.8242470 127.4596240
 133.2080770  56.8323440 126.8544540 149.2333200  57.2836260 132.9120780
 149.7570680  56.7898910 132.2810950 149.8192620  57.4186620 133.6568350
 149.4122920  57.3676130 136.4340330 148.4625630  57.3339670 136.5485320
 149.5935930  58.2776240 136.1990100 135.2667360  55.6177810 125.5438960
 135.9759060  55.1961030 125.0586240 134.5507300  55.6853040 124.9122310
 134.9141520  51.6717140 124.5841610 135.6369650  52.2126080 124.9022830
 135.1866040  51.3980560 123.7083150 148.7233170  56.5409610 128.8513190
 149.2192290  56.3080480 129.6362070 148.5249240  55.7021450 128.4350830
 134.6033710  50.9223330 134.4864230 135.2509900  50.3720710 134.0459390
 135.0235550  51.1766480 135.3080040 148.4986050  51.1164690 137.8433870
 149.1358270  51.7298830 138.2093060 148.6460940  51.1525350 136.8983100
 148.0567510  67.8180690 131.2452110 148.6526580  67.4965260 130.5686530
 148.3145660  67.3452510 132.0365380 134.3565710  51.0779000 137.2289550
 134.0080530  51.5342820 137.9947730 134.0253410  50.1836130 137.3111980
 135.9630080  64.2498600 141.3942740 135.9199710  63.8791510 142.2757200
 136.0941090  65.1876170 141.5344560 139.6636110  65.8058190 136.9952460
 139.4227470  66.0732750 136.1082980 140.6038750  65.9763920 137.0503320
 141.8690530  52.2690880 140.7508970 141.8079420  52.8612710 141.5004380
 142.8090910  52.1616840 140.6059230 144.5065090  51.9260940 140.3901260
 145.1205500  52.2440230 139.7282340 145.0514650  51.4409530 141.0097120
 135.0286350  50.6055200 140.5040320 135.5769340  50.4243250 139.7406430
 135.0941660  49.8149310 141.0396630 135.8018110  67.1960850 138.5140520
 135.2078430  67.0645550 139.2530560 135.7941950  66.3598990 138.0482620
 145.2473130  50.4893080 136.7170550 144.3732970  50.8228190 136.5143480
 145.1383880  50.0166260 137.5422420 146.1545110  52.6963950 138.1012270
 145.8258470  51.8815710 137.7214000 147.1027410  52.6533760 137.9777960
 148.6079720  68.4675990 135.0749840 148.1482690  69.2191800 134.7007860
 147.9792180  67.7482460 135.0164640 135.4330340  64.5619230 137.4648560
 134.7064400  63.9424520 137.3974510 135.4939490  64.9559840 136.5946640
 139.0375440  66.7764230 134.2497970 139.5540460  66.1651590 133.7246230
 139.6872820  67.2793010 134.7408980 141.7770940  67.6672720 135.0766950
 142.0648750  67.4127020 134.1999960 142.2894160  67.1150080 135.6672520
 142.9947950  51.4062920 135.6563460 142.2119740  51.8808420 135.9360220
 142.7010880  50.5017750 135.5476640 147.5469020  52.1086020 133.7012550
 147.9877110  52.0531120 132.8534150 147.2776610  53.0244030 133.7722730
 149.4107590  51.7401260 131.7121370 149.3495990  50.7962480 131.5652390
 150.1899620  51.8481350 132.2574830 133.7160340  67.8793620 130.6745320
 133.5482380  67.2464300 131.3727210 132.8494850  68.0853020 130.3239510
 134.3388360  51.7110400 128.1777180 135.0967720  51.8239280 127.6041210
 133.8765530  52.5479600 128.1320610 140.8802170  53.8249670 131.1679490
 140.0676680  53.4506560 130.8275370 141.3843810  53.0694750 131.4700680
 145.3827150  50.4892120 132.4062560 145.9856520  51.0612330 132.8811080
 144.6420140  51.0531560 132.1836460 148.5261750  50.8913680 127.6802840
 148.7212380  51.7897130 127.9470270 147.7391620  50.6600760 128.1735790
 135.3223040  66.5726850 128.1195460 134.7970660  66.9534880 127.4157420
 135.2467620  67.1977620 128.8405170 136.7113510  52.2374450 126.7179150
 137.2406270  51.4504250 126.5887100 137.3441830  52.9165640 126.9514680
 138.9051350  51.9749590 129.7724540 138.2754090  51.2736900 129.9394670
 138.3656490  52.7353720 129.5557700 141.8443300  68.5888820 142.4435150
 142.7710610  68.3533090 142.4871110 141.8293730  69.4160820 141.9621180
 150.0788360  68.1314390 129.4409400 150.2540550  67.4452130 128.7970320
 149.3809930  68.6561440 129.0486070 139.0306910  51.2533570 142.2077030
 138.7491180  51.7567170 141.4437850 139.4126610  50.4555320 141.8419160
 137.9216010  68.5209230 126.9944710 138.6534830  68.2368510 126.4468600
 138.1809680  68.2822510 127.8844090 137.0830800  64.6373960 126.9991040
 136.4539680  65.1059060 127.5476870 137.1978630  63.7923180 127.4337230
 145.6322370  50.6687150 142.7857500 145.5187820  50.9881760 143.6809020
 146.4492110  51.0699660 142.4894780 148.4120860  67.8158680 142.2676190
 149.2046180  67.3207910 142.0602150 148.7054010  68.4948820 142.8751800
 144.5380520  58.6879620 113.1492240 144.4574570  57.7734230 112.8783950
 144.1244940  59.1846690 112.4431950 142.6698560  60.4658640 115.0301510
 141.8940660  59.9859080 115.3200080 143.3211490  59.7864290 114.8557670
 136.6864390  60.7778450 115.9077270 135.8549270  60.5227160 116.3073780
 137.2945370  60.8489220 116.6435190 146.6905990  64.8718830 113.8100640
 146.2287520  64.1006070 114.1387810 147.5031540  64.8984900 114.3153090
 136.6665650  64.8118540 116.1035290 136.9693690  63.9216280 115.9245510
 137.4109240  65.3688760 115.8757540 135.0956340  55.7380340 109.6919660
 134.2073040  56.0796310 109.5899540 135.3797530  55.5380660 108.8000490
 133.0589350  58.3385990 115.5759360 133.6305460  57.5708190 115.5763000
 133.0590890  58.6374750 114.6665970 142.9169300  67.1576840 113.4304630
 142.2980740  67.6134340 112.8599070 143.7721080  67.3128300 113.0294330
 142.1107550  63.1415830 115.0371670 142.0415830  62.2005770 114.8760800
 142.8727410  63.2317240 115.6094240 134.3014220  53.7470350 117.3628290
 134.1217060  52.8496100 117.6431050 133.8994300  54.2942220 118.0375240
 143.1412720  55.9486210 115.2640600 143.5177540  55.0758090 115.1514270
 143.0432230  56.2844910 114.3731040 137.2717730  54.3211840 110.7258040
 137.3784480  55.2215570 111.0326800 136.3610090  54.2729810 110.4352690
 146.9236840  53.4436650 112.1968940 147.7446460  52.9533220 112.2394420
 146.9570920  54.0334310 112.9500780 134.9200890  56.2430850 115.9710630
 135.6011000  56.5069220 116.5898030 134.6048940  55.4031720 116.3048640
 139.1125460  57.2898210 115.0583220 139.6203680  57.7879180 115.6988240
 139.6438700  56.5133410 114.8822580 137.3961560  51.9296770 119.3246640
 137.3980000  52.4469160 118.5192540 136.5665870  51.4526950 119.3016570
 143.7832650  62.0416080 110.8236540 143.1649920  62.5065530 110.2599260
 144.2955900  62.7343560 111.2406050 138.6464410  61.5691950 117.5020140
 138.3133790  62.1960870 118.1441210 138.8231090  62.0953830 116.7221810
 147.1598320  55.3837030 114.9696480 146.4553890  55.6721920 115.5499590
 147.5210480  56.1937140 114.6096040 137.0776890  53.6406730 117.3317090
 137.4193700  54.4848780 117.0370960 136.1392700  53.7890470 117.4482430
 137.8583510  63.5372750 119.3169320 138.4757510  64.2123830 119.0353770
 136.9976630  63.9460730 119.2256820 133.1515850  62.7272610 108.1976170
 132.7743830  63.2159710 107.4661070 133.4088920  63.3997890 108.8282700
 148.7761100  65.0012160 117.2323960 148.0924620  65.6711270 117.2240630
 149.3155390  65.1992810 116.4668820 140.7604780  51.1289000 113.6561680
 141.0679760  50.5735890 112.9397180 139.8305480  51.2633460 113.4734670
 146.3119840  66.8456290 115.9469140 146.3247000  66.4418580 115.0791400
 145.7595060  67.6203580 115.8430570 147.6065260  63.5672510 111.0359310
 147.4961590  62.6246840 111.1608730 147.6033510  63.9288150 111.9222070
 145.7105280  61.7486130 117.2751750 146.1274070  61.5346240 116.4405210
 146.4345100  62.0058920 117.8460370 143.1485540  59.1937830 110.3921800
 142.2214820  59.1275210 110.6210270 143.3010360  60.1317960 110.2777040
 143.1354620  55.4654830 107.3888960 142.1958290  55.6268790 107.4741420
 143.4537880  56.1840510 106.8424950 149.6567380  60.1473350 117.3667990
 148.8286010  60.2166440 116.8918120 150.2517860  60.7327660 116.8983820
 147.1782830  60.7558130 110.8957050 146.5595250  60.4177680 110.2483350
 147.1607280  60.1117890 111.6036240 146.6209390  56.9342670 118.3122860
 146.2080570  57.7596380 118.5662850 145.8885340  56.3487710 118.1199220
 138.7542180  59.7202570 113.1741530 138.3499180  59.0079820 112.6787430
 138.8405300  59.3755810 114.0629570 139.2223880  63.4070130 115.3380740
 138.9252170  62.8015600 114.6588520 140.1723700  63.4447440 115.2270100
 137.4670800  56.4945780 116.9540570 138.0185390  56.6041120 116.1793820
 137.9814310  56.8683380 117.6695800 147.3109490  66.9802000 119.0003840
 146.8340050  67.7874190 118.8076450 146.6271280  66.3280330 119.1530050
 138.3142310  63.1451820 121.9888540 137.4170840  63.3691790 122.2361940
 138.3395180  63.2686760 121.0399940 145.3547530  59.9944940 107.9029800
 145.7940810  59.1567370 107.7567620 146.0675950  60.6274340 107.9893940
 137.1413530  60.0165140 120.5645910 137.0021300  60.8887940 120.9333310
 136.2594890  59.6737950 120.4193850 143.4642910  64.9341010 111.8711040
 143.9038820  65.6765340 111.4566430 143.4029800  65.1767580 112.7950000
 138.9393880  65.9586840 122.7731060 138.9109310  66.3629790 121.9059490
 138.7758850  65.0297200 122.6102660 148.9364670  51.2487750 106.2170840
 148.6237330  51.3414580 107.1169910 149.6977140  51.8268780 106.1668270
 135.4546810  58.6147550 110.6748180 135.3344410  59.3409640 110.0629450
 135.1447700  57.8450460 110.1976090 133.0932180  61.7862690 116.4816820
 133.1712600  61.9211460 115.5372540 133.7073860  61.0778580 116.6744940
 134.3379810  63.4862880 112.8923000 133.9307890  63.6277470 112.0376600
 135.2292820  63.2023040 112.6894210 150.2941950  63.9326790 121.2295240
 150.4205010  63.6938670 120.3112420 150.3363330  63.1011330 121.7017320
 144.1558690  67.6354790 119.7990050 144.6703360  67.5462800 120.6012480
 143.3127770  67.9814490 120.0917960 146.1313090  67.9210130 109.2274050
 145.9714230  67.6313070 110.1255880 145.9659800  67.1450260 108.6919280
 138.6101470  67.7008660 111.0045670 138.4343950  66.7844200 110.7913470
 137.7557210  68.0595950 111.2443470 145.8339220  65.4297690 107.7872050
 145.1404380  65.4274980 107.1274330 146.5762080  65.0057010 107.3566220
 145.3989150  67.0560400 111.8620540 145.8546100  66.2749780 112.1759160
 145.7381670  67.7667220 112.4061720 150.1465960  55.9859250 122.1944980
 149.5310230  56.4938920 121.6660440 149.8262380  55.0857580 122.1370920
 133.1491700  62.8276860 119.0211280 133.3122740  62.3582220 118.2030650
 133.6144150  62.3200420 119.6860120 137.9210470  51.9582620 114.0571850
 137.4778620  52.7392160 113.7256370 138.4795460  52.2812510 114.7642790
 142.2080280  54.8251140 119.6607170 141.7459650  55.0334160 120.4727110
 141.8058390  54.0110490 119.3577840 147.2084790  56.0460090 120.7903830
 146.3578380  55.7465840 121.1112900 147.0486580  56.2902100 119.8787650
 144.3034500  57.5461840 122.8902620 144.6287910  56.7125590 122.5504850
 145.0914830  58.0690360 123.0380950 141.0369290  51.5793320 108.9377680
 140.4123470  51.5753190 109.6630990 140.9499410  50.7124280 108.5413650
 139.9586370  52.5029950 115.9161450 140.2558700  53.4092780 115.8353470
 140.5071930  52.0148730 115.3021020 137.7124690  57.0816190 111.7853100
 137.4865610  56.8653360 112.6899720 136.9317220  57.5144650 111.4399070
 144.9422450  57.0879560 110.3843750 144.3431340  57.8115360 110.2007370
 145.4902060  57.0256340 109.6020200 140.1523900  57.9801770 122.4513370
 140.0567500  57.0396500 122.3013770 140.9955880  58.2016840 122.0561440
 143.5487320  55.7243100 112.4147030 143.9416890  56.0415300 111.6015720
 143.9104170  54.8454980 112.5291550 135.2834440  54.3915440 120.6047150
 134.8897830  55.2390650 120.8119930 134.5952840  53.7541810 120.7955790
 141.8579490  54.4750410 123.6743890 141.1677810  54.2822610 124.3089980
 142.6011790  54.7585050 124.2068190 132.5851490  52.3143900 114.6377230
 132.2964540  52.8846760 115.3502210 133.3297250  51.8348350 115.0008460
 132.7721720  56.2564020 105.8479950 132.6896390  57.1994780 105.9894940
 132.4204780  56.1138930 104.9692300 144.1342460  58.3148850 116.5097810
 143.4023580  58.8235660 116.8587910 143.7366800  57.4978830 116.2086590
 140.5719850  54.9903050 114.9150300 140.5755910  54.5493000 114.0654840
 141.4670970  55.3120380 115.0222120 136.4222230  54.8729540 113.8744510
 136.0822280  55.3504770 114.6311560 135.6599550  54.4194660 113.5145610
 140.6340000  55.9915130 107.9057060 140.7552820  55.9501610 108.8542880
 140.2488510  56.8539280 107.7503790 144.5968370  53.7682530 115.9220750
 144.6141110  54.2191180 116.7662600 144.3483950  52.8688170 116.1354190
 139.6461500  58.3016270 107.3040360 139.0778400  57.8534520 106.6776270
 140.3550500  58.6609050 106.7705510 148.0239120  51.1814710 121.7607130
 148.3484890  50.4504370 122.2865110 148.0595630  50.8628350 120.8588120
 134.7230680  62.2028290 121.1807090 134.3385470  61.5621960 121.7790050
 135.0342870  62.9064410 121.7501820 140.8727820  59.0504830 116.6615710
 141.2397950  58.5763400 117.4077050 140.6832880  59.9246400 117.0024050
 133.7368310  53.7948520 112.7909180 133.4515230  53.4304190 113.6287800
 133.6747170  53.0628980 112.1772320 138.6627190  58.0913470 118.9799920
 138.3584260  58.9705450 119.2050280 139.6173650  58.1513260 119.0157360
 137.1908980  62.2974460 109.5766770 136.4171240  61.7572080 109.4165490
 137.9203610  61.7781070 109.2384530 147.9496960  61.2939820 115.3693160
 148.6696080  61.7895110 114.9789270 147.7478780  60.6157710 114.7247030
 143.4106900  52.6877780 109.5122550 142.5971510  52.1890950 109.4367860
 143.2168850  53.5276030 109.0958900 143.3315760  61.3648880 121.2562160
 143.2653070  60.4444550 121.0019750 142.7020900  61.4624320 121.9706800
 146.1255290  57.0597430 107.8084710 147.0134910  57.3714660 107.6336050
 146.0960380  56.1869680 107.4165290 137.2346380  61.9654840 113.2145580
 137.7525050  61.1623100 113.1602470 136.7830400  61.9033980 114.0562410
 142.1215880  63.2321120 108.4872880 142.4631580  63.9763350 107.9916200
 141.2928590  63.5452240 108.8497710 134.7190920  58.9316210 120.1271280
 134.3605860  59.5970060 120.7144620 134.4245480  58.0999760 120.4983900
 137.9204040  59.3900450 123.0110830 137.6204180  59.5357630 122.1138650
 138.6915280  58.8305740 122.9184220 143.2632490  64.1869450 121.0065960
 143.2777030  63.2550410 120.7884870 142.5557590  64.2729210 121.6455730
 148.3969560  58.3709270 107.2764570 148.3133280  58.8023490 106.4261010
 149.1163750  58.8307620 107.7091390 149.4743700  60.8276790 120.3534540
 148.7491890  61.4205570 120.1563930 150.0019160  60.8200330 119.5547910
 149.4256810  65.2251530 110.0046700 148.7832970  64.5707150 110.2790420
 149.0387470  65.6306620 109.2287370 145.0043290  62.5536960 113.8518390
 145.3567110  61.9565090 113.1919760 144.1205620  62.2281190 114.0226640
 141.0906570  63.3134650 111.2588800 141.7777700  63.8603860 111.6396390
 140.3038990  63.8575380 111.2938410 133.2298970  58.9307470 106.7505880
 134.0993820  59.2132270 107.0341800 132.7389290  59.7443340 106.6354690
 140.3933780  60.3180680 110.8714160 140.8496560  61.1285930 111.0974350
 140.0421990  60.0003820 111.7032650 142.6966390  65.8287020 118.1006460
 143.3408610  66.0346400 118.7779880 143.0595830  65.0675420 117.6477310
 136.2945560  50.6618330 111.3436680 136.1660190  50.6536230 112.2921600
 135.4707580  51.0001420 110.9927690 143.9698470  63.8319370 116.8183910
 144.6120700  63.1312530 116.9316080 144.4947820  64.6117810 116.6380800
 147.8154190  64.1167990 106.5423050 147.5891770  63.3998430 107.1347690
 147.4250390  63.8680430 105.7044800 145.7436090  64.6314270 120.0219970
 146.0792330  65.2180960 120.6997890 144.8236430  64.5006980 120.2517760
 133.5970220  68.1434850 107.3167510 133.9567860  68.7424190 106.6624780
 133.4562560  68.6894740 108.0902540 133.2939490  52.4209450 120.8043380
 132.5798010  52.6206370 121.4095990 133.7134530  51.6449020 121.1758180
 147.3970440  62.0339930 108.2037210 147.1092140  62.4952620 108.9915090
 148.1922610  61.5737700 108.4721430 133.5812080  66.4089710 121.7909910
 133.6903200  65.4684450 121.6505300 132.9292640  66.6744460 121.1423640
 141.5724670  64.6805600 123.1908030 141.2521540  63.9614840 123.7353720
 140.8983030  65.3560670 123.2644090 139.6138840  65.5266050 108.1341180
 139.6048940  66.2595740 107.5185690 138.6937200  65.2797630 108.2268140
 135.2145480  60.7480940 108.8787940 134.6073430  61.4879840 108.8883240
 135.6894830  60.8380300 108.0526140 144.7878270  54.9131760 118.5544830
 145.1559090  54.0926970 118.8824400 143.9276470  54.9733650 118.9700480
 148.1540300  53.8688700 109.3632390 147.5253460  53.9734370 108.6490620
 147.6592220  54.0885480 110.1526270 142.5998440  65.5894290 106.7966370
 142.7010420  65.3858280 105.8668350 141.7000180  65.3352570 107.0014150
 140.1224330  56.1474650 110.7790270 139.4140480  56.6160990 111.2203880
 140.4068810  55.4896660 111.4135460 141.7480260  57.5671350 118.7782800
 142.2465510  58.0417170 119.4434650 141.8903210  56.6434870 118.9852830
 144.1539760  52.8725310 112.2186060 144.0307540  52.8911440 111.2695570
 145.1024320  52.9204250 112.3384460 141.2416550  68.1080610 111.4914040
 141.4958050  68.0702000 110.5693410 140.2929030  67.9813940 111.4842290
 138.3259350  54.4559730 108.1540980 139.1749880  54.8929880 108.0881170
 137.9590620  54.7679990 108.9813040 148.9547120  53.7839310 119.6211190
 148.4520720  54.5244710 119.9605000 149.7703780  54.1723310 119.3047980
 147.2469130  59.0272490 113.0672550 146.3059270  59.0422720 113.2420240
 147.5613200  58.2408450 113.5132850 137.2250770  60.7092090 106.6276510
 137.9914040  60.5973450 107.1901940 137.3025460  60.0130060 105.9753280
 135.9197530  58.1417160 107.3109400 136.0001120  57.1944670 107.4226800
 136.8117280  58.4724040 107.4170060 149.2494710  66.1981340 114.7426810
 149.3742130  67.0212510 115.2150620 150.1160270  65.9872070 114.3950960
 136.7212240  68.2912550 114.4143940 137.4574720  67.7428010 114.6852510
 137.1053160  69.1568560 114.2749930 133.6057720  64.3586120 110.2885450
 132.6797500  64.6007260 110.2790860 134.0714150  65.1860380 110.1670200
 135.7270520  67.4758620 123.6029520 136.5283250  67.7970670 124.0164920
 135.2122340  67.1154200 124.3249430 139.8314550  67.4642860 106.2369510
 140.6243160  67.7531690 105.7851300 139.3118900  67.0335030 105.5581990
 144.5635150  63.5838490 123.5504930 143.9573310  63.6070090 122.8100680
 144.2589260  62.8521530 124.0872180 145.9935520  67.3118780 122.1614340
 146.9457270  67.2276800 122.1114580 145.8463740  67.9760490 122.8348130
 148.8844720  66.6912990 107.6606250 148.5986230  66.2778130 106.8460430
 148.6864270  67.6200700 107.5406770 133.4468330  59.9632080 122.5465570
 133.9507350  59.3839360 123.1181800 132.7075750  60.2472310 123.0841940
 140.3491950  62.6846270 106.1011860 140.2442590  62.0698620 106.8273240
 140.1816170  62.1612160 105.3174870 140.5006270  61.3703070 122.0801090
 139.7351940  61.9388070 121.9955760 140.6822230  61.0779280 121.1869320
 143.5894680  61.7466300 106.7053850 143.0404780  62.1935600 107.3496590
 144.2113940  61.2415550 107.2291520 147.6429620  63.1008400 122.6376110
 148.3839090  63.4384160 122.1343570 146.8802300  63.2700460 122.0845880
 135.4791410  58.1061670 123.4415640 135.5196750  57.8075540 124.3500870
 136.3336910  58.5069280 123.2823160 139.2569800  60.7057220 108.6019150
 139.6786220  60.5397090 109.4450540 139.3820640  59.8957450 108.1074290
 137.4197220  56.6853770 121.4090130 136.8893680  56.1944720 120.7813470
 138.0885290  57.1137970 120.8748060 141.7697440  59.7294830 105.8496250
 142.2903100  59.0143850 105.4837400 142.4165840  60.3680700 106.1496760
 146.3175280  61.1523230 121.1731320 146.7316300  61.3068310 122.0221740
 145.3826280  61.2778450 121.3357100 146.7897450  58.4919390 123.1770470
 147.3718220  57.7371710 123.0890950 146.9659220  59.0226830 122.4001950
 137.9069520  53.6516140 121.4887420 137.8126390  53.0336890 120.7638290
 137.3266910  54.3782430 121.2617330 140.6730960  52.2089380 118.5214810
 140.2248260  52.2313640 117.6760360 140.0396160  51.8108400 119.1185110
 141.0790510  61.1043710 119.1427250 141.4978620  61.9476440 118.9703490
 140.1599140  61.2415750 118.9134030 143.4154410  58.8359890 120.5265090
 143.5350620  58.2401030 121.2659930 144.2748410  58.8729580 120.1066390
 145.7542310  59.3897080 119.1027600 145.2277530  59.9139700 118.4992740
 146.0973650  60.0224470 119.7337330 138.1528700  56.7790450 105.5477310
 137.9517760  55.9157810 105.9090650 137.9820750  56.6923810 104.6098910
 138.9297930  67.4096720 120.2584980 138.3919020  68.1342780 119.9393680
 139.1831890  66.9327060 119.4682320 140.1823180  55.3781240 121.7840910
 140.7722870  55.0697090 122.4718730 139.3643420  54.9060990 121.9400810
 145.0016610  54.9947050 122.0173930 144.3132130  54.3328590 121.9523920
 145.7222630  54.5485320 122.4622390 145.6317010  51.5898680 108.0764190
 145.9119300  50.7466580 108.4323610 144.8582740  51.8221790 108.5902940
 136.9511500  53.8791070 105.5355190 137.2537400  53.8858500 104.6274340
 137.6906090  53.5288930 106.0322850 141.7860140  68.6447930 120.5171630
 141.7118840  69.5483070 120.8244000 140.8838980  68.3259830 120.4893700
 140.1696430  52.8225690 106.5211390 139.8218430  52.1449680 105.9413840
 140.3709200  52.3615200 107.3354780 142.3345470  67.8106440 108.1397990
 143.2296260  68.1491410 108.1616750 142.3663100  67.0885850 107.5122270
 135.9741630  63.1833490 106.3684990 136.4116500  63.7263160 107.0242570
 136.4589360  62.3580440 106.3781330 133.1887430  65.9722520 113.8205250
 133.5190440  65.1043580 113.5883890 133.6178430  66.1781040 114.6510210
 137.7849350  64.3031530 111.4807220 137.4844890  64.1796500 112.3811130
 137.6786840  63.4440120 111.0722950 133.6777640  66.8393110 116.5586880
 133.2408630  67.0193910 117.3911030 134.2455320  67.5967730 116.4168600
 149.3139820  66.3410110 120.8464190 148.7141810  66.4002670 120.1028110
 149.4433720  65.4015090 120.9761040 133.5102070  59.3513340 112.9175760
 132.8550910  59.0824980 112.2735460 134.3480020  59.2417820 112.4677740
 147.9991460  63.0662090 118.9440350 147.1851300  63.4959250 119.2066140
 148.4065660  63.6780500 118.3309400 150.0616900  61.1209780 105.8440620
 150.3365740  62.0288660 105.7159840 149.8727640  61.0572310 106.7802610
 146.4592510  54.1454630 107.1394250 146.8777390  53.9585610 106.2990910
 146.1528570  53.2933680 107.4497180 149.9582240  59.0578770 110.8370050
 149.5825840  58.2906700 110.4051340 149.2285360  59.4401470 111.3244980
 134.5478000  59.7365910 117.4579100 134.9151040  59.6493310 118.3375120
 133.9788820  58.9732460 117.3585960 149.3481860  58.2050290 120.4709570
 149.1167950  57.9763040 119.5707520 149.6086410  59.1249840 120.4254460
 134.0994000  56.6475000 121.3637520 133.2050050  56.6141760 121.7031230
 134.6391550  56.8461790 122.1288770 147.7869930  53.4306720 123.2489270
 148.6640110  53.4390120 123.6323270 147.7990770  52.6937560 122.6381620
 132.7240150  56.5612270 108.8601090 131.8204230  56.8242470 108.6852750
 133.2080770  56.8323440 108.0801050 149.2333200  57.2836260 114.1377290
 149.7570680  56.7898910 113.5067460 149.8192620  57.4186620 114.8824860
 149.4122920  57.3676130 117.6596840 148.4625630  57.3339670 117.7741830
 149.5935930  58.2776240 117.4246610 135.2667360  55.6177810 106.7695470
 135.9759060  55.1961030 106.2842750 134.5507300  55.6853040 106.1378820
 134.9141520  51.6717140 105.8098120 135.6369650  52.2126080 106.1279340
 135.1866040  51.3980560 104.9339660 148.7233170  56.5409610 110.0769700
 149.2192290  56.3080480 110.8618580 148.5249240  55.7021450 109.6607340
 134.6033710  50.9223330 115.7120740 135.2509900  50.3720710 115.2715900
 135.0235550  51.1766480 116.5336550 148.4986050  51.1164690 119.0690380
 149.1358270  51.7298830 119.4349570 148.6460940  51.1525350 118.1239610
 148.0567510  67.8180690 112.4708620 148.6526580  67.4965260 111.7943040
 148.3145660  67.3452510 113.2621890 134.3565710  51.0779000 118.4546060
 134.0080530  51.5342820 119.2204240 134.0253410  50.1836130 118.5368490
 135.9630080  64.2498600 122.6199250 135.9199710  63.8791510 123.5013710
 136.0941090  65.1876170 122.7601070 139.6636110  65.8058190 118.2208970
 139.4227470  66.0732750 117.3339490 140.6038750  65.9763920 118.2759830
 141.8690530  52.2690880 121.9765480 141.8079420  52.8612710 122.7260890
 142.8090910  52.1616840 121.8315740 144.5065090  51.9260940 121.6157770
 145.1205500  52.2440230 120.9538850 145.0514650  51.4409530 122.2353630
 135.0286350  50.6055200 121.7296830 135.5769340  50.4243250 120.9662940
 135.0941660  49.8149310 122.2653140 135.8018110  67.1960850 119.7397030
 135.2078430  67.0645550 120.4787070 135.7941950  66.3598990 119.2739130
 145.2473130  50.4893080 117.9427060 144.3732970  50.8228190 117.7399990
 145.1383880  50.0166260 118.7678930 146.1545110  52.6963950 119.3268780
 145.8258470  51.8815710 118.9470510 147.1027410  52.6533760 119.2034470
 148.6079720  68.4675990 116.3006350 148.1482690  69.2191800 115.9264370
 147.9792180  67.7482460 116.2421150 135.4330340  64.5619230 118.6905070
 134.7064400  63.9424520 118.6231020 135.4939490  64.9559840 117.8203150
 139.0375440  66.7764230 115.4754480 139.5540460  66.1651590 114.9502740
 139.6872820  67.2793010 115.9665490 141.7770940  67.6672720 116.3023460
 142.0648750  67.4127020 115.4256470 142.2894160  67.1150080 116.8929030
 142.9947950  51.4062920 116.8819970 142.2119740  51.8808420 117.1616730
 142.7010880  50.5017750 116.7733150 147.5469020  52.1086020 114.9269060
 147.9877110  52.0531120 114.0790660 147.2776610  53.0244030 114.9979240
 149.4107590  51.7401260 112.9377880 149.3495990  50.7962480 112.7908900
 150.1899620  51.8481350 113.4831340 133.7160340  67.8793620 111.9001830
 133.5482380  67.2464300 112.5983720 132.8494850  68.0853020 111.5496020
 134.3388360  51.7110400 109.4033690 135.0967720  51.8239280 108.8297720
 133.8765530  52.5479600 109.3577120 140.8802170  53.8249670 112.3936000
 140.0676680  53.4506560 112.0531880 141.3843810  53.0694750 112.6957190
 145.3827150  50.4892120 113.6319070 145.9856520  51.0612330 114.1067590
 144.6420140  51.0531560 113.4092970 148.5261750  50.8913680 108.9059350
 148.7212380  51.7897130 109.1726780 147.7391620  50.6600760 109.3992300
 135.3223040  66.5726850 109.3451970 134.7970660  66.9534880 108.6413930
 135.2467620  67.1977620 110.0661680 136.7113510  52.2374450 107.9435660
 137.2406270  51.4504250 107.8143610 137.3441830  52.9165640 108.1771190
 138.9051350  51.9749590 110.9981050 138.2754090  51.2736900 111.1651180
 138.3656490  52.7353720 110.7814210 141.8443300  68.5888820 123.6691660
 142.7710610  68.3533090 123.7127620 141.8293730  69.4160820 123.1877690
 150.0788360  68.1314390 110.6665910 150.2540550  67.4452130 110.0226830
 149.3809930  68.6561440 110.2742580 139.0306910  51.2533570 123.4333540
 138.7491180  51.7567170 122.6694360 139.4126610  50.4555320 123.0675670
 137.9216010  68.5209230 108.2201220 138.6534830  68.2368510 107.6725110
 138.1809680  68.2822510 109.1100600 137.0830800  64.6373960 108.2247550
 136.4539680  65.1059060 108.7733380 137.1978630  63.7923180 108.6593740
 145.6322370  50.6687150 124.0114010 145.5187820  50.9881760 124.9065530
 146.4492110  51.0699660 123.7151290 148.4120860  67.8158680 123.4932700
 149.2046180  67.3207910 123.2858660 148.7054010  68.4948820 124.1008310
 144.5380520  58.6879620  94.3748750 144.4574570  57.7734230  94.1040460
 144.1244940  59.1846690  93.6688460 142.6698560  60.4658640  96.2558020
 141.8940660  59.9859080  96.5456590 143.3211490  59.7864290  96.0814180
 136.6864390  60.7778450  97.1333780 135.8549270  60.5227160  97.5330290
 137.2945370  60.8489220  97.8691700 146.6905990  64.8718830  95.0357150
 146.2287520  64.1006070  95.3644320 147.5031540  64.8984900  95.5409600
 136.6665650  64.8118540  97.3291800 136.9693690  63.9216280  97.1502020
 137.4109240  65.3688760  97.1014050 133.0589350  58.3385990  96.8015870
 133.6305460  57.5708190  96.8019510 133.0590890  58.6374750  95.8922480
 142.9169300  67.1576840  94.6561140 142.2980740  67.6134340  94.0855580
 143.7721080  67.3128300  94.2550840 142.1107550  63.1415830  96.2628180
 142.0415830  62.2005770  96.1017310 142.8727410  63.2317240  96.8350750
 134.3014220  53.7470350  98.5884800 134.1217060  52.8496100  98.8687560
 133.8994300  54.2942220  99.2631750 143.1412720  55.9486210  96.4897110
 143.5177540  55.0758090  96.3770780 143.0432230  56.2844910  95.5987550
 137.2717730  54.3211840  91.9514550 137.3784480  55.2215570  92.2583310
 136.3610090  54.2729810  91.6609200 146.9236840  53.4436650  93.4225450
 147.7446460  52.9533220  93.4650930 146.9570920  54.0334310  94.1757290
 134.9200890  56.2430850  97.1967140 135.6011000  56.5069220  97.8154540
 134.6048940  55.4031720  97.5305150 139.1125460  57.2898210  96.2839730
 139.6203680  57.7879180  96.9244750 139.6438700  56.5133410  96.1079090
 137.3961560  51.9296770 100.5503150 137.3980000  52.4469160  99.7449050
 136.5665870  51.4526950 100.5273080 143.7832650  62.0416080  92.0493050
 143.1649920  62.5065530  91.4855770 144.2955900  62.7343560  92.4662560
 138.6464410  61.5691950  98.7276650 138.3133790  62.1960870  99.3697720
 138.8231090  62.0953830  97.9478320 147.1598320  55.3837030  96.1952990
 146.4553890  55.6721920  96.7756100 147.5210480  56.1937140  95.8352550
 137.0776890  53.6406730  98.5573600 137.4193700  54.4848780  98.2627470
 136.1392700  53.7890470  98.6738940 137.8583510  63.5372750 100.5425830
 138.4757510  64.2123830 100.2610280 136.9976630  63.9460730 100.4513330
 133.1515850  62.7272610  89.4232680 132.7743830  63.2159710  88.6917580
 133.4088920  63.3997890  90.0539210 148.7761100  65.0012160  98.4580470
 148.0924620  65.6711270  98.4497140 149.3155390  65.1992810  97.6925330
 140.7604780  51.1289000  94.8818190 141.0679760  50.5735890  94.1653690
 139.8305480  51.2633460  94.6991180 146.3119840  66.8456290  97.1725650
 146.3247000  66.4418580  96.3047910 145.7595060  67.6203580  97.0687080
 147.6065260  63.5672510  92.2615820 147.4961590  62.6246840  92.3865240
 147.6033510  63.9288150  93.1478580 145.7105280  61.7486130  98.5008260
 146.1274070  61.5346240  97.6661720 146.4345100  62.0058920  99.0716880
 143.1485540  59.1937830  91.6178310 142.2214820  59.1275210  91.8466780
 143.3010360  60.1317960  91.5033550 143.1354620  55.4654830  88.6145470
 142.1958290  55.6268790  88.6997930 143.4537880  56.1840510  88.0681460
 149.6567380  60.1473350  98.5924500 148.8286010  60.2166440  98.1174630
 150.2517860  60.7327660  98.1240330 147.1782830  60.7558130  92.1213560
 146.5595250  60.4177680  91.4739860 147.1607280  60.1117890  92.8292750
 146.6209390  56.9342670  99.5379370 146.2080570  57.7596380  99.7919360
 145.8885340  56.3487710  99.3455730 138.7542180  59.7202570  94.3998040
 138.3499180  59.0079820  93.9043940 138.8405300  59.3755810  95.2886080
 139.2223880  63.4070130  96.5637250 138.9252170  62.8015600  95.8845030
 140.1723700  63.4447440  96.4526610 137.4670800  56.4945780  98.1797080
 138.0185390  56.6041120  97.4050330 137.9814310  56.8683380  98.8952310
 147.3109490  66.9802000 100.2260350 146.8340050  67.7874190 100.0332960
 146.6271280  66.3280330 100.3786560 138.3142310  63.1451820 103.2145050
 137.4170840  63.3691790 103.4618450 138.3395180  63.2686760 102.2656450
 145.3547530  59.9944940  89.1286310 145.7940810  59.1567370  88.9824130
 146.0675950  60.6274340  89.2150450 137.1413530  60.0165140 101.7902420
 137.0021300  60.8887940 102.1589820 136.2594890  59.6737950 101.6450360
 143.4642910  64.9341010  93.0967550 143.9038820  65.6765340  92.6822940
 143.4029800  65.1767580  94.0206510 138.9393880  65.9586840 103.9987570
 138.9109310  66.3629790 103.1316000 138.7758850  65.0297200 103.8359170
 148.9364670  51.2487750  87.4427350 148.6237330  51.3414580  88.3426420
 149.6977140  51.8268780  87.3924780 135.4546810  58.6147550  91.9004690
 135.3344410  59.3409640  91.2885960 135.1447700  57.8450460  91.4232600
 133.0932180  61.7862690  97.7073330 133.1712600  61.9211460  96.7629050
 133.7073860  61.0778580  97.9001450 134.3379810  63.4862880  94.1179510
 133.9307890  63.6277470  93.2633110 135.2292820  63.2023040  93.9150720
 150.2941950  63.9326790 102.4551750 150.4205010  63.6938670 101.5368930
 150.3363330  63.1011330 102.9273830 144.1558690  67.6354790 101.0246560
 144.6703360  67.5462800 101.8268990 143.3127770  67.9814490 101.3174470
 146.1313090  67.9210130  90.4530560 145.9714230  67.6313070  91.3512390
 145.9659800  67.1450260  89.9175790 138.6101470  67.7008660  92.2302180
 138.4343950  66.7844200  92.0169980 137.7557210  68.0595950  92.4699980
 145.8339220  65.4297690  89.0128560 145.1404380  65.4274980  88.3530840
 146.5762080  65.0057010  88.5822730 145.3989150  67.0560400  93.0877050
 145.8546100  66.2749780  93.4015670 145.7381670  67.7667220  93.6318230
 150.1465960  55.9859250 103.4201490 149.5310230  56.4938920 102.8916950
 149.8262380  55.0857580 103.3627430 133.1491700  62.8276860 100.2467790
 133.3122740  62.3582220  99.4287160 133.6144150  62.3200420 100.9116630
 137.9210470  51.9582620  95.2828360 137.4778620  52.7392160  94.9512880
 138.4795460  52.2812510  95.9899300 142.2080280  54.8251140 100.8863680
 141.7459650  55.0334160 101.6983620 141.8058390  54.0110490 100.5834350
 147.2084790  56.0460090 102.0160340 146.3578380  55.7465840 102.3369410
 147.0486580  56.2902100 101.1044160 144.3034500  57.5461840 104.1159130
 144.6287910  56.7125590 103.7761360 145.0914830  58.0690360 104.2637460
 141.0369290  51.5793320  90.1634190 140.4123470  51.5753190  90.8887500
 140.9499410  50.7124280  89.7670160 139.9586370  52.5029950  97.1417960
 140.2558700  53.4092780  97.0609980 140.5071930  52.0148730  96.5277530
 137.7124690  57.0816190  93.0109610 137.4865610  56.8653360  93.9156230
 136.9317220  57.5144650  92.6655580 144.9422450  57.0879560  91.6100260
 144.3431340  57.8115360  91.4263880 145.4902060  57.0256340  90.8276710
 140.1523900  57.9801770 103.6769880 140.0567500  57.0396500 103.5270280
 140.9955880  58.2016840 103.2817950 143.5487320  55.7243100  93.6403540
 143.9416890  56.0415300  92.8272230 143.9104170  54.8454980  93.7548060
 135.2834440  54.3915440 101.8303660 134.8897830  55.2390650 102.0376440
 134.5952840  53.7541810 102.0212300 141.8579490  54.4750410 104.9000400
 141.1677810  54.2822610 105.5346490 142.6011790  54.7585050 105.4324700
 132.5851490  52.3143900  95.8633740 132.2964540  52.8846760  96.5758720
 133.3297250  51.8348350  96.2264970 144.1342460  58.3148850  97.7354320
 143.4023580  58.8235660  98.0844420 143.7366800  57.4978830  97.4343100
 140.5719850  54.9903050  96.1406810 140.5755910  54.5493000  95.2911350
 141.4670970  55.3120380  96.2478630 136.4222230  54.8729540  95.1001020
 136.0822280  55.3504770  95.8568070 135.6599550  54.4194660  94.7402120
 140.6340000  55.9915130  89.1313570 140.7552820  55.9501610  90.0799390
 140.2488510  56.8539280  88.9760300 144.5968370  53.7682530  97.1477260
 144.6141110  54.2191180  97.9919110 144.3483950  52.8688170  97.3610700
 139.6461500  58.3016270  88.5296870 139.0778400  57.8534520  87.9032780
 140.3550500  58.6609050  87.9962020 148.0239120  51.1814710 102.9863640
 148.3484890  50.4504370 103.5121620 148.0595630  50.8628350 102.0844630
 134.7230680  62.2028290 102.4063600 134.3385470  61.5621960 103.0046560
 135.0342870  62.9064410 102.9758330 140.8727820  59.0504830  97.8872220
 141.2397950  58.5763400  98.6333560 140.6832880  59.9246400  98.2280560
 133.7368310  53.7948520  94.0165690 133.4515230  53.4304190  94.8544310
 133.6747170  53.0628980  93.4028830 138.6627190  58.0913470 100.2056430
 138.3584260  58.9705450 100.4306790 139.6173650  58.1513260 100.2413870
 137.1908980  62.2974460  90.8023280 136.4171240  61.7572080  90.6422000
 137.9203610  61.7781070  90.4641040 147.9496960  61.2939820  96.5949670
 148.6696080  61.7895110  96.2045780 147.7478780  60.6157710  95.9503540
 143.4106900  52.6877780  90.7379060 142.5971510  52.1890950  90.6624370
 143.2168850  53.5276030  90.3215410 143.3315760  61.3648880 102.4818670
 143.2653070  60.4444550 102.2276260 142.7020900  61.4624320 103.1963310
 146.1255290  57.0597430  89.0341220 147.0134910  57.3714660  88.8592560
 146.0960380  56.1869680  88.6421800 137.2346380  61.9654840  94.4402090
 137.7525050  61.1623100  94.3858980 136.7830400  61.9033980  95.2818920
 142.1215880  63.2321120  89.7129390 142.4631580  63.9763350  89.2172710
 141.2928590  63.5452240  90.0754220 134.7190920  58.9316210 101.3527790
 134.3605860  59.5970060 101.9401130 134.4245480  58.0999760 101.7240410
 137.9204040  59.3900450 104.2367340 137.6204180  59.5357630 103.3395160
 138.6915280  58.8305740 104.1440730 143.2632490  64.1869450 102.2322470
 143.2777030  63.2550410 102.0141380 142.5557590  64.2729210 102.8712240
 148.3969560  58.3709270  88.5021080 148.3133280  58.8023490  87.6517520
 149.1163750  58.8307620  88.9347900 149.4743700  60.8276790 101.5791050
 148.7491890  61.4205570 101.3820440 150.0019160  60.8200330 100.7804420
 149.4256810  65.2251530  91.2303210 148.7832970  64.5707150  91.5046930
 149.0387470  65.6306620  90.4543880 145.0043290  62.5536960  95.0774900
 145.3567110  61.9565090  94.4176270 144.1205620  62.2281190  95.2483150
 141.0906570  63.3134650  92.4845310 141.7777700  63.8603860  92.8652900
 140.3038990  63.8575380  92.5194920 140.3933780  60.3180680  92.0970670
 140.8496560  61.1285930  92.3230860 140.0421990  60.0003820  92.9289160
 142.6966390  65.8287020  99.3262970 143.3408610  66.0346400 100.0036390
 143.0595830  65.0675420  98.8733820 136.2945560  50.6618330  92.5693190
 136.1660190  50.6536230  93.5178110 135.4707580  51.0001420  92.2184200
 143.9698470  63.8319370  98.0440420 144.6120700  63.1312530  98.1572590
 144.4947820  64.6117810  97.8637310 147.8154190  64.1167990  87.7679560
 147.5891770  63.3998430  88.3604200 147.4250390  63.8680430  86.9301310
 145.7436090  64.6314270 101.2476480 146.0792330  65.2180960 101.9254400
 144.8236430  64.5006980 101.4774270 133.5970220  68.1434850  88.5424020
 133.9567860  68.7424190  87.8881290 133.4562560  68.6894740  89.3159050
 133.2939490  52.4209450 102.0299890 132.5798010  52.6206370 102.6352500
 133.7134530  51.6449020 102.4014690 147.3970440  62.0339930  89.4293720
 147.1092140  62.4952620  90.2171600 148.1922610  61.5737700  89.6977940
 141.5724670  64.6805600 104.4164540 141.2521540  63.9614840 104.9610230
 140.8983030  65.3560670 104.4900600 139.6138840  65.5266050  89.3597690
 139.6048940  66.2595740  88.7442200 138.6937200  65.2797630  89.4524650
 135.2145480  60.7480940  90.1044450 134.6073430  61.4879840  90.1139750
 135.6894830  60.8380300  89.2782650 144.7878270  54.9131760  99.7801340
 145.1559090  54.0926970 100.1080910 143.9276470  54.9733650 100.1956990
 148.1540300  53.8688700  90.5888900 147.5253460  53.9734370  89.8747130
 147.6592220  54.0885480  91.3782780 142.5998440  65.5894290  88.0222880
 142.7010420  65.3858280  87.0924860 141.7000180  65.3352570  88.2270660
 140.1224330  56.1474650  92.0046780 139.4140480  56.6160990  92.4460390
 140.4068810  55.4896660  92.6391970 141.7480260  57.5671350 100.0039310
 142.2465510  58.0417170 100.6691160 141.8903210  56.6434870 100.2109340
 144.1539760  52.8725310  93.4442570 144.0307540  52.8911440  92.4952080
 145.1024320  52.9204250  93.5640970 141.2416550  68.1080610  92.7170550
 141.4958050  68.0702000  91.7949920 140.2929030  67.9813940  92.7098800
 138.3259350  54.4559730  89.3797490 139.1749880  54.8929880  89.3137680
 137.9590620  54.7679990  90.2069550 148.9547120  53.7839310 100.8467700
 148.4520720  54.5244710 101.1861510 149.7703780  54.1723310 100.5304490
 147.2469130  59.0272490  94.2929060 146.3059270  59.0422720  94.4676750
 147.5613200  58.2408450  94.7389360 149.2494710  66.1981340  95.9683320
 149.3742130  67.0212510  96.4407130 150.1160270  65.9872070  95.6207470
 136.7212240  68.2912550  95.6400450 137.4574720  67.7428010  95.9109020
 137.1053160  69.1568560  95.5006440 133.6057720  64.3586120  91.5141960
 132.6797500  64.6007260  91.5047370 134.0714150  65.1860380  91.3926710
 139.8314550  67.4642860  87.4626020 140.6243160  67.7531690  87.0107810
 139.3118900  67.0335030  86.7838500 144.5635150  63.5838490 104.7761440
 143.9573310  63.6070090 104.0357190 144.2589260  62.8521530 105.3128690
 145.9935520  67.3118780 103.3870850 146.9457270  67.2276800 103.3371090
 145.8463740  67.9760490 104.0604640 148.8844720  66.6912990  88.8862760
 148.5986230  66.2778130  88.0716940 148.6864270  67.6200700  88.7663280
 133.4468330  59.9632080 103.7722080 133.9507350  59.3839360 104.3438310
 132.7075750  60.2472310 104.3098450 140.3491950  62.6846270  87.3268370
 140.2442590  62.0698620  88.0529750 140.1816170  62.1612160  86.5431380
 140.5006270  61.3703070 103.3057600 139.7351940  61.9388070 103.2212270
 140.6822230  61.0779280 102.4125830 143.5894680  61.7466300  87.9310360
 143.0404780  62.1935600  88.5753100 144.2113940  61.2415550  88.4548030
 147.6429620  63.1008400 103.8632620 148.3839090  63.4384160 103.3600080
 146.8802300  63.2700460 103.3102390 135.4791410  58.1061670 104.6672150
 135.5196750  57.8075540 105.5757380 136.3336910  58.5069280 104.5079670
 139.2569800  60.7057220  89.8275660 139.6786220  60.5397090  90.6707050
 139.3820640  59.8957450  89.3330800 137.4197220  56.6853770 102.6346640
 136.8893680  56.1944720 102.0069980 138.0885290  57.1137970 102.1004570
 141.7697440  59.7294830  87.0752760 142.2903100  59.0143850  86.7093910
 142.4165840  60.3680700  87.3753270 146.3175280  61.1523230 102.3987830
 146.7316300  61.3068310 103.2478250 145.3826280  61.2778450 102.5613610
 146.7897450  58.4919390 104.4026980 147.3718220  57.7371710 104.3147460
 146.9659220  59.0226830 103.6258460 137.9069520  53.6516140 102.7143930
 137.8126390  53.0336890 101.9894800 137.3266910  54.3782430 102.4873840
 140.6730960  52.2089380  99.7471320 140.2248260  52.2313640  98.9016870
 140.0396160  51.8108400 100.3441620 141.0790510  61.1043710 100.3683760
 141.4978620  61.9476440 100.1960000 140.1599140  61.2415750 100.1390540
 143.4154410  58.8359890 101.7521600 143.5350620  58.2401030 102.4916440
 144.2748410  58.8729580 101.3322900 145.7542310  59.3897080 100.3284110
 145.2277530  59.9139700  99.7249250 146.0973650  60.0224470 100.9593840
 138.9297930  67.4096720 101.4841490 138.3919020  68.1342780 101.1650190
 139.1831890  66.9327060 100.6938830 140.1823180  55.3781240 103.0097420
 140.7722870  55.0697090 103.6975240 139.3643420  54.9060990 103.1657320
 145.0016610  54.9947050 103.2430440 144.3132130  54.3328590 103.1780430
 145.7222630  54.5485320 103.6878900 145.6317010  51.5898680  89.3020700
 145.9119300  50.7466580  89.6580120 144.8582740  51.8221790  89.8159450
 141.7860140  68.6447930 101.7428140 141.7118840  69.5483070 102.0500510
 140.8838980  68.3259830 101.7150210 140.1696430  52.8225690  87.7467900
 139.8218430  52.1449680  87.1670350 140.3709200  52.3615200  88.5611290
 142.3345470  67.8106440  89.3654500 143.2296260  68.1491410  89.3873260
 142.3663100  67.0885850  88.7378780 135.9741630  63.1833490  87.5941500
 136.4116500  63.7263160  88.2499080 136.4589360  62.3580440  87.6037840
 133.1887430  65.9722520  95.0461760 133.5190440  65.1043580  94.8140400
 133.6178430  66.1781040  95.8766720 137.7849350  64.3031530  92.7063730
 137.4844890  64.1796500  93.6067640 137.6786840  63.4440120  92.2979460
 133.6777640  66.8393110  97.7843390 133.2408630  67.0193910  98.6167540
 134.2455320  67.5967730  97.6425110 149.3139820  66.3410110 102.0720700
 148.7141810  66.4002670 101.3284620 149.4433720  65.4015090 102.2017550
 133.5102070  59.3513340  94.1432270 132.8550910  59.0824980  93.4991970
 134.3480020  59.2417820  93.6934250 147.9991460  63.0662090 100.1696860
 147.1851300  63.4959250 100.4322650 148.4065660  63.6780500  99.5565910
 150.0616900  61.1209780  87.0697130 150.3365740  62.0288660  86.9416350
 149.8727640  61.0572310  88.0059120 146.4592510  54.1454630  88.3650760
 146.8777390  53.9585610  87.5247420 146.1528570  53.2933680  88.6753690
 149.9582240  59.0578770  92.0626560 149.5825840  58.2906700  91.6307850
 149.2285360  59.4401470  92.5501490 134.5478000  59.7365910  98.6835610
 134.9151040  59.6493310  99.5631630 133.9788820  58.9732460  98.5842470
 149.3481860  58.2050290 101.6966080 149.1167950  57.9763040 100.7964030
 149.6086410  59.1249840 101.6510970 134.0994000  56.6475000 102.5894030
 133.2050050  56.6141760 102.9287740 134.6391550  56.8461790 103.3545280
 147.7869930  53.4306720 104.4745780 148.6640110  53.4390120 104.8579780
 147.7990770  52.6937560 103.8638130 149.2333200  57.2836260  95.3633800
 149.7570680  56.7898910  94.7323970 149.8192620  57.4186620  96.1081370
 149.4122920  57.3676130  98.8853350 148.4625630  57.3339670  98.9998340
 149.5935930  58.2776240  98.6503120 134.9141520  51.6717140  87.0354630
 135.6369650  52.2126080  87.3535850 135.1866040  51.3980560  86.1596170
 148.7233170  56.5409610  91.3026210 149.2192290  56.3080480  92.0875090
 148.5249240  55.7021450  90.8863850 134.6033710  50.9223330  96.9377250
 135.2509900  50.3720710  96.4972410 135.0235550  51.1766480  97.7593060
 148.4986050  51.1164690 100.2946890 149.1358270  51.7298830 100.6606080
 148.6460940  51.1525350  99.3496120 148.0567510  67.8180690  93.6965130
 148.6526580  67.4965260  93.0199550 148.3145660  67.3452510  94.4878400
 134.3565710  51.0779000  99.6802570 134.0080530  51.5342820 100.4460750
 134.0253410  50.1836130  99.7625000 135.9630080  64.2498600 103.8455760
 135.9199710  63.8791510 104.7270220 136.0941090  65.1876170 103.9857580
 139.6636110  65.8058190  99.4465480 139.4227470  66.0732750  98.5596000
 140.6038750  65.9763920  99.5016340 141.8690530  52.2690880 103.2021990
 141.8079420  52.8612710 103.9517400 142.8090910  52.1616840 103.0572250
 144.5065090  51.9260940 102.8414280 145.1205500  52.2440230 102.1795360
 145.0514650  51.4409530 103.4610140 135.0286350  50.6055200 102.9553340
 135.5769340  50.4243250 102.1919450 135.0941660  49.8149310 103.4909650
 145.2473130  50.4893080  99.1683570 144.3732970  50.8228190  98.9656500
 145.1383880  50.0166260  99.9935440 146.1545110  52.6963950 100.5525290
 145.8258470  51.8815710 100.1727020 147.1027410  52.6533760 100.4290980
 148.6079720  68.4675990  97.5262860 148.1482690  69.2191800  97.1520880
 147.9792180  67.7482460  97.4677660 135.4330340  64.5619230  99.9161580
 134.7064400  63.9424520  99.8487530 135.4939490  64.9559840  99.0459660
 139.0375440  66.7764230  96.7010990 139.5540460  66.1651590  96.1759250
 139.6872820  67.2793010  97.1922000 141.7770940  67.6672720  97.5279970
 142.0648750  67.4127020  96.6512980 142.2894160  67.1150080  98.1185540
 142.9947950  51.4062920  98.1076480 142.2119740  51.8808420  98.3873240
 142.7010880  50.5017750  97.9989660 147.5469020  52.1086020  96.1525570
 147.9877110  52.0531120  95.3047170 147.2776610  53.0244030  96.2235750
 149.4107590  51.7401260  94.1634390 149.3495990  50.7962480  94.0165410
 150.1899620  51.8481350  94.7087850 133.7160340  67.8793620  93.1258340
 133.5482380  67.2464300  93.8240230 132.8494850  68.0853020  92.7752530
 134.3388360  51.7110400  90.6290200 135.0967720  51.8239280  90.0554230
 133.8765530  52.5479600  90.5833630 140.8802170  53.8249670  93.6192510
 140.0676680  53.4506560  93.2788390 141.3843810  53.0694750  93.9213700
 145.3827150  50.4892120  94.8575580 145.9856520  51.0612330  95.3324100
 144.6420140  51.0531560  94.6349480 148.5261750  50.8913680  90.1315860
 148.7212380  51.7897130  90.3983290 147.7391620  50.6600760  90.6248810
 135.3223040  66.5726850  90.5708480 134.7970660  66.9534880  89.8670440
 135.2467620  67.1977620  91.2918190 136.7113510  52.2374450  89.1692170
 137.2406270  51.4504250  89.0400120 137.3441830  52.9165640  89.4027700
 138.9051350  51.9749590  92.2237560 138.2754090  51.2736900  92.3907690
 138.3656490  52.7353720  92.0070720 141.8443300  68.5888820 104.8948170
 142.7710610  68.3533090 104.9384130 141.8293730  69.4160820 104.4134200
 150.0788360  68.1314390  91.8922420 150.2540550  67.4452130  91.2483340
 149.3809930  68.6561440  91.4999090 139.0306910  51.2533570 104.6590050
 138.7491180  51.7567170 103.8950870 139.4126610  50.4555320 104.2932180
 137.9216010  68.5209230  89.4457730 138.6534830  68.2368510  88.8981620
 138.1809680  68.2822510  90.3357110 137.0830800  64.6373960  89.4504060
 136.4539680  65.1059060  89.9989890 137.1978630  63.7923180  89.8850250
 145.6322370  50.6687150 105.2370520 145.5187820  50.9881760 106.1322040
 146.4492110  51.0699660 104.9407800 148.4120860  67.8158680 104.7189210
 149.2046180  67.3207910 104.5115170 148.7054010  68.4948820 105.3264820
 144.5380520  58.6879620  75.6005260 144.4574570  57.7734230  75.3296970
 144.1244940  59.1846690  74.8944970 142.6698560  60.4658640  77.4814530
 141.8940660  59.9859080  77.7713100 143.3211490  59.7864290  77.3070690
 146.6905990  64.8718830  76.2613660 146.2287520  64.1006070  76.5900830
 147.5031540  64.8984900  76.7666110 142.9169300  67.1576840  75.8817650
 142.2980740  67.6134340  75.3112090 143.7721080  67.3128300  75.4807350
 142.1107550  63.1415830  77.4884690 142.0415830  62.2005770  77.3273820
 142.8727410  63.2317240  78.0607260 143.1412720  55.9486210  77.7153620
 143.5177540  55.0758090  77.6027290 143.0432230  56.2844910  76.8244060
 137.2717730  54.3211840  73.1771060 137.3784480  55.2215570  73.4839820
 136.3610090  54.2729810  72.8865710 146.9236840  53.4436650  74.6481960
 147.7446460  52.9533220  74.6907440 146.9570920  54.0334310  75.4013800
 137.3961560  51.9296770  81.7759660 137.3980000  52.4469160  80.9705560
 136.5665870  51.4526950  81.7529590 143.7832650  62.0416080  73.2749560
 143.1649920  62.5065530  72.7112280 144.2955900  62.7343560  73.6919070
 138.6464410  61.5691950  79.9533160 138.3133790  62.1960870  80.5954230
 138.8231090  62.0953830  79.1734830 147.1598320  55.3837030  77.4209500
 146.4553890  55.6721920  78.0012610 147.5210480  56.1937140  77.0609060
 137.0776890  53.6406730  79.7830110 137.4193700  54.4848780  79.4883980
 136.1392700  53.7890470  79.8995450 133.1515850  62.7272610  70.6489190
 132.7743830  63.2159710  69.9174090 133.4088920  63.3997890  71.2795720
 148.7761100  65.0012160  79.6836980 148.0924620  65.6711270  79.6753650
 149.3155390  65.1992810  78.9181840 140.7604780  51.1289000  76.1074700
 141.0679760  50.5735890  75.3910200 139.8305480  51.2633460  75.9247690
 146.3119840  66.8456290  78.3982160 146.3247000  66.4418580  77.5304420
 145.7595060  67.6203580  78.2943590 147.6065260  63.5672510  73.4872330
 147.4961590  62.6246840  73.6121750 147.6033510  63.9288150  74.3735090
 145.7105280  61.7486130  79.7264770 146.1274070  61.5346240  78.8918230
 146.4345100  62.0058920  80.2973390 143.1485540  59.1937830  72.8434820
 142.2214820  59.1275210  73.0723290 143.3010360  60.1317960  72.7290060
 143.1354620  55.4654830  69.8401980 142.1958290  55.6268790  69.9254440
 143.4537880  56.1840510  69.2937970 149.6567380  60.1473350  79.8181010
 148.8286010  60.2166440  79.3431140 150.2517860  60.7327660  79.3496840
 147.1782830  60.7558130  73.3470070 146.5595250  60.4177680  72.6996370
 147.1607280  60.1117890  74.0549260 146.6209390  56.9342670  80.7635880
 146.2080570  57.7596380  81.0175870 145.8885340  56.3487710  80.5712240
 139.2223880  63.4070130  77.7893760 138.9252170  62.8015600  77.1101540
 140.1723700  63.4447440  77.6783120 147.3109490  66.9802000  81.4516860
 146.8340050  67.7874190  81.2589470 146.6271280  66.3280330  81.6043070
 138.3142310  63.1451820  84.4401560 137.4170840  63.3691790  84.6874960
 138.3395180  63.2686760  83.4912960 145.3547530  59.9944940  70.3542820
 145.7940810  59.1567370  70.2080640 146.0675950  60.6274340  70.4406960
 143.4642910  64.9341010  74.3224060 143.9038820  65.6765340  73.9079450
 143.4029800  65.1767580  75.2463020 148.9364670  51.2487750  68.6683860
 148.6237330  51.3414580  69.5682930 149.6977140  51.8268780  68.6181290
 150.2941950  63.9326790  83.6808260 150.4205010  63.6938670  82.7625440
 150.3363330  63.1011330  84.1530340 144.1558690  67.6354790  82.2503070
 144.6703360  67.5462800  83.0525500 143.3127770  67.9814490  82.5430980
 146.1313090  67.9210130  71.6787070 145.9714230  67.6313070  72.5768900
 145.9659800  67.1450260  71.1432300 145.8339220  65.4297690  70.2385070
 145.1404380  65.4274980  69.5787350 146.5762080  65.0057010  69.8079240
 145.3989150  67.0560400  74.3133560 145.8546100  66.2749780  74.6272180
 145.7381670  67.7667220  74.8574740 150.1465960  55.9859250  84.6458000
 149.5310230  56.4938920  84.1173460 149.8262380  55.0857580  84.5883940
 137.9210470  51.9582620  76.5084870 137.4778620  52.7392160  76.1769390
 138.4795460  52.2812510  77.2155810 142.2080280  54.8251140  82.1120190
 141.7459650  55.0334160  82.9240130 141.8058390  54.0110490  81.8090860
 147.2084790  56.0460090  83.2416850 146.3578380  55.7465840  83.5625920
 147.0486580  56.2902100  82.3300670 144.3034500  57.5461840  85.3415640
 144.6287910  56.7125590  85.0017870 145.0914830  58.0690360  85.4893970
 141.0369290  51.5793320  71.3890700 140.4123470  51.5753190  72.1144010
 140.9499410  50.7124280  70.9926670 139.9586370  52.5029950  78.3674470
 140.2558700  53.4092780  78.2866490 140.5071930  52.0148730  77.7534040
 144.9422450  57.0879560  72.8356770 144.3431340  57.8115360  72.6520390
 145.4902060  57.0256340  72.0533220 143.5487320  55.7243100  74.8660050
 143.9416890  56.0415300  74.0528740 143.9104170  54.8454980  74.9804570
 141.8579490  54.4750410  86.1256910 141.1677810  54.2822610  86.7603000
 142.6011790  54.7585050  86.6581210 132.5851490  52.3143900  77.0890250
 132.2964540  52.8846760  77.8015230 133.3297250  51.8348350  77.4521480
 144.1342460  58.3148850  78.9610830 143.4023580  58.8235660  79.3100930
 143.7366800  57.4978830  78.6599610 140.5719850  54.9903050  77.3663320
 140.5755910  54.5493000  76.5167860 141.4670970  55.3120380  77.4735140
 140.6340000  55.9915130  70.3570080 140.7552820  55.9501610  71.3055900
 140.2488510  56.8539280  70.2016810 144.5968370  53.7682530  78.3733770
 144.6141110  54.2191180  79.2175620 144.3483950  52.8688170  78.5867210
 139.6461500  58.3016270  69.7553380 139.0778400  57.8534520  69.1289290
 140.3550500  58.6609050  69.2218530 148.0239120  51.1814710  84.2120150
 148.3484890  50.4504370  84.7378130 148.0595630  50.8628350  83.3101140
 140.8727820  59.0504830  79.1128730 141.2397950  58.5763400  79.8590070
 140.6832880  59.9246400  79.4537070 133.7368310  53.7948520  75.2422200
 133.4515230  53.4304190  76.0800820 133.6747170  53.0628980  74.6285340
 138.6627190  58.0913470  81.4312940 138.3584260  58.9705450  81.6563300
 139.6173650  58.1513260  81.4670380 137.1908980  62.2974460  72.0279790
 136.4171240  61.7572080  71.8678510 137.9203610  61.7781070  71.6897550
 147.9496960  61.2939820  77.8206180 148.6696080  61.7895110  77.4302290
 147.7478780  60.6157710  77.1760050 143.4106900  52.6877780  71.9635570
 142.5971510  52.1890950  71.8880880 143.2168850  53.5276030  71.5471920
 143.3315760  61.3648880  83.7075180 143.2653070  60.4444550  83.4532770
 142.7020900  61.4624320  84.4219820 146.1255290  57.0597430  70.2597730
 147.0134910  57.3714660  70.0849070 146.0960380  56.1869680  69.8678310
 142.1215880  63.2321120  70.9385900 142.4631580  63.9763350  70.4429220
 141.2928590  63.5452240  71.3010730 143.2632490  64.1869450  83.4578980
 143.2777030  63.2550410  83.2397890 142.5557590  64.2729210  84.0968750
 148.3969560  58.3709270  69.7277590 148.3133280  58.8023490  68.8774030
 149.1163750  58.8307620  70.1604410 149.4743700  60.8276790  82.8047560
 148.7491890  61.4205570  82.6076950 150.0019160  60.8200330  82.0060930
 149.4256810  65.2251530  72.4559720 148.7832970  64.5707150  72.7303440
 149.0387470  65.6306620  71.6800390 145.0043290  62.5536960  76.3031410
 145.3567110  61.9565090  75.6432780 144.1205620  62.2281190  76.4739660
 141.0906570  63.3134650  73.7101820 141.7777700  63.8603860  74.0909410
 140.3038990  63.8575380  73.7451430 140.3933780  60.3180680  73.3227180
 140.8496560  61.1285930  73.5487370 140.0421990  60.0003820  74.1545670
 142.6966390  65.8287020  80.5519480 143.3408610  66.0346400  81.2292900
 143.0595830  65.0675420  80.0990330 136.2945560  50.6618330  73.7949700
 136.1660190  50.6536230  74.7434620 135.4707580  51.0001420  73.4440710
 143.9698470  63.8319370  79.2696930 144.6120700  63.1312530  79.3829100
 144.4947820  64.6117810  79.0893820 147.8154190  64.1167990  68.9936070
 147.5891770  63.3998430  69.5860710 147.4250390  63.8680430  68.1557820
 145.7436090  64.6314270  82.4732990 146.0792330  65.2180960  83.1510910
 144.8236430  64.5006980  82.7030780 133.2939490  52.4209450  83.2556400
 132.5798010  52.6206370  83.8609010 133.7134530  51.6449020  83.6271200
 147.3970440  62.0339930  70.6550230 147.1092140  62.4952620  71.4428110
 148.1922610  61.5737700  70.9234450 141.5724670  64.6805600  85.6421050
 141.2521540  63.9614840  86.1866740 140.8983030  65.3560670  85.7157110
 139.6138840  65.5266050  70.5854200 139.6048940  66.2595740  69.9698710
 138.6937200  65.2797630  70.6781160 144.7878270  54.9131760  81.0057850
 145.1559090  54.0926970  81.3337420 143.9276470  54.9733650  81.4213500
 148.1540300  53.8688700  71.8145410 147.5253460  53.9734370  71.1003640
 147.6592220  54.0885480  72.6039290 142.5998440  65.5894290  69.2479390
 142.7010420  65.3858280  68.3181370 141.7000180  65.3352570  69.4527170
 140.1224330  56.1474650  73.2303290 139.4140480  56.6160990  73.6716900
 140.4068810  55.4896660  73.8648480 141.7480260  57.5671350  81.2295820
 142.2465510  58.0417170  81.8947670 141.8903210  56.6434870  81.4365850
 144.1539760  52.8725310  74.6699080 144.0307540  52.8911440  73.7208590
 145.1024320  52.9204250  74.7897480 141.2416550  68.1080610  73.9427060
 141.4958050  68.0702000  73.0206430 140.2929030  67.9813940  73.9355310
 138.3259350  54.4559730  70.6054000 139.1749880  54.8929880  70.5394190
 137.9590620  54.7679990  71.4326060 148.9547120  53.7839310  82.0724210
 148.4520720  54.5244710  82.4118020 149.7703780  54.1723310  81.7561000
 147.2469130  59.0272490  75.5185570 146.3059270  59.0422720  75.6933260
 147.5613200  58.2408450  75.9645870 137.2250770  60.7092090  69.0789530
 137.9914040  60.5973450  69.6414960 137.3025460  60.0130060  68.4266300
 149.2494710  66.1981340  77.1939830 149.3742130  67.0212510  77.6663640
 150.1160270  65.9872070  76.8463980 139.8314550  67.4642860  68.6882530
 140.6243160  67.7531690  68.2364320 139.3118900  67.0335030  68.0095010
 144.5635150  63.5838490  86.0017950 143.9573310  63.6070090  85.2613700
 144.2589260  62.8521530  86.5385200 145.9935520  67.3118780  84.6127360
 146.9457270  67.2276800  84.5627600 145.8463740  67.9760490  85.2861150
 148.8844720  66.6912990  70.1119270 148.5986230  66.2778130  69.2973450
 148.6864270  67.6200700  69.9919790 140.3491950  62.6846270  68.5524880
 140.2442590  62.0698620  69.2786260 140.1816170  62.1612160  67.7687890
 140.5006270  61.3703070  84.5314110 139.7351940  61.9388070  84.4468780
 140.6822230  61.0779280  83.6382340 143.5894680  61.7466300  69.1566870
 143.0404780  62.1935600  69.8009610 144.2113940  61.2415550  69.6804540
 147.6429620  63.1008400  85.0889130 148.3839090  63.4384160  84.5856590
 146.8802300  63.2700460  84.5358900 139.2569800  60.7057220  71.0532170
 139.6786220  60.5397090  71.8963560 139.3820640  59.8957450  70.5587310
 141.7697440  59.7294830  68.3009270 142.2903100  59.0143850  67.9350420
 142.4165840  60.3680700  68.6009780 146.3175280  61.1523230  83.6244340
 146.7316300  61.3068310  84.4734760 145.3826280  61.2778450  83.7870120
 146.7897450  58.4919390  85.6283490 147.3718220  57.7371710  85.5403970
 146.9659220  59.0226830  84.8514970 140.6730960  52.2089380  80.9727830
 140.2248260  52.2313640  80.1273380 140.0396160  51.8108400  81.5698130
 141.0790510  61.1043710  81.5940270 141.4978620  61.9476440  81.4216510
 140.1599140  61.2415750  81.3647050 143.4154410  58.8359890  82.9778110
 143.5350620  58.2401030  83.7172950 144.2748410  58.8729580  82.5579410
 145.7542310  59.3897080  81.5540620 145.2277530  59.9139700  80.9505760
 146.0973650  60.0224470  82.1850350 140.1823180  55.3781240  84.2353930
 140.7722870  55.0697090  84.9231750 139.3643420  54.9060990  84.3913830
 145.0016610  54.9947050  84.4686950 144.3132130  54.3328590  84.4036940
 145.7222630  54.5485320  84.9135410 145.6317010  51.5898680  70.5277210
 145.9119300  50.7466580  70.8836630 144.8582740  51.8221790  71.0415960
 136.9511500  53.8791070  67.9868210 137.2537400  53.8858500  67.0787360
 137.6906090  53.5288930  68.4835870 141.7860140  68.6447930  82.9684650
 141.7118840  69.5483070  83.2757020 140.8838980  68.3259830  82.9406720
 140.1696430  52.8225690  68.9724410 139.8218430  52.1449680  68.3926860
 140.3709200  52.3615200  69.7867800 142.3345470  67.8106440  70.5911010
 143.2296260  68.1491410  70.6129770 142.3663100  67.0885850  69.9635290
 135.9741630  63.1833490  68.8198010 136.4116500  63.7263160  69.4755590
 136.4589360  62.3580440  68.8294350 137.7849350  64.3031530  73.9320240
 137.4844890  64.1796500  74.8324150 137.6786840  63.4440120  73.5235970
 149.3139820  66.3410110  83.2977210 148.7141810  66.4002670  82.5541130
 149.4433720  65.4015090  83.4274060 147.9991460  63.0662090  81.3953370
 147.1851300  63.4959250  81.6579160 148.4065660  63.6780500  80.7822420
 150.0616900  61.1209780  68.2953640 150.3365740  62.0288660  68.1672860
 149.8727640  61.0572310  69.2315630 146.4592510  54.1454630  69.5907270
 146.8777390  53.9585610  68.7503930 146.1528570  53.2933680  69.9010200
 149.9582240  59.0578770  73.2883070 149.5825840  58.2906700  72.8564360
 149.2285360  59.4401470  73.7758000 149.3481860  58.2050290  82.9222590
 149.1167950  57.9763040  82.0220540 149.6086410  59.1249840  82.8767480
 147.7869930  53.4306720  85.7002290 148.6640110  53.4390120  86.0836290
 147.7990770  52.6937560  85.0894640 149.2333200  57.2836260  76.5890310
 149.7570680  56.7898910  75.9580480 149.8192620  57.4186620  77.3337880
 149.4122920  57.3676130  80.1109860 148.4625630  57.3339670  80.2254850
 149.5935930  58.2776240  79.8759630 134.9141520  51.6717140  68.2611140
 135.6369650  52.2126080  68.5792360 135.1866040  51.3980560  67.3852680
 148.7233170  56.5409610  72.5282720 149.2192290  56.3080480  73.3131600
 148.5249240  55.7021450  72.1120360 134.6033710  50.9223330  78.1633760
 135.2509900  50.3720710  77.7228920 135.0235550  51.1766480  78.9849570
 148.4986050  51.1164690  81.5203400 149.1358270  51.7298830  81.8862590
 148.6460940  51.1525350  80.5752630 148.0567510  67.8180690  74.9221640
 148.6526580  67.4965260  74.2456060 148.3145660  67.3452510  75.7134910
 134.3565710  51.0779000  80.9059080 134.0080530  51.5342820  81.6717260
 134.0253410  50.1836130  80.9881510 139.6636110  65.8058190  80.6721990
 139.4227470  66.0732750  79.7852510 140.6038750  65.9763920  80.7272850
 141.8690530  52.2690880  84.4278500 141.8079420  52.8612710  85.1773910
 142.8090910  52.1616840  84.2828760 144.5065090  51.9260940  84.0670790
 145.1205500  52.2440230  83.4051870 145.0514650  51.4409530  84.6866650
 135.0286350  50.6055200  84.1809850 135.5769340  50.4243250  83.4175960
 135.0941660  49.8149310  84.7166160 145.2473130  50.4893080  80.3940080
 144.3732970  50.8228190  80.1913010 145.1383880  50.0166260  81.2191950
 146.1545110  52.6963950  81.7781800 145.8258470  51.8815710  81.3983530
 147.1027410  52.6533760  81.6547490 148.6079720  68.4675990  78.7519370
 148.1482690  69.2191800  78.3777390 147.9792180  67.7482460  78.6934170
 139.0375440  66.7764230  77.9267500 139.5540460  66.1651590  77.4015760
 139.6872820  67.2793010  78.4178510 141.7770940  67.6672720  78.7536480
 142.0648750  67.4127020  77.8769490 142.2894160  67.1150080  79.3442050
 142.9947950  51.4062920  79.3332990 142.2119740  51.8808420  79.6129750
 142.7010880  50.5017750  79.2246170 147.5469020  52.1086020  77.3782080
 147.9877110  52.0531120  76.5303680 147.2776610  53.0244030  77.4492260
 149.4107590  51.7401260  75.3890900 149.3495990  50.7962480  75.2421920
 150.1899620  51.8481350  75.9344360 133.7160340  67.8793620  74.3514850
 133.5482380  67.2464300  75.0496740 132.8494850  68.0853020  74.0009040
 134.3388360  51.7110400  71.8546710 135.0967720  51.8239280  71.2810740
 133.8765530  52.5479600  71.8090140 140.8802170  53.8249670  74.8449020
 140.0676680  53.4506560  74.5044900 141.3843810  53.0694750  75.1470210
 145.3827150  50.4892120  76.0832090 145.9856520  51.0612330  76.5580610
 144.6420140  51.0531560  75.8605990 148.5261750  50.8913680  71.3572370
 148.7212380  51.7897130  71.6239800 147.7391620  50.6600760  71.8505320
 135.3223040  66.5726850  71.7964990 134.7970660  66.9534880  71.0926950
 135.2467620  67.1977620  72.5174700 136.7113510  52.2374450  70.3948680
 137.2406270  51.4504250  70.2656630 137.3441830  52.9165640  70.6284210
 138.9051350  51.9749590  73.4494070 138.2754090  51.2736900  73.6164200
 138.3656490  52.7353720  73.2327230 141.8443300  68.5888820  86.1204680
 142.7710610  68.3533090  86.1640640 141.8293730  69.4160820  85.6390710
 150.0788360  68.1314390  73.1178930 150.2540550  67.4452130  72.4739850
 149.3809930  68.6561440  72.7255600 139.0306910  51.2533570  85.8846560
 138.7491180  51.7567170  85.1207380 139.4126610  50.4555320  85.5188690
 137.0830800  64.6373960  70.6760570 136.4539680  65.1059060  71.2246400
 137.1978630  63.7923180  71.1106760 145.6322370  50.6687150  86.4627030
 145.5187820  50.9881760  87.3578550 146.4492110  51.0699660  86.1664310
 148.4120860  67.8158680  85.9445720 149.2046180  67.3207910  85.7371680
 148.7054010  68.4948820  86.5521330 144.5380520  58.6879620  56.8261770
 144.4574570  57.7734230  56.5553480 144.1244940  59.1846690  56.1201480
 142.6698560  60.4658640  58.7071040 141.8940660  59.9859080  58.9969610
 143.3211490  59.7864290  58.5327200 146.6905990  64.8718830  57.4870170
 146.2287520  64.1006070  57.8157340 147.5031540  64.8984900  57.9922620
 135.0956340  55.7380340  53.3689190 134.2073040  56.0796310  53.2669070
 135.3797530  55.5380660  52.4770020 133.0589350  58.3385990  59.2528890
 133.6305460  57.5708190  59.2532530 133.0590890  58.6374750  58.3435500
 142.9169300  67.1576840  57.1074160 142.2980740  67.6134340  56.5368600
 143.7721080  67.3128300  56.7063860 142.1107550  63.1415830  58.7141200
 142.0415830  62.2005770  58.5530330 142.8727410  63.2317240  59.2863770
 143.1412720  55.9486210  58.9410130 143.5177540  55.0758090  58.8283800
 143.0432230  56.2844910  58.0500570 137.2717730  54.3211840  54.4027570
 137.3784480  55.2215570  54.7096330 136.3610090  54.2729810  54.1122220
 146.9236840  53.4436650  55.8738470 147.7446460  52.9533220  55.9163950
 146.9570920  54.0334310  56.6270310 139.1125460  57.2898210  58.7352750
 139.6203680  57.7879180  59.3757770 139.6438700  56.5133410  58.5592110
 137.3961560  51.9296770  63.0016170 137.3980000  52.4469160  62.1962070
 136.5665870  51.4526950  62.9786100 143.7832650  62.0416080  54.5006070
 143.1649920  62.5065530  53.9368790 144.2955900  62.7343560  54.9175580
 138.6464410  61.5691950  61.1789670 138.3133790  62.1960870  61.8210740
 138.8231090  62.0953830  60.3991340 147.1598320  55.3837030  58.6466010
 146.4553890  55.6721920  59.2269120 147.5210480  56.1937140  58.2865570
 137.8583510  63.5372750  62.9938850 138.4757510  64.2123830  62.7123300
 136.9976630  63.9460730  62.9026350 148.7761100  65.0012160  60.9093490
 148.0924620  65.6711270  60.9010160 149.3155390  65.1992810  60.1438350
 140.7604780  51.1289000  57.3331210 141.0679760  50.5735890  56.6166710
 139.8305480  51.2633460  57.1504200 146.3119840  66.8456290  59.6238670
 146.3247000  66.4418580  58.7560930 145.7595060  67.6203580  59.5200100
 147.6065260  63.5672510  54.7128840 147.4961590  62.6246840  54.8378260
 147.6033510  63.9288150  55.5991600 145.7105280  61.7486130  60.9521280
 146.1274070  61.5346240  60.1174740 146.4345100  62.0058920  61.5229900
 143.1485540  59.1937830  54.0691330 142.2214820  59.1275210  54.2979800
 143.3010360  60.1317960  53.9546570 143.1354620  55.4654830  51.0658490
 142.1958290  55.6268790  51.1510950 143.4537880  56.1840510  50.5194480
 149.6567380  60.1473350  61.0437520 148.8286010  60.2166440  60.5687650
 150.2517860  60.7327660  60.5753350 147.1782830  60.7558130  54.5726580
 146.5595250  60.4177680  53.9252880 147.1607280  60.1117890  55.2805770
 146.6209390  56.9342670  61.9892390 146.2080570  57.7596380  62.2432380
 145.8885340  56.3487710  61.7968750 138.7542180  59.7202570  56.8511060
 138.3499180  59.0079820  56.3556960 138.8405300  59.3755810  57.7399100
 139.2223880  63.4070130  59.0150270 138.9252170  62.8015600  58.3358050
 140.1723700  63.4447440  58.9039630 147.3109490  66.9802000  62.6773370
 146.8340050  67.7874190  62.4845980 146.6271280  66.3280330  62.8299580
 138.3142310  63.1451820  65.6658070 137.4170840  63.3691790  65.9131470
 138.3395180  63.2686760  64.7169470 145.3547530  59.9944940  51.5799330
 145.7940810  59.1567370  51.4337150 146.0675950  60.6274340  51.6663470
 143.4642910  64.9341010  55.5480570 143.9038820  65.6765340  55.1335960
 143.4029800  65.1767580  56.4719530 138.9393880  65.9586840  66.4500590
 138.9109310  66.3629790  65.5829020 138.7758850  65.0297200  66.2872190
 148.9364670  51.2487750  49.8940370 148.6237330  51.3414580  50.7939440
 149.6977140  51.8268780  49.8437800 135.4546810  58.6147550  54.3517710
 135.3344410  59.3409640  53.7398980 135.1447700  57.8450460  53.8745620
 150.2941950  63.9326790  64.9064770 150.4205010  63.6938670  63.9881950
 150.3363330  63.1011330  65.3786850 144.1558690  67.6354790  63.4759580
 144.6703360  67.5462800  64.2782010 143.3127770  67.9814490  63.7687490
 146.1313090  67.9210130  52.9043580 145.9714230  67.6313070  53.8025410
 145.9659800  67.1450260  52.3688810 145.8339220  65.4297690  51.4641580
 145.1404380  65.4274980  50.8043860 146.5762080  65.0057010  51.0335750
 145.3989150  67.0560400  55.5390070 145.8546100  66.2749780  55.8528690
 145.7381670  67.7667220  56.0831250 150.1465960  55.9859250  65.8714510
 149.5310230  56.4938920  65.3429970 149.8262380  55.0857580  65.8140450
 137.9210470  51.9582620  57.7341380 137.4778620  52.7392160  57.4025900
 138.4795460  52.2812510  58.4412320 142.2080280  54.8251140  63.3376700
 141.7459650  55.0334160  64.1496640 141.8058390  54.0110490  63.0347370
 147.2084790  56.0460090  64.4673360 146.3578380  55.7465840  64.7882430
 147.0486580  56.2902100  63.5557180 144.3034500  57.5461840  66.5672150
 144.6287910  56.7125590  66.2274380 145.0914830  58.0690360  66.7150480
 141.0369290  51.5793320  52.6147210 140.4123470  51.5753190  53.3400520
 140.9499410  50.7124280  52.2183180 139.9586370  52.5029950  59.5930980
 140.2558700  53.4092780  59.5123000 140.5071930  52.0148730  58.9790550
 137.7124690  57.0816190  55.4622630 137.4865610  56.8653360  56.3669250
 136.9317220  57.5144650  55.1168600 144.9422450  57.0879560  54.0613280
 144.3431340  57.8115360  53.8776900 145.4902060  57.0256340  53.2789730
 140.1523900  57.9801770  66.1282900 140.0567500  57.0396500  65.9783300
 140.9955880  58.2016840  65.7330970 143.5487320  55.7243100  56.0916560
 143.9416890  56.0415300  55.2785250 143.9104170  54.8454980  56.2061080
 141.8579490  54.4750410  67.3513420 141.1677810  54.2822610  67.9859510
 142.6011790  54.7585050  67.8837720 144.1342460  58.3148850  60.1867340
 143.4023580  58.8235660  60.5357440 143.7366800  57.4978830  59.8856120
 140.5719850  54.9903050  58.5919830 140.5755910  54.5493000  57.7424370
 141.4670970  55.3120380  58.6991650 136.4222230  54.8729540  57.5514040
 136.0822280  55.3504770  58.3081090 135.6599550  54.4194660  57.1915140
 140.6340000  55.9915130  51.5826590 140.7552820  55.9501610  52.5312410
 140.2488510  56.8539280  51.4273320 144.5968370  53.7682530  59.5990280
 144.6141110  54.2191180  60.4432130 144.3483950  52.8688170  59.8123720
 139.6461500  58.3016270  50.9809890 139.0778400  57.8534520  50.3545800
 140.3550500  58.6609050  50.4475040 148.0239120  51.1814710  65.4376660
 148.3484890  50.4504370  65.9634640 148.0595630  50.8628350  64.5357650
 140.8727820  59.0504830  60.3385240 141.2397950  58.5763400  61.0846580
 140.6832880  59.9246400  60.6793580 133.7368310  53.7948520  56.4678710
 133.4515230  53.4304190  57.3057330 133.6747170  53.0628980  55.8541850
 147.9496960  61.2939820  59.0462690 148.6696080  61.7895110  58.6558800
 147.7478780  60.6157710  58.4016560 143.4106900  52.6877780  53.1892080
 142.5971510  52.1890950  53.1137390 143.2168850  53.5276030  52.7728430
 143.3315760  61.3648880  64.9331690 143.2653070  60.4444550  64.6789280
 142.7020900  61.4624320  65.6476330 146.1255290  57.0597430  51.4854240
 147.0134910  57.3714660  51.3105580 146.0960380  56.1869680  51.0934820
 142.1215880  63.2321120  52.1642410 142.4631580  63.9763350  51.6685730
 141.2928590  63.5452240  52.5267240 143.2632490  64.1869450  64.6835490
 143.2777030  63.2550410  64.4654400 142.5557590  64.2729210  65.3225260
 148.3969560  58.3709270  50.9534100 148.3133280  58.8023490  50.1030540
 149.1163750  58.8307620  51.3860920 149.4743700  60.8276790  64.0304070
 148.7491890  61.4205570  63.8333460 150.0019160  60.8200330  63.2317440
 149.4256810  65.2251530  53.6816230 148.7832970  64.5707150  53.9559950
 149.0387470  65.6306620  52.9056900 145.0043290  62.5536960  57.5287920
 145.3567110  61.9565090  56.8689290 144.1205620  62.2281190  57.6996170
 141.0906570  63.3134650  54.9358330 141.7777700  63.8603860  55.3165920
 140.3038990  63.8575380  54.9707940 140.3933780  60.3180680  54.5483690
 140.8496560  61.1285930  54.7743880 140.0421990  60.0003820  55.3802180
 142.6966390  65.8287020  61.7775990 143.3408610  66.0346400  62.4549410
 143.0595830  65.0675420  61.3246840 136.2945560  50.6618330  55.0206210
 136.1660190  50.6536230  55.9691130 135.4707580  51.0001420  54.6697220
 143.9698470  63.8319370  60.4953440 144.6120700  63.1312530  60.6085610
 144.4947820  64.6117810  60.3150330 147.8154190  64.1167990  50.2192580
 147.5891770  63.3998430  50.8117220 147.4250390  63.8680430  49.3814330
 145.7436090  64.6314270  63.6989500 146.0792330  65.2180960  64.3767420
 144.8236430  64.5006980  63.9287290 133.2939490  52.4209450  64.4812910
 132.5798010  52.6206370  65.0865520 133.7134530  51.6449020  64.8527710
 147.3970440  62.0339930  51.8806740 147.1092140  62.4952620  52.6684620
 148.1922610  61.5737700  52.1490960 141.5724670  64.6805600  66.8677560
 141.2521540  63.9614840  67.4123250 140.8983030  65.3560670  66.9413620
 139.6138840  65.5266050  51.8110710 139.6048940  66.2595740  51.1955220
 138.6937200  65.2797630  51.9037670 144.7878270  54.9131760  62.2314360
 145.1559090  54.0926970  62.5593930 143.9276470  54.9733650  62.6470010
 148.1540300  53.8688700  53.0401920 147.5253460  53.9734370  52.3260150
 147.6592220  54.0885480  53.8295800 142.5998440  65.5894290  50.4735900
 142.7010420  65.3858280  49.5437880 141.7000180  65.3352570  50.6783680
 140.1224330  56.1474650  54.4559800 139.4140480  56.6160990  54.8973410
 140.4068810  55.4896660  55.0904990 141.7480260  57.5671350  62.4552330
 142.2465510  58.0417170  63.1204180 141.8903210  56.6434870  62.6622360
 144.1539760  52.8725310  55.8955590 144.0307540  52.8911440  54.9465100
 145.1024320  52.9204250  56.0153990 141.2416550  68.1080610  55.1683570
 141.4958050  68.0702000  54.2462940 140.2929030  67.9813940  55.1611820
 138.3259350  54.4559730  51.8310510 139.1749880  54.8929880  51.7650700
 137.9590620  54.7679990  52.6582570 148.9547120  53.7839310  63.2980720
 148.4520720  54.5244710  63.6374530 149.7703780  54.1723310  62.9817510
 147.2469130  59.0272490  56.7442080 146.3059270  59.0422720  56.9189770
 147.5613200  58.2408450  57.1902380 137.2250770  60.7092090  50.3046040
 137.9914040  60.5973450  50.8671470 137.3025460  60.0130060  49.6522810
 135.9197530  58.1417160  50.9878930 136.0001120  57.1944670  51.0996330
 136.8117280  58.4724040  51.0939590 149.2494710  66.1981340  58.4196340
 149.3742130  67.0212510  58.8920150 150.1160270  65.9872070  58.0720490
 139.8314550  67.4642860  49.9139040 140.6243160  67.7531690  49.4620830
 139.3118900  67.0335030  49.2351520 144.5635150  63.5838490  67.2274460
 143.9573310  63.6070090  66.4870210 144.2589260  62.8521530  67.7641710
 145.9935520  67.3118780  65.8383870 146.9457270  67.2276800  65.7884110
 145.8463740  67.9760490  66.5117660 148.8844720  66.6912990  51.3375780
 148.5986230  66.2778130  50.5229960 148.6864270  67.6200700  51.2176300
 140.3491950  62.6846270  49.7781390 140.2442590  62.0698620  50.5042770
 140.1816170  62.1612160  48.9944400 140.5006270  61.3703070  65.7570620
 139.7351940  61.9388070  65.6725290 140.6822230  61.0779280  64.8638850
 143.5894680  61.7466300  50.3823380 143.0404780  62.1935600  51.0266120
 144.2113940  61.2415550  50.9061050 147.6429620  63.1008400  66.3145640
 148.3839090  63.4384160  65.8113100 146.8802300  63.2700460  65.7615410
 139.2569800  60.7057220  52.2788680 139.6786220  60.5397090  53.1220070
 139.3820640  59.8957450  51.7843820 141.7697440  59.7294830  49.5265780
 142.2903100  59.0143850  49.1606930 142.4165840  60.3680700  49.8266290
 146.3175280  61.1523230  64.8500850 146.7316300  61.3068310  65.6991270
 145.3826280  61.2778450  65.0126630 146.7897450  58.4919390  66.8540000
 147.3718220  57.7371710  66.7660480 146.9659220  59.0226830  66.0771480
 137.9069520  53.6516140  65.1656950 137.8126390  53.0336890  64.4407820
 137.3266910  54.3782430  64.9386860 140.6730960  52.2089380  62.1984340
 140.2248260  52.2313640  61.3529890 140.0396160  51.8108400  62.7954640
 141.0790510  61.1043710  62.8196780 141.4978620  61.9476440  62.6473020
 140.1599140  61.2415750  62.5903560 143.4154410  58.8359890  64.2034620
 143.5350620  58.2401030  64.9429460 144.2748410  58.8729580  63.7835920
 145.7542310  59.3897080  62.7797130 145.2277530  59.9139700  62.1762270
 146.0973650  60.0224470  63.4106860 138.1528700  56.7790450  49.2246840
 137.9517760  55.9157810  49.5860180 137.9820750  56.6923810  48.2868440
 138.9297930  67.4096720  63.9354510 138.3919020  68.1342780  63.6163210
 139.1831890  66.9327060  63.1451850 140.1823180  55.3781240  65.4610440
 140.7722870  55.0697090  66.1488260 139.3643420  54.9060990  65.6170340
 145.0016610  54.9947050  65.6943460 144.3132130  54.3328590  65.6293450
 145.7222630  54.5485320  66.1391920 145.6317010  51.5898680  51.7533720
 145.9119300  50.7466580  52.1093140 144.8582740  51.8221790  52.2672470
 136.9511500  53.8791070  49.2124720 137.2537400  53.8858500  48.3043870
 137.6906090  53.5288930  49.7092380 141.7860140  68.6447930  64.1941160
 141.7118840  69.5483070  64.5013530 140.8838980  68.3259830  64.1663230
 140.1696430  52.8225690  50.1980920 139.8218430  52.1449680  49.6183370
 140.3709200  52.3615200  51.0124310 142.3345470  67.8106440  51.8167520
 143.2296260  68.1491410  51.8386280 142.3663100  67.0885850  51.1891800
 135.9741630  63.1833490  50.0454520 136.4116500  63.7263160  50.7012100
 136.4589360  62.3580440  50.0550860 149.3139820  66.3410110  64.5233720
 148.7141810  66.4002670  63.7797640 149.4433720  65.4015090  64.6530570
 147.9991460  63.0662090  62.6209880 147.1851300  63.4959250  62.8835670
 148.4065660  63.6780500  62.0078930 150.0616900  61.1209780  49.5210150
 150.3365740  62.0288660  49.3929370 149.8727640  61.0572310  50.4572140
 146.4592510  54.1454630  50.8163780 146.8777390  53.9585610  49.9760440
 146.1528570  53.2933680  51.1266710 149.9582240  59.0578770  54.5139580
 149.5825840  58.2906700  54.0820870 149.2285360  59.4401470  55.0014510
 149.3481860  58.2050290  64.1479100 149.1167950  57.9763040  63.2477050
 149.6086410  59.1249840  64.1023990 147.7869930  53.4306720  66.9258800
 148.6640110  53.4390120  67.3092800 147.7990770  52.6937560  66.3151150
 149.2333200  57.2836260  57.8146820 149.7570680  56.7898910  57.1836990
 149.8192620  57.4186620  58.5594390 149.4122920  57.3676130  61.3366370
 148.4625630  57.3339670  61.4511360 149.5935930  58.2776240  61.1016140
 135.2667360  55.6177810  50.4465000 135.9759060  55.1961030  49.9612280
 134.5507300  55.6853040  49.8148350 134.9141520  51.6717140  49.4867650
 135.6369650  52.2126080  49.8048870 135.1866040  51.3980560  48.6109190
 148.7233170  56.5409610  53.7539230 149.2192290  56.3080480  54.5388110
 148.5249240  55.7021450  53.3376870 134.6033710  50.9223330  59.3890270
 135.2509900  50.3720710  58.9485430 135.0235550  51.1766480  60.2106080
 148.4986050  51.1164690  62.7459910 149.1358270  51.7298830  63.1119100
 148.6460940  51.1525350  61.8009140 148.0567510  67.8180690  56.1478150
 148.6526580  67.4965260  55.4712570 148.3145660  67.3452510  56.9391420
 134.3565710  51.0779000  62.1315590 134.0080530  51.5342820  62.8973770
 134.0253410  50.1836130  62.2138020 139.6636110  65.8058190  61.8978500
 139.4227470  66.0732750  61.0109020 140.6038750  65.9763920  61.9529360
 141.8690530  52.2690880  65.6535010 141.8079420  52.8612710  66.4030420
 142.8090910  52.1616840  65.5085270 144.5065090  51.9260940  65.2927300
 145.1205500  52.2440230  64.6308380 145.0514650  51.4409530  65.9123160
 135.0286350  50.6055200  65.4066360 135.5769340  50.4243250  64.6432470
 135.0941660  49.8149310  65.9422670 145.2473130  50.4893080  61.6196590
 144.3732970  50.8228190  61.4169520 145.1383880  50.0166260  62.4448460
 146.1545110  52.6963950  63.0038310 145.8258470  51.8815710  62.6240040
 147.1027410  52.6533760  62.8804000 148.6079720  68.4675990  59.9775880
 148.1482690  69.2191800  59.6033900 147.9792180  67.7482460  59.9190680
 141.7770940  67.6672720  59.9792990 142.0648750  67.4127020  59.1026000
 142.2894160  67.1150080  60.5698560 142.9947950  51.4062920  60.5589500
 142.2119740  51.8808420  60.8386260 142.7010880  50.5017750  60.4502680
 147.5469020  52.1086020  58.6038590 147.9877110  52.0531120  57.7560190
 147.2776610  53.0244030  58.6748770 149.4107590  51.7401260  56.6147410
 149.3495990  50.7962480  56.4678430 150.1899620  51.8481350  57.1600870
 134.3388360  51.7110400  53.0803220 135.0967720  51.8239280  52.5067250
 133.8765530  52.5479600  53.0346650 140.8802170  53.8249670  56.0705530
 140.0676680  53.4506560  55.7301410 141.3843810  53.0694750  56.3726720
 145.3827150  50.4892120  57.3088600 145.9856520  51.0612330  57.7837120
 144.6420140  51.0531560  57.0862500 148.5261750  50.8913680  52.5828880
 148.7212380  51.7897130  52.8496310 147.7391620  50.6600760  53.0761830
 136.7113510  52.2374450  51.6205190 137.2406270  51.4504250  51.4913140
 137.3441830  52.9165640  51.8540720 138.9051350  51.9749590  54.6750580
 138.2754090  51.2736900  54.8420710 138.3656490  52.7353720  54.4583740
 141.8443300  68.5888820  67.3461190 142.7710610  68.3533090  67.3897150
 141.8293730  69.4160820  66.8647220 150.0788360  68.1314390  54.3435440
 150.2540550  67.4452130  53.6996360 149.3809930  68.6561440  53.9512110
 139.0306910  51.2533570  67.1103070 138.7491180  51.7567170  66.3463890
 139.4126610  50.4555320  66.7445200 137.0830800  64.6373960  51.9017080
 136.4539680  65.1059060  52.4502910 137.1978630  63.7923180  52.3363270
 145.6322370  50.6687150  67.6883540 145.5187820  50.9881760  68.5835060
 146.4492110  51.0699660  67.3920820 148.4120860  67.8158680  67.1702230
 149.2046180  67.3207910  66.9628190 148.7054010  68.4948820  67.7777840
 144.5380520  58.6879620  38.0518280 144.4574570  57.7734230  37.7809990
 144.1244940  59.1846690  37.3457990 142.6698560  60.4658640  39.9327550
 141.8940660  59.9859080  40.2226120 143.3211490  59.7864290  39.7583710
 136.6864390  60.7778450  40.8103310 135.8549270  60.5227160  41.2099820
 137.2945370  60.8489220  41.5461230 146.6905990  64.8718830  38.7126680
 146.2287520  64.1006070  39.0413850 147.5031540  64.8984900  39.2179130
 136.6665650  64.8118540  41.0061330 136.9693690  63.9216280  40.8271550
 137.4109240  65.3688760  40.7783580 135.0956340  55.7380340  34.5945700
 134.2073040  56.0796310  34.4925580 135.3797530  55.5380660  33.7026530
 133.0589350  58.3385990  40.4785400 133.6305460  57.5708190  40.4789040
 133.0590890  58.6374750  39.5692010 142.9169300  67.1576840  38.3330670
 142.2980740  67.6134340  37.7625110 143.7721080  67.3128300  37.9320370
 142.1107550  63.1415830  39.9397710 142.0415830  62.2005770  39.7786840
 142.8727410  63.2317240  40.5120280 134.3014220  53.7470350  42.2654330
 134.1217060  52.8496100  42.5457090 133.8994300  54.2942220  42.9401280
 143.1412720  55.9486210  40.1666640 143.5177540  55.0758090  40.0540310
 143.0432230  56.2844910  39.2757080 137.2717730  54.3211840  35.6284080
 137.3784480  55.2215570  35.9352840 136.3610090  54.2729810  35.3378730
 146.9236840  53.4436650  37.0994980 147.7446460  52.9533220  37.1420460
 146.9570920  54.0334310  37.8526820 134.9200890  56.2430850  40.8736670
 135.6011000  56.5069220  41.4924070 134.6048940  55.4031720  41.2074680
 139.1125460  57.2898210  39.9609260 139.6203680  57.7879180  40.6014280
 139.6438700  56.5133410  39.7848620 137.3961560  51.9296770  44.2272680
 137.3980000  52.4469160  43.4218580 136.5665870  51.4526950  44.2042610
 143.7832650  62.0416080  35.7262580 143.1649920  62.5065530  35.1625300
 144.2955900  62.7343560  36.1432090 138.6464410  61.5691950  42.4046180
 138.3133790  62.1960870  43.0467250 138.8231090  62.0953830  41.6247850
 147.1598320  55.3837030  39.8722520 146.4553890  55.6721920  40.4525630
 147.5210480  56.1937140  39.5122080 137.0776890  53.6406730  42.2343130
 137.4193700  54.4848780  41.9397000 136.1392700  53.7890470  42.3508470
 137.8583510  63.5372750  44.2195360 138.4757510  64.2123830  43.9379810
 136.9976630  63.9460730  44.1282860 133.1515850  62.7272610  33.1002210
 132.7743830  63.2159710  32.3687110 133.4088920  63.3997890  33.7308740
 148.7761100  65.0012160  42.1350000 148.0924620  65.6711270  42.1266670
 149.3155390  65.1992810  41.3694860 140.7604780  51.1289000  38.5587720
 141.0679760  50.5735890  37.8423220 139.8305480  51.2633460  38.3760710
 146.3119840  66.8456290  40.8495180 146.3247000  66.4418580  39.9817440
 145.7595060  67.6203580  40.7456610 147.6065260  63.5672510  35.9385350
 147.4961590  62.6246840  36.0634770 147.6033510  63.9288150  36.8248110
 145.7105280  61.7486130  42.1777790 146.1274070  61.5346240  41.3431250
 146.4345100  62.0058920  42.7486410 143.1485540  59.1937830  35.2947840
 142.2214820  59.1275210  35.5236310 143.3010360  60.1317960  35.1803080
 143.1354620  55.4654830  32.2915000 142.1958290  55.6268790  32.3767460
 143.4537880  56.1840510  31.7450990 149.6567380  60.1473350  42.2694030
 148.8286010  60.2166440  41.7944160 150.2517860  60.7327660  41.8009860
 147.1782830  60.7558130  35.7983090 146.5595250  60.4177680  35.1509390
 147.1607280  60.1117890  36.5062280 146.6209390  56.9342670  43.2148900
 146.2080570  57.7596380  43.4688890 145.8885340  56.3487710  43.0225260
 138.7542180  59.7202570  38.0767570 138.3499180  59.0079820  37.5813470
 138.8405300  59.3755810  38.9655610 139.2223880  63.4070130  40.2406780
 138.9252170  62.8015600  39.5614560 140.1723700  63.4447440  40.1296140
 137.4670800  56.4945780  41.8566610 138.0185390  56.6041120  41.0819860
 137.9814310  56.8683380  42.5721840 147.3109490  66.9802000  43.9029880
 146.8340050  67.7874190  43.7102490 146.6271280  66.3280330  44.0556090
 138.3142310  63.1451820  46.8914580 137.4170840  63.3691790  47.1387980
 138.3395180  63.2686760  45.9425980 145.3547530  59.9944940  32.8055840
 145.7940810  59.1567370  32.6593660 146.0675950  60.6274340  32.8919980
 137.1413530  60.0165140  45.4671950 137.0021300  60.8887940  45.8359350
 136.2594890  59.6737950  45.3219890 143.4642910  64.9341010  36.7737080
 143.9038820  65.6765340  36.3592470 143.4029800  65.1767580  37.6976040
 138.9393880  65.9586840  47.6757100 138.9109310  66.3629790  46.8085530
 138.7758850  65.0297200  47.5128700 148.9364670  51.2487750  31.1196880
 148.6237330  51.3414580  32.0195950 149.6977140  51.8268780  31.0694310
 135.4546810  58.6147550  35.5774220 135.3344410  59.3409640  34.9655490
 135.1447700  57.8450460  35.1002130 133.0932180  61.7862690  41.3842860
 133.1712600  61.9211460  40.4398580 133.7073860  61.0778580  41.5770980
 134.3379810  63.4862880  37.7949040 133.9307890  63.6277470  36.9402640
 135.2292820  63.2023040  37.5920250 150.2941950  63.9326790  46.1321280
 150.4205010  63.6938670  45.2138460 150.3363330  63.1011330  46.6043360
 144.1558690  67.6354790  44.7016090 144.6703360  67.5462800  45.5038520
 143.3127770  67.9814490  44.9944000 146.1313090  67.9210130  34.1300090
 145.9714230  67.6313070  35.0281920 145.9659800  67.1450260  33.5945320
 138.6101470  67.7008660  35.9071710 138.4343950  66.7844200  35.6939510
 137.7557210  68.0595950  36.1469510 145.8339220  65.4297690  32.6898090
 145.1404380  65.4274980  32.0300370 146.5762080  65.0057010  32.2592260
 145.3989150  67.0560400  36.7646580 145.8546100  66.2749780  37.0785200
 145.7381670  67.7667220  37.3087760 150.1465960  55.9859250  47.0971020
 149.5310230  56.4938920  46.5686480 149.8262380  55.0857580  47.0396960
 133.1491700  62.8276860  43.9237320 133.3122740  62.3582220  43.1056690
 133.6144150  62.3200420  44.5886160 137.9210470  51.9582620  38.9597890
 137.4778620  52.7392160  38.6282410 138.4795460  52.2812510  39.6668830
 142.2080280  54.8251140  44.5633210 141.7459650  55.0334160  45.3753150
 141.8058390  54.0110490  44.2603880 147.2084790  56.0460090  45.6929870
 146.3578380  55.7465840  46.0138940 147.0486580  56.2902100  44.7813690
 144.3034500  57.5461840  47.7928660 144.6287910  56.7125590  47.4530890
 145.0914830  58.0690360  47.9406990 141.0369290  51.5793320  33.8403720
 140.4123470  51.5753190  34.5657030 140.9499410  50.7124280  33.4439690
 139.9586370  52.5029950  40.8187490 140.2558700  53.4092780  40.7379510
 140.5071930  52.0148730  40.2047060 137.7124690  57.0816190  36.6879140
 137.4865610  56.8653360  37.5925760 136.9317220  57.5144650  36.3425110
 144.9422450  57.0879560  35.2869790 144.3431340  57.8115360  35.1033410
 145.4902060  57.0256340  34.5046240 140.1523900  57.9801770  47.3539410
 140.0567500  57.0396500  47.2039810 140.9955880  58.2016840  46.9587480
 143.5487320  55.7243100  37.3173070 143.9416890  56.0415300  36.5041760
 143.9104170  54.8454980  37.4317590 135.2834440  54.3915440  45.5073190
 134.8897830  55.2390650  45.7145970 134.5952840  53.7541810  45.6981830
 141.8579490  54.4750410  48.5769930 141.1677810  54.2822610  49.2116020
 142.6011790  54.7585050  49.1094230 132.5851490  52.3143900  39.5403270
 132.2964540  52.8846760  40.2528250 133.3297250  51.8348350  39.9034500
 132.7721720  56.2564020  30.7505990 132.6896390  57.1994780  30.8920980
 132.4204780  56.1138930  29.8718340 144.1342460  58.3148850  41.4123850
 143.4023580  58.8235660  41.7613950 143.7366800  57.4978830  41.1112630
 140.5719850  54.9903050  39.8176340 140.5755910  54.5493000  38.9680880
 141.4670970  55.3120380  39.9248160 136.4222230  54.8729540  38.7770550
 136.0822280  55.3504770  39.5337600 135.6599550  54.4194660  38.4171650
 140.6340000  55.9915130  32.8083100 140.7552820  55.9501610  33.7568920
 140.2488510  56.8539280  32.6529830 144.5968370  53.7682530  40.8246790
 144.6141110  54.2191180  41.6688640 144.3483950  52.8688170  41.0380230
 139.6461500  58.3016270  32.2066400 139.0778400  57.8534520  31.5802310
 140.3550500  58.6609050  31.6731550 148.0239120  51.1814710  46.6633170
 148.3484890  50.4504370  47.1891150 148.0595630  50.8628350  45.7614160
 134.7230680  62.2028290  46.0833130 134.3385470  61.5621960  46.6816090
 135.0342870  62.9064410  46.6527860 140.8727820  59.0504830  41.5641750
 141.2397950  58.5763400  42.3103090 140.6832880  59.9246400  41.9050090
 133.7368310  53.7948520  37.6935220 133.4515230  53.4304190  38.5313840
 133.6747170  53.0628980  37.0798360 138.6627190  58.0913470  43.8825960
 138.3584260  58.9705450  44.1076320 139.6173650  58.1513260  43.9183400
 137.1908980  62.2974460  34.4792810 136.4171240  61.7572080  34.3191530
 137.9203610  61.7781070  34.1410570 147.9496960  61.2939820  40.2719200
 148.6696080  61.7895110  39.8815310 147.7478780  60.6157710  39.6273070
 143.4106900  52.6877780  34.4148590 142.5971510  52.1890950  34.3393900
 143.2168850  53.5276030  33.9984940 143.3315760  61.3648880  46.1588200
 143.2653070  60.4444550  45.9045790 142.7020900  61.4624320  46.8732840
 146.1255290  57.0597430  32.7110750 147.0134910  57.3714660  32.5362090
 146.0960380  56.1869680  32.3191330 137.2346380  61.9654840  38.1171620
 137.7525050  61.1623100  38.0628510 136.7830400  61.9033980  38.9588450
 142.1215880  63.2321120  33.3898920 142.4631580  63.9763350  32.8942240
 141.2928590  63.5452240  33.7523750 134.7190920  58.9316210  45.0297320
 134.3605860  59.5970060  45.6170660 134.4245480  58.0999760  45.4009940
 137.9204040  59.3900450  47.9136870 137.6204180  59.5357630  47.0164690
 138.6915280  58.8305740  47.8210260 143.2632490  64.1869450  45.9092000
 143.2777030  63.2550410  45.6910910 142.5557590  64.2729210  46.5481770
 148.3969560  58.3709270  32.1790610 148.3133280  58.8023490  31.3287050
 149.1163750  58.8307620  32.6117430 149.4743700  60.8276790  45.2560580
 148.7491890  61.4205570  45.0589970 150.0019160  60.8200330  44.4573950
 149.4256810  65.2251530  34.9072740 148.7832970  64.5707150  35.1816460
 149.0387470  65.6306620  34.1313410 145.0043290  62.5536960  38.7544430
 145.3567110  61.9565090  38.0945800 144.1205620  62.2281190  38.9252680
 141.0906570  63.3134650  36.1614840 141.7777700  63.8603860  36.5422430
 140.3038990  63.8575380  36.1964450 133.2298970  58.9307470  31.6531920
 134.0993820  59.2132270  31.9367840 132.7389290  59.7443340  31.5380730
 140.3933780  60.3180680  35.7740200 140.8496560  61.1285930  36.0000390
 140.0421990  60.0003820  36.6058690 142.6966390  65.8287020  43.0032500
 143.3408610  66.0346400  43.6805920 143.0595830  65.0675420  42.5503350
 136.2945560  50.6618330  36.2462720 136.1660190  50.6536230  37.1947640
 135.4707580  51.0001420  35.8953730 143.9698470  63.8319370  41.7209950
 144.6120700  63.1312530  41.8342120 144.4947820  64.6117810  41.5406840
 147.8154190  64.1167990  31.4449090 147.5891770  63.3998430  32.0373730
 147.4250390  63.8680430  30.6070840 145.7436090  64.6314270  44.9246010
 146.0792330  65.2180960  45.6023930 144.8236430  64.5006980  45.1543800
 133.5970220  68.1434850  32.2193550 133.9567860  68.7424190  31.5650820
 133.4562560  68.6894740  32.9928580 133.2939490  52.4209450  45.7069420
 132.5798010  52.6206370  46.3122030 133.7134530  51.6449020  46.0784220
 147.3970440  62.0339930  33.1063250 147.1092140  62.4952620  33.8941130
 148.1922610  61.5737700  33.3747470 141.5724670  64.6805600  48.0934070
 141.2521540  63.9614840  48.6379760 140.8983030  65.3560670  48.1670130
 139.6138840  65.5266050  33.0367220 139.6048940  66.2595740  32.4211730
 138.6937200  65.2797630  33.1294180 135.2145480  60.7480940  33.7813980
 134.6073430  61.4879840  33.7909280 135.6894830  60.8380300  32.9552180
 144.7878270  54.9131760  43.4570870 145.1559090  54.0926970  43.7850440
 143.9276470  54.9733650  43.8726520 148.1540300  53.8688700  34.2658430
 147.5253460  53.9734370  33.5516660 147.6592220  54.0885480  35.0552310
 142.5998440  65.5894290  31.6992410 142.7010420  65.3858280  30.7694390
 141.7000180  65.3352570  31.9040190 140.1224330  56.1474650  35.6816310
 139.4140480  56.6160990  36.1229920 140.4068810  55.4896660  36.3161500
 141.7480260  57.5671350  43.6808840 142.2465510  58.0417170  44.3460690
 141.8903210  56.6434870  43.8878870 144.1539760  52.8725310  37.1212100
 144.0307540  52.8911440  36.1721610 145.1024320  52.9204250  37.2410500
 141.2416550  68.1080610  36.3940080 141.4958050  68.0702000  35.4719450
 140.2929030  67.9813940  36.3868330 138.3259350  54.4559730  33.0567020
 139.1749880  54.8929880  32.9907210 137.9590620  54.7679990  33.8839080
 148.9547120  53.7839310  44.5237230 148.4520720  54.5244710  44.8631040
 149.7703780  54.1723310  44.2074020 147.2469130  59.0272490  37.9698590
 146.3059270  59.0422720  38.1446280 147.5613200  58.2408450  38.4158890
 137.2250770  60.7092090  31.5302550 137.9914040  60.5973450  32.0927980
 137.3025460  60.0130060  30.8779320 135.9197530  58.1417160  32.2135440
 136.0001120  57.1944670  32.3252840 136.8117280  58.4724040  32.3196100
 149.2494710  66.1981340  39.6452850 149.3742130  67.0212510  40.1176660
 150.1160270  65.9872070  39.2977000 136.7212240  68.2912550  39.3169980
 137.4574720  67.7428010  39.5878550 137.1053160  69.1568560  39.1775970
 133.6057720  64.3586120  35.1911490 132.6797500  64.6007260  35.1816900
 134.0714150  65.1860380  35.0696240 135.7270520  67.4758620  48.5055560
 136.5283250  67.7970670  48.9190960 135.2122340  67.1154200  49.2275470
 139.8314550  67.4642860  31.1395550 140.6243160  67.7531690  30.6877340
 139.3118900  67.0335030  30.4608030 144.5635150  63.5838490  48.4530970
 143.9573310  63.6070090  47.7126720 144.2589260  62.8521530  48.9898220
 145.9935520  67.3118780  47.0640380 146.9457270  67.2276800  47.0140620
 145.8463740  67.9760490  47.7374170 148.8844720  66.6912990  32.5632290
 148.5986230  66.2778130  31.7486470 148.6864270  67.6200700  32.4432810
 133.4468330  59.9632080  47.4491610 133.9507350  59.3839360  48.0207840
 132.7075750  60.2472310  47.9867980 140.3491950  62.6846270  31.0037900
 140.2442590  62.0698620  31.7299280 140.1816170  62.1612160  30.2200910
 140.5006270  61.3703070  46.9827130 139.7351940  61.9388070  46.8981800
 140.6822230  61.0779280  46.0895360 143.5894680  61.7466300  31.6079890
 143.0404780  62.1935600  32.2522630 144.2113940  61.2415550  32.1317560
 147.6429620  63.1008400  47.5402150 148.3839090  63.4384160  47.0369610
 146.8802300  63.2700460  46.9871920 135.4791410  58.1061670  48.3441680
 135.5196750  57.8075540  49.2526910 136.3336910  58.5069280  48.1849200
 139.2569800  60.7057220  33.5045190 139.6786220  60.5397090  34.3476580
 139.3820640  59.8957450  33.0100330 137.4197220  56.6853770  46.3116170
 136.8893680  56.1944720  45.6839510 138.0885290  57.1137970  45.7774100
 141.7697440  59.7294830  30.7522290 142.2903100  59.0143850  30.3863440
 142.4165840  60.3680700  31.0522800 146.3175280  61.1523230  46.0757360
 146.7316300  61.3068310  46.9247780 145.3826280  61.2778450  46.2383140
 146.7897450  58.4919390  48.0796510 147.3718220  57.7371710  47.9916990
 146.9659220  59.0226830  47.3027990 137.9069520  53.6516140  46.3913460
 137.8126390  53.0336890  45.6664330 137.3266910  54.3782430  46.1643370
 140.6730960  52.2089380  43.4240850 140.2248260  52.2313640  42.5786400
 140.0396160  51.8108400  44.0211150 141.0790510  61.1043710  44.0453290
 141.4978620  61.9476440  43.8729530 140.1599140  61.2415750  43.8160070
 143.4154410  58.8359890  45.4291130 143.5350620  58.2401030  46.1685970
 144.2748410  58.8729580  45.0092430 145.7542310  59.3897080  44.0053640
 145.2277530  59.9139700  43.4018780 146.0973650  60.0224470  44.6363370
 138.1528700  56.7790450  30.4503350 137.9517760  55.9157810  30.8116690
 137.9820750  56.6923810  29.5124950 138.9297930  67.4096720  45.1611020
 138.3919020  68.1342780  44.8419720 139.1831890  66.9327060  44.3708360
 140.1823180  55.3781240  46.6866950 140.7722870  55.0697090  47.3744770
 139.3643420  54.9060990  46.8426850 145.0016610  54.9947050  46.9199970
 144.3132130  54.3328590  46.8549960 145.7222630  54.5485320  47.3648430
 145.6317010  51.5898680  32.9790230 145.9119300  50.7466580  33.3349650
 144.8582740  51.8221790  33.4928980 136.9511500  53.8791070  30.4381230
 137.2537400  53.8858500  29.5300380 137.6906090  53.5288930  30.9348890
 141.7860140  68.6447930  45.4197670 141.7118840  69.5483070  45.7270040
 140.8838980  68.3259830  45.3919740 140.1696430  52.8225690  31.4237430
 139.8218430  52.1449680  30.8439880 140.3709200  52.3615200  32.2380820
 142.3345470  67.8106440  33.0424030 143.2296260  68.1491410  33.0642790
 142.3663100  67.0885850  32.4148310 135.9741630  63.1833490  31.2711030
 136.4116500  63.7263160  31.9268610 136.4589360  62.3580440  31.2807370
 133.1887430  65.9722520  38.7231290 133.5190440  65.1043580  38.4909930
 133.6178430  66.1781040  39.5536250 137.7849350  64.3031530  36.3833260
 137.4844890  64.1796500  37.2837170 137.6786840  63.4440120  35.9748990
 133.6777640  66.8393110  41.4612920 133.2408630  67.0193910  42.2937070
 134.2455320  67.5967730  41.3194640 149.3139820  66.3410110  45.7490230
 148.7141810  66.4002670  45.0054150 149.4433720  65.4015090  45.8787080
 133.5102070  59.3513340  37.8201800 132.8550910  59.0824980  37.1761500
 134.3480020  59.2417820  37.3703780 147.9991460  63.0662090  43.8466390
 147.1851300  63.4959250  44.1092180 148.4065660  63.6780500  43.2335440
 150.0616900  61.1209780  30.7466660 150.3365740  62.0288660  30.6185880
 149.8727640  61.0572310  31.6828650 146.4592510  54.1454630  32.0420290
 146.8777390  53.9585610  31.2016950 146.1528570  53.2933680  32.3523220
 149.9582240  59.0578770  35.7396090 149.5825840  58.2906700  35.3077380
 149.2285360  59.4401470  36.2271020 134.5478000  59.7365910  42.3605140
 134.9151040  59.6493310  43.2401160 133.9788820  58.9732460  42.2612000
 149.3481860  58.2050290  45.3735610 149.1167950  57.9763040  44.4733560
 149.6086410  59.1249840  45.3280500 134.0994000  56.6475000  46.2663560
 133.2050050  56.6141760  46.6057270 134.6391550  56.8461790  47.0314810
 147.7869930  53.4306720  48.1515310 148.6640110  53.4390120  48.5349310
 147.7990770  52.6937560  47.5407660 132.7240150  56.5612270  33.7627130
 131.8204230  56.8242470  33.5878790 133.2080770  56.8323440  32.9827090
 149.2333200  57.2836260  39.0403330 149.7570680  56.7898910  38.4093500
 149.8192620  57.4186620  39.7850900 149.4122920  57.3676130  42.5622880
 148.4625630  57.3339670  42.6767870 149.5935930  58.2776240  42.3272650
 135.2667360  55.6177810  31.6721510 135.9759060  55.1961030  31.1868790
 134.5507300  55.6853040  31.0404860 134.9141520  51.6717140  30.7124160
 135.6369650  52.2126080  31.0305380 135.1866040  51.3980560  29.8365700
 148.7233170  56.5409610  34.9795740 149.2192290  56.3080480  35.7644620
 148.5249240  55.7021450  34.5633380 134.6033710  50.9223330  40.6146780
 135.2509900  50.3720710  40.1741940 135.0235550  51.1766480  41.4362590
 148.4986050  51.1164690  43.9716420 149.1358270  51.7298830  44.3375610
 148.6460940  51.1525350  43.0265650 148.0567510  67.8180690  37.3734660
 148.6526580  67.4965260  36.6969080 148.3145660  67.3452510  38.1647930
 134.3565710  51.0779000  43.3572100 134.0080530  51.5342820  44.1230280
 134.0253410  50.1836130  43.4394530 135.9630080  64.2498600  47.5225290
 135.9199710  63.8791510  48.4039750 136.0941090  65.1876170  47.6627110
 139.6636110  65.8058190  43.1235010 139.4227470  66.0732750  42.2365530
 140.6038750  65.9763920  43.1785870 141.8690530  52.2690880  46.8791520
 141.8079420  52.8612710  47.6286930 142.8090910  52.1616840  46.7341780
 144.5065090  51.9260940  46.5183810 145.1205500  52.2440230  45.8564890
 145.0514650  51.4409530  47.1379670 135.0286350  50.6055200  46.6322870
 135.5769340  50.4243250  45.8688980 135.0941660  49.8149310  47.1679180
 135.8018110  67.1960850  44.6423070 135.2078430  67.0645550  45.3813110
 135.7941950  66.3598990  44.1765170 145.2473130  50.4893080  42.8453100
 144.3732970  50.8228190  42.6426030 145.1383880  50.0166260  43.6704970
 146.1545110  52.6963950  44.2294820 145.8258470  51.8815710  43.8496550
 147.1027410  52.6533760  44.1060510 148.6079720  68.4675990  41.2032390
 148.1482690  69.2191800  40.8290410 147.9792180  67.7482460  41.1447190
 135.4330340  64.5619230  43.5931110 134.7064400  63.9424520  43.5257060
 135.4939490  64.9559840  42.7229190 139.0375440  66.7764230  40.3780520
 139.5540460  66.1651590  39.8528780 139.6872820  67.2793010  40.8691530
 141.7770940  67.6672720  41.2049500 142.0648750  67.4127020  40.3282510
 142.2894160  67.1150080  41.7955070 142.9947950  51.4062920  41.7846010
 142.2119740  51.8808420  42.0642770 142.7010880  50.5017750  41.6759190
 147.5469020  52.1086020  39.8295100 147.9877110  52.0531120  38.9816700
 147.2776610  53.0244030  39.9005280 149.4107590  51.7401260  37.8403920
 149.3495990  50.7962480  37.6934940 150.1899620  51.8481350  38.3857380
 133.7160340  67.8793620  36.8027870 133.5482380  67.2464300  37.5009760
 132.8494850  68.0853020  36.4522060 134.3388360  51.7110400  34.3059730
 135.0967720  51.8239280  33.7323760 133.8765530  52.5479600  34.2603160
 140.8802170  53.8249670  37.2962040 140.0676680  53.4506560  36.9557920
 141.3843810  53.0694750  37.5983230 145.3827150  50.4892120  38.5345110
 145.9856520  51.0612330  39.0093630 144.6420140  51.0531560  38.3119010
 148.5261750  50.8913680  33.8085390 148.7212380  51.7897130  34.0752820
 147.7391620  50.6600760  34.3018340 135.3223040  66.5726850  34.2478010
 134.7970660  66.9534880  33.5439970 135.2467620  67.1977620  34.9687720
 136.7113510  52.2374450  32.8461700 137.2406270  51.4504250  32.7169650
 137.3441830  52.9165640  33.0797230 138.9051350  51.9749590  35.9007090
 138.2754090  51.2736900  36.0677220 138.3656490  52.7353720  35.6840250
 141.8443300  68.5888820  48.5717700 142.7710610  68.3533090  48.6153660
 141.8293730  69.4160820  48.0903730 150.0788360  68.1314390  35.5691950
 150.2540550  67.4452130  34.9252870 149.3809930  68.6561440  35.1768620
 139.0306910  51.2533570  48.3359580 138.7491180  51.7567170  47.5720400
 139.4126610  50.4555320  47.9701710 137.9216010  68.5209230  33.1227260
 138.6534830  68.2368510  32.5751150 138.1809680  68.2822510  34.0126640
 137.0830800  64.6373960  33.1273590 136.4539680  65.1059060  33.6759420
 137.1978630  63.7923180  33.5619780 145.6322370  50.6687150  48.9140050
 145.5187820  50.9881760  49.8091570 146.4492110  51.0699660  48.6177330
 148.4120860  67.8158680  48.3958740 149.2046180  67.3207910  48.1884700
 148.7054010  68.4948820  49.0034350 144.5380520  58.6879620  19.2774790
 144.4574570  57.7734230  19.0066500 144.1244940  59.1846690  18.5714500
 142.6698560  60.4658640  21.1584060 141.8940660  59.9859080  21.4482630
 143.3211490  59.7864290  20.9840220 136.6864390  60.7778450  22.0359820
 135.8549270  60.5227160  22.4356330 137.2945370  60.8489220  22.7717740
 146.6905990  64.8718830  19.9383190 146.2287520  64.1006070  20.2670360
 147.5031540  64.8984900  20.4435640 136.6665650  64.8118540  22.2317840
 136.9693690  63.9216280  22.0528060 137.4109240  65.3688760  22.0040090
 135.0956340  55.7380340  15.8202210 134.2073040  56.0796310  15.7182090
 135.3797530  55.5380660  14.9283040 133.0589350  58.3385990  21.7041910
 133.6305460  57.5708190  21.7045550 133.0590890  58.6374750  20.7948520
 142.9169300  67.1576840  19.5587180 142.2980740  67.6134340  18.9881620
 143.7721080  67.3128300  19.1576880 142.1107550  63.1415830  21.1654220
 142.0415830  62.2005770  21.0043350 142.8727410  63.2317240  21.7376790
 134.3014220  53.7470350  23.4910840 134.1217060  52.8496100  23.7713600
 133.8994300  54.2942220  24.1657790 143.1412720  55.9486210  21.3923150
 143.5177540  55.0758090  21.2796820 143.0432230  56.2844910  20.5013590
 137.2717730  54.3211840  16.8540590 137.3784480  55.2215570  17.1609350
 136.3610090  54.2729810  16.5635240 146.9236840  53.4436650  18.3251490
 147.7446460  52.9533220  18.3676970 146.9570920  54.0334310  19.0783330
 134.9200890  56.2430850  22.0993180 135.6011000  56.5069220  22.7180580
 134.6048940  55.4031720  22.4331190 139.1125460  57.2898210  21.1865770
 139.6203680  57.7879180  21.8270790 139.6438700  56.5133410  21.0105130
 137.3961560  51.9296770  25.4529190 137.3980000  52.4469160  24.6475090
 136.5665870  51.4526950  25.4299120 143.7832650  62.0416080  16.9519090
 143.1649920  62.5065530  16.3881810 144.2955900  62.7343560  17.3688600
 138.6464410  61.5691950  23.6302690 138.3133790  62.1960870  24.2723760
 138.8231090  62.0953830  22.8504360 147.1598320  55.3837030  21.0979030
 146.4553890  55.6721920  21.6782140 147.5210480  56.1937140  20.7378590
 137.0776890  53.6406730  23.4599640 137.4193700  54.4848780  23.1653510
 136.1392700  53.7890470  23.5764980 137.8583510  63.5372750  25.4451870
 138.4757510  64.2123830  25.1636320 136.9976630  63.9460730  25.3539370
 133.1515850  62.7272610  14.3258720 132.7743830  63.2159710  13.5943620
 133.4088920  63.3997890  14.9565250 148.7761100  65.0012160  23.3606510
 148.0924620  65.6711270  23.3523180 149.3155390  65.1992810  22.5951370
 140.7604780  51.1289000  19.7844230 141.0679760  50.5735890  19.0679730
 139.8305480  51.2633460  19.6017220 146.3119840  66.8456290  22.0751690
 146.3247000  66.4418580  21.2073950 145.7595060  67.6203580  21.9713120
 147.6065260  63.5672510  17.1641860 147.4961590  62.6246840  17.2891280
 147.6033510  63.9288150  18.0504620 145.7105280  61.7486130  23.4034300
 146.1274070  61.5346240  22.5687760 146.4345100  62.0058920  23.9742920
 143.1485540  59.1937830  16.5204350 142.2214820  59.1275210  16.7492820
 143.3010360  60.1317960  16.4059590 143.1354620  55.4654830  13.5171510
 142.1958290  55.6268790  13.6023970 143.4537880  56.1840510  12.9707500
 149.6567380  60.1473350  23.4950540 148.8286010  60.2166440  23.0200670
 150.2517860  60.7327660  23.0266370 147.1782830  60.7558130  17.0239600
 146.5595250  60.4177680  16.3765900 147.1607280  60.1117890  17.7318790
 146.6209390  56.9342670  24.4405410 146.2080570  57.7596380  24.6945400
 145.8885340  56.3487710  24.2481770 138.7542180  59.7202570  19.3024080
 138.3499180  59.0079820  18.8069980 138.8405300  59.3755810  20.1912120
 139.2223880  63.4070130  21.4663290 138.9252170  62.8015600  20.7871070
 140.1723700  63.4447440  21.3552650 137.4670800  56.4945780  23.0823120
 138.0185390  56.6041120  22.3076370 137.9814310  56.8683380  23.7978350
 147.3109490  66.9802000  25.1286390 146.8340050  67.7874190  24.9359000
 146.6271280  66.3280330  25.2812600 138.3142310  63.1451820  28.1171090
 137.4170840  63.3691790  28.3644490 138.3395180  63.2686760  27.1682490
 145.3547530  59.9944940  14.0312350 145.7940810  59.1567370  13.8850170
 146.0675950  60.6274340  14.1176490 137.1413530  60.0165140  26.6928460
 137.0021300  60.8887940  27.0615860 136.2594890  59.6737950  26.5476400
 143.4642910  64.9341010  17.9993590 143.9038820  65.6765340  17.5848980
 143.4029800  65.1767580  18.9232550 138.9393880  65.9586840  28.9013610
 138.9109310  66.3629790  28.0342040 138.7758850  65.0297200  28.7385210
 148.9364670  51.2487750  12.3453390 148.6237330  51.3414580  13.2452460
 149.6977140  51.8268780  12.2950820 135.4546810  58.6147550  16.8030730
 135.3344410  59.3409640  16.1912000 135.1447700  57.8450460  16.3258640
 133.0932180  61.7862690  22.6099370 133.1712600  61.9211460  21.6655090
 133.7073860  61.0778580  22.8027490 134.3379810  63.4862880  19.0205550
 133.9307890  63.6277470  18.1659150 135.2292820  63.2023040  18.8176760
 150.2941950  63.9326790  27.3577790 150.4205010  63.6938670  26.4394970
 150.3363330  63.1011330  27.8299870 144.1558690  67.6354790  25.9272600
 144.6703360  67.5462800  26.7295030 143.3127770  67.9814490  26.2200510
 146.1313090  67.9210130  15.3556600 145.9714230  67.6313070  16.2538430
 145.9659800  67.1450260  14.8201830 138.6101470  67.7008660  17.1328220
 138.4343950  66.7844200  16.9196020 137.7557210  68.0595950  17.3726020
 145.8339220  65.4297690  13.9154600 145.1404380  65.4274980  13.2556880
 146.5762080  65.0057010  13.4848770 145.3989150  67.0560400  17.9903090
 145.8546100  66.2749780  18.3041710 145.7381670  67.7667220  18.5344270
 150.1465960  55.9859250  28.3227530 149.5310230  56.4938920  27.7942990
 149.8262380  55.0857580  28.2653470 133.1491700  62.8276860  25.1493830
 133.3122740  62.3582220  24.3313200 133.6144150  62.3200420  25.8142670
 137.9210470  51.9582620  20.1854400 137.4778620  52.7392160  19.8538920
 138.4795460  52.2812510  20.8925340 142.2080280  54.8251140  25.7889720
 141.7459650  55.0334160  26.6009660 141.8058390  54.0110490  25.4860390
 147.2084790  56.0460090  26.9186380 146.3578380  55.7465840  27.2395450
 147.0486580  56.2902100  26.0070200 144.3034500  57.5461840  29.0185170
 144.6287910  56.7125590  28.6787400 145.0914830  58.0690360  29.1663500
 141.0369290  51.5793320  15.0660230 140.4123470  51.5753190  15.7913540
 140.9499410  50.7124280  14.6696200 139.9586370  52.5029950  22.0444000
 140.2558700  53.4092780  21.9636020 140.5071930  52.0148730  21.4303570
 137.7124690  57.0816190  17.9135650 137.4865610  56.8653360  18.8182270
 136.9317220  57.5144650  17.5681620 144.9422450  57.0879560  16.5126300
 144.3431340  57.8115360  16.3289920 145.4902060  57.0256340  15.7302750
 140.1523900  57.9801770  28.5795920 140.0567500  57.0396500  28.4296320
 140.9955880  58.2016840  28.1843990 143.5487320  55.7243100  18.5429580
 143.9416890  56.0415300  17.7298270 143.9104170  54.8454980  18.6574100
 135.2834440  54.3915440  26.7329700 134.8897830  55.2390650  26.9402480
 134.5952840  53.7541810  26.9238340 141.8579490  54.4750410  29.8026440
 141.1677810  54.2822610  30.4372530 142.6011790  54.7585050  30.3350740
 132.5851490  52.3143900  20.7659780 132.2964540  52.8846760  21.4784760
 133.3297250  51.8348350  21.1291010 132.7721720  56.2564020  11.9762500
 132.6896390  57.1994780  12.1177490 132.4204780  56.1138930  11.0974850
 144.1342460  58.3148850  22.6380360 143.4023580  58.8235660  22.9870460
 143.7366800  57.4978830  22.3369140 140.5719850  54.9903050  21.0432850
 140.5755910  54.5493000  20.1937390 141.4670970  55.3120380  21.1504670
 136.4222230  54.8729540  20.0027060 136.0822280  55.3504770  20.7594110
 135.6599550  54.4194660  19.6428160 140.6340000  55.9915130  14.0339610
 140.7552820  55.9501610  14.9825430 140.2488510  56.8539280  13.8786340
 144.5968370  53.7682530  22.0503300 144.6141110  54.2191180  22.8945150
 144.3483950  52.8688170  22.2636740 139.6461500  58.3016270  13.4322910
 139.0778400  57.8534520  12.8058820 140.3550500  58.6609050  12.8988060
 148.0239120  51.1814710  27.8889680 148.3484890  50.4504370  28.4147660
 148.0595630  50.8628350  26.9870670 134.7230680  62.2028290  27.3089640
 134.3385470  61.5621960  27.9072600 135.0342870  62.9064410  27.8784370
 140.8727820  59.0504830  22.7898260 141.2397950  58.5763400  23.5359600
 140.6832880  59.9246400  23.1306600 133.7368310  53.7948520  18.9191730
 133.4515230  53.4304190  19.7570350 133.6747170  53.0628980  18.3054870
 138.6627190  58.0913470  25.1082470 138.3584260  58.9705450  25.3332830
 139.6173650  58.1513260  25.1439910 137.1908980  62.2974460  15.7049320
 136.4171240  61.7572080  15.5448040 137.9203610  61.7781070  15.3667080
 147.9496960  61.2939820  21.4975710 148.6696080  61.7895110  21.1071820
 147.7478780  60.6157710  20.8529580 143.4106900  52.6877780  15.6405100
 142.5971510  52.1890950  15.5650410 143.2168850  53.5276030  15.2241450
 143.3315760  61.3648880  27.3844710 143.2653070  60.4444550  27.1302300
 142.7020900  61.4624320  28.0989350 146.1255290  57.0597430  13.9367260
 147.0134910  57.3714660  13.7618600 146.0960380  56.1869680  13.5447840
 137.2346380  61.9654840  19.3428130 137.7525050  61.1623100  19.2885020
 136.7830400  61.9033980  20.1844960 142.1215880  63.2321120  14.6155430
 142.4631580  63.9763350  14.1198750 141.2928590  63.5452240  14.9780260
 134.7190920  58.9316210  26.2553830 134.3605860  59.5970060  26.8427170
 134.4245480  58.0999760  26.6266450 137.9204040  59.3900450  29.1393380
 137.6204180  59.5357630  28.2421200 138.6915280  58.8305740  29.0466770
 143.2632490  64.1869450  27.1348510 143.2777030  63.2550410  26.9167420
 142.5557590  64.2729210  27.7738280 148.3969560  58.3709270  13.4047120
 148.3133280  58.8023490  12.5543560 149.1163750  58.8307620  13.8373940
 149.4743700  60.8276790  26.4817090 148.7491890  61.4205570  26.2846480
 150.0019160  60.8200330  25.6830460 149.4256810  65.2251530  16.1329250
 148.7832970  64.5707150  16.4072970 149.0387470  65.6306620  15.3569920
 145.0043290  62.5536960  19.9800940 145.3567110  61.9565090  19.3202310
 144.1205620  62.2281190  20.1509190 141.0906570  63.3134650  17.3871350
 141.7777700  63.8603860  17.7678940 140.3038990  63.8575380  17.4220960
 133.2298970  58.9307470  12.8788430 134.0993820  59.2132270  13.1624350
 132.7389290  59.7443340  12.7637240 140.3933780  60.3180680  16.9996710
 140.8496560  61.1285930  17.2256900 140.0421990  60.0003820  17.8315200
 142.6966390  65.8287020  24.2289010 143.3408610  66.0346400  24.9062430
 143.0595830  65.0675420  23.7759860 136.2945560  50.6618330  17.4719230
 136.1660190  50.6536230  18.4204150 135.4707580  51.0001420  17.1210240
 143.9698470  63.8319370  22.9466460 144.6120700  63.1312530  23.0598630
 144.4947820  64.6117810  22.7663350 147.8154190  64.1167990  12.6705600
 147.5891770  63.3998430  13.2630240 147.4250390  63.8680430  11.8327350
 145.7436090  64.6314270  26.1502520 146.0792330  65.2180960  26.8280440
 144.8236430  64.5006980  26.3800310 133.5970220  68.1434850  13.4450060
 133.9567860  68.7424190  12.7907330 133.4562560  68.6894740  14.2185090
 133.2939490  52.4209450  26.9325930 132.5798010  52.6206370  27.5378540
 133.7134530  51.6449020  27.3040730 147.3970440  62.0339930  14.3319760
 147.1092140  62.4952620  15.1197640 148.1922610  61.5737700  14.6003980
 133.5812080  66.4089710  27.9192460 133.6903200  65.4684450  27.7787850
 132.9292640  66.6744460  27.2706190 141.5724670  64.6805600  29.3190580
 141.2521540  63.9614840  29.8636270 140.8983030  65.3560670  29.3926640
 139.6138840  65.5266050  14.2623730 139.6048940  66.2595740  13.6468240
 138.6937200  65.2797630  14.3550690 135.2145480  60.7480940  15.0070490
 134.6073430  61.4879840  15.0165790 135.6894830  60.8380300  14.1808690
 144.7878270  54.9131760  24.6827380 145.1559090  54.0926970  25.0106950
 143.9276470  54.9733650  25.0983030 148.1540300  53.8688700  15.4914940
 147.5253460  53.9734370  14.7773170 147.6592220  54.0885480  16.2808820
 142.5998440  65.5894290  12.9248920 142.7010420  65.3858280  11.9950900
 141.7000180  65.3352570  13.1296700 140.1224330  56.1474650  16.9072820
 139.4140480  56.6160990  17.3486430 140.4068810  55.4896660  17.5418010
 141.7480260  57.5671350  24.9065350 142.2465510  58.0417170  25.5717200
 141.8903210  56.6434870  25.1135380 144.1539760  52.8725310  18.3468610
 144.0307540  52.8911440  17.3978120 145.1024320  52.9204250  18.4667010
 141.2416550  68.1080610  17.6196590 141.4958050  68.0702000  16.6975960
 140.2929030  67.9813940  17.6124840 138.3259350  54.4559730  14.2823530
 139.1749880  54.8929880  14.2163720 137.9590620  54.7679990  15.1095590
 148.9547120  53.7839310  25.7493740 148.4520720  54.5244710  26.0887550
 149.7703780  54.1723310  25.4330530 147.2469130  59.0272490  19.1955100
 146.3059270  59.0422720  19.3702790 147.5613200  58.2408450  19.6415400
 137.2250770  60.7092090  12.7559060 137.9914040  60.5973450  13.3184490
 137.3025460  60.0130060  12.1035830 135.9197530  58.1417160  13.4391950
 136.0001120  57.1944670  13.5509350 136.8117280  58.4724040  13.5452610
 149.2494710  66.1981340  20.8709360 149.3742130  67.0212510  21.3433170
 150.1160270  65.9872070  20.5233510 136.7212240  68.2912550  20.5426490
 137.4574720  67.7428010  20.8135060 137.1053160  69.1568560  20.4032480
 133.6057720  64.3586120  16.4168000 132.6797500  64.6007260  16.4073410
 134.0714150  65.1860380  16.2952750 135.7270520  67.4758620  29.7312070
 136.5283250  67.7970670  30.1447470 135.2122340  67.1154200  30.4531980
 139.8314550  67.4642860  12.3652060 140.6243160  67.7531690  11.9133850
 139.3118900  67.0335030  11.6864540 144.5635150  63.5838490  29.6787480
 143.9573310  63.6070090  28.9383230 144.2589260  62.8521530  30.2154730
 145.9935520  67.3118780  28.2896890 146.9457270  67.2276800  28.2397130
 145.8463740  67.9760490  28.9630680 148.8844720  66.6912990  13.7888800
 148.5986230  66.2778130  12.9742980 148.6864270  67.6200700  13.6689320
 133.4468330  59.9632080  28.6748120 133.9507350  59.3839360  29.2464350
 132.7075750  60.2472310  29.2124490 140.3491950  62.6846270  12.2294410
 140.2442590  62.0698620  12.9555790 140.1816170  62.1612160  11.4457420
 140.5006270  61.3703070  28.2083640 139.7351940  61.9388070  28.1238310
 140.6822230  61.0779280  27.3151870 143.5894680  61.7466300  12.8336400
 143.0404780  62.1935600  13.4779140 144.2113940  61.2415550  13.3574070
 147.6429620  63.1008400  28.7658660 148.3839090  63.4384160  28.2626120
 146.8802300  63.2700460  28.2128430 135.4791410  58.1061670  29.5698190
 135.5196750  57.8075540  30.4783420 136.3336910  58.5069280  29.4105710
 139.2569800  60.7057220  14.7301700 139.6786220  60.5397090  15.5733090
 139.3820640  59.8957450  14.2356840 137.4197220  56.6853770  27.5372680
 136.8893680  56.1944720  26.9096020 138.0885290  57.1137970  27.0030610
 141.7697440  59.7294830  11.9778800 142.2903100  59.0143850  11.6119950
 142.4165840  60.3680700  12.2779310 146.3175280  61.1523230  27.3013870
 146.7316300  61.3068310  28.1504290 145.3826280  61.2778450  27.4639650
 146.7897450  58.4919390  29.3053020 147.3718220  57.7371710  29.2173500
 146.9659220  59.0226830  28.5284500 137.9069520  53.6516140  27.6169970
 137.8126390  53.0336890  26.8920840 137.3266910  54.3782430  27.3899880
 140.6730960  52.2089380  24.6497360 140.2248260  52.2313640  23.8042910
 140.0396160  51.8108400  25.2467660 141.0790510  61.1043710  25.2709800
 141.4978620  61.9476440  25.0986040 140.1599140  61.2415750  25.0416580
 143.4154410  58.8359890  26.6547640 143.5350620  58.2401030  27.3942480
 144.2748410  58.8729580  26.2348940 145.7542310  59.3897080  25.2310150
 145.2277530  59.9139700  24.6275290 146.0973650  60.0224470  25.8619880
 138.1528700  56.7790450  11.6759860 137.9517760  55.9157810  12.0373200
 137.9820750  56.6923810  10.7381460 138.9297930  67.4096720  26.3867530
 138.3919020  68.1342780  26.0676230 139.1831890  66.9327060  25.5964870
 140.1823180  55.3781240  27.9123460 140.7722870  55.0697090  28.6001280
 139.3643420  54.9060990  28.0683360 145.0016610  54.9947050  28.1456480
 144.3132130  54.3328590  28.0806470 145.7222630  54.5485320  28.5904940
 145.6317010  51.5898680  14.2046740 145.9119300  50.7466580  14.5606160
 144.8582740  51.8221790  14.7185490 136.9511500  53.8791070  11.6637740
 137.2537400  53.8858500  10.7556890 137.6906090  53.5288930  12.1605400
 141.7860140  68.6447930  26.6454180 141.7118840  69.5483070  26.9526550
 140.8838980  68.3259830  26.6176250 140.1696430  52.8225690  12.6493940
 139.8218430  52.1449680  12.0696390 140.3709200  52.3615200  13.4637330
 142.3345470  67.8106440  14.2680540 143.2296260  68.1491410  14.2899300
 142.3663100  67.0885850  13.6404820 135.9741630  63.1833490  12.4967540
 136.4116500  63.7263160  13.1525120 136.4589360  62.3580440  12.5063880
 133.1887430  65.9722520  19.9487800 133.5190440  65.1043580  19.7166440
 133.6178430  66.1781040  20.7792760 137.7849350  64.3031530  17.6089770
 137.4844890  64.1796500  18.5093680 137.6786840  63.4440120  17.2005500
 133.6777640  66.8393110  22.6869430 133.2408630  67.0193910  23.5193580
 134.2455320  67.5967730  22.5451150 149.3139820  66.3410110  26.9746740
 148.7141810  66.4002670  26.2310660 149.4433720  65.4015090  27.1043590
 133.5102070  59.3513340  19.0458310 132.8550910  59.0824980  18.4018010
 134.3480020  59.2417820  18.5960290 147.9991460  63.0662090  25.0722900
 147.1851300  63.4959250  25.3348690 148.4065660  63.6780500  24.4591950
 150.0616900  61.1209780  11.9723170 150.3365740  62.0288660  11.8442390
 149.8727640  61.0572310  12.9085160 146.4592510  54.1454630  13.2676800
 146.8777390  53.9585610  12.4273460 146.1528570  53.2933680  13.5779730
 149.9582240  59.0578770  16.9652600 149.5825840  58.2906700  16.5333890
 149.2285360  59.4401470  17.4527530 134.5478000  59.7365910  23.5861650
 134.9151040  59.6493310  24.4657670 133.9788820  58.9732460  23.4868510
 149.3481860  58.2050290  26.5992120 149.1167950  57.9763040  25.6990070
 149.6086410  59.1249840  26.5537010 134.0994000  56.6475000  27.4920070
 133.2050050  56.6141760  27.8313780 134.6391550  56.8461790  28.2571320
 147.7869930  53.4306720  29.3771820 148.6640110  53.4390120  29.7605820
 147.7990770  52.6937560  28.7664170 132.7240150  56.5612270  14.9883640
 131.8204230  56.8242470  14.8135300 133.2080770  56.8323440  14.2083600
 149.2333200  57.2836260  20.2659840 149.7570680  56.7898910  19.6350010
 149.8192620  57.4186620  21.0107410 149.4122920  57.3676130  23.7879390
 148.4625630  57.3339670  23.9024380 149.5935930  58.2776240  23.5529160
 135.2667360  55.6177810  12.8978020 135.9759060  55.1961030  12.4125300
 134.5507300  55.6853040  12.2661370 134.9141520  51.6717140  11.9380670
 135.6369650  52.2126080  12.2561890 135.1866040  51.3980560  11.0622210
 148.7233170  56.5409610  16.2052250 149.2192290  56.3080480  16.9901130
 148.5249240  55.7021450  15.7889890 134.6033710  50.9223330  21.8403290
 135.2509900  50.3720710  21.3998450 135.0235550  51.1766480  22.6619100
 148.4986050  51.1164690  25.1972930 149.1358270  51.7298830  25.5632120
 148.6460940  51.1525350  24.2522160 148.0567510  67.8180690  18.5991170
 148.6526580  67.4965260  17.9225590 148.3145660  67.3452510  19.3904440
 134.3565710  51.0779000  24.5828610 134.0080530  51.5342820  25.3486790
 134.0253410  50.1836130  24.6651040 135.9630080  64.2498600  28.7481800
 135.9199710  63.8791510  29.6296260 136.0941090  65.1876170  28.8883620
 139.6636110  65.8058190  24.3491520 139.4227470  66.0732750  23.4622040
 140.6038750  65.9763920  24.4042380 141.8690530  52.2690880  28.1048030
 141.8079420  52.8612710  28.8543440 142.8090910  52.1616840  27.9598290
 144.5065090  51.9260940  27.7440320 145.1205500  52.2440230  27.0821400
 145.0514650  51.4409530  28.3636180 135.0286350  50.6055200  27.8579380
 135.5769340  50.4243250  27.0945490 135.0941660  49.8149310  28.3935690
 135.8018110  67.1960850  25.8679580 135.2078430  67.0645550  26.6069620
 135.7941950  66.3598990  25.4021680 145.2473130  50.4893080  24.0709610
 144.3732970  50.8228190  23.8682540 145.1383880  50.0166260  24.8961480
 146.1545110  52.6963950  25.4551330 145.8258470  51.8815710  25.0753060
 147.1027410  52.6533760  25.3317020 148.6079720  68.4675990  22.4288900
 148.1482690  69.2191800  22.0546920 147.9792180  67.7482460  22.3703700
 135.4330340  64.5619230  24.8187620 134.7064400  63.9424520  24.7513570
 135.4939490  64.9559840  23.9485700 139.0375440  66.7764230  21.6037030
 139.5540460  66.1651590  21.0785290 139.6872820  67.2793010  22.0948040
 141.7770940  67.6672720  22.4306010 142.0648750  67.4127020  21.5539020
 142.2894160  67.1150080  23.0211580 142.9947950  51.4062920  23.0102520
 142.2119740  51.8808420  23.2899280 142.7010880  50.5017750  22.9015700
 147.5469020  52.1086020  21.0551610 147.9877110  52.0531120  20.2073210
 147.2776610  53.0244030  21.1261790 149.4107590  51.7401260  19.0660430
 149.3495990  50.7962480  18.9191450 150.1899620  51.8481350  19.6113890
 133.7160340  67.8793620  18.0284380 133.5482380  67.2464300  18.7266270
 132.8494850  68.0853020  17.6778570 134.3388360  51.7110400  15.5316240
 135.0967720  51.8239280  14.9580270 133.8765530  52.5479600  15.4859670
 140.8802170  53.8249670  18.5218550 140.0676680  53.4506560  18.1814430
 141.3843810  53.0694750  18.8239740 145.3827150  50.4892120  19.7601620
 145.9856520  51.0612330  20.2350140 144.6420140  51.0531560  19.5375520
 148.5261750  50.8913680  15.0341900 148.7212380  51.7897130  15.3009330
 147.7391620  50.6600760  15.5274850 135.3223040  66.5726850  15.4734520
 134.7970660  66.9534880  14.7696480 135.2467620  67.1977620  16.1944230
 136.7113510  52.2374450  14.0718210 137.2406270  51.4504250  13.9426160
 137.3441830  52.9165640  14.3053740 138.9051350  51.9749590  17.1263600
 138.2754090  51.2736900  17.2933730 138.3656490  52.7353720  16.9096760
 141.8443300  68.5888820  29.7974210 142.7710610  68.3533090  29.8410170
 141.8293730  69.4160820  29.3160240 150.0788360  68.1314390  16.7948460
 150.2540550  67.4452130  16.1509380 149.3809930  68.6561440  16.4025130
 139.0306910  51.2533570  29.5616090 138.7491180  51.7567170  28.7976910
 139.4126610  50.4555320  29.1958220 137.9216010  68.5209230  14.3483770
 138.6534830  68.2368510  13.8007660 138.1809680  68.2822510  15.2383150
 137.0830800  64.6373960  14.3530100 136.4539680  65.1059060  14.9015930
 137.1978630  63.7923180  14.7876290 145.6322370  50.6687150  30.1396560
 145.5187820  50.9881760  31.0348080 146.4492110  51.0699660  29.8433840
 148.4120860  67.8158680  29.6215250 149.2046180  67.3207910  29.4141210
 148.7054010  68.4948820  30.2290860 142.6698560  60.4658640   2.3840570
 141.8940660  59.9859080   2.6739140 143.3211490  59.7864290   2.2096730
 136.6864390  60.7778450   3.2616330 135.8549270  60.5227160   3.6612840
 137.2945370  60.8489220   3.9974250 136.6665650  64.8118540   3.4574350
 136.9693690  63.9216280   3.2784570 137.4109240  65.3688760   3.2296600
 133.0589350  58.3385990   2.9298420 133.6305460  57.5708190   2.9302060
 133.0590890  58.6374750   2.0205030 142.1107550  63.1415830   2.3910730
 142.0415830  62.2005770   2.2299860 142.8727410  63.2317240   2.9633300
 134.3014220  53.7470350   4.7167350 134.1217060  52.8496100   4.9970110
 133.8994300  54.2942220   5.3914300 143.1412720  55.9486210   2.6179660
 143.5177540  55.0758090   2.5053330 143.0432230  56.2844910   1.7270100
 134.9200890  56.2430850   3.3249690 135.6011000  56.5069220   3.9437090
 134.6048940  55.4031720   3.6587700 139.1125460  57.2898210   2.4122280
 139.6203680  57.7879180   3.0527300 139.6438700  56.5133410   2.2361640
 137.3961560  51.9296770   6.6785700 137.3980000  52.4469160   5.8731600
 136.5665870  51.4526950   6.6555630 138.6464410  61.5691950   4.8559200
 138.3133790  62.1960870   5.4980270 138.8231090  62.0953830   4.0760870
 147.1598320  55.3837030   2.3235540 146.4553890  55.6721920   2.9038650
 147.5210480  56.1937140   1.9635100 137.0776890  53.6406730   4.6856150
 137.4193700  54.4848780   4.3910020 136.1392700  53.7890470   4.8021490
 137.8583510  63.5372750   6.6708380 138.4757510  64.2123830   6.3892830
 136.9976630  63.9460730   6.5795880 148.7761100  65.0012160   4.5863020
 148.0924620  65.6711270   4.5779690 149.3155390  65.1992810   3.8207880
 146.3119840  66.8456290   3.3008200 146.3247000  66.4418580   2.4330460
 145.7595060  67.6203580   3.1969630 145.7105280  61.7486130   4.6290810
 146.1274070  61.5346240   3.7944270 146.4345100  62.0058920   5.1999430
 149.6567380  60.1473350   4.7207050 148.8286010  60.2166440   4.2457180
 150.2517860  60.7327660   4.2522880 146.6209390  56.9342670   5.6661920
 146.2080570  57.7596380   5.9201910 145.8885340  56.3487710   5.4738280
 139.2223880  63.4070130   2.6919800 138.9252170  62.8015600   2.0127580
 140.1723700  63.4447440   2.5809160 137.4670800  56.4945780   4.3079630
 138.0185390  56.6041120   3.5332880 137.9814310  56.8683380   5.0234860
 147.3109490  66.9802000   6.3542900 146.8340050  67.7874190   6.1615510
 146.6271280  66.3280330   6.5069110 138.3142310  63.1451820   9.3427600
 137.4170840  63.3691790   9.5901000 138.3395180  63.2686760   8.3939000
 137.1413530  60.0165140   7.9184970 137.0021300  60.8887940   8.2872370
 136.2594890  59.6737950   7.7732910 138.9393880  65.9586840  10.1270120
 138.9109310  66.3629790   9.2598550 138.7758850  65.0297200   9.9641720
 133.0932180  61.7862690   3.8355880 133.1712600  61.9211460   2.8911600
 133.7073860  61.0778580   4.0284000 150.2941950  63.9326790   8.5834300
 150.4205010  63.6938670   7.6651480 150.3363330  63.1011330   9.0556380
 144.1558690  67.6354790   7.1529110 144.6703360  67.5462800   7.9551540
 143.3127770  67.9814490   7.4457020 150.1465960  55.9859250   9.5484040
 149.5310230  56.4938920   9.0199500 149.8262380  55.0857580   9.4909980
 133.1491700  62.8276860   6.3750340 133.3122740  62.3582220   5.5569710
 133.6144150  62.3200420   7.0399180 142.2080280  54.8251140   7.0146230
 141.7459650  55.0334160   7.8266170 141.8058390  54.0110490   6.7116900
 147.2084790  56.0460090   8.1442890 146.3578380  55.7465840   8.4651960
 147.0486580  56.2902100   7.2326710 144.3034500  57.5461840  10.2441680
 144.6287910  56.7125590   9.9043910 145.0914830  58.0690360  10.3920010
 139.9586370  52.5029950   3.2700510 140.2558700  53.4092780   3.1892530
 140.5071930  52.0148730   2.6560080 140.1523900  57.9801770   9.8052430
 140.0567500  57.0396500   9.6552830 140.9955880  58.2016840   9.4100500
 135.2834440  54.3915440   7.9586210 134.8897830  55.2390650   8.1658990
 134.5952840  53.7541810   8.1494850 141.8579490  54.4750410  11.0282950
 141.1677810  54.2822610  11.6629040 142.6011790  54.7585050  11.5607250
 132.5851490  52.3143900   1.9916290 132.2964540  52.8846760   2.7041270
 133.3297250  51.8348350   2.3547520 144.1342460  58.3148850   3.8636870
 143.4023580  58.8235660   4.2126970 143.7366800  57.4978830   3.5625650
 140.5719850  54.9903050   2.2689360 140.5755910  54.5493000   1.4193900
 141.4670970  55.3120380   2.3761180 144.5968370  53.7682530   3.2759810
 144.6141110  54.2191180   4.1201660 144.3483950  52.8688170   3.4893250
 148.0239120  51.1814710   9.1146190 148.3484890  50.4504370   9.6404170
 148.0595630  50.8628350   8.2127180 134.7230680  62.2028290   8.5346150
 134.3385470  61.5621960   9.1329110 135.0342870  62.9064410   9.1040880
 140.8727820  59.0504830   4.0154770 141.2397950  58.5763400   4.7616110
 140.6832880  59.9246400   4.3563110 138.6627190  58.0913470   6.3338980
 138.3584260  58.9705450   6.5589340 139.6173650  58.1513260   6.3696420
 147.9496960  61.2939820   2.7232220 148.6696080  61.7895110   2.3328330
 147.7478780  60.6157710   2.0786090 143.3315760  61.3648880   8.6101220
 143.2653070  60.4444550   8.3558810 142.7020900  61.4624320   9.3245860
 134.7190920  58.9316210   7.4810340 134.3605860  59.5970060   8.0683680
 134.4245480  58.0999760   7.8522960 137.9204040  59.3900450  10.3649890
 137.6204180  59.5357630   9.4677710 138.6915280  58.8305740  10.2723280
 143.2632490  64.1869450   8.3605020 143.2777030  63.2550410   8.1423930
 142.5557590  64.2729210   8.9994790 149.4743700  60.8276790   7.7073600
 148.7491890  61.4205570   7.5102990 150.0019160  60.8200330   6.9086970
 142.6966390  65.8287020   5.4545520 143.3408610  66.0346400   6.1318940
 143.0595830  65.0675420   5.0016370 143.9698470  63.8319370   4.1722970
 144.6120700  63.1312530   4.2855140 144.4947820  64.6117810   3.9919860
 145.7436090  64.6314270   7.3759030 146.0792330  65.2180960   8.0536950
 144.8236430  64.5006980   7.6056820 133.2939490  52.4209450   8.1582440
 132.5798010  52.6206370   8.7635050 133.7134530  51.6449020   8.5297240
 133.5812080  66.4089710   9.1448970 133.6903200  65.4684450   9.0044360
 132.9292640  66.6744460   8.4962700 141.5724670  64.6805600  10.5447090
 141.2521540  63.9614840  11.0892780 140.8983030  65.3560670  10.6183150
 144.7878270  54.9131760   5.9083890 145.1559090  54.0926970   6.2363460
 143.9276470  54.9733650   6.3239540 141.7480260  57.5671350   6.1321860
 142.2465510  58.0417170   6.7973710 141.8903210  56.6434870   6.3391890
 148.9547120  53.7839310   6.9750250 148.4520720  54.5244710   7.3144060
 149.7703780  54.1723310   6.6587040 149.2494710  66.1981340   2.0965870
 149.3742130  67.0212510   2.5689680 150.1160270  65.9872070   1.7490020
 136.7212240  68.2912550   1.7683000 137.4574720  67.7428010   2.0391570
 137.1053160  69.1568560   1.6288990 135.7270520  67.4758620  10.9568580
 136.5283250  67.7970670  11.3703980 135.2122340  67.1154200  11.6788490
 144.5635150  63.5838490  10.9043990 143.9573310  63.6070090  10.1639740
 144.2589260  62.8521530  11.4411240 145.9935520  67.3118780   9.5153400
 146.9457270  67.2276800   9.4653640 145.8463740  67.9760490  10.1887190
 133.4468330  59.9632080   9.9004630 133.9507350  59.3839360  10.4720860
 132.7075750  60.2472310  10.4381000 140.5006270  61.3703070   9.4340150
 139.7351940  61.9388070   9.3494820 140.6822230  61.0779280   8.5408380
 147.6429620  63.1008400   9.9915170 148.3839090  63.4384160   9.4882630
 146.8802300  63.2700460   9.4384940 135.4791410  58.1061670  10.7954700
 135.5196750  57.8075540  11.7039930 136.3336910  58.5069280  10.6362220
 137.4197220  56.6853770   8.7629190 136.8893680  56.1944720   8.1352530
 138.0885290  57.1137970   8.2287120 146.3175280  61.1523230   8.5270380
 146.7316300  61.3068310   9.3760800 145.3826280  61.2778450   8.6896160
 146.7897450  58.4919390  10.5309530 147.3718220  57.7371710  10.4430010
 146.9659220  59.0226830   9.7541010 137.9069520  53.6516140   8.8426480
 137.8126390  53.0336890   8.1177350 137.3266910  54.3782430   8.6156390
 140.6730960  52.2089380   5.8753870 140.2248260  52.2313640   5.0299420
 140.0396160  51.8108400   6.4724170 141.0790510  61.1043710   6.4966310
 141.4978620  61.9476440   6.3242550 140.1599140  61.2415750   6.2673090
 143.4154410  58.8359890   7.8804150 143.5350620  58.2401030   8.6198990
 144.2748410  58.8729580   7.4605450 145.7542310  59.3897080   6.4566660
 145.2277530  59.9139700   5.8531800 146.0973650  60.0224470   7.0876390
 138.9297930  67.4096720   7.6124040 138.3919020  68.1342780   7.2932740
 139.1831890  66.9327060   6.8221380 140.1823180  55.3781240   9.1379970
 140.7722870  55.0697090   9.8257790 139.3643420  54.9060990   9.2939870
 145.0016610  54.9947050   9.3712990 144.3132130  54.3328590   9.3062980
 145.7222630  54.5485320   9.8161450 141.7860140  68.6447930   7.8710690
 141.7118840  69.5483070   8.1783060 140.8838980  68.3259830   7.8432760
 133.6777640  66.8393110   3.9125940 133.2408630  67.0193910   4.7450090
 134.2455320  67.5967730   3.7707660 149.3139820  66.3410110   8.2003250
 148.7141810  66.4002670   7.4567170 149.4433720  65.4015090   8.3300100
 147.9991460  63.0662090   6.2979410 147.1851300  63.4959250   6.5605200
 148.4065660  63.6780500   5.6848460 134.5478000  59.7365910   4.8118160
 134.9151040  59.6493310   5.6914180 133.9788820  58.9732460   4.7125020
 149.3481860  58.2050290   7.8248630 149.1167950  57.9763040   6.9246580
 149.6086410  59.1249840   7.7793520 134.0994000  56.6475000   8.7176580
 133.2050050  56.6141760   9.0570290 134.6391550  56.8461790   9.4827830
 147.7869930  53.4306720  10.6028330 148.6640110  53.4390120  10.9862330
 147.7990770  52.6937560   9.9920680 149.4122920  57.3676130   5.0135900
 148.4625630  57.3339670   5.1280890 149.5935930  58.2776240   4.7785670
 134.6033710  50.9223330   3.0659800 135.2509900  50.3720710   2.6254960
 135.0235550  51.1766480   3.8875610 148.4986050  51.1164690   6.4229440
 149.1358270  51.7298830   6.7888630 148.6460940  51.1525350   5.4778670
 134.3565710  51.0779000   5.8085120 134.0080530  51.5342820   6.5743300
 134.0253410  50.1836130   5.8907550 135.9630080  64.2498600   9.9738310
 135.9199710  63.8791510  10.8552770 136.0941090  65.1876170  10.1140130
 139.6636110  65.8058190   5.5748030 139.4227470  66.0732750   4.6878550
 140.6038750  65.9763920   5.6298890 141.8690530  52.2690880   9.3304540
 141.8079420  52.8612710  10.0799950 142.8090910  52.1616840   9.1854800
 144.5065090  51.9260940   8.9696830 145.1205500  52.2440230   8.3077910
 145.0514650  51.4409530   9.5892690 135.0286350  50.6055200   9.0835890
 135.5769340  50.4243250   8.3202000 135.0941660  49.8149310   9.6192200
 135.8018110  67.1960850   7.0936090 135.2078430  67.0645550   7.8326130
 135.7941950  66.3598990   6.6278190 145.2473130  50.4893080   5.2966120
 144.3732970  50.8228190   5.0939050 145.1383880  50.0166260   6.1217990
 146.1545110  52.6963950   6.6807840 145.8258470  51.8815710   6.3009570
 147.1027410  52.6533760   6.5573530 148.6079720  68.4675990   3.6545410
 148.1482690  69.2191800   3.2803430 147.9792180  67.7482460   3.5960210
 135.4330340  64.5619230   6.0444130 134.7064400  63.9424520   5.9770080
 135.4939490  64.9559840   5.1742210 139.0375440  66.7764230   2.8293540
 139.5540460  66.1651590   2.3041800 139.6872820  67.2793010   3.3204550
 141.7770940  67.6672720   3.6562520 142.0648750  67.4127020   2.7795530
 142.2894160  67.1150080   4.2468090 142.9947950  51.4062920   4.2359030
 142.2119740  51.8808420   4.5155790 142.7010880  50.5017750   4.1272210
 147.5469020  52.1086020   2.2808120 147.9877110  52.0531120   1.4329720
 147.2776610  53.0244030   2.3518300 141.8443300  68.5888820  11.0230720
 142.7710610  68.3533090  11.0666680 141.8293730  69.4160820  10.5416750
 139.0306910  51.2533570  10.7872600 138.7491180  51.7567170  10.0233420
 139.4126610  50.4555320  10.4214730 145.6322370  50.6687150  11.3653070
 145.5187820  50.9881760  12.2604590 146.4492110  51.0699660  11.0690350
 148.4120860  67.8158680  10.8471760 149.2046180  67.3207910  10.6397720
 148.7054010  68.4948820  11.4547370 144.5380520  39.9136130 150.6979220
 144.4574570  38.9990740 150.4270930 144.1244940  40.4103200 149.9918930
 142.6698560  41.6915150 152.5788490 141.8940660  41.2115590 152.8687060
 143.3211490  41.0120800 152.4044650 146.6905990  46.0975340 151.3587620
 146.2287520  45.3262580 151.6874790 147.5031540  46.1241410 151.8640070
 135.0956340  36.9636850 147.2406640 134.2073040  37.3052820 147.1386520
 135.3797530  36.7637170 146.3487470 133.0589350  39.5642500 153.1246340
 133.6305460  38.7964700 153.1249980 133.0590890  39.8631260 152.2152950
 142.9169300  48.3833350 150.9791610 142.2980740  48.8390850 150.4086050
 143.7721080  48.5384810 150.5781310 142.1107550  44.3672340 152.5858650
 142.0415830  43.4262280 152.4247780 142.8727410  44.4573750 153.1581220
 143.1412720  37.1742720 152.8127580 143.5177540  36.3014600 152.7001250
 143.0432230  37.5101420 151.9218020 137.2717730  35.5468350 148.2745020
 137.3784480  36.4472080 148.5813780 136.3610090  35.4986320 147.9839670
 146.9236840  34.6693160 149.7455920 147.7446460  34.1789730 149.7881400
 146.9570920  35.2590820 150.4987760 143.7832650  43.2672590 148.3723520
 143.1649920  43.7322040 147.8086240 144.2955900  43.9600070 148.7893030
 147.1598320  36.6093540 152.5183460 146.4553890  36.8978430 153.0986570
 147.5210480  37.4193650 152.1583020 133.1515850  43.9529120 145.7463150
 132.7743830  44.4416220 145.0148050 133.4088920  44.6254400 146.3769680
 140.7604780  32.3545510 151.2048660 141.0679760  31.7992400 150.4884160
 139.8305480  32.4889970 151.0221650 147.6065260  44.7929020 148.5846290
 147.4961590  43.8503350 148.7095710 147.6033510  45.1544660 149.4709050
 143.1485540  40.4194340 147.9408780 142.2214820  40.3531720 148.1697250
 143.3010360  41.3574470 147.8264020 143.1354620  36.6911340 144.9375940
 142.1958290  36.8525300 145.0228400 143.4537880  37.4097020 144.3911930
 147.1782830  41.9814640 148.4444030 146.5595250  41.6434190 147.7970330
 147.1607280  41.3374400 149.1523220 138.7542180  40.9459080 150.7228510
 138.3499180  40.2336330 150.2274410 138.8405300  40.6012320 151.6116550
 139.2223880  44.6326640 152.8867720 138.9252170  44.0272110 152.2075500
 140.1723700  44.6703950 152.7757080 145.3547530  41.2201450 145.4516780
 145.7940810  40.3823880 145.3054600 146.0675950  41.8530850 145.5380920
 143.4642910  46.1597520 149.4198020 143.9038820  46.9021850 149.0053410
 143.4029800  46.4024090 150.3436980 148.9364670  32.4744260 143.7657820
 148.6237330  32.5671090 144.6656890 149.6977140  33.0525290 143.7155250
 135.4546810  39.8404060 148.2235160 135.3344410  40.5666150 147.6116430
 135.1447700  39.0706970 147.7463070 134.3379810  44.7119390 150.4409980
 133.9307890  44.8533980 149.5863580 135.2292820  44.4279550 150.2381190
 146.1313090  49.1466640 146.7761030 145.9714230  48.8569580 147.6742860
 145.9659800  48.3706770 146.2406260 138.6101470  48.9265170 148.5532650
 138.4343950  48.0100710 148.3400450 137.7557210  49.2852460 148.7930450
 145.8339220  46.6554200 145.3359030 145.1404380  46.6531490 144.6761310
 146.5762080  46.2313520 144.9053200 145.3989150  48.2816910 149.4107520
 145.8546100  47.5006290 149.7246140 145.7381670  48.9923730 149.9548700
 137.9210470  33.1839130 151.6058830 137.4778620  33.9648670 151.2743350
 138.4795460  33.5069020 152.3129770 141.0369290  32.8049830 146.4864660
 140.4123470  32.8009700 147.2117970 140.9499410  31.9380790 146.0900630
 137.7124690  38.3072700 149.3340080 137.4865610  38.0909870 150.2386700
 136.9317220  38.7401160 148.9886050 144.9422450  38.3136070 147.9330730
 144.3431340  39.0371870 147.7494350 145.4902060  38.2512850 147.1507180
 143.5487320  36.9499610 149.9634010 143.9416890  37.2671810 149.1502700
 143.9104170  36.0711490 150.0778530 132.5851490  33.5400410 152.1864210
 132.2964540  34.1103270 152.8989190 133.3297250  33.0604860 152.5495440
 132.7721720  37.4820530 143.3966930 132.6896390  38.4251290 143.5381920
 132.4204780  37.3395440 142.5179280 140.5719850  36.2159560 152.4637280
 140.5755910  35.7749510 151.6141820 141.4670970  36.5376890 152.5709100
 136.4222230  36.0986050 151.4231490 136.0822280  36.5761280 152.1798540
 135.6599550  35.6451170 151.0632590 140.6340000  37.2171640 145.4544040
 140.7552820  37.1758120 146.4029860 140.2488510  38.0795790 145.2990770
 139.6461500  39.5272780 144.8527340 139.0778400  39.0791030 144.2263250
 140.3550500  39.8865560 144.3192490 133.7368310  35.0205030 150.3396160
 133.4515230  34.6560700 151.1774780 133.6747170  34.2885490 149.7259300
 137.1908980  43.5230970 147.1253750 136.4171240  42.9828590 146.9652470
 137.9203610  43.0037580 146.7871510 147.9496960  42.5196330 152.9180140
 148.6696080  43.0151620 152.5276250 147.7478780  41.8414220 152.2734010
 143.4106900  33.9134290 147.0609530 142.5971510  33.4147460 146.9854840
 143.2168850  34.7532540 146.6445880 146.1255290  38.2853940 145.3571690
 147.0134910  38.5971170 145.1823030 146.0960380  37.4126190 144.9652270
 137.2346380  43.1911350 150.7632560 137.7525050  42.3879610 150.7089450
 136.7830400  43.1290490 151.6049390 142.1215880  44.4577630 146.0359860
 142.4631580  45.2019860 145.5403180 141.2928590  44.7708750 146.3984690
 148.3969560  39.5965780 144.8251550 148.3133280  40.0280000 143.9747990
 149.1163750  40.0564130 145.2578370 149.4256810  46.4508040 147.5533680
 148.7832970  45.7963660 147.8277400 149.0387470  46.8563130 146.7774350
 145.0043290  43.7793470 151.4005370 145.3567110  43.1821600 150.7406740
 144.1205620  43.4537700 151.5713620 141.0906570  44.5391160 148.8075780
 141.7777700  45.0860370 149.1883370 140.3038990  45.0831890 148.8425390
 133.2298970  40.1563980 144.2992860 134.0993820  40.4388780 144.5828780
 132.7389290  40.9699850 144.1841670 140.3933780  41.5437190 148.4201140
 140.8496560  42.3542440 148.6461330 140.0421990  41.2260330 149.2519630
 136.2945560  31.8874840 148.8923660 136.1660190  31.8792740 149.8408580
 135.4707580  32.2257930 148.5414670 147.8154190  45.3424500 144.0910030
 147.5891770  44.6254940 144.6834670 147.4250390  45.0936940 143.2531780
 133.5970220  49.3691360 144.8654490 133.9567860  49.9680700 144.2111760
 133.4562560  49.9151250 145.6389520 147.3970440  43.2596440 145.7524190
 147.1092140  43.7209130 146.5402070 148.1922610  42.7994210 146.0208410
 139.6138840  46.7522560 145.6828160 139.6048940  47.4852250 145.0672670
 138.6937200  46.5054140 145.7755120 135.2145480  41.9737450 146.4274920
 134.6073430  42.7136350 146.4370220 135.6894830  42.0636810 145.6013120
 148.1540300  35.0945210 146.9119370 147.5253460  35.1990880 146.1977600
 147.6592220  35.3141990 147.7013250 142.5998440  46.8150800 144.3453350
 142.7010420  46.6114790 143.4155330 141.7000180  46.5609080 144.5501130
 140.1224330  37.3731160 148.3277250 139.4140480  37.8417500 148.7690860
 140.4068810  36.7153170 148.9622440 144.1539760  34.0981820 149.7673040
 144.0307540  34.1167950 148.8182550 145.1024320  34.1460760 149.8871440
 141.2416550  49.3337120 149.0401020 141.4958050  49.2958510 148.1180390
 140.2929030  49.2070450 149.0329270 138.3259350  35.6816240 145.7027960
 139.1749880  36.1186390 145.6368150 137.9590620  35.9936500 146.5300020
 147.2469130  40.2529000 150.6159530 146.3059270  40.2679230 150.7907220
 147.5613200  39.4664960 151.0619830 137.2250770  41.9348600 144.1763490
 137.9914040  41.8229960 144.7388920 137.3025460  41.2386570 143.5240260
 135.9197530  39.3673670 144.8596380 136.0001120  38.4201180 144.9713780
 136.8117280  39.6980550 144.9657040 149.2494710  47.4237850 152.2913790
 149.3742130  48.2469020 152.7637600 150.1160270  47.2128580 151.9437940
 136.7212240  49.5169060 151.9630920 137.4574720  48.9684520 152.2339490
 137.1053160  50.3825070 151.8236910 133.6057720  45.5842630 147.8372430
 132.6797500  45.8263770 147.8277840 134.0714150  46.4116890 147.7157180
 139.8314550  48.6899370 143.7856490 140.6243160  48.9788200 143.3338280
 139.3118900  48.2591540 143.1068970 148.8844720  47.9169500 145.2093230
 148.5986230  47.5034640 144.3947410 148.6864270  48.8457210 145.0893750
 140.3491950  43.9102780 143.6498840 140.2442590  43.2955130 144.3760220
 140.1816170  43.3868670 142.8661850 143.5894680  42.9722810 144.2540830
 143.0404780  43.4192110 144.8983570 144.2113940  42.4672060 144.7778500
 139.2569800  41.9313730 146.1506130 139.6786220  41.7653600 146.9937520
 139.3820640  41.1213960 145.6561270 141.7697440  40.9551340 143.3983230
 142.2903100  40.2400360 143.0324380 142.4165840  41.5937210 143.6983740
 138.1528700  38.0046960 143.0964290 137.9517760  37.1414320 143.4577630
 137.9820750  37.9180320 142.1585890 145.6317010  32.8155190 145.6251170
 145.9119300  31.9723090 145.9810590 144.8582740  33.0478300 146.1389920
 136.9511500  35.1047580 143.0842170 137.2537400  35.1115010 142.1761320
 137.6906090  34.7545440 143.5809830 140.1696430  34.0482200 144.0698370
 139.8218430  33.3706190 143.4900820 140.3709200  33.5871710 144.8841760
 142.3345470  49.0362950 145.6884970 143.2296260  49.3747920 145.7103730
 142.3663100  48.3142360 145.0609250 135.9741630  44.4090000 143.9171970
 136.4116500  44.9519670 144.5729550 136.4589360  43.5836950 143.9268310
 133.1887430  47.1979030 151.3692230 133.5190440  46.3300090 151.1370870
 133.6178430  47.4037550 152.1997190 137.7849350  45.5288040 149.0294200
 137.4844890  45.4053010 149.9298110 137.6786840  44.6696630 148.6209930
 133.5102070  40.5769850 150.4662740 132.8550910  40.3081490 149.8222440
 134.3480020  40.4674330 150.0164720 150.0616900  42.3466290 143.3927600
 150.3365740  43.2545170 143.2646820 149.8727640  42.2828820 144.3289590
 146.4592510  35.3711140 144.6881230 146.8777390  35.1842120 143.8477890
 146.1528570  34.5190190 144.9984160 149.9582240  40.2835280 148.3857030
 149.5825840  39.5163210 147.9538320 149.2285360  40.6657980 148.8731960
 132.7240150  37.7868780 146.4088070 131.8204230  38.0498980 146.2339730
 133.2080770  38.0579950 145.6288030 149.2333200  38.5092770 151.6864270
 149.7570680  38.0155420 151.0554440 149.8192620  38.6443130 152.4311840
 135.2667360  36.8434320 144.3182450 135.9759060  36.4217540 143.8329730
 134.5507300  36.9109550 143.6865800 134.9141520  32.8973650 143.3585100
 135.6369650  33.4382590 143.6766320 135.1866040  32.6237070 142.4826640
 148.7233170  37.7666120 147.6256680 149.2192290  37.5336990 148.4105560
 148.5249240  36.9277960 147.2094320 148.0567510  49.0437200 150.0195600
 148.6526580  48.7221770 149.3430020 148.3145660  48.5709020 150.8108870
 147.5469020  33.3342530 152.4756040 147.9877110  33.2787630 151.6277640
 147.2776610  34.2500540 152.5466220 149.4107590  32.9657770 150.4864860
 149.3495990  32.0218990 150.3395880 150.1899620  33.0737860 151.0318320
 133.7160340  49.1050130 149.4488810 133.5482380  48.4720810 150.1470700
 132.8494850  49.3109530 149.0983000 134.3388360  32.9366910 146.9520670
 135.0967720  33.0495790 146.3784700 133.8765530  33.7736110 146.9064100
 140.8802170  35.0506180 149.9422980 140.0676680  34.6763070 149.6018860
 141.3843810  34.2951260 150.2444170 145.3827150  31.7148630 151.1806050
 145.9856520  32.2868840 151.6554570 144.6420140  32.2788070 150.9579950
 148.5261750  32.1170190 146.4546330 148.7212380  33.0153640 146.7213760
 147.7391620  31.8857270 146.9479280 135.3223040  47.7983360 146.8938950
 134.7970660  48.1791390 146.1900910 135.2467620  48.4234130 147.6148660
 136.7113510  33.4630960 145.4922640 137.2406270  32.6760760 145.3630590
 137.3441830  34.1422150 145.7258170 138.9051350  33.2006100 148.5468030
 138.2754090  32.4993410 148.7138160 138.3656490  33.9610230 148.3301190
 150.0788360  49.3570900 148.2152890 150.2540550  48.6708640 147.5713810
 149.3809930  49.8817950 147.8229560 137.9216010  49.7465740 145.7688200
 138.6534830  49.4625020 145.2212090 138.1809680  49.5079020 146.6587580
 137.0830800  45.8630470 145.7734530 136.4539680  46.3315570 146.3220360
 137.1978630  45.0179690 146.2080720 144.5380520  39.9136130 131.9235730
 144.4574570  38.9990740 131.6527440 144.1244940  40.4103200 131.2175440
 142.6698560  41.6915150 133.8045000 141.8940660  41.2115590 134.0943570
 143.3211490  41.0120800 133.6301160 136.6864390  42.0034960 134.6820760
 135.8549270  41.7483670 135.0817270 137.2945370  42.0745730 135.4178680
 146.6905990  46.0975340 132.5844130 146.2287520  45.3262580 132.9131300
 147.5031540  46.1241410 133.0896580 136.6665650  46.0375050 134.8778780
 136.9693690  45.1472790 134.6989000 137.4109240  46.5945270 134.6501030
 135.0956340  36.9636850 128.4663150 134.2073040  37.3052820 128.3643030
 135.3797530  36.7637170 127.5743980 133.0589350  39.5642500 134.3502850
 133.6305460  38.7964700 134.3506490 133.0590890  39.8631260 133.4409460
 142.9169300  48.3833350 132.2048120 142.2980740  48.8390850 131.6342560
 143.7721080  48.5384810 131.8037820 142.1107550  44.3672340 133.8115160
 142.0415830  43.4262280 133.6504290 142.8727410  44.4573750 134.3837730
 134.3014220  34.9726860 136.1371780 134.1217060  34.0752610 136.4174540
 133.8994300  35.5198730 136.8118730 143.1412720  37.1742720 134.0384090
 143.5177540  36.3014600 133.9257760 143.0432230  37.5101420 133.1474530
 137.2717730  35.5468350 129.5001530 137.3784480  36.4472080 129.8070290
 136.3610090  35.4986320 129.2096180 146.9236840  34.6693160 130.9712430
 147.7446460  34.1789730 131.0137910 146.9570920  35.2590820 131.7244270
 134.9200890  37.4687360 134.7454120 135.6011000  37.7325730 135.3641520
 134.6048940  36.6288230 135.0792130 139.1125460  38.5154720 133.8326710
 139.6203680  39.0135690 134.4731730 139.6438700  37.7389920 133.6566070
 137.3961560  33.1553280 138.0990130 137.3980000  33.6725670 137.2936030
 136.5665870  32.6783460 138.0760060 143.7832650  43.2672590 129.5980030
 143.1649920  43.7322040 129.0342750 144.2955900  43.9600070 130.0149540
 138.6464410  42.7948460 136.2763630 138.3133790  43.4217380 136.9184700
 138.8231090  43.3210340 135.4965300 147.1598320  36.6093540 133.7439970
 146.4553890  36.8978430 134.3243080 147.5210480  37.4193650 133.3839530
 137.0776890  34.8663240 136.1060580 137.4193700  35.7105290 135.8114450
 136.1392700  35.0146980 136.2225920 137.8583510  44.7629260 138.0912810
 138.4757510  45.4380340 137.8097260 136.9976630  45.1717240 138.0000310
 133.1515850  43.9529120 126.9719660 132.7743830  44.4416220 126.2404560
 133.4088920  44.6254400 127.6026190 148.7761100  46.2268670 136.0067450
 148.0924620  46.8967780 135.9984120 149.3155390  46.4249320 135.2412310
 140.7604780  32.3545510 132.4305170 141.0679760  31.7992400 131.7140670
 139.8305480  32.4889970 132.2478160 146.3119840  48.0712800 134.7212630
 146.3247000  47.6675090 133.8534890 145.7595060  48.8460090 134.6174060
 147.6065260  44.7929020 129.8102800 147.4961590  43.8503350 129.9352220
 147.6033510  45.1544660 130.6965560 145.7105280  42.9742640 136.0495240
 146.1274070  42.7602750 135.2148700 146.4345100  43.2315430 136.6203860
 143.1485540  40.4194340 129.1665290 142.2214820  40.3531720 129.3953760
 143.3010360  41.3574470 129.0520530 143.1354620  36.6911340 126.1632450
 142.1958290  36.8525300 126.2484910 143.4537880  37.4097020 125.6168440
 149.6567380  41.3729860 136.1411480 148.8286010  41.4422950 135.6661610
 150.2517860  41.9584170 135.6727310 147.1782830  41.9814640 129.6700540
 146.5595250  41.6434190 129.0226840 147.1607280  41.3374400 130.3779730
 146.6209390  38.1599180 137.0866350 146.2080570  38.9852890 137.3406340
 145.8885340  37.5744220 136.8942710 138.7542180  40.9459080 131.9485020
 138.3499180  40.2336330 131.4530920 138.8405300  40.6012320 132.8373060
 139.2223880  44.6326640 134.1124230 138.9252170  44.0272110 133.4332010
 140.1723700  44.6703950 134.0013590 137.4670800  37.7202290 135.7284060
 138.0185390  37.8297630 134.9537310 137.9814310  38.0939890 136.4439290
 147.3109490  48.2058510 137.7747330 146.8340050  49.0130700 137.5819940
 146.6271280  47.5536840 137.9273540 138.3142310  44.3708330 140.7632030
 137.4170840  44.5948300 141.0105430 138.3395180  44.4943270 139.8143430
 145.3547530  41.2201450 126.6773290 145.7940810  40.3823880 126.5311110
 146.0675950  41.8530850 126.7637430 137.1413530  41.2421650 139.3389400
 137.0021300  42.1144450 139.7076800 136.2594890  40.8994460 139.1937340
 143.4642910  46.1597520 130.6454530 143.9038820  46.9021850 130.2309920
 143.4029800  46.4024090 131.5693490 138.9393880  47.1843350 141.5474550
 138.9109310  47.5886300 140.6802980 138.7758850  46.2553710 141.3846150
 148.9364670  32.4744260 124.9914330 148.6237330  32.5671090 125.8913400
 149.6977140  33.0525290 124.9411760 135.4546810  39.8404060 129.4491670
 135.3344410  40.5666150 128.8372940 135.1447700  39.0706970 128.9719580
 133.0932180  43.0119200 135.2560310 133.1712600  43.1467970 134.3116030
 133.7073860  42.3035090 135.4488430 134.3379810  44.7119390 131.6666490
 133.9307890  44.8533980 130.8120090 135.2292820  44.4279550 131.4637700
 150.2941950  45.1583300 140.0038730 150.4205010  44.9195180 139.0855910
 150.3363330  44.3267840 140.4760810 144.1558690  48.8611300 138.5733540
 144.6703360  48.7719310 139.3755970 143.3127770  49.2071000 138.8661450
 146.1313090  49.1466640 128.0017540 145.9714230  48.8569580 128.8999370
 145.9659800  48.3706770 127.4662770 138.6101470  48.9265170 129.7789160
 138.4343950  48.0100710 129.5656960 137.7557210  49.2852460 130.0186960
 145.8339220  46.6554200 126.5615540 145.1404380  46.6531490 125.9017820
 146.5762080  46.2313520 126.1309710 145.3989150  48.2816910 130.6364030
 145.8546100  47.5006290 130.9502650 145.7381670  48.9923730 131.1805210
 150.1465960  37.2115760 140.9688470 149.5310230  37.7195430 140.4403930
 149.8262380  36.3114090 140.9114410 133.1491700  44.0533370 137.7954770
 133.3122740  43.5838730 136.9774140 133.6144150  43.5456930 138.4603610
 137.9210470  33.1839130 132.8315340 137.4778620  33.9648670 132.4999860
 138.4795460  33.5069020 133.5386280 142.2080280  36.0507650 138.4350660
 141.7459650  36.2590670 139.2470600 141.8058390  35.2367000 138.1321330
 147.2084790  37.2716600 139.5647320 146.3578380  36.9722350 139.8856390
 147.0486580  37.5158610 138.6531140 144.3034500  38.7718350 141.6646110
 144.6287910  37.9382100 141.3248340 145.0914830  39.2946870 141.8124440
 141.0369290  32.8049830 127.7121170 140.4123470  32.8009700 128.4374480
 140.9499410  31.9380790 127.3157140 139.9586370  33.7286460 134.6904940
 140.2558700  34.6349290 134.6096960 140.5071930  33.2405240 134.0764510
 137.7124690  38.3072700 130.5596590 137.4865610  38.0909870 131.4643210
 136.9317220  38.7401160 130.2142560 144.9422450  38.3136070 129.1587240
 144.3431340  39.0371870 128.9750860 145.4902060  38.2512850 128.3763690
 140.1523900  39.2058280 141.2256860 140.0567500  38.2653010 141.0757260
 140.9955880  39.4273350 140.8304930 143.5487320  36.9499610 131.1890520
 143.9416890  37.2671810 130.3759210 143.9104170  36.0711490 131.3035040
 135.2834440  35.6171950 139.3790640 134.8897830  36.4647160 139.5863420
 134.5952840  34.9798320 139.5699280 141.8579490  35.7006920 142.4487380
 141.1677810  35.5079120 143.0833470 142.6011790  35.9841560 142.9811680
 132.5851490  33.5400410 133.4120720 132.2964540  34.1103270 134.1245700
 133.3297250  33.0604860 133.7751950 132.7721720  37.4820530 124.6223440
 132.6896390  38.4251290 124.7638430 132.4204780  37.3395440 123.7435790
 144.1342460  39.5405360 135.2841300 143.4023580  40.0492170 135.6331400
 143.7366800  38.7235340 134.9830080 140.5719850  36.2159560 133.6893790
 140.5755910  35.7749510 132.8398330 141.4670970  36.5376890 133.7965610
 136.4222230  36.0986050 132.6488000 136.0822280  36.5761280 133.4055050
 135.6599550  35.6451170 132.2889100 140.6340000  37.2171640 126.6800550
 140.7552820  37.1758120 127.6286370 140.2488510  38.0795790 126.5247280
 144.5968370  34.9939040 134.6964240 144.6141110  35.4447690 135.5406090
 144.3483950  34.0944680 134.9097680 139.6461500  39.5272780 126.0783850
 139.0778400  39.0791030 125.4519760 140.3550500  39.8865560 125.5449000
 148.0239120  32.4071220 140.5350620 148.3484890  31.6760880 141.0608600
 148.0595630  32.0884860 139.6331610 134.7230680  43.4284800 139.9550580
 134.3385470  42.7878470 140.5533540 135.0342870  44.1320920 140.5245310
 140.8727820  40.2761340 135.4359200 141.2397950  39.8019910 136.1820540
 140.6832880  41.1502910 135.7767540 133.7368310  35.0205030 131.5652670
 133.4515230  34.6560700 132.4031290 133.6747170  34.2885490 130.9515810
 138.6627190  39.3169980 137.7543410 138.3584260  40.1961960 137.9793770
 139.6173650  39.3769770 137.7900850 137.1908980  43.5230970 128.3510260
 136.4171240  42.9828590 128.1908980 137.9203610  43.0037580 128.0128020
 147.9496960  42.5196330 134.1436650 148.6696080  43.0151620 133.7532760
 147.7478780  41.8414220 133.4990520 143.4106900  33.9134290 128.2866040
 142.5971510  33.4147460 128.2111350 143.2168850  34.7532540 127.8702390
 143.3315760  42.5905390 140.0305650 143.2653070  41.6701060 139.7763240
 142.7020900  42.6880830 140.7450290 146.1255290  38.2853940 126.5828200
 147.0134910  38.5971170 126.4079540 146.0960380  37.4126190 126.1908780
 137.2346380  43.1911350 131.9889070 137.7525050  42.3879610 131.9345960
 136.7830400  43.1290490 132.8305900 142.1215880  44.4577630 127.2616370
 142.4631580  45.2019860 126.7659690 141.2928590  44.7708750 127.6241200
 134.7190920  40.1572720 138.9014770 134.3605860  40.8226570 139.4888110
 134.4245480  39.3256270 139.2727390 137.9204040  40.6156960 141.7854320
 137.6204180  40.7614140 140.8882140 138.6915280  40.0562250 141.6927710
 143.2632490  45.4125960 139.7809450 143.2777030  44.4806920 139.5628360
 142.5557590  45.4985720 140.4199220 148.3969560  39.5965780 126.0508060
 148.3133280  40.0280000 125.2004500 149.1163750  40.0564130 126.4834880
 149.4743700  42.0533300 139.1278030 148.7491890  42.6462080 138.9307420
 150.0019160  42.0456840 138.3291400 149.4256810  46.4508040 128.7790190
 148.7832970  45.7963660 129.0533910 149.0387470  46.8563130 128.0030860
 145.0043290  43.7793470 132.6261880 145.3567110  43.1821600 131.9663250
 144.1205620  43.4537700 132.7970130 141.0906570  44.5391160 130.0332290
 141.7777700  45.0860370 130.4139880 140.3038990  45.0831890 130.0681900
 133.2298970  40.1563980 125.5249370 134.0993820  40.4388780 125.8085290
 132.7389290  40.9699850 125.4098180 140.3933780  41.5437190 129.6457650
 140.8496560  42.3542440 129.8717840 140.0421990  41.2260330 130.4776140
 142.6966390  47.0543530 136.8749950 143.3408610  47.2602910 137.5523370
 143.0595830  46.2931930 136.4220800 136.2945560  31.8874840 130.1180170
 136.1660190  31.8792740 131.0665090 135.4707580  32.2257930 129.7671180
 143.9698470  45.0575880 135.5927400 144.6120700  44.3569040 135.7059570
 144.4947820  45.8374320 135.4124290 147.8154190  45.3424500 125.3166540
 147.5891770  44.6254940 125.9091180 147.4250390  45.0936940 124.4788290
 145.7436090  45.8570780 138.7963460 146.0792330  46.4437470 139.4741380
 144.8236430  45.7263490 139.0261250 133.5970220  49.3691360 126.0911000
 133.9567860  49.9680700 125.4368270 133.4562560  49.9151250 126.8646030
 133.2939490  33.6465960 139.5786870 132.5798010  33.8462880 140.1839480
 133.7134530  32.8705530 139.9501670 147.3970440  43.2596440 126.9780700
 147.1092140  43.7209130 127.7658580 148.1922610  42.7994210 127.2464920
 133.5812080  47.6346220 140.5653400 133.6903200  46.6940960 140.4248790
 132.9292640  47.9000970 139.9167130 141.5724670  45.9062110 141.9651520
 141.2521540  45.1871350 142.5097210 140.8983030  46.5817180 142.0387580
 139.6138840  46.7522560 126.9084670 139.6048940  47.4852250 126.2929180
 138.6937200  46.5054140 127.0011630 135.2145480  41.9737450 127.6531430
 134.6073430  42.7136350 127.6626730 135.6894830  42.0636810 126.8269630
 144.7878270  36.1388270 137.3288320 145.1559090  35.3183480 137.6567890
 143.9276470  36.1990160 137.7443970 148.1540300  35.0945210 128.1375880
 147.5253460  35.1990880 127.4234110 147.6592220  35.3141990 128.9269760
 142.5998440  46.8150800 125.5709860 142.7010420  46.6114790 124.6411840
 141.7000180  46.5609080 125.7757640 140.1224330  37.3731160 129.5533760
 139.4140480  37.8417500 129.9947370 140.4068810  36.7153170 130.1878950
 141.7480260  38.7927860 137.5526290 142.2465510  39.2673680 138.2178140
 141.8903210  37.8691380 137.7596320 144.1539760  34.0981820 130.9929550
 144.0307540  34.1167950 130.0439060 145.1024320  34.1460760 131.1127950
 141.2416550  49.3337120 130.2657530 141.4958050  49.2958510 129.3436900
 140.2929030  49.2070450 130.2585780 138.3259350  35.6816240 126.9284470
 139.1749880  36.1186390 126.8624660 137.9590620  35.9936500 127.7556530
 148.9547120  35.0095820 138.3954680 148.4520720  35.7501220 138.7348490
 149.7703780  35.3979820 138.0791470 147.2469130  40.2529000 131.8416040
 146.3059270  40.2679230 132.0163730 147.5613200  39.4664960 132.2876340
 137.2250770  41.9348600 125.4020000 137.9914040  41.8229960 125.9645430
 137.3025460  41.2386570 124.7496770 135.9197530  39.3673670 126.0852890
 136.0001120  38.4201180 126.1970290 136.8117280  39.6980550 126.1913550
 149.2494710  47.4237850 133.5170300 149.3742130  48.2469020 133.9894110
 150.1160270  47.2128580 133.1694450 136.7212240  49.5169060 133.1887430
 137.4574720  48.9684520 133.4596000 137.1053160  50.3825070 133.0493420
 133.6057720  45.5842630 129.0628940 132.6797500  45.8263770 129.0534350
 134.0714150  46.4116890 128.9413690 135.7270520  48.7015130 142.3773010
 136.5283250  49.0227180 142.7908410 135.2122340  48.3410710 143.0992920
 139.8314550  48.6899370 125.0113000 140.6243160  48.9788200 124.5594790
 139.3118900  48.2591540 124.3325480 144.5635150  44.8095000 142.3248420
 143.9573310  44.8326600 141.5844170 144.2589260  44.0778040 142.8615670
 145.9935520  48.5375290 140.9357830 146.9457270  48.4533310 140.8858070
 145.8463740  49.2017000 141.6091620 148.8844720  47.9169500 126.4349740
 148.5986230  47.5034640 125.6203920 148.6864270  48.8457210 126.3150260
 133.4468330  41.1888590 141.3209060 133.9507350  40.6095870 141.8925290
 132.7075750  41.4728820 141.8585430 140.3491950  43.9102780 124.8755350
 140.2442590  43.2955130 125.6016730 140.1816170  43.3868670 124.0918360
 140.5006270  42.5959580 140.8544580 139.7351940  43.1644580 140.7699250
 140.6822230  42.3035790 139.9612810 143.5894680  42.9722810 125.4797340
 143.0404780  43.4192110 126.1240080 144.2113940  42.4672060 126.0035010
 147.6429620  44.3264910 141.4119600 148.3839090  44.6640670 140.9087060
 146.8802300  44.4956970 140.8589370 135.4791410  39.3318180 142.2159130
 135.5196750  39.0332050 143.1244360 136.3336910  39.7325790 142.0566650
 139.2569800  41.9313730 127.3762640 139.6786220  41.7653600 128.2194030
 139.3820640  41.1213960 126.8817780 137.4197220  37.9110280 140.1833620
 136.8893680  37.4201230 139.5556960 138.0885290  38.3394480 139.6491550
 141.7697440  40.9551340 124.6239740 142.2903100  40.2400360 124.2580890
 142.4165840  41.5937210 124.9240250 146.3175280  42.3779740 139.9474810
 146.7316300  42.5324820 140.7965230 145.3826280  42.5034960 140.1100590
 146.7897450  39.7175900 141.9513960 147.3718220  38.9628220 141.8634440
 146.9659220  40.2483340 141.1745440 137.9069520  34.8772650 140.2630910
 137.8126390  34.2593400 139.5381780 137.3266910  35.6038940 140.0360820
 140.6730960  33.4345890 137.2958300 140.2248260  33.4570150 136.4503850
 140.0396160  33.0364910 137.8928600 141.0790510  42.3300220 137.9170740
 141.4978620  43.1732950 137.7446980 140.1599140  42.4672260 137.6877520
 143.4154410  40.0616400 139.3008580 143.5350620  39.4657540 140.0403420
 144.2748410  40.0986090 138.8809880 145.7542310  40.6153590 137.8771090
 145.2277530  41.1396210 137.2736230 146.0973650  41.2480980 138.5080820
 138.1528700  38.0046960 124.3220800 137.9517760  37.1414320 124.6834140
 137.9820750  37.9180320 123.3842400 138.9297930  48.6353230 139.0328470
 138.3919020  49.3599290 138.7137170 139.1831890  48.1583570 138.2425810
 140.1823180  36.6037750 140.5584400 140.7722870  36.2953600 141.2462220
 139.3643420  36.1317500 140.7144300 145.0016610  36.2203560 140.7917420
 144.3132130  35.5585100 140.7267410 145.7222630  35.7741830 141.2365880
 145.6317010  32.8155190 126.8507680 145.9119300  31.9723090 127.2067100
 144.8582740  33.0478300 127.3646430 136.9511500  35.1047580 124.3098680
 137.2537400  35.1115010 123.4017830 137.6906090  34.7545440 124.8066340
 141.7860140  49.8704440 139.2915120 141.7118840  50.7739580 139.5987490
 140.8838980  49.5516340 139.2637190 140.1696430  34.0482200 125.2954880
 139.8218430  33.3706190 124.7157330 140.3709200  33.5871710 126.1098270
 142.3345470  49.0362950 126.9141480 143.2296260  49.3747920 126.9360240
 142.3663100  48.3142360 126.2865760 135.9741630  44.4090000 125.1428480
 136.4116500  44.9519670 125.7986060 136.4589360  43.5836950 125.1524820
 133.1887430  47.1979030 132.5948740 133.5190440  46.3300090 132.3627380
 133.6178430  47.4037550 133.4253700 137.7849350  45.5288040 130.2550710
 137.4844890  45.4053010 131.1554620 137.6786840  44.6696630 129.8466440
 133.6777640  48.0649620 135.3330370 133.2408630  48.2450420 136.1654520
 134.2455320  48.8224240 135.1912090 149.3139820  47.5666620 139.6207680
 148.7141810  47.6259180 138.8771600 149.4433720  46.6271600 139.7504530
 133.5102070  40.5769850 131.6919250 132.8550910  40.3081490 131.0478950
 134.3480020  40.4674330 131.2421230 147.9991460  44.2918600 137.7183840
 147.1851300  44.7215760 137.9809630 148.4065660  44.9037010 137.1052890
 150.0616900  42.3466290 124.6184110 150.3365740  43.2545170 124.4903330
 149.8727640  42.2828820 125.5546100 146.4592510  35.3711140 125.9137740
 146.8777390  35.1842120 125.0734400 146.1528570  34.5190190 126.2240670
 149.9582240  40.2835280 129.6113540 149.5825840  39.5163210 129.1794830
 149.2285360  40.6657980 130.0988470 134.5478000  40.9622420 136.2322590
 134.9151040  40.8749820 137.1118610 133.9788820  40.1988970 136.1329450
 149.3481860  39.4306800 139.2453060 149.1167950  39.2019550 138.3451010
 149.6086410  40.3506350 139.1997950 134.0994000  37.8731510 140.1381010
 133.2050050  37.8398270 140.4774720 134.6391550  38.0718300 140.9032260
 147.7869930  34.6563230 142.0232760 148.6640110  34.6646630 142.4066760
 147.7990770  33.9194070 141.4125110 132.7240150  37.7868780 127.6344580
 131.8204230  38.0498980 127.4596240 133.2080770  38.0579950 126.8544540
 149.2333200  38.5092770 132.9120780 149.7570680  38.0155420 132.2810950
 149.8192620  38.6443130 133.6568350 149.4122920  38.5932640 136.4340330
 148.4625630  38.5596180 136.5485320 149.5935930  39.5032750 136.1990100
 135.2667360  36.8434320 125.5438960 135.9759060  36.4217540 125.0586240
 134.5507300  36.9109550 124.9122310 134.9141520  32.8973650 124.5841610
 135.6369650  33.4382590 124.9022830 135.1866040  32.6237070 123.7083150
 148.7233170  37.7666120 128.8513190 149.2192290  37.5336990 129.6362070
 148.5249240  36.9277960 128.4350830 134.6033710  32.1479840 134.4864230
 135.2509900  31.5977220 134.0459390 135.0235550  32.4022990 135.3080040
 148.4986050  32.3421200 137.8433870 149.1358270  32.9555340 138.2093060
 148.6460940  32.3781860 136.8983100 148.0567510  49.0437200 131.2452110
 148.6526580  48.7221770 130.5686530 148.3145660  48.5709020 132.0365380
 134.3565710  32.3035510 137.2289550 134.0080530  32.7599330 137.9947730
 134.0253410  31.4092640 137.3111980 135.9630080  45.4755110 141.3942740
 135.9199710  45.1048020 142.2757200 136.0941090  46.4132680 141.5344560
 139.6636110  47.0314700 136.9952460 139.4227470  47.2989260 136.1082980
 140.6038750  47.2020430 137.0503320 141.8690530  33.4947390 140.7508970
 141.8079420  34.0869220 141.5004380 142.8090910  33.3873350 140.6059230
 144.5065090  33.1517450 140.3901260 145.1205500  33.4696740 139.7282340
 145.0514650  32.6666040 141.0097120 135.0286350  31.8311710 140.5040320
 135.5769340  31.6499760 139.7406430 135.0941660  31.0405820 141.0396630
 135.8018110  48.4217360 138.5140520 135.2078430  48.2902060 139.2530560
 135.7941950  47.5855500 138.0482620 145.2473130  31.7149590 136.7170550
 144.3732970  32.0484700 136.5143480 145.1383880  31.2422770 137.5422420
 146.1545110  33.9220460 138.1012270 145.8258470  33.1072220 137.7214000
 147.1027410  33.8790270 137.9777960 148.6079720  49.6932500 135.0749840
 148.1482690  50.4448310 134.7007860 147.9792180  48.9738970 135.0164640
 135.4330340  45.7875740 137.4648560 134.7064400  45.1681030 137.3974510
 135.4939490  46.1816350 136.5946640 139.0375440  48.0020740 134.2497970
 139.5540460  47.3908100 133.7246230 139.6872820  48.5049520 134.7408980
 141.7770940  48.8929230 135.0766950 142.0648750  48.6383530 134.1999960
 142.2894160  48.3406590 135.6672520 142.9947950  32.6319430 135.6563460
 142.2119740  33.1064930 135.9360220 142.7010880  31.7274260 135.5476640
 147.5469020  33.3342530 133.7012550 147.9877110  33.2787630 132.8534150
 147.2776610  34.2500540 133.7722730 149.4107590  32.9657770 131.7121370
 149.3495990  32.0218990 131.5652390 150.1899620  33.0737860 132.2574830
 133.7160340  49.1050130 130.6745320 133.5482380  48.4720810 131.3727210
 132.8494850  49.3109530 130.3239510 134.3388360  32.9366910 128.1777180
 135.0967720  33.0495790 127.6041210 133.8765530  33.7736110 128.1320610
 140.8802170  35.0506180 131.1679490 140.0676680  34.6763070 130.8275370
 141.3843810  34.2951260 131.4700680 145.3827150  31.7148630 132.4062560
 145.9856520  32.2868840 132.8811080 144.6420140  32.2788070 132.1836460
 148.5261750  32.1170190 127.6802840 148.7212380  33.0153640 127.9470270
 147.7391620  31.8857270 128.1735790 135.3223040  47.7983360 128.1195460
 134.7970660  48.1791390 127.4157420 135.2467620  48.4234130 128.8405170
 136.7113510  33.4630960 126.7179150 137.2406270  32.6760760 126.5887100
 137.3441830  34.1422150 126.9514680 138.9051350  33.2006100 129.7724540
 138.2754090  32.4993410 129.9394670 138.3656490  33.9610230 129.5557700
 141.8443300  49.8145330 142.4435150 142.7710610  49.5789600 142.4871110
 141.8293730  50.6417330 141.9621180 150.0788360  49.3570900 129.4409400
 150.2540550  48.6708640 128.7970320 149.3809930  49.8817950 129.0486070
 139.0306910  32.4790080 142.2077030 138.7491180  32.9823680 141.4437850
 139.4126610  31.6811830 141.8419160 137.9216010  49.7465740 126.9944710
 138.6534830  49.4625020 126.4468600 138.1809680  49.5079020 127.8844090
 137.0830800  45.8630470 126.9991040 136.4539680  46.3315570 127.5476870
 137.1978630  45.0179690 127.4337230 145.6322370  31.8943660 142.7857500
 145.5187820  32.2138270 143.6809020 146.4492110  32.2956170 142.4894780
 148.4120860  49.0415190 142.2676190 149.2046180  48.5464420 142.0602150
 148.7054010  49.7205330 142.8751800 144.5380520  39.9136130 113.1492240
 144.4574570  38.9990740 112.8783950 144.1244940  40.4103200 112.4431950
 142.6698560  41.6915150 115.0301510 141.8940660  41.2115590 115.3200080
 143.3211490  41.0120800 114.8557670 136.6864390  42.0034960 115.9077270
 135.8549270  41.7483670 116.3073780 137.2945370  42.0745730 116.6435190
 146.6905990  46.0975340 113.8100640 146.2287520  45.3262580 114.1387810
 147.5031540  46.1241410 114.3153090 136.6665650  46.0375050 116.1035290
 136.9693690  45.1472790 115.9245510 137.4109240  46.5945270 115.8757540
 135.0956340  36.9636850 109.6919660 134.2073040  37.3052820 109.5899540
 135.3797530  36.7637170 108.8000490 133.0589350  39.5642500 115.5759360
 133.6305460  38.7964700 115.5763000 133.0590890  39.8631260 114.6665970
 142.9169300  48.3833350 113.4304630 142.2980740  48.8390850 112.8599070
 143.7721080  48.5384810 113.0294330 142.1107550  44.3672340 115.0371670
 142.0415830  43.4262280 114.8760800 142.8727410  44.4573750 115.6094240
 134.3014220  34.9726860 117.3628290 134.1217060  34.0752610 117.6431050
 133.8994300  35.5198730 118.0375240 143.1412720  37.1742720 115.2640600
 143.5177540  36.3014600 115.1514270 143.0432230  37.5101420 114.3731040
 137.2717730  35.5468350 110.7258040 137.3784480  36.4472080 111.0326800
 136.3610090  35.4986320 110.4352690 146.9236840  34.6693160 112.1968940
 147.7446460  34.1789730 112.2394420 146.9570920  35.2590820 112.9500780
 134.9200890  37.4687360 115.9710630 135.6011000  37.7325730 116.5898030
 134.6048940  36.6288230 116.3048640 139.1125460  38.5154720 115.0583220
 139.6203680  39.0135690 115.6988240 139.6438700  37.7389920 114.8822580
 137.3961560  33.1553280 119.3246640 137.3980000  33.6725670 118.5192540
 136.5665870  32.6783460 119.3016570 143.7832650  43.2672590 110.8236540
 143.1649920  43.7322040 110.2599260 144.2955900  43.9600070 111.2406050
 138.6464410  42.7948460 117.5020140 138.3133790  43.4217380 118.1441210
 138.8231090  43.3210340 116.7221810 147.1598320  36.6093540 114.9696480
 146.4553890  36.8978430 115.5499590 147.5210480  37.4193650 114.6096040
 137.0776890  34.8663240 117.3317090 137.4193700  35.7105290 117.0370960
 136.1392700  35.0146980 117.4482430 137.8583510  44.7629260 119.3169320
 138.4757510  45.4380340 119.0353770 136.9976630  45.1717240 119.2256820
 133.1515850  43.9529120 108.1976170 132.7743830  44.4416220 107.4661070
 133.4088920  44.6254400 108.8282700 148.7761100  46.2268670 117.2323960
 148.0924620  46.8967780 117.2240630 149.3155390  46.4249320 116.4668820
 140.7604780  32.3545510 113.6561680 141.0679760  31.7992400 112.9397180
 139.8305480  32.4889970 113.4734670 146.3119840  48.0712800 115.9469140
 146.3247000  47.6675090 115.0791400 145.7595060  48.8460090 115.8430570
 147.6065260  44.7929020 111.0359310 147.4961590  43.8503350 111.1608730
 147.6033510  45.1544660 111.9222070 145.7105280  42.9742640 117.2751750
 146.1274070  42.7602750 116.4405210 146.4345100  43.2315430 117.8460370
 143.1485540  40.4194340 110.3921800 142.2214820  40.3531720 110.6210270
 143.3010360  41.3574470 110.2777040 143.1354620  36.6911340 107.3888960
 142.1958290  36.8525300 107.4741420 143.4537880  37.4097020 106.8424950
 149.6567380  41.3729860 117.3667990 148.8286010  41.4422950 116.8918120
 150.2517860  41.9584170 116.8983820 147.1782830  41.9814640 110.8957050
 146.5595250  41.6434190 110.2483350 147.1607280  41.3374400 111.6036240
 146.6209390  38.1599180 118.3122860 146.2080570  38.9852890 118.5662850
 145.8885340  37.5744220 118.1199220 138.7542180  40.9459080 113.1741530
 138.3499180  40.2336330 112.6787430 138.8405300  40.6012320 114.0629570
 139.2223880  44.6326640 115.3380740 138.9252170  44.0272110 114.6588520
 140.1723700  44.6703950 115.2270100 137.4670800  37.7202290 116.9540570
 138.0185390  37.8297630 116.1793820 137.9814310  38.0939890 117.6695800
 147.3109490  48.2058510 119.0003840 146.8340050  49.0130700 118.8076450
 146.6271280  47.5536840 119.1530050 138.3142310  44.3708330 121.9888540
 137.4170840  44.5948300 122.2361940 138.3395180  44.4943270 121.0399940
 145.3547530  41.2201450 107.9029800 145.7940810  40.3823880 107.7567620
 146.0675950  41.8530850 107.9893940 137.1413530  41.2421650 120.5645910
 137.0021300  42.1144450 120.9333310 136.2594890  40.8994460 120.4193850
 143.4642910  46.1597520 111.8711040 143.9038820  46.9021850 111.4566430
 143.4029800  46.4024090 112.7950000 138.9393880  47.1843350 122.7731060
 138.9109310  47.5886300 121.9059490 138.7758850  46.2553710 122.6102660
 148.9364670  32.4744260 106.2170840 148.6237330  32.5671090 107.1169910
 149.6977140  33.0525290 106.1668270 135.4546810  39.8404060 110.6748180
 135.3344410  40.5666150 110.0629450 135.1447700  39.0706970 110.1976090
 133.0932180  43.0119200 116.4816820 133.1712600  43.1467970 115.5372540
 133.7073860  42.3035090 116.6744940 134.3379810  44.7119390 112.8923000
 133.9307890  44.8533980 112.0376600 135.2292820  44.4279550 112.6894210
 150.2941950  45.1583300 121.2295240 150.4205010  44.9195180 120.3112420
 150.3363330  44.3267840 121.7017320 144.1558690  48.8611300 119.7990050
 144.6703360  48.7719310 120.6012480 143.3127770  49.2071000 120.0917960
 146.1313090  49.1466640 109.2274050 145.9714230  48.8569580 110.1255880
 145.9659800  48.3706770 108.6919280 138.6101470  48.9265170 111.0045670
 138.4343950  48.0100710 110.7913470 137.7557210  49.2852460 111.2443470
 145.8339220  46.6554200 107.7872050 145.1404380  46.6531490 107.1274330
 146.5762080  46.2313520 107.3566220 145.3989150  48.2816910 111.8620540
 145.8546100  47.5006290 112.1759160 145.7381670  48.9923730 112.4061720
 150.1465960  37.2115760 122.1944980 149.5310230  37.7195430 121.6660440
 149.8262380  36.3114090 122.1370920 133.1491700  44.0533370 119.0211280
 133.3122740  43.5838730 118.2030650 133.6144150  43.5456930 119.6860120
 137.9210470  33.1839130 114.0571850 137.4778620  33.9648670 113.7256370
 138.4795460  33.5069020 114.7642790 142.2080280  36.0507650 119.6607170
 141.7459650  36.2590670 120.4727110 141.8058390  35.2367000 119.3577840
 147.2084790  37.2716600 120.7903830 146.3578380  36.9722350 121.1112900
 147.0486580  37.5158610 119.8787650 144.3034500  38.7718350 122.8902620
 144.6287910  37.9382100 122.5504850 145.0914830  39.2946870 123.0380950
 141.0369290  32.8049830 108.9377680 140.4123470  32.8009700 109.6630990
 140.9499410  31.9380790 108.5413650 139.9586370  33.7286460 115.9161450
 140.2558700  34.6349290 115.8353470 140.5071930  33.2405240 115.3021020
 137.7124690  38.3072700 111.7853100 137.4865610  38.0909870 112.6899720
 136.9317220  38.7401160 111.4399070 144.9422450  38.3136070 110.3843750
 144.3431340  39.0371870 110.2007370 145.4902060  38.2512850 109.6020200
 140.1523900  39.2058280 122.4513370 140.0567500  38.2653010 122.3013770
 140.9955880  39.4273350 122.0561440 143.5487320  36.9499610 112.4147030
 143.9416890  37.2671810 111.6015720 143.9104170  36.0711490 112.5291550
 135.2834440  35.6171950 120.6047150 134.8897830  36.4647160 120.8119930
 134.5952840  34.9798320 120.7955790 141.8579490  35.7006920 123.6743890
 141.1677810  35.5079120 124.3089980 142.6011790  35.9841560 124.2068190
 132.5851490  33.5400410 114.6377230 132.2964540  34.1103270 115.3502210
 133.3297250  33.0604860 115.0008460 132.7721720  37.4820530 105.8479950
 132.6896390  38.4251290 105.9894940 132.4204780  37.3395440 104.9692300
 144.1342460  39.5405360 116.5097810 143.4023580  40.0492170 116.8587910
 143.7366800  38.7235340 116.2086590 140.5719850  36.2159560 114.9150300
 140.5755910  35.7749510 114.0654840 141.4670970  36.5376890 115.0222120
 136.4222230  36.0986050 113.8744510 136.0822280  36.5761280 114.6311560
 135.6599550  35.6451170 113.5145610 140.6340000  37.2171640 107.9057060
 140.7552820  37.1758120 108.8542880 140.2488510  38.0795790 107.7503790
 144.5968370  34.9939040 115.9220750 144.6141110  35.4447690 116.7662600
 144.3483950  34.0944680 116.1354190 139.6461500  39.5272780 107.3040360
 139.0778400  39.0791030 106.6776270 140.3550500  39.8865560 106.7705510
 148.0239120  32.4071220 121.7607130 148.3484890  31.6760880 122.2865110
 148.0595630  32.0884860 120.8588120 134.7230680  43.4284800 121.1807090
 134.3385470  42.7878470 121.7790050 135.0342870  44.1320920 121.7501820
 140.8727820  40.2761340 116.6615710 141.2397950  39.8019910 117.4077050
 140.6832880  41.1502910 117.0024050 133.7368310  35.0205030 112.7909180
 133.4515230  34.6560700 113.6287800 133.6747170  34.2885490 112.1772320
 138.6627190  39.3169980 118.9799920 138.3584260  40.1961960 119.2050280
 139.6173650  39.3769770 119.0157360 137.1908980  43.5230970 109.5766770
 136.4171240  42.9828590 109.4165490 137.9203610  43.0037580 109.2384530
 147.9496960  42.5196330 115.3693160 148.6696080  43.0151620 114.9789270
 147.7478780  41.8414220 114.7247030 143.4106900  33.9134290 109.5122550
 142.5971510  33.4147460 109.4367860 143.2168850  34.7532540 109.0958900
 143.3315760  42.5905390 121.2562160 143.2653070  41.6701060 121.0019750
 142.7020900  42.6880830 121.9706800 146.1255290  38.2853940 107.8084710
 147.0134910  38.5971170 107.6336050 146.0960380  37.4126190 107.4165290
 137.2346380  43.1911350 113.2145580 137.7525050  42.3879610 113.1602470
 136.7830400  43.1290490 114.0562410 142.1215880  44.4577630 108.4872880
 142.4631580  45.2019860 107.9916200 141.2928590  44.7708750 108.8497710
 134.7190920  40.1572720 120.1271280 134.3605860  40.8226570 120.7144620
 134.4245480  39.3256270 120.4983900 137.9204040  40.6156960 123.0110830
 137.6204180  40.7614140 122.1138650 138.6915280  40.0562250 122.9184220
 143.2632490  45.4125960 121.0065960 143.2777030  44.4806920 120.7884870
 142.5557590  45.4985720 121.6455730 148.3969560  39.5965780 107.2764570
 148.3133280  40.0280000 106.4261010 149.1163750  40.0564130 107.7091390
 149.4743700  42.0533300 120.3534540 148.7491890  42.6462080 120.1563930
 150.0019160  42.0456840 119.5547910 149.4256810  46.4508040 110.0046700
 148.7832970  45.7963660 110.2790420 149.0387470  46.8563130 109.2287370
 145.0043290  43.7793470 113.8518390 145.3567110  43.1821600 113.1919760
 144.1205620  43.4537700 114.0226640 141.0906570  44.5391160 111.2588800
 141.7777700  45.0860370 111.6396390 140.3038990  45.0831890 111.2938410
 133.2298970  40.1563980 106.7505880 134.0993820  40.4388780 107.0341800
 132.7389290  40.9699850 106.6354690 140.3933780  41.5437190 110.8714160
 140.8496560  42.3542440 111.0974350 140.0421990  41.2260330 111.7032650
 142.6966390  47.0543530 118.1006460 143.3408610  47.2602910 118.7779880
 143.0595830  46.2931930 117.6477310 136.2945560  31.8874840 111.3436680
 136.1660190  31.8792740 112.2921600 135.4707580  32.2257930 110.9927690
 143.9698470  45.0575880 116.8183910 144.6120700  44.3569040 116.9316080
 144.4947820  45.8374320 116.6380800 147.8154190  45.3424500 106.5423050
 147.5891770  44.6254940 107.1347690 147.4250390  45.0936940 105.7044800
 145.7436090  45.8570780 120.0219970 146.0792330  46.4437470 120.6997890
 144.8236430  45.7263490 120.2517760 133.5970220  49.3691360 107.3167510
 133.9567860  49.9680700 106.6624780 133.4562560  49.9151250 108.0902540
 133.2939490  33.6465960 120.8043380 132.5798010  33.8462880 121.4095990
 133.7134530  32.8705530 121.1758180 147.3970440  43.2596440 108.2037210
 147.1092140  43.7209130 108.9915090 148.1922610  42.7994210 108.4721430
 133.5812080  47.6346220 121.7909910 133.6903200  46.6940960 121.6505300
 132.9292640  47.9000970 121.1423640 141.5724670  45.9062110 123.1908030
 141.2521540  45.1871350 123.7353720 140.8983030  46.5817180 123.2644090
 139.6138840  46.7522560 108.1341180 139.6048940  47.4852250 107.5185690
 138.6937200  46.5054140 108.2268140 135.2145480  41.9737450 108.8787940
 134.6073430  42.7136350 108.8883240 135.6894830  42.0636810 108.0526140
 144.7878270  36.1388270 118.5544830 145.1559090  35.3183480 118.8824400
 143.9276470  36.1990160 118.9700480 148.1540300  35.0945210 109.3632390
 147.5253460  35.1990880 108.6490620 147.6592220  35.3141990 110.1526270
 142.5998440  46.8150800 106.7966370 142.7010420  46.6114790 105.8668350
 141.7000180  46.5609080 107.0014150 140.1224330  37.3731160 110.7790270
 139.4140480  37.8417500 111.2203880 140.4068810  36.7153170 111.4135460
 141.7480260  38.7927860 118.7782800 142.2465510  39.2673680 119.4434650
 141.8903210  37.8691380 118.9852830 144.1539760  34.0981820 112.2186060
 144.0307540  34.1167950 111.2695570 145.1024320  34.1460760 112.3384460
 141.2416550  49.3337120 111.4914040 141.4958050  49.2958510 110.5693410
 140.2929030  49.2070450 111.4842290 138.3259350  35.6816240 108.1540980
 139.1749880  36.1186390 108.0881170 137.9590620  35.9936500 108.9813040
 148.9547120  35.0095820 119.6211190 148.4520720  35.7501220 119.9605000
 149.7703780  35.3979820 119.3047980 147.2469130  40.2529000 113.0672550
 146.3059270  40.2679230 113.2420240 147.5613200  39.4664960 113.5132850
 137.2250770  41.9348600 106.6276510 137.9914040  41.8229960 107.1901940
 137.3025460  41.2386570 105.9753280 135.9197530  39.3673670 107.3109400
 136.0001120  38.4201180 107.4226800 136.8117280  39.6980550 107.4170060
 149.2494710  47.4237850 114.7426810 149.3742130  48.2469020 115.2150620
 150.1160270  47.2128580 114.3950960 136.7212240  49.5169060 114.4143940
 137.4574720  48.9684520 114.6852510 137.1053160  50.3825070 114.2749930
 133.6057720  45.5842630 110.2885450 132.6797500  45.8263770 110.2790860
 134.0714150  46.4116890 110.1670200 135.7270520  48.7015130 123.6029520
 136.5283250  49.0227180 124.0164920 135.2122340  48.3410710 124.3249430
 139.8314550  48.6899370 106.2369510 140.6243160  48.9788200 105.7851300
 139.3118900  48.2591540 105.5581990 144.5635150  44.8095000 123.5504930
 143.9573310  44.8326600 122.8100680 144.2589260  44.0778040 124.0872180
 145.9935520  48.5375290 122.1614340 146.9457270  48.4533310 122.1114580
 145.8463740  49.2017000 122.8348130 148.8844720  47.9169500 107.6606250
 148.5986230  47.5034640 106.8460430 148.6864270  48.8457210 107.5406770
 133.4468330  41.1888590 122.5465570 133.9507350  40.6095870 123.1181800
 132.7075750  41.4728820 123.0841940 140.3491950  43.9102780 106.1011860
 140.2442590  43.2955130 106.8273240 140.1816170  43.3868670 105.3174870
 140.5006270  42.5959580 122.0801090 139.7351940  43.1644580 121.9955760
 140.6822230  42.3035790 121.1869320 143.5894680  42.9722810 106.7053850
 143.0404780  43.4192110 107.3496590 144.2113940  42.4672060 107.2291520
 147.6429620  44.3264910 122.6376110 148.3839090  44.6640670 122.1343570
 146.8802300  44.4956970 122.0845880 135.4791410  39.3318180 123.4415640
 135.5196750  39.0332050 124.3500870 136.3336910  39.7325790 123.2823160
 139.2569800  41.9313730 108.6019150 139.6786220  41.7653600 109.4450540
 139.3820640  41.1213960 108.1074290 137.4197220  37.9110280 121.4090130
 136.8893680  37.4201230 120.7813470 138.0885290  38.3394480 120.8748060
 141.7697440  40.9551340 105.8496250 142.2903100  40.2400360 105.4837400
 142.4165840  41.5937210 106.1496760 146.3175280  42.3779740 121.1731320
 146.7316300  42.5324820 122.0221740 145.3826280  42.5034960 121.3357100
 146.7897450  39.7175900 123.1770470 147.3718220  38.9628220 123.0890950
 146.9659220  40.2483340 122.4001950 137.9069520  34.8772650 121.4887420
 137.8126390  34.2593400 120.7638290 137.3266910  35.6038940 121.2617330
 140.6730960  33.4345890 118.5214810 140.2248260  33.4570150 117.6760360
 140.0396160  33.0364910 119.1185110 141.0790510  42.3300220 119.1427250
 141.4978620  43.1732950 118.9703490 140.1599140  42.4672260 118.9134030
 143.4154410  40.0616400 120.5265090 143.5350620  39.4657540 121.2659930
 144.2748410  40.0986090 120.1066390 145.7542310  40.6153590 119.1027600
 145.2277530  41.1396210 118.4992740 146.0973650  41.2480980 119.7337330
 138.1528700  38.0046960 105.5477310 137.9517760  37.1414320 105.9090650
 137.9820750  37.9180320 104.6098910 138.9297930  48.6353230 120.2584980
 138.3919020  49.3599290 119.9393680 139.1831890  48.1583570 119.4682320
 140.1823180  36.6037750 121.7840910 140.7722870  36.2953600 122.4718730
 139.3643420  36.1317500 121.9400810 145.0016610  36.2203560 122.0173930
 144.3132130  35.5585100 121.9523920 145.7222630  35.7741830 122.4622390
 145.6317010  32.8155190 108.0764190 145.9119300  31.9723090 108.4323610
 144.8582740  33.0478300 108.5902940 136.9511500  35.1047580 105.5355190
 137.2537400  35.1115010 104.6274340 137.6906090  34.7545440 106.0322850
 141.7860140  49.8704440 120.5171630 141.7118840  50.7739580 120.8244000
 140.8838980  49.5516340 120.4893700 140.1696430  34.0482200 106.5211390
 139.8218430  33.3706190 105.9413840 140.3709200  33.5871710 107.3354780
 142.3345470  49.0362950 108.1397990 143.2296260  49.3747920 108.1616750
 142.3663100  48.3142360 107.5122270 135.9741630  44.4090000 106.3684990
 136.4116500  44.9519670 107.0242570 136.4589360  43.5836950 106.3781330
 133.1887430  47.1979030 113.8205250 133.5190440  46.3300090 113.5883890
 133.6178430  47.4037550 114.6510210 137.7849350  45.5288040 111.4807220
 137.4844890  45.4053010 112.3811130 137.6786840  44.6696630 111.0722950
 133.6777640  48.0649620 116.5586880 133.2408630  48.2450420 117.3911030
 134.2455320  48.8224240 116.4168600 149.3139820  47.5666620 120.8464190
 148.7141810  47.6259180 120.1028110 149.4433720  46.6271600 120.9761040
 133.5102070  40.5769850 112.9175760 132.8550910  40.3081490 112.2735460
 134.3480020  40.4674330 112.4677740 147.9991460  44.2918600 118.9440350
 147.1851300  44.7215760 119.2066140 148.4065660  44.9037010 118.3309400
 150.0616900  42.3466290 105.8440620 150.3365740  43.2545170 105.7159840
 149.8727640  42.2828820 106.7802610 146.4592510  35.3711140 107.1394250
 146.8777390  35.1842120 106.2990910 146.1528570  34.5190190 107.4497180
 149.9582240  40.2835280 110.8370050 149.5825840  39.5163210 110.4051340
 149.2285360  40.6657980 111.3244980 134.5478000  40.9622420 117.4579100
 134.9151040  40.8749820 118.3375120 133.9788820  40.1988970 117.3585960
 149.3481860  39.4306800 120.4709570 149.1167950  39.2019550 119.5707520
 149.6086410  40.3506350 120.4254460 134.0994000  37.8731510 121.3637520
 133.2050050  37.8398270 121.7031230 134.6391550  38.0718300 122.1288770
 147.7869930  34.6563230 123.2489270 148.6640110  34.6646630 123.6323270
 147.7990770  33.9194070 122.6381620 132.7240150  37.7868780 108.8601090
 131.8204230  38.0498980 108.6852750 133.2080770  38.0579950 108.0801050
 149.2333200  38.5092770 114.1377290 149.7570680  38.0155420 113.5067460
 149.8192620  38.6443130 114.8824860 149.4122920  38.5932640 117.6596840
 148.4625630  38.5596180 117.7741830 149.5935930  39.5032750 117.4246610
 135.2667360  36.8434320 106.7695470 135.9759060  36.4217540 106.2842750
 134.5507300  36.9109550 106.1378820 134.9141520  32.8973650 105.8098120
 135.6369650  33.4382590 106.1279340 135.1866040  32.6237070 104.9339660
 148.7233170  37.7666120 110.0769700 149.2192290  37.5336990 110.8618580
 148.5249240  36.9277960 109.6607340 134.6033710  32.1479840 115.7120740
 135.2509900  31.5977220 115.2715900 135.0235550  32.4022990 116.5336550
 148.4986050  32.3421200 119.0690380 149.1358270  32.9555340 119.4349570
 148.6460940  32.3781860 118.1239610 148.0567510  49.0437200 112.4708620
 148.6526580  48.7221770 111.7943040 148.3145660  48.5709020 113.2621890
 134.3565710  32.3035510 118.4546060 134.0080530  32.7599330 119.2204240
 134.0253410  31.4092640 118.5368490 135.9630080  45.4755110 122.6199250
 135.9199710  45.1048020 123.5013710 136.0941090  46.4132680 122.7601070
 139.6636110  47.0314700 118.2208970 139.4227470  47.2989260 117.3339490
 140.6038750  47.2020430 118.2759830 141.8690530  33.4947390 121.9765480
 141.8079420  34.0869220 122.7260890 142.8090910  33.3873350 121.8315740
 144.5065090  33.1517450 121.6157770 145.1205500  33.4696740 120.9538850
 145.0514650  32.6666040 122.2353630 135.0286350  31.8311710 121.7296830
 135.5769340  31.6499760 120.9662940 135.0941660  31.0405820 122.2653140
 135.8018110  48.4217360 119.7397030 135.2078430  48.2902060 120.4787070
 135.7941950  47.5855500 119.2739130 145.2473130  31.7149590 117.9427060
 144.3732970  32.0484700 117.7399990 145.1383880  31.2422770 118.7678930
 146.1545110  33.9220460 119.3268780 145.8258470  33.1072220 118.9470510
 147.1027410  33.8790270 119.2034470 148.6079720  49.6932500 116.3006350
 148.1482690  50.4448310 115.9264370 147.9792180  48.9738970 116.2421150
 135.4330340  45.7875740 118.6905070 134.7064400  45.1681030 118.6231020
 135.4939490  46.1816350 117.8203150 139.0375440  48.0020740 115.4754480
 139.5540460  47.3908100 114.9502740 139.6872820  48.5049520 115.9665490
 141.7770940  48.8929230 116.3023460 142.0648750  48.6383530 115.4256470
 142.2894160  48.3406590 116.8929030 142.9947950  32.6319430 116.8819970
 142.2119740  33.1064930 117.1616730 142.7010880  31.7274260 116.7733150
 147.5469020  33.3342530 114.9269060 147.9877110  33.2787630 114.0790660
 147.2776610  34.2500540 114.9979240 149.4107590  32.9657770 112.9377880
 149.3495990  32.0218990 112.7908900 150.1899620  33.0737860 113.4831340
 133.7160340  49.1050130 111.9001830 133.5482380  48.4720810 112.5983720
 132.8494850  49.3109530 111.5496020 134.3388360  32.9366910 109.4033690
 135.0967720  33.0495790 108.8297720 133.8765530  33.7736110 109.3577120
 140.8802170  35.0506180 112.3936000 140.0676680  34.6763070 112.0531880
 141.3843810  34.2951260 112.6957190 145.3827150  31.7148630 113.6319070
 145.9856520  32.2868840 114.1067590 144.6420140  32.2788070 113.4092970
 148.5261750  32.1170190 108.9059350 148.7212380  33.0153640 109.1726780
 147.7391620  31.8857270 109.3992300 135.3223040  47.7983360 109.3451970
 134.7970660  48.1791390 108.6413930 135.2467620  48.4234130 110.0661680
 136.7113510  33.4630960 107.9435660 137.2406270  32.6760760 107.8143610
 137.3441830  34.1422150 108.1771190 138.9051350  33.2006100 110.9981050
 138.2754090  32.4993410 111.1651180 138.3656490  33.9610230 110.7814210
 141.8443300  49.8145330 123.6691660 142.7710610  49.5789600 123.7127620
 141.8293730  50.6417330 123.1877690 150.0788360  49.3570900 110.6665910
 150.2540550  48.6708640 110.0226830 149.3809930  49.8817950 110.2742580
 139.0306910  32.4790080 123.4333540 138.7491180  32.9823680 122.6694360
 139.4126610  31.6811830 123.0675670 137.9216010  49.7465740 108.2201220
 138.6534830  49.4625020 107.6725110 138.1809680  49.5079020 109.1100600
 137.0830800  45.8630470 108.2247550 136.4539680  46.3315570 108.7733380
 137.1978630  45.0179690 108.6593740 145.6322370  31.8943660 124.0114010
 145.5187820  32.2138270 124.9065530 146.4492110  32.2956170 123.7151290
 148.4120860  49.0415190 123.4932700 149.2046180  48.5464420 123.2858660
 148.7054010  49.7205330 124.1008310 144.5380520  39.9136130  94.3748750
 144.4574570  38.9990740  94.1040460 144.1244940  40.4103200  93.6688460
 142.6698560  41.6915150  96.2558020 141.8940660  41.2115590  96.5456590
 143.3211490  41.0120800  96.0814180 136.6864390  42.0034960  97.1333780
 135.8549270  41.7483670  97.5330290 137.2945370  42.0745730  97.8691700
 146.6905990  46.0975340  95.0357150 146.2287520  45.3262580  95.3644320
 147.5031540  46.1241410  95.5409600 136.6665650  46.0375050  97.3291800
 136.9693690  45.1472790  97.1502020 137.4109240  46.5945270  97.1014050
 135.0956340  36.9636850  90.9176170 134.2073040  37.3052820  90.8156050
 135.3797530  36.7637170  90.0257000 133.0589350  39.5642500  96.8015870
 133.6305460  38.7964700  96.8019510 133.0590890  39.8631260  95.8922480
 142.9169300  48.3833350  94.6561140 142.2980740  48.8390850  94.0855580
 143.7721080  48.5384810  94.2550840 142.1107550  44.3672340  96.2628180
 142.0415830  43.4262280  96.1017310 142.8727410  44.4573750  96.8350750
 134.3014220  34.9726860  98.5884800 134.1217060  34.0752610  98.8687560
 133.8994300  35.5198730  99.2631750 143.1412720  37.1742720  96.4897110
 143.5177540  36.3014600  96.3770780 143.0432230  37.5101420  95.5987550
 137.2717730  35.5468350  91.9514550 137.3784480  36.4472080  92.2583310
 136.3610090  35.4986320  91.6609200 146.9236840  34.6693160  93.4225450
 147.7446460  34.1789730  93.4650930 146.9570920  35.2590820  94.1757290
 134.9200890  37.4687360  97.1967140 135.6011000  37.7325730  97.8154540
 134.6048940  36.6288230  97.5305150 139.1125460  38.5154720  96.2839730
 139.6203680  39.0135690  96.9244750 139.6438700  37.7389920  96.1079090
 137.3961560  33.1553280 100.5503150 137.3980000  33.6725670  99.7449050
 136.5665870  32.6783460 100.5273080 143.7832650  43.2672590  92.0493050
 143.1649920  43.7322040  91.4855770 144.2955900  43.9600070  92.4662560
 138.6464410  42.7948460  98.7276650 138.3133790  43.4217380  99.3697720
 138.8231090  43.3210340  97.9478320 147.1598320  36.6093540  96.1952990
 146.4553890  36.8978430  96.7756100 147.5210480  37.4193650  95.8352550
 137.0776890  34.8663240  98.5573600 137.4193700  35.7105290  98.2627470
 136.1392700  35.0146980  98.6738940 137.8583510  44.7629260 100.5425830
 138.4757510  45.4380340 100.2610280 136.9976630  45.1717240 100.4513330
 133.1515850  43.9529120  89.4232680 132.7743830  44.4416220  88.6917580
 133.4088920  44.6254400  90.0539210 148.7761100  46.2268670  98.4580470
 148.0924620  46.8967780  98.4497140 149.3155390  46.4249320  97.6925330
 140.7604780  32.3545510  94.8818190 141.0679760  31.7992400  94.1653690
 139.8305480  32.4889970  94.6991180 146.3119840  48.0712800  97.1725650
 146.3247000  47.6675090  96.3047910 145.7595060  48.8460090  97.0687080
 147.6065260  44.7929020  92.2615820 147.4961590  43.8503350  92.3865240
 147.6033510  45.1544660  93.1478580 145.7105280  42.9742640  98.5008260
 146.1274070  42.7602750  97.6661720 146.4345100  43.2315430  99.0716880
 143.1485540  40.4194340  91.6178310 142.2214820  40.3531720  91.8466780
 143.3010360  41.3574470  91.5033550 143.1354620  36.6911340  88.6145470
 142.1958290  36.8525300  88.6997930 143.4537880  37.4097020  88.0681460
 149.6567380  41.3729860  98.5924500 148.8286010  41.4422950  98.1174630
 150.2517860  41.9584170  98.1240330 147.1782830  41.9814640  92.1213560
 146.5595250  41.6434190  91.4739860 147.1607280  41.3374400  92.8292750
 146.6209390  38.1599180  99.5379370 146.2080570  38.9852890  99.7919360
 145.8885340  37.5744220  99.3455730 138.7542180  40.9459080  94.3998040
 138.3499180  40.2336330  93.9043940 138.8405300  40.6012320  95.2886080
 139.2223880  44.6326640  96.5637250 138.9252170  44.0272110  95.8845030
 140.1723700  44.6703950  96.4526610 137.4670800  37.7202290  98.1797080
 138.0185390  37.8297630  97.4050330 137.9814310  38.0939890  98.8952310
 147.3109490  48.2058510 100.2260350 146.8340050  49.0130700 100.0332960
 146.6271280  47.5536840 100.3786560 138.3142310  44.3708330 103.2145050
 137.4170840  44.5948300 103.4618450 138.3395180  44.4943270 102.2656450
 145.3547530  41.2201450  89.1286310 145.7940810  40.3823880  88.9824130
 146.0675950  41.8530850  89.2150450 137.1413530  41.2421650 101.7902420
 137.0021300  42.1144450 102.1589820 136.2594890  40.8994460 101.6450360
 143.4642910  46.1597520  93.0967550 143.9038820  46.9021850  92.6822940
 143.4029800  46.4024090  94.0206510 138.9393880  47.1843350 103.9987570
 138.9109310  47.5886300 103.1316000 138.7758850  46.2553710 103.8359170
 148.9364670  32.4744260  87.4427350 148.6237330  32.5671090  88.3426420
 149.6977140  33.0525290  87.3924780 135.4546810  39.8404060  91.9004690
 135.3344410  40.5666150  91.2885960 135.1447700  39.0706970  91.4232600
 133.0932180  43.0119200  97.7073330 133.1712600  43.1467970  96.7629050
 133.7073860  42.3035090  97.9001450 134.3379810  44.7119390  94.1179510
 133.9307890  44.8533980  93.2633110 135.2292820  44.4279550  93.9150720
 150.2941950  45.1583300 102.4551750 150.4205010  44.9195180 101.5368930
 150.3363330  44.3267840 102.9273830 144.1558690  48.8611300 101.0246560
 144.6703360  48.7719310 101.8268990 143.3127770  49.2071000 101.3174470
 146.1313090  49.1466640  90.4530560 145.9714230  48.8569580  91.3512390
 145.9659800  48.3706770  89.9175790 138.6101470  48.9265170  92.2302180
 138.4343950  48.0100710  92.0169980 137.7557210  49.2852460  92.4699980
 145.8339220  46.6554200  89.0128560 145.1404380  46.6531490  88.3530840
 146.5762080  46.2313520  88.5822730 145.3989150  48.2816910  93.0877050
 145.8546100  47.5006290  93.4015670 145.7381670  48.9923730  93.6318230
 150.1465960  37.2115760 103.4201490 149.5310230  37.7195430 102.8916950
 149.8262380  36.3114090 103.3627430 133.1491700  44.0533370 100.2467790
 133.3122740  43.5838730  99.4287160 133.6144150  43.5456930 100.9116630
 137.9210470  33.1839130  95.2828360 137.4778620  33.9648670  94.9512880
 138.4795460  33.5069020  95.9899300 142.2080280  36.0507650 100.8863680
 141.7459650  36.2590670 101.6983620 141.8058390  35.2367000 100.5834350
 147.2084790  37.2716600 102.0160340 146.3578380  36.9722350 102.3369410
 147.0486580  37.5158610 101.1044160 144.3034500  38.7718350 104.1159130
 144.6287910  37.9382100 103.7761360 145.0914830  39.2946870 104.2637460
 141.0369290  32.8049830  90.1634190 140.4123470  32.8009700  90.8887500
 140.9499410  31.9380790  89.7670160 139.9586370  33.7286460  97.1417960
 140.2558700  34.6349290  97.0609980 140.5071930  33.2405240  96.5277530
 137.7124690  38.3072700  93.0109610 137.4865610  38.0909870  93.9156230
 136.9317220  38.7401160  92.6655580 144.9422450  38.3136070  91.6100260
 144.3431340  39.0371870  91.4263880 145.4902060  38.2512850  90.8276710
 140.1523900  39.2058280 103.6769880 140.0567500  38.2653010 103.5270280
 140.9955880  39.4273350 103.2817950 143.5487320  36.9499610  93.6403540
 143.9416890  37.2671810  92.8272230 143.9104170  36.0711490  93.7548060
 135.2834440  35.6171950 101.8303660 134.8897830  36.4647160 102.0376440
 134.5952840  34.9798320 102.0212300 141.8579490  35.7006920 104.9000400
 141.1677810  35.5079120 105.5346490 142.6011790  35.9841560 105.4324700
 132.5851490  33.5400410  95.8633740 132.2964540  34.1103270  96.5758720
 133.3297250  33.0604860  96.2264970 132.7721720  37.4820530  87.0736460
 132.6896390  38.4251290  87.2151450 132.4204780  37.3395440  86.1948810
 144.1342460  39.5405360  97.7354320 143.4023580  40.0492170  98.0844420
 143.7366800  38.7235340  97.4343100 140.5719850  36.2159560  96.1406810
 140.5755910  35.7749510  95.2911350 141.4670970  36.5376890  96.2478630
 136.4222230  36.0986050  95.1001020 136.0822280  36.5761280  95.8568070
 135.6599550  35.6451170  94.7402120 140.6340000  37.2171640  89.1313570
 140.7552820  37.1758120  90.0799390 140.2488510  38.0795790  88.9760300
 144.5968370  34.9939040  97.1477260 144.6141110  35.4447690  97.9919110
 144.3483950  34.0944680  97.3610700 139.6461500  39.5272780  88.5296870
 139.0778400  39.0791030  87.9032780 140.3550500  39.8865560  87.9962020
 148.0239120  32.4071220 102.9863640 148.3484890  31.6760880 103.5121620
 148.0595630  32.0884860 102.0844630 134.7230680  43.4284800 102.4063600
 134.3385470  42.7878470 103.0046560 135.0342870  44.1320920 102.9758330
 140.8727820  40.2761340  97.8872220 141.2397950  39.8019910  98.6333560
 140.6832880  41.1502910  98.2280560 133.7368310  35.0205030  94.0165690
 133.4515230  34.6560700  94.8544310 133.6747170  34.2885490  93.4028830
 138.6627190  39.3169980 100.2056430 138.3584260  40.1961960 100.4306790
 139.6173650  39.3769770 100.2413870 137.1908980  43.5230970  90.8023280
 136.4171240  42.9828590  90.6422000 137.9203610  43.0037580  90.4641040
 147.9496960  42.5196330  96.5949670 148.6696080  43.0151620  96.2045780
 147.7478780  41.8414220  95.9503540 143.4106900  33.9134290  90.7379060
 142.5971510  33.4147460  90.6624370 143.2168850  34.7532540  90.3215410
 143.3315760  42.5905390 102.4818670 143.2653070  41.6701060 102.2276260
 142.7020900  42.6880830 103.1963310 146.1255290  38.2853940  89.0341220
 147.0134910  38.5971170  88.8592560 146.0960380  37.4126190  88.6421800
 137.2346380  43.1911350  94.4402090 137.7525050  42.3879610  94.3858980
 136.7830400  43.1290490  95.2818920 142.1215880  44.4577630  89.7129390
 142.4631580  45.2019860  89.2172710 141.2928590  44.7708750  90.0754220
 134.7190920  40.1572720 101.3527790 134.3605860  40.8226570 101.9401130
 134.4245480  39.3256270 101.7240410 137.9204040  40.6156960 104.2367340
 137.6204180  40.7614140 103.3395160 138.6915280  40.0562250 104.1440730
 143.2632490  45.4125960 102.2322470 143.2777030  44.4806920 102.0141380
 142.5557590  45.4985720 102.8712240 148.3969560  39.5965780  88.5021080
 148.3133280  40.0280000  87.6517520 149.1163750  40.0564130  88.9347900
 149.4743700  42.0533300 101.5791050 148.7491890  42.6462080 101.3820440
 150.0019160  42.0456840 100.7804420 149.4256810  46.4508040  91.2303210
 148.7832970  45.7963660  91.5046930 149.0387470  46.8563130  90.4543880
 145.0043290  43.7793470  95.0774900 145.3567110  43.1821600  94.4176270
 144.1205620  43.4537700  95.2483150 141.0906570  44.5391160  92.4845310
 141.7777700  45.0860370  92.8652900 140.3038990  45.0831890  92.5194920
 133.2298970  40.1563980  87.9762390 134.0993820  40.4388780  88.2598310
 132.7389290  40.9699850  87.8611200 140.3933780  41.5437190  92.0970670
 140.8496560  42.3542440  92.3230860 140.0421990  41.2260330  92.9289160
 142.6966390  47.0543530  99.3262970 143.3408610  47.2602910 100.0036390
 143.0595830  46.2931930  98.8733820 136.2945560  31.8874840  92.5693190
 136.1660190  31.8792740  93.5178110 135.4707580  32.2257930  92.2184200
 143.9698470  45.0575880  98.0440420 144.6120700  44.3569040  98.1572590
 144.4947820  45.8374320  97.8637310 147.8154190  45.3424500  87.7679560
 147.5891770  44.6254940  88.3604200 147.4250390  45.0936940  86.9301310
 145.7436090  45.8570780 101.2476480 146.0792330  46.4437470 101.9254400
 144.8236430  45.7263490 101.4774270 133.5970220  49.3691360  88.5424020
 133.9567860  49.9680700  87.8881290 133.4562560  49.9151250  89.3159050
 133.2939490  33.6465960 102.0299890 132.5798010  33.8462880 102.6352500
 133.7134530  32.8705530 102.4014690 147.3970440  43.2596440  89.4293720
 147.1092140  43.7209130  90.2171600 148.1922610  42.7994210  89.6977940
 133.5812080  47.6346220 103.0166420 133.6903200  46.6940960 102.8761810
 132.9292640  47.9000970 102.3680150 141.5724670  45.9062110 104.4164540
 141.2521540  45.1871350 104.9610230 140.8983030  46.5817180 104.4900600
 139.6138840  46.7522560  89.3597690 139.6048940  47.4852250  88.7442200
 138.6937200  46.5054140  89.4524650 135.2145480  41.9737450  90.1044450
 134.6073430  42.7136350  90.1139750 135.6894830  42.0636810  89.2782650
 144.7878270  36.1388270  99.7801340 145.1559090  35.3183480 100.1080910
 143.9276470  36.1990160 100.1956990 148.1540300  35.0945210  90.5888900
 147.5253460  35.1990880  89.8747130 147.6592220  35.3141990  91.3782780
 142.5998440  46.8150800  88.0222880 142.7010420  46.6114790  87.0924860
 141.7000180  46.5609080  88.2270660 140.1224330  37.3731160  92.0046780
 139.4140480  37.8417500  92.4460390 140.4068810  36.7153170  92.6391970
 141.7480260  38.7927860 100.0039310 142.2465510  39.2673680 100.6691160
 141.8903210  37.8691380 100.2109340 144.1539760  34.0981820  93.4442570
 144.0307540  34.1167950  92.4952080 145.1024320  34.1460760  93.5640970
 141.2416550  49.3337120  92.7170550 141.4958050  49.2958510  91.7949920
 140.2929030  49.2070450  92.7098800 138.3259350  35.6816240  89.3797490
 139.1749880  36.1186390  89.3137680 137.9590620  35.9936500  90.2069550
 148.9547120  35.0095820 100.8467700 148.4520720  35.7501220 101.1861510
 149.7703780  35.3979820 100.5304490 147.2469130  40.2529000  94.2929060
 146.3059270  40.2679230  94.4676750 147.5613200  39.4664960  94.7389360
 137.2250770  41.9348600  87.8533020 137.9914040  41.8229960  88.4158450
 137.3025460  41.2386570  87.2009790 135.9197530  39.3673670  88.5365910
 136.0001120  38.4201180  88.6483310 136.8117280  39.6980550  88.6426570
 149.2494710  47.4237850  95.9683320 149.3742130  48.2469020  96.4407130
 150.1160270  47.2128580  95.6207470 136.7212240  49.5169060  95.6400450
 137.4574720  48.9684520  95.9109020 137.1053160  50.3825070  95.5006440
 133.6057720  45.5842630  91.5141960 132.6797500  45.8263770  91.5047370
 134.0714150  46.4116890  91.3926710 135.7270520  48.7015130 104.8286030
 136.5283250  49.0227180 105.2421430 135.2122340  48.3410710 105.5505940
 139.8314550  48.6899370  87.4626020 140.6243160  48.9788200  87.0107810
 139.3118900  48.2591540  86.7838500 144.5635150  44.8095000 104.7761440
 143.9573310  44.8326600 104.0357190 144.2589260  44.0778040 105.3128690
 145.9935520  48.5375290 103.3870850 146.9457270  48.4533310 103.3371090
 145.8463740  49.2017000 104.0604640 148.8844720  47.9169500  88.8862760
 148.5986230  47.5034640  88.0716940 148.6864270  48.8457210  88.7663280
 133.4468330  41.1888590 103.7722080 133.9507350  40.6095870 104.3438310
 132.7075750  41.4728820 104.3098450 140.3491950  43.9102780  87.3268370
 140.2442590  43.2955130  88.0529750 140.1816170  43.3868670  86.5431380
 140.5006270  42.5959580 103.3057600 139.7351940  43.1644580 103.2212270
 140.6822230  42.3035790 102.4125830 143.5894680  42.9722810  87.9310360
 143.0404780  43.4192110  88.5753100 144.2113940  42.4672060  88.4548030
 147.6429620  44.3264910 103.8632620 148.3839090  44.6640670 103.3600080
 146.8802300  44.4956970 103.3102390 135.4791410  39.3318180 104.6672150
 135.5196750  39.0332050 105.5757380 136.3336910  39.7325790 104.5079670
 139.2569800  41.9313730  89.8275660 139.6786220  41.7653600  90.6707050
 139.3820640  41.1213960  89.3330800 137.4197220  37.9110280 102.6346640
 136.8893680  37.4201230 102.0069980 138.0885290  38.3394480 102.1004570
 141.7697440  40.9551340  87.0752760 142.2903100  40.2400360  86.7093910
 142.4165840  41.5937210  87.3753270 146.3175280  42.3779740 102.3987830
 146.7316300  42.5324820 103.2478250 145.3826280  42.5034960 102.5613610
 146.7897450  39.7175900 104.4026980 147.3718220  38.9628220 104.3147460
 146.9659220  40.2483340 103.6258460 137.9069520  34.8772650 102.7143930
 137.8126390  34.2593400 101.9894800 137.3266910  35.6038940 102.4873840
 140.6730960  33.4345890  99.7471320 140.2248260  33.4570150  98.9016870
 140.0396160  33.0364910 100.3441620 141.0790510  42.3300220 100.3683760
 141.4978620  43.1732950 100.1960000 140.1599140  42.4672260 100.1390540
 143.4154410  40.0616400 101.7521600 143.5350620  39.4657540 102.4916440
 144.2748410  40.0986090 101.3322900 145.7542310  40.6153590 100.3284110
 145.2277530  41.1396210  99.7249250 146.0973650  41.2480980 100.9593840
 138.1528700  38.0046960  86.7733820 137.9517760  37.1414320  87.1347160
 137.9820750  37.9180320  85.8355420 138.9297930  48.6353230 101.4841490
 138.3919020  49.3599290 101.1650190 139.1831890  48.1583570 100.6938830
 140.1823180  36.6037750 103.0097420 140.7722870  36.2953600 103.6975240
 139.3643420  36.1317500 103.1657320 145.0016610  36.2203560 103.2430440
 144.3132130  35.5585100 103.1780430 145.7222630  35.7741830 103.6878900
 145.6317010  32.8155190  89.3020700 145.9119300  31.9723090  89.6580120
 144.8582740  33.0478300  89.8159450 136.9511500  35.1047580  86.7611700
 137.2537400  35.1115010  85.8530850 137.6906090  34.7545440  87.2579360
 141.7860140  49.8704440 101.7428140 141.7118840  50.7739580 102.0500510
 140.8838980  49.5516340 101.7150210 140.1696430  34.0482200  87.7467900
 139.8218430  33.3706190  87.1670350 140.3709200  33.5871710  88.5611290
 142.3345470  49.0362950  89.3654500 143.2296260  49.3747920  89.3873260
 142.3663100  48.3142360  88.7378780 135.9741630  44.4090000  87.5941500
 136.4116500  44.9519670  88.2499080 136.4589360  43.5836950  87.6037840
 133.1887430  47.1979030  95.0461760 133.5190440  46.3300090  94.8140400
 133.6178430  47.4037550  95.8766720 137.7849350  45.5288040  92.7063730
 137.4844890  45.4053010  93.6067640 137.6786840  44.6696630  92.2979460
 133.6777640  48.0649620  97.7843390 133.2408630  48.2450420  98.6167540
 134.2455320  48.8224240  97.6425110 149.3139820  47.5666620 102.0720700
 148.7141810  47.6259180 101.3284620 149.4433720  46.6271600 102.2017550
 133.5102070  40.5769850  94.1432270 132.8550910  40.3081490  93.4991970
 134.3480020  40.4674330  93.6934250 147.9991460  44.2918600 100.1696860
 147.1851300  44.7215760 100.4322650 148.4065660  44.9037010  99.5565910
 150.0616900  42.3466290  87.0697130 150.3365740  43.2545170  86.9416350
 149.8727640  42.2828820  88.0059120 146.4592510  35.3711140  88.3650760
 146.8777390  35.1842120  87.5247420 146.1528570  34.5190190  88.6753690
 149.9582240  40.2835280  92.0626560 149.5825840  39.5163210  91.6307850
 149.2285360  40.6657980  92.5501490 134.5478000  40.9622420  98.6835610
 134.9151040  40.8749820  99.5631630 133.9788820  40.1988970  98.5842470
 149.3481860  39.4306800 101.6966080 149.1167950  39.2019550 100.7964030
 149.6086410  40.3506350 101.6510970 134.0994000  37.8731510 102.5894030
 133.2050050  37.8398270 102.9287740 134.6391550  38.0718300 103.3545280
 147.7869930  34.6563230 104.4745780 148.6640110  34.6646630 104.8579780
 147.7990770  33.9194070 103.8638130 132.7240150  37.7868780  90.0857600
 131.8204230  38.0498980  89.9109260 133.2080770  38.0579950  89.3057560
 149.2333200  38.5092770  95.3633800 149.7570680  38.0155420  94.7323970
 149.8192620  38.6443130  96.1081370 149.4122920  38.5932640  98.8853350
 148.4625630  38.5596180  98.9998340 149.5935930  39.5032750  98.6503120
 135.2667360  36.8434320  87.9951980 135.9759060  36.4217540  87.5099260
 134.5507300  36.9109550  87.3635330 134.9141520  32.8973650  87.0354630
 135.6369650  33.4382590  87.3535850 135.1866040  32.6237070  86.1596170
 148.7233170  37.7666120  91.3026210 149.2192290  37.5336990  92.0875090
 148.5249240  36.9277960  90.8863850 134.6033710  32.1479840  96.9377250
 135.2509900  31.5977220  96.4972410 135.0235550  32.4022990  97.7593060
 148.4986050  32.3421200 100.2946890 149.1358270  32.9555340 100.6606080
 148.6460940  32.3781860  99.3496120 148.0567510  49.0437200  93.6965130
 148.6526580  48.7221770  93.0199550 148.3145660  48.5709020  94.4878400
 134.3565710  32.3035510  99.6802570 134.0080530  32.7599330 100.4460750
 134.0253410  31.4092640  99.7625000 135.9630080  45.4755110 103.8455760
 135.9199710  45.1048020 104.7270220 136.0941090  46.4132680 103.9857580
 139.6636110  47.0314700  99.4465480 139.4227470  47.2989260  98.5596000
 140.6038750  47.2020430  99.5016340 141.8690530  33.4947390 103.2021990
 141.8079420  34.0869220 103.9517400 142.8090910  33.3873350 103.0572250
 144.5065090  33.1517450 102.8414280 145.1205500  33.4696740 102.1795360
 145.0514650  32.6666040 103.4610140 135.0286350  31.8311710 102.9553340
 135.5769340  31.6499760 102.1919450 135.0941660  31.0405820 103.4909650
 135.8018110  48.4217360 100.9653540 135.2078430  48.2902060 101.7043580
 135.7941950  47.5855500 100.4995640 145.2473130  31.7149590  99.1683570
 144.3732970  32.0484700  98.9656500 145.1383880  31.2422770  99.9935440
 146.1545110  33.9220460 100.5525290 145.8258470  33.1072220 100.1727020
 147.1027410  33.8790270 100.4290980 148.6079720  49.6932500  97.5262860
 148.1482690  50.4448310  97.1520880 147.9792180  48.9738970  97.4677660
 135.4330340  45.7875740  99.9161580 134.7064400  45.1681030  99.8487530
 135.4939490  46.1816350  99.0459660 139.0375440  48.0020740  96.7010990
 139.5540460  47.3908100  96.1759250 139.6872820  48.5049520  97.1922000
 141.7770940  48.8929230  97.5279970 142.0648750  48.6383530  96.6512980
 142.2894160  48.3406590  98.1185540 142.9947950  32.6319430  98.1076480
 142.2119740  33.1064930  98.3873240 142.7010880  31.7274260  97.9989660
 147.5469020  33.3342530  96.1525570 147.9877110  33.2787630  95.3047170
 147.2776610  34.2500540  96.2235750 149.4107590  32.9657770  94.1634390
 149.3495990  32.0218990  94.0165410 150.1899620  33.0737860  94.7087850
 133.7160340  49.1050130  93.1258340 133.5482380  48.4720810  93.8240230
 132.8494850  49.3109530  92.7752530 134.3388360  32.9366910  90.6290200
 135.0967720  33.0495790  90.0554230 133.8765530  33.7736110  90.5833630
 140.8802170  35.0506180  93.6192510 140.0676680  34.6763070  93.2788390
 141.3843810  34.2951260  93.9213700 145.3827150  31.7148630  94.8575580
 145.9856520  32.2868840  95.3324100 144.6420140  32.2788070  94.6349480
 148.5261750  32.1170190  90.1315860 148.7212380  33.0153640  90.3983290
 147.7391620  31.8857270  90.6248810 135.3223040  47.7983360  90.5708480
 134.7970660  48.1791390  89.8670440 135.2467620  48.4234130  91.2918190
 136.7113510  33.4630960  89.1692170 137.2406270  32.6760760  89.0400120
 137.3441830  34.1422150  89.4027700 138.9051350  33.2006100  92.2237560
 138.2754090  32.4993410  92.3907690 138.3656490  33.9610230  92.0070720
 141.8443300  49.8145330 104.8948170 142.7710610  49.5789600 104.9384130
 141.8293730  50.6417330 104.4134200 150.0788360  49.3570900  91.8922420
 150.2540550  48.6708640  91.2483340 149.3809930  49.8817950  91.4999090
 139.0306910  32.4790080 104.6590050 138.7491180  32.9823680 103.8950870
 139.4126610  31.6811830 104.2932180 137.9216010  49.7465740  89.4457730
 138.6534830  49.4625020  88.8981620 138.1809680  49.5079020  90.3357110
 137.0830800  45.8630470  89.4504060 136.4539680  46.3315570  89.9989890
 137.1978630  45.0179690  89.8850250 145.6322370  31.8943660 105.2370520
 145.5187820  32.2138270 106.1322040 146.4492110  32.2956170 104.9407800
 148.4120860  49.0415190 104.7189210 149.2046180  48.5464420 104.5115170
 148.7054010  49.7205330 105.3264820 144.5380520  39.9136130  75.6005260
 144.4574570  38.9990740  75.3296970 144.1244940  40.4103200  74.8944970
 142.6698560  41.6915150  77.4814530 141.8940660  41.2115590  77.7713100
 143.3211490  41.0120800  77.3070690 136.6864390  42.0034960  78.3590290
 135.8549270  41.7483670  78.7586800 137.2945370  42.0745730  79.0948210
 146.6905990  46.0975340  76.2613660 146.2287520  45.3262580  76.5900830
 147.5031540  46.1241410  76.7666110 136.6665650  46.0375050  78.5548310
 136.9693690  45.1472790  78.3758530 137.4109240  46.5945270  78.3270560
 135.0956340  36.9636850  72.1432680 134.2073040  37.3052820  72.0412560
 135.3797530  36.7637170  71.2513510 133.0589350  39.5642500  78.0272380
 133.6305460  38.7964700  78.0276020 133.0590890  39.8631260  77.1178990
 142.9169300  48.3833350  75.8817650 142.2980740  48.8390850  75.3112090
 143.7721080  48.5384810  75.4807350 142.1107550  44.3672340  77.4884690
 142.0415830  43.4262280  77.3273820 142.8727410  44.4573750  78.0607260
 134.3014220  34.9726860  79.8141310 134.1217060  34.0752610  80.0944070
 133.8994300  35.5198730  80.4888260 143.1412720  37.1742720  77.7153620
 143.5177540  36.3014600  77.6027290 143.0432230  37.5101420  76.8244060
 137.2717730  35.5468350  73.1771060 137.3784480  36.4472080  73.4839820
 136.3610090  35.4986320  72.8865710 146.9236840  34.6693160  74.6481960
 147.7446460  34.1789730  74.6907440 146.9570920  35.2590820  75.4013800
 134.9200890  37.4687360  78.4223650 135.6011000  37.7325730  79.0411050
 134.6048940  36.6288230  78.7561660 139.1125460  38.5154720  77.5096240
 139.6203680  39.0135690  78.1501260 139.6438700  37.7389920  77.3335600
 137.3961560  33.1553280  81.7759660 137.3980000  33.6725670  80.9705560
 136.5665870  32.6783460  81.7529590 143.7832650  43.2672590  73.2749560
 143.1649920  43.7322040  72.7112280 144.2955900  43.9600070  73.6919070
 138.6464410  42.7948460  79.9533160 138.3133790  43.4217380  80.5954230
 138.8231090  43.3210340  79.1734830 147.1598320  36.6093540  77.4209500
 146.4553890  36.8978430  78.0012610 147.5210480  37.4193650  77.0609060
 137.0776890  34.8663240  79.7830110 137.4193700  35.7105290  79.4883980
 136.1392700  35.0146980  79.8995450 137.8583510  44.7629260  81.7682340
 138.4757510  45.4380340  81.4866790 136.9976630  45.1717240  81.6769840
 133.1515850  43.9529120  70.6489190 132.7743830  44.4416220  69.9174090
 133.4088920  44.6254400  71.2795720 148.7761100  46.2268670  79.6836980
 148.0924620  46.8967780  79.6753650 149.3155390  46.4249320  78.9181840
 140.7604780  32.3545510  76.1074700 141.0679760  31.7992400  75.3910200
 139.8305480  32.4889970  75.9247690 146.3119840  48.0712800  78.3982160
 146.3247000  47.6675090  77.5304420 145.7595060  48.8460090  78.2943590
 147.6065260  44.7929020  73.4872330 147.4961590  43.8503350  73.6121750
 147.6033510  45.1544660  74.3735090 145.7105280  42.9742640  79.7264770
 146.1274070  42.7602750  78.8918230 146.4345100  43.2315430  80.2973390
 143.1485540  40.4194340  72.8434820 142.2214820  40.3531720  73.0723290
 143.3010360  41.3574470  72.7290060 143.1354620  36.6911340  69.8401980
 142.1958290  36.8525300  69.9254440 143.4537880  37.4097020  69.2937970
 149.6567380  41.3729860  79.8181010 148.8286010  41.4422950  79.3431140
 150.2517860  41.9584170  79.3496840 147.1782830  41.9814640  73.3470070
 146.5595250  41.6434190  72.6996370 147.1607280  41.3374400  74.0549260
 146.6209390  38.1599180  80.7635880 146.2080570  38.9852890  81.0175870
 145.8885340  37.5744220  80.5712240 138.7542180  40.9459080  75.6254550
 138.3499180  40.2336330  75.1300450 138.8405300  40.6012320  76.5142590
 139.2223880  44.6326640  77.7893760 138.9252170  44.0272110  77.1101540
 140.1723700  44.6703950  77.6783120 137.4670800  37.7202290  79.4053590
 138.0185390  37.8297630  78.6306840 137.9814310  38.0939890  80.1208820
 147.3109490  48.2058510  81.4516860 146.8340050  49.0130700  81.2589470
 146.6271280  47.5536840  81.6043070 138.3142310  44.3708330  84.4401560
 137.4170840  44.5948300  84.6874960 138.3395180  44.4943270  83.4912960
 145.3547530  41.2201450  70.3542820 145.7940810  40.3823880  70.2080640
 146.0675950  41.8530850  70.4406960 137.1413530  41.2421650  83.0158930
 137.0021300  42.1144450  83.3846330 136.2594890  40.8994460  82.8706870
 143.4642910  46.1597520  74.3224060 143.9038820  46.9021850  73.9079450
 143.4029800  46.4024090  75.2463020 138.9393880  47.1843350  85.2244080
 138.9109310  47.5886300  84.3572510 138.7758850  46.2553710  85.0615680
 148.9364670  32.4744260  68.6683860 148.6237330  32.5671090  69.5682930
 149.6977140  33.0525290  68.6181290 135.4546810  39.8404060  73.1261200
 135.3344410  40.5666150  72.5142470 135.1447700  39.0706970  72.6489110
 133.0932180  43.0119200  78.9329840 133.1712600  43.1467970  77.9885560
 133.7073860  42.3035090  79.1257960 134.3379810  44.7119390  75.3436020
 133.9307890  44.8533980  74.4889620 135.2292820  44.4279550  75.1407230
 150.2941950  45.1583300  83.6808260 150.4205010  44.9195180  82.7625440
 150.3363330  44.3267840  84.1530340 144.1558690  48.8611300  82.2503070
 144.6703360  48.7719310  83.0525500 143.3127770  49.2071000  82.5430980
 146.1313090  49.1466640  71.6787070 145.9714230  48.8569580  72.5768900
 145.9659800  48.3706770  71.1432300 138.6101470  48.9265170  73.4558690
 138.4343950  48.0100710  73.2426490 137.7557210  49.2852460  73.6956490
 145.8339220  46.6554200  70.2385070 145.1404380  46.6531490  69.5787350
 146.5762080  46.2313520  69.8079240 145.3989150  48.2816910  74.3133560
 145.8546100  47.5006290  74.6272180 145.7381670  48.9923730  74.8574740
 150.1465960  37.2115760  84.6458000 149.5310230  37.7195430  84.1173460
 149.8262380  36.3114090  84.5883940 133.1491700  44.0533370  81.4724300
 133.3122740  43.5838730  80.6543670 133.6144150  43.5456930  82.1373140
 137.9210470  33.1839130  76.5084870 137.4778620  33.9648670  76.1769390
 138.4795460  33.5069020  77.2155810 142.2080280  36.0507650  82.1120190
 141.7459650  36.2590670  82.9240130 141.8058390  35.2367000  81.8090860
 147.2084790  37.2716600  83.2416850 146.3578380  36.9722350  83.5625920
 147.0486580  37.5158610  82.3300670 144.3034500  38.7718350  85.3415640
 144.6287910  37.9382100  85.0017870 145.0914830  39.2946870  85.4893970
 141.0369290  32.8049830  71.3890700 140.4123470  32.8009700  72.1144010
 140.9499410  31.9380790  70.9926670 139.9586370  33.7286460  78.3674470
 140.2558700  34.6349290  78.2866490 140.5071930  33.2405240  77.7534040
 137.7124690  38.3072700  74.2366120 137.4865610  38.0909870  75.1412740
 136.9317220  38.7401160  73.8912090 144.9422450  38.3136070  72.8356770
 144.3431340  39.0371870  72.6520390 145.4902060  38.2512850  72.0533220
 140.1523900  39.2058280  84.9026390 140.0567500  38.2653010  84.7526790
 140.9955880  39.4273350  84.5074460 143.5487320  36.9499610  74.8660050
 143.9416890  37.2671810  74.0528740 143.9104170  36.0711490  74.9804570
 135.2834440  35.6171950  83.0560170 134.8897830  36.4647160  83.2632950
 134.5952840  34.9798320  83.2468810 141.8579490  35.7006920  86.1256910
 141.1677810  35.5079120  86.7603000 142.6011790  35.9841560  86.6581210
 132.5851490  33.5400410  77.0890250 132.2964540  34.1103270  77.8015230
 133.3297250  33.0604860  77.4521480 132.7721720  37.4820530  68.2992970
 132.6896390  38.4251290  68.4407960 132.4204780  37.3395440  67.4205320
 144.1342460  39.5405360  78.9610830 143.4023580  40.0492170  79.3100930
 143.7366800  38.7235340  78.6599610 140.5719850  36.2159560  77.3663320
 140.5755910  35.7749510  76.5167860 141.4670970  36.5376890  77.4735140
 136.4222230  36.0986050  76.3257530 136.0822280  36.5761280  77.0824580
 135.6599550  35.6451170  75.9658630 140.6340000  37.2171640  70.3570080
 140.7552820  37.1758120  71.3055900 140.2488510  38.0795790  70.2016810
 144.5968370  34.9939040  78.3733770 144.6141110  35.4447690  79.2175620
 144.3483950  34.0944680  78.5867210 139.6461500  39.5272780  69.7553380
 139.0778400  39.0791030  69.1289290 140.3550500  39.8865560  69.2218530
 148.0239120  32.4071220  84.2120150 148.3484890  31.6760880  84.7378130
 148.0595630  32.0884860  83.3101140 134.7230680  43.4284800  83.6320110
 134.3385470  42.7878470  84.2303070 135.0342870  44.1320920  84.2014840
 140.8727820  40.2761340  79.1128730 141.2397950  39.8019910  79.8590070
 140.6832880  41.1502910  79.4537070 133.7368310  35.0205030  75.2422200
 133.4515230  34.6560700  76.0800820 133.6747170  34.2885490  74.6285340
 138.6627190  39.3169980  81.4312940 138.3584260  40.1961960  81.6563300
 139.6173650  39.3769770  81.4670380 137.1908980  43.5230970  72.0279790
 136.4171240  42.9828590  71.8678510 137.9203610  43.0037580  71.6897550
 147.9496960  42.5196330  77.8206180 148.6696080  43.0151620  77.4302290
 147.7478780  41.8414220  77.1760050 143.4106900  33.9134290  71.9635570
 142.5971510  33.4147460  71.8880880 143.2168850  34.7532540  71.5471920
 143.3315760  42.5905390  83.7075180 143.2653070  41.6701060  83.4532770
 142.7020900  42.6880830  84.4219820 146.1255290  38.2853940  70.2597730
 147.0134910  38.5971170  70.0849070 146.0960380  37.4126190  69.8678310
 137.2346380  43.1911350  75.6658600 137.7525050  42.3879610  75.6115490
 136.7830400  43.1290490  76.5075430 142.1215880  44.4577630  70.9385900
 142.4631580  45.2019860  70.4429220 141.2928590  44.7708750  71.3010730
 134.7190920  40.1572720  82.5784300 134.3605860  40.8226570  83.1657640
 134.4245480  39.3256270  82.9496920 137.9204040  40.6156960  85.4623850
 137.6204180  40.7614140  84.5651670 138.6915280  40.0562250  85.3697240
 143.2632490  45.4125960  83.4578980 143.2777030  44.4806920  83.2397890
 142.5557590  45.4985720  84.0968750 148.3969560  39.5965780  69.7277590
 148.3133280  40.0280000  68.8774030 149.1163750  40.0564130  70.1604410
 149.4743700  42.0533300  82.8047560 148.7491890  42.6462080  82.6076950
 150.0019160  42.0456840  82.0060930 149.4256810  46.4508040  72.4559720
 148.7832970  45.7963660  72.7303440 149.0387470  46.8563130  71.6800390
 145.0043290  43.7793470  76.3031410 145.3567110  43.1821600  75.6432780
 144.1205620  43.4537700  76.4739660 141.0906570  44.5391160  73.7101820
 141.7777700  45.0860370  74.0909410 140.3038990  45.0831890  73.7451430
 133.2298970  40.1563980  69.2018900 134.0993820  40.4388780  69.4854820
 132.7389290  40.9699850  69.0867710 140.3933780  41.5437190  73.3227180
 140.8496560  42.3542440  73.5487370 140.0421990  41.2260330  74.1545670
 142.6966390  47.0543530  80.5519480 143.3408610  47.2602910  81.2292900
 143.0595830  46.2931930  80.0990330 136.2945560  31.8874840  73.7949700
 136.1660190  31.8792740  74.7434620 135.4707580  32.2257930  73.4440710
 143.9698470  45.0575880  79.2696930 144.6120700  44.3569040  79.3829100
 144.4947820  45.8374320  79.0893820 147.8154190  45.3424500  68.9936070
 147.5891770  44.6254940  69.5860710 147.4250390  45.0936940  68.1557820
 145.7436090  45.8570780  82.4732990 146.0792330  46.4437470  83.1510910
 144.8236430  45.7263490  82.7030780 133.5970220  49.3691360  69.7680530
 133.9567860  49.9680700  69.1137800 133.4562560  49.9151250  70.5415560
 133.2939490  33.6465960  83.2556400 132.5798010  33.8462880  83.8609010
 133.7134530  32.8705530  83.6271200 147.3970440  43.2596440  70.6550230
 147.1092140  43.7209130  71.4428110 148.1922610  42.7994210  70.9234450
 133.5812080  47.6346220  84.2422930 133.6903200  46.6940960  84.1018320
 132.9292640  47.9000970  83.5936660 141.5724670  45.9062110  85.6421050
 141.2521540  45.1871350  86.1866740 140.8983030  46.5817180  85.7157110
 139.6138840  46.7522560  70.5854200 139.6048940  47.4852250  69.9698710
 138.6937200  46.5054140  70.6781160 135.2145480  41.9737450  71.3300960
 134.6073430  42.7136350  71.3396260 135.6894830  42.0636810  70.5039160
 144.7878270  36.1388270  81.0057850 145.1559090  35.3183480  81.3337420
 143.9276470  36.1990160  81.4213500 148.1540300  35.0945210  71.8145410
 147.5253460  35.1990880  71.1003640 147.6592220  35.3141990  72.6039290
 142.5998440  46.8150800  69.2479390 142.7010420  46.6114790  68.3181370
 141.7000180  46.5609080  69.4527170 140.1224330  37.3731160  73.2303290
 139.4140480  37.8417500  73.6716900 140.4068810  36.7153170  73.8648480
 141.7480260  38.7927860  81.2295820 142.2465510  39.2673680  81.8947670
 141.8903210  37.8691380  81.4365850 144.1539760  34.0981820  74.6699080
 144.0307540  34.1167950  73.7208590 145.1024320  34.1460760  74.7897480
 141.2416550  49.3337120  73.9427060 141.4958050  49.2958510  73.0206430
 140.2929030  49.2070450  73.9355310 138.3259350  35.6816240  70.6054000
 139.1749880  36.1186390  70.5394190 137.9590620  35.9936500  71.4326060
 148.9547120  35.0095820  82.0724210 148.4520720  35.7501220  82.4118020
 149.7703780  35.3979820  81.7561000 147.2469130  40.2529000  75.5185570
 146.3059270  40.2679230  75.6933260 147.5613200  39.4664960  75.9645870
 137.2250770  41.9348600  69.0789530 137.9914040  41.8229960  69.6414960
 137.3025460  41.2386570  68.4266300 135.9197530  39.3673670  69.7622420
 136.0001120  38.4201180  69.8739820 136.8117280  39.6980550  69.8683080
 149.2494710  47.4237850  77.1939830 149.3742130  48.2469020  77.6663640
 150.1160270  47.2128580  76.8463980 136.7212240  49.5169060  76.8656960
 137.4574720  48.9684520  77.1365530 137.1053160  50.3825070  76.7262950
 133.6057720  45.5842630  72.7398470 132.6797500  45.8263770  72.7303880
 134.0714150  46.4116890  72.6183220 135.7270520  48.7015130  86.0542540
 136.5283250  49.0227180  86.4677940 135.2122340  48.3410710  86.7762450
 139.8314550  48.6899370  68.6882530 140.6243160  48.9788200  68.2364320
 139.3118900  48.2591540  68.0095010 144.5635150  44.8095000  86.0017950
 143.9573310  44.8326600  85.2613700 144.2589260  44.0778040  86.5385200
 145.9935520  48.5375290  84.6127360 146.9457270  48.4533310  84.5627600
 145.8463740  49.2017000  85.2861150 148.8844720  47.9169500  70.1119270
 148.5986230  47.5034640  69.2973450 148.6864270  48.8457210  69.9919790
 133.4468330  41.1888590  84.9978590 133.9507350  40.6095870  85.5694820
 132.7075750  41.4728820  85.5354960 140.3491950  43.9102780  68.5524880
 140.2442590  43.2955130  69.2786260 140.1816170  43.3868670  67.7687890
 140.5006270  42.5959580  84.5314110 139.7351940  43.1644580  84.4468780
 140.6822230  42.3035790  83.6382340 143.5894680  42.9722810  69.1566870
 143.0404780  43.4192110  69.8009610 144.2113940  42.4672060  69.6804540
 147.6429620  44.3264910  85.0889130 148.3839090  44.6640670  84.5856590
 146.8802300  44.4956970  84.5358900 135.4791410  39.3318180  85.8928660
 135.5196750  39.0332050  86.8013890 136.3336910  39.7325790  85.7336180
 139.2569800  41.9313730  71.0532170 139.6786220  41.7653600  71.8963560
 139.3820640  41.1213960  70.5587310 137.4197220  37.9110280  83.8603150
 136.8893680  37.4201230  83.2326490 138.0885290  38.3394480  83.3261080
 141.7697440  40.9551340  68.3009270 142.2903100  40.2400360  67.9350420
 142.4165840  41.5937210  68.6009780 146.3175280  42.3779740  83.6244340
 146.7316300  42.5324820  84.4734760 145.3826280  42.5034960  83.7870120
 146.7897450  39.7175900  85.6283490 147.3718220  38.9628220  85.5403970
 146.9659220  40.2483340  84.8514970 137.9069520  34.8772650  83.9400440
 137.8126390  34.2593400  83.2151310 137.3266910  35.6038940  83.7130350
 140.6730960  33.4345890  80.9727830 140.2248260  33.4570150  80.1273380
 140.0396160  33.0364910  81.5698130 141.0790510  42.3300220  81.5940270
 141.4978620  43.1732950  81.4216510 140.1599140  42.4672260  81.3647050
 143.4154410  40.0616400  82.9778110 143.5350620  39.4657540  83.7172950
 144.2748410  40.0986090  82.5579410 145.7542310  40.6153590  81.5540620
 145.2277530  41.1396210  80.9505760 146.0973650  41.2480980  82.1850350
 138.1528700  38.0046960  67.9990330 137.9517760  37.1414320  68.3603670
 137.9820750  37.9180320  67.0611930 138.9297930  48.6353230  82.7098000
 138.3919020  49.3599290  82.3906700 139.1831890  48.1583570  81.9195340
 140.1823180  36.6037750  84.2353930 140.7722870  36.2953600  84.9231750
 139.3643420  36.1317500  84.3913830 145.0016610  36.2203560  84.4686950
 144.3132130  35.5585100  84.4036940 145.7222630  35.7741830  84.9135410
 145.6317010  32.8155190  70.5277210 145.9119300  31.9723090  70.8836630
 144.8582740  33.0478300  71.0415960 136.9511500  35.1047580  67.9868210
 137.2537400  35.1115010  67.0787360 137.6906090  34.7545440  68.4835870
 141.7860140  49.8704440  82.9684650 141.7118840  50.7739580  83.2757020
 140.8838980  49.5516340  82.9406720 140.1696430  34.0482200  68.9724410
 139.8218430  33.3706190  68.3926860 140.3709200  33.5871710  69.7867800
 142.3345470  49.0362950  70.5911010 143.2296260  49.3747920  70.6129770
 142.3663100  48.3142360  69.9635290 135.9741630  44.4090000  68.8198010
 136.4116500  44.9519670  69.4755590 136.4589360  43.5836950  68.8294350
 133.1887430  47.1979030  76.2718270 133.5190440  46.3300090  76.0396910
 133.6178430  47.4037550  77.1023230 137.7849350  45.5288040  73.9320240
 137.4844890  45.4053010  74.8324150 137.6786840  44.6696630  73.5235970
 133.6777640  48.0649620  79.0099900 133.2408630  48.2450420  79.8424050
 134.2455320  48.8224240  78.8681620 149.3139820  47.5666620  83.2977210
 148.7141810  47.6259180  82.5541130 149.4433720  46.6271600  83.4274060
 133.5102070  40.5769850  75.3688780 132.8550910  40.3081490  74.7248480
 134.3480020  40.4674330  74.9190760 147.9991460  44.2918600  81.3953370
 147.1851300  44.7215760  81.6579160 148.4065660  44.9037010  80.7822420
 150.0616900  42.3466290  68.2953640 150.3365740  43.2545170  68.1672860
 149.8727640  42.2828820  69.2315630 146.4592510  35.3711140  69.5907270
 146.8777390  35.1842120  68.7503930 146.1528570  34.5190190  69.9010200
 149.9582240  40.2835280  73.2883070 149.5825840  39.5163210  72.8564360
 149.2285360  40.6657980  73.7758000 134.5478000  40.9622420  79.9092120
 134.9151040  40.8749820  80.7888140 133.9788820  40.1988970  79.8098980
 149.3481860  39.4306800  82.9222590 149.1167950  39.2019550  82.0220540
 149.6086410  40.3506350  82.8767480 134.0994000  37.8731510  83.8150540
 133.2050050  37.8398270  84.1544250 134.6391550  38.0718300  84.5801790
 147.7869930  34.6563230  85.7002290 148.6640110  34.6646630  86.0836290
 147.7990770  33.9194070  85.0894640 132.7240150  37.7868780  71.3114110
 131.8204230  38.0498980  71.1365770 133.2080770  38.0579950  70.5314070
 149.2333200  38.5092770  76.5890310 149.7570680  38.0155420  75.9580480
 149.8192620  38.6443130  77.3337880 149.4122920  38.5932640  80.1109860
 148.4625630  38.5596180  80.2254850 149.5935930  39.5032750  79.8759630
 135.2667360  36.8434320  69.2208490 135.9759060  36.4217540  68.7355770
 134.5507300  36.9109550  68.5891840 134.9141520  32.8973650  68.2611140
 135.6369650  33.4382590  68.5792360 135.1866040  32.6237070  67.3852680
 148.7233170  37.7666120  72.5282720 149.2192290  37.5336990  73.3131600
 148.5249240  36.9277960  72.1120360 134.6033710  32.1479840  78.1633760
 135.2509900  31.5977220  77.7228920 135.0235550  32.4022990  78.9849570
 148.4986050  32.3421200  81.5203400 149.1358270  32.9555340  81.8862590
 148.6460940  32.3781860  80.5752630 148.0567510  49.0437200  74.9221640
 148.6526580  48.7221770  74.2456060 148.3145660  48.5709020  75.7134910
 134.3565710  32.3035510  80.9059080 134.0080530  32.7599330  81.6717260
 134.0253410  31.4092640  80.9881510 135.9630080  45.4755110  85.0712270
 135.9199710  45.1048020  85.9526730 136.0941090  46.4132680  85.2114090
 139.6636110  47.0314700  80.6721990 139.4227470  47.2989260  79.7852510
 140.6038750  47.2020430  80.7272850 141.8690530  33.4947390  84.4278500
 141.8079420  34.0869220  85.1773910 142.8090910  33.3873350  84.2828760
 144.5065090  33.1517450  84.0670790 145.1205500  33.4696740  83.4051870
 145.0514650  32.6666040  84.6866650 135.0286350  31.8311710  84.1809850
 135.5769340  31.6499760  83.4175960 135.0941660  31.0405820  84.7166160
 135.8018110  48.4217360  82.1910050 135.2078430  48.2902060  82.9300090
 135.7941950  47.5855500  81.7252150 145.2473130  31.7149590  80.3940080
 144.3732970  32.0484700  80.1913010 145.1383880  31.2422770  81.2191950
 146.1545110  33.9220460  81.7781800 145.8258470  33.1072220  81.3983530
 147.1027410  33.8790270  81.6547490 148.6079720  49.6932500  78.7519370
 148.1482690  50.4448310  78.3777390 147.9792180  48.9738970  78.6934170
 135.4330340  45.7875740  81.1418090 134.7064400  45.1681030  81.0744040
 135.4939490  46.1816350  80.2716170 139.0375440  48.0020740  77.9267500
 139.5540460  47.3908100  77.4015760 139.6872820  48.5049520  78.4178510
 141.7770940  48.8929230  78.7536480 142.0648750  48.6383530  77.8769490
 142.2894160  48.3406590  79.3442050 142.9947950  32.6319430  79.3332990
 142.2119740  33.1064930  79.6129750 142.7010880  31.7274260  79.2246170
 147.5469020  33.3342530  77.3782080 147.9877110  33.2787630  76.5303680
 147.2776610  34.2500540  77.4492260 149.4107590  32.9657770  75.3890900
 149.3495990  32.0218990  75.2421920 150.1899620  33.0737860  75.9344360
 133.7160340  49.1050130  74.3514850 133.5482380  48.4720810  75.0496740
 132.8494850  49.3109530  74.0009040 134.3388360  32.9366910  71.8546710
 135.0967720  33.0495790  71.2810740 133.8765530  33.7736110  71.8090140
 140.8802170  35.0506180  74.8449020 140.0676680  34.6763070  74.5044900
 141.3843810  34.2951260  75.1470210 145.3827150  31.7148630  76.0832090
 145.9856520  32.2868840  76.5580610 144.6420140  32.2788070  75.8605990
 148.5261750  32.1170190  71.3572370 148.7212380  33.0153640  71.6239800
 147.7391620  31.8857270  71.8505320 135.3223040  47.7983360  71.7964990
 134.7970660  48.1791390  71.0926950 135.2467620  48.4234130  72.5174700
 136.7113510  33.4630960  70.3948680 137.2406270  32.6760760  70.2656630
 137.3441830  34.1422150  70.6284210 138.9051350  33.2006100  73.4494070
 138.2754090  32.4993410  73.6164200 138.3656490  33.9610230  73.2327230
 141.8443300  49.8145330  86.1204680 142.7710610  49.5789600  86.1640640
 141.8293730  50.6417330  85.6390710 150.0788360  49.3570900  73.1178930
 150.2540550  48.6708640  72.4739850 149.3809930  49.8817950  72.7255600
 139.0306910  32.4790080  85.8846560 138.7491180  32.9823680  85.1207380
 139.4126610  31.6811830  85.5188690 137.9216010  49.7465740  70.6714240
 138.6534830  49.4625020  70.1238130 138.1809680  49.5079020  71.5613620
 137.0830800  45.8630470  70.6760570 136.4539680  46.3315570  71.2246400
 137.1978630  45.0179690  71.1106760 145.6322370  31.8943660  86.4627030
 145.5187820  32.2138270  87.3578550 146.4492110  32.2956170  86.1664310
 148.4120860  49.0415190  85.9445720 149.2046180  48.5464420  85.7371680
 148.7054010  49.7205330  86.5521330 144.5380520  39.9136130  56.8261770
 144.4574570  38.9990740  56.5553480 144.1244940  40.4103200  56.1201480
 142.6698560  41.6915150  58.7071040 141.8940660  41.2115590  58.9969610
 143.3211490  41.0120800  58.5327200 136.6864390  42.0034960  59.5846800
 135.8549270  41.7483670  59.9843310 137.2945370  42.0745730  60.3204720
 146.6905990  46.0975340  57.4870170 146.2287520  45.3262580  57.8157340
 147.5031540  46.1241410  57.9922620 136.6665650  46.0375050  59.7804820
 136.9693690  45.1472790  59.6015040 137.4109240  46.5945270  59.5527070
 135.0956340  36.9636850  53.3689190 134.2073040  37.3052820  53.2669070
 135.3797530  36.7637170  52.4770020 133.0589350  39.5642500  59.2528890
 133.6305460  38.7964700  59.2532530 133.0590890  39.8631260  58.3435500
 142.9169300  48.3833350  57.1074160 142.2980740  48.8390850  56.5368600
 143.7721080  48.5384810  56.7063860 142.1107550  44.3672340  58.7141200
 142.0415830  43.4262280  58.5530330 142.8727410  44.4573750  59.2863770
 134.3014220  34.9726860  61.0397820 134.1217060  34.0752610  61.3200580
 133.8994300  35.5198730  61.7144770 143.1412720  37.1742720  58.9410130
 143.5177540  36.3014600  58.8283800 143.0432230  37.5101420  58.0500570
 137.2717730  35.5468350  54.4027570 137.3784480  36.4472080  54.7096330
 136.3610090  35.4986320  54.1122220 146.9236840  34.6693160  55.8738470
 147.7446460  34.1789730  55.9163950 146.9570920  35.2590820  56.6270310
 134.9200890  37.4687360  59.6480160 135.6011000  37.7325730  60.2667560
 134.6048940  36.6288230  59.9818170 139.1125460  38.5154720  58.7352750
 139.6203680  39.0135690  59.3757770 139.6438700  37.7389920  58.5592110
 137.3961560  33.1553280  63.0016170 137.3980000  33.6725670  62.1962070
 136.5665870  32.6783460  62.9786100 143.7832650  43.2672590  54.5006070
 143.1649920  43.7322040  53.9368790 144.2955900  43.9600070  54.9175580
 138.6464410  42.7948460  61.1789670 138.3133790  43.4217380  61.8210740
 138.8231090  43.3210340  60.3991340 147.1598320  36.6093540  58.6466010
 146.4553890  36.8978430  59.2269120 147.5210480  37.4193650  58.2865570
 137.0776890  34.8663240  61.0086620 137.4193700  35.7105290  60.7140490
 136.1392700  35.0146980  61.1251960 137.8583510  44.7629260  62.9938850
 138.4757510  45.4380340  62.7123300 136.9976630  45.1717240  62.9026350
 133.1515850  43.9529120  51.8745700 132.7743830  44.4416220  51.1430600
 133.4088920  44.6254400  52.5052230 148.7761100  46.2268670  60.9093490
 148.0924620  46.8967780  60.9010160 149.3155390  46.4249320  60.1438350
 140.7604780  32.3545510  57.3331210 141.0679760  31.7992400  56.6166710
 139.8305480  32.4889970  57.1504200 146.3119840  48.0712800  59.6238670
 146.3247000  47.6675090  58.7560930 145.7595060  48.8460090  59.5200100
 147.6065260  44.7929020  54.7128840 147.4961590  43.8503350  54.8378260
 147.6033510  45.1544660  55.5991600 145.7105280  42.9742640  60.9521280
 146.1274070  42.7602750  60.1174740 146.4345100  43.2315430  61.5229900
 143.1485540  40.4194340  54.0691330 142.2214820  40.3531720  54.2979800
 143.3010360  41.3574470  53.9546570 143.1354620  36.6911340  51.0658490
 142.1958290  36.8525300  51.1510950 143.4537880  37.4097020  50.5194480
 149.6567380  41.3729860  61.0437520 148.8286010  41.4422950  60.5687650
 150.2517860  41.9584170  60.5753350 147.1782830  41.9814640  54.5726580
 146.5595250  41.6434190  53.9252880 147.1607280  41.3374400  55.2805770
 146.6209390  38.1599180  61.9892390 146.2080570  38.9852890  62.2432380
 145.8885340  37.5744220  61.7968750 138.7542180  40.9459080  56.8511060
 138.3499180  40.2336330  56.3556960 138.8405300  40.6012320  57.7399100
 139.2223880  44.6326640  59.0150270 138.9252170  44.0272110  58.3358050
 140.1723700  44.6703950  58.9039630 137.4670800  37.7202290  60.6310100
 138.0185390  37.8297630  59.8563350 137.9814310  38.0939890  61.3465330
 147.3109490  48.2058510  62.6773370 146.8340050  49.0130700  62.4845980
 146.6271280  47.5536840  62.8299580 138.3142310  44.3708330  65.6658070
 137.4170840  44.5948300  65.9131470 138.3395180  44.4943270  64.7169470
 145.3547530  41.2201450  51.5799330 145.7940810  40.3823880  51.4337150
 146.0675950  41.8530850  51.6663470 137.1413530  41.2421650  64.2415440
 137.0021300  42.1144450  64.6102840 136.2594890  40.8994460  64.0963380
 143.4642910  46.1597520  55.5480570 143.9038820  46.9021850  55.1335960
 143.4029800  46.4024090  56.4719530 138.9393880  47.1843350  66.4500590
 138.9109310  47.5886300  65.5829020 138.7758850  46.2553710  66.2872190
 148.9364670  32.4744260  49.8940370 148.6237330  32.5671090  50.7939440
 149.6977140  33.0525290  49.8437800 135.4546810  39.8404060  54.3517710
 135.3344410  40.5666150  53.7398980 135.1447700  39.0706970  53.8745620
 133.0932180  43.0119200  60.1586350 133.1712600  43.1467970  59.2142070
 133.7073860  42.3035090  60.3514470 134.3379810  44.7119390  56.5692530
 133.9307890  44.8533980  55.7146130 135.2292820  44.4279550  56.3663740
 150.2941950  45.1583300  64.9064770 150.4205010  44.9195180  63.9881950
 150.3363330  44.3267840  65.3786850 144.1558690  48.8611300  63.4759580
 144.6703360  48.7719310  64.2782010 143.3127770  49.2071000  63.7687490
 146.1313090  49.1466640  52.9043580 145.9714230  48.8569580  53.8025410
 145.9659800  48.3706770  52.3688810 138.6101470  48.9265170  54.6815200
 138.4343950  48.0100710  54.4683000 137.7557210  49.2852460  54.9213000
 145.8339220  46.6554200  51.4641580 145.1404380  46.6531490  50.8043860
 146.5762080  46.2313520  51.0335750 145.3989150  48.2816910  55.5390070
 145.8546100  47.5006290  55.8528690 145.7381670  48.9923730  56.0831250
 150.1465960  37.2115760  65.8714510 149.5310230  37.7195430  65.3429970
 149.8262380  36.3114090  65.8140450 133.1491700  44.0533370  62.6980810
 133.3122740  43.5838730  61.8800180 133.6144150  43.5456930  63.3629650
 137.9210470  33.1839130  57.7341380 137.4778620  33.9648670  57.4025900
 138.4795460  33.5069020  58.4412320 142.2080280  36.0507650  63.3376700
 141.7459650  36.2590670  64.1496640 141.8058390  35.2367000  63.0347370
 147.2084790  37.2716600  64.4673360 146.3578380  36.9722350  64.7882430
 147.0486580  37.5158610  63.5557180 144.3034500  38.7718350  66.5672150
 144.6287910  37.9382100  66.2274380 145.0914830  39.2946870  66.7150480
 141.0369290  32.8049830  52.6147210 140.4123470  32.8009700  53.3400520
 140.9499410  31.9380790  52.2183180 139.9586370  33.7286460  59.5930980
 140.2558700  34.6349290  59.5123000 140.5071930  33.2405240  58.9790550
 137.7124690  38.3072700  55.4622630 137.4865610  38.0909870  56.3669250
 136.9317220  38.7401160  55.1168600 144.9422450  38.3136070  54.0613280
 144.3431340  39.0371870  53.8776900 145.4902060  38.2512850  53.2789730
 140.1523900  39.2058280  66.1282900 140.0567500  38.2653010  65.9783300
 140.9955880  39.4273350  65.7330970 143.5487320  36.9499610  56.0916560
 143.9416890  37.2671810  55.2785250 143.9104170  36.0711490  56.2061080
 135.2834440  35.6171950  64.2816680 134.8897830  36.4647160  64.4889460
 134.5952840  34.9798320  64.4725320 141.8579490  35.7006920  67.3513420
 141.1677810  35.5079120  67.9859510 142.6011790  35.9841560  67.8837720
 132.5851490  33.5400410  58.3146760 132.2964540  34.1103270  59.0271740
 133.3297250  33.0604860  58.6777990 132.7721720  37.4820530  49.5249480
 132.6896390  38.4251290  49.6664470 132.4204780  37.3395440  48.6461830
 144.1342460  39.5405360  60.1867340 143.4023580  40.0492170  60.5357440
 143.7366800  38.7235340  59.8856120 140.5719850  36.2159560  58.5919830
 140.5755910  35.7749510  57.7424370 141.4670970  36.5376890  58.6991650
 136.4222230  36.0986050  57.5514040 136.0822280  36.5761280  58.3081090
 135.6599550  35.6451170  57.1915140 140.6340000  37.2171640  51.5826590
 140.7552820  37.1758120  52.5312410 140.2488510  38.0795790  51.4273320
 144.5968370  34.9939040  59.5990280 144.6141110  35.4447690  60.4432130
 144.3483950  34.0944680  59.8123720 139.6461500  39.5272780  50.9809890
 139.0778400  39.0791030  50.3545800 140.3550500  39.8865560  50.4475040
 148.0239120  32.4071220  65.4376660 148.3484890  31.6760880  65.9634640
 148.0595630  32.0884860  64.5357650 134.7230680  43.4284800  64.8576620
 134.3385470  42.7878470  65.4559580 135.0342870  44.1320920  65.4271350
 140.8727820  40.2761340  60.3385240 141.2397950  39.8019910  61.0846580
 140.6832880  41.1502910  60.6793580 133.7368310  35.0205030  56.4678710
 133.4515230  34.6560700  57.3057330 133.6747170  34.2885490  55.8541850
 138.6627190  39.3169980  62.6569450 138.3584260  40.1961960  62.8819810
 139.6173650  39.3769770  62.6926890 137.1908980  43.5230970  53.2536300
 136.4171240  42.9828590  53.0935020 137.9203610  43.0037580  52.9154060
 147.9496960  42.5196330  59.0462690 148.6696080  43.0151620  58.6558800
 147.7478780  41.8414220  58.4016560 143.4106900  33.9134290  53.1892080
 142.5971510  33.4147460  53.1137390 143.2168850  34.7532540  52.7728430
 143.3315760  42.5905390  64.9331690 143.2653070  41.6701060  64.6789280
 142.7020900  42.6880830  65.6476330 146.1255290  38.2853940  51.4854240
 147.0134910  38.5971170  51.3105580 146.0960380  37.4126190  51.0934820
 137.2346380  43.1911350  56.8915110 137.7525050  42.3879610  56.8372000
 136.7830400  43.1290490  57.7331940 142.1215880  44.4577630  52.1642410
 142.4631580  45.2019860  51.6685730 141.2928590  44.7708750  52.5267240
 134.7190920  40.1572720  63.8040810 134.3605860  40.8226570  64.3914150
 134.4245480  39.3256270  64.1753430 137.9204040  40.6156960  66.6880360
 137.6204180  40.7614140  65.7908180 138.6915280  40.0562250  66.5953750
 143.2632490  45.4125960  64.6835490 143.2777030  44.4806920  64.4654400
 142.5557590  45.4985720  65.3225260 148.3969560  39.5965780  50.9534100
 148.3133280  40.0280000  50.1030540 149.1163750  40.0564130  51.3860920
 149.4743700  42.0533300  64.0304070 148.7491890  42.6462080  63.8333460
 150.0019160  42.0456840  63.2317440 149.4256810  46.4508040  53.6816230
 148.7832970  45.7963660  53.9559950 149.0387470  46.8563130  52.9056900
 145.0043290  43.7793470  57.5287920 145.3567110  43.1821600  56.8689290
 144.1205620  43.4537700  57.6996170 141.0906570  44.5391160  54.9358330
 141.7777700  45.0860370  55.3165920 140.3038990  45.0831890  54.9707940
 133.2298970  40.1563980  50.4275410 134.0993820  40.4388780  50.7111330
 132.7389290  40.9699850  50.3124220 140.3933780  41.5437190  54.5483690
 140.8496560  42.3542440  54.7743880 140.0421990  41.2260330  55.3802180
 142.6966390  47.0543530  61.7775990 143.3408610  47.2602910  62.4549410
 143.0595830  46.2931930  61.3246840 136.2945560  31.8874840  55.0206210
 136.1660190  31.8792740  55.9691130 135.4707580  32.2257930  54.6697220
 143.9698470  45.0575880  60.4953440 144.6120700  44.3569040  60.6085610
 144.4947820  45.8374320  60.3150330 147.8154190  45.3424500  50.2192580
 147.5891770  44.6254940  50.8117220 147.4250390  45.0936940  49.3814330
 145.7436090  45.8570780  63.6989500 146.0792330  46.4437470  64.3767420
 144.8236430  45.7263490  63.9287290 133.5970220  49.3691360  50.9937040
 133.9567860  49.9680700  50.3394310 133.4562560  49.9151250  51.7672070
 133.2939490  33.6465960  64.4812910 132.5798010  33.8462880  65.0865520
 133.7134530  32.8705530  64.8527710 147.3970440  43.2596440  51.8806740
 147.1092140  43.7209130  52.6684620 148.1922610  42.7994210  52.1490960
 141.5724670  45.9062110  66.8677560 141.2521540  45.1871350  67.4123250
 140.8983030  46.5817180  66.9413620 139.6138840  46.7522560  51.8110710
 139.6048940  47.4852250  51.1955220 138.6937200  46.5054140  51.9037670
 135.2145480  41.9737450  52.5557470 134.6073430  42.7136350  52.5652770
 135.6894830  42.0636810  51.7295670 144.7878270  36.1388270  62.2314360
 145.1559090  35.3183480  62.5593930 143.9276470  36.1990160  62.6470010
 148.1540300  35.0945210  53.0401920 147.5253460  35.1990880  52.3260150
 147.6592220  35.3141990  53.8295800 142.5998440  46.8150800  50.4735900
 142.7010420  46.6114790  49.5437880 141.7000180  46.5609080  50.6783680
 140.1224330  37.3731160  54.4559800 139.4140480  37.8417500  54.8973410
 140.4068810  36.7153170  55.0904990 141.7480260  38.7927860  62.4552330
 142.2465510  39.2673680  63.1204180 141.8903210  37.8691380  62.6622360
 144.1539760  34.0981820  55.8955590 144.0307540  34.1167950  54.9465100
 145.1024320  34.1460760  56.0153990 141.2416550  49.3337120  55.1683570
 141.4958050  49.2958510  54.2462940 140.2929030  49.2070450  55.1611820
 138.3259350  35.6816240  51.8310510 139.1749880  36.1186390  51.7650700
 137.9590620  35.9936500  52.6582570 148.9547120  35.0095820  63.2980720
 148.4520720  35.7501220  63.6374530 149.7703780  35.3979820  62.9817510
 147.2469130  40.2529000  56.7442080 146.3059270  40.2679230  56.9189770
 147.5613200  39.4664960  57.1902380 137.2250770  41.9348600  50.3046040
 137.9914040  41.8229960  50.8671470 137.3025460  41.2386570  49.6522810
 135.9197530  39.3673670  50.9878930 136.0001120  38.4201180  51.0996330
 136.8117280  39.6980550  51.0939590 149.2494710  47.4237850  58.4196340
 149.3742130  48.2469020  58.8920150 150.1160270  47.2128580  58.0720490
 136.7212240  49.5169060  58.0913470 137.4574720  48.9684520  58.3622040
 137.1053160  50.3825070  57.9519460 133.6057720  45.5842630  53.9654980
 132.6797500  45.8263770  53.9560390 134.0714150  46.4116890  53.8439730
 135.7270520  48.7015130  67.2799050 136.5283250  49.0227180  67.6934450
 135.2122340  48.3410710  68.0018960 139.8314550  48.6899370  49.9139040
 140.6243160  48.9788200  49.4620830 139.3118900  48.2591540  49.2351520
 144.5635150  44.8095000  67.2274460 143.9573310  44.8326600  66.4870210
 144.2589260  44.0778040  67.7641710 145.9935520  48.5375290  65.8383870
 146.9457270  48.4533310  65.7884110 145.8463740  49.2017000  66.5117660
 148.8844720  47.9169500  51.3375780 148.5986230  47.5034640  50.5229960
 148.6864270  48.8457210  51.2176300 133.4468330  41.1888590  66.2235100
 133.9507350  40.6095870  66.7951330 132.7075750  41.4728820  66.7611470
 140.3491950  43.9102780  49.7781390 140.2442590  43.2955130  50.5042770
 140.1816170  43.3868670  48.9944400 140.5006270  42.5959580  65.7570620
 139.7351940  43.1644580  65.6725290 140.6822230  42.3035790  64.8638850
 143.5894680  42.9722810  50.3823380 143.0404780  43.4192110  51.0266120
 144.2113940  42.4672060  50.9061050 147.6429620  44.3264910  66.3145640
 148.3839090  44.6640670  65.8113100 146.8802300  44.4956970  65.7615410
 135.4791410  39.3318180  67.1185170 135.5196750  39.0332050  68.0270400
 136.3336910  39.7325790  66.9592690 139.2569800  41.9313730  52.2788680
 139.6786220  41.7653600  53.1220070 139.3820640  41.1213960  51.7843820
 137.4197220  37.9110280  65.0859660 136.8893680  37.4201230  64.4583000
 138.0885290  38.3394480  64.5517590 141.7697440  40.9551340  49.5265780
 142.2903100  40.2400360  49.1606930 142.4165840  41.5937210  49.8266290
 146.3175280  42.3779740  64.8500850 146.7316300  42.5324820  65.6991270
 145.3826280  42.5034960  65.0126630 146.7897450  39.7175900  66.8540000
 147.3718220  38.9628220  66.7660480 146.9659220  40.2483340  66.0771480
 137.9069520  34.8772650  65.1656950 137.8126390  34.2593400  64.4407820
 137.3266910  35.6038940  64.9386860 140.6730960  33.4345890  62.1984340
 140.2248260  33.4570150  61.3529890 140.0396160  33.0364910  62.7954640
 141.0790510  42.3300220  62.8196780 141.4978620  43.1732950  62.6473020
 140.1599140  42.4672260  62.5903560 143.4154410  40.0616400  64.2034620
 143.5350620  39.4657540  64.9429460 144.2748410  40.0986090  63.7835920
 145.7542310  40.6153590  62.7797130 145.2277530  41.1396210  62.1762270
 146.0973650  41.2480980  63.4106860 138.1528700  38.0046960  49.2246840
 137.9517760  37.1414320  49.5860180 137.9820750  37.9180320  48.2868440
 138.9297930  48.6353230  63.9354510 138.3919020  49.3599290  63.6163210
 139.1831890  48.1583570  63.1451850 140.1823180  36.6037750  65.4610440
 140.7722870  36.2953600  66.1488260 139.3643420  36.1317500  65.6170340
 145.0016610  36.2203560  65.6943460 144.3132130  35.5585100  65.6293450
 145.7222630  35.7741830  66.1391920 145.6317010  32.8155190  51.7533720
 145.9119300  31.9723090  52.1093140 144.8582740  33.0478300  52.2672470
 136.9511500  35.1047580  49.2124720 137.2537400  35.1115010  48.3043870
 137.6906090  34.7545440  49.7092380 141.7860140  49.8704440  64.1941160
 141.7118840  50.7739580  64.5013530 140.8838980  49.5516340  64.1663230
 140.1696430  34.0482200  50.1980920 139.8218430  33.3706190  49.6183370
 140.3709200  33.5871710  51.0124310 142.3345470  49.0362950  51.8167520
 143.2296260  49.3747920  51.8386280 142.3663100  48.3142360  51.1891800
 135.9741630  44.4090000  50.0454520 136.4116500  44.9519670  50.7012100
 136.4589360  43.5836950  50.0550860 133.1887430  47.1979030  57.4974780
 133.5190440  46.3300090  57.2653420 133.6178430  47.4037550  58.3279740
 137.7849350  45.5288040  55.1576750 137.4844890  45.4053010  56.0580660
 137.6786840  44.6696630  54.7492480 133.6777640  48.0649620  60.2356410
 133.2408630  48.2450420  61.0680560 134.2455320  48.8224240  60.0938130
 149.3139820  47.5666620  64.5233720 148.7141810  47.6259180  63.7797640
 149.4433720  46.6271600  64.6530570 133.5102070  40.5769850  56.5945290
 132.8550910  40.3081490  55.9504990 134.3480020  40.4674330  56.1447270
 147.9991460  44.2918600  62.6209880 147.1851300  44.7215760  62.8835670
 148.4065660  44.9037010  62.0078930 150.0616900  42.3466290  49.5210150
 150.3365740  43.2545170  49.3929370 149.8727640  42.2828820  50.4572140
 146.4592510  35.3711140  50.8163780 146.8777390  35.1842120  49.9760440
 146.1528570  34.5190190  51.1266710 149.9582240  40.2835280  54.5139580
 149.5825840  39.5163210  54.0820870 149.2285360  40.6657980  55.0014510
 134.5478000  40.9622420  61.1348630 134.9151040  40.8749820  62.0144650
 133.9788820  40.1988970  61.0355490 149.3481860  39.4306800  64.1479100
 149.1167950  39.2019550  63.2477050 149.6086410  40.3506350  64.1023990
 134.0994000  37.8731510  65.0407050 133.2050050  37.8398270  65.3800760
 134.6391550  38.0718300  65.8058300 147.7869930  34.6563230  66.9258800
 148.6640110  34.6646630  67.3092800 147.7990770  33.9194070  66.3151150
 132.7240150  37.7868780  52.5370620 131.8204230  38.0498980  52.3622280
 133.2080770  38.0579950  51.7570580 149.2333200  38.5092770  57.8146820
 149.7570680  38.0155420  57.1836990 149.8192620  38.6443130  58.5594390
 149.4122920  38.5932640  61.3366370 148.4625630  38.5596180  61.4511360
 149.5935930  39.5032750  61.1016140 135.2667360  36.8434320  50.4465000
 135.9759060  36.4217540  49.9612280 134.5507300  36.9109550  49.8148350
 134.9141520  32.8973650  49.4867650 135.6369650  33.4382590  49.8048870
 135.1866040  32.6237070  48.6109190 148.7233170  37.7666120  53.7539230
 149.2192290  37.5336990  54.5388110 148.5249240  36.9277960  53.3376870
 134.6033710  32.1479840  59.3890270 135.2509900  31.5977220  58.9485430
 135.0235550  32.4022990  60.2106080 148.4986050  32.3421200  62.7459910
 149.1358270  32.9555340  63.1119100 148.6460940  32.3781860  61.8009140
 148.0567510  49.0437200  56.1478150 148.6526580  48.7221770  55.4712570
 148.3145660  48.5709020  56.9391420 134.3565710  32.3035510  62.1315590
 134.0080530  32.7599330  62.8973770 134.0253410  31.4092640  62.2138020
 135.9630080  45.4755110  66.2968780 135.9199710  45.1048020  67.1783240
 136.0941090  46.4132680  66.4370600 139.6636110  47.0314700  61.8978500
 139.4227470  47.2989260  61.0109020 140.6038750  47.2020430  61.9529360
 141.8690530  33.4947390  65.6535010 141.8079420  34.0869220  66.4030420
 142.8090910  33.3873350  65.5085270 144.5065090  33.1517450  65.2927300
 145.1205500  33.4696740  64.6308380 145.0514650  32.6666040  65.9123160
 135.0286350  31.8311710  65.4066360 135.5769340  31.6499760  64.6432470
 135.0941660  31.0405820  65.9422670 135.8018110  48.4217360  63.4166560
 135.2078430  48.2902060  64.1556600 135.7941950  47.5855500  62.9508660
 145.2473130  31.7149590  61.6196590 144.3732970  32.0484700  61.4169520
 145.1383880  31.2422770  62.4448460 146.1545110  33.9220460  63.0038310
 145.8258470  33.1072220  62.6240040 147.1027410  33.8790270  62.8804000
 148.6079720  49.6932500  59.9775880 148.1482690  50.4448310  59.6033900
 147.9792180  48.9738970  59.9190680 135.4330340  45.7875740  62.3674600
 134.7064400  45.1681030  62.3000550 135.4939490  46.1816350  61.4972680
 139.0375440  48.0020740  59.1524010 139.5540460  47.3908100  58.6272270
 139.6872820  48.5049520  59.6435020 141.7770940  48.8929230  59.9792990
 142.0648750  48.6383530  59.1026000 142.2894160  48.3406590  60.5698560
 142.9947950  32.6319430  60.5589500 142.2119740  33.1064930  60.8386260
 142.7010880  31.7274260  60.4502680 147.5469020  33.3342530  58.6038590
 147.9877110  33.2787630  57.7560190 147.2776610  34.2500540  58.6748770
 149.4107590  32.9657770  56.6147410 149.3495990  32.0218990  56.4678430
 150.1899620  33.0737860  57.1600870 133.7160340  49.1050130  55.5771360
 133.5482380  48.4720810  56.2753250 132.8494850  49.3109530  55.2265550
 134.3388360  32.9366910  53.0803220 135.0967720  33.0495790  52.5067250
 133.8765530  33.7736110  53.0346650 140.8802170  35.0506180  56.0705530
 140.0676680  34.6763070  55.7301410 141.3843810  34.2951260  56.3726720
 145.3827150  31.7148630  57.3088600 145.9856520  32.2868840  57.7837120
 144.6420140  32.2788070  57.0862500 148.5261750  32.1170190  52.5828880
 148.7212380  33.0153640  52.8496310 147.7391620  31.8857270  53.0761830
 135.3223040  47.7983360  53.0221500 134.7970660  48.1791390  52.3183460
 135.2467620  48.4234130  53.7431210 136.7113510  33.4630960  51.6205190
 137.2406270  32.6760760  51.4913140 137.3441830  34.1422150  51.8540720
 138.9051350  33.2006100  54.6750580 138.2754090  32.4993410  54.8420710
 138.3656490  33.9610230  54.4583740 141.8443300  49.8145330  67.3461190
 142.7710610  49.5789600  67.3897150 141.8293730  50.6417330  66.8647220
 150.0788360  49.3570900  54.3435440 150.2540550  48.6708640  53.6996360
 149.3809930  49.8817950  53.9512110 139.0306910  32.4790080  67.1103070
 138.7491180  32.9823680  66.3463890 139.4126610  31.6811830  66.7445200
 137.9216010  49.7465740  51.8970750 138.6534830  49.4625020  51.3494640
 138.1809680  49.5079020  52.7870130 137.0830800  45.8630470  51.9017080
 136.4539680  46.3315570  52.4502910 137.1978630  45.0179690  52.3363270
 145.6322370  31.8943660  67.6883540 145.5187820  32.2138270  68.5835060
 146.4492110  32.2956170  67.3920820 148.4120860  49.0415190  67.1702230
 149.2046180  48.5464420  66.9628190 148.7054010  49.7205330  67.7777840
 144.5380520  39.9136130  38.0518280 144.4574570  38.9990740  37.7809990
 144.1244940  40.4103200  37.3457990 142.6698560  41.6915150  39.9327550
 141.8940660  41.2115590  40.2226120 143.3211490  41.0120800  39.7583710
 136.6864390  42.0034960  40.8103310 135.8549270  41.7483670  41.2099820
 137.2945370  42.0745730  41.5461230 146.6905990  46.0975340  38.7126680
 146.2287520  45.3262580  39.0413850 147.5031540  46.1241410  39.2179130
 136.6665650  46.0375050  41.0061330 136.9693690  45.1472790  40.8271550
 137.4109240  46.5945270  40.7783580 135.0956340  36.9636850  34.5945700
 134.2073040  37.3052820  34.4925580 135.3797530  36.7637170  33.7026530
 133.0589350  39.5642500  40.4785400 133.6305460  38.7964700  40.4789040
 133.0590890  39.8631260  39.5692010 142.9169300  48.3833350  38.3330670
 142.2980740  48.8390850  37.7625110 143.7721080  48.5384810  37.9320370
 142.1107550  44.3672340  39.9397710 142.0415830  43.4262280  39.7786840
 142.8727410  44.4573750  40.5120280 134.3014220  34.9726860  42.2654330
 134.1217060  34.0752610  42.5457090 133.8994300  35.5198730  42.9401280
 143.1412720  37.1742720  40.1666640 143.5177540  36.3014600  40.0540310
 143.0432230  37.5101420  39.2757080 137.2717730  35.5468350  35.6284080
 137.3784480  36.4472080  35.9352840 136.3610090  35.4986320  35.3378730
 146.9236840  34.6693160  37.0994980 147.7446460  34.1789730  37.1420460
 146.9570920  35.2590820  37.8526820 134.9200890  37.4687360  40.8736670
 135.6011000  37.7325730  41.4924070 134.6048940  36.6288230  41.2074680
 139.1125460  38.5154720  39.9609260 139.6203680  39.0135690  40.6014280
 139.6438700  37.7389920  39.7848620 137.3961560  33.1553280  44.2272680
 137.3980000  33.6725670  43.4218580 136.5665870  32.6783460  44.2042610
 143.7832650  43.2672590  35.7262580 143.1649920  43.7322040  35.1625300
 144.2955900  43.9600070  36.1432090 138.6464410  42.7948460  42.4046180
 138.3133790  43.4217380  43.0467250 138.8231090  43.3210340  41.6247850
 147.1598320  36.6093540  39.8722520 146.4553890  36.8978430  40.4525630
 147.5210480  37.4193650  39.5122080 137.0776890  34.8663240  42.2343130
 137.4193700  35.7105290  41.9397000 136.1392700  35.0146980  42.3508470
 137.8583510  44.7629260  44.2195360 138.4757510  45.4380340  43.9379810
 136.9976630  45.1717240  44.1282860 133.1515850  43.9529120  33.1002210
 132.7743830  44.4416220  32.3687110 133.4088920  44.6254400  33.7308740
 148.7761100  46.2268670  42.1350000 148.0924620  46.8967780  42.1266670
 149.3155390  46.4249320  41.3694860 140.7604780  32.3545510  38.5587720
 141.0679760  31.7992400  37.8423220 139.8305480  32.4889970  38.3760710
 146.3119840  48.0712800  40.8495180 146.3247000  47.6675090  39.9817440
 145.7595060  48.8460090  40.7456610 147.6065260  44.7929020  35.9385350
 147.4961590  43.8503350  36.0634770 147.6033510  45.1544660  36.8248110
 145.7105280  42.9742640  42.1777790 146.1274070  42.7602750  41.3431250
 146.4345100  43.2315430  42.7486410 143.1485540  40.4194340  35.2947840
 142.2214820  40.3531720  35.5236310 143.3010360  41.3574470  35.1803080
 143.1354620  36.6911340  32.2915000 142.1958290  36.8525300  32.3767460
 143.4537880  37.4097020  31.7450990 149.6567380  41.3729860  42.2694030
 148.8286010  41.4422950  41.7944160 150.2517860  41.9584170  41.8009860
 147.1782830  41.9814640  35.7983090 146.5595250  41.6434190  35.1509390
 147.1607280  41.3374400  36.5062280 146.6209390  38.1599180  43.2148900
 146.2080570  38.9852890  43.4688890 145.8885340  37.5744220  43.0225260
 138.7542180  40.9459080  38.0767570 138.3499180  40.2336330  37.5813470
 138.8405300  40.6012320  38.9655610 139.2223880  44.6326640  40.2406780
 138.9252170  44.0272110  39.5614560 140.1723700  44.6703950  40.1296140
 137.4670800  37.7202290  41.8566610 138.0185390  37.8297630  41.0819860
 137.9814310  38.0939890  42.5721840 147.3109490  48.2058510  43.9029880
 146.8340050  49.0130700  43.7102490 146.6271280  47.5536840  44.0556090
 138.3142310  44.3708330  46.8914580 137.4170840  44.5948300  47.1387980
 138.3395180  44.4943270  45.9425980 145.3547530  41.2201450  32.8055840
 145.7940810  40.3823880  32.6593660 146.0675950  41.8530850  32.8919980
 137.1413530  41.2421650  45.4671950 137.0021300  42.1144450  45.8359350
 136.2594890  40.8994460  45.3219890 143.4642910  46.1597520  36.7737080
 143.9038820  46.9021850  36.3592470 143.4029800  46.4024090  37.6976040
 138.9393880  47.1843350  47.6757100 138.9109310  47.5886300  46.8085530
 138.7758850  46.2553710  47.5128700 148.9364670  32.4744260  31.1196880
 148.6237330  32.5671090  32.0195950 149.6977140  33.0525290  31.0694310
 135.4546810  39.8404060  35.5774220 135.3344410  40.5666150  34.9655490
 135.1447700  39.0706970  35.1002130 133.0932180  43.0119200  41.3842860
 133.1712600  43.1467970  40.4398580 133.7073860  42.3035090  41.5770980
 134.3379810  44.7119390  37.7949040 133.9307890  44.8533980  36.9402640
 135.2292820  44.4279550  37.5920250 150.2941950  45.1583300  46.1321280
 150.4205010  44.9195180  45.2138460 150.3363330  44.3267840  46.6043360
 144.1558690  48.8611300  44.7016090 144.6703360  48.7719310  45.5038520
 143.3127770  49.2071000  44.9944000 146.1313090  49.1466640  34.1300090
 145.9714230  48.8569580  35.0281920 145.9659800  48.3706770  33.5945320
 138.6101470  48.9265170  35.9071710 138.4343950  48.0100710  35.6939510
 137.7557210  49.2852460  36.1469510 145.8339220  46.6554200  32.6898090
 145.1404380  46.6531490  32.0300370 146.5762080  46.2313520  32.2592260
 145.3989150  48.2816910  36.7646580 145.8546100  47.5006290  37.0785200
 145.7381670  48.9923730  37.3087760 150.1465960  37.2115760  47.0971020
 149.5310230  37.7195430  46.5686480 149.8262380  36.3114090  47.0396960
 133.1491700  44.0533370  43.9237320 133.3122740  43.5838730  43.1056690
 133.6144150  43.5456930  44.5886160 137.9210470  33.1839130  38.9597890
 137.4778620  33.9648670  38.6282410 138.4795460  33.5069020  39.6668830
 142.2080280  36.0507650  44.5633210 141.7459650  36.2590670  45.3753150
 141.8058390  35.2367000  44.2603880 147.2084790  37.2716600  45.6929870
 146.3578380  36.9722350  46.0138940 147.0486580  37.5158610  44.7813690
 144.3034500  38.7718350  47.7928660 144.6287910  37.9382100  47.4530890
 145.0914830  39.2946870  47.9406990 141.0369290  32.8049830  33.8403720
 140.4123470  32.8009700  34.5657030 140.9499410  31.9380790  33.4439690
 139.9586370  33.7286460  40.8187490 140.2558700  34.6349290  40.7379510
 140.5071930  33.2405240  40.2047060 137.7124690  38.3072700  36.6879140
 137.4865610  38.0909870  37.5925760 136.9317220  38.7401160  36.3425110
 144.9422450  38.3136070  35.2869790 144.3431340  39.0371870  35.1033410
 145.4902060  38.2512850  34.5046240 140.1523900  39.2058280  47.3539410
 140.0567500  38.2653010  47.2039810 140.9955880  39.4273350  46.9587480
 143.5487320  36.9499610  37.3173070 143.9416890  37.2671810  36.5041760
 143.9104170  36.0711490  37.4317590 135.2834440  35.6171950  45.5073190
 134.8897830  36.4647160  45.7145970 134.5952840  34.9798320  45.6981830
 141.8579490  35.7006920  48.5769930 141.1677810  35.5079120  49.2116020
 142.6011790  35.9841560  49.1094230 132.5851490  33.5400410  39.5403270
 132.2964540  34.1103270  40.2528250 133.3297250  33.0604860  39.9034500
 132.7721720  37.4820530  30.7505990 132.6896390  38.4251290  30.8920980
 132.4204780  37.3395440  29.8718340 144.1342460  39.5405360  41.4123850
 143.4023580  40.0492170  41.7613950 143.7366800  38.7235340  41.1112630
 140.5719850  36.2159560  39.8176340 140.5755910  35.7749510  38.9680880
 141.4670970  36.5376890  39.9248160 136.4222230  36.0986050  38.7770550
 136.0822280  36.5761280  39.5337600 135.6599550  35.6451170  38.4171650
 140.6340000  37.2171640  32.8083100 140.7552820  37.1758120  33.7568920
 140.2488510  38.0795790  32.6529830 144.5968370  34.9939040  40.8246790
 144.6141110  35.4447690  41.6688640 144.3483950  34.0944680  41.0380230
 139.6461500  39.5272780  32.2066400 139.0778400  39.0791030  31.5802310
 140.3550500  39.8865560  31.6731550 148.0239120  32.4071220  46.6633170
 148.3484890  31.6760880  47.1891150 148.0595630  32.0884860  45.7614160
 134.7230680  43.4284800  46.0833130 134.3385470  42.7878470  46.6816090
 135.0342870  44.1320920  46.6527860 140.8727820  40.2761340  41.5641750
 141.2397950  39.8019910  42.3103090 140.6832880  41.1502910  41.9050090
 133.7368310  35.0205030  37.6935220 133.4515230  34.6560700  38.5313840
 133.6747170  34.2885490  37.0798360 138.6627190  39.3169980  43.8825960
 138.3584260  40.1961960  44.1076320 139.6173650  39.3769770  43.9183400
 137.1908980  43.5230970  34.4792810 136.4171240  42.9828590  34.3191530
 137.9203610  43.0037580  34.1410570 147.9496960  42.5196330  40.2719200
 148.6696080  43.0151620  39.8815310 147.7478780  41.8414220  39.6273070
 143.4106900  33.9134290  34.4148590 142.5971510  33.4147460  34.3393900
 143.2168850  34.7532540  33.9984940 143.3315760  42.5905390  46.1588200
 143.2653070  41.6701060  45.9045790 142.7020900  42.6880830  46.8732840
 146.1255290  38.2853940  32.7110750 147.0134910  38.5971170  32.5362090
 146.0960380  37.4126190  32.3191330 137.2346380  43.1911350  38.1171620
 137.7525050  42.3879610  38.0628510 136.7830400  43.1290490  38.9588450
 142.1215880  44.4577630  33.3898920 142.4631580  45.2019860  32.8942240
 141.2928590  44.7708750  33.7523750 134.7190920  40.1572720  45.0297320
 134.3605860  40.8226570  45.6170660 134.4245480  39.3256270  45.4009940
 137.9204040  40.6156960  47.9136870 137.6204180  40.7614140  47.0164690
 138.6915280  40.0562250  47.8210260 143.2632490  45.4125960  45.9092000
 143.2777030  44.4806920  45.6910910 142.5557590  45.4985720  46.5481770
 148.3969560  39.5965780  32.1790610 148.3133280  40.0280000  31.3287050
 149.1163750  40.0564130  32.6117430 149.4743700  42.0533300  45.2560580
 148.7491890  42.6462080  45.0589970 150.0019160  42.0456840  44.4573950
 149.4256810  46.4508040  34.9072740 148.7832970  45.7963660  35.1816460
 149.0387470  46.8563130  34.1313410 145.0043290  43.7793470  38.7544430
 145.3567110  43.1821600  38.0945800 144.1205620  43.4537700  38.9252680
 141.0906570  44.5391160  36.1614840 141.7777700  45.0860370  36.5422430
 140.3038990  45.0831890  36.1964450 133.2298970  40.1563980  31.6531920
 134.0993820  40.4388780  31.9367840 132.7389290  40.9699850  31.5380730
 140.3933780  41.5437190  35.7740200 140.8496560  42.3542440  36.0000390
 140.0421990  41.2260330  36.6058690 142.6966390  47.0543530  43.0032500
 143.3408610  47.2602910  43.6805920 143.0595830  46.2931930  42.5503350
 136.2945560  31.8874840  36.2462720 136.1660190  31.8792740  37.1947640
 135.4707580  32.2257930  35.8953730 143.9698470  45.0575880  41.7209950
 144.6120700  44.3569040  41.8342120 144.4947820  45.8374320  41.5406840
 147.8154190  45.3424500  31.4449090 147.5891770  44.6254940  32.0373730
 147.4250390  45.0936940  30.6070840 145.7436090  45.8570780  44.9246010
 146.0792330  46.4437470  45.6023930 144.8236430  45.7263490  45.1543800
 133.5970220  49.3691360  32.2193550 133.9567860  49.9680700  31.5650820
 133.4562560  49.9151250  32.9928580 133.2939490  33.6465960  45.7069420
 132.5798010  33.8462880  46.3122030 133.7134530  32.8705530  46.0784220
 147.3970440  43.2596440  33.1063250 147.1092140  43.7209130  33.8941130
 148.1922610  42.7994210  33.3747470 133.5812080  47.6346220  46.6935950
 133.6903200  46.6940960  46.5531340 132.9292640  47.9000970  46.0449680
 141.5724670  45.9062110  48.0934070 141.2521540  45.1871350  48.6379760
 140.8983030  46.5817180  48.1670130 139.6138840  46.7522560  33.0367220
 139.6048940  47.4852250  32.4211730 138.6937200  46.5054140  33.1294180
 135.2145480  41.9737450  33.7813980 134.6073430  42.7136350  33.7909280
 135.6894830  42.0636810  32.9552180 144.7878270  36.1388270  43.4570870
 145.1559090  35.3183480  43.7850440 143.9276470  36.1990160  43.8726520
 148.1540300  35.0945210  34.2658430 147.5253460  35.1990880  33.5516660
 147.6592220  35.3141990  35.0552310 142.5998440  46.8150800  31.6992410
 142.7010420  46.6114790  30.7694390 141.7000180  46.5609080  31.9040190
 140.1224330  37.3731160  35.6816310 139.4140480  37.8417500  36.1229920
 140.4068810  36.7153170  36.3161500 141.7480260  38.7927860  43.6808840
 142.2465510  39.2673680  44.3460690 141.8903210  37.8691380  43.8878870
 144.1539760  34.0981820  37.1212100 144.0307540  34.1167950  36.1721610
 145.1024320  34.1460760  37.2410500 141.2416550  49.3337120  36.3940080
 141.4958050  49.2958510  35.4719450 140.2929030  49.2070450  36.3868330
 138.3259350  35.6816240  33.0567020 139.1749880  36.1186390  32.9907210
 137.9590620  35.9936500  33.8839080 148.9547120  35.0095820  44.5237230
 148.4520720  35.7501220  44.8631040 149.7703780  35.3979820  44.2074020
 147.2469130  40.2529000  37.9698590 146.3059270  40.2679230  38.1446280
 147.5613200  39.4664960  38.4158890 137.2250770  41.9348600  31.5302550
 137.9914040  41.8229960  32.0927980 137.3025460  41.2386570  30.8779320
 135.9197530  39.3673670  32.2135440 136.0001120  38.4201180  32.3252840
 136.8117280  39.6980550  32.3196100 149.2494710  47.4237850  39.6452850
 149.3742130  48.2469020  40.1176660 150.1160270  47.2128580  39.2977000
 136.7212240  49.5169060  39.3169980 137.4574720  48.9684520  39.5878550
 137.1053160  50.3825070  39.1775970 133.6057720  45.5842630  35.1911490
 132.6797500  45.8263770  35.1816900 134.0714150  46.4116890  35.0696240
 135.7270520  48.7015130  48.5055560 136.5283250  49.0227180  48.9190960
 135.2122340  48.3410710  49.2275470 139.8314550  48.6899370  31.1395550
 140.6243160  48.9788200  30.6877340 139.3118900  48.2591540  30.4608030
 144.5635150  44.8095000  48.4530970 143.9573310  44.8326600  47.7126720
 144.2589260  44.0778040  48.9898220 145.9935520  48.5375290  47.0640380
 146.9457270  48.4533310  47.0140620 145.8463740  49.2017000  47.7374170
 148.8844720  47.9169500  32.5632290 148.5986230  47.5034640  31.7486470
 148.6864270  48.8457210  32.4432810 133.4468330  41.1888590  47.4491610
 133.9507350  40.6095870  48.0207840 132.7075750  41.4728820  47.9867980
 140.3491950  43.9102780  31.0037900 140.2442590  43.2955130  31.7299280
 140.1816170  43.3868670  30.2200910 140.5006270  42.5959580  46.9827130
 139.7351940  43.1644580  46.8981800 140.6822230  42.3035790  46.0895360
 143.5894680  42.9722810  31.6079890 143.0404780  43.4192110  32.2522630
 144.2113940  42.4672060  32.1317560 147.6429620  44.3264910  47.5402150
 148.3839090  44.6640670  47.0369610 146.8802300  44.4956970  46.9871920
 135.4791410  39.3318180  48.3441680 135.5196750  39.0332050  49.2526910
 136.3336910  39.7325790  48.1849200 139.2569800  41.9313730  33.5045190
 139.6786220  41.7653600  34.3476580 139.3820640  41.1213960  33.0100330
 137.4197220  37.9110280  46.3116170 136.8893680  37.4201230  45.6839510
 138.0885290  38.3394480  45.7774100 141.7697440  40.9551340  30.7522290
 142.2903100  40.2400360  30.3863440 142.4165840  41.5937210  31.0522800
 146.3175280  42.3779740  46.0757360 146.7316300  42.5324820  46.9247780
 145.3826280  42.5034960  46.2383140 146.7897450  39.7175900  48.0796510
 147.3718220  38.9628220  47.9916990 146.9659220  40.2483340  47.3027990
 137.9069520  34.8772650  46.3913460 137.8126390  34.2593400  45.6664330
 137.3266910  35.6038940  46.1643370 140.6730960  33.4345890  43.4240850
 140.2248260  33.4570150  42.5786400 140.0396160  33.0364910  44.0211150
 141.0790510  42.3300220  44.0453290 141.4978620  43.1732950  43.8729530
 140.1599140  42.4672260  43.8160070 143.4154410  40.0616400  45.4291130
 143.5350620  39.4657540  46.1685970 144.2748410  40.0986090  45.0092430
 145.7542310  40.6153590  44.0053640 145.2277530  41.1396210  43.4018780
 146.0973650  41.2480980  44.6363370 138.1528700  38.0046960  30.4503350
 137.9517760  37.1414320  30.8116690 137.9820750  37.9180320  29.5124950
 138.9297930  48.6353230  45.1611020 138.3919020  49.3599290  44.8419720
 139.1831890  48.1583570  44.3708360 140.1823180  36.6037750  46.6866950
 140.7722870  36.2953600  47.3744770 139.3643420  36.1317500  46.8426850
 145.0016610  36.2203560  46.9199970 144.3132130  35.5585100  46.8549960
 145.7222630  35.7741830  47.3648430 145.6317010  32.8155190  32.9790230
 145.9119300  31.9723090  33.3349650 144.8582740  33.0478300  33.4928980
 136.9511500  35.1047580  30.4381230 137.2537400  35.1115010  29.5300380
 137.6906090  34.7545440  30.9348890 141.7860140  49.8704440  45.4197670
 141.7118840  50.7739580  45.7270040 140.8838980  49.5516340  45.3919740
 140.1696430  34.0482200  31.4237430 139.8218430  33.3706190  30.8439880
 140.3709200  33.5871710  32.2380820 142.3345470  49.0362950  33.0424030
 143.2296260  49.3747920  33.0642790 142.3663100  48.3142360  32.4148310
 135.9741630  44.4090000  31.2711030 136.4116500  44.9519670  31.9268610
 136.4589360  43.5836950  31.2807370 133.1887430  47.1979030  38.7231290
 133.5190440  46.3300090  38.4909930 133.6178430  47.4037550  39.5536250
 137.7849350  45.5288040  36.3833260 137.4844890  45.4053010  37.2837170
 137.6786840  44.6696630  35.9748990 133.6777640  48.0649620  41.4612920
 133.2408630  48.2450420  42.2937070 134.2455320  48.8224240  41.3194640
 149.3139820  47.5666620  45.7490230 148.7141810  47.6259180  45.0054150
 149.4433720  46.6271600  45.8787080 133.5102070  40.5769850  37.8201800
 132.8550910  40.3081490  37.1761500 134.3480020  40.4674330  37.3703780
 147.9991460  44.2918600  43.8466390 147.1851300  44.7215760  44.1092180
 148.4065660  44.9037010  43.2335440 150.0616900  42.3466290  30.7466660
 150.3365740  43.2545170  30.6185880 149.8727640  42.2828820  31.6828650
 146.4592510  35.3711140  32.0420290 146.8777390  35.1842120  31.2016950
 146.1528570  34.5190190  32.3523220 149.9582240  40.2835280  35.7396090
 149.5825840  39.5163210  35.3077380 149.2285360  40.6657980  36.2271020
 134.5478000  40.9622420  42.3605140 134.9151040  40.8749820  43.2401160
 133.9788820  40.1988970  42.2612000 149.3481860  39.4306800  45.3735610
 149.1167950  39.2019550  44.4733560 149.6086410  40.3506350  45.3280500
 134.0994000  37.8731510  46.2663560 133.2050050  37.8398270  46.6057270
 134.6391550  38.0718300  47.0314810 147.7869930  34.6563230  48.1515310
 148.6640110  34.6646630  48.5349310 147.7990770  33.9194070  47.5407660
 132.7240150  37.7868780  33.7627130 131.8204230  38.0498980  33.5878790
 133.2080770  38.0579950  32.9827090 149.2333200  38.5092770  39.0403330
 149.7570680  38.0155420  38.4093500 149.8192620  38.6443130  39.7850900
 149.4122920  38.5932640  42.5622880 148.4625630  38.5596180  42.6767870
 149.5935930  39.5032750  42.3272650 135.2667360  36.8434320  31.6721510
 135.9759060  36.4217540  31.1868790 134.5507300  36.9109550  31.0404860
 134.9141520  32.8973650  30.7124160 135.6369650  33.4382590  31.0305380
 135.1866040  32.6237070  29.8365700 148.7233170  37.7666120  34.9795740
 149.2192290  37.5336990  35.7644620 148.5249240  36.9277960  34.5633380
 134.6033710  32.1479840  40.6146780 135.2509900  31.5977220  40.1741940
 135.0235550  32.4022990  41.4362590 148.4986050  32.3421200  43.9716420
 149.1358270  32.9555340  44.3375610 148.6460940  32.3781860  43.0265650
 148.0567510  49.0437200  37.3734660 148.6526580  48.7221770  36.6969080
 148.3145660  48.5709020  38.1647930 134.3565710  32.3035510  43.3572100
 134.0080530  32.7599330  44.1230280 134.0253410  31.4092640  43.4394530
 135.9630080  45.4755110  47.5225290 135.9199710  45.1048020  48.4039750
 136.0941090  46.4132680  47.6627110 139.6636110  47.0314700  43.1235010
 139.4227470  47.2989260  42.2365530 140.6038750  47.2020430  43.1785870
 141.8690530  33.4947390  46.8791520 141.8079420  34.0869220  47.6286930
 142.8090910  33.3873350  46.7341780 144.5065090  33.1517450  46.5183810
 145.1205500  33.4696740  45.8564890 145.0514650  32.6666040  47.1379670
 135.0286350  31.8311710  46.6322870 135.5769340  31.6499760  45.8688980
 135.0941660  31.0405820  47.1679180 135.8018110  48.4217360  44.6423070
 135.2078430  48.2902060  45.3813110 135.7941950  47.5855500  44.1765170
 145.2473130  31.7149590  42.8453100 144.3732970  32.0484700  42.6426030
 145.1383880  31.2422770  43.6704970 146.1545110  33.9220460  44.2294820
 145.8258470  33.1072220  43.8496550 147.1027410  33.8790270  44.1060510
 148.6079720  49.6932500  41.2032390 148.1482690  50.4448310  40.8290410
 147.9792180  48.9738970  41.1447190 135.4330340  45.7875740  43.5931110
 134.7064400  45.1681030  43.5257060 135.4939490  46.1816350  42.7229190
 139.0375440  48.0020740  40.3780520 139.5540460  47.3908100  39.8528780
 139.6872820  48.5049520  40.8691530 141.7770940  48.8929230  41.2049500
 142.0648750  48.6383530  40.3282510 142.2894160  48.3406590  41.7955070
 142.9947950  32.6319430  41.7846010 142.2119740  33.1064930  42.0642770
 142.7010880  31.7274260  41.6759190 147.5469020  33.3342530  39.8295100
 147.9877110  33.2787630  38.9816700 147.2776610  34.2500540  39.9005280
 149.4107590  32.9657770  37.8403920 149.3495990  32.0218990  37.6934940
 150.1899620  33.0737860  38.3857380 133.7160340  49.1050130  36.8027870
 133.5482380  48.4720810  37.5009760 132.8494850  49.3109530  36.4522060
 134.3388360  32.9366910  34.3059730 135.0967720  33.0495790  33.7323760
 133.8765530  33.7736110  34.2603160 140.8802170  35.0506180  37.2962040
 140.0676680  34.6763070  36.9557920 141.3843810  34.2951260  37.5983230
 145.3827150  31.7148630  38.5345110 145.9856520  32.2868840  39.0093630
 144.6420140  32.2788070  38.3119010 148.5261750  32.1170190  33.8085390
 148.7212380  33.0153640  34.0752820 147.7391620  31.8857270  34.3018340
 135.3223040  47.7983360  34.2478010 134.7970660  48.1791390  33.5439970
 135.2467620  48.4234130  34.9687720 136.7113510  33.4630960  32.8461700
 137.2406270  32.6760760  32.7169650 137.3441830  34.1422150  33.0797230
 138.9051350  33.2006100  35.9007090 138.2754090  32.4993410  36.0677220
 138.3656490  33.9610230  35.6840250 141.8443300  49.8145330  48.5717700
 142.7710610  49.5789600  48.6153660 141.8293730  50.6417330  48.0903730
 150.0788360  49.3570900  35.5691950 150.2540550  48.6708640  34.9252870
 149.3809930  49.8817950  35.1768620 139.0306910  32.4790080  48.3359580
 138.7491180  32.9823680  47.5720400 139.4126610  31.6811830  47.9701710
 137.9216010  49.7465740  33.1227260 138.6534830  49.4625020  32.5751150
 138.1809680  49.5079020  34.0126640 137.0830800  45.8630470  33.1273590
 136.4539680  46.3315570  33.6759420 137.1978630  45.0179690  33.5619780
 145.6322370  31.8943660  48.9140050 145.5187820  32.2138270  49.8091570
 146.4492110  32.2956170  48.6177330 148.4120860  49.0415190  48.3958740
 149.2046180  48.5464420  48.1884700 148.7054010  49.7205330  49.0034350
 144.5380520  39.9136130  19.2774790 144.4574570  38.9990740  19.0066500
 144.1244940  40.4103200  18.5714500 142.6698560  41.6915150  21.1584060
 141.8940660  41.2115590  21.4482630 143.3211490  41.0120800  20.9840220
 136.6864390  42.0034960  22.0359820 135.8549270  41.7483670  22.4356330
 137.2945370  42.0745730  22.7717740 146.6905990  46.0975340  19.9383190
 146.2287520  45.3262580  20.2670360 147.5031540  46.1241410  20.4435640
 136.6665650  46.0375050  22.2317840 136.9693690  45.1472790  22.0528060
 137.4109240  46.5945270  22.0040090 135.0956340  36.9636850  15.8202210
 134.2073040  37.3052820  15.7182090 135.3797530  36.7637170  14.9283040
 133.0589350  39.5642500  21.7041910 133.6305460  38.7964700  21.7045550
 133.0590890  39.8631260  20.7948520 142.9169300  48.3833350  19.5587180
 142.2980740  48.8390850  18.9881620 143.7721080  48.5384810  19.1576880
 142.1107550  44.3672340  21.1654220 142.0415830  43.4262280  21.0043350
 142.8727410  44.4573750  21.7376790 134.3014220  34.9726860  23.4910840
 134.1217060  34.0752610  23.7713600 133.8994300  35.5198730  24.1657790
 143.1412720  37.1742720  21.3923150 143.5177540  36.3014600  21.2796820
 143.0432230  37.5101420  20.5013590 137.2717730  35.5468350  16.8540590
 137.3784480  36.4472080  17.1609350 136.3610090  35.4986320  16.5635240
 146.9236840  34.6693160  18.3251490 147.7446460  34.1789730  18.3676970
 146.9570920  35.2590820  19.0783330 134.9200890  37.4687360  22.0993180
 135.6011000  37.7325730  22.7180580 134.6048940  36.6288230  22.4331190
 139.1125460  38.5154720  21.1865770 139.6203680  39.0135690  21.8270790
 139.6438700  37.7389920  21.0105130 137.3961560  33.1553280  25.4529190
 137.3980000  33.6725670  24.6475090 136.5665870  32.6783460  25.4299120
 143.7832650  43.2672590  16.9519090 143.1649920  43.7322040  16.3881810
 144.2955900  43.9600070  17.3688600 138.6464410  42.7948460  23.6302690
 138.3133790  43.4217380  24.2723760 138.8231090  43.3210340  22.8504360
 147.1598320  36.6093540  21.0979030 146.4553890  36.8978430  21.6782140
 147.5210480  37.4193650  20.7378590 137.0776890  34.8663240  23.4599640
 137.4193700  35.7105290  23.1653510 136.1392700  35.0146980  23.5764980
 137.8583510  44.7629260  25.4451870 138.4757510  45.4380340  25.1636320
 136.9976630  45.1717240  25.3539370 133.1515850  43.9529120  14.3258720
 132.7743830  44.4416220  13.5943620 133.4088920  44.6254400  14.9565250
 148.7761100  46.2268670  23.3606510 148.0924620  46.8967780  23.3523180
 149.3155390  46.4249320  22.5951370 140.7604780  32.3545510  19.7844230
 141.0679760  31.7992400  19.0679730 139.8305480  32.4889970  19.6017220
 146.3119840  48.0712800  22.0751690 146.3247000  47.6675090  21.2073950
 145.7595060  48.8460090  21.9713120 147.6065260  44.7929020  17.1641860
 147.4961590  43.8503350  17.2891280 147.6033510  45.1544660  18.0504620
 145.7105280  42.9742640  23.4034300 146.1274070  42.7602750  22.5687760
 146.4345100  43.2315430  23.9742920 143.1485540  40.4194340  16.5204350
 142.2214820  40.3531720  16.7492820 143.3010360  41.3574470  16.4059590
 143.1354620  36.6911340  13.5171510 142.1958290  36.8525300  13.6023970
 143.4537880  37.4097020  12.9707500 149.6567380  41.3729860  23.4950540
 148.8286010  41.4422950  23.0200670 150.2517860  41.9584170  23.0266370
 147.1782830  41.9814640  17.0239600 146.5595250  41.6434190  16.3765900
 147.1607280  41.3374400  17.7318790 146.6209390  38.1599180  24.4405410
 146.2080570  38.9852890  24.6945400 145.8885340  37.5744220  24.2481770
 138.7542180  40.9459080  19.3024080 138.3499180  40.2336330  18.8069980
 138.8405300  40.6012320  20.1912120 139.2223880  44.6326640  21.4663290
 138.9252170  44.0272110  20.7871070 140.1723700  44.6703950  21.3552650
 137.4670800  37.7202290  23.0823120 138.0185390  37.8297630  22.3076370
 137.9814310  38.0939890  23.7978350 147.3109490  48.2058510  25.1286390
 146.8340050  49.0130700  24.9359000 146.6271280  47.5536840  25.2812600
 138.3142310  44.3708330  28.1171090 137.4170840  44.5948300  28.3644490
 138.3395180  44.4943270  27.1682490 145.3547530  41.2201450  14.0312350
 145.7940810  40.3823880  13.8850170 146.0675950  41.8530850  14.1176490
 137.1413530  41.2421650  26.6928460 137.0021300  42.1144450  27.0615860
 136.2594890  40.8994460  26.5476400 143.4642910  46.1597520  17.9993590
 143.9038820  46.9021850  17.5848980 143.4029800  46.4024090  18.9232550
 138.9393880  47.1843350  28.9013610 138.9109310  47.5886300  28.0342040
 138.7758850  46.2553710  28.7385210 148.9364670  32.4744260  12.3453390
 148.6237330  32.5671090  13.2452460 149.6977140  33.0525290  12.2950820
 135.4546810  39.8404060  16.8030730 135.3344410  40.5666150  16.1912000
 135.1447700  39.0706970  16.3258640 133.0932180  43.0119200  22.6099370
 133.1712600  43.1467970  21.6655090 133.7073860  42.3035090  22.8027490
 134.3379810  44.7119390  19.0205550 133.9307890  44.8533980  18.1659150
 135.2292820  44.4279550  18.8176760 150.2941950  45.1583300  27.3577790
 150.4205010  44.9195180  26.4394970 150.3363330  44.3267840  27.8299870
 144.1558690  48.8611300  25.9272600 144.6703360  48.7719310  26.7295030
 143.3127770  49.2071000  26.2200510 146.1313090  49.1466640  15.3556600
 145.9714230  48.8569580  16.2538430 145.9659800  48.3706770  14.8201830
 138.6101470  48.9265170  17.1328220 138.4343950  48.0100710  16.9196020
 137.7557210  49.2852460  17.3726020 145.8339220  46.6554200  13.9154600
 145.1404380  46.6531490  13.2556880 146.5762080  46.2313520  13.4848770
 145.3989150  48.2816910  17.9903090 145.8546100  47.5006290  18.3041710
 145.7381670  48.9923730  18.5344270 150.1465960  37.2115760  28.3227530
 149.5310230  37.7195430  27.7942990 149.8262380  36.3114090  28.2653470
 133.1491700  44.0533370  25.1493830 133.3122740  43.5838730  24.3313200
 133.6144150  43.5456930  25.8142670 137.9210470  33.1839130  20.1854400
 137.4778620  33.9648670  19.8538920 138.4795460  33.5069020  20.8925340
 142.2080280  36.0507650  25.7889720 141.7459650  36.2590670  26.6009660
 141.8058390  35.2367000  25.4860390 147.2084790  37.2716600  26.9186380
 146.3578380  36.9722350  27.2395450 147.0486580  37.5158610  26.0070200
 144.3034500  38.7718350  29.0185170 144.6287910  37.9382100  28.6787400
 145.0914830  39.2946870  29.1663500 141.0369290  32.8049830  15.0660230
 140.4123470  32.8009700  15.7913540 140.9499410  31.9380790  14.6696200
 139.9586370  33.7286460  22.0444000 140.2558700  34.6349290  21.9636020
 140.5071930  33.2405240  21.4303570 137.7124690  38.3072700  17.9135650
 137.4865610  38.0909870  18.8182270 136.9317220  38.7401160  17.5681620
 144.9422450  38.3136070  16.5126300 144.3431340  39.0371870  16.3289920
 145.4902060  38.2512850  15.7302750 140.1523900  39.2058280  28.5795920
 140.0567500  38.2653010  28.4296320 140.9955880  39.4273350  28.1843990
 143.5487320  36.9499610  18.5429580 143.9416890  37.2671810  17.7298270
 143.9104170  36.0711490  18.6574100 135.2834440  35.6171950  26.7329700
 134.8897830  36.4647160  26.9402480 134.5952840  34.9798320  26.9238340
 141.8579490  35.7006920  29.8026440 141.1677810  35.5079120  30.4372530
 142.6011790  35.9841560  30.3350740 132.5851490  33.5400410  20.7659780
 132.2964540  34.1103270  21.4784760 133.3297250  33.0604860  21.1291010
 132.7721720  37.4820530  11.9762500 132.6896390  38.4251290  12.1177490
 132.4204780  37.3395440  11.0974850 144.1342460  39.5405360  22.6380360
 143.4023580  40.0492170  22.9870460 143.7366800  38.7235340  22.3369140
 140.5719850  36.2159560  21.0432850 140.5755910  35.7749510  20.1937390
 141.4670970  36.5376890  21.1504670 136.4222230  36.0986050  20.0027060
 136.0822280  36.5761280  20.7594110 135.6599550  35.6451170  19.6428160
 140.6340000  37.2171640  14.0339610 140.7552820  37.1758120  14.9825430
 140.2488510  38.0795790  13.8786340 144.5968370  34.9939040  22.0503300
 144.6141110  35.4447690  22.8945150 144.3483950  34.0944680  22.2636740
 139.6461500  39.5272780  13.4322910 139.0778400  39.0791030  12.8058820
 140.3550500  39.8865560  12.8988060 148.0239120  32.4071220  27.8889680
 148.3484890  31.6760880  28.4147660 148.0595630  32.0884860  26.9870670
 134.7230680  43.4284800  27.3089640 134.3385470  42.7878470  27.9072600
 135.0342870  44.1320920  27.8784370 140.8727820  40.2761340  22.7898260
 141.2397950  39.8019910  23.5359600 140.6832880  41.1502910  23.1306600
 133.7368310  35.0205030  18.9191730 133.4515230  34.6560700  19.7570350
 133.6747170  34.2885490  18.3054870 138.6627190  39.3169980  25.1082470
 138.3584260  40.1961960  25.3332830 139.6173650  39.3769770  25.1439910
 137.1908980  43.5230970  15.7049320 136.4171240  42.9828590  15.5448040
 137.9203610  43.0037580  15.3667080 147.9496960  42.5196330  21.4975710
 148.6696080  43.0151620  21.1071820 147.7478780  41.8414220  20.8529580
 143.4106900  33.9134290  15.6405100 142.5971510  33.4147460  15.5650410
 143.2168850  34.7532540  15.2241450 143.3315760  42.5905390  27.3844710
 143.2653070  41.6701060  27.1302300 142.7020900  42.6880830  28.0989350
 146.1255290  38.2853940  13.9367260 147.0134910  38.5971170  13.7618600
 146.0960380  37.4126190  13.5447840 137.2346380  43.1911350  19.3428130
 137.7525050  42.3879610  19.2885020 136.7830400  43.1290490  20.1844960
 142.1215880  44.4577630  14.6155430 142.4631580  45.2019860  14.1198750
 141.2928590  44.7708750  14.9780260 134.7190920  40.1572720  26.2553830
 134.3605860  40.8226570  26.8427170 134.4245480  39.3256270  26.6266450
 137.9204040  40.6156960  29.1393380 137.6204180  40.7614140  28.2421200
 138.6915280  40.0562250  29.0466770 143.2632490  45.4125960  27.1348510
 143.2777030  44.4806920  26.9167420 142.5557590  45.4985720  27.7738280
 148.3969560  39.5965780  13.4047120 148.3133280  40.0280000  12.5543560
 149.1163750  40.0564130  13.8373940 149.4743700  42.0533300  26.4817090
 148.7491890  42.6462080  26.2846480 150.0019160  42.0456840  25.6830460
 149.4256810  46.4508040  16.1329250 148.7832970  45.7963660  16.4072970
 149.0387470  46.8563130  15.3569920 145.0043290  43.7793470  19.9800940
 145.3567110  43.1821600  19.3202310 144.1205620  43.4537700  20.1509190
 141.0906570  44.5391160  17.3871350 141.7777700  45.0860370  17.7678940
 140.3038990  45.0831890  17.4220960 133.2298970  40.1563980  12.8788430
 134.0993820  40.4388780  13.1624350 132.7389290  40.9699850  12.7637240
 140.3933780  41.5437190  16.9996710 140.8496560  42.3542440  17.2256900
 140.0421990  41.2260330  17.8315200 142.6966390  47.0543530  24.2289010
 143.3408610  47.2602910  24.9062430 143.0595830  46.2931930  23.7759860
 136.2945560  31.8874840  17.4719230 136.1660190  31.8792740  18.4204150
 135.4707580  32.2257930  17.1210240 143.9698470  45.0575880  22.9466460
 144.6120700  44.3569040  23.0598630 144.4947820  45.8374320  22.7663350
 147.8154190  45.3424500  12.6705600 147.5891770  44.6254940  13.2630240
 147.4250390  45.0936940  11.8327350 145.7436090  45.8570780  26.1502520
 146.0792330  46.4437470  26.8280440 144.8236430  45.7263490  26.3800310
 133.5970220  49.3691360  13.4450060 133.9567860  49.9680700  12.7907330
 133.4562560  49.9151250  14.2185090 133.2939490  33.6465960  26.9325930
 132.5798010  33.8462880  27.5378540 133.7134530  32.8705530  27.3040730
 147.3970440  43.2596440  14.3319760 147.1092140  43.7209130  15.1197640
 148.1922610  42.7994210  14.6003980 133.5812080  47.6346220  27.9192460
 133.6903200  46.6940960  27.7787850 132.9292640  47.9000970  27.2706190
 141.5724670  45.9062110  29.3190580 141.2521540  45.1871350  29.8636270
 140.8983030  46.5817180  29.3926640 139.6138840  46.7522560  14.2623730
 139.6048940  47.4852250  13.6468240 138.6937200  46.5054140  14.3550690
 135.2145480  41.9737450  15.0070490 134.6073430  42.7136350  15.0165790
 135.6894830  42.0636810  14.1808690 144.7878270  36.1388270  24.6827380
 145.1559090  35.3183480  25.0106950 143.9276470  36.1990160  25.0983030
 148.1540300  35.0945210  15.4914940 147.5253460  35.1990880  14.7773170
 147.6592220  35.3141990  16.2808820 142.5998440  46.8150800  12.9248920
 142.7010420  46.6114790  11.9950900 141.7000180  46.5609080  13.1296700
 140.1224330  37.3731160  16.9072820 139.4140480  37.8417500  17.3486430
 140.4068810  36.7153170  17.5418010 141.7480260  38.7927860  24.9065350
 142.2465510  39.2673680  25.5717200 141.8903210  37.8691380  25.1135380
 144.1539760  34.0981820  18.3468610 144.0307540  34.1167950  17.3978120
 145.1024320  34.1460760  18.4667010 141.2416550  49.3337120  17.6196590
 141.4958050  49.2958510  16.6975960 140.2929030  49.2070450  17.6124840
 138.3259350  35.6816240  14.2823530 139.1749880  36.1186390  14.2163720
 137.9590620  35.9936500  15.1095590 148.9547120  35.0095820  25.7493740
 148.4520720  35.7501220  26.0887550 149.7703780  35.3979820  25.4330530
 147.2469130  40.2529000  19.1955100 146.3059270  40.2679230  19.3702790
 147.5613200  39.4664960  19.6415400 137.2250770  41.9348600  12.7559060
 137.9914040  41.8229960  13.3184490 137.3025460  41.2386570  12.1035830
 135.9197530  39.3673670  13.4391950 136.0001120  38.4201180  13.5509350
 136.8117280  39.6980550  13.5452610 149.2494710  47.4237850  20.8709360
 149.3742130  48.2469020  21.3433170 150.1160270  47.2128580  20.5233510
 136.7212240  49.5169060  20.5426490 137.4574720  48.9684520  20.8135060
 137.1053160  50.3825070  20.4032480 133.6057720  45.5842630  16.4168000
 132.6797500  45.8263770  16.4073410 134.0714150  46.4116890  16.2952750
 135.7270520  48.7015130  29.7312070 136.5283250  49.0227180  30.1447470
 135.2122340  48.3410710  30.4531980 139.8314550  48.6899370  12.3652060
 140.6243160  48.9788200  11.9133850 139.3118900  48.2591540  11.6864540
 144.5635150  44.8095000  29.6787480 143.9573310  44.8326600  28.9383230
 144.2589260  44.0778040  30.2154730 145.9935520  48.5375290  28.2896890
 146.9457270  48.4533310  28.2397130 145.8463740  49.2017000  28.9630680
 148.8844720  47.9169500  13.7888800 148.5986230  47.5034640  12.9742980
 148.6864270  48.8457210  13.6689320 133.4468330  41.1888590  28.6748120
 133.9507350  40.6095870  29.2464350 132.7075750  41.4728820  29.2124490
 140.3491950  43.9102780  12.2294410 140.2442590  43.2955130  12.9555790
 140.1816170  43.3868670  11.4457420 140.5006270  42.5959580  28.2083640
 139.7351940  43.1644580  28.1238310 140.6822230  42.3035790  27.3151870
 143.5894680  42.9722810  12.8336400 143.0404780  43.4192110  13.4779140
 144.2113940  42.4672060  13.3574070 147.6429620  44.3264910  28.7658660
 148.3839090  44.6640670  28.2626120 146.8802300  44.4956970  28.2128430
 135.4791410  39.3318180  29.5698190 135.5196750  39.0332050  30.4783420
 136.3336910  39.7325790  29.4105710 139.2569800  41.9313730  14.7301700
 139.6786220  41.7653600  15.5733090 139.3820640  41.1213960  14.2356840
 137.4197220  37.9110280  27.5372680 136.8893680  37.4201230  26.9096020
 138.0885290  38.3394480  27.0030610 141.7697440  40.9551340  11.9778800
 142.2903100  40.2400360  11.6119950 142.4165840  41.5937210  12.2779310
 146.3175280  42.3779740  27.3013870 146.7316300  42.5324820  28.1504290
 145.3826280  42.5034960  27.4639650 146.7897450  39.7175900  29.3053020
 147.3718220  38.9628220  29.2173500 146.9659220  40.2483340  28.5284500
 137.9069520  34.8772650  27.6169970 137.8126390  34.2593400  26.8920840
 137.3266910  35.6038940  27.3899880 140.6730960  33.4345890  24.6497360
 140.2248260  33.4570150  23.8042910 140.0396160  33.0364910  25.2467660
 141.0790510  42.3300220  25.2709800 141.4978620  43.1732950  25.0986040
 140.1599140  42.4672260  25.0416580 143.4154410  40.0616400  26.6547640
 143.5350620  39.4657540  27.3942480 144.2748410  40.0986090  26.2348940
 145.7542310  40.6153590  25.2310150 145.2277530  41.1396210  24.6275290
 146.0973650  41.2480980  25.8619880 138.1528700  38.0046960  11.6759860
 137.9517760  37.1414320  12.0373200 137.9820750  37.9180320  10.7381460
 138.9297930  48.6353230  26.3867530 138.3919020  49.3599290  26.0676230
 139.1831890  48.1583570  25.5964870 140.1823180  36.6037750  27.9123460
 140.7722870  36.2953600  28.6001280 139.3643420  36.1317500  28.0683360
 145.0016610  36.2203560  28.1456480 144.3132130  35.5585100  28.0806470
 145.7222630  35.7741830  28.5904940 145.6317010  32.8155190  14.2046740
 145.9119300  31.9723090  14.5606160 144.8582740  33.0478300  14.7185490
 136.9511500  35.1047580  11.6637740 137.2537400  35.1115010  10.7556890
 137.6906090  34.7545440  12.1605400 141.7860140  49.8704440  26.6454180
 141.7118840  50.7739580  26.9526550 140.8838980  49.5516340  26.6176250
 140.1696430  34.0482200  12.6493940 139.8218430  33.3706190  12.0696390
 140.3709200  33.5871710  13.4637330 142.3345470  49.0362950  14.2680540
 143.2296260  49.3747920  14.2899300 142.3663100  48.3142360  13.6404820
 135.9741630  44.4090000  12.4967540 136.4116500  44.9519670  13.1525120
 136.4589360  43.5836950  12.5063880 133.1887430  47.1979030  19.9487800
 133.5190440  46.3300090  19.7166440 133.6178430  47.4037550  20.7792760
 137.7849350  45.5288040  17.6089770 137.4844890  45.4053010  18.5093680
 137.6786840  44.6696630  17.2005500 133.6777640  48.0649620  22.6869430
 133.2408630  48.2450420  23.5193580 134.2455320  48.8224240  22.5451150
 149.3139820  47.5666620  26.9746740 148.7141810  47.6259180  26.2310660
 149.4433720  46.6271600  27.1043590 133.5102070  40.5769850  19.0458310
 132.8550910  40.3081490  18.4018010 134.3480020  40.4674330  18.5960290
 147.9991460  44.2918600  25.0722900 147.1851300  44.7215760  25.3348690
 148.4065660  44.9037010  24.4591950 150.0616900  42.3466290  11.9723170
 150.3365740  43.2545170  11.8442390 149.8727640  42.2828820  12.9085160
 146.4592510  35.3711140  13.2676800 146.8777390  35.1842120  12.4273460
 146.1528570  34.5190190  13.5779730 149.9582240  40.2835280  16.9652600
 149.5825840  39.5163210  16.5333890 149.2285360  40.6657980  17.4527530
 134.5478000  40.9622420  23.5861650 134.9151040  40.8749820  24.4657670
 133.9788820  40.1988970  23.4868510 149.3481860  39.4306800  26.5992120
 149.1167950  39.2019550  25.6990070 149.6086410  40.3506350  26.5537010
 134.0994000  37.8731510  27.4920070 133.2050050  37.8398270  27.8313780
 134.6391550  38.0718300  28.2571320 147.7869930  34.6563230  29.3771820
 148.6640110  34.6646630  29.7605820 147.7990770  33.9194070  28.7664170
 132.7240150  37.7868780  14.9883640 131.8204230  38.0498980  14.8135300
 133.2080770  38.0579950  14.2083600 149.2333200  38.5092770  20.2659840
 149.7570680  38.0155420  19.6350010 149.8192620  38.6443130  21.0107410
 149.4122920  38.5932640  23.7879390 148.4625630  38.5596180  23.9024380
 149.5935930  39.5032750  23.5529160 135.2667360  36.8434320  12.8978020
 135.9759060  36.4217540  12.4125300 134.5507300  36.9109550  12.2661370
 134.9141520  32.8973650  11.9380670 135.6369650  33.4382590  12.2561890
 135.1866040  32.6237070  11.0622210 148.7233170  37.7666120  16.2052250
 149.2192290  37.5336990  16.9901130 148.5249240  36.9277960  15.7889890
 134.6033710  32.1479840  21.8403290 135.2509900  31.5977220  21.3998450
 135.0235550  32.4022990  22.6619100 148.4986050  32.3421200  25.1972930
 149.1358270  32.9555340  25.5632120 148.6460940  32.3781860  24.2522160
 148.0567510  49.0437200  18.5991170 148.6526580  48.7221770  17.9225590
 148.3145660  48.5709020  19.3904440 134.3565710  32.3035510  24.5828610
 134.0080530  32.7599330  25.3486790 134.0253410  31.4092640  24.6651040
 135.9630080  45.4755110  28.7481800 135.9199710  45.1048020  29.6296260
 136.0941090  46.4132680  28.8883620 139.6636110  47.0314700  24.3491520
 139.4227470  47.2989260  23.4622040 140.6038750  47.2020430  24.4042380
 141.8690530  33.4947390  28.1048030 141.8079420  34.0869220  28.8543440
 142.8090910  33.3873350  27.9598290 144.5065090  33.1517450  27.7440320
 145.1205500  33.4696740  27.0821400 145.0514650  32.6666040  28.3636180
 135.0286350  31.8311710  27.8579380 135.5769340  31.6499760  27.0945490
 135.0941660  31.0405820  28.3935690 135.8018110  48.4217360  25.8679580
 135.2078430  48.2902060  26.6069620 135.7941950  47.5855500  25.4021680
 145.2473130  31.7149590  24.0709610 144.3732970  32.0484700  23.8682540
 145.1383880  31.2422770  24.8961480 146.1545110  33.9220460  25.4551330
 145.8258470  33.1072220  25.0753060 147.1027410  33.8790270  25.3317020
 148.6079720  49.6932500  22.4288900 148.1482690  50.4448310  22.0546920
 147.9792180  48.9738970  22.3703700 135.4330340  45.7875740  24.8187620
 134.7064400  45.1681030  24.7513570 135.4939490  46.1816350  23.9485700
 139.0375440  48.0020740  21.6037030 139.5540460  47.3908100  21.0785290
 139.6872820  48.5049520  22.0948040 141.7770940  48.8929230  22.4306010
 142.0648750  48.6383530  21.5539020 142.2894160  48.3406590  23.0211580
 142.9947950  32.6319430  23.0102520 142.2119740  33.1064930  23.2899280
 142.7010880  31.7274260  22.9015700 147.5469020  33.3342530  21.0551610
 147.9877110  33.2787630  20.2073210 147.2776610  34.2500540  21.1261790
 149.4107590  32.9657770  19.0660430 149.3495990  32.0218990  18.9191450
 150.1899620  33.0737860  19.6113890 133.7160340  49.1050130  18.0284380
 133.5482380  48.4720810  18.7266270 132.8494850  49.3109530  17.6778570
 134.3388360  32.9366910  15.5316240 135.0967720  33.0495790  14.9580270
 133.8765530  33.7736110  15.4859670 140.8802170  35.0506180  18.5218550
 140.0676680  34.6763070  18.1814430 141.3843810  34.2951260  18.8239740
 145.3827150  31.7148630  19.7601620 145.9856520  32.2868840  20.2350140
 144.6420140  32.2788070  19.5375520 148.5261750  32.1170190  15.0341900
 148.7212380  33.0153640  15.3009330 147.7391620  31.8857270  15.5274850
 135.3223040  47.7983360  15.4734520 134.7970660  48.1791390  14.7696480
 135.2467620  48.4234130  16.1944230 136.7113510  33.4630960  14.0718210
 137.2406270  32.6760760  13.9426160 137.3441830  34.1422150  14.3053740
 138.9051350  33.2006100  17.1263600 138.2754090  32.4993410  17.2933730
 138.3656490  33.9610230  16.9096760 141.8443300  49.8145330  29.7974210
 142.7710610  49.5789600  29.8410170 141.8293730  50.6417330  29.3160240
 150.0788360  49.3570900  16.7948460 150.2540550  48.6708640  16.1509380
 149.3809930  49.8817950  16.4025130 139.0306910  32.4790080  29.5616090
 138.7491180  32.9823680  28.7976910 139.4126610  31.6811830  29.1958220
 137.9216010  49.7465740  14.3483770 138.6534830  49.4625020  13.8007660
 138.1809680  49.5079020  15.2383150 137.0830800  45.8630470  14.3530100
 136.4539680  46.3315570  14.9015930 137.1978630  45.0179690  14.7876290
 145.6322370  31.8943660  30.1396560 145.5187820  32.2138270  31.0348080
 146.4492110  32.2956170  29.8433840 148.4120860  49.0415190  29.6215250
 149.2046180  48.5464420  29.4141210 148.7054010  49.7205330  30.2290860
 142.6698560  41.6915150   2.3840570 141.8940660  41.2115590   2.6739140
 143.3211490  41.0120800   2.2096730 136.6864390  42.0034960   3.2616330
 135.8549270  41.7483670   3.6612840 137.2945370  42.0745730   3.9974250
 136.6665650  46.0375050   3.4574350 136.9693690  45.1472790   3.2784570
 137.4109240  46.5945270   3.2296600 133.0589350  39.5642500   2.9298420
 133.6305460  38.7964700   2.9302060 133.0590890  39.8631260   2.0205030
 142.1107550  44.3672340   2.3910730 142.0415830  43.4262280   2.2299860
 142.8727410  44.4573750   2.9633300 134.3014220  34.9726860   4.7167350
 134.1217060  34.0752610   4.9970110 133.8994300  35.5198730   5.3914300
 143.1412720  37.1742720   2.6179660 143.5177540  36.3014600   2.5053330
 143.0432230  37.5101420   1.7270100 134.9200890  37.4687360   3.3249690
 135.6011000  37.7325730   3.9437090 134.6048940  36.6288230   3.6587700
 139.1125460  38.5154720   2.4122280 139.6203680  39.0135690   3.0527300
 139.6438700  37.7389920   2.2361640 137.3961560  33.1553280   6.6785700
 137.3980000  33.6725670   5.8731600 136.5665870  32.6783460   6.6555630
 138.6464410  42.7948460   4.8559200 138.3133790  43.4217380   5.4980270
 138.8231090  43.3210340   4.0760870 147.1598320  36.6093540   2.3235540
 146.4553890  36.8978430   2.9038650 147.5210480  37.4193650   1.9635100
 137.0776890  34.8663240   4.6856150 137.4193700  35.7105290   4.3910020
 136.1392700  35.0146980   4.8021490 137.8583510  44.7629260   6.6708380
 138.4757510  45.4380340   6.3892830 136.9976630  45.1717240   6.5795880
 148.7761100  46.2268670   4.5863020 148.0924620  46.8967780   4.5779690
 149.3155390  46.4249320   3.8207880 146.3119840  48.0712800   3.3008200
 146.3247000  47.6675090   2.4330460 145.7595060  48.8460090   3.1969630
 145.7105280  42.9742640   4.6290810 146.1274070  42.7602750   3.7944270
 146.4345100  43.2315430   5.1999430 149.6567380  41.3729860   4.7207050
 148.8286010  41.4422950   4.2457180 150.2517860  41.9584170   4.2522880
 146.6209390  38.1599180   5.6661920 146.2080570  38.9852890   5.9201910
 145.8885340  37.5744220   5.4738280 139.2223880  44.6326640   2.6919800
 138.9252170  44.0272110   2.0127580 140.1723700  44.6703950   2.5809160
 137.4670800  37.7202290   4.3079630 138.0185390  37.8297630   3.5332880
 137.9814310  38.0939890   5.0234860 147.3109490  48.2058510   6.3542900
 146.8340050  49.0130700   6.1615510 146.6271280  47.5536840   6.5069110
 138.3142310  44.3708330   9.3427600 137.4170840  44.5948300   9.5901000
 138.3395180  44.4943270   8.3939000 137.1413530  41.2421650   7.9184970
 137.0021300  42.1144450   8.2872370 136.2594890  40.8994460   7.7732910
 138.9393880  47.1843350  10.1270120 138.9109310  47.5886300   9.2598550
 138.7758850  46.2553710   9.9641720 133.0932180  43.0119200   3.8355880
 133.1712600  43.1467970   2.8911600 133.7073860  42.3035090   4.0284000
 150.2941950  45.1583300   8.5834300 150.4205010  44.9195180   7.6651480
 150.3363330  44.3267840   9.0556380 144.1558690  48.8611300   7.1529110
 144.6703360  48.7719310   7.9551540 143.3127770  49.2071000   7.4457020
 150.1465960  37.2115760   9.5484040 149.5310230  37.7195430   9.0199500
 149.8262380  36.3114090   9.4909980 133.1491700  44.0533370   6.3750340
 133.3122740  43.5838730   5.5569710 133.6144150  43.5456930   7.0399180
 142.2080280  36.0507650   7.0146230 141.7459650  36.2590670   7.8266170
 141.8058390  35.2367000   6.7116900 147.2084790  37.2716600   8.1442890
 146.3578380  36.9722350   8.4651960 147.0486580  37.5158610   7.2326710
 144.3034500  38.7718350  10.2441680 144.6287910  37.9382100   9.9043910
 145.0914830  39.2946870  10.3920010 139.9586370  33.7286460   3.2700510
 140.2558700  34.6349290   3.1892530 140.5071930  33.2405240   2.6560080
 140.1523900  39.2058280   9.8052430 140.0567500  38.2653010   9.6552830
 140.9955880  39.4273350   9.4100500 135.2834440  35.6171950   7.9586210
 134.8897830  36.4647160   8.1658990 134.5952840  34.9798320   8.1494850
 141.8579490  35.7006920  11.0282950 141.1677810  35.5079120  11.6629040
 142.6011790  35.9841560  11.5607250 132.5851490  33.5400410   1.9916290
 132.2964540  34.1103270   2.7041270 133.3297250  33.0604860   2.3547520
 144.1342460  39.5405360   3.8636870 143.4023580  40.0492170   4.2126970
 143.7366800  38.7235340   3.5625650 140.5719850  36.2159560   2.2689360
 140.5755910  35.7749510   1.4193900 141.4670970  36.5376890   2.3761180
 144.5968370  34.9939040   3.2759810 144.6141110  35.4447690   4.1201660
 144.3483950  34.0944680   3.4893250 148.0239120  32.4071220   9.1146190
 148.3484890  31.6760880   9.6404170 148.0595630  32.0884860   8.2127180
 134.7230680  43.4284800   8.5346150 134.3385470  42.7878470   9.1329110
 135.0342870  44.1320920   9.1040880 140.8727820  40.2761340   4.0154770
 141.2397950  39.8019910   4.7616110 140.6832880  41.1502910   4.3563110
 138.6627190  39.3169980   6.3338980 138.3584260  40.1961960   6.5589340
 139.6173650  39.3769770   6.3696420 147.9496960  42.5196330   2.7232220
 148.6696080  43.0151620   2.3328330 147.7478780  41.8414220   2.0786090
 143.3315760  42.5905390   8.6101220 143.2653070  41.6701060   8.3558810
 142.7020900  42.6880830   9.3245860 134.7190920  40.1572720   7.4810340
 134.3605860  40.8226570   8.0683680 134.4245480  39.3256270   7.8522960
 137.9204040  40.6156960  10.3649890 137.6204180  40.7614140   9.4677710
 138.6915280  40.0562250  10.2723280 143.2632490  45.4125960   8.3605020
 143.2777030  44.4806920   8.1423930 142.5557590  45.4985720   8.9994790
 149.4743700  42.0533300   7.7073600 148.7491890  42.6462080   7.5102990
 150.0019160  42.0456840   6.9086970 142.6966390  47.0543530   5.4545520
 143.3408610  47.2602910   6.1318940 143.0595830  46.2931930   5.0016370
 143.9698470  45.0575880   4.1722970 144.6120700  44.3569040   4.2855140
 144.4947820  45.8374320   3.9919860 145.7436090  45.8570780   7.3759030
 146.0792330  46.4437470   8.0536950 144.8236430  45.7263490   7.6056820
 133.2939490  33.6465960   8.1582440 132.5798010  33.8462880   8.7635050
 133.7134530  32.8705530   8.5297240 133.5812080  47.6346220   9.1448970
 133.6903200  46.6940960   9.0044360 132.9292640  47.9000970   8.4962700
 141.5724670  45.9062110  10.5447090 141.2521540  45.1871350  11.0892780
 140.8983030  46.5817180  10.6183150 144.7878270  36.1388270   5.9083890
 145.1559090  35.3183480   6.2363460 143.9276470  36.1990160   6.3239540
 141.7480260  38.7927860   6.1321860 142.2465510  39.2673680   6.7973710
 141.8903210  37.8691380   6.3391890 148.9547120  35.0095820   6.9750250
 148.4520720  35.7501220   7.3144060 149.7703780  35.3979820   6.6587040
 149.2494710  47.4237850   2.0965870 149.3742130  48.2469020   2.5689680
 150.1160270  47.2128580   1.7490020 136.7212240  49.5169060   1.7683000
 137.4574720  48.9684520   2.0391570 137.1053160  50.3825070   1.6288990
 135.7270520  48.7015130  10.9568580 136.5283250  49.0227180  11.3703980
 135.2122340  48.3410710  11.6788490 144.5635150  44.8095000  10.9043990
 143.9573310  44.8326600  10.1639740 144.2589260  44.0778040  11.4411240
 145.9935520  48.5375290   9.5153400 146.9457270  48.4533310   9.4653640
 145.8463740  49.2017000  10.1887190 133.4468330  41.1888590   9.9004630
 133.9507350  40.6095870  10.4720860 132.7075750  41.4728820  10.4381000
 140.5006270  42.5959580   9.4340150 139.7351940  43.1644580   9.3494820
 140.6822230  42.3035790   8.5408380 147.6429620  44.3264910   9.9915170
 148.3839090  44.6640670   9.4882630 146.8802300  44.4956970   9.4384940
 135.4791410  39.3318180  10.7954700 135.5196750  39.0332050  11.7039930
 136.3336910  39.7325790  10.6362220 137.4197220  37.9110280   8.7629190
 136.8893680  37.4201230   8.1352530 138.0885290  38.3394480   8.2287120
 146.3175280  42.3779740   8.5270380 146.7316300  42.5324820   9.3760800
 145.3826280  42.5034960   8.6896160 146.7897450  39.7175900  10.5309530
 147.3718220  38.9628220  10.4430010 146.9659220  40.2483340   9.7541010
 137.9069520  34.8772650   8.8426480 137.8126390  34.2593400   8.1177350
 137.3266910  35.6038940   8.6156390 140.6730960  33.4345890   5.8753870
 140.2248260  33.4570150   5.0299420 140.0396160  33.0364910   6.4724170
 141.0790510  42.3300220   6.4966310 141.4978620  43.1732950   6.3242550
 140.1599140  42.4672260   6.2673090 143.4154410  40.0616400   7.8804150
 143.5350620  39.4657540   8.6198990 144.2748410  40.0986090   7.4605450
 145.7542310  40.6153590   6.4566660 145.2277530  41.1396210   5.8531800
 146.0973650  41.2480980   7.0876390 138.9297930  48.6353230   7.6124040
 138.3919020  49.3599290   7.2932740 139.1831890  48.1583570   6.8221380
 140.1823180  36.6037750   9.1379970 140.7722870  36.2953600   9.8257790
 139.3643420  36.1317500   9.2939870 145.0016610  36.2203560   9.3712990
 144.3132130  35.5585100   9.3062980 145.7222630  35.7741830   9.8161450
 141.7860140  49.8704440   7.8710690 141.7118840  50.7739580   8.1783060
 140.8838980  49.5516340   7.8432760 133.6777640  48.0649620   3.9125940
 133.2408630  48.2450420   4.7450090 134.2455320  48.8224240   3.7707660
 149.3139820  47.5666620   8.2003250 148.7141810  47.6259180   7.4567170
 149.4433720  46.6271600   8.3300100 147.9991460  44.2918600   6.2979410
 147.1851300  44.7215760   6.5605200 148.4065660  44.9037010   5.6848460
 134.5478000  40.9622420   4.8118160 134.9151040  40.8749820   5.6914180
 133.9788820  40.1988970   4.7125020 149.3481860  39.4306800   7.8248630
 149.1167950  39.2019550   6.9246580 149.6086410  40.3506350   7.7793520
 134.0994000  37.8731510   8.7176580 133.2050050  37.8398270   9.0570290
 134.6391550  38.0718300   9.4827830 147.7869930  34.6563230  10.6028330
 148.6640110  34.6646630  10.9862330 147.7990770  33.9194070   9.9920680
 149.4122920  38.5932640   5.0135900 148.4625630  38.5596180   5.1280890
 149.5935930  39.5032750   4.7785670 134.6033710  32.1479840   3.0659800
 135.2509900  31.5977220   2.6254960 135.0235550  32.4022990   3.8875610
 148.4986050  32.3421200   6.4229440 149.1358270  32.9555340   6.7888630
 148.6460940  32.3781860   5.4778670 134.3565710  32.3035510   5.8085120
 134.0080530  32.7599330   6.5743300 134.0253410  31.4092640   5.8907550
 135.9630080  45.4755110   9.9738310 135.9199710  45.1048020  10.8552770
 136.0941090  46.4132680  10.1140130 139.6636110  47.0314700   5.5748030
 139.4227470  47.2989260   4.6878550 140.6038750  47.2020430   5.6298890
 141.8690530  33.4947390   9.3304540 141.8079420  34.0869220  10.0799950
 142.8090910  33.3873350   9.1854800 144.5065090  33.1517450   8.9696830
 145.1205500  33.4696740   8.3077910 145.0514650  32.6666040   9.5892690
 135.0286350  31.8311710   9.0835890 135.5769340  31.6499760   8.3202000
 135.0941660  31.0405820   9.6192200 135.8018110  48.4217360   7.0936090
 135.2078430  48.2902060   7.8326130 135.7941950  47.5855500   6.6278190
 145.2473130  31.7149590   5.2966120 144.3732970  32.0484700   5.0939050
 145.1383880  31.2422770   6.1217990 146.1545110  33.9220460   6.6807840
 145.8258470  33.1072220   6.3009570 147.1027410  33.8790270   6.5573530
 148.6079720  49.6932500   3.6545410 148.1482690  50.4448310   3.2803430
 147.9792180  48.9738970   3.5960210 135.4330340  45.7875740   6.0444130
 134.7064400  45.1681030   5.9770080 135.4939490  46.1816350   5.1742210
 139.0375440  48.0020740   2.8293540 139.5540460  47.3908100   2.3041800
 139.6872820  48.5049520   3.3204550 141.7770940  48.8929230   3.6562520
 142.0648750  48.6383530   2.7795530 142.2894160  48.3406590   4.2468090
 142.9947950  32.6319430   4.2359030 142.2119740  33.1064930   4.5155790
 142.7010880  31.7274260   4.1272210 147.5469020  33.3342530   2.2808120
 147.9877110  33.2787630   1.4329720 147.2776610  34.2500540   2.3518300
 141.8443300  49.8145330  11.0230720 142.7710610  49.5789600  11.0666680
 141.8293730  50.6417330  10.5416750 139.0306910  32.4790080  10.7872600
 138.7491180  32.9823680  10.0233420 139.4126610  31.6811830  10.4214730
 145.6322370  31.8943660  11.3653070 145.5187820  32.2138270  12.2604590
 146.4492110  32.2956170  11.0690350 148.4120860  49.0415190  10.8471760
 149.2046180  48.5464420  10.6397720 148.7054010  49.7205330  11.4547370
 144.5380520  21.1392640 150.6979220 144.4574570  20.2247250 150.4270930
 144.1244940  21.6359710 149.9918930 142.6698560  22.9171660 152.5788490
 141.8940660  22.4372100 152.8687060 143.3211490  22.2377310 152.4044650
 146.6905990  27.3231850 151.3587620 146.2287520  26.5519090 151.6874790
 147.5031540  27.3497920 151.8640070 135.0956340  18.1893360 147.2406640
 134.2073040  18.5309330 147.1386520 135.3797530  17.9893680 146.3487470
 133.0589350  20.7899010 153.1246340 133.6305460  20.0221210 153.1249980
 133.0590890  21.0887770 152.2152950 142.9169300  29.6089860 150.9791610
 142.2980740  30.0647360 150.4086050 143.7721080  29.7641320 150.5781310
 142.1107550  25.5928850 152.5858650 142.0415830  24.6518790 152.4247780
 142.8727410  25.6830260 153.1581220 143.1412720  18.3999230 152.8127580
 143.5177540  17.5271110 152.7001250 143.0432230  18.7357930 151.9218020
 137.2717730  16.7724860 148.2745020 137.3784480  17.6728590 148.5813780
 136.3610090  16.7242830 147.9839670 146.9236840  15.8949670 149.7455920
 147.7446460  15.4046240 149.7881400 146.9570920  16.4847330 150.4987760
 143.7832650  24.4929100 148.3723520 143.1649920  24.9578550 147.8086240
 144.2955900  25.1856580 148.7893030 147.1598320  17.8350050 152.5183460
 146.4553890  18.1234940 153.0986570 147.5210480  18.6450160 152.1583020
 133.1515850  25.1785630 145.7463150 132.7743830  25.6672730 145.0148050
 133.4088920  25.8510910 146.3769680 140.7604780  13.5802020 151.2048660
 141.0679760  13.0248910 150.4884160 139.8305480  13.7146480 151.0221650
 147.6065260  26.0185530 148.5846290 147.4961590  25.0759860 148.7095710
 147.6033510  26.3801170 149.4709050 143.1485540  21.6450850 147.9408780
 142.2214820  21.5788230 148.1697250 143.3010360  22.5830980 147.8264020
 143.1354620  17.9167850 144.9375940 142.1958290  18.0781810 145.0228400
 143.4537880  18.6353530 144.3911930 147.1782830  23.2071150 148.4444030
 146.5595250  22.8690700 147.7970330 147.1607280  22.5630910 149.1523220
 138.7542180  22.1715590 150.7228510 138.3499180  21.4592840 150.2274410
 138.8405300  21.8268830 151.6116550 139.2223880  25.8583150 152.8867720
 138.9252170  25.2528620 152.2075500 140.1723700  25.8960460 152.7757080
 145.3547530  22.4457960 145.4516780 145.7940810  21.6080390 145.3054600
 146.0675950  23.0787360 145.5380920 143.4642910  27.3854030 149.4198020
 143.9038820  28.1278360 149.0053410 143.4029800  27.6280600 150.3436980
 148.9364670  13.7000770 143.7657820 148.6237330  13.7927600 144.6656890
 149.6977140  14.2781800 143.7155250 135.4546810  21.0660570 148.2235160
 135.3344410  21.7922660 147.6116430 135.1447700  20.2963480 147.7463070
 134.3379810  25.9375900 150.4409980 133.9307890  26.0790490 149.5863580
 135.2292820  25.6536060 150.2381190 146.1313090  30.3723150 146.7761030
 145.9714230  30.0826090 147.6742860 145.9659800  29.5963280 146.2406260
 138.6101470  30.1521680 148.5532650 138.4343950  29.2357220 148.3400450
 137.7557210  30.5108970 148.7930450 145.8339220  27.8810710 145.3359030
 145.1404380  27.8788000 144.6761310 146.5762080  27.4570030 144.9053200
 145.3989150  29.5073420 149.4107520 145.8546100  28.7262800 149.7246140
 145.7381670  30.2180240 149.9548700 137.9210470  14.4095640 151.6058830
 137.4778620  15.1905180 151.2743350 138.4795460  14.7325530 152.3129770
 141.0369290  14.0306340 146.4864660 140.4123470  14.0266210 147.2117970
 140.9499410  13.1637300 146.0900630 137.7124690  19.5329210 149.3340080
 137.4865610  19.3166380 150.2386700 136.9317220  19.9657670 148.9886050
 144.9422450  19.5392580 147.9330730 144.3431340  20.2628380 147.7494350
 145.4902060  19.4769360 147.1507180 143.5487320  18.1756120 149.9634010
 143.9416890  18.4928320 149.1502700 143.9104170  17.2968000 150.0778530
 132.5851490  14.7656920 152.1864210 132.2964540  15.3359780 152.8989190
 133.3297250  14.2861370 152.5495440 132.7721720  18.7077040 143.3966930
 132.6896390  19.6507800 143.5381920 132.4204780  18.5651950 142.5179280
 140.5719850  17.4416070 152.4637280 140.5755910  17.0006020 151.6141820
 141.4670970  17.7633400 152.5709100 136.4222230  17.3242560 151.4231490
 136.0822280  17.8017790 152.1798540 135.6599550  16.8707680 151.0632590
 140.6340000  18.4428150 145.4544040 140.7552820  18.4014630 146.4029860
 140.2488510  19.3052300 145.2990770 139.6461500  20.7529290 144.8527340
 139.0778400  20.3047540 144.2263250 140.3550500  21.1122070 144.3192490
 133.7368310  16.2461540 150.3396160 133.4515230  15.8817210 151.1774780
 133.6747170  15.5142000 149.7259300 137.1908980  24.7487480 147.1253750
 136.4171240  24.2085100 146.9652470 137.9203610  24.2294090 146.7871510
 147.9496960  23.7452840 152.9180140 148.6696080  24.2408130 152.5276250
 147.7478780  23.0670730 152.2734010 143.4106900  15.1390800 147.0609530
 142.5971510  14.6403970 146.9854840 143.2168850  15.9789050 146.6445880
 146.1255290  19.5110450 145.3571690 147.0134910  19.8227680 145.1823030
 146.0960380  18.6382700 144.9652270 137.2346380  24.4167860 150.7632560
 137.7525050  23.6136120 150.7089450 136.7830400  24.3547000 151.6049390
 142.1215880  25.6834140 146.0359860 142.4631580  26.4276370 145.5403180
 141.2928590  25.9965260 146.3984690 148.3969560  20.8222290 144.8251550
 148.3133280  21.2536510 143.9747990 149.1163750  21.2820640 145.2578370
 149.4256810  27.6764550 147.5533680 148.7832970  27.0220170 147.8277400
 149.0387470  28.0819640 146.7774350 145.0043290  25.0049980 151.4005370
 145.3567110  24.4078110 150.7406740 144.1205620  24.6794210 151.5713620
 141.0906570  25.7647670 148.8075780 141.7777700  26.3116880 149.1883370
 140.3038990  26.3088400 148.8425390 133.2298970  21.3820490 144.2992860
 134.0993820  21.6645290 144.5828780 132.7389290  22.1956360 144.1841670
 140.3933780  22.7693700 148.4201140 140.8496560  23.5798950 148.6461330
 140.0421990  22.4516840 149.2519630 136.2945560  13.1131350 148.8923660
 136.1660190  13.1049250 149.8408580 135.4707580  13.4514440 148.5414670
 147.8154190  26.5681010 144.0910030 147.5891770  25.8511450 144.6834670
 147.4250390  26.3193450 143.2531780 133.5970220  30.5947870 144.8654490
 133.9567860  31.1937210 144.2111760 133.4562560  31.1407760 145.6389520
 147.3970440  24.4852950 145.7524190 147.1092140  24.9465640 146.5402070
 148.1922610  24.0250720 146.0208410 139.6138840  27.9779070 145.6828160
 139.6048940  28.7108760 145.0672670 138.6937200  27.7310650 145.7755120
 135.2145480  23.1993960 146.4274920 134.6073430  23.9392860 146.4370220
 135.6894830  23.2893320 145.6013120 148.1540300  16.3201720 146.9119370
 147.5253460  16.4247390 146.1977600 147.6592220  16.5398500 147.7013250
 142.5998440  28.0407310 144.3453350 142.7010420  27.8371300 143.4155330
 141.7000180  27.7865590 144.5501130 140.1224330  18.5987670 148.3277250
 139.4140480  19.0674010 148.7690860 140.4068810  17.9409680 148.9622440
 144.1539760  15.3238330 149.7673040 144.0307540  15.3424460 148.8182550
 145.1024320  15.3717270 149.8871440 141.2416550  30.5593630 149.0401020
 141.4958050  30.5215020 148.1180390 140.2929030  30.4326960 149.0329270
 138.3259350  16.9072750 145.7027960 139.1749880  17.3442900 145.6368150
 137.9590620  17.2193010 146.5300020 147.2469130  21.4785510 150.6159530
 146.3059270  21.4935740 150.7907220 147.5613200  20.6921470 151.0619830
 137.2250770  23.1605110 144.1763490 137.9914040  23.0486470 144.7388920
 137.3025460  22.4643080 143.5240260 135.9197530  20.5930180 144.8596380
 136.0001120  19.6457690 144.9713780 136.8117280  20.9237060 144.9657040
 149.2494710  28.6494360 152.2913790 149.3742130  29.4725530 152.7637600
 150.1160270  28.4385090 151.9437940 136.7212240  30.7425570 151.9630920
 137.4574720  30.1941030 152.2339490 137.1053160  31.6081580 151.8236910
 133.6057720  26.8099140 147.8372430 132.6797500  27.0520280 147.8277840
 134.0714150  27.6373400 147.7157180 139.8314550  29.9155880 143.7856490
 140.6243160  30.2044710 143.3338280 139.3118900  29.4848050 143.1068970
 148.8844720  29.1426010 145.2093230 148.5986230  28.7291150 144.3947410
 148.6864270  30.0713720 145.0893750 140.3491950  25.1359290 143.6498840
 140.2442590  24.5211640 144.3760220 140.1816170  24.6125180 142.8661850
 143.5894680  24.1979320 144.2540830 143.0404780  24.6448620 144.8983570
 144.2113940  23.6928570 144.7778500 139.2569800  23.1570240 146.1506130
 139.6786220  22.9910110 146.9937520 139.3820640  22.3470470 145.6561270
 141.7697440  22.1807850 143.3983230 142.2903100  21.4656870 143.0324380
 142.4165840  22.8193720 143.6983740 138.1528700  19.2303470 143.0964290
 137.9517760  18.3670830 143.4577630 137.9820750  19.1436830 142.1585890
 145.6317010  14.0411700 145.6251170 145.9119300  13.1979600 145.9810590
 144.8582740  14.2734810 146.1389920 136.9511500  16.3304090 143.0842170
 137.2537400  16.3371520 142.1761320 137.6906090  15.9801950 143.5809830
 140.1696430  15.2738710 144.0698370 139.8218430  14.5962700 143.4900820
 140.3709200  14.8128220 144.8841760 142.3345470  30.2619460 145.6884970
 143.2296260  30.6004430 145.7103730 142.3663100  29.5398870 145.0609250
 135.9741630  25.6346510 143.9171970 136.4116500  26.1776180 144.5729550
 136.4589360  24.8093460 143.9268310 133.1887430  28.4235540 151.3692230
 133.5190440  27.5556600 151.1370870 133.6178430  28.6294060 152.1997190
 137.7849350  26.7544550 149.0294200 137.4844890  26.6309520 149.9298110
 137.6786840  25.8953140 148.6209930 133.5102070  21.8026360 150.4662740
 132.8550910  21.5338000 149.8222440 134.3480020  21.6930840 150.0164720
 150.0616900  23.5722800 143.3927600 150.3365740  24.4801680 143.2646820
 149.8727640  23.5085330 144.3289590 146.4592510  16.5967650 144.6881230
 146.8777390  16.4098630 143.8477890 146.1528570  15.7446700 144.9984160
 149.9582240  21.5091790 148.3857030 149.5825840  20.7419720 147.9538320
 149.2285360  21.8914490 148.8731960 132.7240150  19.0125290 146.4088070
 131.8204230  19.2755490 146.2339730 133.2080770  19.2836460 145.6288030
 149.2333200  19.7349280 151.6864270 149.7570680  19.2411930 151.0554440
 149.8192620  19.8699640 152.4311840 135.2667360  18.0690830 144.3182450
 135.9759060  17.6474050 143.8329730 134.5507300  18.1366060 143.6865800
 134.9141520  14.1230160 143.3585100 135.6369650  14.6639100 143.6766320
 135.1866040  13.8493580 142.4826640 148.7233170  18.9922630 147.6256680
 149.2192290  18.7593500 148.4105560 148.5249240  18.1534470 147.2094320
 148.0567510  30.2693710 150.0195600 148.6526580  29.9478280 149.3430020
 148.3145660  29.7965530 150.8108870 147.5469020  14.5599040 152.4756040
 147.9877110  14.5044140 151.6277640 147.2776610  15.4757050 152.5466220
 149.4107590  14.1914280 150.4864860 149.3495990  13.2475500 150.3395880
 150.1899620  14.2994370 151.0318320 133.7160340  30.3306640 149.4488810
 133.5482380  29.6977320 150.1470700 132.8494850  30.5366040 149.0983000
 134.3388360  14.1623420 146.9520670 135.0967720  14.2752300 146.3784700
 133.8765530  14.9992620 146.9064100 140.8802170  16.2762690 149.9422980
 140.0676680  15.9019580 149.6018860 141.3843810  15.5207770 150.2444170
 145.3827150  12.9405140 151.1806050 145.9856520  13.5125350 151.6554570
 144.6420140  13.5044580 150.9579950 148.5261750  13.3426700 146.4546330
 148.7212380  14.2410150 146.7213760 147.7391620  13.1113780 146.9479280
 135.3223040  29.0239870 146.8938950 134.7970660  29.4047900 146.1900910
 135.2467620  29.6490640 147.6148660 136.7113510  14.6887470 145.4922640
 137.2406270  13.9017270 145.3630590 137.3441830  15.3678660 145.7258170
 138.9051350  14.4262610 148.5468030 138.2754090  13.7249920 148.7138160
 138.3656490  15.1866740 148.3301190 150.0788360  30.5827410 148.2152890
 150.2540550  29.8965150 147.5713810 149.3809930  31.1074460 147.8229560
 137.9216010  30.9722250 145.7688200 138.6534830  30.6881530 145.2212090
 138.1809680  30.7335530 146.6587580 137.0830800  27.0886980 145.7734530
 136.4539680  27.5572080 146.3220360 137.1978630  26.2436200 146.2080720
 144.5380520  21.1392640 131.9235730 144.4574570  20.2247250 131.6527440
 144.1244940  21.6359710 131.2175440 142.6698560  22.9171660 133.8045000
 141.8940660  22.4372100 134.0943570 143.3211490  22.2377310 133.6301160
 136.6864390  23.2291470 134.6820760 135.8549270  22.9740180 135.0817270
 137.2945370  23.3002240 135.4178680 146.6905990  27.3231850 132.5844130
 146.2287520  26.5519090 132.9131300 147.5031540  27.3497920 133.0896580
 136.6665650  27.2631560 134.8778780 136.9693690  26.3729300 134.6989000
 137.4109240  27.8201780 134.6501030 135.0956340  18.1893360 128.4663150
 134.2073040  18.5309330 128.3643030 135.3797530  17.9893680 127.5743980
 133.0589350  20.7899010 134.3502850 133.6305460  20.0221210 134.3506490
 133.0590890  21.0887770 133.4409460 142.9169300  29.6089860 132.2048120
 142.2980740  30.0647360 131.6342560 143.7721080  29.7641320 131.8037820
 142.1107550  25.5928850 133.8115160 142.0415830  24.6518790 133.6504290
 142.8727410  25.6830260 134.3837730 134.3014220  16.1983370 136.1371780
 134.1217060  15.3009120 136.4174540 133.8994300  16.7455240 136.8118730
 143.1412720  18.3999230 134.0384090 143.5177540  17.5271110 133.9257760
 143.0432230  18.7357930 133.1474530 137.2717730  16.7724860 129.5001530
 137.3784480  17.6728590 129.8070290 136.3610090  16.7242830 129.2096180
 146.9236840  15.8949670 130.9712430 147.7446460  15.4046240 131.0137910
 146.9570920  16.4847330 131.7244270 134.9200890  18.6943870 134.7454120
 135.6011000  18.9582240 135.3641520 134.6048940  17.8544740 135.0792130
 139.1125460  19.7411230 133.8326710 139.6203680  20.2392200 134.4731730
 139.6438700  18.9646430 133.6566070 137.3961560  14.3809790 138.0990130
 137.3980000  14.8982180 137.2936030 136.5665870  13.9039970 138.0760060
 143.7832650  24.4929100 129.5980030 143.1649920  24.9578550 129.0342750
 144.2955900  25.1856580 130.0149540 138.6464410  24.0204970 136.2763630
 138.3133790  24.6473890 136.9184700 138.8231090  24.5466850 135.4965300
 147.1598320  17.8350050 133.7439970 146.4553890  18.1234940 134.3243080
 147.5210480  18.6450160 133.3839530 137.0776890  16.0919750 136.1060580
 137.4193700  16.9361800 135.8114450 136.1392700  16.2403490 136.2225920
 137.8583510  25.9885770 138.0912810 138.4757510  26.6636850 137.8097260
 136.9976630  26.3973750 138.0000310 133.1515850  25.1785630 126.9719660
 132.7743830  25.6672730 126.2404560 133.4088920  25.8510910 127.6026190
 148.7761100  27.4525180 136.0067450 148.0924620  28.1224290 135.9984120
 149.3155390  27.6505830 135.2412310 140.7604780  13.5802020 132.4305170
 141.0679760  13.0248910 131.7140670 139.8305480  13.7146480 132.2478160
 146.3119840  29.2969310 134.7212630 146.3247000  28.8931600 133.8534890
 145.7595060  30.0716600 134.6174060 147.6065260  26.0185530 129.8102800
 147.4961590  25.0759860 129.9352220 147.6033510  26.3801170 130.6965560
 145.7105280  24.1999150 136.0495240 146.1274070  23.9859260 135.2148700
 146.4345100  24.4571940 136.6203860 143.1485540  21.6450850 129.1665290
 142.2214820  21.5788230 129.3953760 143.3010360  22.5830980 129.0520530
 143.1354620  17.9167850 126.1632450 142.1958290  18.0781810 126.2484910
 143.4537880  18.6353530 125.6168440 149.6567380  22.5986370 136.1411480
 148.8286010  22.6679460 135.6661610 150.2517860  23.1840680 135.6727310
 147.1782830  23.2071150 129.6700540 146.5595250  22.8690700 129.0226840
 147.1607280  22.5630910 130.3779730 146.6209390  19.3855690 137.0866350
 146.2080570  20.2109400 137.3406340 145.8885340  18.8000730 136.8942710
 138.7542180  22.1715590 131.9485020 138.3499180  21.4592840 131.4530920
 138.8405300  21.8268830 132.8373060 139.2223880  25.8583150 134.1124230
 138.9252170  25.2528620 133.4332010 140.1723700  25.8960460 134.0013590
 137.4670800  18.9458800 135.7284060 138.0185390  19.0554140 134.9537310
 137.9814310  19.3196400 136.4439290 147.3109490  29.4315020 137.7747330
 146.8340050  30.2387210 137.5819940 146.6271280  28.7793350 137.9273540
 138.3142310  25.5964840 140.7632030 137.4170840  25.8204810 141.0105430
 138.3395180  25.7199780 139.8143430 145.3547530  22.4457960 126.6773290
 145.7940810  21.6080390 126.5311110 146.0675950  23.0787360 126.7637430
 137.1413530  22.4678160 139.3389400 137.0021300  23.3400960 139.7076800
 136.2594890  22.1250970 139.1937340 143.4642910  27.3854030 130.6454530
 143.9038820  28.1278360 130.2309920 143.4029800  27.6280600 131.5693490
 138.9393880  28.4099860 141.5474550 138.9109310  28.8142810 140.6802980
 138.7758850  27.4810220 141.3846150 148.9364670  13.7000770 124.9914330
 148.6237330  13.7927600 125.8913400 149.6977140  14.2781800 124.9411760
 135.4546810  21.0660570 129.4491670 135.3344410  21.7922660 128.8372940
 135.1447700  20.2963480 128.9719580 133.0932180  24.2375710 135.2560310
 133.1712600  24.3724480 134.3116030 133.7073860  23.5291600 135.4488430
 134.3379810  25.9375900 131.6666490 133.9307890  26.0790490 130.8120090
 135.2292820  25.6536060 131.4637700 150.2941950  26.3839810 140.0038730
 150.4205010  26.1451690 139.0855910 150.3363330  25.5524350 140.4760810
 144.1558690  30.0867810 138.5733540 144.6703360  29.9975820 139.3755970
 143.3127770  30.4327510 138.8661450 146.1313090  30.3723150 128.0017540
 145.9714230  30.0826090 128.8999370 145.9659800  29.5963280 127.4662770
 138.6101470  30.1521680 129.7789160 138.4343950  29.2357220 129.5656960
 137.7557210  30.5108970 130.0186960 145.8339220  27.8810710 126.5615540
 145.1404380  27.8788000 125.9017820 146.5762080  27.4570030 126.1309710
 145.3989150  29.5073420 130.6364030 145.8546100  28.7262800 130.9502650
 145.7381670  30.2180240 131.1805210 150.1465960  18.4372270 140.9688470
 149.5310230  18.9451940 140.4403930 149.8262380  17.5370600 140.9114410
 133.1491700  25.2789880 137.7954770 133.3122740  24.8095240 136.9774140
 133.6144150  24.7713440 138.4603610 137.9210470  14.4095640 132.8315340
 137.4778620  15.1905180 132.4999860 138.4795460  14.7325530 133.5386280
 142.2080280  17.2764160 138.4350660 141.7459650  17.4847180 139.2470600
 141.8058390  16.4623510 138.1321330 147.2084790  18.4973110 139.5647320
 146.3578380  18.1978860 139.8856390 147.0486580  18.7415120 138.6531140
 144.3034500  19.9974860 141.6646110 144.6287910  19.1638610 141.3248340
 145.0914830  20.5203380 141.8124440 141.0369290  14.0306340 127.7121170
 140.4123470  14.0266210 128.4374480 140.9499410  13.1637300 127.3157140
 139.9586370  14.9542970 134.6904940 140.2558700  15.8605800 134.6096960
 140.5071930  14.4661750 134.0764510 137.7124690  19.5329210 130.5596590
 137.4865610  19.3166380 131.4643210 136.9317220  19.9657670 130.2142560
 144.9422450  19.5392580 129.1587240 144.3431340  20.2628380 128.9750860
 145.4902060  19.4769360 128.3763690 140.1523900  20.4314790 141.2256860
 140.0567500  19.4909520 141.0757260 140.9955880  20.6529860 140.8304930
 143.5487320  18.1756120 131.1890520 143.9416890  18.4928320 130.3759210
 143.9104170  17.2968000 131.3035040 135.2834440  16.8428460 139.3790640
 134.8897830  17.6903670 139.5863420 134.5952840  16.2054830 139.5699280
 141.8579490  16.9263430 142.4487380 141.1677810  16.7335630 143.0833470
 142.6011790  17.2098070 142.9811680 132.5851490  14.7656920 133.4120720
 132.2964540  15.3359780 134.1245700 133.3297250  14.2861370 133.7751950
 132.7721720  18.7077040 124.6223440 132.6896390  19.6507800 124.7638430
 132.4204780  18.5651950 123.7435790 144.1342460  20.7661870 135.2841300
 143.4023580  21.2748680 135.6331400 143.7366800  19.9491850 134.9830080
 140.5719850  17.4416070 133.6893790 140.5755910  17.0006020 132.8398330
 141.4670970  17.7633400 133.7965610 136.4222230  17.3242560 132.6488000
 136.0822280  17.8017790 133.4055050 135.6599550  16.8707680 132.2889100
 140.6340000  18.4428150 126.6800550 140.7552820  18.4014630 127.6286370
 140.2488510  19.3052300 126.5247280 144.5968370  16.2195550 134.6964240
 144.6141110  16.6704200 135.5406090 144.3483950  15.3201190 134.9097680
 139.6461500  20.7529290 126.0783850 139.0778400  20.3047540 125.4519760
 140.3550500  21.1122070 125.5449000 148.0239120  13.6327730 140.5350620
 148.3484890  12.9017390 141.0608600 148.0595630  13.3141370 139.6331610
 134.7230680  24.6541310 139.9550580 134.3385470  24.0134980 140.5533540
 135.0342870  25.3577430 140.5245310 140.8727820  21.5017850 135.4359200
 141.2397950  21.0276420 136.1820540 140.6832880  22.3759420 135.7767540
 133.7368310  16.2461540 131.5652670 133.4515230  15.8817210 132.4031290
 133.6747170  15.5142000 130.9515810 138.6627190  20.5426490 137.7543410
 138.3584260  21.4218470 137.9793770 139.6173650  20.6026280 137.7900850
 137.1908980  24.7487480 128.3510260 136.4171240  24.2085100 128.1908980
 137.9203610  24.2294090 128.0128020 147.9496960  23.7452840 134.1436650
 148.6696080  24.2408130 133.7532760 147.7478780  23.0670730 133.4990520
 143.4106900  15.1390800 128.2866040 142.5971510  14.6403970 128.2111350
 143.2168850  15.9789050 127.8702390 143.3315760  23.8161900 140.0305650
 143.2653070  22.8957570 139.7763240 142.7020900  23.9137340 140.7450290
 146.1255290  19.5110450 126.5828200 147.0134910  19.8227680 126.4079540
 146.0960380  18.6382700 126.1908780 137.2346380  24.4167860 131.9889070
 137.7525050  23.6136120 131.9345960 136.7830400  24.3547000 132.8305900
 142.1215880  25.6834140 127.2616370 142.4631580  26.4276370 126.7659690
 141.2928590  25.9965260 127.6241200 134.7190920  21.3829230 138.9014770
 134.3605860  22.0483080 139.4888110 134.4245480  20.5512780 139.2727390
 137.9204040  21.8413470 141.7854320 137.6204180  21.9870650 140.8882140
 138.6915280  21.2818760 141.6927710 143.2632490  26.6382470 139.7809450
 143.2777030  25.7063430 139.5628360 142.5557590  26.7242230 140.4199220
 148.3969560  20.8222290 126.0508060 148.3133280  21.2536510 125.2004500
 149.1163750  21.2820640 126.4834880 149.4743700  23.2789810 139.1278030
 148.7491890  23.8718590 138.9307420 150.0019160  23.2713350 138.3291400
 149.4256810  27.6764550 128.7790190 148.7832970  27.0220170 129.0533910
 149.0387470  28.0819640 128.0030860 145.0043290  25.0049980 132.6261880
 145.3567110  24.4078110 131.9663250 144.1205620  24.6794210 132.7970130
 141.0906570  25.7647670 130.0332290 141.7777700  26.3116880 130.4139880
 140.3038990  26.3088400 130.0681900 133.2298970  21.3820490 125.5249370
 134.0993820  21.6645290 125.8085290 132.7389290  22.1956360 125.4098180
 140.3933780  22.7693700 129.6457650 140.8496560  23.5798950 129.8717840
 140.0421990  22.4516840 130.4776140 142.6966390  28.2800040 136.8749950
 143.3408610  28.4859420 137.5523370 143.0595830  27.5188440 136.4220800
 136.2945560  13.1131350 130.1180170 136.1660190  13.1049250 131.0665090
 135.4707580  13.4514440 129.7671180 143.9698470  26.2832390 135.5927400
 144.6120700  25.5825550 135.7059570 144.4947820  27.0630830 135.4124290
 147.8154190  26.5681010 125.3166540 147.5891770  25.8511450 125.9091180
 147.4250390  26.3193450 124.4788290 145.7436090  27.0827290 138.7963460
 146.0792330  27.6693980 139.4741380 144.8236430  26.9520000 139.0261250
 133.5970220  30.5947870 126.0911000 133.9567860  31.1937210 125.4368270
 133.4562560  31.1407760 126.8646030 133.2939490  14.8722470 139.5786870
 132.5798010  15.0719390 140.1839480 133.7134530  14.0962040 139.9501670
 147.3970440  24.4852950 126.9780700 147.1092140  24.9465640 127.7658580
 148.1922610  24.0250720 127.2464920 133.5812080  28.8602730 140.5653400
 133.6903200  27.9197470 140.4248790 132.9292640  29.1257480 139.9167130
 141.5724670  27.1318620 141.9651520 141.2521540  26.4127860 142.5097210
 140.8983030  27.8073690 142.0387580 139.6138840  27.9779070 126.9084670
 139.6048940  28.7108760 126.2929180 138.6937200  27.7310650 127.0011630
 135.2145480  23.1993960 127.6531430 134.6073430  23.9392860 127.6626730
 135.6894830  23.2893320 126.8269630 144.7878270  17.3644780 137.3288320
 145.1559090  16.5439990 137.6567890 143.9276470  17.4246670 137.7443970
 148.1540300  16.3201720 128.1375880 147.5253460  16.4247390 127.4234110
 147.6592220  16.5398500 128.9269760 142.5998440  28.0407310 125.5709860
 142.7010420  27.8371300 124.6411840 141.7000180  27.7865590 125.7757640
 140.1224330  18.5987670 129.5533760 139.4140480  19.0674010 129.9947370
 140.4068810  17.9409680 130.1878950 141.7480260  20.0184370 137.5526290
 142.2465510  20.4930190 138.2178140 141.8903210  19.0947890 137.7596320
 144.1539760  15.3238330 130.9929550 144.0307540  15.3424460 130.0439060
 145.1024320  15.3717270 131.1127950 141.2416550  30.5593630 130.2657530
 141.4958050  30.5215020 129.3436900 140.2929030  30.4326960 130.2585780
 138.3259350  16.9072750 126.9284470 139.1749880  17.3442900 126.8624660
 137.9590620  17.2193010 127.7556530 148.9547120  16.2352330 138.3954680
 148.4520720  16.9757730 138.7348490 149.7703780  16.6236330 138.0791470
 147.2469130  21.4785510 131.8416040 146.3059270  21.4935740 132.0163730
 147.5613200  20.6921470 132.2876340 137.2250770  23.1605110 125.4020000
 137.9914040  23.0486470 125.9645430 137.3025460  22.4643080 124.7496770
 135.9197530  20.5930180 126.0852890 136.0001120  19.6457690 126.1970290
 136.8117280  20.9237060 126.1913550 149.2494710  28.6494360 133.5170300
 149.3742130  29.4725530 133.9894110 150.1160270  28.4385090 133.1694450
 136.7212240  30.7425570 133.1887430 137.4574720  30.1941030 133.4596000
 137.1053160  31.6081580 133.0493420 133.6057720  26.8099140 129.0628940
 132.6797500  27.0520280 129.0534350 134.0714150  27.6373400 128.9413690
 135.7270520  29.9271640 142.3773010 136.5283250  30.2483690 142.7908410
 135.2122340  29.5667220 143.0992920 139.8314550  29.9155880 125.0113000
 140.6243160  30.2044710 124.5594790 139.3118900  29.4848050 124.3325480
 144.5635150  26.0351510 142.3248420 143.9573310  26.0583110 141.5844170
 144.2589260  25.3034550 142.8615670 145.9935520  29.7631800 140.9357830
 146.9457270  29.6789820 140.8858070 145.8463740  30.4273510 141.6091620
 148.8844720  29.1426010 126.4349740 148.5986230  28.7291150 125.6203920
 148.6864270  30.0713720 126.3150260 133.4468330  22.4145100 141.3209060
 133.9507350  21.8352380 141.8925290 132.7075750  22.6985330 141.8585430
 140.3491950  25.1359290 124.8755350 140.2442590  24.5211640 125.6016730
 140.1816170  24.6125180 124.0918360 140.5006270  23.8216090 140.8544580
 139.7351940  24.3901090 140.7699250 140.6822230  23.5292300 139.9612810
 143.5894680  24.1979320 125.4797340 143.0404780  24.6448620 126.1240080
 144.2113940  23.6928570 126.0035010 147.6429620  25.5521420 141.4119600
 148.3839090  25.8897180 140.9087060 146.8802300  25.7213480 140.8589370
 135.4791410  20.5574690 142.2159130 135.5196750  20.2588560 143.1244360
 136.3336910  20.9582300 142.0566650 139.2569800  23.1570240 127.3762640
 139.6786220  22.9910110 128.2194030 139.3820640  22.3470470 126.8817780
 137.4197220  19.1366790 140.1833620 136.8893680  18.6457740 139.5556960
 138.0885290  19.5650990 139.6491550 141.7697440  22.1807850 124.6239740
 142.2903100  21.4656870 124.2580890 142.4165840  22.8193720 124.9240250
 146.3175280  23.6036250 139.9474810 146.7316300  23.7581330 140.7965230
 145.3826280  23.7291470 140.1100590 146.7897450  20.9432410 141.9513960
 147.3718220  20.1884730 141.8634440 146.9659220  21.4739850 141.1745440
 137.9069520  16.1029160 140.2630910 137.8126390  15.4849910 139.5381780
 137.3266910  16.8295450 140.0360820 140.6730960  14.6602400 137.2958300
 140.2248260  14.6826660 136.4503850 140.0396160  14.2621420 137.8928600
 141.0790510  23.5556730 137.9170740 141.4978620  24.3989460 137.7446980
 140.1599140  23.6928770 137.6877520 143.4154410  21.2872910 139.3008580
 143.5350620  20.6914050 140.0403420 144.2748410  21.3242600 138.8809880
 145.7542310  21.8410100 137.8771090 145.2277530  22.3652720 137.2736230
 146.0973650  22.4737490 138.5080820 138.1528700  19.2303470 124.3220800
 137.9517760  18.3670830 124.6834140 137.9820750  19.1436830 123.3842400
 138.9297930  29.8609740 139.0328470 138.3919020  30.5855800 138.7137170
 139.1831890  29.3840080 138.2425810 140.1823180  17.8294260 140.5584400
 140.7722870  17.5210110 141.2462220 139.3643420  17.3574010 140.7144300
 145.0016610  17.4460070 140.7917420 144.3132130  16.7841610 140.7267410
 145.7222630  16.9998340 141.2365880 145.6317010  14.0411700 126.8507680
 145.9119300  13.1979600 127.2067100 144.8582740  14.2734810 127.3646430
 136.9511500  16.3304090 124.3098680 137.2537400  16.3371520 123.4017830
 137.6906090  15.9801950 124.8066340 141.7860140  31.0960950 139.2915120
 141.7118840  31.9996090 139.5987490 140.8838980  30.7772850 139.2637190
 140.1696430  15.2738710 125.2954880 139.8218430  14.5962700 124.7157330
 140.3709200  14.8128220 126.1098270 142.3345470  30.2619460 126.9141480
 143.2296260  30.6004430 126.9360240 142.3663100  29.5398870 126.2865760
 135.9741630  25.6346510 125.1428480 136.4116500  26.1776180 125.7986060
 136.4589360  24.8093460 125.1524820 133.1887430  28.4235540 132.5948740
 133.5190440  27.5556600 132.3627380 133.6178430  28.6294060 133.4253700
 137.7849350  26.7544550 130.2550710 137.4844890  26.6309520 131.1554620
 137.6786840  25.8953140 129.8466440 133.6777640  29.2906130 135.3330370
 133.2408630  29.4706930 136.1654520 134.2455320  30.0480750 135.1912090
 149.3139820  28.7923130 139.6207680 148.7141810  28.8515690 138.8771600
 149.4433720  27.8528110 139.7504530 133.5102070  21.8026360 131.6919250
 132.8550910  21.5338000 131.0478950 134.3480020  21.6930840 131.2421230
 147.9991460  25.5175110 137.7183840 147.1851300  25.9472270 137.9809630
 148.4065660  26.1293520 137.1052890 150.0616900  23.5722800 124.6184110
 150.3365740  24.4801680 124.4903330 149.8727640  23.5085330 125.5546100
 146.4592510  16.5967650 125.9137740 146.8777390  16.4098630 125.0734400
 146.1528570  15.7446700 126.2240670 149.9582240  21.5091790 129.6113540
 149.5825840  20.7419720 129.1794830 149.2285360  21.8914490 130.0988470
 134.5478000  22.1878930 136.2322590 134.9151040  22.1006330 137.1118610
 133.9788820  21.4245480 136.1329450 149.3481860  20.6563310 139.2453060
 149.1167950  20.4276060 138.3451010 149.6086410  21.5762860 139.1997950
 134.0994000  19.0988020 140.1381010 133.2050050  19.0654780 140.4774720
 134.6391550  19.2974810 140.9032260 147.7869930  15.8819740 142.0232760
 148.6640110  15.8903140 142.4066760 147.7990770  15.1450580 141.4125110
 132.7240150  19.0125290 127.6344580 131.8204230  19.2755490 127.4596240
 133.2080770  19.2836460 126.8544540 149.2333200  19.7349280 132.9120780
 149.7570680  19.2411930 132.2810950 149.8192620  19.8699640 133.6568350
 149.4122920  19.8189150 136.4340330 148.4625630  19.7852690 136.5485320
 149.5935930  20.7289260 136.1990100 135.2667360  18.0690830 125.5438960
 135.9759060  17.6474050 125.0586240 134.5507300  18.1366060 124.9122310
 134.9141520  14.1230160 124.5841610 135.6369650  14.6639100 124.9022830
 135.1866040  13.8493580 123.7083150 148.7233170  18.9922630 128.8513190
 149.2192290  18.7593500 129.6362070 148.5249240  18.1534470 128.4350830
 134.6033710  13.3736350 134.4864230 135.2509900  12.8233730 134.0459390
 135.0235550  13.6279500 135.3080040 148.4986050  13.5677710 137.8433870
 149.1358270  14.1811850 138.2093060 148.6460940  13.6038370 136.8983100
 148.0567510  30.2693710 131.2452110 148.6526580  29.9478280 130.5686530
 148.3145660  29.7965530 132.0365380 134.3565710  13.5292020 137.2289550
 134.0080530  13.9855840 137.9947730 134.0253410  12.6349150 137.3111980
 135.9630080  26.7011620 141.3942740 135.9199710  26.3304530 142.2757200
 136.0941090  27.6389190 141.5344560 139.6636110  28.2571210 136.9952460
 139.4227470  28.5245770 136.1082980 140.6038750  28.4276940 137.0503320
 141.8690530  14.7203900 140.7508970 141.8079420  15.3125730 141.5004380
 142.8090910  14.6129860 140.6059230 144.5065090  14.3773960 140.3901260
 145.1205500  14.6953250 139.7282340 145.0514650  13.8922550 141.0097120
 135.0286350  13.0568220 140.5040320 135.5769340  12.8756270 139.7406430
 135.0941660  12.2662330 141.0396630 135.8018110  29.6473870 138.5140520
 135.2078430  29.5158570 139.2530560 135.7941950  28.8112010 138.0482620
 145.2473130  12.9406100 136.7170550 144.3732970  13.2741210 136.5143480
 145.1383880  12.4679280 137.5422420 146.1545110  15.1476970 138.1012270
 145.8258470  14.3328730 137.7214000 147.1027410  15.1046780 137.9777960
 148.6079720  30.9189010 135.0749840 148.1482690  31.6704820 134.7007860
 147.9792180  30.1995480 135.0164640 135.4330340  27.0132250 137.4648560
 134.7064400  26.3937540 137.3974510 135.4939490  27.4072860 136.5946640
 139.0375440  29.2277250 134.2497970 139.5540460  28.6164610 133.7246230
 139.6872820  29.7306030 134.7408980 141.7770940  30.1185740 135.0766950
 142.0648750  29.8640040 134.1999960 142.2894160  29.5663100 135.6672520
 142.9947950  13.8575940 135.6563460 142.2119740  14.3321440 135.9360220
 142.7010880  12.9530770 135.5476640 147.5469020  14.5599040 133.7012550
 147.9877110  14.5044140 132.8534150 147.2776610  15.4757050 133.7722730
 149.4107590  14.1914280 131.7121370 149.3495990  13.2475500 131.5652390
 150.1899620  14.2994370 132.2574830 133.7160340  30.3306640 130.6745320
 133.5482380  29.6977320 131.3727210 132.8494850  30.5366040 130.3239510
 134.3388360  14.1623420 128.1777180 135.0967720  14.2752300 127.6041210
 133.8765530  14.9992620 128.1320610 140.8802170  16.2762690 131.1679490
 140.0676680  15.9019580 130.8275370 141.3843810  15.5207770 131.4700680
 145.3827150  12.9405140 132.4062560 145.9856520  13.5125350 132.8811080
 144.6420140  13.5044580 132.1836460 148.5261750  13.3426700 127.6802840
 148.7212380  14.2410150 127.9470270 147.7391620  13.1113780 128.1735790
 135.3223040  29.0239870 128.1195460 134.7970660  29.4047900 127.4157420
 135.2467620  29.6490640 128.8405170 136.7113510  14.6887470 126.7179150
 137.2406270  13.9017270 126.5887100 137.3441830  15.3678660 126.9514680
 138.9051350  14.4262610 129.7724540 138.2754090  13.7249920 129.9394670
 138.3656490  15.1866740 129.5557700 141.8443300  31.0401840 142.4435150
 142.7710610  30.8046110 142.4871110 141.8293730  31.8673840 141.9621180
 150.0788360  30.5827410 129.4409400 150.2540550  29.8965150 128.7970320
 149.3809930  31.1074460 129.0486070 139.0306910  13.7046590 142.2077030
 138.7491180  14.2080190 141.4437850 139.4126610  12.9068340 141.8419160
 137.9216010  30.9722250 126.9944710 138.6534830  30.6881530 126.4468600
 138.1809680  30.7335530 127.8844090 137.0830800  27.0886980 126.9991040
 136.4539680  27.5572080 127.5476870 137.1978630  26.2436200 127.4337230
 145.6322370  13.1200170 142.7857500 145.5187820  13.4394780 143.6809020
 146.4492110  13.5212680 142.4894780 148.4120860  30.2671700 142.2676190
 149.2046180  29.7720930 142.0602150 148.7054010  30.9461840 142.8751800
 144.5380520  21.1392640 113.1492240 144.4574570  20.2247250 112.8783950
 144.1244940  21.6359710 112.4431950 142.6698560  22.9171660 115.0301510
 141.8940660  22.4372100 115.3200080 143.3211490  22.2377310 114.8557670
 136.6864390  23.2291470 115.9077270 135.8549270  22.9740180 116.3073780
 137.2945370  23.3002240 116.6435190 146.6905990  27.3231850 113.8100640
 146.2287520  26.5519090 114.1387810 147.5031540  27.3497920 114.3153090
 136.6665650  27.2631560 116.1035290 136.9693690  26.3729300 115.9245510
 137.4109240  27.8201780 115.8757540 135.0956340  18.1893360 109.6919660
 134.2073040  18.5309330 109.5899540 135.3797530  17.9893680 108.8000490
 133.0589350  20.7899010 115.5759360 133.6305460  20.0221210 115.5763000
 133.0590890  21.0887770 114.6665970 142.9169300  29.6089860 113.4304630
 142.2980740  30.0647360 112.8599070 143.7721080  29.7641320 113.0294330
 142.1107550  25.5928850 115.0371670 142.0415830  24.6518790 114.8760800
 142.8727410  25.6830260 115.6094240 134.3014220  16.1983370 117.3628290
 134.1217060  15.3009120 117.6431050 133.8994300  16.7455240 118.0375240
 143.1412720  18.3999230 115.2640600 143.5177540  17.5271110 115.1514270
 143.0432230  18.7357930 114.3731040 137.2717730  16.7724860 110.7258040
 137.3784480  17.6728590 111.0326800 136.3610090  16.7242830 110.4352690
 146.9236840  15.8949670 112.1968940 147.7446460  15.4046240 112.2394420
 146.9570920  16.4847330 112.9500780 134.9200890  18.6943870 115.9710630
 135.6011000  18.9582240 116.5898030 134.6048940  17.8544740 116.3048640
 139.1125460  19.7411230 115.0583220 139.6203680  20.2392200 115.6988240
 139.6438700  18.9646430 114.8822580 137.3961560  14.3809790 119.3246640
 137.3980000  14.8982180 118.5192540 136.5665870  13.9039970 119.3016570
 143.7832650  24.4929100 110.8236540 143.1649920  24.9578550 110.2599260
 144.2955900  25.1856580 111.2406050 138.6464410  24.0204970 117.5020140
 138.3133790  24.6473890 118.1441210 138.8231090  24.5466850 116.7221810
 147.1598320  17.8350050 114.9696480 146.4553890  18.1234940 115.5499590
 147.5210480  18.6450160 114.6096040 137.0776890  16.0919750 117.3317090
 137.4193700  16.9361800 117.0370960 136.1392700  16.2403490 117.4482430
 137.8583510  25.9885770 119.3169320 138.4757510  26.6636850 119.0353770
 136.9976630  26.3973750 119.2256820 133.1515850  25.1785630 108.1976170
 132.7743830  25.6672730 107.4661070 133.4088920  25.8510910 108.8282700
 148.7761100  27.4525180 117.2323960 148.0924620  28.1224290 117.2240630
 149.3155390  27.6505830 116.4668820 140.7604780  13.5802020 113.6561680
 141.0679760  13.0248910 112.9397180 139.8305480  13.7146480 113.4734670
 146.3119840  29.2969310 115.9469140 146.3247000  28.8931600 115.0791400
 145.7595060  30.0716600 115.8430570 147.6065260  26.0185530 111.0359310
 147.4961590  25.0759860 111.1608730 147.6033510  26.3801170 111.9222070
 145.7105280  24.1999150 117.2751750 146.1274070  23.9859260 116.4405210
 146.4345100  24.4571940 117.8460370 143.1485540  21.6450850 110.3921800
 142.2214820  21.5788230 110.6210270 143.3010360  22.5830980 110.2777040
 143.1354620  17.9167850 107.3888960 142.1958290  18.0781810 107.4741420
 143.4537880  18.6353530 106.8424950 149.6567380  22.5986370 117.3667990
 148.8286010  22.6679460 116.8918120 150.2517860  23.1840680 116.8983820
 147.1782830  23.2071150 110.8957050 146.5595250  22.8690700 110.2483350
 147.1607280  22.5630910 111.6036240 146.6209390  19.3855690 118.3122860
 146.2080570  20.2109400 118.5662850 145.8885340  18.8000730 118.1199220
 138.7542180  22.1715590 113.1741530 138.3499180  21.4592840 112.6787430
 138.8405300  21.8268830 114.0629570 139.2223880  25.8583150 115.3380740
 138.9252170  25.2528620 114.6588520 140.1723700  25.8960460 115.2270100
 137.4670800  18.9458800 116.9540570 138.0185390  19.0554140 116.1793820
 137.9814310  19.3196400 117.6695800 147.3109490  29.4315020 119.0003840
 146.8340050  30.2387210 118.8076450 146.6271280  28.7793350 119.1530050
 138.3142310  25.5964840 121.9888540 137.4170840  25.8204810 122.2361940
 138.3395180  25.7199780 121.0399940 145.3547530  22.4457960 107.9029800
 145.7940810  21.6080390 107.7567620 146.0675950  23.0787360 107.9893940
 137.1413530  22.4678160 120.5645910 137.0021300  23.3400960 120.9333310
 136.2594890  22.1250970 120.4193850 143.4642910  27.3854030 111.8711040
 143.9038820  28.1278360 111.4566430 143.4029800  27.6280600 112.7950000
 138.9393880  28.4099860 122.7731060 138.9109310  28.8142810 121.9059490
 138.7758850  27.4810220 122.6102660 148.9364670  13.7000770 106.2170840
 148.6237330  13.7927600 107.1169910 149.6977140  14.2781800 106.1668270
 135.4546810  21.0660570 110.6748180 135.3344410  21.7922660 110.0629450
 135.1447700  20.2963480 110.1976090 133.0932180  24.2375710 116.4816820
 133.1712600  24.3724480 115.5372540 133.7073860  23.5291600 116.6744940
 134.3379810  25.9375900 112.8923000 133.9307890  26.0790490 112.0376600
 135.2292820  25.6536060 112.6894210 150.2941950  26.3839810 121.2295240
 150.4205010  26.1451690 120.3112420 150.3363330  25.5524350 121.7017320
 144.1558690  30.0867810 119.7990050 144.6703360  29.9975820 120.6012480
 143.3127770  30.4327510 120.0917960 146.1313090  30.3723150 109.2274050
 145.9714230  30.0826090 110.1255880 145.9659800  29.5963280 108.6919280
 138.6101470  30.1521680 111.0045670 138.4343950  29.2357220 110.7913470
 137.7557210  30.5108970 111.2443470 145.8339220  27.8810710 107.7872050
 145.1404380  27.8788000 107.1274330 146.5762080  27.4570030 107.3566220
 145.3989150  29.5073420 111.8620540 145.8546100  28.7262800 112.1759160
 145.7381670  30.2180240 112.4061720 150.1465960  18.4372270 122.1944980
 149.5310230  18.9451940 121.6660440 149.8262380  17.5370600 122.1370920
 133.1491700  25.2789880 119.0211280 133.3122740  24.8095240 118.2030650
 133.6144150  24.7713440 119.6860120 137.9210470  14.4095640 114.0571850
 137.4778620  15.1905180 113.7256370 138.4795460  14.7325530 114.7642790
 142.2080280  17.2764160 119.6607170 141.7459650  17.4847180 120.4727110
 141.8058390  16.4623510 119.3577840 147.2084790  18.4973110 120.7903830
 146.3578380  18.1978860 121.1112900 147.0486580  18.7415120 119.8787650
 144.3034500  19.9974860 122.8902620 144.6287910  19.1638610 122.5504850
 145.0914830  20.5203380 123.0380950 141.0369290  14.0306340 108.9377680
 140.4123470  14.0266210 109.6630990 140.9499410  13.1637300 108.5413650
 139.9586370  14.9542970 115.9161450 140.2558700  15.8605800 115.8353470
 140.5071930  14.4661750 115.3021020 137.7124690  19.5329210 111.7853100
 137.4865610  19.3166380 112.6899720 136.9317220  19.9657670 111.4399070
 144.9422450  19.5392580 110.3843750 144.3431340  20.2628380 110.2007370
 145.4902060  19.4769360 109.6020200 140.1523900  20.4314790 122.4513370
 140.0567500  19.4909520 122.3013770 140.9955880  20.6529860 122.0561440
 143.5487320  18.1756120 112.4147030 143.9416890  18.4928320 111.6015720
 143.9104170  17.2968000 112.5291550 135.2834440  16.8428460 120.6047150
 134.8897830  17.6903670 120.8119930 134.5952840  16.2054830 120.7955790
 141.8579490  16.9263430 123.6743890 141.1677810  16.7335630 124.3089980
 142.6011790  17.2098070 124.2068190 132.5851490  14.7656920 114.6377230
 132.2964540  15.3359780 115.3502210 133.3297250  14.2861370 115.0008460
 132.7721720  18.7077040 105.8479950 132.6896390  19.6507800 105.9894940
 132.4204780  18.5651950 104.9692300 144.1342460  20.7661870 116.5097810
 143.4023580  21.2748680 116.8587910 143.7366800  19.9491850 116.2086590
 140.5719850  17.4416070 114.9150300 140.5755910  17.0006020 114.0654840
 141.4670970  17.7633400 115.0222120 136.4222230  17.3242560 113.8744510
 136.0822280  17.8017790 114.6311560 135.6599550  16.8707680 113.5145610
 140.6340000  18.4428150 107.9057060 140.7552820  18.4014630 108.8542880
 140.2488510  19.3052300 107.7503790 144.5968370  16.2195550 115.9220750
 144.6141110  16.6704200 116.7662600 144.3483950  15.3201190 116.1354190
 139.6461500  20.7529290 107.3040360 139.0778400  20.3047540 106.6776270
 140.3550500  21.1122070 106.7705510 148.0239120  13.6327730 121.7607130
 148.3484890  12.9017390 122.2865110 148.0595630  13.3141370 120.8588120
 134.7230680  24.6541310 121.1807090 134.3385470  24.0134980 121.7790050
 135.0342870  25.3577430 121.7501820 140.8727820  21.5017850 116.6615710
 141.2397950  21.0276420 117.4077050 140.6832880  22.3759420 117.0024050
 133.7368310  16.2461540 112.7909180 133.4515230  15.8817210 113.6287800
 133.6747170  15.5142000 112.1772320 138.6627190  20.5426490 118.9799920
 138.3584260  21.4218470 119.2050280 139.6173650  20.6026280 119.0157360
 137.1908980  24.7487480 109.5766770 136.4171240  24.2085100 109.4165490
 137.9203610  24.2294090 109.2384530 147.9496960  23.7452840 115.3693160
 148.6696080  24.2408130 114.9789270 147.7478780  23.0670730 114.7247030
 143.4106900  15.1390800 109.5122550 142.5971510  14.6403970 109.4367860
 143.2168850  15.9789050 109.0958900 143.3315760  23.8161900 121.2562160
 143.2653070  22.8957570 121.0019750 142.7020900  23.9137340 121.9706800
 146.1255290  19.5110450 107.8084710 147.0134910  19.8227680 107.6336050
 146.0960380  18.6382700 107.4165290 137.2346380  24.4167860 113.2145580
 137.7525050  23.6136120 113.1602470 136.7830400  24.3547000 114.0562410
 142.1215880  25.6834140 108.4872880 142.4631580  26.4276370 107.9916200
 141.2928590  25.9965260 108.8497710 134.7190920  21.3829230 120.1271280
 134.3605860  22.0483080 120.7144620 134.4245480  20.5512780 120.4983900
 137.9204040  21.8413470 123.0110830 137.6204180  21.9870650 122.1138650
 138.6915280  21.2818760 122.9184220 143.2632490  26.6382470 121.0065960
 143.2777030  25.7063430 120.7884870 142.5557590  26.7242230 121.6455730
 148.3969560  20.8222290 107.2764570 148.3133280  21.2536510 106.4261010
 149.1163750  21.2820640 107.7091390 149.4743700  23.2789810 120.3534540
 148.7491890  23.8718590 120.1563930 150.0019160  23.2713350 119.5547910
 149.4256810  27.6764550 110.0046700 148.7832970  27.0220170 110.2790420
 149.0387470  28.0819640 109.2287370 145.0043290  25.0049980 113.8518390
 145.3567110  24.4078110 113.1919760 144.1205620  24.6794210 114.0226640
 141.0906570  25.7647670 111.2588800 141.7777700  26.3116880 111.6396390
 140.3038990  26.3088400 111.2938410 133.2298970  21.3820490 106.7505880
 134.0993820  21.6645290 107.0341800 132.7389290  22.1956360 106.6354690
 140.3933780  22.7693700 110.8714160 140.8496560  23.5798950 111.0974350
 140.0421990  22.4516840 111.7032650 142.6966390  28.2800040 118.1006460
 143.3408610  28.4859420 118.7779880 143.0595830  27.5188440 117.6477310
 136.2945560  13.1131350 111.3436680 136.1660190  13.1049250 112.2921600
 135.4707580  13.4514440 110.9927690 143.9698470  26.2832390 116.8183910
 144.6120700  25.5825550 116.9316080 144.4947820  27.0630830 116.6380800
 147.8154190  26.5681010 106.5423050 147.5891770  25.8511450 107.1347690
 147.4250390  26.3193450 105.7044800 145.7436090  27.0827290 120.0219970
 146.0792330  27.6693980 120.6997890 144.8236430  26.9520000 120.2517760
 133.5970220  30.5947870 107.3167510 133.9567860  31.1937210 106.6624780
 133.4562560  31.1407760 108.0902540 133.2939490  14.8722470 120.8043380
 132.5798010  15.0719390 121.4095990 133.7134530  14.0962040 121.1758180
 147.3970440  24.4852950 108.2037210 147.1092140  24.9465640 108.9915090
 148.1922610  24.0250720 108.4721430 133.5812080  28.8602730 121.7909910
 133.6903200  27.9197470 121.6505300 132.9292640  29.1257480 121.1423640
 141.5724670  27.1318620 123.1908030 141.2521540  26.4127860 123.7353720
 140.8983030  27.8073690 123.2644090 139.6138840  27.9779070 108.1341180
 139.6048940  28.7108760 107.5185690 138.6937200  27.7310650 108.2268140
 135.2145480  23.1993960 108.8787940 134.6073430  23.9392860 108.8883240
 135.6894830  23.2893320 108.0526140 144.7878270  17.3644780 118.5544830
 145.1559090  16.5439990 118.8824400 143.9276470  17.4246670 118.9700480
 148.1540300  16.3201720 109.3632390 147.5253460  16.4247390 108.6490620
 147.6592220  16.5398500 110.1526270 142.5998440  28.0407310 106.7966370
 142.7010420  27.8371300 105.8668350 141.7000180  27.7865590 107.0014150
 140.1224330  18.5987670 110.7790270 139.4140480  19.0674010 111.2203880
 140.4068810  17.9409680 111.4135460 141.7480260  20.0184370 118.7782800
 142.2465510  20.4930190 119.4434650 141.8903210  19.0947890 118.9852830
 144.1539760  15.3238330 112.2186060 144.0307540  15.3424460 111.2695570
 145.1024320  15.3717270 112.3384460 141.2416550  30.5593630 111.4914040
 141.4958050  30.5215020 110.5693410 140.2929030  30.4326960 111.4842290
 138.3259350  16.9072750 108.1540980 139.1749880  17.3442900 108.0881170
 137.9590620  17.2193010 108.9813040 148.9547120  16.2352330 119.6211190
 148.4520720  16.9757730 119.9605000 149.7703780  16.6236330 119.3047980
 147.2469130  21.4785510 113.0672550 146.3059270  21.4935740 113.2420240
 147.5613200  20.6921470 113.5132850 137.2250770  23.1605110 106.6276510
 137.9914040  23.0486470 107.1901940 137.3025460  22.4643080 105.9753280
 135.9197530  20.5930180 107.3109400 136.0001120  19.6457690 107.4226800
 136.8117280  20.9237060 107.4170060 149.2494710  28.6494360 114.7426810
 149.3742130  29.4725530 115.2150620 150.1160270  28.4385090 114.3950960
 136.7212240  30.7425570 114.4143940 137.4574720  30.1941030 114.6852510
 137.1053160  31.6081580 114.2749930 133.6057720  26.8099140 110.2885450
 132.6797500  27.0520280 110.2790860 134.0714150  27.6373400 110.1670200
 135.7270520  29.9271640 123.6029520 136.5283250  30.2483690 124.0164920
 135.2122340  29.5667220 124.3249430 139.8314550  29.9155880 106.2369510
 140.6243160  30.2044710 105.7851300 139.3118900  29.4848050 105.5581990
 144.5635150  26.0351510 123.5504930 143.9573310  26.0583110 122.8100680
 144.2589260  25.3034550 124.0872180 145.9935520  29.7631800 122.1614340
 146.9457270  29.6789820 122.1114580 145.8463740  30.4273510 122.8348130
 148.8844720  29.1426010 107.6606250 148.5986230  28.7291150 106.8460430
 148.6864270  30.0713720 107.5406770 133.4468330  22.4145100 122.5465570
 133.9507350  21.8352380 123.1181800 132.7075750  22.6985330 123.0841940
 140.3491950  25.1359290 106.1011860 140.2442590  24.5211640 106.8273240
 140.1816170  24.6125180 105.3174870 140.5006270  23.8216090 122.0801090
 139.7351940  24.3901090 121.9955760 140.6822230  23.5292300 121.1869320
 143.5894680  24.1979320 106.7053850 143.0404780  24.6448620 107.3496590
 144.2113940  23.6928570 107.2291520 147.6429620  25.5521420 122.6376110
 148.3839090  25.8897180 122.1343570 146.8802300  25.7213480 122.0845880
 135.4791410  20.5574690 123.4415640 135.5196750  20.2588560 124.3500870
 136.3336910  20.9582300 123.2823160 139.2569800  23.1570240 108.6019150
 139.6786220  22.9910110 109.4450540 139.3820640  22.3470470 108.1074290
 137.4197220  19.1366790 121.4090130 136.8893680  18.6457740 120.7813470
 138.0885290  19.5650990 120.8748060 141.7697440  22.1807850 105.8496250
 142.2903100  21.4656870 105.4837400 142.4165840  22.8193720 106.1496760
 146.3175280  23.6036250 121.1731320 146.7316300  23.7581330 122.0221740
 145.3826280  23.7291470 121.3357100 146.7897450  20.9432410 123.1770470
 147.3718220  20.1884730 123.0890950 146.9659220  21.4739850 122.4001950
 137.9069520  16.1029160 121.4887420 137.8126390  15.4849910 120.7638290
 137.3266910  16.8295450 121.2617330 140.6730960  14.6602400 118.5214810
 140.2248260  14.6826660 117.6760360 140.0396160  14.2621420 119.1185110
 141.0790510  23.5556730 119.1427250 141.4978620  24.3989460 118.9703490
 140.1599140  23.6928770 118.9134030 143.4154410  21.2872910 120.5265090
 143.5350620  20.6914050 121.2659930 144.2748410  21.3242600 120.1066390
 145.7542310  21.8410100 119.1027600 145.2277530  22.3652720 118.4992740
 146.0973650  22.4737490 119.7337330 138.1528700  19.2303470 105.5477310
 137.9517760  18.3670830 105.9090650 137.9820750  19.1436830 104.6098910
 138.9297930  29.8609740 120.2584980 138.3919020  30.5855800 119.9393680
 139.1831890  29.3840080 119.4682320 140.1823180  17.8294260 121.7840910
 140.7722870  17.5210110 122.4718730 139.3643420  17.3574010 121.9400810
 145.0016610  17.4460070 122.0173930 144.3132130  16.7841610 121.9523920
 145.7222630  16.9998340 122.4622390 145.6317010  14.0411700 108.0764190
 145.9119300  13.1979600 108.4323610 144.8582740  14.2734810 108.5902940
 136.9511500  16.3304090 105.5355190 137.2537400  16.3371520 104.6274340
 137.6906090  15.9801950 106.0322850 141.7860140  31.0960950 120.5171630
 141.7118840  31.9996090 120.8244000 140.8838980  30.7772850 120.4893700
 140.1696430  15.2738710 106.5211390 139.8218430  14.5962700 105.9413840
 140.3709200  14.8128220 107.3354780 142.3345470  30.2619460 108.1397990
 143.2296260  30.6004430 108.1616750 142.3663100  29.5398870 107.5122270
 135.9741630  25.6346510 106.3684990 136.4116500  26.1776180 107.0242570
 136.4589360  24.8093460 106.3781330 133.1887430  28.4235540 113.8205250
 133.5190440  27.5556600 113.5883890 133.6178430  28.6294060 114.6510210
 137.7849350  26.7544550 111.4807220 137.4844890  26.6309520 112.3811130
 137.6786840  25.8953140 111.0722950 133.6777640  29.2906130 116.5586880
 133.2408630  29.4706930 117.3911030 134.2455320  30.0480750 116.4168600
 149.3139820  28.7923130 120.8464190 148.7141810  28.8515690 120.1028110
 149.4433720  27.8528110 120.9761040 133.5102070  21.8026360 112.9175760
 132.8550910  21.5338000 112.2735460 134.3480020  21.6930840 112.4677740
 147.9991460  25.5175110 118.9440350 147.1851300  25.9472270 119.2066140
 148.4065660  26.1293520 118.3309400 150.0616900  23.5722800 105.8440620
 150.3365740  24.4801680 105.7159840 149.8727640  23.5085330 106.7802610
 146.4592510  16.5967650 107.1394250 146.8777390  16.4098630 106.2990910
 146.1528570  15.7446700 107.4497180 149.9582240  21.5091790 110.8370050
 149.5825840  20.7419720 110.4051340 149.2285360  21.8914490 111.3244980
 134.5478000  22.1878930 117.4579100 134.9151040  22.1006330 118.3375120
 133.9788820  21.4245480 117.3585960 149.3481860  20.6563310 120.4709570
 149.1167950  20.4276060 119.5707520 149.6086410  21.5762860 120.4254460
 134.0994000  19.0988020 121.3637520 133.2050050  19.0654780 121.7031230
 134.6391550  19.2974810 122.1288770 147.7869930  15.8819740 123.2489270
 148.6640110  15.8903140 123.6323270 147.7990770  15.1450580 122.6381620
 132.7240150  19.0125290 108.8601090 131.8204230  19.2755490 108.6852750
 133.2080770  19.2836460 108.0801050 149.2333200  19.7349280 114.1377290
 149.7570680  19.2411930 113.5067460 149.8192620  19.8699640 114.8824860
 149.4122920  19.8189150 117.6596840 148.4625630  19.7852690 117.7741830
 149.5935930  20.7289260 117.4246610 135.2667360  18.0690830 106.7695470
 135.9759060  17.6474050 106.2842750 134.5507300  18.1366060 106.1378820
 134.9141520  14.1230160 105.8098120 135.6369650  14.6639100 106.1279340
 135.1866040  13.8493580 104.9339660 148.7233170  18.9922630 110.0769700
 149.2192290  18.7593500 110.8618580 148.5249240  18.1534470 109.6607340
 134.6033710  13.3736350 115.7120740 135.2509900  12.8233730 115.2715900
 135.0235550  13.6279500 116.5336550 148.4986050  13.5677710 119.0690380
 149.1358270  14.1811850 119.4349570 148.6460940  13.6038370 118.1239610
 148.0567510  30.2693710 112.4708620 148.6526580  29.9478280 111.7943040
 148.3145660  29.7965530 113.2621890 134.3565710  13.5292020 118.4546060
 134.0080530  13.9855840 119.2204240 134.0253410  12.6349150 118.5368490
 135.9630080  26.7011620 122.6199250 135.9199710  26.3304530 123.5013710
 136.0941090  27.6389190 122.7601070 139.6636110  28.2571210 118.2208970
 139.4227470  28.5245770 117.3339490 140.6038750  28.4276940 118.2759830
 141.8690530  14.7203900 121.9765480 141.8079420  15.3125730 122.7260890
 142.8090910  14.6129860 121.8315740 144.5065090  14.3773960 121.6157770
 145.1205500  14.6953250 120.9538850 145.0514650  13.8922550 122.2353630
 135.0286350  13.0568220 121.7296830 135.5769340  12.8756270 120.9662940
 135.0941660  12.2662330 122.2653140 135.8018110  29.6473870 119.7397030
 135.2078430  29.5158570 120.4787070 135.7941950  28.8112010 119.2739130
 145.2473130  12.9406100 117.9427060 144.3732970  13.2741210 117.7399990
 145.1383880  12.4679280 118.7678930 146.1545110  15.1476970 119.3268780
 145.8258470  14.3328730 118.9470510 147.1027410  15.1046780 119.2034470
 148.6079720  30.9189010 116.3006350 148.1482690  31.6704820 115.9264370
 147.9792180  30.1995480 116.2421150 135.4330340  27.0132250 118.6905070
 134.7064400  26.3937540 118.6231020 135.4939490  27.4072860 117.8203150
 139.0375440  29.2277250 115.4754480 139.5540460  28.6164610 114.9502740
 139.6872820  29.7306030 115.9665490 141.7770940  30.1185740 116.3023460
 142.0648750  29.8640040 115.4256470 142.2894160  29.5663100 116.8929030
 142.9947950  13.8575940 116.8819970 142.2119740  14.3321440 117.1616730
 142.7010880  12.9530770 116.7733150 147.5469020  14.5599040 114.9269060
 147.9877110  14.5044140 114.0790660 147.2776610  15.4757050 114.9979240
 149.4107590  14.1914280 112.9377880 149.3495990  13.2475500 112.7908900
 150.1899620  14.2994370 113.4831340 133.7160340  30.3306640 111.9001830
 133.5482380  29.6977320 112.5983720 132.8494850  30.5366040 111.5496020
 134.3388360  14.1623420 109.4033690 135.0967720  14.2752300 108.8297720
 133.8765530  14.9992620 109.3577120 140.8802170  16.2762690 112.3936000
 140.0676680  15.9019580 112.0531880 141.3843810  15.5207770 112.6957190
 145.3827150  12.9405140 113.6319070 145.9856520  13.5125350 114.1067590
 144.6420140  13.5044580 113.4092970 148.5261750  13.3426700 108.9059350
 148.7212380  14.2410150 109.1726780 147.7391620  13.1113780 109.3992300
 135.3223040  29.0239870 109.3451970 134.7970660  29.4047900 108.6413930
 135.2467620  29.6490640 110.0661680 136.7113510  14.6887470 107.9435660
 137.2406270  13.9017270 107.8143610 137.3441830  15.3678660 108.1771190
 138.9051350  14.4262610 110.9981050 138.2754090  13.7249920 111.1651180
 138.3656490  15.1866740 110.7814210 141.8443300  31.0401840 123.6691660
 142.7710610  30.8046110 123.7127620 141.8293730  31.8673840 123.1877690
 150.0788360  30.5827410 110.6665910 150.2540550  29.8965150 110.0226830
 149.3809930  31.1074460 110.2742580 139.0306910  13.7046590 123.4333540
 138.7491180  14.2080190 122.6694360 139.4126610  12.9068340 123.0675670
 137.9216010  30.9722250 108.2201220 138.6534830  30.6881530 107.6725110
 138.1809680  30.7335530 109.1100600 137.0830800  27.0886980 108.2247550
 136.4539680  27.5572080 108.7733380 137.1978630  26.2436200 108.6593740
 145.6322370  13.1200170 124.0114010 145.5187820  13.4394780 124.9065530
 146.4492110  13.5212680 123.7151290 148.4120860  30.2671700 123.4932700
 149.2046180  29.7720930 123.2858660 148.7054010  30.9461840 124.1008310
 144.5380520  21.1392640  94.3748750 144.4574570  20.2247250  94.1040460
 144.1244940  21.6359710  93.6688460 142.6698560  22.9171660  96.2558020
 141.8940660  22.4372100  96.5456590 143.3211490  22.2377310  96.0814180
 136.6864390  23.2291470  97.1333780 135.8549270  22.9740180  97.5330290
 137.2945370  23.3002240  97.8691700 146.6905990  27.3231850  95.0357150
 146.2287520  26.5519090  95.3644320 147.5031540  27.3497920  95.5409600
 136.6665650  27.2631560  97.3291800 136.9693690  26.3729300  97.1502020
 137.4109240  27.8201780  97.1014050 135.0956340  18.1893360  90.9176170
 134.2073040  18.5309330  90.8156050 135.3797530  17.9893680  90.0257000
 133.0589350  20.7899010  96.8015870 133.6305460  20.0221210  96.8019510
 133.0590890  21.0887770  95.8922480 142.9169300  29.6089860  94.6561140
 142.2980740  30.0647360  94.0855580 143.7721080  29.7641320  94.2550840
 142.1107550  25.5928850  96.2628180 142.0415830  24.6518790  96.1017310
 142.8727410  25.6830260  96.8350750 134.3014220  16.1983370  98.5884800
 134.1217060  15.3009120  98.8687560 133.8994300  16.7455240  99.2631750
 143.1412720  18.3999230  96.4897110 143.5177540  17.5271110  96.3770780
 143.0432230  18.7357930  95.5987550 137.2717730  16.7724860  91.9514550
 137.3784480  17.6728590  92.2583310 136.3610090  16.7242830  91.6609200
 146.9236840  15.8949670  93.4225450 147.7446460  15.4046240  93.4650930
 146.9570920  16.4847330  94.1757290 134.9200890  18.6943870  97.1967140
 135.6011000  18.9582240  97.8154540 134.6048940  17.8544740  97.5305150
 139.1125460  19.7411230  96.2839730 139.6203680  20.2392200  96.9244750
 139.6438700  18.9646430  96.1079090 137.3961560  14.3809790 100.5503150
 137.3980000  14.8982180  99.7449050 136.5665870  13.9039970 100.5273080
 143.7832650  24.4929100  92.0493050 143.1649920  24.9578550  91.4855770
 144.2955900  25.1856580  92.4662560 138.6464410  24.0204970  98.7276650
 138.3133790  24.6473890  99.3697720 138.8231090  24.5466850  97.9478320
 147.1598320  17.8350050  96.1952990 146.4553890  18.1234940  96.7756100
 147.5210480  18.6450160  95.8352550 137.0776890  16.0919750  98.5573600
 137.4193700  16.9361800  98.2627470 136.1392700  16.2403490  98.6738940
 137.8583510  25.9885770 100.5425830 138.4757510  26.6636850 100.2610280
 136.9976630  26.3973750 100.4513330 133.1515850  25.1785630  89.4232680
 132.7743830  25.6672730  88.6917580 133.4088920  25.8510910  90.0539210
 148.7761100  27.4525180  98.4580470 148.0924620  28.1224290  98.4497140
 149.3155390  27.6505830  97.6925330 140.7604780  13.5802020  94.8818190
 141.0679760  13.0248910  94.1653690 139.8305480  13.7146480  94.6991180
 146.3119840  29.2969310  97.1725650 146.3247000  28.8931600  96.3047910
 145.7595060  30.0716600  97.0687080 147.6065260  26.0185530  92.2615820
 147.4961590  25.0759860  92.3865240 147.6033510  26.3801170  93.1478580
 145.7105280  24.1999150  98.5008260 146.1274070  23.9859260  97.6661720
 146.4345100  24.4571940  99.0716880 143.1485540  21.6450850  91.6178310
 142.2214820  21.5788230  91.8466780 143.3010360  22.5830980  91.5033550
 143.1354620  17.9167850  88.6145470 142.1958290  18.0781810  88.6997930
 143.4537880  18.6353530  88.0681460 149.6567380  22.5986370  98.5924500
 148.8286010  22.6679460  98.1174630 150.2517860  23.1840680  98.1240330
 147.1782830  23.2071150  92.1213560 146.5595250  22.8690700  91.4739860
 147.1607280  22.5630910  92.8292750 146.6209390  19.3855690  99.5379370
 146.2080570  20.2109400  99.7919360 145.8885340  18.8000730  99.3455730
 138.7542180  22.1715590  94.3998040 138.3499180  21.4592840  93.9043940
 138.8405300  21.8268830  95.2886080 139.2223880  25.8583150  96.5637250
 138.9252170  25.2528620  95.8845030 140.1723700  25.8960460  96.4526610
 137.4670800  18.9458800  98.1797080 138.0185390  19.0554140  97.4050330
 137.9814310  19.3196400  98.8952310 147.3109490  29.4315020 100.2260350
 146.8340050  30.2387210 100.0332960 146.6271280  28.7793350 100.3786560
 138.3142310  25.5964840 103.2145050 137.4170840  25.8204810 103.4618450
 138.3395180  25.7199780 102.2656450 145.3547530  22.4457960  89.1286310
 145.7940810  21.6080390  88.9824130 146.0675950  23.0787360  89.2150450
 137.1413530  22.4678160 101.7902420 137.0021300  23.3400960 102.1589820
 136.2594890  22.1250970 101.6450360 143.4642910  27.3854030  93.0967550
 143.9038820  28.1278360  92.6822940 143.4029800  27.6280600  94.0206510
 138.9393880  28.4099860 103.9987570 138.9109310  28.8142810 103.1316000
 138.7758850  27.4810220 103.8359170 148.9364670  13.7000770  87.4427350
 148.6237330  13.7927600  88.3426420 149.6977140  14.2781800  87.3924780
 135.4546810  21.0660570  91.9004690 135.3344410  21.7922660  91.2885960
 135.1447700  20.2963480  91.4232600 133.0932180  24.2375710  97.7073330
 133.1712600  24.3724480  96.7629050 133.7073860  23.5291600  97.9001450
 134.3379810  25.9375900  94.1179510 133.9307890  26.0790490  93.2633110
 135.2292820  25.6536060  93.9150720 150.2941950  26.3839810 102.4551750
 150.4205010  26.1451690 101.5368930 150.3363330  25.5524350 102.9273830
 144.1558690  30.0867810 101.0246560 144.6703360  29.9975820 101.8268990
 143.3127770  30.4327510 101.3174470 146.1313090  30.3723150  90.4530560
 145.9714230  30.0826090  91.3512390 145.9659800  29.5963280  89.9175790
 138.6101470  30.1521680  92.2302180 138.4343950  29.2357220  92.0169980
 137.7557210  30.5108970  92.4699980 145.8339220  27.8810710  89.0128560
 145.1404380  27.8788000  88.3530840 146.5762080  27.4570030  88.5822730
 145.3989150  29.5073420  93.0877050 145.8546100  28.7262800  93.4015670
 145.7381670  30.2180240  93.6318230 150.1465960  18.4372270 103.4201490
 149.5310230  18.9451940 102.8916950 149.8262380  17.5370600 103.3627430
 133.1491700  25.2789880 100.2467790 133.3122740  24.8095240  99.4287160
 133.6144150  24.7713440 100.9116630 137.9210470  14.4095640  95.2828360
 137.4778620  15.1905180  94.9512880 138.4795460  14.7325530  95.9899300
 142.2080280  17.2764160 100.8863680 141.7459650  17.4847180 101.6983620
 141.8058390  16.4623510 100.5834350 147.2084790  18.4973110 102.0160340
 146.3578380  18.1978860 102.3369410 147.0486580  18.7415120 101.1044160
 144.3034500  19.9974860 104.1159130 144.6287910  19.1638610 103.7761360
 145.0914830  20.5203380 104.2637460 141.0369290  14.0306340  90.1634190
 140.4123470  14.0266210  90.8887500 140.9499410  13.1637300  89.7670160
 139.9586370  14.9542970  97.1417960 140.2558700  15.8605800  97.0609980
 140.5071930  14.4661750  96.5277530 137.7124690  19.5329210  93.0109610
 137.4865610  19.3166380  93.9156230 136.9317220  19.9657670  92.6655580
 144.9422450  19.5392580  91.6100260 144.3431340  20.2628380  91.4263880
 145.4902060  19.4769360  90.8276710 140.1523900  20.4314790 103.6769880
 140.0567500  19.4909520 103.5270280 140.9955880  20.6529860 103.2817950
 143.5487320  18.1756120  93.6403540 143.9416890  18.4928320  92.8272230
 143.9104170  17.2968000  93.7548060 135.2834440  16.8428460 101.8303660
 134.8897830  17.6903670 102.0376440 134.5952840  16.2054830 102.0212300
 141.8579490  16.9263430 104.9000400 141.1677810  16.7335630 105.5346490
 142.6011790  17.2098070 105.4324700 132.5851490  14.7656920  95.8633740
 132.2964540  15.3359780  96.5758720 133.3297250  14.2861370  96.2264970
 132.7721720  18.7077040  87.0736460 132.6896390  19.6507800  87.2151450
 132.4204780  18.5651950  86.1948810 144.1342460  20.7661870  97.7354320
 143.4023580  21.2748680  98.0844420 143.7366800  19.9491850  97.4343100
 140.5719850  17.4416070  96.1406810 140.5755910  17.0006020  95.2911350
 141.4670970  17.7633400  96.2478630 136.4222230  17.3242560  95.1001020
 136.0822280  17.8017790  95.8568070 135.6599550  16.8707680  94.7402120
 140.6340000  18.4428150  89.1313570 140.7552820  18.4014630  90.0799390
 140.2488510  19.3052300  88.9760300 144.5968370  16.2195550  97.1477260
 144.6141110  16.6704200  97.9919110 144.3483950  15.3201190  97.3610700
 139.6461500  20.7529290  88.5296870 139.0778400  20.3047540  87.9032780
 140.3550500  21.1122070  87.9962020 148.0239120  13.6327730 102.9863640
 148.3484890  12.9017390 103.5121620 148.0595630  13.3141370 102.0844630
 134.7230680  24.6541310 102.4063600 134.3385470  24.0134980 103.0046560
 135.0342870  25.3577430 102.9758330 140.8727820  21.5017850  97.8872220
 141.2397950  21.0276420  98.6333560 140.6832880  22.3759420  98.2280560
 133.7368310  16.2461540  94.0165690 133.4515230  15.8817210  94.8544310
 133.6747170  15.5142000  93.4028830 138.6627190  20.5426490 100.2056430
 138.3584260  21.4218470 100.4306790 139.6173650  20.6026280 100.2413870
 137.1908980  24.7487480  90.8023280 136.4171240  24.2085100  90.6422000
 137.9203610  24.2294090  90.4641040 147.9496960  23.7452840  96.5949670
 148.6696080  24.2408130  96.2045780 147.7478780  23.0670730  95.9503540
 143.4106900  15.1390800  90.7379060 142.5971510  14.6403970  90.6624370
 143.2168850  15.9789050  90.3215410 143.3315760  23.8161900 102.4818670
 143.2653070  22.8957570 102.2276260 142.7020900  23.9137340 103.1963310
 146.1255290  19.5110450  89.0341220 147.0134910  19.8227680  88.8592560
 146.0960380  18.6382700  88.6421800 137.2346380  24.4167860  94.4402090
 137.7525050  23.6136120  94.3858980 136.7830400  24.3547000  95.2818920
 142.1215880  25.6834140  89.7129390 142.4631580  26.4276370  89.2172710
 141.2928590  25.9965260  90.0754220 134.7190920  21.3829230 101.3527790
 134.3605860  22.0483080 101.9401130 134.4245480  20.5512780 101.7240410
 137.9204040  21.8413470 104.2367340 137.6204180  21.9870650 103.3395160
 138.6915280  21.2818760 104.1440730 143.2632490  26.6382470 102.2322470
 143.2777030  25.7063430 102.0141380 142.5557590  26.7242230 102.8712240
 148.3969560  20.8222290  88.5021080 148.3133280  21.2536510  87.6517520
 149.1163750  21.2820640  88.9347900 149.4743700  23.2789810 101.5791050
 148.7491890  23.8718590 101.3820440 150.0019160  23.2713350 100.7804420
 149.4256810  27.6764550  91.2303210 148.7832970  27.0220170  91.5046930
 149.0387470  28.0819640  90.4543880 145.0043290  25.0049980  95.0774900
 145.3567110  24.4078110  94.4176270 144.1205620  24.6794210  95.2483150
 141.0906570  25.7647670  92.4845310 141.7777700  26.3116880  92.8652900
 140.3038990  26.3088400  92.5194920 133.2298970  21.3820490  87.9762390
 134.0993820  21.6645290  88.2598310 132.7389290  22.1956360  87.8611200
 140.3933780  22.7693700  92.0970670 140.8496560  23.5798950  92.3230860
 140.0421990  22.4516840  92.9289160 142.6966390  28.2800040  99.3262970
 143.3408610  28.4859420 100.0036390 143.0595830  27.5188440  98.8733820
 136.2945560  13.1131350  92.5693190 136.1660190  13.1049250  93.5178110
 135.4707580  13.4514440  92.2184200 143.9698470  26.2832390  98.0440420
 144.6120700  25.5825550  98.1572590 144.4947820  27.0630830  97.8637310
 147.8154190  26.5681010  87.7679560 147.5891770  25.8511450  88.3604200
 147.4250390  26.3193450  86.9301310 145.7436090  27.0827290 101.2476480
 146.0792330  27.6693980 101.9254400 144.8236430  26.9520000 101.4774270
 133.5970220  30.5947870  88.5424020 133.9567860  31.1937210  87.8881290
 133.4562560  31.1407760  89.3159050 133.2939490  14.8722470 102.0299890
 132.5798010  15.0719390 102.6352500 133.7134530  14.0962040 102.4014690
 147.3970440  24.4852950  89.4293720 147.1092140  24.9465640  90.2171600
 148.1922610  24.0250720  89.6977940 133.5812080  28.8602730 103.0166420
 133.6903200  27.9197470 102.8761810 132.9292640  29.1257480 102.3680150
 141.5724670  27.1318620 104.4164540 141.2521540  26.4127860 104.9610230
 140.8983030  27.8073690 104.4900600 139.6138840  27.9779070  89.3597690
 139.6048940  28.7108760  88.7442200 138.6937200  27.7310650  89.4524650
 135.2145480  23.1993960  90.1044450 134.6073430  23.9392860  90.1139750
 135.6894830  23.2893320  89.2782650 144.7878270  17.3644780  99.7801340
 145.1559090  16.5439990 100.1080910 143.9276470  17.4246670 100.1956990
 148.1540300  16.3201720  90.5888900 147.5253460  16.4247390  89.8747130
 147.6592220  16.5398500  91.3782780 142.5998440  28.0407310  88.0222880
 142.7010420  27.8371300  87.0924860 141.7000180  27.7865590  88.2270660
 140.1224330  18.5987670  92.0046780 139.4140480  19.0674010  92.4460390
 140.4068810  17.9409680  92.6391970 141.7480260  20.0184370 100.0039310
 142.2465510  20.4930190 100.6691160 141.8903210  19.0947890 100.2109340
 144.1539760  15.3238330  93.4442570 144.0307540  15.3424460  92.4952080
 145.1024320  15.3717270  93.5640970 141.2416550  30.5593630  92.7170550
 141.4958050  30.5215020  91.7949920 140.2929030  30.4326960  92.7098800
 138.3259350  16.9072750  89.3797490 139.1749880  17.3442900  89.3137680
 137.9590620  17.2193010  90.2069550 148.9547120  16.2352330 100.8467700
 148.4520720  16.9757730 101.1861510 149.7703780  16.6236330 100.5304490
 147.2469130  21.4785510  94.2929060 146.3059270  21.4935740  94.4676750
 147.5613200  20.6921470  94.7389360 137.2250770  23.1605110  87.8533020
 137.9914040  23.0486470  88.4158450 137.3025460  22.4643080  87.2009790
 135.9197530  20.5930180  88.5365910 136.0001120  19.6457690  88.6483310
 136.8117280  20.9237060  88.6426570 149.2494710  28.6494360  95.9683320
 149.3742130  29.4725530  96.4407130 150.1160270  28.4385090  95.6207470
 136.7212240  30.7425570  95.6400450 137.4574720  30.1941030  95.9109020
 137.1053160  31.6081580  95.5006440 133.6057720  26.8099140  91.5141960
 132.6797500  27.0520280  91.5047370 134.0714150  27.6373400  91.3926710
 135.7270520  29.9271640 104.8286030 136.5283250  30.2483690 105.2421430
 135.2122340  29.5667220 105.5505940 139.8314550  29.9155880  87.4626020
 140.6243160  30.2044710  87.0107810 139.3118900  29.4848050  86.7838500
 144.5635150  26.0351510 104.7761440 143.9573310  26.0583110 104.0357190
 144.2589260  25.3034550 105.3128690 145.9935520  29.7631800 103.3870850
 146.9457270  29.6789820 103.3371090 145.8463740  30.4273510 104.0604640
 148.8844720  29.1426010  88.8862760 148.5986230  28.7291150  88.0716940
 148.6864270  30.0713720  88.7663280 133.4468330  22.4145100 103.7722080
 133.9507350  21.8352380 104.3438310 132.7075750  22.6985330 104.3098450
 140.3491950  25.1359290  87.3268370 140.2442590  24.5211640  88.0529750
 140.1816170  24.6125180  86.5431380 140.5006270  23.8216090 103.3057600
 139.7351940  24.3901090 103.2212270 140.6822230  23.5292300 102.4125830
 143.5894680  24.1979320  87.9310360 143.0404780  24.6448620  88.5753100
 144.2113940  23.6928570  88.4548030 147.6429620  25.5521420 103.8632620
 148.3839090  25.8897180 103.3600080 146.8802300  25.7213480 103.3102390
 135.4791410  20.5574690 104.6672150 135.5196750  20.2588560 105.5757380
 136.3336910  20.9582300 104.5079670 139.2569800  23.1570240  89.8275660
 139.6786220  22.9910110  90.6707050 139.3820640  22.3470470  89.3330800
 137.4197220  19.1366790 102.6346640 136.8893680  18.6457740 102.0069980
 138.0885290  19.5650990 102.1004570 141.7697440  22.1807850  87.0752760
 142.2903100  21.4656870  86.7093910 142.4165840  22.8193720  87.3753270
 146.3175280  23.6036250 102.3987830 146.7316300  23.7581330 103.2478250
 145.3826280  23.7291470 102.5613610 146.7897450  20.9432410 104.4026980
 147.3718220  20.1884730 104.3147460 146.9659220  21.4739850 103.6258460
 137.9069520  16.1029160 102.7143930 137.8126390  15.4849910 101.9894800
 137.3266910  16.8295450 102.4873840 140.6730960  14.6602400  99.7471320
 140.2248260  14.6826660  98.9016870 140.0396160  14.2621420 100.3441620
 141.0790510  23.5556730 100.3683760 141.4978620  24.3989460 100.1960000
 140.1599140  23.6928770 100.1390540 143.4154410  21.2872910 101.7521600
 143.5350620  20.6914050 102.4916440 144.2748410  21.3242600 101.3322900
 145.7542310  21.8410100 100.3284110 145.2277530  22.3652720  99.7249250
 146.0973650  22.4737490 100.9593840 138.1528700  19.2303470  86.7733820
 137.9517760  18.3670830  87.1347160 137.9820750  19.1436830  85.8355420
 138.9297930  29.8609740 101.4841490 138.3919020  30.5855800 101.1650190
 139.1831890  29.3840080 100.6938830 140.1823180  17.8294260 103.0097420
 140.7722870  17.5210110 103.6975240 139.3643420  17.3574010 103.1657320
 145.0016610  17.4460070 103.2430440 144.3132130  16.7841610 103.1780430
 145.7222630  16.9998340 103.6878900 145.6317010  14.0411700  89.3020700
 145.9119300  13.1979600  89.6580120 144.8582740  14.2734810  89.8159450
 136.9511500  16.3304090  86.7611700 137.2537400  16.3371520  85.8530850
 137.6906090  15.9801950  87.2579360 141.7860140  31.0960950 101.7428140
 141.7118840  31.9996090 102.0500510 140.8838980  30.7772850 101.7150210
 140.1696430  15.2738710  87.7467900 139.8218430  14.5962700  87.1670350
 140.3709200  14.8128220  88.5611290 142.3345470  30.2619460  89.3654500
 143.2296260  30.6004430  89.3873260 142.3663100  29.5398870  88.7378780
 135.9741630  25.6346510  87.5941500 136.4116500  26.1776180  88.2499080
 136.4589360  24.8093460  87.6037840 133.1887430  28.4235540  95.0461760
 133.5190440  27.5556600  94.8140400 133.6178430  28.6294060  95.8766720
 137.7849350  26.7544550  92.7063730 137.4844890  26.6309520  93.6067640
 137.6786840  25.8953140  92.2979460 133.6777640  29.2906130  97.7843390
 133.2408630  29.4706930  98.6167540 134.2455320  30.0480750  97.6425110
 149.3139820  28.7923130 102.0720700 148.7141810  28.8515690 101.3284620
 149.4433720  27.8528110 102.2017550 133.5102070  21.8026360  94.1432270
 132.8550910  21.5338000  93.4991970 134.3480020  21.6930840  93.6934250
 147.9991460  25.5175110 100.1696860 147.1851300  25.9472270 100.4322650
 148.4065660  26.1293520  99.5565910 150.0616900  23.5722800  87.0697130
 150.3365740  24.4801680  86.9416350 149.8727640  23.5085330  88.0059120
 146.4592510  16.5967650  88.3650760 146.8777390  16.4098630  87.5247420
 146.1528570  15.7446700  88.6753690 149.9582240  21.5091790  92.0626560
 149.5825840  20.7419720  91.6307850 149.2285360  21.8914490  92.5501490
 134.5478000  22.1878930  98.6835610 134.9151040  22.1006330  99.5631630
 133.9788820  21.4245480  98.5842470 149.3481860  20.6563310 101.6966080
 149.1167950  20.4276060 100.7964030 149.6086410  21.5762860 101.6510970
 134.0994000  19.0988020 102.5894030 133.2050050  19.0654780 102.9287740
 134.6391550  19.2974810 103.3545280 147.7869930  15.8819740 104.4745780
 148.6640110  15.8903140 104.8579780 147.7990770  15.1450580 103.8638130
 132.7240150  19.0125290  90.0857600 131.8204230  19.2755490  89.9109260
 133.2080770  19.2836460  89.3057560 149.2333200  19.7349280  95.3633800
 149.7570680  19.2411930  94.7323970 149.8192620  19.8699640  96.1081370
 149.4122920  19.8189150  98.8853350 148.4625630  19.7852690  98.9998340
 149.5935930  20.7289260  98.6503120 135.2667360  18.0690830  87.9951980
 135.9759060  17.6474050  87.5099260 134.5507300  18.1366060  87.3635330
 134.9141520  14.1230160  87.0354630 135.6369650  14.6639100  87.3535850
 135.1866040  13.8493580  86.1596170 148.7233170  18.9922630  91.3026210
 149.2192290  18.7593500  92.0875090 148.5249240  18.1534470  90.8863850
 134.6033710  13.3736350  96.9377250 135.2509900  12.8233730  96.4972410
 135.0235550  13.6279500  97.7593060 148.4986050  13.5677710 100.2946890
 149.1358270  14.1811850 100.6606080 148.6460940  13.6038370  99.3496120
 148.0567510  30.2693710  93.6965130 148.6526580  29.9478280  93.0199550
 148.3145660  29.7965530  94.4878400 134.3565710  13.5292020  99.6802570
 134.0080530  13.9855840 100.4460750 134.0253410  12.6349150  99.7625000
 135.9630080  26.7011620 103.8455760 135.9199710  26.3304530 104.7270220
 136.0941090  27.6389190 103.9857580 139.6636110  28.2571210  99.4465480
 139.4227470  28.5245770  98.5596000 140.6038750  28.4276940  99.5016340
 141.8690530  14.7203900 103.2021990 141.8079420  15.3125730 103.9517400
 142.8090910  14.6129860 103.0572250 144.5065090  14.3773960 102.8414280
 145.1205500  14.6953250 102.1795360 145.0514650  13.8922550 103.4610140
 135.0286350  13.0568220 102.9553340 135.5769340  12.8756270 102.1919450
 135.0941660  12.2662330 103.4909650 135.8018110  29.6473870 100.9653540
 135.2078430  29.5158570 101.7043580 135.7941950  28.8112010 100.4995640
 145.2473130  12.9406100  99.1683570 144.3732970  13.2741210  98.9656500
 145.1383880  12.4679280  99.9935440 146.1545110  15.1476970 100.5525290
 145.8258470  14.3328730 100.1727020 147.1027410  15.1046780 100.4290980
 148.6079720  30.9189010  97.5262860 148.1482690  31.6704820  97.1520880
 147.9792180  30.1995480  97.4677660 135.4330340  27.0132250  99.9161580
 134.7064400  26.3937540  99.8487530 135.4939490  27.4072860  99.0459660
 139.0375440  29.2277250  96.7010990 139.5540460  28.6164610  96.1759250
 139.6872820  29.7306030  97.1922000 141.7770940  30.1185740  97.5279970
 142.0648750  29.8640040  96.6512980 142.2894160  29.5663100  98.1185540
 142.9947950  13.8575940  98.1076480 142.2119740  14.3321440  98.3873240
 142.7010880  12.9530770  97.9989660 147.5469020  14.5599040  96.1525570
 147.9877110  14.5044140  95.3047170 147.2776610  15.4757050  96.2235750
 149.4107590  14.1914280  94.1634390 149.3495990  13.2475500  94.0165410
 150.1899620  14.2994370  94.7087850 133.7160340  30.3306640  93.1258340
 133.5482380  29.6977320  93.8240230 132.8494850  30.5366040  92.7752530
 134.3388360  14.1623420  90.6290200 135.0967720  14.2752300  90.0554230
 133.8765530  14.9992620  90.5833630 140.8802170  16.2762690  93.6192510
 140.0676680  15.9019580  93.2788390 141.3843810  15.5207770  93.9213700
 145.3827150  12.9405140  94.8575580 145.9856520  13.5125350  95.3324100
 144.6420140  13.5044580  94.6349480 148.5261750  13.3426700  90.1315860
 148.7212380  14.2410150  90.3983290 147.7391620  13.1113780  90.6248810
 135.3223040  29.0239870  90.5708480 134.7970660  29.4047900  89.8670440
 135.2467620  29.6490640  91.2918190 136.7113510  14.6887470  89.1692170
 137.2406270  13.9017270  89.0400120 137.3441830  15.3678660  89.4027700
 138.9051350  14.4262610  92.2237560 138.2754090  13.7249920  92.3907690
 138.3656490  15.1866740  92.0070720 141.8443300  31.0401840 104.8948170
 142.7710610  30.8046110 104.9384130 141.8293730  31.8673840 104.4134200
 150.0788360  30.5827410  91.8922420 150.2540550  29.8965150  91.2483340
 149.3809930  31.1074460  91.4999090 139.0306910  13.7046590 104.6590050
 138.7491180  14.2080190 103.8950870 139.4126610  12.9068340 104.2932180
 137.9216010  30.9722250  89.4457730 138.6534830  30.6881530  88.8981620
 138.1809680  30.7335530  90.3357110 137.0830800  27.0886980  89.4504060
 136.4539680  27.5572080  89.9989890 137.1978630  26.2436200  89.8850250
 145.6322370  13.1200170 105.2370520 145.5187820  13.4394780 106.1322040
 146.4492110  13.5212680 104.9407800 148.4120860  30.2671700 104.7189210
 149.2046180  29.7720930 104.5115170 148.7054010  30.9461840 105.3264820
 144.5380520  21.1392640  75.6005260 144.4574570  20.2247250  75.3296970
 144.1244940  21.6359710  74.8944970 142.6698560  22.9171660  77.4814530
 141.8940660  22.4372100  77.7713100 143.3211490  22.2377310  77.3070690
 136.6864390  23.2291470  78.3590290 135.8549270  22.9740180  78.7586800
 137.2945370  23.3002240  79.0948210 146.6905990  27.3231850  76.2613660
 146.2287520  26.5519090  76.5900830 147.5031540  27.3497920  76.7666110
 136.6665650  27.2631560  78.5548310 136.9693690  26.3729300  78.3758530
 137.4109240  27.8201780  78.3270560 135.0956340  18.1893360  72.1432680
 134.2073040  18.5309330  72.0412560 135.3797530  17.9893680  71.2513510
 133.0589350  20.7899010  78.0272380 133.6305460  20.0221210  78.0276020
 133.0590890  21.0887770  77.1178990 142.9169300  29.6089860  75.8817650
 142.2980740  30.0647360  75.3112090 143.7721080  29.7641320  75.4807350
 142.1107550  25.5928850  77.4884690 142.0415830  24.6518790  77.3273820
 142.8727410  25.6830260  78.0607260 134.3014220  16.1983370  79.8141310
 134.1217060  15.3009120  80.0944070 133.8994300  16.7455240  80.4888260
 143.1412720  18.3999230  77.7153620 143.5177540  17.5271110  77.6027290
 143.0432230  18.7357930  76.8244060 137.2717730  16.7724860  73.1771060
 137.3784480  17.6728590  73.4839820 136.3610090  16.7242830  72.8865710
 146.9236840  15.8949670  74.6481960 147.7446460  15.4046240  74.6907440
 146.9570920  16.4847330  75.4013800 134.9200890  18.6943870  78.4223650
 135.6011000  18.9582240  79.0411050 134.6048940  17.8544740  78.7561660
 139.1125460  19.7411230  77.5096240 139.6203680  20.2392200  78.1501260
 139.6438700  18.9646430  77.3335600 137.3961560  14.3809790  81.7759660
 137.3980000  14.8982180  80.9705560 136.5665870  13.9039970  81.7529590
 143.7832650  24.4929100  73.2749560 143.1649920  24.9578550  72.7112280
 144.2955900  25.1856580  73.6919070 138.6464410  24.0204970  79.9533160
 138.3133790  24.6473890  80.5954230 138.8231090  24.5466850  79.1734830
 147.1598320  17.8350050  77.4209500 146.4553890  18.1234940  78.0012610
 147.5210480  18.6450160  77.0609060 137.0776890  16.0919750  79.7830110
 137.4193700  16.9361800  79.4883980 136.1392700  16.2403490  79.8995450
 137.8583510  25.9885770  81.7682340 138.4757510  26.6636850  81.4866790
 136.9976630  26.3973750  81.6769840 133.1515850  25.1785630  70.6489190
 132.7743830  25.6672730  69.9174090 133.4088920  25.8510910  71.2795720
 148.7761100  27.4525180  79.6836980 148.0924620  28.1224290  79.6753650
 149.3155390  27.6505830  78.9181840 140.7604780  13.5802020  76.1074700
 141.0679760  13.0248910  75.3910200 139.8305480  13.7146480  75.9247690
 146.3119840  29.2969310  78.3982160 146.3247000  28.8931600  77.5304420
 145.7595060  30.0716600  78.2943590 147.6065260  26.0185530  73.4872330
 147.4961590  25.0759860  73.6121750 147.6033510  26.3801170  74.3735090
 145.7105280  24.1999150  79.7264770 146.1274070  23.9859260  78.8918230
 146.4345100  24.4571940  80.2973390 143.1485540  21.6450850  72.8434820
 142.2214820  21.5788230  73.0723290 143.3010360  22.5830980  72.7290060
 143.1354620  17.9167850  69.8401980 142.1958290  18.0781810  69.9254440
 143.4537880  18.6353530  69.2937970 149.6567380  22.5986370  79.8181010
 148.8286010  22.6679460  79.3431140 150.2517860  23.1840680  79.3496840
 147.1782830  23.2071150  73.3470070 146.5595250  22.8690700  72.6996370
 147.1607280  22.5630910  74.0549260 146.6209390  19.3855690  80.7635880
 146.2080570  20.2109400  81.0175870 145.8885340  18.8000730  80.5712240
 138.7542180  22.1715590  75.6254550 138.3499180  21.4592840  75.1300450
 138.8405300  21.8268830  76.5142590 139.2223880  25.8583150  77.7893760
 138.9252170  25.2528620  77.1101540 140.1723700  25.8960460  77.6783120
 137.4670800  18.9458800  79.4053590 138.0185390  19.0554140  78.6306840
 137.9814310  19.3196400  80.1208820 147.3109490  29.4315020  81.4516860
 146.8340050  30.2387210  81.2589470 146.6271280  28.7793350  81.6043070
 138.3142310  25.5964840  84.4401560 137.4170840  25.8204810  84.6874960
 138.3395180  25.7199780  83.4912960 145.3547530  22.4457960  70.3542820
 145.7940810  21.6080390  70.2080640 146.0675950  23.0787360  70.4406960
 137.1413530  22.4678160  83.0158930 137.0021300  23.3400960  83.3846330
 136.2594890  22.1250970  82.8706870 143.4642910  27.3854030  74.3224060
 143.9038820  28.1278360  73.9079450 143.4029800  27.6280600  75.2463020
 138.9393880  28.4099860  85.2244080 138.9109310  28.8142810  84.3572510
 138.7758850  27.4810220  85.0615680 148.9364670  13.7000770  68.6683860
 148.6237330  13.7927600  69.5682930 149.6977140  14.2781800  68.6181290
 135.4546810  21.0660570  73.1261200 135.3344410  21.7922660  72.5142470
 135.1447700  20.2963480  72.6489110 133.0932180  24.2375710  78.9329840
 133.1712600  24.3724480  77.9885560 133.7073860  23.5291600  79.1257960
 134.3379810  25.9375900  75.3436020 133.9307890  26.0790490  74.4889620
 135.2292820  25.6536060  75.1407230 150.2941950  26.3839810  83.6808260
 150.4205010  26.1451690  82.7625440 150.3363330  25.5524350  84.1530340
 144.1558690  30.0867810  82.2503070 144.6703360  29.9975820  83.0525500
 143.3127770  30.4327510  82.5430980 146.1313090  30.3723150  71.6787070
 145.9714230  30.0826090  72.5768900 145.9659800  29.5963280  71.1432300
 138.6101470  30.1521680  73.4558690 138.4343950  29.2357220  73.2426490
 137.7557210  30.5108970  73.6956490 145.8339220  27.8810710  70.2385070
 145.1404380  27.8788000  69.5787350 146.5762080  27.4570030  69.8079240
 145.3989150  29.5073420  74.3133560 145.8546100  28.7262800  74.6272180
 145.7381670  30.2180240  74.8574740 150.1465960  18.4372270  84.6458000
 149.5310230  18.9451940  84.1173460 149.8262380  17.5370600  84.5883940
 133.1491700  25.2789880  81.4724300 133.3122740  24.8095240  80.6543670
 133.6144150  24.7713440  82.1373140 137.9210470  14.4095640  76.5084870
 137.4778620  15.1905180  76.1769390 138.4795460  14.7325530  77.2155810
 142.2080280  17.2764160  82.1120190 141.7459650  17.4847180  82.9240130
 141.8058390  16.4623510  81.8090860 147.2084790  18.4973110  83.2416850
 146.3578380  18.1978860  83.5625920 147.0486580  18.7415120  82.3300670
 144.3034500  19.9974860  85.3415640 144.6287910  19.1638610  85.0017870
 145.0914830  20.5203380  85.4893970 141.0369290  14.0306340  71.3890700
 140.4123470  14.0266210  72.1144010 140.9499410  13.1637300  70.9926670
 139.9586370  14.9542970  78.3674470 140.2558700  15.8605800  78.2866490
 140.5071930  14.4661750  77.7534040 137.7124690  19.5329210  74.2366120
 137.4865610  19.3166380  75.1412740 136.9317220  19.9657670  73.8912090
 144.9422450  19.5392580  72.8356770 144.3431340  20.2628380  72.6520390
 145.4902060  19.4769360  72.0533220 140.1523900  20.4314790  84.9026390
 140.0567500  19.4909520  84.7526790 140.9955880  20.6529860  84.5074460
 143.5487320  18.1756120  74.8660050 143.9416890  18.4928320  74.0528740
 143.9104170  17.2968000  74.9804570 135.2834440  16.8428460  83.0560170
 134.8897830  17.6903670  83.2632950 134.5952840  16.2054830  83.2468810
 141.8579490  16.9263430  86.1256910 141.1677810  16.7335630  86.7603000
 142.6011790  17.2098070  86.6581210 132.5851490  14.7656920  77.0890250
 132.2964540  15.3359780  77.8015230 133.3297250  14.2861370  77.4521480
 132.7721720  18.7077040  68.2992970 132.6896390  19.6507800  68.4407960
 132.4204780  18.5651950  67.4205320 144.1342460  20.7661870  78.9610830
 143.4023580  21.2748680  79.3100930 143.7366800  19.9491850  78.6599610
 140.5719850  17.4416070  77.3663320 140.5755910  17.0006020  76.5167860
 141.4670970  17.7633400  77.4735140 136.4222230  17.3242560  76.3257530
 136.0822280  17.8017790  77.0824580 135.6599550  16.8707680  75.9658630
 140.6340000  18.4428150  70.3570080 140.7552820  18.4014630  71.3055900
 140.2488510  19.3052300  70.2016810 144.5968370  16.2195550  78.3733770
 144.6141110  16.6704200  79.2175620 144.3483950  15.3201190  78.5867210
 139.6461500  20.7529290  69.7553380 139.0778400  20.3047540  69.1289290
 140.3550500  21.1122070  69.2218530 148.0239120  13.6327730  84.2120150
 148.3484890  12.9017390  84.7378130 148.0595630  13.3141370  83.3101140
 134.7230680  24.6541310  83.6320110 134.3385470  24.0134980  84.2303070
 135.0342870  25.3577430  84.2014840 140.8727820  21.5017850  79.1128730
 141.2397950  21.0276420  79.8590070 140.6832880  22.3759420  79.4537070
 133.7368310  16.2461540  75.2422200 133.4515230  15.8817210  76.0800820
 133.6747170  15.5142000  74.6285340 138.6627190  20.5426490  81.4312940
 138.3584260  21.4218470  81.6563300 139.6173650  20.6026280  81.4670380
 137.1908980  24.7487480  72.0279790 136.4171240  24.2085100  71.8678510
 137.9203610  24.2294090  71.6897550 147.9496960  23.7452840  77.8206180
 148.6696080  24.2408130  77.4302290 147.7478780  23.0670730  77.1760050
 143.4106900  15.1390800  71.9635570 142.5971510  14.6403970  71.8880880
 143.2168850  15.9789050  71.5471920 143.3315760  23.8161900  83.7075180
 143.2653070  22.8957570  83.4532770 142.7020900  23.9137340  84.4219820
 146.1255290  19.5110450  70.2597730 147.0134910  19.8227680  70.0849070
 146.0960380  18.6382700  69.8678310 137.2346380  24.4167860  75.6658600
 137.7525050  23.6136120  75.6115490 136.7830400  24.3547000  76.5075430
 142.1215880  25.6834140  70.9385900 142.4631580  26.4276370  70.4429220
 141.2928590  25.9965260  71.3010730 134.7190920  21.3829230  82.5784300
 134.3605860  22.0483080  83.1657640 134.4245480  20.5512780  82.9496920
 137.9204040  21.8413470  85.4623850 137.6204180  21.9870650  84.5651670
 138.6915280  21.2818760  85.3697240 143.2632490  26.6382470  83.4578980
 143.2777030  25.7063430  83.2397890 142.5557590  26.7242230  84.0968750
 148.3969560  20.8222290  69.7277590 148.3133280  21.2536510  68.8774030
 149.1163750  21.2820640  70.1604410 149.4743700  23.2789810  82.8047560
 148.7491890  23.8718590  82.6076950 150.0019160  23.2713350  82.0060930
 149.4256810  27.6764550  72.4559720 148.7832970  27.0220170  72.7303440
 149.0387470  28.0819640  71.6800390 145.0043290  25.0049980  76.3031410
 145.3567110  24.4078110  75.6432780 144.1205620  24.6794210  76.4739660
 141.0906570  25.7647670  73.7101820 141.7777700  26.3116880  74.0909410
 140.3038990  26.3088400  73.7451430 133.2298970  21.3820490  69.2018900
 134.0993820  21.6645290  69.4854820 132.7389290  22.1956360  69.0867710
 140.3933780  22.7693700  73.3227180 140.8496560  23.5798950  73.5487370
 140.0421990  22.4516840  74.1545670 142.6966390  28.2800040  80.5519480
 143.3408610  28.4859420  81.2292900 143.0595830  27.5188440  80.0990330
 136.2945560  13.1131350  73.7949700 136.1660190  13.1049250  74.7434620
 135.4707580  13.4514440  73.4440710 143.9698470  26.2832390  79.2696930
 144.6120700  25.5825550  79.3829100 144.4947820  27.0630830  79.0893820
 147.8154190  26.5681010  68.9936070 147.5891770  25.8511450  69.5860710
 147.4250390  26.3193450  68.1557820 145.7436090  27.0827290  82.4732990
 146.0792330  27.6693980  83.1510910 144.8236430  26.9520000  82.7030780
 133.5970220  30.5947870  69.7680530 133.9567860  31.1937210  69.1137800
 133.4562560  31.1407760  70.5415560 133.2939490  14.8722470  83.2556400
 132.5798010  15.0719390  83.8609010 133.7134530  14.0962040  83.6271200
 147.3970440  24.4852950  70.6550230 147.1092140  24.9465640  71.4428110
 148.1922610  24.0250720  70.9234450 133.5812080  28.8602730  84.2422930
 133.6903200  27.9197470  84.1018320 132.9292640  29.1257480  83.5936660
 141.5724670  27.1318620  85.6421050 141.2521540  26.4127860  86.1866740
 140.8983030  27.8073690  85.7157110 139.6138840  27.9779070  70.5854200
 139.6048940  28.7108760  69.9698710 138.6937200  27.7310650  70.6781160
 135.2145480  23.1993960  71.3300960 134.6073430  23.9392860  71.3396260
 135.6894830  23.2893320  70.5039160 144.7878270  17.3644780  81.0057850
 145.1559090  16.5439990  81.3337420 143.9276470  17.4246670  81.4213500
 148.1540300  16.3201720  71.8145410 147.5253460  16.4247390  71.1003640
 147.6592220  16.5398500  72.6039290 142.5998440  28.0407310  69.2479390
 142.7010420  27.8371300  68.3181370 141.7000180  27.7865590  69.4527170
 140.1224330  18.5987670  73.2303290 139.4140480  19.0674010  73.6716900
 140.4068810  17.9409680  73.8648480 141.7480260  20.0184370  81.2295820
 142.2465510  20.4930190  81.8947670 141.8903210  19.0947890  81.4365850
 144.1539760  15.3238330  74.6699080 144.0307540  15.3424460  73.7208590
 145.1024320  15.3717270  74.7897480 141.2416550  30.5593630  73.9427060
 141.4958050  30.5215020  73.0206430 140.2929030  30.4326960  73.9355310
 138.3259350  16.9072750  70.6054000 139.1749880  17.3442900  70.5394190
 137.9590620  17.2193010  71.4326060 148.9547120  16.2352330  82.0724210
 148.4520720  16.9757730  82.4118020 149.7703780  16.6236330  81.7561000
 147.2469130  21.4785510  75.5185570 146.3059270  21.4935740  75.6933260
 147.5613200  20.6921470  75.9645870 137.2250770  23.1605110  69.0789530
 137.9914040  23.0486470  69.6414960 137.3025460  22.4643080  68.4266300
 135.9197530  20.5930180  69.7622420 136.0001120  19.6457690  69.8739820
 136.8117280  20.9237060  69.8683080 149.2494710  28.6494360  77.1939830
 149.3742130  29.4725530  77.6663640 150.1160270  28.4385090  76.8463980
 136.7212240  30.7425570  76.8656960 137.4574720  30.1941030  77.1365530
 137.1053160  31.6081580  76.7262950 133.6057720  26.8099140  72.7398470
 132.6797500  27.0520280  72.7303880 134.0714150  27.6373400  72.6183220
 135.7270520  29.9271640  86.0542540 136.5283250  30.2483690  86.4677940
 135.2122340  29.5667220  86.7762450 139.8314550  29.9155880  68.6882530
 140.6243160  30.2044710  68.2364320 139.3118900  29.4848050  68.0095010
 144.5635150  26.0351510  86.0017950 143.9573310  26.0583110  85.2613700
 144.2589260  25.3034550  86.5385200 145.9935520  29.7631800  84.6127360
 146.9457270  29.6789820  84.5627600 145.8463740  30.4273510  85.2861150
 148.8844720  29.1426010  70.1119270 148.5986230  28.7291150  69.2973450
 148.6864270  30.0713720  69.9919790 133.4468330  22.4145100  84.9978590
 133.9507350  21.8352380  85.5694820 132.7075750  22.6985330  85.5354960
 140.3491950  25.1359290  68.5524880 140.2442590  24.5211640  69.2786260
 140.1816170  24.6125180  67.7687890 140.5006270  23.8216090  84.5314110
 139.7351940  24.3901090  84.4468780 140.6822230  23.5292300  83.6382340
 143.5894680  24.1979320  69.1566870 143.0404780  24.6448620  69.8009610
 144.2113940  23.6928570  69.6804540 147.6429620  25.5521420  85.0889130
 148.3839090  25.8897180  84.5856590 146.8802300  25.7213480  84.5358900
 135.4791410  20.5574690  85.8928660 135.5196750  20.2588560  86.8013890
 136.3336910  20.9582300  85.7336180 139.2569800  23.1570240  71.0532170
 139.6786220  22.9910110  71.8963560 139.3820640  22.3470470  70.5587310
 137.4197220  19.1366790  83.8603150 136.8893680  18.6457740  83.2326490
 138.0885290  19.5650990  83.3261080 141.7697440  22.1807850  68.3009270
 142.2903100  21.4656870  67.9350420 142.4165840  22.8193720  68.6009780
 146.3175280  23.6036250  83.6244340 146.7316300  23.7581330  84.4734760
 145.3826280  23.7291470  83.7870120 146.7897450  20.9432410  85.6283490
 147.3718220  20.1884730  85.5403970 146.9659220  21.4739850  84.8514970
 137.9069520  16.1029160  83.9400440 137.8126390  15.4849910  83.2151310
 137.3266910  16.8295450  83.7130350 140.6730960  14.6602400  80.9727830
 140.2248260  14.6826660  80.1273380 140.0396160  14.2621420  81.5698130
 141.0790510  23.5556730  81.5940270 141.4978620  24.3989460  81.4216510
 140.1599140  23.6928770  81.3647050 143.4154410  21.2872910  82.9778110
 143.5350620  20.6914050  83.7172950 144.2748410  21.3242600  82.5579410
 145.7542310  21.8410100  81.5540620 145.2277530  22.3652720  80.9505760
 146.0973650  22.4737490  82.1850350 138.1528700  19.2303470  67.9990330
 137.9517760  18.3670830  68.3603670 137.9820750  19.1436830  67.0611930
 138.9297930  29.8609740  82.7098000 138.3919020  30.5855800  82.3906700
 139.1831890  29.3840080  81.9195340 140.1823180  17.8294260  84.2353930
 140.7722870  17.5210110  84.9231750 139.3643420  17.3574010  84.3913830
 145.0016610  17.4460070  84.4686950 144.3132130  16.7841610  84.4036940
 145.7222630  16.9998340  84.9135410 145.6317010  14.0411700  70.5277210
 145.9119300  13.1979600  70.8836630 144.8582740  14.2734810  71.0415960
 136.9511500  16.3304090  67.9868210 137.2537400  16.3371520  67.0787360
 137.6906090  15.9801950  68.4835870 141.7860140  31.0960950  82.9684650
 141.7118840  31.9996090  83.2757020 140.8838980  30.7772850  82.9406720
 140.1696430  15.2738710  68.9724410 139.8218430  14.5962700  68.3926860
 140.3709200  14.8128220  69.7867800 142.3345470  30.2619460  70.5911010
 143.2296260  30.6004430  70.6129770 142.3663100  29.5398870  69.9635290
 135.9741630  25.6346510  68.8198010 136.4116500  26.1776180  69.4755590
 136.4589360  24.8093460  68.8294350 133.1887430  28.4235540  76.2718270
 133.5190440  27.5556600  76.0396910 133.6178430  28.6294060  77.1023230
 137.7849350  26.7544550  73.9320240 137.4844890  26.6309520  74.8324150
 137.6786840  25.8953140  73.5235970 133.6777640  29.2906130  79.0099900
 133.2408630  29.4706930  79.8424050 134.2455320  30.0480750  78.8681620
 149.3139820  28.7923130  83.2977210 148.7141810  28.8515690  82.5541130
 149.4433720  27.8528110  83.4274060 133.5102070  21.8026360  75.3688780
 132.8550910  21.5338000  74.7248480 134.3480020  21.6930840  74.9190760
 147.9991460  25.5175110  81.3953370 147.1851300  25.9472270  81.6579160
 148.4065660  26.1293520  80.7822420 150.0616900  23.5722800  68.2953640
 150.3365740  24.4801680  68.1672860 149.8727640  23.5085330  69.2315630
 146.4592510  16.5967650  69.5907270 146.8777390  16.4098630  68.7503930
 146.1528570  15.7446700  69.9010200 149.9582240  21.5091790  73.2883070
 149.5825840  20.7419720  72.8564360 149.2285360  21.8914490  73.7758000
 134.5478000  22.1878930  79.9092120 134.9151040  22.1006330  80.7888140
 133.9788820  21.4245480  79.8098980 149.3481860  20.6563310  82.9222590
 149.1167950  20.4276060  82.0220540 149.6086410  21.5762860  82.8767480
 134.0994000  19.0988020  83.8150540 133.2050050  19.0654780  84.1544250
 134.6391550  19.2974810  84.5801790 147.7869930  15.8819740  85.7002290
 148.6640110  15.8903140  86.0836290 147.7990770  15.1450580  85.0894640
 132.7240150  19.0125290  71.3114110 131.8204230  19.2755490  71.1365770
 133.2080770  19.2836460  70.5314070 149.2333200  19.7349280  76.5890310
 149.7570680  19.2411930  75.9580480 149.8192620  19.8699640  77.3337880
 149.4122920  19.8189150  80.1109860 148.4625630  19.7852690  80.2254850
 149.5935930  20.7289260  79.8759630 135.2667360  18.0690830  69.2208490
 135.9759060  17.6474050  68.7355770 134.5507300  18.1366060  68.5891840
 134.9141520  14.1230160  68.2611140 135.6369650  14.6639100  68.5792360
 135.1866040  13.8493580  67.3852680 148.7233170  18.9922630  72.5282720
 149.2192290  18.7593500  73.3131600 148.5249240  18.1534470  72.1120360
 134.6033710  13.3736350  78.1633760 135.2509900  12.8233730  77.7228920
 135.0235550  13.6279500  78.9849570 148.4986050  13.5677710  81.5203400
 149.1358270  14.1811850  81.8862590 148.6460940  13.6038370  80.5752630
 148.0567510  30.2693710  74.9221640 148.6526580  29.9478280  74.2456060
 148.3145660  29.7965530  75.7134910 134.3565710  13.5292020  80.9059080
 134.0080530  13.9855840  81.6717260 134.0253410  12.6349150  80.9881510
 135.9630080  26.7011620  85.0712270 135.9199710  26.3304530  85.9526730
 136.0941090  27.6389190  85.2114090 139.6636110  28.2571210  80.6721990
 139.4227470  28.5245770  79.7852510 140.6038750  28.4276940  80.7272850
 141.8690530  14.7203900  84.4278500 141.8079420  15.3125730  85.1773910
 142.8090910  14.6129860  84.2828760 144.5065090  14.3773960  84.0670790
 145.1205500  14.6953250  83.4051870 145.0514650  13.8922550  84.6866650
 135.0286350  13.0568220  84.1809850 135.5769340  12.8756270  83.4175960
 135.0941660  12.2662330  84.7166160 135.8018110  29.6473870  82.1910050
 135.2078430  29.5158570  82.9300090 135.7941950  28.8112010  81.7252150
 145.2473130  12.9406100  80.3940080 144.3732970  13.2741210  80.1913010
 145.1383880  12.4679280  81.2191950 146.1545110  15.1476970  81.7781800
 145.8258470  14.3328730  81.3983530 147.1027410  15.1046780  81.6547490
 148.6079720  30.9189010  78.7519370 148.1482690  31.6704820  78.3777390
 147.9792180  30.1995480  78.6934170 135.4330340  27.0132250  81.1418090
 134.7064400  26.3937540  81.0744040 135.4939490  27.4072860  80.2716170
 139.0375440  29.2277250  77.9267500 139.5540460  28.6164610  77.4015760
 139.6872820  29.7306030  78.4178510 141.7770940  30.1185740  78.7536480
 142.0648750  29.8640040  77.8769490 142.2894160  29.5663100  79.3442050
 142.9947950  13.8575940  79.3332990 142.2119740  14.3321440  79.6129750
 142.7010880  12.9530770  79.2246170 147.5469020  14.5599040  77.3782080
 147.9877110  14.5044140  76.5303680 147.2776610  15.4757050  77.4492260
 149.4107590  14.1914280  75.3890900 149.3495990  13.2475500  75.2421920
 150.1899620  14.2994370  75.9344360 133.7160340  30.3306640  74.3514850
 133.5482380  29.6977320  75.0496740 132.8494850  30.5366040  74.0009040
 134.3388360  14.1623420  71.8546710 135.0967720  14.2752300  71.2810740
 133.8765530  14.9992620  71.8090140 140.8802170  16.2762690  74.8449020
 140.0676680  15.9019580  74.5044900 141.3843810  15.5207770  75.1470210
 145.3827150  12.9405140  76.0832090 145.9856520  13.5125350  76.5580610
 144.6420140  13.5044580  75.8605990 148.5261750  13.3426700  71.3572370
 148.7212380  14.2410150  71.6239800 147.7391620  13.1113780  71.8505320
 135.3223040  29.0239870  71.7964990 134.7970660  29.4047900  71.0926950
 135.2467620  29.6490640  72.5174700 136.7113510  14.6887470  70.3948680
 137.2406270  13.9017270  70.2656630 137.3441830  15.3678660  70.6284210
 138.9051350  14.4262610  73.4494070 138.2754090  13.7249920  73.6164200
 138.3656490  15.1866740  73.2327230 141.8443300  31.0401840  86.1204680
 142.7710610  30.8046110  86.1640640 141.8293730  31.8673840  85.6390710
 150.0788360  30.5827410  73.1178930 150.2540550  29.8965150  72.4739850
 149.3809930  31.1074460  72.7255600 139.0306910  13.7046590  85.8846560
 138.7491180  14.2080190  85.1207380 139.4126610  12.9068340  85.5188690
 137.9216010  30.9722250  70.6714240 138.6534830  30.6881530  70.1238130
 138.1809680  30.7335530  71.5613620 137.0830800  27.0886980  70.6760570
 136.4539680  27.5572080  71.2246400 137.1978630  26.2436200  71.1106760
 145.6322370  13.1200170  86.4627030 145.5187820  13.4394780  87.3578550
 146.4492110  13.5212680  86.1664310 148.4120860  30.2671700  85.9445720
 149.2046180  29.7720930  85.7371680 148.7054010  30.9461840  86.5521330
 144.5380520  21.1392640  56.8261770 144.4574570  20.2247250  56.5553480
 144.1244940  21.6359710  56.1201480 142.6698560  22.9171660  58.7071040
 141.8940660  22.4372100  58.9969610 143.3211490  22.2377310  58.5327200
 136.6864390  23.2291470  59.5846800 135.8549270  22.9740180  59.9843310
 137.2945370  23.3002240  60.3204720 146.6905990  27.3231850  57.4870170
 146.2287520  26.5519090  57.8157340 147.5031540  27.3497920  57.9922620
 136.6665650  27.2631560  59.7804820 136.9693690  26.3729300  59.6015040
 137.4109240  27.8201780  59.5527070 135.0956340  18.1893360  53.3689190
 134.2073040  18.5309330  53.2669070 135.3797530  17.9893680  52.4770020
 133.0589350  20.7899010  59.2528890 133.6305460  20.0221210  59.2532530
 133.0590890  21.0887770  58.3435500 142.9169300  29.6089860  57.1074160
 142.2980740  30.0647360  56.5368600 143.7721080  29.7641320  56.7063860
 142.1107550  25.5928850  58.7141200 142.0415830  24.6518790  58.5530330
 142.8727410  25.6830260  59.2863770 134.3014220  16.1983370  61.0397820
 134.1217060  15.3009120  61.3200580 133.8994300  16.7455240  61.7144770
 143.1412720  18.3999230  58.9410130 143.5177540  17.5271110  58.8283800
 143.0432230  18.7357930  58.0500570 137.2717730  16.7724860  54.4027570
 137.3784480  17.6728590  54.7096330 136.3610090  16.7242830  54.1122220
 146.9236840  15.8949670  55.8738470 147.7446460  15.4046240  55.9163950
 146.9570920  16.4847330  56.6270310 134.9200890  18.6943870  59.6480160
 135.6011000  18.9582240  60.2667560 134.6048940  17.8544740  59.9818170
 139.1125460  19.7411230  58.7352750 139.6203680  20.2392200  59.3757770
 139.6438700  18.9646430  58.5592110 137.3961560  14.3809790  63.0016170
 137.3980000  14.8982180  62.1962070 136.5665870  13.9039970  62.9786100
 143.7832650  24.4929100  54.5006070 143.1649920  24.9578550  53.9368790
 144.2955900  25.1856580  54.9175580 138.6464410  24.0204970  61.1789670
 138.3133790  24.6473890  61.8210740 138.8231090  24.5466850  60.3991340
 147.1598320  17.8350050  58.6466010 146.4553890  18.1234940  59.2269120
 147.5210480  18.6450160  58.2865570 137.0776890  16.0919750  61.0086620
 137.4193700  16.9361800  60.7140490 136.1392700  16.2403490  61.1251960
 137.8583510  25.9885770  62.9938850 138.4757510  26.6636850  62.7123300
 136.9976630  26.3973750  62.9026350 133.1515850  25.1785630  51.8745700
 132.7743830  25.6672730  51.1430600 133.4088920  25.8510910  52.5052230
 148.7761100  27.4525180  60.9093490 148.0924620  28.1224290  60.9010160
 149.3155390  27.6505830  60.1438350 140.7604780  13.5802020  57.3331210
 141.0679760  13.0248910  56.6166710 139.8305480  13.7146480  57.1504200
 146.3119840  29.2969310  59.6238670 146.3247000  28.8931600  58.7560930
 145.7595060  30.0716600  59.5200100 147.6065260  26.0185530  54.7128840
 147.4961590  25.0759860  54.8378260 147.6033510  26.3801170  55.5991600
 145.7105280  24.1999150  60.9521280 146.1274070  23.9859260  60.1174740
 146.4345100  24.4571940  61.5229900 143.1485540  21.6450850  54.0691330
 142.2214820  21.5788230  54.2979800 143.3010360  22.5830980  53.9546570
 143.1354620  17.9167850  51.0658490 142.1958290  18.0781810  51.1510950
 143.4537880  18.6353530  50.5194480 149.6567380  22.5986370  61.0437520
 148.8286010  22.6679460  60.5687650 150.2517860  23.1840680  60.5753350
 147.1782830  23.2071150  54.5726580 146.5595250  22.8690700  53.9252880
 147.1607280  22.5630910  55.2805770 146.6209390  19.3855690  61.9892390
 146.2080570  20.2109400  62.2432380 145.8885340  18.8000730  61.7968750
 138.7542180  22.1715590  56.8511060 138.3499180  21.4592840  56.3556960
 138.8405300  21.8268830  57.7399100 139.2223880  25.8583150  59.0150270
 138.9252170  25.2528620  58.3358050 140.1723700  25.8960460  58.9039630
 137.4670800  18.9458800  60.6310100 138.0185390  19.0554140  59.8563350
 137.9814310  19.3196400  61.3465330 147.3109490  29.4315020  62.6773370
 146.8340050  30.2387210  62.4845980 146.6271280  28.7793350  62.8299580
 138.3142310  25.5964840  65.6658070 137.4170840  25.8204810  65.9131470
 138.3395180  25.7199780  64.7169470 145.3547530  22.4457960  51.5799330
 145.7940810  21.6080390  51.4337150 146.0675950  23.0787360  51.6663470
 137.1413530  22.4678160  64.2415440 137.0021300  23.3400960  64.6102840
 136.2594890  22.1250970  64.0963380 143.4642910  27.3854030  55.5480570
 143.9038820  28.1278360  55.1335960 143.4029800  27.6280600  56.4719530
 138.9393880  28.4099860  66.4500590 138.9109310  28.8142810  65.5829020
 138.7758850  27.4810220  66.2872190 148.9364670  13.7000770  49.8940370
 148.6237330  13.7927600  50.7939440 149.6977140  14.2781800  49.8437800
 135.4546810  21.0660570  54.3517710 135.3344410  21.7922660  53.7398980
 135.1447700  20.2963480  53.8745620 133.0932180  24.2375710  60.1586350
 133.1712600  24.3724480  59.2142070 133.7073860  23.5291600  60.3514470
 134.3379810  25.9375900  56.5692530 133.9307890  26.0790490  55.7146130
 135.2292820  25.6536060  56.3663740 150.2941950  26.3839810  64.9064770
 150.4205010  26.1451690  63.9881950 150.3363330  25.5524350  65.3786850
 144.1558690  30.0867810  63.4759580 144.6703360  29.9975820  64.2782010
 143.3127770  30.4327510  63.7687490 146.1313090  30.3723150  52.9043580
 145.9714230  30.0826090  53.8025410 145.9659800  29.5963280  52.3688810
 138.6101470  30.1521680  54.6815200 138.4343950  29.2357220  54.4683000
 137.7557210  30.5108970  54.9213000 145.8339220  27.8810710  51.4641580
 145.1404380  27.8788000  50.8043860 146.5762080  27.4570030  51.0335750
 145.3989150  29.5073420  55.5390070 145.8546100  28.7262800  55.8528690
 145.7381670  30.2180240  56.0831250 150.1465960  18.4372270  65.8714510
 149.5310230  18.9451940  65.3429970 149.8262380  17.5370600  65.8140450
 133.1491700  25.2789880  62.6980810 133.3122740  24.8095240  61.8800180
 133.6144150  24.7713440  63.3629650 137.9210470  14.4095640  57.7341380
 137.4778620  15.1905180  57.4025900 138.4795460  14.7325530  58.4412320
 142.2080280  17.2764160  63.3376700 141.7459650  17.4847180  64.1496640
 141.8058390  16.4623510  63.0347370 147.2084790  18.4973110  64.4673360
 146.3578380  18.1978860  64.7882430 147.0486580  18.7415120  63.5557180
 144.3034500  19.9974860  66.5672150 144.6287910  19.1638610  66.2274380
 145.0914830  20.5203380  66.7150480 141.0369290  14.0306340  52.6147210
 140.4123470  14.0266210  53.3400520 140.9499410  13.1637300  52.2183180
 139.9586370  14.9542970  59.5930980 140.2558700  15.8605800  59.5123000
 140.5071930  14.4661750  58.9790550 137.7124690  19.5329210  55.4622630
 137.4865610  19.3166380  56.3669250 136.9317220  19.9657670  55.1168600
 144.9422450  19.5392580  54.0613280 144.3431340  20.2628380  53.8776900
 145.4902060  19.4769360  53.2789730 140.1523900  20.4314790  66.1282900
 140.0567500  19.4909520  65.9783300 140.9955880  20.6529860  65.7330970
 143.5487320  18.1756120  56.0916560 143.9416890  18.4928320  55.2785250
 143.9104170  17.2968000  56.2061080 135.2834440  16.8428460  64.2816680
 134.8897830  17.6903670  64.4889460 134.5952840  16.2054830  64.4725320
 141.8579490  16.9263430  67.3513420 141.1677810  16.7335630  67.9859510
 142.6011790  17.2098070  67.8837720 132.5851490  14.7656920  58.3146760
 132.2964540  15.3359780  59.0271740 133.3297250  14.2861370  58.6777990
 132.7721720  18.7077040  49.5249480 132.6896390  19.6507800  49.6664470
 132.4204780  18.5651950  48.6461830 144.1342460  20.7661870  60.1867340
 143.4023580  21.2748680  60.5357440 143.7366800  19.9491850  59.8856120
 140.5719850  17.4416070  58.5919830 140.5755910  17.0006020  57.7424370
 141.4670970  17.7633400  58.6991650 136.4222230  17.3242560  57.5514040
 136.0822280  17.8017790  58.3081090 135.6599550  16.8707680  57.1915140
 140.6340000  18.4428150  51.5826590 140.7552820  18.4014630  52.5312410
 140.2488510  19.3052300  51.4273320 144.5968370  16.2195550  59.5990280
 144.6141110  16.6704200  60.4432130 144.3483950  15.3201190  59.8123720
 139.6461500  20.7529290  50.9809890 139.0778400  20.3047540  50.3545800
 140.3550500  21.1122070  50.4475040 148.0239120  13.6327730  65.4376660
 148.3484890  12.9017390  65.9634640 148.0595630  13.3141370  64.5357650
 134.7230680  24.6541310  64.8576620 134.3385470  24.0134980  65.4559580
 135.0342870  25.3577430  65.4271350 140.8727820  21.5017850  60.3385240
 141.2397950  21.0276420  61.0846580 140.6832880  22.3759420  60.6793580
 133.7368310  16.2461540  56.4678710 133.4515230  15.8817210  57.3057330
 133.6747170  15.5142000  55.8541850 138.6627190  20.5426490  62.6569450
 138.3584260  21.4218470  62.8819810 139.6173650  20.6026280  62.6926890
 137.1908980  24.7487480  53.2536300 136.4171240  24.2085100  53.0935020
 137.9203610  24.2294090  52.9154060 147.9496960  23.7452840  59.0462690
 148.6696080  24.2408130  58.6558800 147.7478780  23.0670730  58.4016560
 143.4106900  15.1390800  53.1892080 142.5971510  14.6403970  53.1137390
 143.2168850  15.9789050  52.7728430 143.3315760  23.8161900  64.9331690
 143.2653070  22.8957570  64.6789280 142.7020900  23.9137340  65.6476330
 146.1255290  19.5110450  51.4854240 147.0134910  19.8227680  51.3105580
 146.0960380  18.6382700  51.0934820 137.2346380  24.4167860  56.8915110
 137.7525050  23.6136120  56.8372000 136.7830400  24.3547000  57.7331940
 142.1215880  25.6834140  52.1642410 142.4631580  26.4276370  51.6685730
 141.2928590  25.9965260  52.5267240 134.7190920  21.3829230  63.8040810
 134.3605860  22.0483080  64.3914150 134.4245480  20.5512780  64.1753430
 137.9204040  21.8413470  66.6880360 137.6204180  21.9870650  65.7908180
 138.6915280  21.2818760  66.5953750 143.2632490  26.6382470  64.6835490
 143.2777030  25.7063430  64.4654400 142.5557590  26.7242230  65.3225260
 148.3969560  20.8222290  50.9534100 148.3133280  21.2536510  50.1030540
 149.1163750  21.2820640  51.3860920 149.4743700  23.2789810  64.0304070
 148.7491890  23.8718590  63.8333460 150.0019160  23.2713350  63.2317440
 149.4256810  27.6764550  53.6816230 148.7832970  27.0220170  53.9559950
 149.0387470  28.0819640  52.9056900 145.0043290  25.0049980  57.5287920
 145.3567110  24.4078110  56.8689290 144.1205620  24.6794210  57.6996170
 141.0906570  25.7647670  54.9358330 141.7777700  26.3116880  55.3165920
 140.3038990  26.3088400  54.9707940 133.2298970  21.3820490  50.4275410
 134.0993820  21.6645290  50.7111330 132.7389290  22.1956360  50.3124220
 140.3933780  22.7693700  54.5483690 140.8496560  23.5798950  54.7743880
 140.0421990  22.4516840  55.3802180 142.6966390  28.2800040  61.7775990
 143.3408610  28.4859420  62.4549410 143.0595830  27.5188440  61.3246840
 136.2945560  13.1131350  55.0206210 136.1660190  13.1049250  55.9691130
 135.4707580  13.4514440  54.6697220 143.9698470  26.2832390  60.4953440
 144.6120700  25.5825550  60.6085610 144.4947820  27.0630830  60.3150330
 147.8154190  26.5681010  50.2192580 147.5891770  25.8511450  50.8117220
 147.4250390  26.3193450  49.3814330 145.7436090  27.0827290  63.6989500
 146.0792330  27.6693980  64.3767420 144.8236430  26.9520000  63.9287290
 133.5970220  30.5947870  50.9937040 133.9567860  31.1937210  50.3394310
 133.4562560  31.1407760  51.7672070 133.2939490  14.8722470  64.4812910
 132.5798010  15.0719390  65.0865520 133.7134530  14.0962040  64.8527710
 147.3970440  24.4852950  51.8806740 147.1092140  24.9465640  52.6684620
 148.1922610  24.0250720  52.1490960 133.5812080  28.8602730  65.4679440
 133.6903200  27.9197470  65.3274830 132.9292640  29.1257480  64.8193170
 141.5724670  27.1318620  66.8677560 141.2521540  26.4127860  67.4123250
 140.8983030  27.8073690  66.9413620 139.6138840  27.9779070  51.8110710
 139.6048940  28.7108760  51.1955220 138.6937200  27.7310650  51.9037670
 135.2145480  23.1993960  52.5557470 134.6073430  23.9392860  52.5652770
 135.6894830  23.2893320  51.7295670 144.7878270  17.3644780  62.2314360
 145.1559090  16.5439990  62.5593930 143.9276470  17.4246670  62.6470010
 148.1540300  16.3201720  53.0401920 147.5253460  16.4247390  52.3260150
 147.6592220  16.5398500  53.8295800 142.5998440  28.0407310  50.4735900
 142.7010420  27.8371300  49.5437880 141.7000180  27.7865590  50.6783680
 140.1224330  18.5987670  54.4559800 139.4140480  19.0674010  54.8973410
 140.4068810  17.9409680  55.0904990 141.7480260  20.0184370  62.4552330
 142.2465510  20.4930190  63.1204180 141.8903210  19.0947890  62.6622360
 144.1539760  15.3238330  55.8955590 144.0307540  15.3424460  54.9465100
 145.1024320  15.3717270  56.0153990 141.2416550  30.5593630  55.1683570
 141.4958050  30.5215020  54.2462940 140.2929030  30.4326960  55.1611820
 138.3259350  16.9072750  51.8310510 139.1749880  17.3442900  51.7650700
 137.9590620  17.2193010  52.6582570 148.9547120  16.2352330  63.2980720
 148.4520720  16.9757730  63.6374530 149.7703780  16.6236330  62.9817510
 147.2469130  21.4785510  56.7442080 146.3059270  21.4935740  56.9189770
 147.5613200  20.6921470  57.1902380 137.2250770  23.1605110  50.3046040
 137.9914040  23.0486470  50.8671470 137.3025460  22.4643080  49.6522810
 135.9197530  20.5930180  50.9878930 136.0001120  19.6457690  51.0996330
 136.8117280  20.9237060  51.0939590 149.2494710  28.6494360  58.4196340
 149.3742130  29.4725530  58.8920150 150.1160270  28.4385090  58.0720490
 136.7212240  30.7425570  58.0913470 137.4574720  30.1941030  58.3622040
 137.1053160  31.6081580  57.9519460 133.6057720  26.8099140  53.9654980
 132.6797500  27.0520280  53.9560390 134.0714150  27.6373400  53.8439730
 135.7270520  29.9271640  67.2799050 136.5283250  30.2483690  67.6934450
 135.2122340  29.5667220  68.0018960 139.8314550  29.9155880  49.9139040
 140.6243160  30.2044710  49.4620830 139.3118900  29.4848050  49.2351520
 144.5635150  26.0351510  67.2274460 143.9573310  26.0583110  66.4870210
 144.2589260  25.3034550  67.7641710 145.9935520  29.7631800  65.8383870
 146.9457270  29.6789820  65.7884110 145.8463740  30.4273510  66.5117660
 148.8844720  29.1426010  51.3375780 148.5986230  28.7291150  50.5229960
 148.6864270  30.0713720  51.2176300 133.4468330  22.4145100  66.2235100
 133.9507350  21.8352380  66.7951330 132.7075750  22.6985330  66.7611470
 140.3491950  25.1359290  49.7781390 140.2442590  24.5211640  50.5042770
 140.1816170  24.6125180  48.9944400 140.5006270  23.8216090  65.7570620
 139.7351940  24.3901090  65.6725290 140.6822230  23.5292300  64.8638850
 143.5894680  24.1979320  50.3823380 143.0404780  24.6448620  51.0266120
 144.2113940  23.6928570  50.9061050 147.6429620  25.5521420  66.3145640
 148.3839090  25.8897180  65.8113100 146.8802300  25.7213480  65.7615410
 135.4791410  20.5574690  67.1185170 135.5196750  20.2588560  68.0270400
 136.3336910  20.9582300  66.9592690 139.2569800  23.1570240  52.2788680
 139.6786220  22.9910110  53.1220070 139.3820640  22.3470470  51.7843820
 137.4197220  19.1366790  65.0859660 136.8893680  18.6457740  64.4583000
 138.0885290  19.5650990  64.5517590 141.7697440  22.1807850  49.5265780
 142.2903100  21.4656870  49.1606930 142.4165840  22.8193720  49.8266290
 146.3175280  23.6036250  64.8500850 146.7316300  23.7581330  65.6991270
 145.3826280  23.7291470  65.0126630 146.7897450  20.9432410  66.8540000
 147.3718220  20.1884730  66.7660480 146.9659220  21.4739850  66.0771480
 137.9069520  16.1029160  65.1656950 137.8126390  15.4849910  64.4407820
 137.3266910  16.8295450  64.9386860 140.6730960  14.6602400  62.1984340
 140.2248260  14.6826660  61.3529890 140.0396160  14.2621420  62.7954640
 141.0790510  23.5556730  62.8196780 141.4978620  24.3989460  62.6473020
 140.1599140  23.6928770  62.5903560 143.4154410  21.2872910  64.2034620
 143.5350620  20.6914050  64.9429460 144.2748410  21.3242600  63.7835920
 145.7542310  21.8410100  62.7797130 145.2277530  22.3652720  62.1762270
 146.0973650  22.4737490  63.4106860 138.1528700  19.2303470  49.2246840
 137.9517760  18.3670830  49.5860180 137.9820750  19.1436830  48.2868440
 138.9297930  29.8609740  63.9354510 138.3919020  30.5855800  63.6163210
 139.1831890  29.3840080  63.1451850 140.1823180  17.8294260  65.4610440
 140.7722870  17.5210110  66.1488260 139.3643420  17.3574010  65.6170340
 145.0016610  17.4460070  65.6943460 144.3132130  16.7841610  65.6293450
 145.7222630  16.9998340  66.1391920 145.6317010  14.0411700  51.7533720
 145.9119300  13.1979600  52.1093140 144.8582740  14.2734810  52.2672470
 136.9511500  16.3304090  49.2124720 137.2537400  16.3371520  48.3043870
 137.6906090  15.9801950  49.7092380 141.7860140  31.0960950  64.1941160
 141.7118840  31.9996090  64.5013530 140.8838980  30.7772850  64.1663230
 140.1696430  15.2738710  50.1980920 139.8218430  14.5962700  49.6183370
 140.3709200  14.8128220  51.0124310 142.3345470  30.2619460  51.8167520
 143.2296260  30.6004430  51.8386280 142.3663100  29.5398870  51.1891800
 135.9741630  25.6346510  50.0454520 136.4116500  26.1776180  50.7012100
 136.4589360  24.8093460  50.0550860 133.1887430  28.4235540  57.4974780
 133.5190440  27.5556600  57.2653420 133.6178430  28.6294060  58.3279740
 137.7849350  26.7544550  55.1576750 137.4844890  26.6309520  56.0580660
 137.6786840  25.8953140  54.7492480 133.6777640  29.2906130  60.2356410
 133.2408630  29.4706930  61.0680560 134.2455320  30.0480750  60.0938130
 149.3139820  28.7923130  64.5233720 148.7141810  28.8515690  63.7797640
 149.4433720  27.8528110  64.6530570 133.5102070  21.8026360  56.5945290
 132.8550910  21.5338000  55.9504990 134.3480020  21.6930840  56.1447270
 147.9991460  25.5175110  62.6209880 147.1851300  25.9472270  62.8835670
 148.4065660  26.1293520  62.0078930 150.0616900  23.5722800  49.5210150
 150.3365740  24.4801680  49.3929370 149.8727640  23.5085330  50.4572140
 146.4592510  16.5967650  50.8163780 146.8777390  16.4098630  49.9760440
 146.1528570  15.7446700  51.1266710 149.9582240  21.5091790  54.5139580
 149.5825840  20.7419720  54.0820870 149.2285360  21.8914490  55.0014510
 134.5478000  22.1878930  61.1348630 134.9151040  22.1006330  62.0144650
 133.9788820  21.4245480  61.0355490 149.3481860  20.6563310  64.1479100
 149.1167950  20.4276060  63.2477050 149.6086410  21.5762860  64.1023990
 134.0994000  19.0988020  65.0407050 133.2050050  19.0654780  65.3800760
 134.6391550  19.2974810  65.8058300 147.7869930  15.8819740  66.9258800
 148.6640110  15.8903140  67.3092800 147.7990770  15.1450580  66.3151150
 132.7240150  19.0125290  52.5370620 131.8204230  19.2755490  52.3622280
 133.2080770  19.2836460  51.7570580 149.2333200  19.7349280  57.8146820
 149.7570680  19.2411930  57.1836990 149.8192620  19.8699640  58.5594390
 149.4122920  19.8189150  61.3366370 148.4625630  19.7852690  61.4511360
 149.5935930  20.7289260  61.1016140 135.2667360  18.0690830  50.4465000
 135.9759060  17.6474050  49.9612280 134.5507300  18.1366060  49.8148350
 134.9141520  14.1230160  49.4867650 135.6369650  14.6639100  49.8048870
 135.1866040  13.8493580  48.6109190 148.7233170  18.9922630  53.7539230
 149.2192290  18.7593500  54.5388110 148.5249240  18.1534470  53.3376870
 134.6033710  13.3736350  59.3890270 135.2509900  12.8233730  58.9485430
 135.0235550  13.6279500  60.2106080 148.4986050  13.5677710  62.7459910
 149.1358270  14.1811850  63.1119100 148.6460940  13.6038370  61.8009140
 148.0567510  30.2693710  56.1478150 148.6526580  29.9478280  55.4712570
 148.3145660  29.7965530  56.9391420 134.3565710  13.5292020  62.1315590
 134.0080530  13.9855840  62.8973770 134.0253410  12.6349150  62.2138020
 135.9630080  26.7011620  66.2968780 135.9199710  26.3304530  67.1783240
 136.0941090  27.6389190  66.4370600 139.6636110  28.2571210  61.8978500
 139.4227470  28.5245770  61.0109020 140.6038750  28.4276940  61.9529360
 141.8690530  14.7203900  65.6535010 141.8079420  15.3125730  66.4030420
 142.8090910  14.6129860  65.5085270 144.5065090  14.3773960  65.2927300
 145.1205500  14.6953250  64.6308380 145.0514650  13.8922550  65.9123160
 135.0286350  13.0568220  65.4066360 135.5769340  12.8756270  64.6432470
 135.0941660  12.2662330  65.9422670 135.8018110  29.6473870  63.4166560
 135.2078430  29.5158570  64.1556600 135.7941950  28.8112010  62.9508660
 145.2473130  12.9406100  61.6196590 144.3732970  13.2741210  61.4169520
 145.1383880  12.4679280  62.4448460 146.1545110  15.1476970  63.0038310
 145.8258470  14.3328730  62.6240040 147.1027410  15.1046780  62.8804000
 148.6079720  30.9189010  59.9775880 148.1482690  31.6704820  59.6033900
 147.9792180  30.1995480  59.9190680 135.4330340  27.0132250  62.3674600
 134.7064400  26.3937540  62.3000550 135.4939490  27.4072860  61.4972680
 139.0375440  29.2277250  59.1524010 139.5540460  28.6164610  58.6272270
 139.6872820  29.7306030  59.6435020 141.7770940  30.1185740  59.9792990
 142.0648750  29.8640040  59.1026000 142.2894160  29.5663100  60.5698560
 142.9947950  13.8575940  60.5589500 142.2119740  14.3321440  60.8386260
 142.7010880  12.9530770  60.4502680 147.5469020  14.5599040  58.6038590
 147.9877110  14.5044140  57.7560190 147.2776610  15.4757050  58.6748770
 149.4107590  14.1914280  56.6147410 149.3495990  13.2475500  56.4678430
 150.1899620  14.2994370  57.1600870 133.7160340  30.3306640  55.5771360
 133.5482380  29.6977320  56.2753250 132.8494850  30.5366040  55.2265550
 134.3388360  14.1623420  53.0803220 135.0967720  14.2752300  52.5067250
 133.8765530  14.9992620  53.0346650 140.8802170  16.2762690  56.0705530
 140.0676680  15.9019580  55.7301410 141.3843810  15.5207770  56.3726720
 145.3827150  12.9405140  57.3088600 145.9856520  13.5125350  57.7837120
 144.6420140  13.5044580  57.0862500 148.5261750  13.3426700  52.5828880
 148.7212380  14.2410150  52.8496310 147.7391620  13.1113780  53.0761830
 135.3223040  29.0239870  53.0221500 134.7970660  29.4047900  52.3183460
 135.2467620  29.6490640  53.7431210 136.7113510  14.6887470  51.6205190
 137.2406270  13.9017270  51.4913140 137.3441830  15.3678660  51.8540720
 138.9051350  14.4262610  54.6750580 138.2754090  13.7249920  54.8420710
 138.3656490  15.1866740  54.4583740 141.8443300  31.0401840  67.3461190
 142.7710610  30.8046110  67.3897150 141.8293730  31.8673840  66.8647220
 150.0788360  30.5827410  54.3435440 150.2540550  29.8965150  53.6996360
 149.3809930  31.1074460  53.9512110 139.0306910  13.7046590  67.1103070
 138.7491180  14.2080190  66.3463890 139.4126610  12.9068340  66.7445200
 137.9216010  30.9722250  51.8970750 138.6534830  30.6881530  51.3494640
 138.1809680  30.7335530  52.7870130 137.0830800  27.0886980  51.9017080
 136.4539680  27.5572080  52.4502910 137.1978630  26.2436200  52.3363270
 145.6322370  13.1200170  67.6883540 145.5187820  13.4394780  68.5835060
 146.4492110  13.5212680  67.3920820 148.4120860  30.2671700  67.1702230
 149.2046180  29.7720930  66.9628190 148.7054010  30.9461840  67.7777840
 144.5380520  21.1392640  38.0518280 144.4574570  20.2247250  37.7809990
 144.1244940  21.6359710  37.3457990 142.6698560  22.9171660  39.9327550
 141.8940660  22.4372100  40.2226120 143.3211490  22.2377310  39.7583710
 136.6864390  23.2291470  40.8103310 135.8549270  22.9740180  41.2099820
 137.2945370  23.3002240  41.5461230 146.6905990  27.3231850  38.7126680
 146.2287520  26.5519090  39.0413850 147.5031540  27.3497920  39.2179130
 136.6665650  27.2631560  41.0061330 136.9693690  26.3729300  40.8271550
 137.4109240  27.8201780  40.7783580 135.0956340  18.1893360  34.5945700
 134.2073040  18.5309330  34.4925580 135.3797530  17.9893680  33.7026530
 133.0589350  20.7899010  40.4785400 133.6305460  20.0221210  40.4789040
 133.0590890  21.0887770  39.5692010 142.9169300  29.6089860  38.3330670
 142.2980740  30.0647360  37.7625110 143.7721080  29.7641320  37.9320370
 142.1107550  25.5928850  39.9397710 142.0415830  24.6518790  39.7786840
 142.8727410  25.6830260  40.5120280 134.3014220  16.1983370  42.2654330
 134.1217060  15.3009120  42.5457090 133.8994300  16.7455240  42.9401280
 143.1412720  18.3999230  40.1666640 143.5177540  17.5271110  40.0540310
 143.0432230  18.7357930  39.2757080 137.2717730  16.7724860  35.6284080
 137.3784480  17.6728590  35.9352840 136.3610090  16.7242830  35.3378730
 146.9236840  15.8949670  37.0994980 147.7446460  15.4046240  37.1420460
 146.9570920  16.4847330  37.8526820 134.9200890  18.6943870  40.8736670
 135.6011000  18.9582240  41.4924070 134.6048940  17.8544740  41.2074680
 139.1125460  19.7411230  39.9609260 139.6203680  20.2392200  40.6014280
 139.6438700  18.9646430  39.7848620 137.3961560  14.3809790  44.2272680
 137.3980000  14.8982180  43.4218580 136.5665870  13.9039970  44.2042610
 143.7832650  24.4929100  35.7262580 143.1649920  24.9578550  35.1625300
 144.2955900  25.1856580  36.1432090 138.6464410  24.0204970  42.4046180
 138.3133790  24.6473890  43.0467250 138.8231090  24.5466850  41.6247850
 147.1598320  17.8350050  39.8722520 146.4553890  18.1234940  40.4525630
 147.5210480  18.6450160  39.5122080 137.0776890  16.0919750  42.2343130
 137.4193700  16.9361800  41.9397000 136.1392700  16.2403490  42.3508470
 137.8583510  25.9885770  44.2195360 138.4757510  26.6636850  43.9379810
 136.9976630  26.3973750  44.1282860 133.1515850  25.1785630  33.1002210
 132.7743830  25.6672730  32.3687110 133.4088920  25.8510910  33.7308740
 148.7761100  27.4525180  42.1350000 148.0924620  28.1224290  42.1266670
 149.3155390  27.6505830  41.3694860 140.7604780  13.5802020  38.5587720
 141.0679760  13.0248910  37.8423220 139.8305480  13.7146480  38.3760710
 146.3119840  29.2969310  40.8495180 146.3247000  28.8931600  39.9817440
 145.7595060  30.0716600  40.7456610 147.6065260  26.0185530  35.9385350
 147.4961590  25.0759860  36.0634770 147.6033510  26.3801170  36.8248110
 145.7105280  24.1999150  42.1777790 146.1274070  23.9859260  41.3431250
 146.4345100  24.4571940  42.7486410 143.1485540  21.6450850  35.2947840
 142.2214820  21.5788230  35.5236310 143.3010360  22.5830980  35.1803080
 143.1354620  17.9167850  32.2915000 142.1958290  18.0781810  32.3767460
 143.4537880  18.6353530  31.7450990 149.6567380  22.5986370  42.2694030
 148.8286010  22.6679460  41.7944160 150.2517860  23.1840680  41.8009860
 147.1782830  23.2071150  35.7983090 146.5595250  22.8690700  35.1509390
 147.1607280  22.5630910  36.5062280 146.6209390  19.3855690  43.2148900
 146.2080570  20.2109400  43.4688890 145.8885340  18.8000730  43.0225260
 138.7542180  22.1715590  38.0767570 138.3499180  21.4592840  37.5813470
 138.8405300  21.8268830  38.9655610 139.2223880  25.8583150  40.2406780
 138.9252170  25.2528620  39.5614560 140.1723700  25.8960460  40.1296140
 137.4670800  18.9458800  41.8566610 138.0185390  19.0554140  41.0819860
 137.9814310  19.3196400  42.5721840 147.3109490  29.4315020  43.9029880
 146.8340050  30.2387210  43.7102490 146.6271280  28.7793350  44.0556090
 138.3142310  25.5964840  46.8914580 137.4170840  25.8204810  47.1387980
 138.3395180  25.7199780  45.9425980 145.3547530  22.4457960  32.8055840
 145.7940810  21.6080390  32.6593660 146.0675950  23.0787360  32.8919980
 137.1413530  22.4678160  45.4671950 137.0021300  23.3400960  45.8359350
 136.2594890  22.1250970  45.3219890 143.4642910  27.3854030  36.7737080
 143.9038820  28.1278360  36.3592470 143.4029800  27.6280600  37.6976040
 138.9393880  28.4099860  47.6757100 138.9109310  28.8142810  46.8085530
 138.7758850  27.4810220  47.5128700 148.9364670  13.7000770  31.1196880
 148.6237330  13.7927600  32.0195950 149.6977140  14.2781800  31.0694310
 135.4546810  21.0660570  35.5774220 135.3344410  21.7922660  34.9655490
 135.1447700  20.2963480  35.1002130 133.0932180  24.2375710  41.3842860
 133.1712600  24.3724480  40.4398580 133.7073860  23.5291600  41.5770980
 134.3379810  25.9375900  37.7949040 133.9307890  26.0790490  36.9402640
 135.2292820  25.6536060  37.5920250 150.2941950  26.3839810  46.1321280
 150.4205010  26.1451690  45.2138460 150.3363330  25.5524350  46.6043360
 144.1558690  30.0867810  44.7016090 144.6703360  29.9975820  45.5038520
 143.3127770  30.4327510  44.9944000 146.1313090  30.3723150  34.1300090
 145.9714230  30.0826090  35.0281920 145.9659800  29.5963280  33.5945320
 138.6101470  30.1521680  35.9071710 138.4343950  29.2357220  35.6939510
 137.7557210  30.5108970  36.1469510 145.8339220  27.8810710  32.6898090
 145.1404380  27.8788000  32.0300370 146.5762080  27.4570030  32.2592260
 145.3989150  29.5073420  36.7646580 145.8546100  28.7262800  37.0785200
 145.7381670  30.2180240  37.3087760 150.1465960  18.4372270  47.0971020
 149.5310230  18.9451940  46.5686480 149.8262380  17.5370600  47.0396960
 133.1491700  25.2789880  43.9237320 133.3122740  24.8095240  43.1056690
 133.6144150  24.7713440  44.5886160 137.9210470  14.4095640  38.9597890
 137.4778620  15.1905180  38.6282410 138.4795460  14.7325530  39.6668830
 142.2080280  17.2764160  44.5633210 141.7459650  17.4847180  45.3753150
 141.8058390  16.4623510  44.2603880 147.2084790  18.4973110  45.6929870
 146.3578380  18.1978860  46.0138940 147.0486580  18.7415120  44.7813690
 144.3034500  19.9974860  47.7928660 144.6287910  19.1638610  47.4530890
 145.0914830  20.5203380  47.9406990 141.0369290  14.0306340  33.8403720
 140.4123470  14.0266210  34.5657030 140.9499410  13.1637300  33.4439690
 139.9586370  14.9542970  40.8187490 140.2558700  15.8605800  40.7379510
 140.5071930  14.4661750  40.2047060 137.7124690  19.5329210  36.6879140
 137.4865610  19.3166380  37.5925760 136.9317220  19.9657670  36.3425110
 144.9422450  19.5392580  35.2869790 144.3431340  20.2628380  35.1033410
 145.4902060  19.4769360  34.5046240 140.1523900  20.4314790  47.3539410
 140.0567500  19.4909520  47.2039810 140.9955880  20.6529860  46.9587480
 143.5487320  18.1756120  37.3173070 143.9416890  18.4928320  36.5041760
 143.9104170  17.2968000  37.4317590 135.2834440  16.8428460  45.5073190
 134.8897830  17.6903670  45.7145970 134.5952840  16.2054830  45.6981830
 141.8579490  16.9263430  48.5769930 141.1677810  16.7335630  49.2116020
 142.6011790  17.2098070  49.1094230 132.5851490  14.7656920  39.5403270
 132.2964540  15.3359780  40.2528250 133.3297250  14.2861370  39.9034500
 132.7721720  18.7077040  30.7505990 132.6896390  19.6507800  30.8920980
 132.4204780  18.5651950  29.8718340 144.1342460  20.7661870  41.4123850
 143.4023580  21.2748680  41.7613950 143.7366800  19.9491850  41.1112630
 140.5719850  17.4416070  39.8176340 140.5755910  17.0006020  38.9680880
 141.4670970  17.7633400  39.9248160 136.4222230  17.3242560  38.7770550
 136.0822280  17.8017790  39.5337600 135.6599550  16.8707680  38.4171650
 140.6340000  18.4428150  32.8083100 140.7552820  18.4014630  33.7568920
 140.2488510  19.3052300  32.6529830 144.5968370  16.2195550  40.8246790
 144.6141110  16.6704200  41.6688640 144.3483950  15.3201190  41.0380230
 139.6461500  20.7529290  32.2066400 139.0778400  20.3047540  31.5802310
 140.3550500  21.1122070  31.6731550 148.0239120  13.6327730  46.6633170
 148.3484890  12.9017390  47.1891150 148.0595630  13.3141370  45.7614160
 134.7230680  24.6541310  46.0833130 134.3385470  24.0134980  46.6816090
 135.0342870  25.3577430  46.6527860 140.8727820  21.5017850  41.5641750
 141.2397950  21.0276420  42.3103090 140.6832880  22.3759420  41.9050090
 133.7368310  16.2461540  37.6935220 133.4515230  15.8817210  38.5313840
 133.6747170  15.5142000  37.0798360 138.6627190  20.5426490  43.8825960
 138.3584260  21.4218470  44.1076320 139.6173650  20.6026280  43.9183400
 137.1908980  24.7487480  34.4792810 136.4171240  24.2085100  34.3191530
 137.9203610  24.2294090  34.1410570 147.9496960  23.7452840  40.2719200
 148.6696080  24.2408130  39.8815310 147.7478780  23.0670730  39.6273070
 143.4106900  15.1390800  34.4148590 142.5971510  14.6403970  34.3393900
 143.2168850  15.9789050  33.9984940 143.3315760  23.8161900  46.1588200
 143.2653070  22.8957570  45.9045790 142.7020900  23.9137340  46.8732840
 146.1255290  19.5110450  32.7110750 147.0134910  19.8227680  32.5362090
 146.0960380  18.6382700  32.3191330 137.2346380  24.4167860  38.1171620
 137.7525050  23.6136120  38.0628510 136.7830400  24.3547000  38.9588450
 142.1215880  25.6834140  33.3898920 142.4631580  26.4276370  32.8942240
 141.2928590  25.9965260  33.7523750 134.7190920  21.3829230  45.0297320
 134.3605860  22.0483080  45.6170660 134.4245480  20.5512780  45.4009940
 137.9204040  21.8413470  47.9136870 137.6204180  21.9870650  47.0164690
 138.6915280  21.2818760  47.8210260 143.2632490  26.6382470  45.9092000
 143.2777030  25.7063430  45.6910910 142.5557590  26.7242230  46.5481770
 148.3969560  20.8222290  32.1790610 148.3133280  21.2536510  31.3287050
 149.1163750  21.2820640  32.6117430 149.4743700  23.2789810  45.2560580
 148.7491890  23.8718590  45.0589970 150.0019160  23.2713350  44.4573950
 149.4256810  27.6764550  34.9072740 148.7832970  27.0220170  35.1816460
 149.0387470  28.0819640  34.1313410 145.0043290  25.0049980  38.7544430
 145.3567110  24.4078110  38.0945800 144.1205620  24.6794210  38.9252680
 141.0906570  25.7647670  36.1614840 141.7777700  26.3116880  36.5422430
 140.3038990  26.3088400  36.1964450 133.2298970  21.3820490  31.6531920
 134.0993820  21.6645290  31.9367840 132.7389290  22.1956360  31.5380730
 140.3933780  22.7693700  35.7740200 140.8496560  23.5798950  36.0000390
 140.0421990  22.4516840  36.6058690 142.6966390  28.2800040  43.0032500
 143.3408610  28.4859420  43.6805920 143.0595830  27.5188440  42.5503350
 136.2945560  13.1131350  36.2462720 136.1660190  13.1049250  37.1947640
 135.4707580  13.4514440  35.8953730 143.9698470  26.2832390  41.7209950
 144.6120700  25.5825550  41.8342120 144.4947820  27.0630830  41.5406840
 147.8154190  26.5681010  31.4449090 147.5891770  25.8511450  32.0373730
 147.4250390  26.3193450  30.6070840 145.7436090  27.0827290  44.9246010
 146.0792330  27.6693980  45.6023930 144.8236430  26.9520000  45.1543800
 133.5970220  30.5947870  32.2193550 133.9567860  31.1937210  31.5650820
 133.4562560  31.1407760  32.9928580 133.2939490  14.8722470  45.7069420
 132.5798010  15.0719390  46.3122030 133.7134530  14.0962040  46.0784220
 147.3970440  24.4852950  33.1063250 147.1092140  24.9465640  33.8941130
 148.1922610  24.0250720  33.3747470 133.5812080  28.8602730  46.6935950
 133.6903200  27.9197470  46.5531340 132.9292640  29.1257480  46.0449680
 141.5724670  27.1318620  48.0934070 141.2521540  26.4127860  48.6379760
 140.8983030  27.8073690  48.1670130 139.6138840  27.9779070  33.0367220
 139.6048940  28.7108760  32.4211730 138.6937200  27.7310650  33.1294180
 135.2145480  23.1993960  33.7813980 134.6073430  23.9392860  33.7909280
 135.6894830  23.2893320  32.9552180 144.7878270  17.3644780  43.4570870
 145.1559090  16.5439990  43.7850440 143.9276470  17.4246670  43.8726520
 148.1540300  16.3201720  34.2658430 147.5253460  16.4247390  33.5516660
 147.6592220  16.5398500  35.0552310 142.5998440  28.0407310  31.6992410
 142.7010420  27.8371300  30.7694390 141.7000180  27.7865590  31.9040190
 140.1224330  18.5987670  35.6816310 139.4140480  19.0674010  36.1229920
 140.4068810  17.9409680  36.3161500 141.7480260  20.0184370  43.6808840
 142.2465510  20.4930190  44.3460690 141.8903210  19.0947890  43.8878870
 144.1539760  15.3238330  37.1212100 144.0307540  15.3424460  36.1721610
 145.1024320  15.3717270  37.2410500 141.2416550  30.5593630  36.3940080
 141.4958050  30.5215020  35.4719450 140.2929030  30.4326960  36.3868330
 138.3259350  16.9072750  33.0567020 139.1749880  17.3442900  32.9907210
 137.9590620  17.2193010  33.8839080 148.9547120  16.2352330  44.5237230
 148.4520720  16.9757730  44.8631040 149.7703780  16.6236330  44.2074020
 147.2469130  21.4785510  37.9698590 146.3059270  21.4935740  38.1446280
 147.5613200  20.6921470  38.4158890 137.2250770  23.1605110  31.5302550
 137.9914040  23.0486470  32.0927980 137.3025460  22.4643080  30.8779320
 135.9197530  20.5930180  32.2135440 136.0001120  19.6457690  32.3252840
 136.8117280  20.9237060  32.3196100 149.2494710  28.6494360  39.6452850
 149.3742130  29.4725530  40.1176660 150.1160270  28.4385090  39.2977000
 136.7212240  30.7425570  39.3169980 137.4574720  30.1941030  39.5878550
 137.1053160  31.6081580  39.1775970 133.6057720  26.8099140  35.1911490
 132.6797500  27.0520280  35.1816900 134.0714150  27.6373400  35.0696240
 135.7270520  29.9271640  48.5055560 136.5283250  30.2483690  48.9190960
 135.2122340  29.5667220  49.2275470 139.8314550  29.9155880  31.1395550
 140.6243160  30.2044710  30.6877340 139.3118900  29.4848050  30.4608030
 144.5635150  26.0351510  48.4530970 143.9573310  26.0583110  47.7126720
 144.2589260  25.3034550  48.9898220 145.9935520  29.7631800  47.0640380
 146.9457270  29.6789820  47.0140620 145.8463740  30.4273510  47.7374170
 148.8844720  29.1426010  32.5632290 148.5986230  28.7291150  31.7486470
 148.6864270  30.0713720  32.4432810 133.4468330  22.4145100  47.4491610
 133.9507350  21.8352380  48.0207840 132.7075750  22.6985330  47.9867980
 140.3491950  25.1359290  31.0037900 140.2442590  24.5211640  31.7299280
 140.1816170  24.6125180  30.2200910 140.5006270  23.8216090  46.9827130
 139.7351940  24.3901090  46.8981800 140.6822230  23.5292300  46.0895360
 143.5894680  24.1979320  31.6079890 143.0404780  24.6448620  32.2522630
 144.2113940  23.6928570  32.1317560 147.6429620  25.5521420  47.5402150
 148.3839090  25.8897180  47.0369610 146.8802300  25.7213480  46.9871920
 135.4791410  20.5574690  48.3441680 135.5196750  20.2588560  49.2526910
 136.3336910  20.9582300  48.1849200 139.2569800  23.1570240  33.5045190
 139.6786220  22.9910110  34.3476580 139.3820640  22.3470470  33.0100330
 137.4197220  19.1366790  46.3116170 136.8893680  18.6457740  45.6839510
 138.0885290  19.5650990  45.7774100 141.7697440  22.1807850  30.7522290
 142.2903100  21.4656870  30.3863440 142.4165840  22.8193720  31.0522800
 146.3175280  23.6036250  46.0757360 146.7316300  23.7581330  46.9247780
 145.3826280  23.7291470  46.2383140 146.7897450  20.9432410  48.0796510
 147.3718220  20.1884730  47.9916990 146.9659220  21.4739850  47.3027990
 137.9069520  16.1029160  46.3913460 137.8126390  15.4849910  45.6664330
 137.3266910  16.8295450  46.1643370 140.6730960  14.6602400  43.4240850
 140.2248260  14.6826660  42.5786400 140.0396160  14.2621420  44.0211150
 141.0790510  23.5556730  44.0453290 141.4978620  24.3989460  43.8729530
 140.1599140  23.6928770  43.8160070 143.4154410  21.2872910  45.4291130
 143.5350620  20.6914050  46.1685970 144.2748410  21.3242600  45.0092430
 145.7542310  21.8410100  44.0053640 145.2277530  22.3652720  43.4018780
 146.0973650  22.4737490  44.6363370 138.1528700  19.2303470  30.4503350
 137.9517760  18.3670830  30.8116690 137.9820750  19.1436830  29.5124950
 138.9297930  29.8609740  45.1611020 138.3919020  30.5855800  44.8419720
 139.1831890  29.3840080  44.3708360 140.1823180  17.8294260  46.6866950
 140.7722870  17.5210110  47.3744770 139.3643420  17.3574010  46.8426850
 145.0016610  17.4460070  46.9199970 144.3132130  16.7841610  46.8549960
 145.7222630  16.9998340  47.3648430 145.6317010  14.0411700  32.9790230
 145.9119300  13.1979600  33.3349650 144.8582740  14.2734810  33.4928980
 136.9511500  16.3304090  30.4381230 137.2537400  16.3371520  29.5300380
 137.6906090  15.9801950  30.9348890 141.7860140  31.0960950  45.4197670
 141.7118840  31.9996090  45.7270040 140.8838980  30.7772850  45.3919740
 140.1696430  15.2738710  31.4237430 139.8218430  14.5962700  30.8439880
 140.3709200  14.8128220  32.2380820 142.3345470  30.2619460  33.0424030
 143.2296260  30.6004430  33.0642790 142.3663100  29.5398870  32.4148310
 135.9741630  25.6346510  31.2711030 136.4116500  26.1776180  31.9268610
 136.4589360  24.8093460  31.2807370 133.1887430  28.4235540  38.7231290
 133.5190440  27.5556600  38.4909930 133.6178430  28.6294060  39.5536250
 137.7849350  26.7544550  36.3833260 137.4844890  26.6309520  37.2837170
 137.6786840  25.8953140  35.9748990 133.6777640  29.2906130  41.4612920
 133.2408630  29.4706930  42.2937070 134.2455320  30.0480750  41.3194640
 149.3139820  28.7923130  45.7490230 148.7141810  28.8515690  45.0054150
 149.4433720  27.8528110  45.8787080 133.5102070  21.8026360  37.8201800
 132.8550910  21.5338000  37.1761500 134.3480020  21.6930840  37.3703780
 147.9991460  25.5175110  43.8466390 147.1851300  25.9472270  44.1092180
 148.4065660  26.1293520  43.2335440 150.0616900  23.5722800  30.7466660
 150.3365740  24.4801680  30.6185880 149.8727640  23.5085330  31.6828650
 146.4592510  16.5967650  32.0420290 146.8777390  16.4098630  31.2016950
 146.1528570  15.7446700  32.3523220 149.9582240  21.5091790  35.7396090
 149.5825840  20.7419720  35.3077380 149.2285360  21.8914490  36.2271020
 134.5478000  22.1878930  42.3605140 134.9151040  22.1006330  43.2401160
 133.9788820  21.4245480  42.2612000 149.3481860  20.6563310  45.3735610
 149.1167950  20.4276060  44.4733560 149.6086410  21.5762860  45.3280500
 134.0994000  19.0988020  46.2663560 133.2050050  19.0654780  46.6057270
 134.6391550  19.2974810  47.0314810 147.7869930  15.8819740  48.1515310
 148.6640110  15.8903140  48.5349310 147.7990770  15.1450580  47.5407660
 132.7240150  19.0125290  33.7627130 131.8204230  19.2755490  33.5878790
 133.2080770  19.2836460  32.9827090 149.2333200  19.7349280  39.0403330
 149.7570680  19.2411930  38.4093500 149.8192620  19.8699640  39.7850900
 149.4122920  19.8189150  42.5622880 148.4625630  19.7852690  42.6767870
 149.5935930  20.7289260  42.3272650 135.2667360  18.0690830  31.6721510
 135.9759060  17.6474050  31.1868790 134.5507300  18.1366060  31.0404860
 134.9141520  14.1230160  30.7124160 135.6369650  14.6639100  31.0305380
 135.1866040  13.8493580  29.8365700 148.7233170  18.9922630  34.9795740
 149.2192290  18.7593500  35.7644620 148.5249240  18.1534470  34.5633380
 134.6033710  13.3736350  40.6146780 135.2509900  12.8233730  40.1741940
 135.0235550  13.6279500  41.4362590 148.4986050  13.5677710  43.9716420
 149.1358270  14.1811850  44.3375610 148.6460940  13.6038370  43.0265650
 148.0567510  30.2693710  37.3734660 148.6526580  29.9478280  36.6969080
 148.3145660  29.7965530  38.1647930 134.3565710  13.5292020  43.3572100
 134.0080530  13.9855840  44.1230280 134.0253410  12.6349150  43.4394530
 135.9630080  26.7011620  47.5225290 135.9199710  26.3304530  48.4039750
 136.0941090  27.6389190  47.6627110 139.6636110  28.2571210  43.1235010
 139.4227470  28.5245770  42.2365530 140.6038750  28.4276940  43.1785870
 141.8690530  14.7203900  46.8791520 141.8079420  15.3125730  47.6286930
 142.8090910  14.6129860  46.7341780 144.5065090  14.3773960  46.5183810
 145.1205500  14.6953250  45.8564890 145.0514650  13.8922550  47.1379670
 135.0286350  13.0568220  46.6322870 135.5769340  12.8756270  45.8688980
 135.0941660  12.2662330  47.1679180 135.8018110  29.6473870  44.6423070
 135.2078430  29.5158570  45.3813110 135.7941950  28.8112010  44.1765170
 145.2473130  12.9406100  42.8453100 144.3732970  13.2741210  42.6426030
 145.1383880  12.4679280  43.6704970 146.1545110  15.1476970  44.2294820
 145.8258470  14.3328730  43.8496550 147.1027410  15.1046780  44.1060510
 148.6079720  30.9189010  41.2032390 148.1482690  31.6704820  40.8290410
 147.9792180  30.1995480  41.1447190 135.4330340  27.0132250  43.5931110
 134.7064400  26.3937540  43.5257060 135.4939490  27.4072860  42.7229190
 139.0375440  29.2277250  40.3780520 139.5540460  28.6164610  39.8528780
 139.6872820  29.7306030  40.8691530 141.7770940  30.1185740  41.2049500
 142.0648750  29.8640040  40.3282510 142.2894160  29.5663100  41.7955070
 142.9947950  13.8575940  41.7846010 142.2119740  14.3321440  42.0642770
 142.7010880  12.9530770  41.6759190 147.5469020  14.5599040  39.8295100
 147.9877110  14.5044140  38.9816700 147.2776610  15.4757050  39.9005280
 149.4107590  14.1914280  37.8403920 149.3495990  13.2475500  37.6934940
 150.1899620  14.2994370  38.3857380 133.7160340  30.3306640  36.8027870
 133.5482380  29.6977320  37.5009760 132.8494850  30.5366040  36.4522060
 134.3388360  14.1623420  34.3059730 135.0967720  14.2752300  33.7323760
 133.8765530  14.9992620  34.2603160 140.8802170  16.2762690  37.2962040
 140.0676680  15.9019580  36.9557920 141.3843810  15.5207770  37.5983230
 145.3827150  12.9405140  38.5345110 145.9856520  13.5125350  39.0093630
 144.6420140  13.5044580  38.3119010 148.5261750  13.3426700  33.8085390
 148.7212380  14.2410150  34.0752820 147.7391620  13.1113780  34.3018340
 135.3223040  29.0239870  34.2478010 134.7970660  29.4047900  33.5439970
 135.2467620  29.6490640  34.9687720 136.7113510  14.6887470  32.8461700
 137.2406270  13.9017270  32.7169650 137.3441830  15.3678660  33.0797230
 138.9051350  14.4262610  35.9007090 138.2754090  13.7249920  36.0677220
 138.3656490  15.1866740  35.6840250 141.8443300  31.0401840  48.5717700
 142.7710610  30.8046110  48.6153660 141.8293730  31.8673840  48.0903730
 150.0788360  30.5827410  35.5691950 150.2540550  29.8965150  34.9252870
 149.3809930  31.1074460  35.1768620 139.0306910  13.7046590  48.3359580
 138.7491180  14.2080190  47.5720400 139.4126610  12.9068340  47.9701710
 137.9216010  30.9722250  33.1227260 138.6534830  30.6881530  32.5751150
 138.1809680  30.7335530  34.0126640 137.0830800  27.0886980  33.1273590
 136.4539680  27.5572080  33.6759420 137.1978630  26.2436200  33.5619780
 145.6322370  13.1200170  48.9140050 145.5187820  13.4394780  49.8091570
 146.4492110  13.5212680  48.6177330 148.4120860  30.2671700  48.3958740
 149.2046180  29.7720930  48.1884700 148.7054010  30.9461840  49.0034350
 144.5380520  21.1392640  19.2774790 144.4574570  20.2247250  19.0066500
 144.1244940  21.6359710  18.5714500 142.6698560  22.9171660  21.1584060
 141.8940660  22.4372100  21.4482630 143.3211490  22.2377310  20.9840220
 136.6864390  23.2291470  22.0359820 135.8549270  22.9740180  22.4356330
 137.2945370  23.3002240  22.7717740 146.6905990  27.3231850  19.9383190
 146.2287520  26.5519090  20.2670360 147.5031540  27.3497920  20.4435640
 136.6665650  27.2631560  22.2317840 136.9693690  26.3729300  22.0528060
 137.4109240  27.8201780  22.0040090 135.0956340  18.1893360  15.8202210
 134.2073040  18.5309330  15.7182090 135.3797530  17.9893680  14.9283040
 133.0589350  20.7899010  21.7041910 133.6305460  20.0221210  21.7045550
 133.0590890  21.0887770  20.7948520 142.9169300  29.6089860  19.5587180
 142.2980740  30.0647360  18.9881620 143.7721080  29.7641320  19.1576880
 142.1107550  25.5928850  21.1654220 142.0415830  24.6518790  21.0043350
 142.8727410  25.6830260  21.7376790 134.3014220  16.1983370  23.4910840
 134.1217060  15.3009120  23.7713600 133.8994300  16.7455240  24.1657790
 143.1412720  18.3999230  21.3923150 143.5177540  17.5271110  21.2796820
 143.0432230  18.7357930  20.5013590 137.2717730  16.7724860  16.8540590
 137.3784480  17.6728590  17.1609350 136.3610090  16.7242830  16.5635240
 146.9236840  15.8949670  18.3251490 147.7446460  15.4046240  18.3676970
 146.9570920  16.4847330  19.0783330 134.9200890  18.6943870  22.0993180
 135.6011000  18.9582240  22.7180580 134.6048940  17.8544740  22.4331190
 139.1125460  19.7411230  21.1865770 139.6203680  20.2392200  21.8270790
 139.6438700  18.9646430  21.0105130 137.3961560  14.3809790  25.4529190
 137.3980000  14.8982180  24.6475090 136.5665870  13.9039970  25.4299120
 143.7832650  24.4929100  16.9519090 143.1649920  24.9578550  16.3881810
 144.2955900  25.1856580  17.3688600 138.6464410  24.0204970  23.6302690
 138.3133790  24.6473890  24.2723760 138.8231090  24.5466850  22.8504360
 147.1598320  17.8350050  21.0979030 146.4553890  18.1234940  21.6782140
 147.5210480  18.6450160  20.7378590 137.0776890  16.0919750  23.4599640
 137.4193700  16.9361800  23.1653510 136.1392700  16.2403490  23.5764980
 137.8583510  25.9885770  25.4451870 138.4757510  26.6636850  25.1636320
 136.9976630  26.3973750  25.3539370 133.1515850  25.1785630  14.3258720
 132.7743830  25.6672730  13.5943620 133.4088920  25.8510910  14.9565250
 148.7761100  27.4525180  23.3606510 148.0924620  28.1224290  23.3523180
 149.3155390  27.6505830  22.5951370 140.7604780  13.5802020  19.7844230
 141.0679760  13.0248910  19.0679730 139.8305480  13.7146480  19.6017220
 146.3119840  29.2969310  22.0751690 146.3247000  28.8931600  21.2073950
 145.7595060  30.0716600  21.9713120 147.6065260  26.0185530  17.1641860
 147.4961590  25.0759860  17.2891280 147.6033510  26.3801170  18.0504620
 145.7105280  24.1999150  23.4034300 146.1274070  23.9859260  22.5687760
 146.4345100  24.4571940  23.9742920 143.1485540  21.6450850  16.5204350
 142.2214820  21.5788230  16.7492820 143.3010360  22.5830980  16.4059590
 143.1354620  17.9167850  13.5171510 142.1958290  18.0781810  13.6023970
 143.4537880  18.6353530  12.9707500 149.6567380  22.5986370  23.4950540
 148.8286010  22.6679460  23.0200670 150.2517860  23.1840680  23.0266370
 147.1782830  23.2071150  17.0239600 146.5595250  22.8690700  16.3765900
 147.1607280  22.5630910  17.7318790 146.6209390  19.3855690  24.4405410
 146.2080570  20.2109400  24.6945400 145.8885340  18.8000730  24.2481770
 138.7542180  22.1715590  19.3024080 138.3499180  21.4592840  18.8069980
 138.8405300  21.8268830  20.1912120 139.2223880  25.8583150  21.4663290
 138.9252170  25.2528620  20.7871070 140.1723700  25.8960460  21.3552650
 137.4670800  18.9458800  23.0823120 138.0185390  19.0554140  22.3076370
 137.9814310  19.3196400  23.7978350 147.3109490  29.4315020  25.1286390
 146.8340050  30.2387210  24.9359000 146.6271280  28.7793350  25.2812600
 138.3142310  25.5964840  28.1171090 137.4170840  25.8204810  28.3644490
 138.3395180  25.7199780  27.1682490 145.3547530  22.4457960  14.0312350
 145.7940810  21.6080390  13.8850170 146.0675950  23.0787360  14.1176490
 137.1413530  22.4678160  26.6928460 137.0021300  23.3400960  27.0615860
 136.2594890  22.1250970  26.5476400 143.4642910  27.3854030  17.9993590
 143.9038820  28.1278360  17.5848980 143.4029800  27.6280600  18.9232550
 138.9393880  28.4099860  28.9013610 138.9109310  28.8142810  28.0342040
 138.7758850  27.4810220  28.7385210 148.9364670  13.7000770  12.3453390
 148.6237330  13.7927600  13.2452460 149.6977140  14.2781800  12.2950820
 135.4546810  21.0660570  16.8030730 135.3344410  21.7922660  16.1912000
 135.1447700  20.2963480  16.3258640 133.0932180  24.2375710  22.6099370
 133.1712600  24.3724480  21.6655090 133.7073860  23.5291600  22.8027490
 134.3379810  25.9375900  19.0205550 133.9307890  26.0790490  18.1659150
 135.2292820  25.6536060  18.8176760 150.2941950  26.3839810  27.3577790
 150.4205010  26.1451690  26.4394970 150.3363330  25.5524350  27.8299870
 144.1558690  30.0867810  25.9272600 144.6703360  29.9975820  26.7295030
 143.3127770  30.4327510  26.2200510 146.1313090  30.3723150  15.3556600
 145.9714230  30.0826090  16.2538430 145.9659800  29.5963280  14.8201830
 138.6101470  30.1521680  17.1328220 138.4343950  29.2357220  16.9196020
 137.7557210  30.5108970  17.3726020 145.8339220  27.8810710  13.9154600
 145.1404380  27.8788000  13.2556880 146.5762080  27.4570030  13.4848770
 145.3989150  29.5073420  17.9903090 145.8546100  28.7262800  18.3041710
 145.7381670  30.2180240  18.5344270 150.1465960  18.4372270  28.3227530
 149.5310230  18.9451940  27.7942990 149.8262380  17.5370600  28.2653470
 133.1491700  25.2789880  25.1493830 133.3122740  24.8095240  24.3313200
 133.6144150  24.7713440  25.8142670 137.9210470  14.4095640  20.1854400
 137.4778620  15.1905180  19.8538920 138.4795460  14.7325530  20.8925340
 142.2080280  17.2764160  25.7889720 141.7459650  17.4847180  26.6009660
 141.8058390  16.4623510  25.4860390 147.2084790  18.4973110  26.9186380
 146.3578380  18.1978860  27.2395450 147.0486580  18.7415120  26.0070200
 144.3034500  19.9974860  29.0185170 144.6287910  19.1638610  28.6787400
 145.0914830  20.5203380  29.1663500 141.0369290  14.0306340  15.0660230
 140.4123470  14.0266210  15.7913540 140.9499410  13.1637300  14.6696200
 139.9586370  14.9542970  22.0444000 140.2558700  15.8605800  21.9636020
 140.5071930  14.4661750  21.4303570 137.7124690  19.5329210  17.9135650
 137.4865610  19.3166380  18.8182270 136.9317220  19.9657670  17.5681620
 144.9422450  19.5392580  16.5126300 144.3431340  20.2628380  16.3289920
 145.4902060  19.4769360  15.7302750 140.1523900  20.4314790  28.5795920
 140.0567500  19.4909520  28.4296320 140.9955880  20.6529860  28.1843990
 143.5487320  18.1756120  18.5429580 143.9416890  18.4928320  17.7298270
 143.9104170  17.2968000  18.6574100 135.2834440  16.8428460  26.7329700
 134.8897830  17.6903670  26.9402480 134.5952840  16.2054830  26.9238340
 141.8579490  16.9263430  29.8026440 141.1677810  16.7335630  30.4372530
 142.6011790  17.2098070  30.3350740 132.5851490  14.7656920  20.7659780
 132.2964540  15.3359780  21.4784760 133.3297250  14.2861370  21.1291010
 132.7721720  18.7077040  11.9762500 132.6896390  19.6507800  12.1177490
 132.4204780  18.5651950  11.0974850 144.1342460  20.7661870  22.6380360
 143.4023580  21.2748680  22.9870460 143.7366800  19.9491850  22.3369140
 140.5719850  17.4416070  21.0432850 140.5755910  17.0006020  20.1937390
 141.4670970  17.7633400  21.1504670 136.4222230  17.3242560  20.0027060
 136.0822280  17.8017790  20.7594110 135.6599550  16.8707680  19.6428160
 140.6340000  18.4428150  14.0339610 140.7552820  18.4014630  14.9825430
 140.2488510  19.3052300  13.8786340 144.5968370  16.2195550  22.0503300
 144.6141110  16.6704200  22.8945150 144.3483950  15.3201190  22.2636740
 139.6461500  20.7529290  13.4322910 139.0778400  20.3047540  12.8058820
 140.3550500  21.1122070  12.8988060 148.0239120  13.6327730  27.8889680
 148.3484890  12.9017390  28.4147660 148.0595630  13.3141370  26.9870670
 134.7230680  24.6541310  27.3089640 134.3385470  24.0134980  27.9072600
 135.0342870  25.3577430  27.8784370 140.8727820  21.5017850  22.7898260
 141.2397950  21.0276420  23.5359600 140.6832880  22.3759420  23.1306600
 133.7368310  16.2461540  18.9191730 133.4515230  15.8817210  19.7570350
 133.6747170  15.5142000  18.3054870 138.6627190  20.5426490  25.1082470
 138.3584260  21.4218470  25.3332830 139.6173650  20.6026280  25.1439910
 137.1908980  24.7487480  15.7049320 136.4171240  24.2085100  15.5448040
 137.9203610  24.2294090  15.3667080 147.9496960  23.7452840  21.4975710
 148.6696080  24.2408130  21.1071820 147.7478780  23.0670730  20.8529580
 143.4106900  15.1390800  15.6405100 142.5971510  14.6403970  15.5650410
 143.2168850  15.9789050  15.2241450 143.3315760  23.8161900  27.3844710
 143.2653070  22.8957570  27.1302300 142.7020900  23.9137340  28.0989350
 146.1255290  19.5110450  13.9367260 147.0134910  19.8227680  13.7618600
 146.0960380  18.6382700  13.5447840 137.2346380  24.4167860  19.3428130
 137.7525050  23.6136120  19.2885020 136.7830400  24.3547000  20.1844960
 142.1215880  25.6834140  14.6155430 142.4631580  26.4276370  14.1198750
 141.2928590  25.9965260  14.9780260 134.7190920  21.3829230  26.2553830
 134.3605860  22.0483080  26.8427170 134.4245480  20.5512780  26.6266450
 137.9204040  21.8413470  29.1393380 137.6204180  21.9870650  28.2421200
 138.6915280  21.2818760  29.0466770 143.2632490  26.6382470  27.1348510
 143.2777030  25.7063430  26.9167420 142.5557590  26.7242230  27.7738280
 148.3969560  20.8222290  13.4047120 148.3133280  21.2536510  12.5543560
 149.1163750  21.2820640  13.8373940 149.4743700  23.2789810  26.4817090
 148.7491890  23.8718590  26.2846480 150.0019160  23.2713350  25.6830460
 149.4256810  27.6764550  16.1329250 148.7832970  27.0220170  16.4072970
 149.0387470  28.0819640  15.3569920 145.0043290  25.0049980  19.9800940
 145.3567110  24.4078110  19.3202310 144.1205620  24.6794210  20.1509190
 141.0906570  25.7647670  17.3871350 141.7777700  26.3116880  17.7678940
 140.3038990  26.3088400  17.4220960 133.2298970  21.3820490  12.8788430
 134.0993820  21.6645290  13.1624350 132.7389290  22.1956360  12.7637240
 140.3933780  22.7693700  16.9996710 140.8496560  23.5798950  17.2256900
 140.0421990  22.4516840  17.8315200 142.6966390  28.2800040  24.2289010
 143.3408610  28.4859420  24.9062430 143.0595830  27.5188440  23.7759860
 136.2945560  13.1131350  17.4719230 136.1660190  13.1049250  18.4204150
 135.4707580  13.4514440  17.1210240 143.9698470  26.2832390  22.9466460
 144.6120700  25.5825550  23.0598630 144.4947820  27.0630830  22.7663350
 147.8154190  26.5681010  12.6705600 147.5891770  25.8511450  13.2630240
 147.4250390  26.3193450  11.8327350 145.7436090  27.0827290  26.1502520
 146.0792330  27.6693980  26.8280440 144.8236430  26.9520000  26.3800310
 133.5970220  30.5947870  13.4450060 133.9567860  31.1937210  12.7907330
 133.4562560  31.1407760  14.2185090 133.2939490  14.8722470  26.9325930
 132.5798010  15.0719390  27.5378540 133.7134530  14.0962040  27.3040730
 147.3970440  24.4852950  14.3319760 147.1092140  24.9465640  15.1197640
 148.1922610  24.0250720  14.6003980 133.5812080  28.8602730  27.9192460
 133.6903200  27.9197470  27.7787850 132.9292640  29.1257480  27.2706190
 141.5724670  27.1318620  29.3190580 141.2521540  26.4127860  29.8636270
 140.8983030  27.8073690  29.3926640 139.6138840  27.9779070  14.2623730
 139.6048940  28.7108760  13.6468240 138.6937200  27.7310650  14.3550690
 135.2145480  23.1993960  15.0070490 134.6073430  23.9392860  15.0165790
 135.6894830  23.2893320  14.1808690 144.7878270  17.3644780  24.6827380
 145.1559090  16.5439990  25.0106950 143.9276470  17.4246670  25.0983030
 148.1540300  16.3201720  15.4914940 147.5253460  16.4247390  14.7773170
 147.6592220  16.5398500  16.2808820 142.5998440  28.0407310  12.9248920
 142.7010420  27.8371300  11.9950900 141.7000180  27.7865590  13.1296700
 140.1224330  18.5987670  16.9072820 139.4140480  19.0674010  17.3486430
 140.4068810  17.9409680  17.5418010 141.7480260  20.0184370  24.9065350
 142.2465510  20.4930190  25.5717200 141.8903210  19.0947890  25.1135380
 144.1539760  15.3238330  18.3468610 144.0307540  15.3424460  17.3978120
 145.1024320  15.3717270  18.4667010 141.2416550  30.5593630  17.6196590
 141.4958050  30.5215020  16.6975960 140.2929030  30.4326960  17.6124840
 138.3259350  16.9072750  14.2823530 139.1749880  17.3442900  14.2163720
 137.9590620  17.2193010  15.1095590 148.9547120  16.2352330  25.7493740
 148.4520720  16.9757730  26.0887550 149.7703780  16.6236330  25.4330530
 147.2469130  21.4785510  19.1955100 146.3059270  21.4935740  19.3702790
 147.5613200  20.6921470  19.6415400 137.2250770  23.1605110  12.7559060
 137.9914040  23.0486470  13.3184490 137.3025460  22.4643080  12.1035830
 135.9197530  20.5930180  13.4391950 136.0001120  19.6457690  13.5509350
 136.8117280  20.9237060  13.5452610 149.2494710  28.6494360  20.8709360
 149.3742130  29.4725530  21.3433170 150.1160270  28.4385090  20.5233510
 136.7212240  30.7425570  20.5426490 137.4574720  30.1941030  20.8135060
 137.1053160  31.6081580  20.4032480 133.6057720  26.8099140  16.4168000
 132.6797500  27.0520280  16.4073410 134.0714150  27.6373400  16.2952750
 135.7270520  29.9271640  29.7312070 136.5283250  30.2483690  30.1447470
 135.2122340  29.5667220  30.4531980 139.8314550  29.9155880  12.3652060
 140.6243160  30.2044710  11.9133850 139.3118900  29.4848050  11.6864540
 144.5635150  26.0351510  29.6787480 143.9573310  26.0583110  28.9383230
 144.2589260  25.3034550  30.2154730 145.9935520  29.7631800  28.2896890
 146.9457270  29.6789820  28.2397130 145.8463740  30.4273510  28.9630680
 148.8844720  29.1426010  13.7888800 148.5986230  28.7291150  12.9742980
 148.6864270  30.0713720  13.6689320 133.4468330  22.4145100  28.6748120
 133.9507350  21.8352380  29.2464350 132.7075750  22.6985330  29.2124490
 140.3491950  25.1359290  12.2294410 140.2442590  24.5211640  12.9555790
 140.1816170  24.6125180  11.4457420 140.5006270  23.8216090  28.2083640
 139.7351940  24.3901090  28.1238310 140.6822230  23.5292300  27.3151870
 143.5894680  24.1979320  12.8336400 143.0404780  24.6448620  13.4779140
 144.2113940  23.6928570  13.3574070 147.6429620  25.5521420  28.7658660
 148.3839090  25.8897180  28.2626120 146.8802300  25.7213480  28.2128430
 135.4791410  20.5574690  29.5698190 135.5196750  20.2588560  30.4783420
 136.3336910  20.9582300  29.4105710 139.2569800  23.1570240  14.7301700
 139.6786220  22.9910110  15.5733090 139.3820640  22.3470470  14.2356840
 137.4197220  19.1366790  27.5372680 136.8893680  18.6457740  26.9096020
 138.0885290  19.5650990  27.0030610 141.7697440  22.1807850  11.9778800
 142.2903100  21.4656870  11.6119950 142.4165840  22.8193720  12.2779310
 146.3175280  23.6036250  27.3013870 146.7316300  23.7581330  28.1504290
 145.3826280  23.7291470  27.4639650 146.7897450  20.9432410  29.3053020
 147.3718220  20.1884730  29.2173500 146.9659220  21.4739850  28.5284500
 137.9069520  16.1029160  27.6169970 137.8126390  15.4849910  26.8920840
 137.3266910  16.8295450  27.3899880 140.6730960  14.6602400  24.6497360
 140.2248260  14.6826660  23.8042910 140.0396160  14.2621420  25.2467660
 141.0790510  23.5556730  25.2709800 141.4978620  24.3989460  25.0986040
 140.1599140  23.6928770  25.0416580 143.4154410  21.2872910  26.6547640
 143.5350620  20.6914050  27.3942480 144.2748410  21.3242600  26.2348940
 145.7542310  21.8410100  25.2310150 145.2277530  22.3652720  24.6275290
 146.0973650  22.4737490  25.8619880 138.1528700  19.2303470  11.6759860
 137.9517760  18.3670830  12.0373200 137.9820750  19.1436830  10.7381460
 138.9297930  29.8609740  26.3867530 138.3919020  30.5855800  26.0676230
 139.1831890  29.3840080  25.5964870 140.1823180  17.8294260  27.9123460
 140.7722870  17.5210110  28.6001280 139.3643420  17.3574010  28.0683360
 145.0016610  17.4460070  28.1456480 144.3132130  16.7841610  28.0806470
 145.7222630  16.9998340  28.5904940 145.6317010  14.0411700  14.2046740
 145.9119300  13.1979600  14.5606160 144.8582740  14.2734810  14.7185490
 136.9511500  16.3304090  11.6637740 137.2537400  16.3371520  10.7556890
 137.6906090  15.9801950  12.1605400 141.7860140  31.0960950  26.6454180
 141.7118840  31.9996090  26.9526550 140.8838980  30.7772850  26.6176250
 140.1696430  15.2738710  12.6493940 139.8218430  14.5962700  12.0696390
 140.3709200  14.8128220  13.4637330 142.3345470  30.2619460  14.2680540
 143.2296260  30.6004430  14.2899300 142.3663100  29.5398870  13.6404820
 135.9741630  25.6346510  12.4967540 136.4116500  26.1776180  13.1525120
 136.4589360  24.8093460  12.5063880 133.1887430  28.4235540  19.9487800
 133.5190440  27.5556600  19.7166440 133.6178430  28.6294060  20.7792760
 137.7849350  26.7544550  17.6089770 137.4844890  26.6309520  18.5093680
 137.6786840  25.8953140  17.2005500 133.6777640  29.2906130  22.6869430
 133.2408630  29.4706930  23.5193580 134.2455320  30.0480750  22.5451150
 149.3139820  28.7923130  26.9746740 148.7141810  28.8515690  26.2310660
 149.4433720  27.8528110  27.1043590 133.5102070  21.8026360  19.0458310
 132.8550910  21.5338000  18.4018010 134.3480020  21.6930840  18.5960290
 147.9991460  25.5175110  25.0722900 147.1851300  25.9472270  25.3348690
 148.4065660  26.1293520  24.4591950 150.0616900  23.5722800  11.9723170
 150.3365740  24.4801680  11.8442390 149.8727640  23.5085330  12.9085160
 146.4592510  16.5967650  13.2676800 146.8777390  16.4098630  12.4273460
 146.1528570  15.7446700  13.5779730 149.9582240  21.5091790  16.9652600
 149.5825840  20.7419720  16.5333890 149.2285360  21.8914490  17.4527530
 134.5478000  22.1878930  23.5861650 134.9151040  22.1006330  24.4657670
 133.9788820  21.4245480  23.4868510 149.3481860  20.6563310  26.5992120
 149.1167950  20.4276060  25.6990070 149.6086410  21.5762860  26.5537010
 134.0994000  19.0988020  27.4920070 133.2050050  19.0654780  27.8313780
 134.6391550  19.2974810  28.2571320 147.7869930  15.8819740  29.3771820
 148.6640110  15.8903140  29.7605820 147.7990770  15.1450580  28.7664170
 132.7240150  19.0125290  14.9883640 131.8204230  19.2755490  14.8135300
 133.2080770  19.2836460  14.2083600 149.2333200  19.7349280  20.2659840
 149.7570680  19.2411930  19.6350010 149.8192620  19.8699640  21.0107410
 149.4122920  19.8189150  23.7879390 148.4625630  19.7852690  23.9024380
 149.5935930  20.7289260  23.5529160 135.2667360  18.0690830  12.8978020
 135.9759060  17.6474050  12.4125300 134.5507300  18.1366060  12.2661370
 134.9141520  14.1230160  11.9380670 135.6369650  14.6639100  12.2561890
 135.1866040  13.8493580  11.0622210 148.7233170  18.9922630  16.2052250
 149.2192290  18.7593500  16.9901130 148.5249240  18.1534470  15.7889890
 134.6033710  13.3736350  21.8403290 135.2509900  12.8233730  21.3998450
 135.0235550  13.6279500  22.6619100 148.4986050  13.5677710  25.1972930
 149.1358270  14.1811850  25.5632120 148.6460940  13.6038370  24.2522160
 148.0567510  30.2693710  18.5991170 148.6526580  29.9478280  17.9225590
 148.3145660  29.7965530  19.3904440 134.3565710  13.5292020  24.5828610
 134.0080530  13.9855840  25.3486790 134.0253410  12.6349150  24.6651040
 135.9630080  26.7011620  28.7481800 135.9199710  26.3304530  29.6296260
 136.0941090  27.6389190  28.8883620 139.6636110  28.2571210  24.3491520
 139.4227470  28.5245770  23.4622040 140.6038750  28.4276940  24.4042380
 141.8690530  14.7203900  28.1048030 141.8079420  15.3125730  28.8543440
 142.8090910  14.6129860  27.9598290 144.5065090  14.3773960  27.7440320
 145.1205500  14.6953250  27.0821400 145.0514650  13.8922550  28.3636180
 135.0286350  13.0568220  27.8579380 135.5769340  12.8756270  27.0945490
 135.0941660  12.2662330  28.3935690 135.8018110  29.6473870  25.8679580
 135.2078430  29.5158570  26.6069620 135.7941950  28.8112010  25.4021680
 145.2473130  12.9406100  24.0709610 144.3732970  13.2741210  23.8682540
 145.1383880  12.4679280  24.8961480 146.1545110  15.1476970  25.4551330
 145.8258470  14.3328730  25.0753060 147.1027410  15.1046780  25.3317020
 148.6079720  30.9189010  22.4288900 148.1482690  31.6704820  22.0546920
 147.9792180  30.1995480  22.3703700 135.4330340  27.0132250  24.8187620
 134.7064400  26.3937540  24.7513570 135.4939490  27.4072860  23.9485700
 139.0375440  29.2277250  21.6037030 139.5540460  28.6164610  21.0785290
 139.6872820  29.7306030  22.0948040 141.7770940  30.1185740  22.4306010
 142.0648750  29.8640040  21.5539020 142.2894160  29.5663100  23.0211580
 142.9947950  13.8575940  23.0102520 142.2119740  14.3321440  23.2899280
 142.7010880  12.9530770  22.9015700 147.5469020  14.5599040  21.0551610
 147.9877110  14.5044140  20.2073210 147.2776610  15.4757050  21.1261790
 149.4107590  14.1914280  19.0660430 149.3495990  13.2475500  18.9191450
 150.1899620  14.2994370  19.6113890 133.7160340  30.3306640  18.0284380
 133.5482380  29.6977320  18.7266270 132.8494850  30.5366040  17.6778570
 134.3388360  14.1623420  15.5316240 135.0967720  14.2752300  14.9580270
 133.8765530  14.9992620  15.4859670 140.8802170  16.2762690  18.5218550
 140.0676680  15.9019580  18.1814430 141.3843810  15.5207770  18.8239740
 145.3827150  12.9405140  19.7601620 145.9856520  13.5125350  20.2350140
 144.6420140  13.5044580  19.5375520 148.5261750  13.3426700  15.0341900
 148.7212380  14.2410150  15.3009330 147.7391620  13.1113780  15.5274850
 135.3223040  29.0239870  15.4734520 134.7970660  29.4047900  14.7696480
 135.2467620  29.6490640  16.1944230 136.7113510  14.6887470  14.0718210
 137.2406270  13.9017270  13.9426160 137.3441830  15.3678660  14.3053740
 138.9051350  14.4262610  17.1263600 138.2754090  13.7249920  17.2933730
 138.3656490  15.1866740  16.9096760 141.8443300  31.0401840  29.7974210
 142.7710610  30.8046110  29.8410170 141.8293730  31.8673840  29.3160240
 150.0788360  30.5827410  16.7948460 150.2540550  29.8965150  16.1509380
 149.3809930  31.1074460  16.4025130 139.0306910  13.7046590  29.5616090
 138.7491180  14.2080190  28.7976910 139.4126610  12.9068340  29.1958220
 137.9216010  30.9722250  14.3483770 138.6534830  30.6881530  13.8007660
 138.1809680  30.7335530  15.2383150 137.0830800  27.0886980  14.3530100
 136.4539680  27.5572080  14.9015930 137.1978630  26.2436200  14.7876290
 145.6322370  13.1200170  30.1396560 145.5187820  13.4394780  31.0348080
 146.4492110  13.5212680  29.8433840 148.4120860  30.2671700  29.6215250
 149.2046180  29.7720930  29.4141210 148.7054010  30.9461840  30.2290860
 142.6698560  22.9171660   2.3840570 141.8940660  22.4372100   2.6739140
 143.3211490  22.2377310   2.2096730 136.6864390  23.2291470   3.2616330
 135.8549270  22.9740180   3.6612840 137.2945370  23.3002240   3.9974250
 136.6665650  27.2631560   3.4574350 136.9693690  26.3729300   3.2784570
 137.4109240  27.8201780   3.2296600 133.0589350  20.7899010   2.9298420
 133.6305460  20.0221210   2.9302060 133.0590890  21.0887770   2.0205030
 142.1107550  25.5928850   2.3910730 142.0415830  24.6518790   2.2299860
 142.8727410  25.6830260   2.9633300 134.3014220  16.1983370   4.7167350
 134.1217060  15.3009120   4.9970110 133.8994300  16.7455240   5.3914300
 143.1412720  18.3999230   2.6179660 143.5177540  17.5271110   2.5053330
 143.0432230  18.7357930   1.7270100 134.9200890  18.6943870   3.3249690
 135.6011000  18.9582240   3.9437090 134.6048940  17.8544740   3.6587700
 139.1125460  19.7411230   2.4122280 139.6203680  20.2392200   3.0527300
 139.6438700  18.9646430   2.2361640 137.3961560  14.3809790   6.6785700
 137.3980000  14.8982180   5.8731600 136.5665870  13.9039970   6.6555630
 138.6464410  24.0204970   4.8559200 138.3133790  24.6473890   5.4980270
 138.8231090  24.5466850   4.0760870 147.1598320  17.8350050   2.3235540
 146.4553890  18.1234940   2.9038650 147.5210480  18.6450160   1.9635100
 137.0776890  16.0919750   4.6856150 137.4193700  16.9361800   4.3910020
 136.1392700  16.2403490   4.8021490 137.8583510  25.9885770   6.6708380
 138.4757510  26.6636850   6.3892830 136.9976630  26.3973750   6.5795880
 148.7761100  27.4525180   4.5863020 148.0924620  28.1224290   4.5779690
 149.3155390  27.6505830   3.8207880 146.3119840  29.2969310   3.3008200
 146.3247000  28.8931600   2.4330460 145.7595060  30.0716600   3.1969630
 145.7105280  24.1999150   4.6290810 146.1274070  23.9859260   3.7944270
 146.4345100  24.4571940   5.1999430 149.6567380  22.5986370   4.7207050
 148.8286010  22.6679460   4.2457180 150.2517860  23.1840680   4.2522880
 146.6209390  19.3855690   5.6661920 146.2080570  20.2109400   5.9201910
 145.8885340  18.8000730   5.4738280 139.2223880  25.8583150   2.6919800
 138.9252170  25.2528620   2.0127580 140.1723700  25.8960460   2.5809160
 137.4670800  18.9458800   4.3079630 138.0185390  19.0554140   3.5332880
 137.9814310  19.3196400   5.0234860 147.3109490  29.4315020   6.3542900
 146.8340050  30.2387210   6.1615510 146.6271280  28.7793350   6.5069110
 138.3142310  25.5964840   9.3427600 137.4170840  25.8204810   9.5901000
 138.3395180  25.7199780   8.3939000 137.1413530  22.4678160   7.9184970
 137.0021300  23.3400960   8.2872370 136.2594890  22.1250970   7.7732910
 138.9393880  28.4099860  10.1270120 138.9109310  28.8142810   9.2598550
 138.7758850  27.4810220   9.9641720 133.0932180  24.2375710   3.8355880
 133.1712600  24.3724480   2.8911600 133.7073860  23.5291600   4.0284000
 150.2941950  26.3839810   8.5834300 150.4205010  26.1451690   7.6651480
 150.3363330  25.5524350   9.0556380 144.1558690  30.0867810   7.1529110
 144.6703360  29.9975820   7.9551540 143.3127770  30.4327510   7.4457020
 150.1465960  18.4372270   9.5484040 149.5310230  18.9451940   9.0199500
 149.8262380  17.5370600   9.4909980 133.1491700  25.2789880   6.3750340
 133.3122740  24.8095240   5.5569710 133.6144150  24.7713440   7.0399180
 142.2080280  17.2764160   7.0146230 141.7459650  17.4847180   7.8266170
 141.8058390  16.4623510   6.7116900 147.2084790  18.4973110   8.1442890
 146.3578380  18.1978860   8.4651960 147.0486580  18.7415120   7.2326710
 144.3034500  19.9974860  10.2441680 144.6287910  19.1638610   9.9043910
 145.0914830  20.5203380  10.3920010 139.9586370  14.9542970   3.2700510
 140.2558700  15.8605800   3.1892530 140.5071930  14.4661750   2.6560080
 140.1523900  20.4314790   9.8052430 140.0567500  19.4909520   9.6552830
 140.9955880  20.6529860   9.4100500 135.2834440  16.8428460   7.9586210
 134.8897830  17.6903670   8.1658990 134.5952840  16.2054830   8.1494850
 141.8579490  16.9263430  11.0282950 141.1677810  16.7335630  11.6629040
 142.6011790  17.2098070  11.5607250 132.5851490  14.7656920   1.9916290
 132.2964540  15.3359780   2.7041270 133.3297250  14.2861370   2.3547520
 144.1342460  20.7661870   3.8636870 143.4023580  21.2748680   4.2126970
 143.7366800  19.9491850   3.5625650 140.5719850  17.4416070   2.2689360
 140.5755910  17.0006020   1.4193900 141.4670970  17.7633400   2.3761180
 144.5968370  16.2195550   3.2759810 144.6141110  16.6704200   4.1201660
 144.3483950  15.3201190   3.4893250 148.0239120  13.6327730   9.1146190
 148.3484890  12.9017390   9.6404170 148.0595630  13.3141370   8.2127180
 134.7230680  24.6541310   8.5346150 134.3385470  24.0134980   9.1329110
 135.0342870  25.3577430   9.1040880 140.8727820  21.5017850   4.0154770
 141.2397950  21.0276420   4.7616110 140.6832880  22.3759420   4.3563110
 138.6627190  20.5426490   6.3338980 138.3584260  21.4218470   6.5589340
 139.6173650  20.6026280   6.3696420 147.9496960  23.7452840   2.7232220
 148.6696080  24.2408130   2.3328330 147.7478780  23.0670730   2.0786090
 143.3315760  23.8161900   8.6101220 143.2653070  22.8957570   8.3558810
 142.7020900  23.9137340   9.3245860 134.7190920  21.3829230   7.4810340
 134.3605860  22.0483080   8.0683680 134.4245480  20.5512780   7.8522960
 137.9204040  21.8413470  10.3649890 137.6204180  21.9870650   9.4677710
 138.6915280  21.2818760  10.2723280 143.2632490  26.6382470   8.3605020
 143.2777030  25.7063430   8.1423930 142.5557590  26.7242230   8.9994790
 149.4743700  23.2789810   7.7073600 148.7491890  23.8718590   7.5102990
 150.0019160  23.2713350   6.9086970 142.6966390  28.2800040   5.4545520
 143.3408610  28.4859420   6.1318940 143.0595830  27.5188440   5.0016370
 143.9698470  26.2832390   4.1722970 144.6120700  25.5825550   4.2855140
 144.4947820  27.0630830   3.9919860 145.7436090  27.0827290   7.3759030
 146.0792330  27.6693980   8.0536950 144.8236430  26.9520000   7.6056820
 133.2939490  14.8722470   8.1582440 132.5798010  15.0719390   8.7635050
 133.7134530  14.0962040   8.5297240 133.5812080  28.8602730   9.1448970
 133.6903200  27.9197470   9.0044360 132.9292640  29.1257480   8.4962700
 141.5724670  27.1318620  10.5447090 141.2521540  26.4127860  11.0892780
 140.8983030  27.8073690  10.6183150 144.7878270  17.3644780   5.9083890
 145.1559090  16.5439990   6.2363460 143.9276470  17.4246670   6.3239540
 141.7480260  20.0184370   6.1321860 142.2465510  20.4930190   6.7973710
 141.8903210  19.0947890   6.3391890 148.9547120  16.2352330   6.9750250
 148.4520720  16.9757730   7.3144060 149.7703780  16.6236330   6.6587040
 149.2494710  28.6494360   2.0965870 149.3742130  29.4725530   2.5689680
 150.1160270  28.4385090   1.7490020 136.7212240  30.7425570   1.7683000
 137.4574720  30.1941030   2.0391570 137.1053160  31.6081580   1.6288990
 135.7270520  29.9271640  10.9568580 136.5283250  30.2483690  11.3703980
 135.2122340  29.5667220  11.6788490 144.5635150  26.0351510  10.9043990
 143.9573310  26.0583110  10.1639740 144.2589260  25.3034550  11.4411240
 145.9935520  29.7631800   9.5153400 146.9457270  29.6789820   9.4653640
 145.8463740  30.4273510  10.1887190 133.4468330  22.4145100   9.9004630
 133.9507350  21.8352380  10.4720860 132.7075750  22.6985330  10.4381000
 140.5006270  23.8216090   9.4340150 139.7351940  24.3901090   9.3494820
 140.6822230  23.5292300   8.5408380 147.6429620  25.5521420   9.9915170
 148.3839090  25.8897180   9.4882630 146.8802300  25.7213480   9.4384940
 135.4791410  20.5574690  10.7954700 135.5196750  20.2588560  11.7039930
 136.3336910  20.9582300  10.6362220 137.4197220  19.1366790   8.7629190
 136.8893680  18.6457740   8.1352530 138.0885290  19.5650990   8.2287120
 146.3175280  23.6036250   8.5270380 146.7316300  23.7581330   9.3760800
 145.3826280  23.7291470   8.6896160 146.7897450  20.9432410  10.5309530
 147.3718220  20.1884730  10.4430010 146.9659220  21.4739850   9.7541010
 137.9069520  16.1029160   8.8426480 137.8126390  15.4849910   8.1177350
 137.3266910  16.8295450   8.6156390 140.6730960  14.6602400   5.8753870
 140.2248260  14.6826660   5.0299420 140.0396160  14.2621420   6.4724170
 141.0790510  23.5556730   6.4966310 141.4978620  24.3989460   6.3242550
 140.1599140  23.6928770   6.2673090 143.4154410  21.2872910   7.8804150
 143.5350620  20.6914050   8.6198990 144.2748410  21.3242600   7.4605450
 145.7542310  21.8410100   6.4566660 145.2277530  22.3652720   5.8531800
 146.0973650  22.4737490   7.0876390 138.9297930  29.8609740   7.6124040
 138.3919020  30.5855800   7.2932740 139.1831890  29.3840080   6.8221380
 140.1823180  17.8294260   9.1379970 140.7722870  17.5210110   9.8257790
 139.3643420  17.3574010   9.2939870 145.0016610  17.4460070   9.3712990
 144.3132130  16.7841610   9.3062980 145.7222630  16.9998340   9.8161450
 141.7860140  31.0960950   7.8710690 141.7118840  31.9996090   8.1783060
 140.8838980  30.7772850   7.8432760 133.6777640  29.2906130   3.9125940
 133.2408630  29.4706930   4.7450090 134.2455320  30.0480750   3.7707660
 149.3139820  28.7923130   8.2003250 148.7141810  28.8515690   7.4567170
 149.4433720  27.8528110   8.3300100 147.9991460  25.5175110   6.2979410
 147.1851300  25.9472270   6.5605200 148.4065660  26.1293520   5.6848460
 134.5478000  22.1878930   4.8118160 134.9151040  22.1006330   5.6914180
 133.9788820  21.4245480   4.7125020 149.3481860  20.6563310   7.8248630
 149.1167950  20.4276060   6.9246580 149.6086410  21.5762860   7.7793520
 134.0994000  19.0988020   8.7176580 133.2050050  19.0654780   9.0570290
 134.6391550  19.2974810   9.4827830 147.7869930  15.8819740  10.6028330
 148.6640110  15.8903140  10.9862330 147.7990770  15.1450580   9.9920680
 149.4122920  19.8189150   5.0135900 148.4625630  19.7852690   5.1280890
 149.5935930  20.7289260   4.7785670 134.6033710  13.3736350   3.0659800
 135.2509900  12.8233730   2.6254960 135.0235550  13.6279500   3.8875610
 148.4986050  13.5677710   6.4229440 149.1358270  14.1811850   6.7888630
 148.6460940  13.6038370   5.4778670 134.3565710  13.5292020   5.8085120
 134.0080530  13.9855840   6.5743300 134.0253410  12.6349150   5.8907550
 135.9630080  26.7011620   9.9738310 135.9199710  26.3304530  10.8552770
 136.0941090  27.6389190  10.1140130 139.6636110  28.2571210   5.5748030
 139.4227470  28.5245770   4.6878550 140.6038750  28.4276940   5.6298890
 141.8690530  14.7203900   9.3304540 141.8079420  15.3125730  10.0799950
 142.8090910  14.6129860   9.1854800 144.5065090  14.3773960   8.9696830
 145.1205500  14.6953250   8.3077910 145.0514650  13.8922550   9.5892690
 135.0286350  13.0568220   9.0835890 135.5769340  12.8756270   8.3202000
 135.0941660  12.2662330   9.6192200 135.8018110  29.6473870   7.0936090
 135.2078430  29.5158570   7.8326130 135.7941950  28.8112010   6.6278190
 145.2473130  12.9406100   5.2966120 144.3732970  13.2741210   5.0939050
 145.1383880  12.4679280   6.1217990 146.1545110  15.1476970   6.6807840
 145.8258470  14.3328730   6.3009570 147.1027410  15.1046780   6.5573530
 148.6079720  30.9189010   3.6545410 148.1482690  31.6704820   3.2803430
 147.9792180  30.1995480   3.5960210 135.4330340  27.0132250   6.0444130
 134.7064400  26.3937540   5.9770080 135.4939490  27.4072860   5.1742210
 139.0375440  29.2277250   2.8293540 139.5540460  28.6164610   2.3041800
 139.6872820  29.7306030   3.3204550 141.7770940  30.1185740   3.6562520
 142.0648750  29.8640040   2.7795530 142.2894160  29.5663100   4.2468090
 142.9947950  13.8575940   4.2359030 142.2119740  14.3321440   4.5155790
 142.7010880  12.9530770   4.1272210 147.5469020  14.5599040   2.2808120
 147.9877110  14.5044140   1.4329720 147.2776610  15.4757050   2.3518300
 141.8443300  31.0401840  11.0230720 142.7710610  30.8046110  11.0666680
 141.8293730  31.8673840  10.5416750 139.0306910  13.7046590  10.7872600
 138.7491180  14.2080190  10.0233420 139.4126610  12.9068340  10.4214730
 145.6322370  13.1200170  11.3653070 145.5187820  13.4394780  12.2604590
 146.4492110  13.5212680  11.0690350 148.4120860  30.2671700  10.8471760
 149.2046180  29.7720930  10.6397720 148.7054010  30.9461840  11.4547370
 144.5380520   2.3649150 150.6979220 144.4574570   1.4503760 150.4270930
 144.1244940   2.8616220 149.9918930 142.6698560   4.1428170 152.5788490
 141.8940660   3.6628610 152.8687060 143.3211490   3.4633820 152.4044650
 146.6905990   8.5488360 151.3587620 146.2287520   7.7775600 151.6874790
 147.5031540   8.5754430 151.8640070 142.9169300  10.8346370 150.9791610
 142.2980740  11.2903870 150.4086050 143.7721080  10.9897830 150.5781310
 142.1107550   6.8185360 152.5858650 142.0415830   5.8775300 152.4247780
 142.8727410   6.9086770 153.1581220 143.7832650   5.7185610 148.3723520
 143.1649920   6.1835060 147.8086240 144.2955900   6.4113090 148.7893030
 133.1515850   6.4042140 145.7463150 132.7743830   6.8929240 145.0148050
 133.4088920   7.0767420 146.3769680 147.6065260   7.2442040 148.5846290
 147.4961590   6.3016370 148.7095710 147.6033510   7.6057680 149.4709050
 143.1485540   2.8707360 147.9408780 142.2214820   2.8044740 148.1697250
 143.3010360   3.8087490 147.8264020 147.1782830   4.4327660 148.4444030
 146.5595250   4.0947210 147.7970330 147.1607280   3.7887420 149.1523220
 138.7542180   3.3972100 150.7228510 138.3499180   2.6849350 150.2274410
 138.8405300   3.0525340 151.6116550 139.2223880   7.0839660 152.8867720
 138.9252170   6.4785130 152.2075500 140.1723700   7.1216970 152.7757080
 145.3547530   3.6714470 145.4516780 145.7940810   2.8336900 145.3054600
 146.0675950   4.3043870 145.5380920 143.4642910   8.6110540 149.4198020
 143.9038820   9.3534870 149.0053410 143.4029800   8.8537110 150.3436980
 135.4546810   2.2917080 148.2235160 135.3344410   3.0179170 147.6116430
 135.1447700   1.5219990 147.7463070 134.3379810   7.1632410 150.4409980
 133.9307890   7.3047000 149.5863580 135.2292820   6.8792570 150.2381190
 146.1313090  11.5979660 146.7761030 145.9714230  11.3082600 147.6742860
 145.9659800  10.8219790 146.2406260 138.6101470  11.3778190 148.5532650
 138.4343950  10.4613730 148.3400450 137.7557210  11.7365480 148.7930450
 145.8339220   9.1067220 145.3359030 145.1404380   9.1044510 144.6761310
 146.5762080   8.6826540 144.9053200 145.3989150  10.7329930 149.4107520
 145.8546100   9.9519310 149.7246140 145.7381670  11.4436750 149.9548700
 139.6461500   1.9785800 144.8527340 139.0778400   1.5304050 144.2263250
 140.3550500   2.3378580 144.3192490 137.1908980   5.9743990 147.1253750
 136.4171240   5.4341610 146.9652470 137.9203610   5.4550600 146.7871510
 147.9496960   4.9709350 152.9180140 148.6696080   5.4664640 152.5276250
 147.7478780   4.2927240 152.2734010 137.2346380   5.6424370 150.7632560
 137.7525050   4.8392630 150.7089450 136.7830400   5.5803510 151.6049390
 142.1215880   6.9090650 146.0359860 142.4631580   7.6532880 145.5403180
 141.2928590   7.2221770 146.3984690 148.3969560   2.0478800 144.8251550
 148.3133280   2.4793020 143.9747990 149.1163750   2.5077150 145.2578370
 149.4256810   8.9021060 147.5533680 148.7832970   8.2476680 147.8277400
 149.0387470   9.3076150 146.7774350 145.0043290   6.2306490 151.4005370
 145.3567110   5.6334620 150.7406740 144.1205620   5.9050720 151.5713620
 141.0906570   6.9904180 148.8075780 141.7777700   7.5373390 149.1883370
 140.3038990   7.5344910 148.8425390 133.2298970   2.6077000 144.2992860
 134.0993820   2.8901800 144.5828780 132.7389290   3.4212870 144.1841670
 140.3933780   3.9950210 148.4201140 140.8496560   4.8055460 148.6461330
 140.0421990   3.6773350 149.2519630 147.8154190   7.7937520 144.0910030
 147.5891770   7.0767960 144.6834670 147.4250390   7.5449960 143.2531780
 133.5970220  11.8204380 144.8654490 133.9567860  12.4193720 144.2111760
 133.4562560  12.3664270 145.6389520 147.3970440   5.7109460 145.7524190
 147.1092140   6.1722150 146.5402070 148.1922610   5.2507230 146.0208410
 139.6138840   9.2035580 145.6828160 139.6048940   9.9365270 145.0672670
 138.6937200   8.9567160 145.7755120 135.2145480   4.4250470 146.4274920
 134.6073430   5.1649370 146.4370220 135.6894830   4.5149830 145.6013120
 142.5998440   9.2663820 144.3453350 142.7010420   9.0627810 143.4155330
 141.7000180   9.0122100 144.5501130 141.2416550  11.7850140 149.0401020
 141.4958050  11.7471530 148.1180390 140.2929030  11.6583470 149.0329270
 147.2469130   2.7042020 150.6159530 146.3059270   2.7192250 150.7907220
 147.5613200   1.9177980 151.0619830 137.2250770   4.3861620 144.1763490
 137.9914040   4.2742980 144.7388920 137.3025460   3.6899590 143.5240260
 149.2494710   9.8750870 152.2913790 149.3742130  10.6982040 152.7637600
 150.1160270   9.6641600 151.9437940 136.7212240  11.9682080 151.9630920
 137.4574720  11.4197540 152.2339490 137.1053160  12.8338090 151.8236910
 133.6057720   8.0355650 147.8372430 132.6797500   8.2776790 147.8277840
 134.0714150   8.8629910 147.7157180 139.8314550  11.1412390 143.7856490
 140.6243160  11.4301220 143.3338280 139.3118900  10.7104560 143.1068970
 148.8844720  10.3682520 145.2093230 148.5986230   9.9547660 144.3947410
 148.6864270  11.2970230 145.0893750 140.3491950   6.3615800 143.6498840
 140.2442590   5.7468150 144.3760220 140.1816170   5.8381690 142.8661850
 143.5894680   5.4235830 144.2540830 143.0404780   5.8705130 144.8983570
 144.2113940   4.9185080 144.7778500 139.2569800   4.3826750 146.1506130
 139.6786220   4.2166620 146.9937520 139.3820640   3.5726980 145.6561270
 141.7697440   3.4064360 143.3983230 142.2903100   2.6913380 143.0324380
 142.4165840   4.0450230 143.6983740 142.3345470  11.4875970 145.6884970
 143.2296260  11.8260940 145.7103730 142.3663100  10.7655380 145.0609250
 135.9741630   6.8603020 143.9171970 136.4116500   7.4032690 144.5729550
 136.4589360   6.0349970 143.9268310 133.1887430   9.6492050 151.3692230
 133.5190440   8.7813110 151.1370870 133.6178430   9.8550570 152.1997190
 137.7849350   7.9801060 149.0294200 137.4844890   7.8566030 149.9298110
 137.6786840   7.1209650 148.6209930 133.5102070   3.0282870 150.4662740
 132.8550910   2.7594510 149.8222440 134.3480020   2.9187350 150.0164720
 150.0616900   4.7979310 143.3927600 150.3365740   5.7058190 143.2646820
 149.8727640   4.7341840 144.3289590 149.9582240   2.7348300 148.3857030
 149.5825840   1.9676230 147.9538320 149.2285360   3.1171000 148.8731960
 148.0567510  11.4950220 150.0195600 148.6526580  11.1734790 149.3430020
 148.3145660  11.0222040 150.8108870 133.7160340  11.5563150 149.4488810
 133.5482380  10.9233830 150.1470700 132.8494850  11.7622550 149.0983000
 135.3223040  10.2496380 146.8938950 134.7970660  10.6304410 146.1900910
 135.2467620  10.8747150 147.6148660 150.0788360  11.8083920 148.2152890
 150.2540550  11.1221660 147.5713810 149.3809930  12.3330970 147.8229560
 137.9216010  12.1978760 145.7688200 138.6534830  11.9138040 145.2212090
 138.1809680  11.9592040 146.6587580 137.0830800   8.3143490 145.7734530
 136.4539680   8.7828590 146.3220360 137.1978630   7.4692710 146.2080720
 144.5380520   2.3649150 131.9235730 144.4574570   1.4503760 131.6527440
 144.1244940   2.8616220 131.2175440 142.6698560   4.1428170 133.8045000
 141.8940660   3.6628610 134.0943570 143.3211490   3.4633820 133.6301160
 136.6864390   4.4547980 134.6820760 135.8549270   4.1996690 135.0817270
 137.2945370   4.5258750 135.4178680 146.6905990   8.5488360 132.5844130
 146.2287520   7.7775600 132.9131300 147.5031540   8.5754430 133.0896580
 136.6665650   8.4888070 134.8778780 136.9693690   7.5985810 134.6989000
 137.4109240   9.0458290 134.6501030 142.9169300  10.8346370 132.2048120
 142.2980740  11.2903870 131.6342560 143.7721080  10.9897830 131.8037820
 142.1107550   6.8185360 133.8115160 142.0415830   5.8775300 133.6504290
 142.8727410   6.9086770 134.3837730 143.7832650   5.7185610 129.5980030
 143.1649920   6.1835060 129.0342750 144.2955900   6.4113090 130.0149540
 138.6464410   5.2461480 136.2763630 138.3133790   5.8730400 136.9184700
 138.8231090   5.7723360 135.4965300 137.8583510   7.2142280 138.0912810
 138.4757510   7.8893360 137.8097260 136.9976630   7.6230260 138.0000310
 133.1515850   6.4042140 126.9719660 132.7743830   6.8929240 126.2404560
 133.4088920   7.0767420 127.6026190 148.7761100   8.6781690 136.0067450
 148.0924620   9.3480800 135.9984120 149.3155390   8.8762340 135.2412310
 146.3119840  10.5225820 134.7212630 146.3247000  10.1188110 133.8534890
 145.7595060  11.2973110 134.6174060 147.6065260   7.2442040 129.8102800
 147.4961590   6.3016370 129.9352220 147.6033510   7.6057680 130.6965560
 145.7105280   5.4255660 136.0495240 146.1274070   5.2115770 135.2148700
 146.4345100   5.6828450 136.6203860 143.1485540   2.8707360 129.1665290
 142.2214820   2.8044740 129.3953760 143.3010360   3.8087490 129.0520530
 149.6567380   3.8242880 136.1411480 148.8286010   3.8935970 135.6661610
 150.2517860   4.4097190 135.6727310 147.1782830   4.4327660 129.6700540
 146.5595250   4.0947210 129.0226840 147.1607280   3.7887420 130.3779730
 138.7542180   3.3972100 131.9485020 138.3499180   2.6849350 131.4530920
 138.8405300   3.0525340 132.8373060 139.2223880   7.0839660 134.1124230
 138.9252170   6.4785130 133.4332010 140.1723700   7.1216970 134.0013590
 147.3109490  10.6571530 137.7747330 146.8340050  11.4643720 137.5819940
 146.6271280  10.0049860 137.9273540 138.3142310   6.8221350 140.7632030
 137.4170840   7.0461320 141.0105430 138.3395180   6.9456290 139.8143430
 145.3547530   3.6714470 126.6773290 145.7940810   2.8336900 126.5311110
 146.0675950   4.3043870 126.7637430 137.1413530   3.6934670 139.3389400
 137.0021300   4.5657470 139.7076800 136.2594890   3.3507480 139.1937340
 143.4642910   8.6110540 130.6454530 143.9038820   9.3534870 130.2309920
 143.4029800   8.8537110 131.5693490 138.9393880   9.6356370 141.5474550
 138.9109310  10.0399320 140.6802980 138.7758850   8.7066730 141.3846150
 135.4546810   2.2917080 129.4491670 135.3344410   3.0179170 128.8372940
 135.1447700   1.5219990 128.9719580 133.0932180   5.4632220 135.2560310
 133.1712600   5.5980990 134.3116030 133.7073860   4.7548110 135.4488430
 134.3379810   7.1632410 131.6666490 133.9307890   7.3047000 130.8120090
 135.2292820   6.8792570 131.4637700 150.2941950   7.6096320 140.0038730
 150.4205010   7.3708200 139.0855910 150.3363330   6.7780860 140.4760810
 144.1558690  11.3124320 138.5733540 144.6703360  11.2232330 139.3755970
 143.3127770  11.6584020 138.8661450 146.1313090  11.5979660 128.0017540
 145.9714230  11.3082600 128.8999370 145.9659800  10.8219790 127.4662770
 138.6101470  11.3778190 129.7789160 138.4343950  10.4613730 129.5656960
 137.7557210  11.7365480 130.0186960 145.8339220   9.1067220 126.5615540
 145.1404380   9.1044510 125.9017820 146.5762080   8.6826540 126.1309710
 145.3989150  10.7329930 130.6364030 145.8546100   9.9519310 130.9502650
 145.7381670  11.4436750 131.1805210 133.1491700   6.5046390 137.7954770
 133.3122740   6.0351750 136.9774140 133.6144150   5.9969950 138.4603610
 139.6461500   1.9785800 126.0783850 139.0778400   1.5304050 125.4519760
 140.3550500   2.3378580 125.5449000 134.7230680   5.8797820 139.9550580
 134.3385470   5.2391490 140.5533540 135.0342870   6.5833940 140.5245310
 140.8727820   2.7274360 135.4359200 141.2397950   2.2532930 136.1820540
 140.6832880   3.6015930 135.7767540 138.6627190   1.7683000 137.7543410
 138.3584260   2.6474980 137.9793770 139.6173650   1.8282790 137.7900850
 137.1908980   5.9743990 128.3510260 136.4171240   5.4341610 128.1908980
 137.9203610   5.4550600 128.0128020 147.9496960   4.9709350 134.1436650
 148.6696080   5.4664640 133.7532760 147.7478780   4.2927240 133.4990520
 143.3315760   5.0418410 140.0305650 143.2653070   4.1214080 139.7763240
 142.7020900   5.1393850 140.7450290 137.2346380   5.6424370 131.9889070
 137.7525050   4.8392630 131.9345960 136.7830400   5.5803510 132.8305900
 142.1215880   6.9090650 127.2616370 142.4631580   7.6532880 126.7659690
 141.2928590   7.2221770 127.6241200 134.7190920   2.6085740 138.9014770
 134.3605860   3.2739590 139.4888110 134.4245480   1.7769290 139.2727390
 137.9204040   3.0669980 141.7854320 137.6204180   3.2127160 140.8882140
 138.6915280   2.5075270 141.6927710 143.2632490   7.8638980 139.7809450
 143.2777030   6.9319940 139.5628360 142.5557590   7.9498740 140.4199220
 148.3969560   2.0478800 126.0508060 148.3133280   2.4793020 125.2004500
 149.1163750   2.5077150 126.4834880 149.4743700   4.5046320 139.1278030
 148.7491890   5.0975100 138.9307420 150.0019160   4.4969860 138.3291400
 149.4256810   8.9021060 128.7790190 148.7832970   8.2476680 129.0533910
 149.0387470   9.3076150 128.0030860 145.0043290   6.2306490 132.6261880
 145.3567110   5.6334620 131.9663250 144.1205620   5.9050720 132.7970130
 141.0906570   6.9904180 130.0332290 141.7777700   7.5373390 130.4139880
 140.3038990   7.5344910 130.0681900 133.2298970   2.6077000 125.5249370
 134.0993820   2.8901800 125.8085290 132.7389290   3.4212870 125.4098180
 140.3933780   3.9950210 129.6457650 140.8496560   4.8055460 129.8717840
 140.0421990   3.6773350 130.4776140 142.6966390   9.5056550 136.8749950
 143.3408610   9.7115930 137.5523370 143.0595830   8.7444950 136.4220800
 143.9698470   7.5088900 135.5927400 144.6120700   6.8082060 135.7059570
 144.4947820   8.2887340 135.4124290 147.8154190   7.7937520 125.3166540
 147.5891770   7.0767960 125.9091180 147.4250390   7.5449960 124.4788290
 145.7436090   8.3083800 138.7963460 146.0792330   8.8950490 139.4741380
 144.8236430   8.1776510 139.0261250 133.5970220  11.8204380 126.0911000
 133.9567860  12.4193720 125.4368270 133.4562560  12.3664270 126.8646030
 147.3970440   5.7109460 126.9780700 147.1092140   6.1722150 127.7658580
 148.1922610   5.2507230 127.2464920 133.5812080  10.0859240 140.5653400
 133.6903200   9.1453980 140.4248790 132.9292640  10.3513990 139.9167130
 141.5724670   8.3575130 141.9651520 141.2521540   7.6384370 142.5097210
 140.8983030   9.0330200 142.0387580 139.6138840   9.2035580 126.9084670
 139.6048940   9.9365270 126.2929180 138.6937200   8.9567160 127.0011630
 135.2145480   4.4250470 127.6531430 134.6073430   5.1649370 127.6626730
 135.6894830   4.5149830 126.8269630 142.5998440   9.2663820 125.5709860
 142.7010420   9.0627810 124.6411840 141.7000180   9.0122100 125.7757640
 141.2416550  11.7850140 130.2657530 141.4958050  11.7471530 129.3436900
 140.2929030  11.6583470 130.2585780 147.2469130   2.7042020 131.8416040
 146.3059270   2.7192250 132.0163730 147.5613200   1.9177980 132.2876340
 137.2250770   4.3861620 125.4020000 137.9914040   4.2742980 125.9645430
 137.3025460   3.6899590 124.7496770 149.2494710   9.8750870 133.5170300
 149.3742130  10.6982040 133.9894110 150.1160270   9.6641600 133.1694450
 136.7212240  11.9682080 133.1887430 137.4574720  11.4197540 133.4596000
 137.1053160  12.8338090 133.0493420 133.6057720   8.0355650 129.0628940
 132.6797500   8.2776790 129.0534350 134.0714150   8.8629910 128.9413690
 135.7270520  11.1528150 142.3773010 136.5283250  11.4740200 142.7908410
 135.2122340  10.7923730 143.0992920 139.8314550  11.1412390 125.0113000
 140.6243160  11.4301220 124.5594790 139.3118900  10.7104560 124.3325480
 144.5635150   7.2608020 142.3248420 143.9573310   7.2839620 141.5844170
 144.2589260   6.5291060 142.8615670 145.9935520  10.9888310 140.9357830
 146.9457270  10.9046330 140.8858070 145.8463740  11.6530020 141.6091620
 148.8844720  10.3682520 126.4349740 148.5986230   9.9547660 125.6203920
 148.6864270  11.2970230 126.3150260 133.4468330   3.6401610 141.3209060
 133.9507350   3.0608890 141.8925290 132.7075750   3.9241840 141.8585430
 140.3491950   6.3615800 124.8755350 140.2442590   5.7468150 125.6016730
 140.1816170   5.8381690 124.0918360 140.5006270   5.0472600 140.8544580
 139.7351940   5.6157600 140.7699250 140.6822230   4.7548810 139.9612810
 143.5894680   5.4235830 125.4797340 143.0404780   5.8705130 126.1240080
 144.2113940   4.9185080 126.0035010 147.6429620   6.7777930 141.4119600
 148.3839090   7.1153690 140.9087060 146.8802300   6.9469990 140.8589370
 135.4791410   1.7831200 142.2159130 135.5196750   1.4845070 143.1244360
 136.3336910   2.1838810 142.0566650 139.2569800   4.3826750 127.3762640
 139.6786220   4.2166620 128.2194030 139.3820640   3.5726980 126.8817780
 141.7697440   3.4064360 124.6239740 142.2903100   2.6913380 124.2580890
 142.4165840   4.0450230 124.9240250 146.3175280   4.8292760 139.9474810
 146.7316300   4.9837840 140.7965230 145.3826280   4.9547980 140.1100590
 146.7897450   2.1688920 141.9513960 147.3718220   1.4141240 141.8634440
 146.9659220   2.6996360 141.1745440 141.0790510   4.7813240 137.9170740
 141.4978620   5.6245970 137.7446980 140.1599140   4.9185280 137.6877520
 143.4154410   2.5129420 139.3008580 143.5350620   1.9170560 140.0403420
 144.2748410   2.5499110 138.8809880 145.7542310   3.0666610 137.8771090
 145.2277530   3.5909230 137.2736230 146.0973650   3.6994000 138.5080820
 138.9297930  11.0866250 139.0328470 138.3919020  11.8112310 138.7137170
 139.1831890  10.6096590 138.2425810 141.7860140  12.3217460 139.2915120
 141.7118840  13.2252600 139.5987490 140.8838980  12.0029360 139.2637190
 142.3345470  11.4875970 126.9141480 143.2296260  11.8260940 126.9360240
 142.3663100  10.7655380 126.2865760 135.9741630   6.8603020 125.1428480
 136.4116500   7.4032690 125.7986060 136.4589360   6.0349970 125.1524820
 133.1887430   9.6492050 132.5948740 133.5190440   8.7813110 132.3627380
 133.6178430   9.8550570 133.4253700 137.7849350   7.9801060 130.2550710
 137.4844890   7.8566030 131.1554620 137.6786840   7.1209650 129.8466440
 133.6777640  10.5162640 135.3330370 133.2408630  10.6963440 136.1654520
 134.2455320  11.2737260 135.1912090 149.3139820  10.0179640 139.6207680
 148.7141810  10.0772200 138.8771600 149.4433720   9.0784620 139.7504530
 133.5102070   3.0282870 131.6919250 132.8550910   2.7594510 131.0478950
 134.3480020   2.9187350 131.2421230 147.9991460   6.7431620 137.7183840
 147.1851300   7.1728780 137.9809630 148.4065660   7.3550030 137.1052890
 150.0616900   4.7979310 124.6184110 150.3365740   5.7058190 124.4903330
 149.8727640   4.7341840 125.5546100 149.9582240   2.7348300 129.6113540
 149.5825840   1.9676230 129.1794830 149.2285360   3.1171000 130.0988470
 134.5478000   3.4135440 136.2322590 134.9151040   3.3262840 137.1118610
 133.9788820   2.6501990 136.1329450 149.3481860   1.8819820 139.2453060
 149.1167950   1.6532570 138.3451010 149.6086410   2.8019370 139.1997950
 148.0567510  11.4950220 131.2452110 148.6526580  11.1734790 130.5686530
 148.3145660  11.0222040 132.0365380 135.9630080   7.9268130 141.3942740
 135.9199710   7.5561040 142.2757200 136.0941090   8.8645700 141.5344560
 139.6636110   9.4827720 136.9952460 139.4227470   9.7502280 136.1082980
 140.6038750   9.6533450 137.0503320 135.8018110  10.8730380 138.5140520
 135.2078430  10.7415080 139.2530560 135.7941950  10.0368520 138.0482620
 148.6079720  12.1445520 135.0749840 148.1482690  12.8961330 134.7007860
 147.9792180  11.4251990 135.0164640 135.4330340   8.2388760 137.4648560
 134.7064400   7.6194050 137.3974510 135.4939490   8.6329370 136.5946640
 139.0375440  10.4533760 134.2497970 139.5540460   9.8421120 133.7246230
 139.6872820  10.9562540 134.7408980 141.7770940  11.3442250 135.0766950
 142.0648750  11.0896550 134.1999960 142.2894160  10.7919610 135.6672520
 133.7160340  11.5563150 130.6745320 133.5482380  10.9233830 131.3727210
 132.8494850  11.7622550 130.3239510 135.3223040  10.2496380 128.1195460
 134.7970660  10.6304410 127.4157420 135.2467620  10.8747150 128.8405170
 141.8443300  12.2658350 142.4435150 142.7710610  12.0302620 142.4871110
 141.8293730  13.0930350 141.9621180 150.0788360  11.8083920 129.4409400
 150.2540550  11.1221660 128.7970320 149.3809930  12.3330970 129.0486070
 137.9216010  12.1978760 126.9944710 138.6534830  11.9138040 126.4468600
 138.1809680  11.9592040 127.8844090 137.0830800   8.3143490 126.9991040
 136.4539680   8.7828590 127.5476870 137.1978630   7.4692710 127.4337230
 148.4120860  11.4928210 142.2676190 149.2046180  10.9977440 142.0602150
 148.7054010  12.1718350 142.8751800 144.5380520   2.3649150 113.1492240
 144.4574570   1.4503760 112.8783950 144.1244940   2.8616220 112.4431950
 142.6698560   4.1428170 115.0301510 141.8940660   3.6628610 115.3200080
 143.3211490   3.4633820 114.8557670 136.6864390   4.4547980 115.9077270
 135.8549270   4.1996690 116.3073780 137.2945370   4.5258750 116.6435190
 146.6905990   8.5488360 113.8100640 146.2287520   7.7775600 114.1387810
 147.5031540   8.5754430 114.3153090 136.6665650   8.4888070 116.1035290
 136.9693690   7.5985810 115.9245510 137.4109240   9.0458290 115.8757540
 142.9169300  10.8346370 113.4304630 142.2980740  11.2903870 112.8599070
 143.7721080  10.9897830 113.0294330 142.1107550   6.8185360 115.0371670
 142.0415830   5.8775300 114.8760800 142.8727410   6.9086770 115.6094240
 143.7832650   5.7185610 110.8236540 143.1649920   6.1835060 110.2599260
 144.2955900   6.4113090 111.2406050 138.6464410   5.2461480 117.5020140
 138.3133790   5.8730400 118.1441210 138.8231090   5.7723360 116.7221810
 137.8583510   7.2142280 119.3169320 138.4757510   7.8893360 119.0353770
 136.9976630   7.6230260 119.2256820 133.1515850   6.4042140 108.1976170
 132.7743830   6.8929240 107.4661070 133.4088920   7.0767420 108.8282700
 148.7761100   8.6781690 117.2323960 148.0924620   9.3480800 117.2240630
 149.3155390   8.8762340 116.4668820 146.3119840  10.5225820 115.9469140
 146.3247000  10.1188110 115.0791400 145.7595060  11.2973110 115.8430570
 147.6065260   7.2442040 111.0359310 147.4961590   6.3016370 111.1608730
 147.6033510   7.6057680 111.9222070 145.7105280   5.4255660 117.2751750
 146.1274070   5.2115770 116.4405210 146.4345100   5.6828450 117.8460370
 143.1485540   2.8707360 110.3921800 142.2214820   2.8044740 110.6210270
 143.3010360   3.8087490 110.2777040 149.6567380   3.8242880 117.3667990
 148.8286010   3.8935970 116.8918120 150.2517860   4.4097190 116.8983820
 147.1782830   4.4327660 110.8957050 146.5595250   4.0947210 110.2483350
 147.1607280   3.7887420 111.6036240 138.7542180   3.3972100 113.1741530
 138.3499180   2.6849350 112.6787430 138.8405300   3.0525340 114.0629570
 139.2223880   7.0839660 115.3380740 138.9252170   6.4785130 114.6588520
 140.1723700   7.1216970 115.2270100 147.3109490  10.6571530 119.0003840
 146.8340050  11.4643720 118.8076450 146.6271280  10.0049860 119.1530050
 138.3142310   6.8221350 121.9888540 137.4170840   7.0461320 122.2361940
 138.3395180   6.9456290 121.0399940 145.3547530   3.6714470 107.9029800
 145.7940810   2.8336900 107.7567620 146.0675950   4.3043870 107.9893940
 137.1413530   3.6934670 120.5645910 137.0021300   4.5657470 120.9333310
 136.2594890   3.3507480 120.4193850 143.4642910   8.6110540 111.8711040
 143.9038820   9.3534870 111.4566430 143.4029800   8.8537110 112.7950000
 138.9393880   9.6356370 122.7731060 138.9109310  10.0399320 121.9059490
 138.7758850   8.7066730 122.6102660 135.4546810   2.2917080 110.6748180
 135.3344410   3.0179170 110.0629450 135.1447700   1.5219990 110.1976090
 133.0932180   5.4632220 116.4816820 133.1712600   5.5980990 115.5372540
 133.7073860   4.7548110 116.6744940 134.3379810   7.1632410 112.8923000
 133.9307890   7.3047000 112.0376600 135.2292820   6.8792570 112.6894210
 150.2941950   7.6096320 121.2295240 150.4205010   7.3708200 120.3112420
 150.3363330   6.7780860 121.7017320 144.1558690  11.3124320 119.7990050
 144.6703360  11.2232330 120.6012480 143.3127770  11.6584020 120.0917960
 146.1313090  11.5979660 109.2274050 145.9714230  11.3082600 110.1255880
 145.9659800  10.8219790 108.6919280 138.6101470  11.3778190 111.0045670
 138.4343950  10.4613730 110.7913470 137.7557210  11.7365480 111.2443470
 145.8339220   9.1067220 107.7872050 145.1404380   9.1044510 107.1274330
 146.5762080   8.6826540 107.3566220 145.3989150  10.7329930 111.8620540
 145.8546100   9.9519310 112.1759160 145.7381670  11.4436750 112.4061720
 133.1491700   6.5046390 119.0211280 133.3122740   6.0351750 118.2030650
 133.6144150   5.9969950 119.6860120 139.6461500   1.9785800 107.3040360
 139.0778400   1.5304050 106.6776270 140.3550500   2.3378580 106.7705510
 134.7230680   5.8797820 121.1807090 134.3385470   5.2391490 121.7790050
 135.0342870   6.5833940 121.7501820 140.8727820   2.7274360 116.6615710
 141.2397950   2.2532930 117.4077050 140.6832880   3.6015930 117.0024050
 138.6627190   1.7683000 118.9799920 138.3584260   2.6474980 119.2050280
 139.6173650   1.8282790 119.0157360 137.1908980   5.9743990 109.5766770
 136.4171240   5.4341610 109.4165490 137.9203610   5.4550600 109.2384530
 147.9496960   4.9709350 115.3693160 148.6696080   5.4664640 114.9789270
 147.7478780   4.2927240 114.7247030 143.3315760   5.0418410 121.2562160
 143.2653070   4.1214080 121.0019750 142.7020900   5.1393850 121.9706800
 137.2346380   5.6424370 113.2145580 137.7525050   4.8392630 113.1602470
 136.7830400   5.5803510 114.0562410 142.1215880   6.9090650 108.4872880
 142.4631580   7.6532880 107.9916200 141.2928590   7.2221770 108.8497710
 134.7190920   2.6085740 120.1271280 134.3605860   3.2739590 120.7144620
 134.4245480   1.7769290 120.4983900 137.9204040   3.0669980 123.0110830
 137.6204180   3.2127160 122.1138650 138.6915280   2.5075270 122.9184220
 143.2632490   7.8638980 121.0065960 143.2777030   6.9319940 120.7884870
 142.5557590   7.9498740 121.6455730 148.3969560   2.0478800 107.2764570
 148.3133280   2.4793020 106.4261010 149.1163750   2.5077150 107.7091390
 149.4743700   4.5046320 120.3534540 148.7491890   5.0975100 120.1563930
 150.0019160   4.4969860 119.5547910 149.4256810   8.9021060 110.0046700
 148.7832970   8.2476680 110.2790420 149.0387470   9.3076150 109.2287370
 145.0043290   6.2306490 113.8518390 145.3567110   5.6334620 113.1919760
 144.1205620   5.9050720 114.0226640 141.0906570   6.9904180 111.2588800
 141.7777700   7.5373390 111.6396390 140.3038990   7.5344910 111.2938410
 133.2298970   2.6077000 106.7505880 134.0993820   2.8901800 107.0341800
 132.7389290   3.4212870 106.6354690 140.3933780   3.9950210 110.8714160
 140.8496560   4.8055460 111.0974350 140.0421990   3.6773350 111.7032650
 142.6966390   9.5056550 118.1006460 143.3408610   9.7115930 118.7779880
 143.0595830   8.7444950 117.6477310 143.9698470   7.5088900 116.8183910
 144.6120700   6.8082060 116.9316080 144.4947820   8.2887340 116.6380800
 147.8154190   7.7937520 106.5423050 147.5891770   7.0767960 107.1347690
 147.4250390   7.5449960 105.7044800 145.7436090   8.3083800 120.0219970
 146.0792330   8.8950490 120.6997890 144.8236430   8.1776510 120.2517760
 133.5970220  11.8204380 107.3167510 133.9567860  12.4193720 106.6624780
 133.4562560  12.3664270 108.0902540 147.3970440   5.7109460 108.2037210
 147.1092140   6.1722150 108.9915090 148.1922610   5.2507230 108.4721430
 133.5812080  10.0859240 121.7909910 133.6903200   9.1453980 121.6505300
 132.9292640  10.3513990 121.1423640 141.5724670   8.3575130 123.1908030
 141.2521540   7.6384370 123.7353720 140.8983030   9.0330200 123.2644090
 139.6138840   9.2035580 108.1341180 139.6048940   9.9365270 107.5185690
 138.6937200   8.9567160 108.2268140 135.2145480   4.4250470 108.8787940
 134.6073430   5.1649370 108.8883240 135.6894830   4.5149830 108.0526140
 142.5998440   9.2663820 106.7966370 142.7010420   9.0627810 105.8668350
 141.7000180   9.0122100 107.0014150 141.2416550  11.7850140 111.4914040
 141.4958050  11.7471530 110.5693410 140.2929030  11.6583470 111.4842290
 147.2469130   2.7042020 113.0672550 146.3059270   2.7192250 113.2420240
 147.5613200   1.9177980 113.5132850 137.2250770   4.3861620 106.6276510
 137.9914040   4.2742980 107.1901940 137.3025460   3.6899590 105.9753280
 149.2494710   9.8750870 114.7426810 149.3742130  10.6982040 115.2150620
 150.1160270   9.6641600 114.3950960 136.7212240  11.9682080 114.4143940
 137.4574720  11.4197540 114.6852510 137.1053160  12.8338090 114.2749930
 133.6057720   8.0355650 110.2885450 132.6797500   8.2776790 110.2790860
 134.0714150   8.8629910 110.1670200 135.7270520  11.1528150 123.6029520
 136.5283250  11.4740200 124.0164920 135.2122340  10.7923730 124.3249430
 139.8314550  11.1412390 106.2369510 140.6243160  11.4301220 105.7851300
 139.3118900  10.7104560 105.5581990 144.5635150   7.2608020 123.5504930
 143.9573310   7.2839620 122.8100680 144.2589260   6.5291060 124.0872180
 145.9935520  10.9888310 122.1614340 146.9457270  10.9046330 122.1114580
 145.8463740  11.6530020 122.8348130 148.8844720  10.3682520 107.6606250
 148.5986230   9.9547660 106.8460430 148.6864270  11.2970230 107.5406770
 133.4468330   3.6401610 122.5465570 133.9507350   3.0608890 123.1181800
 132.7075750   3.9241840 123.0841940 140.3491950   6.3615800 106.1011860
 140.2442590   5.7468150 106.8273240 140.1816170   5.8381690 105.3174870
 140.5006270   5.0472600 122.0801090 139.7351940   5.6157600 121.9955760
 140.6822230   4.7548810 121.1869320 143.5894680   5.4235830 106.7053850
 143.0404780   5.8705130 107.3496590 144.2113940   4.9185080 107.2291520
 147.6429620   6.7777930 122.6376110 148.3839090   7.1153690 122.1343570
 146.8802300   6.9469990 122.0845880 135.4791410   1.7831200 123.4415640
 135.5196750   1.4845070 124.3500870 136.3336910   2.1838810 123.2823160
 139.2569800   4.3826750 108.6019150 139.6786220   4.2166620 109.4450540
 139.3820640   3.5726980 108.1074290 141.7697440   3.4064360 105.8496250
 142.2903100   2.6913380 105.4837400 142.4165840   4.0450230 106.1496760
 146.3175280   4.8292760 121.1731320 146.7316300   4.9837840 122.0221740
 145.3826280   4.9547980 121.3357100 146.7897450   2.1688920 123.1770470
 147.3718220   1.4141240 123.0890950 146.9659220   2.6996360 122.4001950
 141.0790510   4.7813240 119.1427250 141.4978620   5.6245970 118.9703490
 140.1599140   4.9185280 118.9134030 143.4154410   2.5129420 120.5265090
 143.5350620   1.9170560 121.2659930 144.2748410   2.5499110 120.1066390
 145.7542310   3.0666610 119.1027600 145.2277530   3.5909230 118.4992740
 146.0973650   3.6994000 119.7337330 138.9297930  11.0866250 120.2584980
 138.3919020  11.8112310 119.9393680 139.1831890  10.6096590 119.4682320
 141.7860140  12.3217460 120.5171630 141.7118840  13.2252600 120.8244000
 140.8838980  12.0029360 120.4893700 142.3345470  11.4875970 108.1397990
 143.2296260  11.8260940 108.1616750 142.3663100  10.7655380 107.5122270
 135.9741630   6.8603020 106.3684990 136.4116500   7.4032690 107.0242570
 136.4589360   6.0349970 106.3781330 133.1887430   9.6492050 113.8205250
 133.5190440   8.7813110 113.5883890 133.6178430   9.8550570 114.6510210
 137.7849350   7.9801060 111.4807220 137.4844890   7.8566030 112.3811130
 137.6786840   7.1209650 111.0722950 133.6777640  10.5162640 116.5586880
 133.2408630  10.6963440 117.3911030 134.2455320  11.2737260 116.4168600
 149.3139820  10.0179640 120.8464190 148.7141810  10.0772200 120.1028110
 149.4433720   9.0784620 120.9761040 133.5102070   3.0282870 112.9175760
 132.8550910   2.7594510 112.2735460 134.3480020   2.9187350 112.4677740
 147.9991460   6.7431620 118.9440350 147.1851300   7.1728780 119.2066140
 148.4065660   7.3550030 118.3309400 150.0616900   4.7979310 105.8440620
 150.3365740   5.7058190 105.7159840 149.8727640   4.7341840 106.7802610
 149.9582240   2.7348300 110.8370050 149.5825840   1.9676230 110.4051340
 149.2285360   3.1171000 111.3244980 134.5478000   3.4135440 117.4579100
 134.9151040   3.3262840 118.3375120 133.9788820   2.6501990 117.3585960
 149.3481860   1.8819820 120.4709570 149.1167950   1.6532570 119.5707520
 149.6086410   2.8019370 120.4254460 148.0567510  11.4950220 112.4708620
 148.6526580  11.1734790 111.7943040 148.3145660  11.0222040 113.2621890
 135.9630080   7.9268130 122.6199250 135.9199710   7.5561040 123.5013710
 136.0941090   8.8645700 122.7601070 139.6636110   9.4827720 118.2208970
 139.4227470   9.7502280 117.3339490 140.6038750   9.6533450 118.2759830
 135.8018110  10.8730380 119.7397030 135.2078430  10.7415080 120.4787070
 135.7941950  10.0368520 119.2739130 148.6079720  12.1445520 116.3006350
 148.1482690  12.8961330 115.9264370 147.9792180  11.4251990 116.2421150
 135.4330340   8.2388760 118.6905070 134.7064400   7.6194050 118.6231020
 135.4939490   8.6329370 117.8203150 139.0375440  10.4533760 115.4754480
 139.5540460   9.8421120 114.9502740 139.6872820  10.9562540 115.9665490
 141.7770940  11.3442250 116.3023460 142.0648750  11.0896550 115.4256470
 142.2894160  10.7919610 116.8929030 133.7160340  11.5563150 111.9001830
 133.5482380  10.9233830 112.5983720 132.8494850  11.7622550 111.5496020
 135.3223040  10.2496380 109.3451970 134.7970660  10.6304410 108.6413930
 135.2467620  10.8747150 110.0661680 141.8443300  12.2658350 123.6691660
 142.7710610  12.0302620 123.7127620 141.8293730  13.0930350 123.1877690
 150.0788360  11.8083920 110.6665910 150.2540550  11.1221660 110.0226830
 149.3809930  12.3330970 110.2742580 137.9216010  12.1978760 108.2201220
 138.6534830  11.9138040 107.6725110 138.1809680  11.9592040 109.1100600
 137.0830800   8.3143490 108.2247550 136.4539680   8.7828590 108.7733380
 137.1978630   7.4692710 108.6593740 148.4120860  11.4928210 123.4932700
 149.2046180  10.9977440 123.2858660 148.7054010  12.1718350 124.1008310
 144.5380520   2.3649150  94.3748750 144.4574570   1.4503760  94.1040460
 144.1244940   2.8616220  93.6688460 142.6698560   4.1428170  96.2558020
 141.8940660   3.6628610  96.5456590 143.3211490   3.4633820  96.0814180
 136.6864390   4.4547980  97.1333780 135.8549270   4.1996690  97.5330290
 137.2945370   4.5258750  97.8691700 146.6905990   8.5488360  95.0357150
 146.2287520   7.7775600  95.3644320 147.5031540   8.5754430  95.5409600
 136.6665650   8.4888070  97.3291800 136.9693690   7.5985810  97.1502020
 137.4109240   9.0458290  97.1014050 142.9169300  10.8346370  94.6561140
 142.2980740  11.2903870  94.0855580 143.7721080  10.9897830  94.2550840
 142.1107550   6.8185360  96.2628180 142.0415830   5.8775300  96.1017310
 142.8727410   6.9086770  96.8350750 143.7832650   5.7185610  92.0493050
 143.1649920   6.1835060  91.4855770 144.2955900   6.4113090  92.4662560
 138.6464410   5.2461480  98.7276650 138.3133790   5.8730400  99.3697720
 138.8231090   5.7723360  97.9478320 137.8583510   7.2142280 100.5425830
 138.4757510   7.8893360 100.2610280 136.9976630   7.6230260 100.4513330
 133.1515850   6.4042140  89.4232680 132.7743830   6.8929240  88.6917580
 133.4088920   7.0767420  90.0539210 148.7761100   8.6781690  98.4580470
 148.0924620   9.3480800  98.4497140 149.3155390   8.8762340  97.6925330
 146.3119840  10.5225820  97.1725650 146.3247000  10.1188110  96.3047910
 145.7595060  11.2973110  97.0687080 147.6065260   7.2442040  92.2615820
 147.4961590   6.3016370  92.3865240 147.6033510   7.6057680  93.1478580
 145.7105280   5.4255660  98.5008260 146.1274070   5.2115770  97.6661720
 146.4345100   5.6828450  99.0716880 143.1485540   2.8707360  91.6178310
 142.2214820   2.8044740  91.8466780 143.3010360   3.8087490  91.5033550
 149.6567380   3.8242880  98.5924500 148.8286010   3.8935970  98.1174630
 150.2517860   4.4097190  98.1240330 147.1782830   4.4327660  92.1213560
 146.5595250   4.0947210  91.4739860 147.1607280   3.7887420  92.8292750
 138.7542180   3.3972100  94.3998040 138.3499180   2.6849350  93.9043940
 138.8405300   3.0525340  95.2886080 139.2223880   7.0839660  96.5637250
 138.9252170   6.4785130  95.8845030 140.1723700   7.1216970  96.4526610
 147.3109490  10.6571530 100.2260350 146.8340050  11.4643720 100.0332960
 146.6271280  10.0049860 100.3786560 138.3142310   6.8221350 103.2145050
 137.4170840   7.0461320 103.4618450 138.3395180   6.9456290 102.2656450
 145.3547530   3.6714470  89.1286310 145.7940810   2.8336900  88.9824130
 146.0675950   4.3043870  89.2150450 137.1413530   3.6934670 101.7902420
 137.0021300   4.5657470 102.1589820 136.2594890   3.3507480 101.6450360
 143.4642910   8.6110540  93.0967550 143.9038820   9.3534870  92.6822940
 143.4029800   8.8537110  94.0206510 138.9393880   9.6356370 103.9987570
 138.9109310  10.0399320 103.1316000 138.7758850   8.7066730 103.8359170
 135.4546810   2.2917080  91.9004690 135.3344410   3.0179170  91.2885960
 135.1447700   1.5219990  91.4232600 133.0932180   5.4632220  97.7073330
 133.1712600   5.5980990  96.7629050 133.7073860   4.7548110  97.9001450
 134.3379810   7.1632410  94.1179510 133.9307890   7.3047000  93.2633110
 135.2292820   6.8792570  93.9150720 150.2941950   7.6096320 102.4551750
 150.4205010   7.3708200 101.5368930 150.3363330   6.7780860 102.9273830
 144.1558690  11.3124320 101.0246560 144.6703360  11.2232330 101.8268990
 143.3127770  11.6584020 101.3174470 146.1313090  11.5979660  90.4530560
 145.9714230  11.3082600  91.3512390 145.9659800  10.8219790  89.9175790
 138.6101470  11.3778190  92.2302180 138.4343950  10.4613730  92.0169980
 137.7557210  11.7365480  92.4699980 145.8339220   9.1067220  89.0128560
 145.1404380   9.1044510  88.3530840 146.5762080   8.6826540  88.5822730
 145.3989150  10.7329930  93.0877050 145.8546100   9.9519310  93.4015670
 145.7381670  11.4436750  93.6318230 133.1491700   6.5046390 100.2467790
 133.3122740   6.0351750  99.4287160 133.6144150   5.9969950 100.9116630
 139.6461500   1.9785800  88.5296870 139.0778400   1.5304050  87.9032780
 140.3550500   2.3378580  87.9962020 134.7230680   5.8797820 102.4063600
 134.3385470   5.2391490 103.0046560 135.0342870   6.5833940 102.9758330
 140.8727820   2.7274360  97.8872220 141.2397950   2.2532930  98.6333560
 140.6832880   3.6015930  98.2280560 138.6627190   1.7683000 100.2056430
 138.3584260   2.6474980 100.4306790 139.6173650   1.8282790 100.2413870
 137.1908980   5.9743990  90.8023280 136.4171240   5.4341610  90.6422000
 137.9203610   5.4550600  90.4641040 147.9496960   4.9709350  96.5949670
 148.6696080   5.4664640  96.2045780 147.7478780   4.2927240  95.9503540
 143.3315760   5.0418410 102.4818670 143.2653070   4.1214080 102.2276260
 142.7020900   5.1393850 103.1963310 137.2346380   5.6424370  94.4402090
 137.7525050   4.8392630  94.3858980 136.7830400   5.5803510  95.2818920
 142.1215880   6.9090650  89.7129390 142.4631580   7.6532880  89.2172710
 141.2928590   7.2221770  90.0754220 134.7190920   2.6085740 101.3527790
 134.3605860   3.2739590 101.9401130 134.4245480   1.7769290 101.7240410
 137.9204040   3.0669980 104.2367340 137.6204180   3.2127160 103.3395160
 138.6915280   2.5075270 104.1440730 143.2632490   7.8638980 102.2322470
 143.2777030   6.9319940 102.0141380 142.5557590   7.9498740 102.8712240
 148.3969560   2.0478800  88.5021080 148.3133280   2.4793020  87.6517520
 149.1163750   2.5077150  88.9347900 149.4743700   4.5046320 101.5791050
 148.7491890   5.0975100 101.3820440 150.0019160   4.4969860 100.7804420
 149.4256810   8.9021060  91.2303210 148.7832970   8.2476680  91.5046930
 149.0387470   9.3076150  90.4543880 145.0043290   6.2306490  95.0774900
 145.3567110   5.6334620  94.4176270 144.1205620   5.9050720  95.2483150
 141.0906570   6.9904180  92.4845310 141.7777700   7.5373390  92.8652900
 140.3038990   7.5344910  92.5194920 133.2298970   2.6077000  87.9762390
 134.0993820   2.8901800  88.2598310 132.7389290   3.4212870  87.8611200
 140.3933780   3.9950210  92.0970670 140.8496560   4.8055460  92.3230860
 140.0421990   3.6773350  92.9289160 142.6966390   9.5056550  99.3262970
 143.3408610   9.7115930 100.0036390 143.0595830   8.7444950  98.8733820
 143.9698470   7.5088900  98.0440420 144.6120700   6.8082060  98.1572590
 144.4947820   8.2887340  97.8637310 147.8154190   7.7937520  87.7679560
 147.5891770   7.0767960  88.3604200 147.4250390   7.5449960  86.9301310
 145.7436090   8.3083800 101.2476480 146.0792330   8.8950490 101.9254400
 144.8236430   8.1776510 101.4774270 133.5970220  11.8204380  88.5424020
 133.9567860  12.4193720  87.8881290 133.4562560  12.3664270  89.3159050
 147.3970440   5.7109460  89.4293720 147.1092140   6.1722150  90.2171600
 148.1922610   5.2507230  89.6977940 133.5812080  10.0859240 103.0166420
 133.6903200   9.1453980 102.8761810 132.9292640  10.3513990 102.3680150
 141.5724670   8.3575130 104.4164540 141.2521540   7.6384370 104.9610230
 140.8983030   9.0330200 104.4900600 139.6138840   9.2035580  89.3597690
 139.6048940   9.9365270  88.7442200 138.6937200   8.9567160  89.4524650
 135.2145480   4.4250470  90.1044450 134.6073430   5.1649370  90.1139750
 135.6894830   4.5149830  89.2782650 142.5998440   9.2663820  88.0222880
 142.7010420   9.0627810  87.0924860 141.7000180   9.0122100  88.2270660
 141.2416550  11.7850140  92.7170550 141.4958050  11.7471530  91.7949920
 140.2929030  11.6583470  92.7098800 147.2469130   2.7042020  94.2929060
 146.3059270   2.7192250  94.4676750 147.5613200   1.9177980  94.7389360
 137.2250770   4.3861620  87.8533020 137.9914040   4.2742980  88.4158450
 137.3025460   3.6899590  87.2009790 149.2494710   9.8750870  95.9683320
 149.3742130  10.6982040  96.4407130 150.1160270   9.6641600  95.6207470
 136.7212240  11.9682080  95.6400450 137.4574720  11.4197540  95.9109020
 137.1053160  12.8338090  95.5006440 133.6057720   8.0355650  91.5141960
 132.6797500   8.2776790  91.5047370 134.0714150   8.8629910  91.3926710
 135.7270520  11.1528150 104.8286030 136.5283250  11.4740200 105.2421430
 135.2122340  10.7923730 105.5505940 139.8314550  11.1412390  87.4626020
 140.6243160  11.4301220  87.0107810 139.3118900  10.7104560  86.7838500
 144.5635150   7.2608020 104.7761440 143.9573310   7.2839620 104.0357190
 144.2589260   6.5291060 105.3128690 145.9935520  10.9888310 103.3870850
 146.9457270  10.9046330 103.3371090 145.8463740  11.6530020 104.0604640
 148.8844720  10.3682520  88.8862760 148.5986230   9.9547660  88.0716940
 148.6864270  11.2970230  88.7663280 133.4468330   3.6401610 103.7722080
 133.9507350   3.0608890 104.3438310 132.7075750   3.9241840 104.3098450
 140.3491950   6.3615800  87.3268370 140.2442590   5.7468150  88.0529750
 140.1816170   5.8381690  86.5431380 140.5006270   5.0472600 103.3057600
 139.7351940   5.6157600 103.2212270 140.6822230   4.7548810 102.4125830
 143.5894680   5.4235830  87.9310360 143.0404780   5.8705130  88.5753100
 144.2113940   4.9185080  88.4548030 147.6429620   6.7777930 103.8632620
 148.3839090   7.1153690 103.3600080 146.8802300   6.9469990 103.3102390
 135.4791410   1.7831200 104.6672150 135.5196750   1.4845070 105.5757380
 136.3336910   2.1838810 104.5079670 139.2569800   4.3826750  89.8275660
 139.6786220   4.2166620  90.6707050 139.3820640   3.5726980  89.3330800
 141.7697440   3.4064360  87.0752760 142.2903100   2.6913380  86.7093910
 142.4165840   4.0450230  87.3753270 146.3175280   4.8292760 102.3987830
 146.7316300   4.9837840 103.2478250 145.3826280   4.9547980 102.5613610
 146.7897450   2.1688920 104.4026980 147.3718220   1.4141240 104.3147460
 146.9659220   2.6996360 103.6258460 141.0790510   4.7813240 100.3683760
 141.4978620   5.6245970 100.1960000 140.1599140   4.9185280 100.1390540
 143.4154410   2.5129420 101.7521600 143.5350620   1.9170560 102.4916440
 144.2748410   2.5499110 101.3322900 145.7542310   3.0666610 100.3284110
 145.2277530   3.5909230  99.7249250 146.0973650   3.6994000 100.9593840
 138.9297930  11.0866250 101.4841490 138.3919020  11.8112310 101.1650190
 139.1831890  10.6096590 100.6938830 141.7860140  12.3217460 101.7428140
 141.7118840  13.2252600 102.0500510 140.8838980  12.0029360 101.7150210
 142.3345470  11.4875970  89.3654500 143.2296260  11.8260940  89.3873260
 142.3663100  10.7655380  88.7378780 135.9741630   6.8603020  87.5941500
 136.4116500   7.4032690  88.2499080 136.4589360   6.0349970  87.6037840
 133.1887430   9.6492050  95.0461760 133.5190440   8.7813110  94.8140400
 133.6178430   9.8550570  95.8766720 137.7849350   7.9801060  92.7063730
 137.4844890   7.8566030  93.6067640 137.6786840   7.1209650  92.2979460
 133.6777640  10.5162640  97.7843390 133.2408630  10.6963440  98.6167540
 134.2455320  11.2737260  97.6425110 149.3139820  10.0179640 102.0720700
 148.7141810  10.0772200 101.3284620 149.4433720   9.0784620 102.2017550
 133.5102070   3.0282870  94.1432270 132.8550910   2.7594510  93.4991970
 134.3480020   2.9187350  93.6934250 147.9991460   6.7431620 100.1696860
 147.1851300   7.1728780 100.4322650 148.4065660   7.3550030  99.5565910
 150.0616900   4.7979310  87.0697130 150.3365740   5.7058190  86.9416350
 149.8727640   4.7341840  88.0059120 149.9582240   2.7348300  92.0626560
 149.5825840   1.9676230  91.6307850 149.2285360   3.1171000  92.5501490
 134.5478000   3.4135440  98.6835610 134.9151040   3.3262840  99.5631630
 133.9788820   2.6501990  98.5842470 149.3481860   1.8819820 101.6966080
 149.1167950   1.6532570 100.7964030 149.6086410   2.8019370 101.6510970
 148.0567510  11.4950220  93.6965130 148.6526580  11.1734790  93.0199550
 148.3145660  11.0222040  94.4878400 135.9630080   7.9268130 103.8455760
 135.9199710   7.5561040 104.7270220 136.0941090   8.8645700 103.9857580
 139.6636110   9.4827720  99.4465480 139.4227470   9.7502280  98.5596000
 140.6038750   9.6533450  99.5016340 135.8018110  10.8730380 100.9653540
 135.2078430  10.7415080 101.7043580 135.7941950  10.0368520 100.4995640
 148.6079720  12.1445520  97.5262860 148.1482690  12.8961330  97.1520880
 147.9792180  11.4251990  97.4677660 135.4330340   8.2388760  99.9161580
 134.7064400   7.6194050  99.8487530 135.4939490   8.6329370  99.0459660
 139.0375440  10.4533760  96.7010990 139.5540460   9.8421120  96.1759250
 139.6872820  10.9562540  97.1922000 141.7770940  11.3442250  97.5279970
 142.0648750  11.0896550  96.6512980 142.2894160  10.7919610  98.1185540
 133.7160340  11.5563150  93.1258340 133.5482380  10.9233830  93.8240230
 132.8494850  11.7622550  92.7752530 135.3223040  10.2496380  90.5708480
 134.7970660  10.6304410  89.8670440 135.2467620  10.8747150  91.2918190
 141.8443300  12.2658350 104.8948170 142.7710610  12.0302620 104.9384130
 141.8293730  13.0930350 104.4134200 150.0788360  11.8083920  91.8922420
 150.2540550  11.1221660  91.2483340 149.3809930  12.3330970  91.4999090
 137.9216010  12.1978760  89.4457730 138.6534830  11.9138040  88.8981620
 138.1809680  11.9592040  90.3357110 137.0830800   8.3143490  89.4504060
 136.4539680   8.7828590  89.9989890 137.1978630   7.4692710  89.8850250
 148.4120860  11.4928210 104.7189210 149.2046180  10.9977440 104.5115170
 148.7054010  12.1718350 105.3264820 144.5380520   2.3649150  75.6005260
 144.4574570   1.4503760  75.3296970 144.1244940   2.8616220  74.8944970
 142.6698560   4.1428170  77.4814530 141.8940660   3.6628610  77.7713100
 143.3211490   3.4633820  77.3070690 136.6864390   4.4547980  78.3590290
 135.8549270   4.1996690  78.7586800 137.2945370   4.5258750  79.0948210
 146.6905990   8.5488360  76.2613660 146.2287520   7.7775600  76.5900830
 147.5031540   8.5754430  76.7666110 136.6665650   8.4888070  78.5548310
 136.9693690   7.5985810  78.3758530 137.4109240   9.0458290  78.3270560
 142.9169300  10.8346370  75.8817650 142.2980740  11.2903870  75.3112090
 143.7721080  10.9897830  75.4807350 142.1107550   6.8185360  77.4884690
 142.0415830   5.8775300  77.3273820 142.8727410   6.9086770  78.0607260
 143.7832650   5.7185610  73.2749560 143.1649920   6.1835060  72.7112280
 144.2955900   6.4113090  73.6919070 138.6464410   5.2461480  79.9533160
 138.3133790   5.8730400  80.5954230 138.8231090   5.7723360  79.1734830
 137.8583510   7.2142280  81.7682340 138.4757510   7.8893360  81.4866790
 136.9976630   7.6230260  81.6769840 133.1515850   6.4042140  70.6489190
 132.7743830   6.8929240  69.9174090 133.4088920   7.0767420  71.2795720
 148.7761100   8.6781690  79.6836980 148.0924620   9.3480800  79.6753650
 149.3155390   8.8762340  78.9181840 146.3119840  10.5225820  78.3982160
 146.3247000  10.1188110  77.5304420 145.7595060  11.2973110  78.2943590
 147.6065260   7.2442040  73.4872330 147.4961590   6.3016370  73.6121750
 147.6033510   7.6057680  74.3735090 145.7105280   5.4255660  79.7264770
 146.1274070   5.2115770  78.8918230 146.4345100   5.6828450  80.2973390
 143.1485540   2.8707360  72.8434820 142.2214820   2.8044740  73.0723290
 143.3010360   3.8087490  72.7290060 149.6567380   3.8242880  79.8181010
 148.8286010   3.8935970  79.3431140 150.2517860   4.4097190  79.3496840
 147.1782830   4.4327660  73.3470070 146.5595250   4.0947210  72.6996370
 147.1607280   3.7887420  74.0549260 138.7542180   3.3972100  75.6254550
 138.3499180   2.6849350  75.1300450 138.8405300   3.0525340  76.5142590
 139.2223880   7.0839660  77.7893760 138.9252170   6.4785130  77.1101540
 140.1723700   7.1216970  77.6783120 147.3109490  10.6571530  81.4516860
 146.8340050  11.4643720  81.2589470 146.6271280  10.0049860  81.6043070
 138.3142310   6.8221350  84.4401560 137.4170840   7.0461320  84.6874960
 138.3395180   6.9456290  83.4912960 145.3547530   3.6714470  70.3542820
 145.7940810   2.8336900  70.2080640 146.0675950   4.3043870  70.4406960
 137.1413530   3.6934670  83.0158930 137.0021300   4.5657470  83.3846330
 136.2594890   3.3507480  82.8706870 143.4642910   8.6110540  74.3224060
 143.9038820   9.3534870  73.9079450 143.4029800   8.8537110  75.2463020
 138.9393880   9.6356370  85.2244080 138.9109310  10.0399320  84.3572510
 138.7758850   8.7066730  85.0615680 135.4546810   2.2917080  73.1261200
 135.3344410   3.0179170  72.5142470 135.1447700   1.5219990  72.6489110
 133.0932180   5.4632220  78.9329840 133.1712600   5.5980990  77.9885560
 133.7073860   4.7548110  79.1257960 134.3379810   7.1632410  75.3436020
 133.9307890   7.3047000  74.4889620 135.2292820   6.8792570  75.1407230
 150.2941950   7.6096320  83.6808260 150.4205010   7.3708200  82.7625440
 150.3363330   6.7780860  84.1530340 144.1558690  11.3124320  82.2503070
 144.6703360  11.2232330  83.0525500 143.3127770  11.6584020  82.5430980
 146.1313090  11.5979660  71.6787070 145.9714230  11.3082600  72.5768900
 145.9659800  10.8219790  71.1432300 138.6101470  11.3778190  73.4558690
 138.4343950  10.4613730  73.2426490 137.7557210  11.7365480  73.6956490
 145.8339220   9.1067220  70.2385070 145.1404380   9.1044510  69.5787350
 146.5762080   8.6826540  69.8079240 145.3989150  10.7329930  74.3133560
 145.8546100   9.9519310  74.6272180 145.7381670  11.4436750  74.8574740
 133.1491700   6.5046390  81.4724300 133.3122740   6.0351750  80.6543670
 133.6144150   5.9969950  82.1373140 139.6461500   1.9785800  69.7553380
 139.0778400   1.5304050  69.1289290 140.3550500   2.3378580  69.2218530
 134.7230680   5.8797820  83.6320110 134.3385470   5.2391490  84.2303070
 135.0342870   6.5833940  84.2014840 140.8727820   2.7274360  79.1128730
 141.2397950   2.2532930  79.8590070 140.6832880   3.6015930  79.4537070
 138.6627190   1.7683000  81.4312940 138.3584260   2.6474980  81.6563300
 139.6173650   1.8282790  81.4670380 137.1908980   5.9743990  72.0279790
 136.4171240   5.4341610  71.8678510 137.9203610   5.4550600  71.6897550
 147.9496960   4.9709350  77.8206180 148.6696080   5.4664640  77.4302290
 147.7478780   4.2927240  77.1760050 143.3315760   5.0418410  83.7075180
 143.2653070   4.1214080  83.4532770 142.7020900   5.1393850  84.4219820
 137.2346380   5.6424370  75.6658600 137.7525050   4.8392630  75.6115490
 136.7830400   5.5803510  76.5075430 142.1215880   6.9090650  70.9385900
 142.4631580   7.6532880  70.4429220 141.2928590   7.2221770  71.3010730
 134.7190920   2.6085740  82.5784300 134.3605860   3.2739590  83.1657640
 134.4245480   1.7769290  82.9496920 137.9204040   3.0669980  85.4623850
 137.6204180   3.2127160  84.5651670 138.6915280   2.5075270  85.3697240
 143.2632490   7.8638980  83.4578980 143.2777030   6.9319940  83.2397890
 142.5557590   7.9498740  84.0968750 148.3969560   2.0478800  69.7277590
 148.3133280   2.4793020  68.8774030 149.1163750   2.5077150  70.1604410
 149.4743700   4.5046320  82.8047560 148.7491890   5.0975100  82.6076950
 150.0019160   4.4969860  82.0060930 149.4256810   8.9021060  72.4559720
 148.7832970   8.2476680  72.7303440 149.0387470   9.3076150  71.6800390
 145.0043290   6.2306490  76.3031410 145.3567110   5.6334620  75.6432780
 144.1205620   5.9050720  76.4739660 141.0906570   6.9904180  73.7101820
 141.7777700   7.5373390  74.0909410 140.3038990   7.5344910  73.7451430
 133.2298970   2.6077000  69.2018900 134.0993820   2.8901800  69.4854820
 132.7389290   3.4212870  69.0867710 140.3933780   3.9950210  73.3227180
 140.8496560   4.8055460  73.5487370 140.0421990   3.6773350  74.1545670
 142.6966390   9.5056550  80.5519480 143.3408610   9.7115930  81.2292900
 143.0595830   8.7444950  80.0990330 143.9698470   7.5088900  79.2696930
 144.6120700   6.8082060  79.3829100 144.4947820   8.2887340  79.0893820
 147.8154190   7.7937520  68.9936070 147.5891770   7.0767960  69.5860710
 147.4250390   7.5449960  68.1557820 145.7436090   8.3083800  82.4732990
 146.0792330   8.8950490  83.1510910 144.8236430   8.1776510  82.7030780
 133.5970220  11.8204380  69.7680530 133.9567860  12.4193720  69.1137800
 133.4562560  12.3664270  70.5415560 147.3970440   5.7109460  70.6550230
 147.1092140   6.1722150  71.4428110 148.1922610   5.2507230  70.9234450
 133.5812080  10.0859240  84.2422930 133.6903200   9.1453980  84.1018320
 132.9292640  10.3513990  83.5936660 141.5724670   8.3575130  85.6421050
 141.2521540   7.6384370  86.1866740 140.8983030   9.0330200  85.7157110
 139.6138840   9.2035580  70.5854200 139.6048940   9.9365270  69.9698710
 138.6937200   8.9567160  70.6781160 135.2145480   4.4250470  71.3300960
 134.6073430   5.1649370  71.3396260 135.6894830   4.5149830  70.5039160
 142.5998440   9.2663820  69.2479390 142.7010420   9.0627810  68.3181370
 141.7000180   9.0122100  69.4527170 141.2416550  11.7850140  73.9427060
 141.4958050  11.7471530  73.0206430 140.2929030  11.6583470  73.9355310
 147.2469130   2.7042020  75.5185570 146.3059270   2.7192250  75.6933260
 147.5613200   1.9177980  75.9645870 137.2250770   4.3861620  69.0789530
 137.9914040   4.2742980  69.6414960 137.3025460   3.6899590  68.4266300
 149.2494710   9.8750870  77.1939830 149.3742130  10.6982040  77.6663640
 150.1160270   9.6641600  76.8463980 136.7212240  11.9682080  76.8656960
 137.4574720  11.4197540  77.1365530 137.1053160  12.8338090  76.7262950
 133.6057720   8.0355650  72.7398470 132.6797500   8.2776790  72.7303880
 134.0714150   8.8629910  72.6183220 135.7270520  11.1528150  86.0542540
 136.5283250  11.4740200  86.4677940 135.2122340  10.7923730  86.7762450
 139.8314550  11.1412390  68.6882530 140.6243160  11.4301220  68.2364320
 139.3118900  10.7104560  68.0095010 144.5635150   7.2608020  86.0017950
 143.9573310   7.2839620  85.2613700 144.2589260   6.5291060  86.5385200
 145.9935520  10.9888310  84.6127360 146.9457270  10.9046330  84.5627600
 145.8463740  11.6530020  85.2861150 148.8844720  10.3682520  70.1119270
 148.5986230   9.9547660  69.2973450 148.6864270  11.2970230  69.9919790
 133.4468330   3.6401610  84.9978590 133.9507350   3.0608890  85.5694820
 132.7075750   3.9241840  85.5354960 140.3491950   6.3615800  68.5524880
 140.2442590   5.7468150  69.2786260 140.1816170   5.8381690  67.7687890
 140.5006270   5.0472600  84.5314110 139.7351940   5.6157600  84.4468780
 140.6822230   4.7548810  83.6382340 143.5894680   5.4235830  69.1566870
 143.0404780   5.8705130  69.8009610 144.2113940   4.9185080  69.6804540
 147.6429620   6.7777930  85.0889130 148.3839090   7.1153690  84.5856590
 146.8802300   6.9469990  84.5358900 135.4791410   1.7831200  85.8928660
 135.5196750   1.4845070  86.8013890 136.3336910   2.1838810  85.7336180
 139.2569800   4.3826750  71.0532170 139.6786220   4.2166620  71.8963560
 139.3820640   3.5726980  70.5587310 141.7697440   3.4064360  68.3009270
 142.2903100   2.6913380  67.9350420 142.4165840   4.0450230  68.6009780
 146.3175280   4.8292760  83.6244340 146.7316300   4.9837840  84.4734760
 145.3826280   4.9547980  83.7870120 146.7897450   2.1688920  85.6283490
 147.3718220   1.4141240  85.5403970 146.9659220   2.6996360  84.8514970
 141.0790510   4.7813240  81.5940270 141.4978620   5.6245970  81.4216510
 140.1599140   4.9185280  81.3647050 143.4154410   2.5129420  82.9778110
 143.5350620   1.9170560  83.7172950 144.2748410   2.5499110  82.5579410
 145.7542310   3.0666610  81.5540620 145.2277530   3.5909230  80.9505760
 146.0973650   3.6994000  82.1850350 138.9297930  11.0866250  82.7098000
 138.3919020  11.8112310  82.3906700 139.1831890  10.6096590  81.9195340
 141.7860140  12.3217460  82.9684650 141.7118840  13.2252600  83.2757020
 140.8838980  12.0029360  82.9406720 142.3345470  11.4875970  70.5911010
 143.2296260  11.8260940  70.6129770 142.3663100  10.7655380  69.9635290
 135.9741630   6.8603020  68.8198010 136.4116500   7.4032690  69.4755590
 136.4589360   6.0349970  68.8294350 133.1887430   9.6492050  76.2718270
 133.5190440   8.7813110  76.0396910 133.6178430   9.8550570  77.1023230
 137.7849350   7.9801060  73.9320240 137.4844890   7.8566030  74.8324150
 137.6786840   7.1209650  73.5235970 133.6777640  10.5162640  79.0099900
 133.2408630  10.6963440  79.8424050 134.2455320  11.2737260  78.8681620
 149.3139820  10.0179640  83.2977210 148.7141810  10.0772200  82.5541130
 149.4433720   9.0784620  83.4274060 133.5102070   3.0282870  75.3688780
 132.8550910   2.7594510  74.7248480 134.3480020   2.9187350  74.9190760
 147.9991460   6.7431620  81.3953370 147.1851300   7.1728780  81.6579160
 148.4065660   7.3550030  80.7822420 150.0616900   4.7979310  68.2953640
 150.3365740   5.7058190  68.1672860 149.8727640   4.7341840  69.2315630
 149.9582240   2.7348300  73.2883070 149.5825840   1.9676230  72.8564360
 149.2285360   3.1171000  73.7758000 134.5478000   3.4135440  79.9092120
 134.9151040   3.3262840  80.7888140 133.9788820   2.6501990  79.8098980
 149.3481860   1.8819820  82.9222590 149.1167950   1.6532570  82.0220540
 149.6086410   2.8019370  82.8767480 148.0567510  11.4950220  74.9221640
 148.6526580  11.1734790  74.2456060 148.3145660  11.0222040  75.7134910
 135.9630080   7.9268130  85.0712270 135.9199710   7.5561040  85.9526730
 136.0941090   8.8645700  85.2114090 139.6636110   9.4827720  80.6721990
 139.4227470   9.7502280  79.7852510 140.6038750   9.6533450  80.7272850
 135.8018110  10.8730380  82.1910050 135.2078430  10.7415080  82.9300090
 135.7941950  10.0368520  81.7252150 148.6079720  12.1445520  78.7519370
 148.1482690  12.8961330  78.3777390 147.9792180  11.4251990  78.6934170
 135.4330340   8.2388760  81.1418090 134.7064400   7.6194050  81.0744040
 135.4939490   8.6329370  80.2716170 139.0375440  10.4533760  77.9267500
 139.5540460   9.8421120  77.4015760 139.6872820  10.9562540  78.4178510
 141.7770940  11.3442250  78.7536480 142.0648750  11.0896550  77.8769490
 142.2894160  10.7919610  79.3442050 133.7160340  11.5563150  74.3514850
 133.5482380  10.9233830  75.0496740 132.8494850  11.7622550  74.0009040
 135.3223040  10.2496380  71.7964990 134.7970660  10.6304410  71.0926950
 135.2467620  10.8747150  72.5174700 141.8443300  12.2658350  86.1204680
 142.7710610  12.0302620  86.1640640 141.8293730  13.0930350  85.6390710
 150.0788360  11.8083920  73.1178930 150.2540550  11.1221660  72.4739850
 149.3809930  12.3330970  72.7255600 137.9216010  12.1978760  70.6714240
 138.6534830  11.9138040  70.1238130 138.1809680  11.9592040  71.5613620
 137.0830800   8.3143490  70.6760570 136.4539680   8.7828590  71.2246400
 137.1978630   7.4692710  71.1106760 148.4120860  11.4928210  85.9445720
 149.2046180  10.9977440  85.7371680 148.7054010  12.1718350  86.5521330
 144.5380520   2.3649150  56.8261770 144.4574570   1.4503760  56.5553480
 144.1244940   2.8616220  56.1201480 142.6698560   4.1428170  58.7071040
 141.8940660   3.6628610  58.9969610 143.3211490   3.4633820  58.5327200
 136.6864390   4.4547980  59.5846800 135.8549270   4.1996690  59.9843310
 137.2945370   4.5258750  60.3204720 146.6905990   8.5488360  57.4870170
 146.2287520   7.7775600  57.8157340 147.5031540   8.5754430  57.9922620
 136.6665650   8.4888070  59.7804820 136.9693690   7.5985810  59.6015040
 137.4109240   9.0458290  59.5527070 142.9169300  10.8346370  57.1074160
 142.2980740  11.2903870  56.5368600 143.7721080  10.9897830  56.7063860
 142.1107550   6.8185360  58.7141200 142.0415830   5.8775300  58.5530330
 142.8727410   6.9086770  59.2863770 143.7832650   5.7185610  54.5006070
 143.1649920   6.1835060  53.9368790 144.2955900   6.4113090  54.9175580
 138.6464410   5.2461480  61.1789670 138.3133790   5.8730400  61.8210740
 138.8231090   5.7723360  60.3991340 137.8583510   7.2142280  62.9938850
 138.4757510   7.8893360  62.7123300 136.9976630   7.6230260  62.9026350
 133.1515850   6.4042140  51.8745700 132.7743830   6.8929240  51.1430600
 133.4088920   7.0767420  52.5052230 148.7761100   8.6781690  60.9093490
 148.0924620   9.3480800  60.9010160 149.3155390   8.8762340  60.1438350
 146.3119840  10.5225820  59.6238670 146.3247000  10.1188110  58.7560930
 145.7595060  11.2973110  59.5200100 147.6065260   7.2442040  54.7128840
 147.4961590   6.3016370  54.8378260 147.6033510   7.6057680  55.5991600
 145.7105280   5.4255660  60.9521280 146.1274070   5.2115770  60.1174740
 146.4345100   5.6828450  61.5229900 143.1485540   2.8707360  54.0691330
 142.2214820   2.8044740  54.2979800 143.3010360   3.8087490  53.9546570
 149.6567380   3.8242880  61.0437520 148.8286010   3.8935970  60.5687650
 150.2517860   4.4097190  60.5753350 147.1782830   4.4327660  54.5726580
 146.5595250   4.0947210  53.9252880 147.1607280   3.7887420  55.2805770
 138.7542180   3.3972100  56.8511060 138.3499180   2.6849350  56.3556960
 138.8405300   3.0525340  57.7399100 139.2223880   7.0839660  59.0150270
 138.9252170   6.4785130  58.3358050 140.1723700   7.1216970  58.9039630
 147.3109490  10.6571530  62.6773370 146.8340050  11.4643720  62.4845980
 146.6271280  10.0049860  62.8299580 138.3142310   6.8221350  65.6658070
 137.4170840   7.0461320  65.9131470 138.3395180   6.9456290  64.7169470
 145.3547530   3.6714470  51.5799330 145.7940810   2.8336900  51.4337150
 146.0675950   4.3043870  51.6663470 137.1413530   3.6934670  64.2415440
 137.0021300   4.5657470  64.6102840 136.2594890   3.3507480  64.0963380
 143.4642910   8.6110540  55.5480570 143.9038820   9.3534870  55.1335960
 143.4029800   8.8537110  56.4719530 138.9393880   9.6356370  66.4500590
 138.9109310  10.0399320  65.5829020 138.7758850   8.7066730  66.2872190
 135.4546810   2.2917080  54.3517710 135.3344410   3.0179170  53.7398980
 135.1447700   1.5219990  53.8745620 133.0932180   5.4632220  60.1586350
 133.1712600   5.5980990  59.2142070 133.7073860   4.7548110  60.3514470
 134.3379810   7.1632410  56.5692530 133.9307890   7.3047000  55.7146130
 135.2292820   6.8792570  56.3663740 150.2941950   7.6096320  64.9064770
 150.4205010   7.3708200  63.9881950 150.3363330   6.7780860  65.3786850
 144.1558690  11.3124320  63.4759580 144.6703360  11.2232330  64.2782010
 143.3127770  11.6584020  63.7687490 146.1313090  11.5979660  52.9043580
 145.9714230  11.3082600  53.8025410 145.9659800  10.8219790  52.3688810
 138.6101470  11.3778190  54.6815200 138.4343950  10.4613730  54.4683000
 137.7557210  11.7365480  54.9213000 145.8339220   9.1067220  51.4641580
 145.1404380   9.1044510  50.8043860 146.5762080   8.6826540  51.0335750
 145.3989150  10.7329930  55.5390070 145.8546100   9.9519310  55.8528690
 145.7381670  11.4436750  56.0831250 133.1491700   6.5046390  62.6980810
 133.3122740   6.0351750  61.8800180 133.6144150   5.9969950  63.3629650
 139.6461500   1.9785800  50.9809890 139.0778400   1.5304050  50.3545800
 140.3550500   2.3378580  50.4475040 134.7230680   5.8797820  64.8576620
 134.3385470   5.2391490  65.4559580 135.0342870   6.5833940  65.4271350
 140.8727820   2.7274360  60.3385240 141.2397950   2.2532930  61.0846580
 140.6832880   3.6015930  60.6793580 138.6627190   1.7683000  62.6569450
 138.3584260   2.6474980  62.8819810 139.6173650   1.8282790  62.6926890
 137.1908980   5.9743990  53.2536300 136.4171240   5.4341610  53.0935020
 137.9203610   5.4550600  52.9154060 147.9496960   4.9709350  59.0462690
 148.6696080   5.4664640  58.6558800 147.7478780   4.2927240  58.4016560
 143.3315760   5.0418410  64.9331690 143.2653070   4.1214080  64.6789280
 142.7020900   5.1393850  65.6476330 137.2346380   5.6424370  56.8915110
 137.7525050   4.8392630  56.8372000 136.7830400   5.5803510  57.7331940
 142.1215880   6.9090650  52.1642410 142.4631580   7.6532880  51.6685730
 141.2928590   7.2221770  52.5267240 134.7190920   2.6085740  63.8040810
 134.3605860   3.2739590  64.3914150 134.4245480   1.7769290  64.1753430
 137.9204040   3.0669980  66.6880360 137.6204180   3.2127160  65.7908180
 138.6915280   2.5075270  66.5953750 143.2632490   7.8638980  64.6835490
 143.2777030   6.9319940  64.4654400 142.5557590   7.9498740  65.3225260
 148.3969560   2.0478800  50.9534100 148.3133280   2.4793020  50.1030540
 149.1163750   2.5077150  51.3860920 149.4743700   4.5046320  64.0304070
 148.7491890   5.0975100  63.8333460 150.0019160   4.4969860  63.2317440
 149.4256810   8.9021060  53.6816230 148.7832970   8.2476680  53.9559950
 149.0387470   9.3076150  52.9056900 145.0043290   6.2306490  57.5287920
 145.3567110   5.6334620  56.8689290 144.1205620   5.9050720  57.6996170
 141.0906570   6.9904180  54.9358330 141.7777700   7.5373390  55.3165920
 140.3038990   7.5344910  54.9707940 133.2298970   2.6077000  50.4275410
 134.0993820   2.8901800  50.7111330 132.7389290   3.4212870  50.3124220
 140.3933780   3.9950210  54.5483690 140.8496560   4.8055460  54.7743880
 140.0421990   3.6773350  55.3802180 142.6966390   9.5056550  61.7775990
 143.3408610   9.7115930  62.4549410 143.0595830   8.7444950  61.3246840
 143.9698470   7.5088900  60.4953440 144.6120700   6.8082060  60.6085610
 144.4947820   8.2887340  60.3150330 147.8154190   7.7937520  50.2192580
 147.5891770   7.0767960  50.8117220 147.4250390   7.5449960  49.3814330
 145.7436090   8.3083800  63.6989500 146.0792330   8.8950490  64.3767420
 144.8236430   8.1776510  63.9287290 133.5970220  11.8204380  50.9937040
 133.9567860  12.4193720  50.3394310 133.4562560  12.3664270  51.7672070
 147.3970440   5.7109460  51.8806740 147.1092140   6.1722150  52.6684620
 148.1922610   5.2507230  52.1490960 133.5812080  10.0859240  65.4679440
 133.6903200   9.1453980  65.3274830 132.9292640  10.3513990  64.8193170
 141.5724670   8.3575130  66.8677560 141.2521540   7.6384370  67.4123250
 140.8983030   9.0330200  66.9413620 139.6138840   9.2035580  51.8110710
 139.6048940   9.9365270  51.1955220 138.6937200   8.9567160  51.9037670
 135.2145480   4.4250470  52.5557470 134.6073430   5.1649370  52.5652770
 135.6894830   4.5149830  51.7295670 142.5998440   9.2663820  50.4735900
 142.7010420   9.0627810  49.5437880 141.7000180   9.0122100  50.6783680
 141.2416550  11.7850140  55.1683570 141.4958050  11.7471530  54.2462940
 140.2929030  11.6583470  55.1611820 147.2469130   2.7042020  56.7442080
 146.3059270   2.7192250  56.9189770 147.5613200   1.9177980  57.1902380
 137.2250770   4.3861620  50.3046040 137.9914040   4.2742980  50.8671470
 137.3025460   3.6899590  49.6522810 149.2494710   9.8750870  58.4196340
 149.3742130  10.6982040  58.8920150 150.1160270   9.6641600  58.0720490
 136.7212240  11.9682080  58.0913470 137.4574720  11.4197540  58.3622040
 137.1053160  12.8338090  57.9519460 133.6057720   8.0355650  53.9654980
 132.6797500   8.2776790  53.9560390 134.0714150   8.8629910  53.8439730
 135.7270520  11.1528150  67.2799050 136.5283250  11.4740200  67.6934450
 135.2122340  10.7923730  68.0018960 139.8314550  11.1412390  49.9139040
 140.6243160  11.4301220  49.4620830 139.3118900  10.7104560  49.2351520
 144.5635150   7.2608020  67.2274460 143.9573310   7.2839620  66.4870210
 144.2589260   6.5291060  67.7641710 145.9935520  10.9888310  65.8383870
 146.9457270  10.9046330  65.7884110 145.8463740  11.6530020  66.5117660
 148.8844720  10.3682520  51.3375780 148.5986230   9.9547660  50.5229960
 148.6864270  11.2970230  51.2176300 133.4468330   3.6401610  66.2235100
 133.9507350   3.0608890  66.7951330 132.7075750   3.9241840  66.7611470
 140.3491950   6.3615800  49.7781390 140.2442590   5.7468150  50.5042770
 140.1816170   5.8381690  48.9944400 140.5006270   5.0472600  65.7570620
 139.7351940   5.6157600  65.6725290 140.6822230   4.7548810  64.8638850
 143.5894680   5.4235830  50.3823380 143.0404780   5.8705130  51.0266120
 144.2113940   4.9185080  50.9061050 147.6429620   6.7777930  66.3145640
 148.3839090   7.1153690  65.8113100 146.8802300   6.9469990  65.7615410
 135.4791410   1.7831200  67.1185170 135.5196750   1.4845070  68.0270400
 136.3336910   2.1838810  66.9592690 139.2569800   4.3826750  52.2788680
 139.6786220   4.2166620  53.1220070 139.3820640   3.5726980  51.7843820
 141.7697440   3.4064360  49.5265780 142.2903100   2.6913380  49.1606930
 142.4165840   4.0450230  49.8266290 146.3175280   4.8292760  64.8500850
 146.7316300   4.9837840  65.6991270 145.3826280   4.9547980  65.0126630
 146.7897450   2.1688920  66.8540000 147.3718220   1.4141240  66.7660480
 146.9659220   2.6996360  66.0771480 141.0790510   4.7813240  62.8196780
 141.4978620   5.6245970  62.6473020 140.1599140   4.9185280  62.5903560
 143.4154410   2.5129420  64.2034620 143.5350620   1.9170560  64.9429460
 144.2748410   2.5499110  63.7835920 145.7542310   3.0666610  62.7797130
 145.2277530   3.5909230  62.1762270 146.0973650   3.6994000  63.4106860
 138.9297930  11.0866250  63.9354510 138.3919020  11.8112310  63.6163210
 139.1831890  10.6096590  63.1451850 141.7860140  12.3217460  64.1941160
 141.7118840  13.2252600  64.5013530 140.8838980  12.0029360  64.1663230
 142.3345470  11.4875970  51.8167520 143.2296260  11.8260940  51.8386280
 142.3663100  10.7655380  51.1891800 135.9741630   6.8603020  50.0454520
 136.4116500   7.4032690  50.7012100 136.4589360   6.0349970  50.0550860
 133.1887430   9.6492050  57.4974780 133.5190440   8.7813110  57.2653420
 133.6178430   9.8550570  58.3279740 137.7849350   7.9801060  55.1576750
 137.4844890   7.8566030  56.0580660 137.6786840   7.1209650  54.7492480
 133.6777640  10.5162640  60.2356410 133.2408630  10.6963440  61.0680560
 134.2455320  11.2737260  60.0938130 149.3139820  10.0179640  64.5233720
 148.7141810  10.0772200  63.7797640 149.4433720   9.0784620  64.6530570
 133.5102070   3.0282870  56.5945290 132.8550910   2.7594510  55.9504990
 134.3480020   2.9187350  56.1447270 147.9991460   6.7431620  62.6209880
 147.1851300   7.1728780  62.8835670 148.4065660   7.3550030  62.0078930
 150.0616900   4.7979310  49.5210150 150.3365740   5.7058190  49.3929370
 149.8727640   4.7341840  50.4572140 149.9582240   2.7348300  54.5139580
 149.5825840   1.9676230  54.0820870 149.2285360   3.1171000  55.0014510
 134.5478000   3.4135440  61.1348630 134.9151040   3.3262840  62.0144650
 133.9788820   2.6501990  61.0355490 149.3481860   1.8819820  64.1479100
 149.1167950   1.6532570  63.2477050 149.6086410   2.8019370  64.1023990
 148.0567510  11.4950220  56.1478150 148.6526580  11.1734790  55.4712570
 148.3145660  11.0222040  56.9391420 135.9630080   7.9268130  66.2968780
 135.9199710   7.5561040  67.1783240 136.0941090   8.8645700  66.4370600
 139.6636110   9.4827720  61.8978500 139.4227470   9.7502280  61.0109020
 140.6038750   9.6533450  61.9529360 135.8018110  10.8730380  63.4166560
 135.2078430  10.7415080  64.1556600 135.7941950  10.0368520  62.9508660
 148.6079720  12.1445520  59.9775880 148.1482690  12.8961330  59.6033900
 147.9792180  11.4251990  59.9190680 135.4330340   8.2388760  62.3674600
 134.7064400   7.6194050  62.3000550 135.4939490   8.6329370  61.4972680
 139.0375440  10.4533760  59.1524010 139.5540460   9.8421120  58.6272270
 139.6872820  10.9562540  59.6435020 141.7770940  11.3442250  59.9792990
 142.0648750  11.0896550  59.1026000 142.2894160  10.7919610  60.5698560
 133.7160340  11.5563150  55.5771360 133.5482380  10.9233830  56.2753250
 132.8494850  11.7622550  55.2265550 135.3223040  10.2496380  53.0221500
 134.7970660  10.6304410  52.3183460 135.2467620  10.8747150  53.7431210
 141.8443300  12.2658350  67.3461190 142.7710610  12.0302620  67.3897150
 141.8293730  13.0930350  66.8647220 150.0788360  11.8083920  54.3435440
 150.2540550  11.1221660  53.6996360 149.3809930  12.3330970  53.9512110
 137.9216010  12.1978760  51.8970750 138.6534830  11.9138040  51.3494640
 138.1809680  11.9592040  52.7870130 137.0830800   8.3143490  51.9017080
 136.4539680   8.7828590  52.4502910 137.1978630   7.4692710  52.3363270
 148.4120860  11.4928210  67.1702230 149.2046180  10.9977440  66.9628190
 148.7054010  12.1718350  67.7777840 144.5380520   2.3649150  38.0518280
 144.4574570   1.4503760  37.7809990 144.1244940   2.8616220  37.3457990
 142.6698560   4.1428170  39.9327550 141.8940660   3.6628610  40.2226120
 143.3211490   3.4633820  39.7583710 136.6864390   4.4547980  40.8103310
 135.8549270   4.1996690  41.2099820 137.2945370   4.5258750  41.5461230
 146.6905990   8.5488360  38.7126680 146.2287520   7.7775600  39.0413850
 147.5031540   8.5754430  39.2179130 136.6665650   8.4888070  41.0061330
 136.9693690   7.5985810  40.8271550 137.4109240   9.0458290  40.7783580
 142.9169300  10.8346370  38.3330670 142.2980740  11.2903870  37.7625110
 143.7721080  10.9897830  37.9320370 142.1107550   6.8185360  39.9397710
 142.0415830   5.8775300  39.7786840 142.8727410   6.9086770  40.5120280
 143.7832650   5.7185610  35.7262580 143.1649920   6.1835060  35.1625300
 144.2955900   6.4113090  36.1432090 138.6464410   5.2461480  42.4046180
 138.3133790   5.8730400  43.0467250 138.8231090   5.7723360  41.6247850
 137.8583510   7.2142280  44.2195360 138.4757510   7.8893360  43.9379810
 136.9976630   7.6230260  44.1282860 133.1515850   6.4042140  33.1002210
 132.7743830   6.8929240  32.3687110 133.4088920   7.0767420  33.7308740
 148.7761100   8.6781690  42.1350000 148.0924620   9.3480800  42.1266670
 149.3155390   8.8762340  41.3694860 146.3119840  10.5225820  40.8495180
 146.3247000  10.1188110  39.9817440 145.7595060  11.2973110  40.7456610
 147.6065260   7.2442040  35.9385350 147.4961590   6.3016370  36.0634770
 147.6033510   7.6057680  36.8248110 145.7105280   5.4255660  42.1777790
 146.1274070   5.2115770  41.3431250 146.4345100   5.6828450  42.7486410
 143.1485540   2.8707360  35.2947840 142.2214820   2.8044740  35.5236310
 143.3010360   3.8087490  35.1803080 149.6567380   3.8242880  42.2694030
 148.8286010   3.8935970  41.7944160 150.2517860   4.4097190  41.8009860
 147.1782830   4.4327660  35.7983090 146.5595250   4.0947210  35.1509390
 147.1607280   3.7887420  36.5062280 138.7542180   3.3972100  38.0767570
 138.3499180   2.6849350  37.5813470 138.8405300   3.0525340  38.9655610
 139.2223880   7.0839660  40.2406780 138.9252170   6.4785130  39.5614560
 140.1723700   7.1216970  40.1296140 147.3109490  10.6571530  43.9029880
 146.8340050  11.4643720  43.7102490 146.6271280  10.0049860  44.0556090
 138.3142310   6.8221350  46.8914580 137.4170840   7.0461320  47.1387980
 138.3395180   6.9456290  45.9425980 145.3547530   3.6714470  32.8055840
 145.7940810   2.8336900  32.6593660 146.0675950   4.3043870  32.8919980
 137.1413530   3.6934670  45.4671950 137.0021300   4.5657470  45.8359350
 136.2594890   3.3507480  45.3219890 143.4642910   8.6110540  36.7737080
 143.9038820   9.3534870  36.3592470 143.4029800   8.8537110  37.6976040
 138.9393880   9.6356370  47.6757100 138.9109310  10.0399320  46.8085530
 138.7758850   8.7066730  47.5128700 135.4546810   2.2917080  35.5774220
 135.3344410   3.0179170  34.9655490 135.1447700   1.5219990  35.1002130
 133.0932180   5.4632220  41.3842860 133.1712600   5.5980990  40.4398580
 133.7073860   4.7548110  41.5770980 134.3379810   7.1632410  37.7949040
 133.9307890   7.3047000  36.9402640 135.2292820   6.8792570  37.5920250
 150.2941950   7.6096320  46.1321280 150.4205010   7.3708200  45.2138460
 150.3363330   6.7780860  46.6043360 144.1558690  11.3124320  44.7016090
 144.6703360  11.2232330  45.5038520 143.3127770  11.6584020  44.9944000
 146.1313090  11.5979660  34.1300090 145.9714230  11.3082600  35.0281920
 145.9659800  10.8219790  33.5945320 138.6101470  11.3778190  35.9071710
 138.4343950  10.4613730  35.6939510 137.7557210  11.7365480  36.1469510
 145.8339220   9.1067220  32.6898090 145.1404380   9.1044510  32.0300370
 146.5762080   8.6826540  32.2592260 145.3989150  10.7329930  36.7646580
 145.8546100   9.9519310  37.0785200 145.7381670  11.4436750  37.3087760
 133.1491700   6.5046390  43.9237320 133.3122740   6.0351750  43.1056690
 133.6144150   5.9969950  44.5886160 139.6461500   1.9785800  32.2066400
 139.0778400   1.5304050  31.5802310 140.3550500   2.3378580  31.6731550
 134.7230680   5.8797820  46.0833130 134.3385470   5.2391490  46.6816090
 135.0342870   6.5833940  46.6527860 140.8727820   2.7274360  41.5641750
 141.2397950   2.2532930  42.3103090 140.6832880   3.6015930  41.9050090
 138.6627190   1.7683000  43.8825960 138.3584260   2.6474980  44.1076320
 139.6173650   1.8282790  43.9183400 137.1908980   5.9743990  34.4792810
 136.4171240   5.4341610  34.3191530 137.9203610   5.4550600  34.1410570
 147.9496960   4.9709350  40.2719200 148.6696080   5.4664640  39.8815310
 147.7478780   4.2927240  39.6273070 143.3315760   5.0418410  46.1588200
 143.2653070   4.1214080  45.9045790 142.7020900   5.1393850  46.8732840
 137.2346380   5.6424370  38.1171620 137.7525050   4.8392630  38.0628510
 136.7830400   5.5803510  38.9588450 142.1215880   6.9090650  33.3898920
 142.4631580   7.6532880  32.8942240 141.2928590   7.2221770  33.7523750
 134.7190920   2.6085740  45.0297320 134.3605860   3.2739590  45.6170660
 134.4245480   1.7769290  45.4009940 137.9204040   3.0669980  47.9136870
 137.6204180   3.2127160  47.0164690 138.6915280   2.5075270  47.8210260
 143.2632490   7.8638980  45.9092000 143.2777030   6.9319940  45.6910910
 142.5557590   7.9498740  46.5481770 148.3969560   2.0478800  32.1790610
 148.3133280   2.4793020  31.3287050 149.1163750   2.5077150  32.6117430
 149.4743700   4.5046320  45.2560580 148.7491890   5.0975100  45.0589970
 150.0019160   4.4969860  44.4573950 149.4256810   8.9021060  34.9072740
 148.7832970   8.2476680  35.1816460 149.0387470   9.3076150  34.1313410
 145.0043290   6.2306490  38.7544430 145.3567110   5.6334620  38.0945800
 144.1205620   5.9050720  38.9252680 141.0906570   6.9904180  36.1614840
 141.7777700   7.5373390  36.5422430 140.3038990   7.5344910  36.1964450
 133.2298970   2.6077000  31.6531920 134.0993820   2.8901800  31.9367840
 132.7389290   3.4212870  31.5380730 140.3933780   3.9950210  35.7740200
 140.8496560   4.8055460  36.0000390 140.0421990   3.6773350  36.6058690
 142.6966390   9.5056550  43.0032500 143.3408610   9.7115930  43.6805920
 143.0595830   8.7444950  42.5503350 143.9698470   7.5088900  41.7209950
 144.6120700   6.8082060  41.8342120 144.4947820   8.2887340  41.5406840
 147.8154190   7.7937520  31.4449090 147.5891770   7.0767960  32.0373730
 147.4250390   7.5449960  30.6070840 145.7436090   8.3083800  44.9246010
 146.0792330   8.8950490  45.6023930 144.8236430   8.1776510  45.1543800
 133.5970220  11.8204380  32.2193550 133.9567860  12.4193720  31.5650820
 133.4562560  12.3664270  32.9928580 147.3970440   5.7109460  33.1063250
 147.1092140   6.1722150  33.8941130 148.1922610   5.2507230  33.3747470
 133.5812080  10.0859240  46.6935950 133.6903200   9.1453980  46.5531340
 132.9292640  10.3513990  46.0449680 141.5724670   8.3575130  48.0934070
 141.2521540   7.6384370  48.6379760 140.8983030   9.0330200  48.1670130
 139.6138840   9.2035580  33.0367220 139.6048940   9.9365270  32.4211730
 138.6937200   8.9567160  33.1294180 135.2145480   4.4250470  33.7813980
 134.6073430   5.1649370  33.7909280 135.6894830   4.5149830  32.9552180
 142.5998440   9.2663820  31.6992410 142.7010420   9.0627810  30.7694390
 141.7000180   9.0122100  31.9040190 141.2416550  11.7850140  36.3940080
 141.4958050  11.7471530  35.4719450 140.2929030  11.6583470  36.3868330
 147.2469130   2.7042020  37.9698590 146.3059270   2.7192250  38.1446280
 147.5613200   1.9177980  38.4158890 137.2250770   4.3861620  31.5302550
 137.9914040   4.2742980  32.0927980 137.3025460   3.6899590  30.8779320
 149.2494710   9.8750870  39.6452850 149.3742130  10.6982040  40.1176660
 150.1160270   9.6641600  39.2977000 136.7212240  11.9682080  39.3169980
 137.4574720  11.4197540  39.5878550 137.1053160  12.8338090  39.1775970
 133.6057720   8.0355650  35.1911490 132.6797500   8.2776790  35.1816900
 134.0714150   8.8629910  35.0696240 135.7270520  11.1528150  48.5055560
 136.5283250  11.4740200  48.9190960 135.2122340  10.7923730  49.2275470
 139.8314550  11.1412390  31.1395550 140.6243160  11.4301220  30.6877340
 139.3118900  10.7104560  30.4608030 144.5635150   7.2608020  48.4530970
 143.9573310   7.2839620  47.7126720 144.2589260   6.5291060  48.9898220
 145.9935520  10.9888310  47.0640380 146.9457270  10.9046330  47.0140620
 145.8463740  11.6530020  47.7374170 148.8844720  10.3682520  32.5632290
 148.5986230   9.9547660  31.7486470 148.6864270  11.2970230  32.4432810
 133.4468330   3.6401610  47.4491610 133.9507350   3.0608890  48.0207840
 132.7075750   3.9241840  47.9867980 140.3491950   6.3615800  31.0037900
 140.2442590   5.7468150  31.7299280 140.1816170   5.8381690  30.2200910
 140.5006270   5.0472600  46.9827130 139.7351940   5.6157600  46.8981800
 140.6822230   4.7548810  46.0895360 143.5894680   5.4235830  31.6079890
 143.0404780   5.8705130  32.2522630 144.2113940   4.9185080  32.1317560
 147.6429620   6.7777930  47.5402150 148.3839090   7.1153690  47.0369610
 146.8802300   6.9469990  46.9871920 135.4791410   1.7831200  48.3441680
 135.5196750   1.4845070  49.2526910 136.3336910   2.1838810  48.1849200
 139.2569800   4.3826750  33.5045190 139.6786220   4.2166620  34.3476580
 139.3820640   3.5726980  33.0100330 141.7697440   3.4064360  30.7522290
 142.2903100   2.6913380  30.3863440 142.4165840   4.0450230  31.0522800
 146.3175280   4.8292760  46.0757360 146.7316300   4.9837840  46.9247780
 145.3826280   4.9547980  46.2383140 146.7897450   2.1688920  48.0796510
 147.3718220   1.4141240  47.9916990 146.9659220   2.6996360  47.3027990
 141.0790510   4.7813240  44.0453290 141.4978620   5.6245970  43.8729530
 140.1599140   4.9185280  43.8160070 143.4154410   2.5129420  45.4291130
 143.5350620   1.9170560  46.1685970 144.2748410   2.5499110  45.0092430
 145.7542310   3.0666610  44.0053640 145.2277530   3.5909230  43.4018780
 146.0973650   3.6994000  44.6363370 138.9297930  11.0866250  45.1611020
 138.3919020  11.8112310  44.8419720 139.1831890  10.6096590  44.3708360
 141.7860140  12.3217460  45.4197670 141.7118840  13.2252600  45.7270040
 140.8838980  12.0029360  45.3919740 142.3345470  11.4875970  33.0424030
 143.2296260  11.8260940  33.0642790 142.3663100  10.7655380  32.4148310
 135.9741630   6.8603020  31.2711030 136.4116500   7.4032690  31.9268610
 136.4589360   6.0349970  31.2807370 133.1887430   9.6492050  38.7231290
 133.5190440   8.7813110  38.4909930 133.6178430   9.8550570  39.5536250
 137.7849350   7.9801060  36.3833260 137.4844890   7.8566030  37.2837170
 137.6786840   7.1209650  35.9748990 133.6777640  10.5162640  41.4612920
 133.2408630  10.6963440  42.2937070 134.2455320  11.2737260  41.3194640
 149.3139820  10.0179640  45.7490230 148.7141810  10.0772200  45.0054150
 149.4433720   9.0784620  45.8787080 133.5102070   3.0282870  37.8201800
 132.8550910   2.7594510  37.1761500 134.3480020   2.9187350  37.3703780
 147.9991460   6.7431620  43.8466390 147.1851300   7.1728780  44.1092180
 148.4065660   7.3550030  43.2335440 150.0616900   4.7979310  30.7466660
 150.3365740   5.7058190  30.6185880 149.8727640   4.7341840  31.6828650
 149.9582240   2.7348300  35.7396090 149.5825840   1.9676230  35.3077380
 149.2285360   3.1171000  36.2271020 134.5478000   3.4135440  42.3605140
 134.9151040   3.3262840  43.2401160 133.9788820   2.6501990  42.2612000
 149.3481860   1.8819820  45.3735610 149.1167950   1.6532570  44.4733560
 149.6086410   2.8019370  45.3280500 148.0567510  11.4950220  37.3734660
 148.6526580  11.1734790  36.6969080 148.3145660  11.0222040  38.1647930
 135.9630080   7.9268130  47.5225290 135.9199710   7.5561040  48.4039750
 136.0941090   8.8645700  47.6627110 139.6636110   9.4827720  43.1235010
 139.4227470   9.7502280  42.2365530 140.6038750   9.6533450  43.1785870
 135.8018110  10.8730380  44.6423070 135.2078430  10.7415080  45.3813110
 135.7941950  10.0368520  44.1765170 148.6079720  12.1445520  41.2032390
 148.1482690  12.8961330  40.8290410 147.9792180  11.4251990  41.1447190
 135.4330340   8.2388760  43.5931110 134.7064400   7.6194050  43.5257060
 135.4939490   8.6329370  42.7229190 139.0375440  10.4533760  40.3780520
 139.5540460   9.8421120  39.8528780 139.6872820  10.9562540  40.8691530
 141.7770940  11.3442250  41.2049500 142.0648750  11.0896550  40.3282510
 142.2894160  10.7919610  41.7955070 133.7160340  11.5563150  36.8027870
 133.5482380  10.9233830  37.5009760 132.8494850  11.7622550  36.4522060
 135.3223040  10.2496380  34.2478010 134.7970660  10.6304410  33.5439970
 135.2467620  10.8747150  34.9687720 141.8443300  12.2658350  48.5717700
 142.7710610  12.0302620  48.6153660 141.8293730  13.0930350  48.0903730
 150.0788360  11.8083920  35.5691950 150.2540550  11.1221660  34.9252870
 149.3809930  12.3330970  35.1768620 137.9216010  12.1978760  33.1227260
 138.6534830  11.9138040  32.5751150 138.1809680  11.9592040  34.0126640
 137.0830800   8.3143490  33.1273590 136.4539680   8.7828590  33.6759420
 137.1978630   7.4692710  33.5619780 148.4120860  11.4928210  48.3958740
 149.2046180  10.9977440  48.1884700 148.7054010  12.1718350  49.0034350
 144.5380520   2.3649150  19.2774790 144.4574570   1.4503760  19.0066500
 144.1244940   2.8616220  18.5714500 142.6698560   4.1428170  21.1584060
 141.8940660   3.6628610  21.4482630 143.3211490   3.4633820  20.9840220
 136.6864390   4.4547980  22.0359820 135.8549270   4.1996690  22.4356330
 137.2945370   4.5258750  22.7717740 146.6905990   8.5488360  19.9383190
 146.2287520   7.7775600  20.2670360 147.5031540   8.5754430  20.4435640
 136.6665650   8.4888070  22.2317840 136.9693690   7.5985810  22.0528060
 137.4109240   9.0458290  22.0040090 142.9169300  10.8346370  19.5587180
 142.2980740  11.2903870  18.9881620 143.7721080  10.9897830  19.1576880
 142.1107550   6.8185360  21.1654220 142.0415830   5.8775300  21.0043350
 142.8727410   6.9086770  21.7376790 143.7832650   5.7185610  16.9519090
 143.1649920   6.1835060  16.3881810 144.2955900   6.4113090  17.3688600
 138.6464410   5.2461480  23.6302690 138.3133790   5.8730400  24.2723760
 138.8231090   5.7723360  22.8504360 137.8583510   7.2142280  25.4451870
 138.4757510   7.8893360  25.1636320 136.9976630   7.6230260  25.3539370
 133.1515850   6.4042140  14.3258720 132.7743830   6.8929240  13.5943620
 133.4088920   7.0767420  14.9565250 148.7761100   8.6781690  23.3606510
 148.0924620   9.3480800  23.3523180 149.3155390   8.8762340  22.5951370
 146.3119840  10.5225820  22.0751690 146.3247000  10.1188110  21.2073950
 145.7595060  11.2973110  21.9713120 147.6065260   7.2442040  17.1641860
 147.4961590   6.3016370  17.2891280 147.6033510   7.6057680  18.0504620
 145.7105280   5.4255660  23.4034300 146.1274070   5.2115770  22.5687760
 146.4345100   5.6828450  23.9742920 143.1485540   2.8707360  16.5204350
 142.2214820   2.8044740  16.7492820 143.3010360   3.8087490  16.4059590
 149.6567380   3.8242880  23.4950540 148.8286010   3.8935970  23.0200670
 150.2517860   4.4097190  23.0266370 147.1782830   4.4327660  17.0239600
 146.5595250   4.0947210  16.3765900 147.1607280   3.7887420  17.7318790
 138.7542180   3.3972100  19.3024080 138.3499180   2.6849350  18.8069980
 138.8405300   3.0525340  20.1912120 139.2223880   7.0839660  21.4663290
 138.9252170   6.4785130  20.7871070 140.1723700   7.1216970  21.3552650
 147.3109490  10.6571530  25.1286390 146.8340050  11.4643720  24.9359000
 146.6271280  10.0049860  25.2812600 138.3142310   6.8221350  28.1171090
 137.4170840   7.0461320  28.3644490 138.3395180   6.9456290  27.1682490
 145.3547530   3.6714470  14.0312350 145.7940810   2.8336900  13.8850170
 146.0675950   4.3043870  14.1176490 137.1413530   3.6934670  26.6928460
 137.0021300   4.5657470  27.0615860 136.2594890   3.3507480  26.5476400
 143.4642910   8.6110540  17.9993590 143.9038820   9.3534870  17.5848980
 143.4029800   8.8537110  18.9232550 138.9393880   9.6356370  28.9013610
 138.9109310  10.0399320  28.0342040 138.7758850   8.7066730  28.7385210
 135.4546810   2.2917080  16.8030730 135.3344410   3.0179170  16.1912000
 135.1447700   1.5219990  16.3258640 133.0932180   5.4632220  22.6099370
 133.1712600   5.5980990  21.6655090 133.7073860   4.7548110  22.8027490
 134.3379810   7.1632410  19.0205550 133.9307890   7.3047000  18.1659150
 135.2292820   6.8792570  18.8176760 150.2941950   7.6096320  27.3577790
 150.4205010   7.3708200  26.4394970 150.3363330   6.7780860  27.8299870
 144.1558690  11.3124320  25.9272600 144.6703360  11.2232330  26.7295030
 143.3127770  11.6584020  26.2200510 146.1313090  11.5979660  15.3556600
 145.9714230  11.3082600  16.2538430 145.9659800  10.8219790  14.8201830
 138.6101470  11.3778190  17.1328220 138.4343950  10.4613730  16.9196020
 137.7557210  11.7365480  17.3726020 145.8339220   9.1067220  13.9154600
 145.1404380   9.1044510  13.2556880 146.5762080   8.6826540  13.4848770
 145.3989150  10.7329930  17.9903090 145.8546100   9.9519310  18.3041710
 145.7381670  11.4436750  18.5344270 133.1491700   6.5046390  25.1493830
 133.3122740   6.0351750  24.3313200 133.6144150   5.9969950  25.8142670
 139.6461500   1.9785800  13.4322910 139.0778400   1.5304050  12.8058820
 140.3550500   2.3378580  12.8988060 134.7230680   5.8797820  27.3089640
 134.3385470   5.2391490  27.9072600 135.0342870   6.5833940  27.8784370
 140.8727820   2.7274360  22.7898260 141.2397950   2.2532930  23.5359600
 140.6832880   3.6015930  23.1306600 138.6627190   1.7683000  25.1082470
 138.3584260   2.6474980  25.3332830 139.6173650   1.8282790  25.1439910
 137.1908980   5.9743990  15.7049320 136.4171240   5.4341610  15.5448040
 137.9203610   5.4550600  15.3667080 147.9496960   4.9709350  21.4975710
 148.6696080   5.4664640  21.1071820 147.7478780   4.2927240  20.8529580
 143.3315760   5.0418410  27.3844710 143.2653070   4.1214080  27.1302300
 142.7020900   5.1393850  28.0989350 137.2346380   5.6424370  19.3428130
 137.7525050   4.8392630  19.2885020 136.7830400   5.5803510  20.1844960
 142.1215880   6.9090650  14.6155430 142.4631580   7.6532880  14.1198750
 141.2928590   7.2221770  14.9780260 134.7190920   2.6085740  26.2553830
 134.3605860   3.2739590  26.8427170 134.4245480   1.7769290  26.6266450
 137.9204040   3.0669980  29.1393380 137.6204180   3.2127160  28.2421200
 138.6915280   2.5075270  29.0466770 143.2632490   7.8638980  27.1348510
 143.2777030   6.9319940  26.9167420 142.5557590   7.9498740  27.7738280
 148.3969560   2.0478800  13.4047120 148.3133280   2.4793020  12.5543560
 149.1163750   2.5077150  13.8373940 149.4743700   4.5046320  26.4817090
 148.7491890   5.0975100  26.2846480 150.0019160   4.4969860  25.6830460
 149.4256810   8.9021060  16.1329250 148.7832970   8.2476680  16.4072970
 149.0387470   9.3076150  15.3569920 145.0043290   6.2306490  19.9800940
 145.3567110   5.6334620  19.3202310 144.1205620   5.9050720  20.1509190
 141.0906570   6.9904180  17.3871350 141.7777700   7.5373390  17.7678940
 140.3038990   7.5344910  17.4220960 133.2298970   2.6077000  12.8788430
 134.0993820   2.8901800  13.1624350 132.7389290   3.4212870  12.7637240
 140.3933780   3.9950210  16.9996710 140.8496560   4.8055460  17.2256900
 140.0421990   3.6773350  17.8315200 142.6966390   9.5056550  24.2289010
 143.3408610   9.7115930  24.9062430 143.0595830   8.7444950  23.7759860
 143.9698470   7.5088900  22.9466460 144.6120700   6.8082060  23.0598630
 144.4947820   8.2887340  22.7663350 147.8154190   7.7937520  12.6705600
 147.5891770   7.0767960  13.2630240 147.4250390   7.5449960  11.8327350
 145.7436090   8.3083800  26.1502520 146.0792330   8.8950490  26.8280440
 144.8236430   8.1776510  26.3800310 133.5970220  11.8204380  13.4450060
 133.9567860  12.4193720  12.7907330 133.4562560  12.3664270  14.2185090
 147.3970440   5.7109460  14.3319760 147.1092140   6.1722150  15.1197640
 148.1922610   5.2507230  14.6003980 133.5812080  10.0859240  27.9192460
 133.6903200   9.1453980  27.7787850 132.9292640  10.3513990  27.2706190
 141.5724670   8.3575130  29.3190580 141.2521540   7.6384370  29.8636270
 140.8983030   9.0330200  29.3926640 139.6138840   9.2035580  14.2623730
 139.6048940   9.9365270  13.6468240 138.6937200   8.9567160  14.3550690
 135.2145480   4.4250470  15.0070490 134.6073430   5.1649370  15.0165790
 135.6894830   4.5149830  14.1808690 142.5998440   9.2663820  12.9248920
 142.7010420   9.0627810  11.9950900 141.7000180   9.0122100  13.1296700
 141.2416550  11.7850140  17.6196590 141.4958050  11.7471530  16.6975960
 140.2929030  11.6583470  17.6124840 147.2469130   2.7042020  19.1955100
 146.3059270   2.7192250  19.3702790 147.5613200   1.9177980  19.6415400
 137.2250770   4.3861620  12.7559060 137.9914040   4.2742980  13.3184490
 137.3025460   3.6899590  12.1035830 149.2494710   9.8750870  20.8709360
 149.3742130  10.6982040  21.3433170 150.1160270   9.6641600  20.5233510
 136.7212240  11.9682080  20.5426490 137.4574720  11.4197540  20.8135060
 137.1053160  12.8338090  20.4032480 133.6057720   8.0355650  16.4168000
 132.6797500   8.2776790  16.4073410 134.0714150   8.8629910  16.2952750
 135.7270520  11.1528150  29.7312070 136.5283250  11.4740200  30.1447470
 135.2122340  10.7923730  30.4531980 139.8314550  11.1412390  12.3652060
 140.6243160  11.4301220  11.9133850 139.3118900  10.7104560  11.6864540
 144.5635150   7.2608020  29.6787480 143.9573310   7.2839620  28.9383230
 144.2589260   6.5291060  30.2154730 145.9935520  10.9888310  28.2896890
 146.9457270  10.9046330  28.2397130 145.8463740  11.6530020  28.9630680
 148.8844720  10.3682520  13.7888800 148.5986230   9.9547660  12.9742980
 148.6864270  11.2970230  13.6689320 133.4468330   3.6401610  28.6748120
 133.9507350   3.0608890  29.2464350 132.7075750   3.9241840  29.2124490
 140.3491950   6.3615800  12.2294410 140.2442590   5.7468150  12.9555790
 140.1816170   5.8381690  11.4457420 140.5006270   5.0472600  28.2083640
 139.7351940   5.6157600  28.1238310 140.6822230   4.7548810  27.3151870
 143.5894680   5.4235830  12.8336400 143.0404780   5.8705130  13.4779140
 144.2113940   4.9185080  13.3574070 147.6429620   6.7777930  28.7658660
 148.3839090   7.1153690  28.2626120 146.8802300   6.9469990  28.2128430
 135.4791410   1.7831200  29.5698190 135.5196750   1.4845070  30.4783420
 136.3336910   2.1838810  29.4105710 139.2569800   4.3826750  14.7301700
 139.6786220   4.2166620  15.5733090 139.3820640   3.5726980  14.2356840
 141.7697440   3.4064360  11.9778800 142.2903100   2.6913380  11.6119950
 142.4165840   4.0450230  12.2779310 146.3175280   4.8292760  27.3013870
 146.7316300   4.9837840  28.1504290 145.3826280   4.9547980  27.4639650
 146.7897450   2.1688920  29.3053020 147.3718220   1.4141240  29.2173500
 146.9659220   2.6996360  28.5284500 141.0790510   4.7813240  25.2709800
 141.4978620   5.6245970  25.0986040 140.1599140   4.9185280  25.0416580
 143.4154410   2.5129420  26.6547640 143.5350620   1.9170560  27.3942480
 144.2748410   2.5499110  26.2348940 145.7542310   3.0666610  25.2310150
 145.2277530   3.5909230  24.6275290 146.0973650   3.6994000  25.8619880
 138.9297930  11.0866250  26.3867530 138.3919020  11.8112310  26.0676230
 139.1831890  10.6096590  25.5964870 141.7860140  12.3217460  26.6454180
 141.7118840  13.2252600  26.9526550 140.8838980  12.0029360  26.6176250
 142.3345470  11.4875970  14.2680540 143.2296260  11.8260940  14.2899300
 142.3663100  10.7655380  13.6404820 135.9741630   6.8603020  12.4967540
 136.4116500   7.4032690  13.1525120 136.4589360   6.0349970  12.5063880
 133.1887430   9.6492050  19.9487800 133.5190440   8.7813110  19.7166440
 133.6178430   9.8550570  20.7792760 137.7849350   7.9801060  17.6089770
 137.4844890   7.8566030  18.5093680 137.6786840   7.1209650  17.2005500
 133.6777640  10.5162640  22.6869430 133.2408630  10.6963440  23.5193580
 134.2455320  11.2737260  22.5451150 149.3139820  10.0179640  26.9746740
 148.7141810  10.0772200  26.2310660 149.4433720   9.0784620  27.1043590
 133.5102070   3.0282870  19.0458310 132.8550910   2.7594510  18.4018010
 134.3480020   2.9187350  18.5960290 147.9991460   6.7431620  25.0722900
 147.1851300   7.1728780  25.3348690 148.4065660   7.3550030  24.4591950
 150.0616900   4.7979310  11.9723170 150.3365740   5.7058190  11.8442390
 149.8727640   4.7341840  12.9085160 149.9582240   2.7348300  16.9652600
 149.5825840   1.9676230  16.5333890 149.2285360   3.1171000  17.4527530
 134.5478000   3.4135440  23.5861650 134.9151040   3.3262840  24.4657670
 133.9788820   2.6501990  23.4868510 149.3481860   1.8819820  26.5992120
 149.1167950   1.6532570  25.6990070 149.6086410   2.8019370  26.5537010
 148.0567510  11.4950220  18.5991170 148.6526580  11.1734790  17.9225590
 148.3145660  11.0222040  19.3904440 135.9630080   7.9268130  28.7481800
 135.9199710   7.5561040  29.6296260 136.0941090   8.8645700  28.8883620
 139.6636110   9.4827720  24.3491520 139.4227470   9.7502280  23.4622040
 140.6038750   9.6533450  24.4042380 135.8018110  10.8730380  25.8679580
 135.2078430  10.7415080  26.6069620 135.7941950  10.0368520  25.4021680
 148.6079720  12.1445520  22.4288900 148.1482690  12.8961330  22.0546920
 147.9792180  11.4251990  22.3703700 135.4330340   8.2388760  24.8187620
 134.7064400   7.6194050  24.7513570 135.4939490   8.6329370  23.9485700
 139.0375440  10.4533760  21.6037030 139.5540460   9.8421120  21.0785290
 139.6872820  10.9562540  22.0948040 141.7770940  11.3442250  22.4306010
 142.0648750  11.0896550  21.5539020 142.2894160  10.7919610  23.0211580
 133.7160340  11.5563150  18.0284380 133.5482380  10.9233830  18.7266270
 132.8494850  11.7622550  17.6778570 135.3223040  10.2496380  15.4734520
 134.7970660  10.6304410  14.7696480 135.2467620  10.8747150  16.1944230
 141.8443300  12.2658350  29.7974210 142.7710610  12.0302620  29.8410170
 141.8293730  13.0930350  29.3160240 150.0788360  11.8083920  16.7948460
 150.2540550  11.1221660  16.1509380 149.3809930  12.3330970  16.4025130
 137.9216010  12.1978760  14.3483770 138.6534830  11.9138040  13.8007660
 138.1809680  11.9592040  15.2383150 137.0830800   8.3143490  14.3530100
 136.4539680   8.7828590  14.9015930 137.1978630   7.4692710  14.7876290
 148.4120860  11.4928210  29.6215250 149.2046180  10.9977440  29.4141210
 148.7054010  12.1718350  30.2290860 142.6698560   4.1428170   2.3840570
 141.8940660   3.6628610   2.6739140 143.3211490   3.4633820   2.2096730
 136.6864390   4.4547980   3.2616330 135.8549270   4.1996690   3.6612840
 137.2945370   4.5258750   3.9974250 136.6665650   8.4888070   3.4574350
 136.9693690   7.5985810   3.2784570 137.4109240   9.0458290   3.2296600
 142.1107550   6.8185360   2.3910730 142.0415830   5.8775300   2.2299860
 142.8727410   6.9086770   2.9633300 138.6464410   5.2461480   4.8559200
 138.3133790   5.8730400   5.4980270 138.8231090   5.7723360   4.0760870
 137.8583510   7.2142280   6.6708380 138.4757510   7.8893360   6.3892830
 136.9976630   7.6230260   6.5795880 148.7761100   8.6781690   4.5863020
 148.0924620   9.3480800   4.5779690 149.3155390   8.8762340   3.8207880
 146.3119840  10.5225820   3.3008200 146.3247000  10.1188110   2.4330460
 145.7595060  11.2973110   3.1969630 145.7105280   5.4255660   4.6290810
 146.1274070   5.2115770   3.7944270 146.4345100   5.6828450   5.1999430
 149.6567380   3.8242880   4.7207050 148.8286010   3.8935970   4.2457180
 150.2517860   4.4097190   4.2522880 139.2223880   7.0839660   2.6919800
 138.9252170   6.4785130   2.0127580 140.1723700   7.1216970   2.5809160
 147.3109490  10.6571530   6.3542900 146.8340050  11.4643720   6.1615510
 146.6271280  10.0049860   6.5069110 138.3142310   6.8221350   9.3427600
 137.4170840   7.0461320   9.5901000 138.3395180   6.9456290   8.3939000
 137.1413530   3.6934670   7.9184970 137.0021300   4.5657470   8.2872370
 136.2594890   3.3507480   7.7732910 138.9393880   9.6356370  10.1270120
 138.9109310  10.0399320   9.2598550 138.7758850   8.7066730   9.9641720
 133.0932180   5.4632220   3.8355880 133.1712600   5.5980990   2.8911600
 133.7073860   4.7548110   4.0284000 150.2941950   7.6096320   8.5834300
 150.4205010   7.3708200   7.6651480 150.3363330   6.7780860   9.0556380
 144.1558690  11.3124320   7.1529110 144.6703360  11.2232330   7.9551540
 143.3127770  11.6584020   7.4457020 133.1491700   6.5046390   6.3750340
 133.3122740   6.0351750   5.5569710 133.6144150   5.9969950   7.0399180
 134.7230680   5.8797820   8.5346150 134.3385470   5.2391490   9.1329110
 135.0342870   6.5833940   9.1040880 140.8727820   2.7274360   4.0154770
 141.2397950   2.2532930   4.7616110 140.6832880   3.6015930   4.3563110
 138.6627190   1.7683000   6.3338980 138.3584260   2.6474980   6.5589340
 139.6173650   1.8282790   6.3696420 147.9496960   4.9709350   2.7232220
 148.6696080   5.4664640   2.3328330 147.7478780   4.2927240   2.0786090
 143.3315760   5.0418410   8.6101220 143.2653070   4.1214080   8.3558810
 142.7020900   5.1393850   9.3245860 134.7190920   2.6085740   7.4810340
 134.3605860   3.2739590   8.0683680 134.4245480   1.7769290   7.8522960
 137.9204040   3.0669980  10.3649890 137.6204180   3.2127160   9.4677710
 138.6915280   2.5075270  10.2723280 143.2632490   7.8638980   8.3605020
 143.2777030   6.9319940   8.1423930 142.5557590   7.9498740   8.9994790
 149.4743700   4.5046320   7.7073600 148.7491890   5.0975100   7.5102990
 150.0019160   4.4969860   6.9086970 142.6966390   9.5056550   5.4545520
 143.3408610   9.7115930   6.1318940 143.0595830   8.7444950   5.0016370
 143.9698470   7.5088900   4.1722970 144.6120700   6.8082060   4.2855140
 144.4947820   8.2887340   3.9919860 145.7436090   8.3083800   7.3759030
 146.0792330   8.8950490   8.0536950 144.8236430   8.1776510   7.6056820
 133.5812080  10.0859240   9.1448970 133.6903200   9.1453980   9.0044360
 132.9292640  10.3513990   8.4962700 141.5724670   8.3575130  10.5447090
 141.2521540   7.6384370  11.0892780 140.8983030   9.0330200  10.6183150
 149.2494710   9.8750870   2.0965870 149.3742130  10.6982040   2.5689680
 150.1160270   9.6641600   1.7490020 136.7212240  11.9682080   1.7683000
 137.4574720  11.4197540   2.0391570 137.1053160  12.8338090   1.6288990
 135.7270520  11.1528150  10.9568580 136.5283250  11.4740200  11.3703980
 135.2122340  10.7923730  11.6788490 144.5635150   7.2608020  10.9043990
 143.9573310   7.2839620  10.1639740 144.2589260   6.5291060  11.4411240
 145.9935520  10.9888310   9.5153400 146.9457270  10.9046330   9.4653640
 145.8463740  11.6530020  10.1887190 133.4468330   3.6401610   9.9004630
 133.9507350   3.0608890  10.4720860 132.7075750   3.9241840  10.4381000
 140.5006270   5.0472600   9.4340150 139.7351940   5.6157600   9.3494820
 140.6822230   4.7548810   8.5408380 147.6429620   6.7777930   9.9915170
 148.3839090   7.1153690   9.4882630 146.8802300   6.9469990   9.4384940
 135.4791410   1.7831200  10.7954700 135.5196750   1.4845070  11.7039930
 136.3336910   2.1838810  10.6362220 146.3175280   4.8292760   8.5270380
 146.7316300   4.9837840   9.3760800 145.3826280   4.9547980   8.6896160
 146.7897450   2.1688920  10.5309530 147.3718220   1.4141240  10.4430010
 146.9659220   2.6996360   9.7541010 141.0790510   4.7813240   6.4966310
 141.4978620   5.6245970   6.3242550 140.1599140   4.9185280   6.2673090
 143.4154410   2.5129420   7.8804150 143.5350620   1.9170560   8.6198990
 144.2748410   2.5499110   7.4605450 145.7542310   3.0666610   6.4566660
 145.2277530   3.5909230   5.8531800 146.0973650   3.6994000   7.0876390
 138.9297930  11.0866250   7.6124040 138.3919020  11.8112310   7.2932740
 139.1831890  10.6096590   6.8221380 141.7860140  12.3217460   7.8710690
 141.7118840  13.2252600   8.1783060 140.8838980  12.0029360   7.8432760
 133.6777640  10.5162640   3.9125940 133.2408630  10.6963440   4.7450090
 134.2455320  11.2737260   3.7707660 149.3139820  10.0179640   8.2003250
 148.7141810  10.0772200   7.4567170 149.4433720   9.0784620   8.3300100
 147.9991460   6.7431620   6.2979410 147.1851300   7.1728780   6.5605200
 148.4065660   7.3550030   5.6848460 134.5478000   3.4135440   4.8118160
 134.9151040   3.3262840   5.6914180 133.9788820   2.6501990   4.7125020
 149.3481860   1.8819820   7.8248630 149.1167950   1.6532570   6.9246580
 149.6086410   2.8019370   7.7793520 135.9630080   7.9268130   9.9738310
 135.9199710   7.5561040  10.8552770 136.0941090   8.8645700  10.1140130
 139.6636110   9.4827720   5.5748030 139.4227470   9.7502280   4.6878550
 140.6038750   9.6533450   5.6298890 135.8018110  10.8730380   7.0936090
 135.2078430  10.7415080   7.8326130 135.7941950  10.0368520   6.6278190
 148.6079720  12.1445520   3.6545410 148.1482690  12.8961330   3.2803430
 147.9792180  11.4251990   3.5960210 135.4330340   8.2388760   6.0444130
 134.7064400   7.6194050   5.9770080 135.4939490   8.6329370   5.1742210
 139.0375440  10.4533760   2.8293540 139.5540460   9.8421120   2.3041800
 139.6872820  10.9562540   3.3204550 141.7770940  11.3442250   3.6562520
 142.0648750  11.0896550   2.7795530 142.2894160  10.7919610   4.2468090
 141.8443300  12.2658350  11.0230720 142.7710610  12.0302620  11.0666680
 141.8293730  13.0930350  10.5416750 148.4120860  11.4928210  10.8471760
 149.2046180  10.9977440  10.6397720 148.7054010  12.1718350  11.4547370
 125.7637030 152.5597070 150.6979220 125.6831080 151.6451680 150.4270930
 125.3501450 153.0564140 149.9918930 123.8955070 154.3376090 152.5788490
 123.1197170 153.8576530 152.8687060 124.5468000 153.6581740 152.4044650
 116.3212850 149.6097790 147.2406640 115.4329550 149.9513760 147.1386520
 116.6054040 149.4098110 146.3487470 114.2845860 152.2103440 153.1246340
 114.8561970 151.4425640 153.1249980 114.2847400 152.5092200 152.2152950
 124.3669230 149.8203660 152.8127580 124.7434050 148.9475540 152.7001250
 124.2688740 150.1562360 151.9218020 118.4974240 148.1929290 148.2745020
 118.6040990 149.0933020 148.5813780 117.5866600 148.1447260 147.9839670
 128.1493350 147.3154100 149.7455920 128.9702970 146.8250670 149.7881400
 128.1827430 147.9051760 150.4987760 128.3854830 149.2554480 152.5183460
 127.6810400 149.5439370 153.0986570 128.7466990 150.0654590 152.1583020
 121.9861290 145.0006450 151.2048660 122.2936270 144.4453340 150.4884160
 121.0561990 145.1350910 151.0221650 124.3742050 153.0655280 147.9408780
 123.4471330 152.9992660 148.1697250 124.5266870 154.0035410 147.8264020
 124.3611130 149.3372280 144.9375940 123.4214800 149.4986240 145.0228400
 124.6794390 150.0557960 144.3911930 128.4039340 154.6275580 148.4444030
 127.7851760 154.2895130 147.7970330 128.3863790 153.9835340 149.1523220
 119.9798690 153.5920020 150.7228510 119.5755690 152.8797270 150.2274410
 120.0661810 153.2473260 151.6116550 126.5804040 153.8662390 145.4516780
 127.0197320 153.0284820 145.3054600 127.2932460 154.4991790 145.5380920
 130.1621180 145.1205200 143.7657820 129.8493840 145.2132030 144.6656890
 130.9233650 145.6986230 143.7155250 116.6803320 152.4865000 148.2235160
 116.5600920 153.2127090 147.6116430 116.3704210 151.7167910 147.7463070
 119.1466980 145.8300070 151.6058830 118.7035130 146.6109610 151.2743350
 119.7051970 146.1529960 152.3129770 122.2625800 145.4510770 146.4864660
 121.6379980 145.4470640 147.2117970 122.1755920 144.5841730 146.0900630
 118.9381200 150.9533640 149.3340080 118.7122120 150.7370810 150.2386700
 118.1573730 151.3862100 148.9886050 126.1678960 150.9597010 147.9330730
 125.5687850 151.6832810 147.7494350 126.7158570 150.8973790 147.1507180
 124.7743830 149.5960550 149.9634010 125.1673400 149.9132750 149.1502700
 125.1360680 148.7172430 150.0778530 113.8108000 146.1861350 152.1864210
 113.5221050 146.7564210 152.8989190 114.5553760 145.7065800 152.5495440
 113.9978230 150.1281470 143.3966930 113.9152900 151.0712230 143.5381920
 113.6461290 149.9856380 142.5179280 121.7976360 148.8620500 152.4637280
 121.8012420 148.4210450 151.6141820 122.6927480 149.1837830 152.5709100
 117.6478740 148.7446990 151.4231490 117.3078790 149.2222220 152.1798540
 116.8856060 148.2912110 151.0632590 121.8596510 149.8632580 145.4544040
 121.9809330 149.8219060 146.4029860 121.4745020 150.7256730 145.2990770
 120.8718010 152.1733720 144.8527340 120.3034910 151.7251970 144.2263250
 121.5807010 152.5326500 144.3192490 114.9624820 147.6665970 150.3396160
 114.6771740 147.3021640 151.1774780 114.9003680 146.9346430 149.7259300
 124.6363410 146.5595230 147.0609530 123.8228020 146.0608400 146.9854840
 124.4425360 147.3993480 146.6445880 127.3511800 150.9314880 145.3571690
 128.2391420 151.2432110 145.1823030 127.3216890 150.0587130 144.9652270
 129.6226070 152.2426720 144.8251550 129.5389790 152.6740940 143.9747990
 130.3420260 152.7025070 145.2578370 114.4555480 152.8024920 144.2992860
 115.3250330 153.0849720 144.5828780 113.9645800 153.6160790 144.1841670
 121.6190290 154.1898130 148.4201140 122.0753070 155.0003380 148.6461330
 121.2678500 153.8721270 149.2519630 117.5202070 144.5335780 148.8923660
 117.3916700 144.5253680 149.8408580 116.6964090 144.8718870 148.5414670
 129.3796810 147.7406150 146.9119370 128.7509970 147.8451820 146.1977600
 128.8848730 147.9602930 147.7013250 121.3480840 150.0192100 148.3277250
 120.6396990 150.4878440 148.7690860 121.6325320 149.3614110 148.9622440
 125.3796270 146.7442760 149.7673040 125.2564050 146.7628890 148.8182550
 126.3280830 146.7921700 149.8871440 119.5515860 148.3277180 145.7027960
 120.4006390 148.7647330 145.6368150 119.1847130 148.6397440 146.5300020
 128.4725640 152.8989940 150.6159530 127.5315780 152.9140170 150.7907220
 128.7869710 152.1125900 151.0619830 118.4507280 154.5809540 144.1763490
 119.2170550 154.4690900 144.7388920 118.5281970 153.8847510 143.5240260
 117.1454040 152.0134610 144.8596380 117.2257630 151.0662120 144.9713780
 118.0373790 152.3441490 144.9657040 120.4826310 154.5774670 146.1506130
 120.9042730 154.4114540 146.9937520 120.6077150 153.7674900 145.6561270
 122.9953950 153.6012280 143.3983230 123.5159610 152.8861300 143.0324380
 123.6422350 154.2398150 143.6983740 119.3785210 150.6507900 143.0964290
 119.1774270 149.7875260 143.4577630 119.2077260 150.5641260 142.1585890
 126.8573520 145.4616130 145.6251170 127.1375810 144.6184030 145.9810590
 126.0839250 145.6939240 146.1389920 118.1768010 147.7508520 143.0842170
 118.4793910 147.7575950 142.1761320 118.9162600 147.4006380 143.5809830
 121.3952940 146.6943140 144.0698370 121.0474940 146.0167130 143.4900820
 121.5965710 146.2332650 144.8841760 114.7358580 153.2230790 150.4662740
 114.0807420 152.9542430 149.8222440 115.5736530 153.1135270 150.0164720
 127.6849020 148.0172080 144.6881230 128.1033900 147.8303060 143.8477890
 127.3785080 147.1651130 144.9984160 131.1838750 152.9296220 148.3857030
 130.8082350 152.1624150 147.9538320 130.4541870 153.3118920 148.8731960
 113.9496660 150.4329720 146.4088070 113.0460740 150.6959920 146.2339730
 114.4337280 150.7040890 145.6288030 130.4589710 151.1553710 151.6864270
 130.9827190 150.6616360 151.0554440 131.0449130 151.2904070 152.4311840
 116.4923870 149.4895260 144.3182450 117.2015570 149.0678480 143.8329730
 115.7763810 149.5570490 143.6865800 116.1398030 145.5434590 143.3585100
 116.8626160 146.0843530 143.6766320 116.4122550 145.2698010 142.4826640
 129.9489680 150.4127060 147.6256680 130.4448800 150.1797930 148.4105560
 129.7505750 149.5738900 147.2094320 131.3776840 149.0488010 150.1594360
 131.2676120 148.8944050 151.0976630 132.1384430 148.5208950 149.9169770
 132.2667110 146.8795930 143.4000500 133.1916420 146.7477110 143.1918790
 132.2442900 146.9588750 144.3536950 132.3405600 147.6506590 146.0257210
 131.5457100 147.5851710 146.5550120 132.5448880 148.5857230 146.0142560
 128.7725530 145.9803470 152.4756040 129.2133620 145.9248570 151.6277640
 128.5033120 146.8961480 152.5466220 130.6364100 145.6118710 150.4864860
 130.5752500 144.6679930 150.3395880 131.4156130 145.7198800 151.0318320
 115.5644870 145.5827850 146.9520670 116.3224230 145.6956730 146.3784700
 115.1022040 146.4197050 146.9064100 122.1058680 147.6967120 149.9422980
 121.2933190 147.3224010 149.6018860 122.6100320 146.9412200 150.2444170
 126.6083660 144.3609570 151.1806050 127.2113030 144.9329780 151.6554570
 125.8676650 144.9249010 150.9579950 129.7518260 144.7631130 146.4546330
 129.9468890 145.6614580 146.7213760 128.9648130 144.5318210 146.9479280
 117.9370020 146.1091900 145.4922640 118.4662780 145.3221700 145.3630590
 118.5698340 146.7883090 145.7258170 120.1307860 145.8467040 148.5468030
 119.5010600 145.1454350 148.7138160 119.5913000 146.6071170 148.3301190
 125.7637030 152.5597070 131.9235730 125.6831080 151.6451680 131.6527440
 125.3501450 153.0564140 131.2175440 123.8955070 154.3376090 133.8045000
 123.1197170 153.8576530 134.0943570 124.5468000 153.6581740 133.6301160
 117.9120900 154.6495900 134.6820760 117.0805780 154.3944610 135.0817270
 118.5201880 154.7206670 135.4178680 116.3212850 149.6097790 128.4663150
 115.4329550 149.9513760 128.3643030 116.6054040 149.4098110 127.5743980
 114.2845860 152.2103440 134.3502850 114.8561970 151.4425640 134.3506490
 114.2847400 152.5092200 133.4409460 115.5270730 147.6187800 136.1371780
 115.3473570 146.7213550 136.4174540 115.1250810 148.1659670 136.8118730
 124.3669230 149.8203660 134.0384090 124.7434050 148.9475540 133.9257760
 124.2688740 150.1562360 133.1474530 118.4974240 148.1929290 129.5001530
 118.6040990 149.0933020 129.8070290 117.5866600 148.1447260 129.2096180
 128.1493350 147.3154100 130.9712430 128.9702970 146.8250670 131.0137910
 128.1827430 147.9051760 131.7244270 116.1457400 150.1148300 134.7454120
 116.8267510 150.3786670 135.3641520 115.8305450 149.2749170 135.0792130
 120.3381970 151.1615660 133.8326710 120.8460190 151.6596630 134.4731730
 120.8695210 150.3850860 133.6566070 132.4392900 149.3320850 137.5356060
 131.7345070 149.7202560 137.0171170 132.7050820 150.0271140 138.1376990
 118.6218070 145.8014220 138.0990130 118.6236510 146.3186610 137.2936030
 117.7922380 145.3244400 138.0760060 128.3854830 149.2554480 133.7439970
 127.6810400 149.5439370 134.3243080 128.7466990 150.0654590 133.3839530
 118.3033400 147.5124180 136.1060580 118.6450210 148.3566230 135.8114450
 117.3649210 147.6607920 136.2225920 131.4541750 148.7009270 134.1349180
 130.5066660 148.7348250 134.2664610 131.7791740 149.5148220 134.5198540
 121.9861290 145.0006450 132.4305170 122.2936270 144.4453340 131.7140670
 121.0561990 145.1350910 132.2478160 124.3742050 153.0655280 129.1665290
 123.4471330 152.9992660 129.3953760 124.5266870 154.0035410 129.0520530
 124.3611130 149.3372280 126.1632450 123.4214800 149.4986240 126.2484910
 124.6794390 150.0557960 125.6168440 130.8823890 154.0190800 136.1411480
 130.0542520 154.0883890 135.6661610 131.4774370 154.6045110 135.6727310
 128.4039340 154.6275580 129.6700540 127.7851760 154.2895130 129.0226840
 128.3863790 153.9835340 130.3779730 127.8465900 150.8060120 137.0866350
 127.4337080 151.6313830 137.3406340 127.1141850 150.2205160 136.8942710
 119.9798690 153.5920020 131.9485020 119.5755690 152.8797270 131.4530920
 120.0661810 153.2473260 132.8373060 118.6927310 150.3663230 135.7284060
 119.2441900 150.4758570 134.9537310 119.2070820 150.7400830 136.4439290
 126.5804040 153.8662390 126.6773290 127.0197320 153.0284820 126.5311110
 127.2932460 154.4991790 126.7637430 118.3670040 153.8882590 139.3389400
 118.2277810 154.7605390 139.7076800 117.4851400 153.5455400 139.1937340
 130.1621180 145.1205200 124.9914330 129.8493840 145.2132030 125.8913400
 130.9233650 145.6986230 124.9411760 116.6803320 152.4865000 129.4491670
 116.5600920 153.2127090 128.8372940 116.3704210 151.7167910 128.9719580
 131.3722470 149.8576700 140.9688470 130.7566740 150.3656370 140.4403930
 131.0518890 148.9575030 140.9114410 119.1466980 145.8300070 132.8315340
 118.7035130 146.6109610 132.4999860 119.7051970 146.1529960 133.5386280
 123.4336790 148.6968590 138.4350660 122.9716160 148.9051610 139.2470600
 123.0314900 147.8827940 138.1321330 128.4341300 149.9177540 139.5647320
 127.5834890 149.6183290 139.8856390 128.2743090 150.1619550 138.6531140
 125.5291010 151.4179290 141.6646110 125.8544420 150.5843040 141.3248340
 126.3171340 151.9407810 141.8124440 122.2625800 145.4510770 127.7121170
 121.6379980 145.4470640 128.4374480 122.1755920 144.5841730 127.3157140
 121.1842880 146.3747400 134.6904940 121.4815210 147.2810230 134.6096960
 121.7328440 145.8866180 134.0764510 118.9381200 150.9533640 130.5596590
 118.7122120 150.7370810 131.4643210 118.1573730 151.3862100 130.2142560
 126.1678960 150.9597010 129.1587240 125.5687850 151.6832810 128.9750860
 126.7158570 150.8973790 128.3763690 121.3780410 151.8519220 141.2256860
 121.2824010 150.9113950 141.0757260 122.2212390 152.0734290 140.8304930
 124.7743830 149.5960550 131.1890520 125.1673400 149.9132750 130.3759210
 125.1360680 148.7172430 131.3035040 116.5090950 148.2632890 139.3790640
 116.1154340 149.1108100 139.5863420 115.8209350 147.6259260 139.5699280
 123.0836000 148.3467860 142.4487380 122.3934320 148.1540060 143.0833470
 123.8268300 148.6302500 142.9811680 113.8108000 146.1861350 133.4120720
 113.5221050 146.7564210 134.1245700 114.5553760 145.7065800 133.7751950
 113.9978230 150.1281470 124.6223440 113.9152900 151.0712230 124.7638430
 113.6461290 149.9856380 123.7435790 125.3598970 152.1866300 135.2841300
 124.6280090 152.6953110 135.6331400 124.9623310 151.3696280 134.9830080
 121.7976360 148.8620500 133.6893790 121.8012420 148.4210450 132.8398330
 122.6927480 149.1837830 133.7965610 117.6478740 148.7446990 132.6488000
 117.3078790 149.2222220 133.4055050 116.8856060 148.2912110 132.2889100
 121.8596510 149.8632580 126.6800550 121.9809330 149.8219060 127.6286370
 121.4745020 150.7256730 126.5247280 125.8224880 147.6399980 134.6964240
 125.8397620 148.0908630 135.5406090 125.5740460 146.7405620 134.9097680
 120.8718010 152.1733720 126.0783850 120.3034910 151.7251970 125.4519760
 121.5807010 152.5326500 125.5449000 129.2495630 145.0532160 140.5350620
 129.5741400 144.3221820 141.0608600 129.2852140 144.7345800 139.6331610
 122.0984330 152.9222280 135.4359200 122.4654460 152.4480850 136.1820540
 121.9089390 153.7963850 135.7767540 114.9624820 147.6665970 131.5652670
 114.6771740 147.3021640 132.4031290 114.9003680 146.9346430 130.9515810
 119.8883700 151.9630920 137.7543410 119.5840770 152.8422900 137.9793770
 120.8430160 152.0230710 137.7900850 124.6363410 146.5595230 128.2866040
 123.8228020 146.0608400 128.2111350 124.4425360 147.3993480 127.8702390
 127.3511800 150.9314880 126.5828200 128.2391420 151.2432110 126.4079540
 127.3216890 150.0587130 126.1908780 115.9447430 152.8033660 138.9014770
 115.5862370 153.4687510 139.4888110 115.6501990 151.9717210 139.2727390
 119.1460550 153.2617900 141.7854320 118.8460690 153.4075080 140.8882140
 119.9171790 152.7023190 141.6927710 129.6226070 152.2426720 126.0508060
 129.5389790 152.6740940 125.2004500 130.3420260 152.7025070 126.4834880
 114.4555480 152.8024920 125.5249370 115.3250330 153.0849720 125.8085290
 113.9645800 153.6160790 125.4098180 121.6190290 154.1898130 129.6457650
 122.0753070 155.0003380 129.8717840 121.2678500 153.8721270 130.4776140
 117.5202070 144.5335780 130.1180170 117.3916700 144.5253680 131.0665090
 116.6964090 144.8718870 129.7671180 114.5196000 146.2926900 139.5786870
 113.8054520 146.4923820 140.1839480 114.9391040 145.5166470 139.9501670
 126.0134780 148.7849210 137.3288320 126.3815600 147.9644420 137.6567890
 125.1532980 148.8451100 137.7443970 129.3796810 147.7406150 128.1375880
 128.7509970 147.8451820 127.4234110 128.8848730 147.9602930 128.9269760
 121.3480840 150.0192100 129.5533760 120.6396990 150.4878440 129.9947370
 121.6325320 149.3614110 130.1878950 122.9736770 151.4388800 137.5526290
 123.4722020 151.9134620 138.2178140 123.1159720 150.5152320 137.7596320
 125.3796270 146.7442760 130.9929550 125.2564050 146.7628890 130.0439060
 126.3280830 146.7921700 131.1127950 119.5515860 148.3277180 126.9284470
 120.4006390 148.7647330 126.8624660 119.1847130 148.6397440 127.7556530
 130.1803630 147.6556760 138.3954680 129.6777230 148.3962160 138.7348490
 130.9960290 148.0440760 138.0791470 128.4725640 152.8989940 131.8416040
 127.5315780 152.9140170 132.0163730 128.7869710 152.1125900 132.2876340
 118.4507280 154.5809540 125.4020000 119.2170550 154.4690900 125.9645430
 118.5281970 153.8847510 124.7496770 117.1454040 152.0134610 126.0852890
 117.2257630 151.0662120 126.1970290 118.0373790 152.3441490 126.1913550
 114.6724840 153.8349530 141.3209060 115.1763860 153.2556810 141.8925290
 113.9332260 154.1189760 141.8585430 116.7047920 151.9779120 142.2159130
 116.7453260 151.6792990 143.1244360 117.5593420 152.3786730 142.0566650
 120.4826310 154.5774670 127.3762640 120.9042730 154.4114540 128.2194030
 120.6077150 153.7674900 126.8817780 118.6453730 150.5571220 140.1833620
 118.1150190 150.0662170 139.5556960 119.3141800 150.9855420 139.6491550
 122.9953950 153.6012280 124.6239740 123.5159610 152.8861300 124.2580890
 123.6422350 154.2398150 124.9240250 128.0153960 152.3636840 141.9513960
 128.5974730 151.6089160 141.8634440 128.1915730 152.8944280 141.1745440
 119.1326030 147.5233590 140.2630910 119.0382900 146.9054340 139.5381780
 118.5523420 148.2499880 140.0360820 121.8987470 146.0806830 137.2958300
 121.4504770 146.1031090 136.4503850 121.2652670 145.6825850 137.8928600
 124.6410920 152.7077340 139.3008580 124.7607130 152.1118480 140.0403420
 125.5004920 152.7447030 138.8809880 126.9798820 153.2614530 137.8771090
 126.4534040 153.7857150 137.2736230 127.3230160 153.8941920 138.5080820
 119.3785210 150.6507900 124.3220800 119.1774270 149.7875260 124.6834140
 119.2077260 150.5641260 123.3842400 121.4079690 149.2498690 140.5584400
 121.9979380 148.9414540 141.2462220 120.5899930 148.7778440 140.7144300
 126.2273120 148.8664500 140.7917420 125.5388640 148.2046040 140.7267410
 126.9479140 148.4202770 141.2365880 126.8573520 145.4616130 126.8507680
 127.1375810 144.6184030 127.2067100 126.0839250 145.6939240 127.3646430
 118.1768010 147.7508520 124.3098680 118.4793910 147.7575950 123.4017830
 118.9162600 147.4006380 124.8066340 121.3952940 146.6943140 125.2954880
 121.0474940 146.0167130 124.7157330 121.5965710 146.2332650 126.1098270
 114.7358580 153.2230790 131.6919250 114.0807420 152.9542430 131.0478950
 115.5736530 153.1135270 131.2421230 127.6849020 148.0172080 125.9137740
 128.1033900 147.8303060 125.0734400 127.3785080 147.1651130 126.2240670
 131.1838750 152.9296220 129.6113540 130.8082350 152.1624150 129.1794830
 130.4541870 153.3118920 130.0988470 115.7734510 153.6083360 136.2322590
 116.1407550 153.5210760 137.1118610 115.2045330 152.8449910 136.1329450
 130.5738370 152.0767740 139.2453060 130.3424460 151.8480490 138.3451010
 130.8342920 152.9967290 139.1997950 115.3250510 150.5192450 140.1381010
 114.4306560 150.4859210 140.4774720 115.8648060 150.7179240 140.9032260
 129.0126440 147.3024170 142.0232760 129.8896620 147.3107570 142.4066760
 129.0247280 146.5655010 141.4125110 113.9496660 150.4329720 127.6344580
 113.0460740 150.6959920 127.4596240 114.4337280 150.7040890 126.8544540
 130.4589710 151.1553710 132.9120780 130.9827190 150.6616360 132.2810950
 131.0449130 151.2904070 133.6568350 130.6379430 151.2393580 136.4340330
 129.6882140 151.2057120 136.5485320 130.8192440 152.1493690 136.1990100
 116.4923870 149.4895260 125.5438960 117.2015570 149.0678480 125.0586240
 115.7763810 149.5570490 124.9122310 116.1398030 145.5434590 124.5841610
 116.8626160 146.0843530 124.9022830 116.4122550 145.2698010 123.7083150
 129.9489680 150.4127060 128.8513190 130.4448800 150.1797930 129.6362070
 129.7505750 149.5738900 128.4350830 115.8290220 144.7940780 134.4864230
 116.4766410 144.2438160 134.0459390 116.2492060 145.0483930 135.3080040
 131.3776840 149.0488010 131.3850870 131.2676120 148.8944050 132.3233140
 132.1384430 148.5208950 131.1426280 129.7242560 144.9882140 137.8433870
 130.3614780 145.6016280 138.2093060 129.8717450 145.0242800 136.8983100
 132.2667110 146.8795930 124.6257010 133.1916420 146.7477110 124.4175300
 132.2442900 146.9588750 125.5793460 132.3405600 147.6506590 127.2513720
 131.5457100 147.5851710 127.7806630 132.5448880 148.5857230 127.2399070
 115.5822220 144.9496450 137.2289550 115.2337040 145.4060270 137.9947730
 115.2509920 144.0553580 137.3111980 123.0947040 146.1408330 140.7508970
 123.0335930 146.7330160 141.5004380 124.0347420 146.0334290 140.6059230
 125.7321600 145.7978390 140.3901260 126.3462010 146.1157680 139.7282340
 126.2771160 145.3126980 141.0097120 116.2542860 144.4772650 140.5040320
 116.8025850 144.2960700 139.7406430 116.3198170 143.6866760 141.0396630
 126.4729640 144.3610530 136.7170550 125.5989480 144.6945640 136.5143480
 126.3640390 143.8883710 137.5422420 127.3801620 146.5681400 138.1012270
 127.0514980 145.7533160 137.7214000 128.3283920 146.5251210 137.9777960
 124.2204460 145.2780370 135.6563460 123.4376250 145.7525870 135.9360220
 123.9267390 144.3735200 135.5476640 128.7725530 145.9803470 133.7012550
 129.2133620 145.9248570 132.8534150 128.5033120 146.8961480 133.7722730
 130.6364100 145.6118710 131.7121370 130.5752500 144.6679930 131.5652390
 131.4156130 145.7198800 132.2574830 115.5644870 145.5827850 128.1777180
 116.3224230 145.6956730 127.6041210 115.1022040 146.4197050 128.1320610
 122.1058680 147.6967120 131.1679490 121.2933190 147.3224010 130.8275370
 122.6100320 146.9412200 131.4700680 126.6083660 144.3609570 132.4062560
 127.2113030 144.9329780 132.8811080 125.8676650 144.9249010 132.1836460
 129.7518260 144.7631130 127.6802840 129.9468890 145.6614580 127.9470270
 128.9648130 144.5318210 128.1735790 117.9370020 146.1091900 126.7179150
 118.4662780 145.3221700 126.5887100 118.5698340 146.7883090 126.9514680
 120.1307860 145.8467040 129.7724540 119.5010600 145.1454350 129.9394670
 119.5913000 146.6071170 129.5557700 120.2563420 145.1251020 142.2077030
 119.9747690 145.6284620 141.4437850 120.6383120 144.3272770 141.8419160
 126.8578880 144.5404600 142.7857500 126.7444330 144.8599210 143.6809020
 127.6748620 144.9417110 142.4894780 125.7637030 152.5597070 113.1492240
 125.6831080 151.6451680 112.8783950 125.3501450 153.0564140 112.4431950
 123.8955070 154.3376090 115.0301510 123.1197170 153.8576530 115.3200080
 124.5468000 153.6581740 114.8557670 117.9120900 154.6495900 115.9077270
 117.0805780 154.3944610 116.3073780 118.5201880 154.7206670 116.6435190
 116.3212850 149.6097790 109.6919660 115.4329550 149.9513760 109.5899540
 116.6054040 149.4098110 108.8000490 114.2845860 152.2103440 115.5759360
 114.8561970 151.4425640 115.5763000 114.2847400 152.5092200 114.6665970
 115.5270730 147.6187800 117.3628290 115.3473570 146.7213550 117.6431050
 115.1250810 148.1659670 118.0375240 124.3669230 149.8203660 115.2640600
 124.7434050 148.9475540 115.1514270 124.2688740 150.1562360 114.3731040
 118.4974240 148.1929290 110.7258040 118.6040990 149.0933020 111.0326800
 117.5866600 148.1447260 110.4352690 128.1493350 147.3154100 112.1968940
 128.9702970 146.8250670 112.2394420 128.1827430 147.9051760 112.9500780
 116.1457400 150.1148300 115.9710630 116.8267510 150.3786670 116.5898030
 115.8305450 149.2749170 116.3048640 120.3381970 151.1615660 115.0583220
 120.8460190 151.6596630 115.6988240 120.8695210 150.3850860 114.8822580
 132.4392900 149.3320850 118.7612570 131.7345070 149.7202560 118.2427680
 132.7050820 150.0271140 119.3633500 118.6218070 145.8014220 119.3246640
 118.6236510 146.3186610 118.5192540 117.7922380 145.3244400 119.3016570
 128.3854830 149.2554480 114.9696480 127.6810400 149.5439370 115.5499590
 128.7466990 150.0654590 114.6096040 118.3033400 147.5124180 117.3317090
 118.6450210 148.3566230 117.0370960 117.3649210 147.6607920 117.4482430
 131.4541750 148.7009270 115.3605690 130.5066660 148.7348250 115.4921120
 131.7791740 149.5148220 115.7455050 121.9861290 145.0006450 113.6561680
 122.2936270 144.4453340 112.9397180 121.0561990 145.1350910 113.4734670
 124.3742050 153.0655280 110.3921800 123.4471330 152.9992660 110.6210270
 124.5266870 154.0035410 110.2777040 124.3611130 149.3372280 107.3888960
 123.4214800 149.4986240 107.4741420 124.6794390 150.0557960 106.8424950
 130.8823890 154.0190800 117.3667990 130.0542520 154.0883890 116.8918120
 131.4774370 154.6045110 116.8983820 128.4039340 154.6275580 110.8957050
 127.7851760 154.2895130 110.2483350 128.3863790 153.9835340 111.6036240
 127.8465900 150.8060120 118.3122860 127.4337080 151.6313830 118.5662850
 127.1141850 150.2205160 118.1199220 119.9798690 153.5920020 113.1741530
 119.5755690 152.8797270 112.6787430 120.0661810 153.2473260 114.0629570
 118.6927310 150.3663230 116.9540570 119.2441900 150.4758570 116.1793820
 119.2070820 150.7400830 117.6695800 126.5804040 153.8662390 107.9029800
 127.0197320 153.0284820 107.7567620 127.2932460 154.4991790 107.9893940
 118.3670040 153.8882590 120.5645910 118.2277810 154.7605390 120.9333310
 117.4851400 153.5455400 120.4193850 130.1621180 145.1205200 106.2170840
 129.8493840 145.2132030 107.1169910 130.9233650 145.6986230 106.1668270
 116.6803320 152.4865000 110.6748180 116.5600920 153.2127090 110.0629450
 116.3704210 151.7167910 110.1976090 131.3722470 149.8576700 122.1944980
 130.7566740 150.3656370 121.6660440 131.0518890 148.9575030 122.1370920
 119.1466980 145.8300070 114.0571850 118.7035130 146.6109610 113.7256370
 119.7051970 146.1529960 114.7642790 123.4336790 148.6968590 119.6607170
 122.9716160 148.9051610 120.4727110 123.0314900 147.8827940 119.3577840
 128.4341300 149.9177540 120.7903830 127.5834890 149.6183290 121.1112900
 128.2743090 150.1619550 119.8787650 125.5291010 151.4179290 122.8902620
 125.8544420 150.5843040 122.5504850 126.3171340 151.9407810 123.0380950
 122.2625800 145.4510770 108.9377680 121.6379980 145.4470640 109.6630990
 122.1755920 144.5841730 108.5413650 121.1842880 146.3747400 115.9161450
 121.4815210 147.2810230 115.8353470 121.7328440 145.8866180 115.3021020
 118.9381200 150.9533640 111.7853100 118.7122120 150.7370810 112.6899720
 118.1573730 151.3862100 111.4399070 126.1678960 150.9597010 110.3843750
 125.5687850 151.6832810 110.2007370 126.7158570 150.8973790 109.6020200
 121.3780410 151.8519220 122.4513370 121.2824010 150.9113950 122.3013770
 122.2212390 152.0734290 122.0561440 124.7743830 149.5960550 112.4147030
 125.1673400 149.9132750 111.6015720 125.1360680 148.7172430 112.5291550
 116.5090950 148.2632890 120.6047150 116.1154340 149.1108100 120.8119930
 115.8209350 147.6259260 120.7955790 123.0836000 148.3467860 123.6743890
 122.3934320 148.1540060 124.3089980 123.8268300 148.6302500 124.2068190
 113.8108000 146.1861350 114.6377230 113.5221050 146.7564210 115.3502210
 114.5553760 145.7065800 115.0008460 113.9978230 150.1281470 105.8479950
 113.9152900 151.0712230 105.9894940 113.6461290 149.9856380 104.9692300
 125.3598970 152.1866300 116.5097810 124.6280090 152.6953110 116.8587910
 124.9623310 151.3696280 116.2086590 121.7976360 148.8620500 114.9150300
 121.8012420 148.4210450 114.0654840 122.6927480 149.1837830 115.0222120
 117.6478740 148.7446990 113.8744510 117.3078790 149.2222220 114.6311560
 116.8856060 148.2912110 113.5145610 121.8596510 149.8632580 107.9057060
 121.9809330 149.8219060 108.8542880 121.4745020 150.7256730 107.7503790
 125.8224880 147.6399980 115.9220750 125.8397620 148.0908630 116.7662600
 125.5740460 146.7405620 116.1354190 120.8718010 152.1733720 107.3040360
 120.3034910 151.7251970 106.6776270 121.5807010 152.5326500 106.7705510
 129.2495630 145.0532160 121.7607130 129.5741400 144.3221820 122.2865110
 129.2852140 144.7345800 120.8588120 122.0984330 152.9222280 116.6615710
 122.4654460 152.4480850 117.4077050 121.9089390 153.7963850 117.0024050
 114.9624820 147.6665970 112.7909180 114.6771740 147.3021640 113.6287800
 114.9003680 146.9346430 112.1772320 119.8883700 151.9630920 118.9799920
 119.5840770 152.8422900 119.2050280 120.8430160 152.0230710 119.0157360
 124.6363410 146.5595230 109.5122550 123.8228020 146.0608400 109.4367860
 124.4425360 147.3993480 109.0958900 127.3511800 150.9314880 107.8084710
 128.2391420 151.2432110 107.6336050 127.3216890 150.0587130 107.4165290
 115.9447430 152.8033660 120.1271280 115.5862370 153.4687510 120.7144620
 115.6501990 151.9717210 120.4983900 119.1460550 153.2617900 123.0110830
 118.8460690 153.4075080 122.1138650 119.9171790 152.7023190 122.9184220
 129.6226070 152.2426720 107.2764570 129.5389790 152.6740940 106.4261010
 130.3420260 152.7025070 107.7091390 114.4555480 152.8024920 106.7505880
 115.3250330 153.0849720 107.0341800 113.9645800 153.6160790 106.6354690
 121.6190290 154.1898130 110.8714160 122.0753070 155.0003380 111.0974350
 121.2678500 153.8721270 111.7032650 117.5202070 144.5335780 111.3436680
 117.3916700 144.5253680 112.2921600 116.6964090 144.8718870 110.9927690
 114.5196000 146.2926900 120.8043380 113.8054520 146.4923820 121.4095990
 114.9391040 145.5166470 121.1758180 126.0134780 148.7849210 118.5544830
 126.3815600 147.9644420 118.8824400 125.1532980 148.8451100 118.9700480
 129.3796810 147.7406150 109.3632390 128.7509970 147.8451820 108.6490620
 128.8848730 147.9602930 110.1526270 121.3480840 150.0192100 110.7790270
 120.6396990 150.4878440 111.2203880 121.6325320 149.3614110 111.4135460
 122.9736770 151.4388800 118.7782800 123.4722020 151.9134620 119.4434650
 123.1159720 150.5152320 118.9852830 125.3796270 146.7442760 112.2186060
 125.2564050 146.7628890 111.2695570 126.3280830 146.7921700 112.3384460
 119.5515860 148.3277180 108.1540980 120.4006390 148.7647330 108.0881170
 119.1847130 148.6397440 108.9813040 130.1803630 147.6556760 119.6211190
 129.6777230 148.3962160 119.9605000 130.9960290 148.0440760 119.3047980
 128.4725640 152.8989940 113.0672550 127.5315780 152.9140170 113.2420240
 128.7869710 152.1125900 113.5132850 118.4507280 154.5809540 106.6276510
 119.2170550 154.4690900 107.1901940 118.5281970 153.8847510 105.9753280
 117.1454040 152.0134610 107.3109400 117.2257630 151.0662120 107.4226800
 118.0373790 152.3441490 107.4170060 114.6724840 153.8349530 122.5465570
 115.1763860 153.2556810 123.1181800 113.9332260 154.1189760 123.0841940
 116.7047920 151.9779120 123.4415640 116.7453260 151.6792990 124.3500870
 117.5593420 152.3786730 123.2823160 120.4826310 154.5774670 108.6019150
 120.9042730 154.4114540 109.4450540 120.6077150 153.7674900 108.1074290
 118.6453730 150.5571220 121.4090130 118.1150190 150.0662170 120.7813470
 119.3141800 150.9855420 120.8748060 122.9953950 153.6012280 105.8496250
 123.5159610 152.8861300 105.4837400 123.6422350 154.2398150 106.1496760
 128.0153960 152.3636840 123.1770470 128.5974730 151.6089160 123.0890950
 128.1915730 152.8944280 122.4001950 119.1326030 147.5233590 121.4887420
 119.0382900 146.9054340 120.7638290 118.5523420 148.2499880 121.2617330
 121.8987470 146.0806830 118.5214810 121.4504770 146.1031090 117.6760360
 121.2652670 145.6825850 119.1185110 124.6410920 152.7077340 120.5265090
 124.7607130 152.1118480 121.2659930 125.5004920 152.7447030 120.1066390
 126.9798820 153.2614530 119.1027600 126.4534040 153.7857150 118.4992740
 127.3230160 153.8941920 119.7337330 119.3785210 150.6507900 105.5477310
 119.1774270 149.7875260 105.9090650 119.2077260 150.5641260 104.6098910
 121.4079690 149.2498690 121.7840910 121.9979380 148.9414540 122.4718730
 120.5899930 148.7778440 121.9400810 126.2273120 148.8664500 122.0173930
 125.5388640 148.2046040 121.9523920 126.9479140 148.4202770 122.4622390
 126.8573520 145.4616130 108.0764190 127.1375810 144.6184030 108.4323610
 126.0839250 145.6939240 108.5902940 118.1768010 147.7508520 105.5355190
 118.4793910 147.7575950 104.6274340 118.9162600 147.4006380 106.0322850
 121.3952940 146.6943140 106.5211390 121.0474940 146.0167130 105.9413840
 121.5965710 146.2332650 107.3354780 114.7358580 153.2230790 112.9175760
 114.0807420 152.9542430 112.2735460 115.5736530 153.1135270 112.4677740
 127.6849020 148.0172080 107.1394250 128.1033900 147.8303060 106.2990910
 127.3785080 147.1651130 107.4497180 131.1838750 152.9296220 110.8370050
 130.8082350 152.1624150 110.4051340 130.4541870 153.3118920 111.3244980
 115.7734510 153.6083360 117.4579100 116.1407550 153.5210760 118.3375120
 115.2045330 152.8449910 117.3585960 130.5738370 152.0767740 120.4709570
 130.3424460 151.8480490 119.5707520 130.8342920 152.9967290 120.4254460
 115.3250510 150.5192450 121.3637520 114.4306560 150.4859210 121.7031230
 115.8648060 150.7179240 122.1288770 129.0126440 147.3024170 123.2489270
 129.8896620 147.3107570 123.6323270 129.0247280 146.5655010 122.6381620
 113.9496660 150.4329720 108.8601090 113.0460740 150.6959920 108.6852750
 114.4337280 150.7040890 108.0801050 130.4589710 151.1553710 114.1377290
 130.9827190 150.6616360 113.5067460 131.0449130 151.2904070 114.8824860
 130.6379430 151.2393580 117.6596840 129.6882140 151.2057120 117.7741830
 130.8192440 152.1493690 117.4246610 116.4923870 149.4895260 106.7695470
 117.2015570 149.0678480 106.2842750 115.7763810 149.5570490 106.1378820
 116.1398030 145.5434590 105.8098120 116.8626160 146.0843530 106.1279340
 116.4122550 145.2698010 104.9339660 129.9489680 150.4127060 110.0769700
 130.4448800 150.1797930 110.8618580 129.7505750 149.5738900 109.6607340
 115.8290220 144.7940780 115.7120740 116.4766410 144.2438160 115.2715900
 116.2492060 145.0483930 116.5336550 131.3776840 149.0488010 112.6107380
 131.2676120 148.8944050 113.5489650 132.1384430 148.5208950 112.3682790
 129.7242560 144.9882140 119.0690380 130.3614780 145.6016280 119.4349570
 129.8717450 145.0242800 118.1239610 132.2667110 146.8795930 105.8513520
 133.1916420 146.7477110 105.6431810 132.2442900 146.9588750 106.8049970
 132.3405600 147.6506590 108.4770230 131.5457100 147.5851710 109.0063140
 132.5448880 148.5857230 108.4655580 115.5822220 144.9496450 118.4546060
 115.2337040 145.4060270 119.2204240 115.2509920 144.0553580 118.5368490
 123.0947040 146.1408330 121.9765480 123.0335930 146.7330160 122.7260890
 124.0347420 146.0334290 121.8315740 125.7321600 145.7978390 121.6157770
 126.3462010 146.1157680 120.9538850 126.2771160 145.3126980 122.2353630
 116.2542860 144.4772650 121.7296830 116.8025850 144.2960700 120.9662940
 116.3198170 143.6866760 122.2653140 126.4729640 144.3610530 117.9427060
 125.5989480 144.6945640 117.7399990 126.3640390 143.8883710 118.7678930
 127.3801620 146.5681400 119.3268780 127.0514980 145.7533160 118.9470510
 128.3283920 146.5251210 119.2034470 124.2204460 145.2780370 116.8819970
 123.4376250 145.7525870 117.1616730 123.9267390 144.3735200 116.7733150
 128.7725530 145.9803470 114.9269060 129.2133620 145.9248570 114.0790660
 128.5033120 146.8961480 114.9979240 130.6364100 145.6118710 112.9377880
 130.5752500 144.6679930 112.7908900 131.4156130 145.7198800 113.4831340
 115.5644870 145.5827850 109.4033690 116.3224230 145.6956730 108.8297720
 115.1022040 146.4197050 109.3577120 122.1058680 147.6967120 112.3936000
 121.2933190 147.3224010 112.0531880 122.6100320 146.9412200 112.6957190
 126.6083660 144.3609570 113.6319070 127.2113030 144.9329780 114.1067590
 125.8676650 144.9249010 113.4092970 129.7518260 144.7631130 108.9059350
 129.9468890 145.6614580 109.1726780 128.9648130 144.5318210 109.3992300
 117.9370020 146.1091900 107.9435660 118.4662780 145.3221700 107.8143610
 118.5698340 146.7883090 108.1771190 120.1307860 145.8467040 110.9981050
 119.5010600 145.1454350 111.1651180 119.5913000 146.6071170 110.7814210
 120.2563420 145.1251020 123.4333540 119.9747690 145.6284620 122.6694360
 120.6383120 144.3272770 123.0675670 126.8578880 144.5404600 124.0114010
 126.7444330 144.8599210 124.9065530 127.6748620 144.9417110 123.7151290
 125.7637030 152.5597070  94.3748750 125.6831080 151.6451680  94.1040460
 125.3501450 153.0564140  93.6688460 123.8955070 154.3376090  96.2558020
 123.1197170 153.8576530  96.5456590 124.5468000 153.6581740  96.0814180
 117.9120900 154.6495900  97.1333780 117.0805780 154.3944610  97.5330290
 118.5201880 154.7206670  97.8691700 116.3212850 149.6097790  90.9176170
 115.4329550 149.9513760  90.8156050 116.6054040 149.4098110  90.0257000
 114.2845860 152.2103440  96.8015870 114.8561970 151.4425640  96.8019510
 114.2847400 152.5092200  95.8922480 115.5270730 147.6187800  98.5884800
 115.3473570 146.7213550  98.8687560 115.1250810 148.1659670  99.2631750
 124.3669230 149.8203660  96.4897110 124.7434050 148.9475540  96.3770780
 124.2688740 150.1562360  95.5987550 118.4974240 148.1929290  91.9514550
 118.6040990 149.0933020  92.2583310 117.5866600 148.1447260  91.6609200
 128.1493350 147.3154100  93.4225450 128.9702970 146.8250670  93.4650930
 128.1827430 147.9051760  94.1757290 116.1457400 150.1148300  97.1967140
 116.8267510 150.3786670  97.8154540 115.8305450 149.2749170  97.5305150
 120.3381970 151.1615660  96.2839730 120.8460190 151.6596630  96.9244750
 120.8695210 150.3850860  96.1079090 132.4392900 149.3320850  99.9869080
 131.7345070 149.7202560  99.4684190 132.7050820 150.0271140 100.5890010
 118.6218070 145.8014220 100.5503150 118.6236510 146.3186610  99.7449050
 117.7922380 145.3244400 100.5273080 128.3854830 149.2554480  96.1952990
 127.6810400 149.5439370  96.7756100 128.7466990 150.0654590  95.8352550
 118.3033400 147.5124180  98.5573600 118.6450210 148.3566230  98.2627470
 117.3649210 147.6607920  98.6738940 131.4541750 148.7009270  96.5862200
 130.5066660 148.7348250  96.7177630 131.7791740 149.5148220  96.9711560
 121.9861290 145.0006450  94.8818190 122.2936270 144.4453340  94.1653690
 121.0561990 145.1350910  94.6991180 124.3742050 153.0655280  91.6178310
 123.4471330 152.9992660  91.8466780 124.5266870 154.0035410  91.5033550
 124.3611130 149.3372280  88.6145470 123.4214800 149.4986240  88.6997930
 124.6794390 150.0557960  88.0681460 130.8823890 154.0190800  98.5924500
 130.0542520 154.0883890  98.1174630 131.4774370 154.6045110  98.1240330
 128.4039340 154.6275580  92.1213560 127.7851760 154.2895130  91.4739860
 128.3863790 153.9835340  92.8292750 127.8465900 150.8060120  99.5379370
 127.4337080 151.6313830  99.7919360 127.1141850 150.2205160  99.3455730
 119.9798690 153.5920020  94.3998040 119.5755690 152.8797270  93.9043940
 120.0661810 153.2473260  95.2886080 118.6927310 150.3663230  98.1797080
 119.2441900 150.4758570  97.4050330 119.2070820 150.7400830  98.8952310
 126.5804040 153.8662390  89.1286310 127.0197320 153.0284820  88.9824130
 127.2932460 154.4991790  89.2150450 118.3670040 153.8882590 101.7902420
 118.2277810 154.7605390 102.1589820 117.4851400 153.5455400 101.6450360
 130.1621180 145.1205200  87.4427350 129.8493840 145.2132030  88.3426420
 130.9233650 145.6986230  87.3924780 116.6803320 152.4865000  91.9004690
 116.5600920 153.2127090  91.2885960 116.3704210 151.7167910  91.4232600
 131.3722470 149.8576700 103.4201490 130.7566740 150.3656370 102.8916950
 131.0518890 148.9575030 103.3627430 119.1466980 145.8300070  95.2828360
 118.7035130 146.6109610  94.9512880 119.7051970 146.1529960  95.9899300
 123.4336790 148.6968590 100.8863680 122.9716160 148.9051610 101.6983620
 123.0314900 147.8827940 100.5834350 128.4341300 149.9177540 102.0160340
 127.5834890 149.6183290 102.3369410 128.2743090 150.1619550 101.1044160
 125.5291010 151.4179290 104.1159130 125.8544420 150.5843040 103.7761360
 126.3171340 151.9407810 104.2637460 122.2625800 145.4510770  90.1634190
 121.6379980 145.4470640  90.8887500 122.1755920 144.5841730  89.7670160
 121.1842880 146.3747400  97.1417960 121.4815210 147.2810230  97.0609980
 121.7328440 145.8866180  96.5277530 118.9381200 150.9533640  93.0109610
 118.7122120 150.7370810  93.9156230 118.1573730 151.3862100  92.6655580
 126.1678960 150.9597010  91.6100260 125.5687850 151.6832810  91.4263880
 126.7158570 150.8973790  90.8276710 121.3780410 151.8519220 103.6769880
 121.2824010 150.9113950 103.5270280 122.2212390 152.0734290 103.2817950
 124.7743830 149.5960550  93.6403540 125.1673400 149.9132750  92.8272230
 125.1360680 148.7172430  93.7548060 116.5090950 148.2632890 101.8303660
 116.1154340 149.1108100 102.0376440 115.8209350 147.6259260 102.0212300
 123.0836000 148.3467860 104.9000400 122.3934320 148.1540060 105.5346490
 123.8268300 148.6302500 105.4324700 113.8108000 146.1861350  95.8633740
 113.5221050 146.7564210  96.5758720 114.5553760 145.7065800  96.2264970
 113.9978230 150.1281470  87.0736460 113.9152900 151.0712230  87.2151450
 113.6461290 149.9856380  86.1948810 125.3598970 152.1866300  97.7354320
 124.6280090 152.6953110  98.0844420 124.9623310 151.3696280  97.4343100
 121.7976360 148.8620500  96.1406810 121.8012420 148.4210450  95.2911350
 122.6927480 149.1837830  96.2478630 117.6478740 148.7446990  95.1001020
 117.3078790 149.2222220  95.8568070 116.8856060 148.2912110  94.7402120
 121.8596510 149.8632580  89.1313570 121.9809330 149.8219060  90.0799390
 121.4745020 150.7256730  88.9760300 125.8224880 147.6399980  97.1477260
 125.8397620 148.0908630  97.9919110 125.5740460 146.7405620  97.3610700
 120.8718010 152.1733720  88.5296870 120.3034910 151.7251970  87.9032780
 121.5807010 152.5326500  87.9962020 129.2495630 145.0532160 102.9863640
 129.5741400 144.3221820 103.5121620 129.2852140 144.7345800 102.0844630
 122.0984330 152.9222280  97.8872220 122.4654460 152.4480850  98.6333560
 121.9089390 153.7963850  98.2280560 114.9624820 147.6665970  94.0165690
 114.6771740 147.3021640  94.8544310 114.9003680 146.9346430  93.4028830
 119.8883700 151.9630920 100.2056430 119.5840770 152.8422900 100.4306790
 120.8430160 152.0230710 100.2413870 124.6363410 146.5595230  90.7379060
 123.8228020 146.0608400  90.6624370 124.4425360 147.3993480  90.3215410
 127.3511800 150.9314880  89.0341220 128.2391420 151.2432110  88.8592560
 127.3216890 150.0587130  88.6421800 115.9447430 152.8033660 101.3527790
 115.5862370 153.4687510 101.9401130 115.6501990 151.9717210 101.7240410
 119.1460550 153.2617900 104.2367340 118.8460690 153.4075080 103.3395160
 119.9171790 152.7023190 104.1440730 129.6226070 152.2426720  88.5021080
 129.5389790 152.6740940  87.6517520 130.3420260 152.7025070  88.9347900
 114.4555480 152.8024920  87.9762390 115.3250330 153.0849720  88.2598310
 113.9645800 153.6160790  87.8611200 121.6190290 154.1898130  92.0970670
 122.0753070 155.0003380  92.3230860 121.2678500 153.8721270  92.9289160
 117.5202070 144.5335780  92.5693190 117.3916700 144.5253680  93.5178110
 116.6964090 144.8718870  92.2184200 114.5196000 146.2926900 102.0299890
 113.8054520 146.4923820 102.6352500 114.9391040 145.5166470 102.4014690
 126.0134780 148.7849210  99.7801340 126.3815600 147.9644420 100.1080910
 125.1532980 148.8451100 100.1956990 129.3796810 147.7406150  90.5888900
 128.7509970 147.8451820  89.8747130 128.8848730 147.9602930  91.3782780
 121.3480840 150.0192100  92.0046780 120.6396990 150.4878440  92.4460390
 121.6325320 149.3614110  92.6391970 122.9736770 151.4388800 100.0039310
 123.4722020 151.9134620 100.6691160 123.1159720 150.5152320 100.2109340
 125.3796270 146.7442760  93.4442570 125.2564050 146.7628890  92.4952080
 126.3280830 146.7921700  93.5640970 119.5515860 148.3277180  89.3797490
 120.4006390 148.7647330  89.3137680 119.1847130 148.6397440  90.2069550
 130.1803630 147.6556760 100.8467700 129.6777230 148.3962160 101.1861510
 130.9960290 148.0440760 100.5304490 128.4725640 152.8989940  94.2929060
 127.5315780 152.9140170  94.4676750 128.7869710 152.1125900  94.7389360
 118.4507280 154.5809540  87.8533020 119.2170550 154.4690900  88.4158450
 118.5281970 153.8847510  87.2009790 117.1454040 152.0134610  88.5365910
 117.2257630 151.0662120  88.6483310 118.0373790 152.3441490  88.6426570
 114.6724840 153.8349530 103.7722080 115.1763860 153.2556810 104.3438310
 113.9332260 154.1189760 104.3098450 116.7047920 151.9779120 104.6672150
 116.7453260 151.6792990 105.5757380 117.5593420 152.3786730 104.5079670
 120.4826310 154.5774670  89.8275660 120.9042730 154.4114540  90.6707050
 120.6077150 153.7674900  89.3330800 118.6453730 150.5571220 102.6346640
 118.1150190 150.0662170 102.0069980 119.3141800 150.9855420 102.1004570
 122.9953950 153.6012280  87.0752760 123.5159610 152.8861300  86.7093910
 123.6422350 154.2398150  87.3753270 128.0153960 152.3636840 104.4026980
 128.5974730 151.6089160 104.3147460 128.1915730 152.8944280 103.6258460
 119.1326030 147.5233590 102.7143930 119.0382900 146.9054340 101.9894800
 118.5523420 148.2499880 102.4873840 121.8987470 146.0806830  99.7471320
 121.4504770 146.1031090  98.9016870 121.2652670 145.6825850 100.3441620
 124.6410920 152.7077340 101.7521600 124.7607130 152.1118480 102.4916440
 125.5004920 152.7447030 101.3322900 126.9798820 153.2614530 100.3284110
 126.4534040 153.7857150  99.7249250 127.3230160 153.8941920 100.9593840
 119.3785210 150.6507900  86.7733820 119.1774270 149.7875260  87.1347160
 119.2077260 150.5641260  85.8355420 121.4079690 149.2498690 103.0097420
 121.9979380 148.9414540 103.6975240 120.5899930 148.7778440 103.1657320
 126.2273120 148.8664500 103.2430440 125.5388640 148.2046040 103.1780430
 126.9479140 148.4202770 103.6878900 126.8573520 145.4616130  89.3020700
 127.1375810 144.6184030  89.6580120 126.0839250 145.6939240  89.8159450
 118.1768010 147.7508520  86.7611700 118.4793910 147.7575950  85.8530850
 118.9162600 147.4006380  87.2579360 121.3952940 146.6943140  87.7467900
 121.0474940 146.0167130  87.1670350 121.5965710 146.2332650  88.5611290
 114.7358580 153.2230790  94.1432270 114.0807420 152.9542430  93.4991970
 115.5736530 153.1135270  93.6934250 127.6849020 148.0172080  88.3650760
 128.1033900 147.8303060  87.5247420 127.3785080 147.1651130  88.6753690
 131.1838750 152.9296220  92.0626560 130.8082350 152.1624150  91.6307850
 130.4541870 153.3118920  92.5501490 115.7734510 153.6083360  98.6835610
 116.1407550 153.5210760  99.5631630 115.2045330 152.8449910  98.5842470
 130.5738370 152.0767740 101.6966080 130.3424460 151.8480490 100.7964030
 130.8342920 152.9967290 101.6510970 115.3250510 150.5192450 102.5894030
 114.4306560 150.4859210 102.9287740 115.8648060 150.7179240 103.3545280
 129.0126440 147.3024170 104.4745780 129.8896620 147.3107570 104.8579780
 129.0247280 146.5655010 103.8638130 113.9496660 150.4329720  90.0857600
 113.0460740 150.6959920  89.9109260 114.4337280 150.7040890  89.3057560
 130.4589710 151.1553710  95.3633800 130.9827190 150.6616360  94.7323970
 131.0449130 151.2904070  96.1081370 130.6379430 151.2393580  98.8853350
 129.6882140 151.2057120  98.9998340 130.8192440 152.1493690  98.6503120
 116.4923870 149.4895260  87.9951980 117.2015570 149.0678480  87.5099260
 115.7763810 149.5570490  87.3635330 116.1398030 145.5434590  87.0354630
 116.8626160 146.0843530  87.3535850 116.4122550 145.2698010  86.1596170
 129.9489680 150.4127060  91.3026210 130.4448800 150.1797930  92.0875090
 129.7505750 149.5738900  90.8863850 115.8290220 144.7940780  96.9377250
 116.4766410 144.2438160  96.4972410 116.2492060 145.0483930  97.7593060
 131.3776840 149.0488010  93.8363890 131.2676120 148.8944050  94.7746160
 132.1384430 148.5208950  93.5939300 129.7242560 144.9882140 100.2946890
 130.3614780 145.6016280 100.6606080 129.8717450 145.0242800  99.3496120
 132.2667110 146.8795930  87.0770030 133.1916420 146.7477110  86.8688320
 132.2442900 146.9588750  88.0306480 132.3405600 147.6506590  89.7026740
 131.5457100 147.5851710  90.2319650 132.5448880 148.5857230  89.6912090
 115.5822220 144.9496450  99.6802570 115.2337040 145.4060270 100.4460750
 115.2509920 144.0553580  99.7625000 123.0947040 146.1408330 103.2021990
 123.0335930 146.7330160 103.9517400 124.0347420 146.0334290 103.0572250
 125.7321600 145.7978390 102.8414280 126.3462010 146.1157680 102.1795360
 126.2771160 145.3126980 103.4610140 116.2542860 144.4772650 102.9553340
 116.8025850 144.2960700 102.1919450 116.3198170 143.6866760 103.4909650
 126.4729640 144.3610530  99.1683570 125.5989480 144.6945640  98.9656500
 126.3640390 143.8883710  99.9935440 127.3801620 146.5681400 100.5525290
 127.0514980 145.7533160 100.1727020 128.3283920 146.5251210 100.4290980
 124.2204460 145.2780370  98.1076480 123.4376250 145.7525870  98.3873240
 123.9267390 144.3735200  97.9989660 128.7725530 145.9803470  96.1525570
 129.2133620 145.9248570  95.3047170 128.5033120 146.8961480  96.2235750
 130.6364100 145.6118710  94.1634390 130.5752500 144.6679930  94.0165410
 131.4156130 145.7198800  94.7087850 115.5644870 145.5827850  90.6290200
 116.3224230 145.6956730  90.0554230 115.1022040 146.4197050  90.5833630
 122.1058680 147.6967120  93.6192510 121.2933190 147.3224010  93.2788390
 122.6100320 146.9412200  93.9213700 126.6083660 144.3609570  94.8575580
 127.2113030 144.9329780  95.3324100 125.8676650 144.9249010  94.6349480
 129.7518260 144.7631130  90.1315860 129.9468890 145.6614580  90.3983290
 128.9648130 144.5318210  90.6248810 117.9370020 146.1091900  89.1692170
 118.4662780 145.3221700  89.0400120 118.5698340 146.7883090  89.4027700
 120.1307860 145.8467040  92.2237560 119.5010600 145.1454350  92.3907690
 119.5913000 146.6071170  92.0070720 120.2563420 145.1251020 104.6590050
 119.9747690 145.6284620 103.8950870 120.6383120 144.3272770 104.2932180
 126.8578880 144.5404600 105.2370520 126.7444330 144.8599210 106.1322040
 127.6748620 144.9417110 104.9407800 125.7637030 152.5597070  75.6005260
 125.6831080 151.6451680  75.3296970 125.3501450 153.0564140  74.8944970
 123.8955070 154.3376090  77.4814530 123.1197170 153.8576530  77.7713100
 124.5468000 153.6581740  77.3070690 117.9120900 154.6495900  78.3590290
 117.0805780 154.3944610  78.7586800 118.5201880 154.7206670  79.0948210
 116.3212850 149.6097790  72.1432680 115.4329550 149.9513760  72.0412560
 116.6054040 149.4098110  71.2513510 114.2845860 152.2103440  78.0272380
 114.8561970 151.4425640  78.0276020 114.2847400 152.5092200  77.1178990
 115.5270730 147.6187800  79.8141310 115.3473570 146.7213550  80.0944070
 115.1250810 148.1659670  80.4888260 124.3669230 149.8203660  77.7153620
 124.7434050 148.9475540  77.6027290 124.2688740 150.1562360  76.8244060
 118.4974240 148.1929290  73.1771060 118.6040990 149.0933020  73.4839820
 117.5866600 148.1447260  72.8865710 128.1493350 147.3154100  74.6481960
 128.9702970 146.8250670  74.6907440 128.1827430 147.9051760  75.4013800
 116.1457400 150.1148300  78.4223650 116.8267510 150.3786670  79.0411050
 115.8305450 149.2749170  78.7561660 120.3381970 151.1615660  77.5096240
 120.8460190 151.6596630  78.1501260 120.8695210 150.3850860  77.3335600
 132.4392900 149.3320850  81.2125590 131.7345070 149.7202560  80.6940700
 132.7050820 150.0271140  81.8146520 118.6218070 145.8014220  81.7759660
 118.6236510 146.3186610  80.9705560 117.7922380 145.3244400  81.7529590
 128.3854830 149.2554480  77.4209500 127.6810400 149.5439370  78.0012610
 128.7466990 150.0654590  77.0609060 118.3033400 147.5124180  79.7830110
 118.6450210 148.3566230  79.4883980 117.3649210 147.6607920  79.8995450
 131.4541750 148.7009270  77.8118710 130.5066660 148.7348250  77.9434140
 131.7791740 149.5148220  78.1968070 121.9861290 145.0006450  76.1074700
 122.2936270 144.4453340  75.3910200 121.0561990 145.1350910  75.9247690
 124.3742050 153.0655280  72.8434820 123.4471330 152.9992660  73.0723290
 124.5266870 154.0035410  72.7290060 124.3611130 149.3372280  69.8401980
 123.4214800 149.4986240  69.9254440 124.6794390 150.0557960  69.2937970
 130.8823890 154.0190800  79.8181010 130.0542520 154.0883890  79.3431140
 131.4774370 154.6045110  79.3496840 128.4039340 154.6275580  73.3470070
 127.7851760 154.2895130  72.6996370 128.3863790 153.9835340  74.0549260
 127.8465900 150.8060120  80.7635880 127.4337080 151.6313830  81.0175870
 127.1141850 150.2205160  80.5712240 119.9798690 153.5920020  75.6254550
 119.5755690 152.8797270  75.1300450 120.0661810 153.2473260  76.5142590
 118.6927310 150.3663230  79.4053590 119.2441900 150.4758570  78.6306840
 119.2070820 150.7400830  80.1208820 126.5804040 153.8662390  70.3542820
 127.0197320 153.0284820  70.2080640 127.2932460 154.4991790  70.4406960
 118.3670040 153.8882590  83.0158930 118.2277810 154.7605390  83.3846330
 117.4851400 153.5455400  82.8706870 130.1621180 145.1205200  68.6683860
 129.8493840 145.2132030  69.5682930 130.9233650 145.6986230  68.6181290
 116.6803320 152.4865000  73.1261200 116.5600920 153.2127090  72.5142470
 116.3704210 151.7167910  72.6489110 131.3722470 149.8576700  84.6458000
 130.7566740 150.3656370  84.1173460 131.0518890 148.9575030  84.5883940
 119.1466980 145.8300070  76.5084870 118.7035130 146.6109610  76.1769390
 119.7051970 146.1529960  77.2155810 123.4336790 148.6968590  82.1120190
 122.9716160 148.9051610  82.9240130 123.0314900 147.8827940  81.8090860
 128.4341300 149.9177540  83.2416850 127.5834890 149.6183290  83.5625920
 128.2743090 150.1619550  82.3300670 125.5291010 151.4179290  85.3415640
 125.8544420 150.5843040  85.0017870 126.3171340 151.9407810  85.4893970
 122.2625800 145.4510770  71.3890700 121.6379980 145.4470640  72.1144010
 122.1755920 144.5841730  70.9926670 121.1842880 146.3747400  78.3674470
 121.4815210 147.2810230  78.2866490 121.7328440 145.8866180  77.7534040
 118.9381200 150.9533640  74.2366120 118.7122120 150.7370810  75.1412740
 118.1573730 151.3862100  73.8912090 126.1678960 150.9597010  72.8356770
 125.5687850 151.6832810  72.6520390 126.7158570 150.8973790  72.0533220
 121.3780410 151.8519220  84.9026390 121.2824010 150.9113950  84.7526790
 122.2212390 152.0734290  84.5074460 124.7743830 149.5960550  74.8660050
 125.1673400 149.9132750  74.0528740 125.1360680 148.7172430  74.9804570
 116.5090950 148.2632890  83.0560170 116.1154340 149.1108100  83.2632950
 115.8209350 147.6259260  83.2468810 123.0836000 148.3467860  86.1256910
 122.3934320 148.1540060  86.7603000 123.8268300 148.6302500  86.6581210
 113.8108000 146.1861350  77.0890250 113.5221050 146.7564210  77.8015230
 114.5553760 145.7065800  77.4521480 113.9978230 150.1281470  68.2992970
 113.9152900 151.0712230  68.4407960 113.6461290 149.9856380  67.4205320
 125.3598970 152.1866300  78.9610830 124.6280090 152.6953110  79.3100930
 124.9623310 151.3696280  78.6599610 121.7976360 148.8620500  77.3663320
 121.8012420 148.4210450  76.5167860 122.6927480 149.1837830  77.4735140
 117.6478740 148.7446990  76.3257530 117.3078790 149.2222220  77.0824580
 116.8856060 148.2912110  75.9658630 121.8596510 149.8632580  70.3570080
 121.9809330 149.8219060  71.3055900 121.4745020 150.7256730  70.2016810
 125.8224880 147.6399980  78.3733770 125.8397620 148.0908630  79.2175620
 125.5740460 146.7405620  78.5867210 120.8718010 152.1733720  69.7553380
 120.3034910 151.7251970  69.1289290 121.5807010 152.5326500  69.2218530
 129.2495630 145.0532160  84.2120150 129.5741400 144.3221820  84.7378130
 129.2852140 144.7345800  83.3101140 122.0984330 152.9222280  79.1128730
 122.4654460 152.4480850  79.8590070 121.9089390 153.7963850  79.4537070
 114.9624820 147.6665970  75.2422200 114.6771740 147.3021640  76.0800820
 114.9003680 146.9346430  74.6285340 119.8883700 151.9630920  81.4312940
 119.5840770 152.8422900  81.6563300 120.8430160 152.0230710  81.4670380
 124.6363410 146.5595230  71.9635570 123.8228020 146.0608400  71.8880880
 124.4425360 147.3993480  71.5471920 127.3511800 150.9314880  70.2597730
 128.2391420 151.2432110  70.0849070 127.3216890 150.0587130  69.8678310
 115.9447430 152.8033660  82.5784300 115.5862370 153.4687510  83.1657640
 115.6501990 151.9717210  82.9496920 119.1460550 153.2617900  85.4623850
 118.8460690 153.4075080  84.5651670 119.9171790 152.7023190  85.3697240
 129.6226070 152.2426720  69.7277590 129.5389790 152.6740940  68.8774030
 130.3420260 152.7025070  70.1604410 114.4555480 152.8024920  69.2018900
 115.3250330 153.0849720  69.4854820 113.9645800 153.6160790  69.0867710
 121.6190290 154.1898130  73.3227180 122.0753070 155.0003380  73.5487370
 121.2678500 153.8721270  74.1545670 117.5202070 144.5335780  73.7949700
 117.3916700 144.5253680  74.7434620 116.6964090 144.8718870  73.4440710
 114.5196000 146.2926900  83.2556400 113.8054520 146.4923820  83.8609010
 114.9391040 145.5166470  83.6271200 126.0134780 148.7849210  81.0057850
 126.3815600 147.9644420  81.3337420 125.1532980 148.8451100  81.4213500
 129.3796810 147.7406150  71.8145410 128.7509970 147.8451820  71.1003640
 128.8848730 147.9602930  72.6039290 121.3480840 150.0192100  73.2303290
 120.6396990 150.4878440  73.6716900 121.6325320 149.3614110  73.8648480
 122.9736770 151.4388800  81.2295820 123.4722020 151.9134620  81.8947670
 123.1159720 150.5152320  81.4365850 125.3796270 146.7442760  74.6699080
 125.2564050 146.7628890  73.7208590 126.3280830 146.7921700  74.7897480
 119.5515860 148.3277180  70.6054000 120.4006390 148.7647330  70.5394190
 119.1847130 148.6397440  71.4326060 130.1803630 147.6556760  82.0724210
 129.6777230 148.3962160  82.4118020 130.9960290 148.0440760  81.7561000
 128.4725640 152.8989940  75.5185570 127.5315780 152.9140170  75.6933260
 128.7869710 152.1125900  75.9645870 118.4507280 154.5809540  69.0789530
 119.2170550 154.4690900  69.6414960 118.5281970 153.8847510  68.4266300
 117.1454040 152.0134610  69.7622420 117.2257630 151.0662120  69.8739820
 118.0373790 152.3441490  69.8683080 114.6724840 153.8349530  84.9978590
 115.1763860 153.2556810  85.5694820 113.9332260 154.1189760  85.5354960
 116.7047920 151.9779120  85.8928660 116.7453260 151.6792990  86.8013890
 117.5593420 152.3786730  85.7336180 120.4826310 154.5774670  71.0532170
 120.9042730 154.4114540  71.8963560 120.6077150 153.7674900  70.5587310
 118.6453730 150.5571220  83.8603150 118.1150190 150.0662170  83.2326490
 119.3141800 150.9855420  83.3261080 122.9953950 153.6012280  68.3009270
 123.5159610 152.8861300  67.9350420 123.6422350 154.2398150  68.6009780
 128.0153960 152.3636840  85.6283490 128.5974730 151.6089160  85.5403970
 128.1915730 152.8944280  84.8514970 119.1326030 147.5233590  83.9400440
 119.0382900 146.9054340  83.2151310 118.5523420 148.2499880  83.7130350
 121.8987470 146.0806830  80.9727830 121.4504770 146.1031090  80.1273380
 121.2652670 145.6825850  81.5698130 124.6410920 152.7077340  82.9778110
 124.7607130 152.1118480  83.7172950 125.5004920 152.7447030  82.5579410
 126.9798820 153.2614530  81.5540620 126.4534040 153.7857150  80.9505760
 127.3230160 153.8941920  82.1850350 119.3785210 150.6507900  67.9990330
 119.1774270 149.7875260  68.3603670 119.2077260 150.5641260  67.0611930
 121.4079690 149.2498690  84.2353930 121.9979380 148.9414540  84.9231750
 120.5899930 148.7778440  84.3913830 126.2273120 148.8664500  84.4686950
 125.5388640 148.2046040  84.4036940 126.9479140 148.4202770  84.9135410
 126.8573520 145.4616130  70.5277210 127.1375810 144.6184030  70.8836630
 126.0839250 145.6939240  71.0415960 118.1768010 147.7508520  67.9868210
 118.4793910 147.7575950  67.0787360 118.9162600 147.4006380  68.4835870
 121.3952940 146.6943140  68.9724410 121.0474940 146.0167130  68.3926860
 121.5965710 146.2332650  69.7867800 114.7358580 153.2230790  75.3688780
 114.0807420 152.9542430  74.7248480 115.5736530 153.1135270  74.9190760
 127.6849020 148.0172080  69.5907270 128.1033900 147.8303060  68.7503930
 127.3785080 147.1651130  69.9010200 131.1838750 152.9296220  73.2883070
 130.8082350 152.1624150  72.8564360 130.4541870 153.3118920  73.7758000
 115.7734510 153.6083360  79.9092120 116.1407550 153.5210760  80.7888140
 115.2045330 152.8449910  79.8098980 130.5738370 152.0767740  82.9222590
 130.3424460 151.8480490  82.0220540 130.8342920 152.9967290  82.8767480
 115.3250510 150.5192450  83.8150540 114.4306560 150.4859210  84.1544250
 115.8648060 150.7179240  84.5801790 129.0126440 147.3024170  85.7002290
 129.8896620 147.3107570  86.0836290 129.0247280 146.5655010  85.0894640
 113.9496660 150.4329720  71.3114110 113.0460740 150.6959920  71.1365770
 114.4337280 150.7040890  70.5314070 130.4589710 151.1553710  76.5890310
 130.9827190 150.6616360  75.9580480 131.0449130 151.2904070  77.3337880
 130.6379430 151.2393580  80.1109860 129.6882140 151.2057120  80.2254850
 130.8192440 152.1493690  79.8759630 116.4923870 149.4895260  69.2208490
 117.2015570 149.0678480  68.7355770 115.7763810 149.5570490  68.5891840
 116.1398030 145.5434590  68.2611140 116.8626160 146.0843530  68.5792360
 116.4122550 145.2698010  67.3852680 129.9489680 150.4127060  72.5282720
 130.4448800 150.1797930  73.3131600 129.7505750 149.5738900  72.1120360
 115.8290220 144.7940780  78.1633760 116.4766410 144.2438160  77.7228920
 116.2492060 145.0483930  78.9849570 131.3776840 149.0488010  75.0620400
 131.2676120 148.8944050  76.0002670 132.1384430 148.5208950  74.8195810
 129.7242560 144.9882140  81.5203400 130.3614780 145.6016280  81.8862590
 129.8717450 145.0242800  80.5752630 132.2667110 146.8795930  68.3026540
 133.1916420 146.7477110  68.0944830 132.2442900 146.9588750  69.2562990
 132.3405600 147.6506590  70.9283250 131.5457100 147.5851710  71.4576160
 132.5448880 148.5857230  70.9168600 115.5822220 144.9496450  80.9059080
 115.2337040 145.4060270  81.6717260 115.2509920 144.0553580  80.9881510
 123.0947040 146.1408330  84.4278500 123.0335930 146.7330160  85.1773910
 124.0347420 146.0334290  84.2828760 125.7321600 145.7978390  84.0670790
 126.3462010 146.1157680  83.4051870 126.2771160 145.3126980  84.6866650
 116.2542860 144.4772650  84.1809850 116.8025850 144.2960700  83.4175960
 116.3198170 143.6866760  84.7166160 126.4729640 144.3610530  80.3940080
 125.5989480 144.6945640  80.1913010 126.3640390 143.8883710  81.2191950
 127.3801620 146.5681400  81.7781800 127.0514980 145.7533160  81.3983530
 128.3283920 146.5251210  81.6547490 124.2204460 145.2780370  79.3332990
 123.4376250 145.7525870  79.6129750 123.9267390 144.3735200  79.2246170
 128.7725530 145.9803470  77.3782080 129.2133620 145.9248570  76.5303680
 128.5033120 146.8961480  77.4492260 130.6364100 145.6118710  75.3890900
 130.5752500 144.6679930  75.2421920 131.4156130 145.7198800  75.9344360
 115.5644870 145.5827850  71.8546710 116.3224230 145.6956730  71.2810740
 115.1022040 146.4197050  71.8090140 122.1058680 147.6967120  74.8449020
 121.2933190 147.3224010  74.5044900 122.6100320 146.9412200  75.1470210
 126.6083660 144.3609570  76.0832090 127.2113030 144.9329780  76.5580610
 125.8676650 144.9249010  75.8605990 129.7518260 144.7631130  71.3572370
 129.9468890 145.6614580  71.6239800 128.9648130 144.5318210  71.8505320
 117.9370020 146.1091900  70.3948680 118.4662780 145.3221700  70.2656630
 118.5698340 146.7883090  70.6284210 120.1307860 145.8467040  73.4494070
 119.5010600 145.1454350  73.6164200 119.5913000 146.6071170  73.2327230
 120.2563420 145.1251020  85.8846560 119.9747690 145.6284620  85.1207380
 120.6383120 144.3272770  85.5188690 126.8578880 144.5404600  86.4627030
 126.7444330 144.8599210  87.3578550 127.6748620 144.9417110  86.1664310
 125.7637030 152.5597070  56.8261770 125.6831080 151.6451680  56.5553480
 125.3501450 153.0564140  56.1201480 123.8955070 154.3376090  58.7071040
 123.1197170 153.8576530  58.9969610 124.5468000 153.6581740  58.5327200
 117.9120900 154.6495900  59.5846800 117.0805780 154.3944610  59.9843310
 118.5201880 154.7206670  60.3204720 116.3212850 149.6097790  53.3689190
 115.4329550 149.9513760  53.2669070 116.6054040 149.4098110  52.4770020
 114.2845860 152.2103440  59.2528890 114.8561970 151.4425640  59.2532530
 114.2847400 152.5092200  58.3435500 115.5270730 147.6187800  61.0397820
 115.3473570 146.7213550  61.3200580 115.1250810 148.1659670  61.7144770
 124.3669230 149.8203660  58.9410130 124.7434050 148.9475540  58.8283800
 124.2688740 150.1562360  58.0500570 118.4974240 148.1929290  54.4027570
 118.6040990 149.0933020  54.7096330 117.5866600 148.1447260  54.1122220
 128.1493350 147.3154100  55.8738470 128.9702970 146.8250670  55.9163950
 128.1827430 147.9051760  56.6270310 116.1457400 150.1148300  59.6480160
 116.8267510 150.3786670  60.2667560 115.8305450 149.2749170  59.9818170
 120.3381970 151.1615660  58.7352750 120.8460190 151.6596630  59.3757770
 120.8695210 150.3850860  58.5592110 132.4392900 149.3320850  62.4382100
 131.7345070 149.7202560  61.9197210 132.7050820 150.0271140  63.0403030
 118.6218070 145.8014220  63.0016170 118.6236510 146.3186610  62.1962070
 117.7922380 145.3244400  62.9786100 128.3854830 149.2554480  58.6466010
 127.6810400 149.5439370  59.2269120 128.7466990 150.0654590  58.2865570
 118.3033400 147.5124180  61.0086620 118.6450210 148.3566230  60.7140490
 117.3649210 147.6607920  61.1251960 131.4541750 148.7009270  59.0375220
 130.5066660 148.7348250  59.1690650 131.7791740 149.5148220  59.4224580
 121.9861290 145.0006450  57.3331210 122.2936270 144.4453340  56.6166710
 121.0561990 145.1350910  57.1504200 124.3742050 153.0655280  54.0691330
 123.4471330 152.9992660  54.2979800 124.5266870 154.0035410  53.9546570
 124.3611130 149.3372280  51.0658490 123.4214800 149.4986240  51.1510950
 124.6794390 150.0557960  50.5194480 130.8823890 154.0190800  61.0437520
 130.0542520 154.0883890  60.5687650 131.4774370 154.6045110  60.5753350
 128.4039340 154.6275580  54.5726580 127.7851760 154.2895130  53.9252880
 128.3863790 153.9835340  55.2805770 127.8465900 150.8060120  61.9892390
 127.4337080 151.6313830  62.2432380 127.1141850 150.2205160  61.7968750
 119.9798690 153.5920020  56.8511060 119.5755690 152.8797270  56.3556960
 120.0661810 153.2473260  57.7399100 118.6927310 150.3663230  60.6310100
 119.2441900 150.4758570  59.8563350 119.2070820 150.7400830  61.3465330
 126.5804040 153.8662390  51.5799330 127.0197320 153.0284820  51.4337150
 127.2932460 154.4991790  51.6663470 118.3670040 153.8882590  64.2415440
 118.2277810 154.7605390  64.6102840 117.4851400 153.5455400  64.0963380
 130.1621180 145.1205200  49.8940370 129.8493840 145.2132030  50.7939440
 130.9233650 145.6986230  49.8437800 116.6803320 152.4865000  54.3517710
 116.5600920 153.2127090  53.7398980 116.3704210 151.7167910  53.8745620
 131.3722470 149.8576700  65.8714510 130.7566740 150.3656370  65.3429970
 131.0518890 148.9575030  65.8140450 119.1466980 145.8300070  57.7341380
 118.7035130 146.6109610  57.4025900 119.7051970 146.1529960  58.4412320
 123.4336790 148.6968590  63.3376700 122.9716160 148.9051610  64.1496640
 123.0314900 147.8827940  63.0347370 128.4341300 149.9177540  64.4673360
 127.5834890 149.6183290  64.7882430 128.2743090 150.1619550  63.5557180
 125.5291010 151.4179290  66.5672150 125.8544420 150.5843040  66.2274380
 126.3171340 151.9407810  66.7150480 122.2625800 145.4510770  52.6147210
 121.6379980 145.4470640  53.3400520 122.1755920 144.5841730  52.2183180
 121.1842880 146.3747400  59.5930980 121.4815210 147.2810230  59.5123000
 121.7328440 145.8866180  58.9790550 118.9381200 150.9533640  55.4622630
 118.7122120 150.7370810  56.3669250 118.1573730 151.3862100  55.1168600
 126.1678960 150.9597010  54.0613280 125.5687850 151.6832810  53.8776900
 126.7158570 150.8973790  53.2789730 121.3780410 151.8519220  66.1282900
 121.2824010 150.9113950  65.9783300 122.2212390 152.0734290  65.7330970
 124.7743830 149.5960550  56.0916560 125.1673400 149.9132750  55.2785250
 125.1360680 148.7172430  56.2061080 116.5090950 148.2632890  64.2816680
 116.1154340 149.1108100  64.4889460 115.8209350 147.6259260  64.4725320
 123.0836000 148.3467860  67.3513420 122.3934320 148.1540060  67.9859510
 123.8268300 148.6302500  67.8837720 113.8108000 146.1861350  58.3146760
 113.5221050 146.7564210  59.0271740 114.5553760 145.7065800  58.6777990
 113.9978230 150.1281470  49.5249480 113.9152900 151.0712230  49.6664470
 113.6461290 149.9856380  48.6461830 125.3598970 152.1866300  60.1867340
 124.6280090 152.6953110  60.5357440 124.9623310 151.3696280  59.8856120
 121.7976360 148.8620500  58.5919830 121.8012420 148.4210450  57.7424370
 122.6927480 149.1837830  58.6991650 117.6478740 148.7446990  57.5514040
 117.3078790 149.2222220  58.3081090 116.8856060 148.2912110  57.1915140
 121.8596510 149.8632580  51.5826590 121.9809330 149.8219060  52.5312410
 121.4745020 150.7256730  51.4273320 125.8224880 147.6399980  59.5990280
 125.8397620 148.0908630  60.4432130 125.5740460 146.7405620  59.8123720
 120.8718010 152.1733720  50.9809890 120.3034910 151.7251970  50.3545800
 121.5807010 152.5326500  50.4475040 129.2495630 145.0532160  65.4376660
 129.5741400 144.3221820  65.9634640 129.2852140 144.7345800  64.5357650
 122.0984330 152.9222280  60.3385240 122.4654460 152.4480850  61.0846580
 121.9089390 153.7963850  60.6793580 114.9624820 147.6665970  56.4678710
 114.6771740 147.3021640  57.3057330 114.9003680 146.9346430  55.8541850
 119.8883700 151.9630920  62.6569450 119.5840770 152.8422900  62.8819810
 120.8430160 152.0230710  62.6926890 124.6363410 146.5595230  53.1892080
 123.8228020 146.0608400  53.1137390 124.4425360 147.3993480  52.7728430
 127.3511800 150.9314880  51.4854240 128.2391420 151.2432110  51.3105580
 127.3216890 150.0587130  51.0934820 115.9447430 152.8033660  63.8040810
 115.5862370 153.4687510  64.3914150 115.6501990 151.9717210  64.1753430
 119.1460550 153.2617900  66.6880360 118.8460690 153.4075080  65.7908180
 119.9171790 152.7023190  66.5953750 129.6226070 152.2426720  50.9534100
 129.5389790 152.6740940  50.1030540 130.3420260 152.7025070  51.3860920
 114.4555480 152.8024920  50.4275410 115.3250330 153.0849720  50.7111330
 113.9645800 153.6160790  50.3124220 121.6190290 154.1898130  54.5483690
 122.0753070 155.0003380  54.7743880 121.2678500 153.8721270  55.3802180
 117.5202070 144.5335780  55.0206210 117.3916700 144.5253680  55.9691130
 116.6964090 144.8718870  54.6697220 114.5196000 146.2926900  64.4812910
 113.8054520 146.4923820  65.0865520 114.9391040 145.5166470  64.8527710
 126.0134780 148.7849210  62.2314360 126.3815600 147.9644420  62.5593930
 125.1532980 148.8451100  62.6470010 129.3796810 147.7406150  53.0401920
 128.7509970 147.8451820  52.3260150 128.8848730 147.9602930  53.8295800
 121.3480840 150.0192100  54.4559800 120.6396990 150.4878440  54.8973410
 121.6325320 149.3614110  55.0904990 122.9736770 151.4388800  62.4552330
 123.4722020 151.9134620  63.1204180 123.1159720 150.5152320  62.6622360
 125.3796270 146.7442760  55.8955590 125.2564050 146.7628890  54.9465100
 126.3280830 146.7921700  56.0153990 119.5515860 148.3277180  51.8310510
 120.4006390 148.7647330  51.7650700 119.1847130 148.6397440  52.6582570
 130.1803630 147.6556760  63.2980720 129.6777230 148.3962160  63.6374530
 130.9960290 148.0440760  62.9817510 128.4725640 152.8989940  56.7442080
 127.5315780 152.9140170  56.9189770 128.7869710 152.1125900  57.1902380
 118.4507280 154.5809540  50.3046040 119.2170550 154.4690900  50.8671470
 118.5281970 153.8847510  49.6522810 117.1454040 152.0134610  50.9878930
 117.2257630 151.0662120  51.0996330 118.0373790 152.3441490  51.0939590
 114.6724840 153.8349530  66.2235100 115.1763860 153.2556810  66.7951330
 113.9332260 154.1189760  66.7611470 116.7047920 151.9779120  67.1185170
 116.7453260 151.6792990  68.0270400 117.5593420 152.3786730  66.9592690
 120.4826310 154.5774670  52.2788680 120.9042730 154.4114540  53.1220070
 120.6077150 153.7674900  51.7843820 118.6453730 150.5571220  65.0859660
 118.1150190 150.0662170  64.4583000 119.3141800 150.9855420  64.5517590
 122.9953950 153.6012280  49.5265780 123.5159610 152.8861300  49.1606930
 123.6422350 154.2398150  49.8266290 128.0153960 152.3636840  66.8540000
 128.5974730 151.6089160  66.7660480 128.1915730 152.8944280  66.0771480
 119.1326030 147.5233590  65.1656950 119.0382900 146.9054340  64.4407820
 118.5523420 148.2499880  64.9386860 121.8987470 146.0806830  62.1984340
 121.4504770 146.1031090  61.3529890 121.2652670 145.6825850  62.7954640
 124.6410920 152.7077340  64.2034620 124.7607130 152.1118480  64.9429460
 125.5004920 152.7447030  63.7835920 126.9798820 153.2614530  62.7797130
 126.4534040 153.7857150  62.1762270 127.3230160 153.8941920  63.4106860
 119.3785210 150.6507900  49.2246840 119.1774270 149.7875260  49.5860180
 119.2077260 150.5641260  48.2868440 121.4079690 149.2498690  65.4610440
 121.9979380 148.9414540  66.1488260 120.5899930 148.7778440  65.6170340
 126.2273120 148.8664500  65.6943460 125.5388640 148.2046040  65.6293450
 126.9479140 148.4202770  66.1391920 126.8573520 145.4616130  51.7533720
 127.1375810 144.6184030  52.1093140 126.0839250 145.6939240  52.2672470
 118.1768010 147.7508520  49.2124720 118.4793910 147.7575950  48.3043870
 118.9162600 147.4006380  49.7092380 121.3952940 146.6943140  50.1980920
 121.0474940 146.0167130  49.6183370 121.5965710 146.2332650  51.0124310
 114.7358580 153.2230790  56.5945290 114.0807420 152.9542430  55.9504990
 115.5736530 153.1135270  56.1447270 127.6849020 148.0172080  50.8163780
 128.1033900 147.8303060  49.9760440 127.3785080 147.1651130  51.1266710
 131.1838750 152.9296220  54.5139580 130.8082350 152.1624150  54.0820870
 130.4541870 153.3118920  55.0014510 115.7734510 153.6083360  61.1348630
 116.1407550 153.5210760  62.0144650 115.2045330 152.8449910  61.0355490
 130.5738370 152.0767740  64.1479100 130.3424460 151.8480490  63.2477050
 130.8342920 152.9967290  64.1023990 115.3250510 150.5192450  65.0407050
 114.4306560 150.4859210  65.3800760 115.8648060 150.7179240  65.8058300
 129.0126440 147.3024170  66.9258800 129.8896620 147.3107570  67.3092800
 129.0247280 146.5655010  66.3151150 113.9496660 150.4329720  52.5370620
 113.0460740 150.6959920  52.3622280 114.4337280 150.7040890  51.7570580
 130.4589710 151.1553710  57.8146820 130.9827190 150.6616360  57.1836990
 131.0449130 151.2904070  58.5594390 130.6379430 151.2393580  61.3366370
 129.6882140 151.2057120  61.4511360 130.8192440 152.1493690  61.1016140
 116.4923870 149.4895260  50.4465000 117.2015570 149.0678480  49.9612280
 115.7763810 149.5570490  49.8148350 116.1398030 145.5434590  49.4867650
 116.8626160 146.0843530  49.8048870 116.4122550 145.2698010  48.6109190
 129.9489680 150.4127060  53.7539230 130.4448800 150.1797930  54.5388110
 129.7505750 149.5738900  53.3376870 115.8290220 144.7940780  59.3890270
 116.4766410 144.2438160  58.9485430 116.2492060 145.0483930  60.2106080
 131.3776840 149.0488010  56.2876910 131.2676120 148.8944050  57.2259180
 132.1384430 148.5208950  56.0452320 129.7242560 144.9882140  62.7459910
 130.3614780 145.6016280  63.1119100 129.8717450 145.0242800  61.8009140
 132.2667110 146.8795930  49.5283050 133.1916420 146.7477110  49.3201340
 132.2442900 146.9588750  50.4819500 132.3405600 147.6506590  52.1539760
 131.5457100 147.5851710  52.6832670 132.5448880 148.5857230  52.1425110
 115.5822220 144.9496450  62.1315590 115.2337040 145.4060270  62.8973770
 115.2509920 144.0553580  62.2138020 123.0947040 146.1408330  65.6535010
 123.0335930 146.7330160  66.4030420 124.0347420 146.0334290  65.5085270
 125.7321600 145.7978390  65.2927300 126.3462010 146.1157680  64.6308380
 126.2771160 145.3126980  65.9123160 116.2542860 144.4772650  65.4066360
 116.8025850 144.2960700  64.6432470 116.3198170 143.6866760  65.9422670
 126.4729640 144.3610530  61.6196590 125.5989480 144.6945640  61.4169520
 126.3640390 143.8883710  62.4448460 127.3801620 146.5681400  63.0038310
 127.0514980 145.7533160  62.6240040 128.3283920 146.5251210  62.8804000
 124.2204460 145.2780370  60.5589500 123.4376250 145.7525870  60.8386260
 123.9267390 144.3735200  60.4502680 128.7725530 145.9803470  58.6038590
 129.2133620 145.9248570  57.7560190 128.5033120 146.8961480  58.6748770
 130.6364100 145.6118710  56.6147410 130.5752500 144.6679930  56.4678430
 131.4156130 145.7198800  57.1600870 115.5644870 145.5827850  53.0803220
 116.3224230 145.6956730  52.5067250 115.1022040 146.4197050  53.0346650
 122.1058680 147.6967120  56.0705530 121.2933190 147.3224010  55.7301410
 122.6100320 146.9412200  56.3726720 126.6083660 144.3609570  57.3088600
 127.2113030 144.9329780  57.7837120 125.8676650 144.9249010  57.0862500
 129.7518260 144.7631130  52.5828880 129.9468890 145.6614580  52.8496310
 128.9648130 144.5318210  53.0761830 117.9370020 146.1091900  51.6205190
 118.4662780 145.3221700  51.4913140 118.5698340 146.7883090  51.8540720
 120.1307860 145.8467040  54.6750580 119.5010600 145.1454350  54.8420710
 119.5913000 146.6071170  54.4583740 120.2563420 145.1251020  67.1103070
 119.9747690 145.6284620  66.3463890 120.6383120 144.3272770  66.7445200
 126.8578880 144.5404600  67.6883540 126.7444330 144.8599210  68.5835060
 127.6748620 144.9417110  67.3920820 125.7637030 152.5597070  38.0518280
 125.6831080 151.6451680  37.7809990 125.3501450 153.0564140  37.3457990
 123.8955070 154.3376090  39.9327550 123.1197170 153.8576530  40.2226120
 124.5468000 153.6581740  39.7583710 117.9120900 154.6495900  40.8103310
 117.0805780 154.3944610  41.2099820 118.5201880 154.7206670  41.5461230
 116.3212850 149.6097790  34.5945700 115.4329550 149.9513760  34.4925580
 116.6054040 149.4098110  33.7026530 114.2845860 152.2103440  40.4785400
 114.8561970 151.4425640  40.4789040 114.2847400 152.5092200  39.5692010
 115.5270730 147.6187800  42.2654330 115.3473570 146.7213550  42.5457090
 115.1250810 148.1659670  42.9401280 124.3669230 149.8203660  40.1666640
 124.7434050 148.9475540  40.0540310 124.2688740 150.1562360  39.2757080
 118.4974240 148.1929290  35.6284080 118.6040990 149.0933020  35.9352840
 117.5866600 148.1447260  35.3378730 128.1493350 147.3154100  37.0994980
 128.9702970 146.8250670  37.1420460 128.1827430 147.9051760  37.8526820
 116.1457400 150.1148300  40.8736670 116.8267510 150.3786670  41.4924070
 115.8305450 149.2749170  41.2074680 120.3381970 151.1615660  39.9609260
 120.8460190 151.6596630  40.6014280 120.8695210 150.3850860  39.7848620
 132.4392900 149.3320850  43.6638610 131.7345070 149.7202560  43.1453720
 132.7050820 150.0271140  44.2659540 118.6218070 145.8014220  44.2272680
 118.6236510 146.3186610  43.4218580 117.7922380 145.3244400  44.2042610
 128.3854830 149.2554480  39.8722520 127.6810400 149.5439370  40.4525630
 128.7466990 150.0654590  39.5122080 118.3033400 147.5124180  42.2343130
 118.6450210 148.3566230  41.9397000 117.3649210 147.6607920  42.3508470
 131.4541750 148.7009270  40.2631730 130.5066660 148.7348250  40.3947160
 131.7791740 149.5148220  40.6481090 121.9861290 145.0006450  38.5587720
 122.2936270 144.4453340  37.8423220 121.0561990 145.1350910  38.3760710
 124.3742050 153.0655280  35.2947840 123.4471330 152.9992660  35.5236310
 124.5266870 154.0035410  35.1803080 124.3611130 149.3372280  32.2915000
 123.4214800 149.4986240  32.3767460 124.6794390 150.0557960  31.7450990
 130.8823890 154.0190800  42.2694030 130.0542520 154.0883890  41.7944160
 131.4774370 154.6045110  41.8009860 128.4039340 154.6275580  35.7983090
 127.7851760 154.2895130  35.1509390 128.3863790 153.9835340  36.5062280
 127.8465900 150.8060120  43.2148900 127.4337080 151.6313830  43.4688890
 127.1141850 150.2205160  43.0225260 119.9798690 153.5920020  38.0767570
 119.5755690 152.8797270  37.5813470 120.0661810 153.2473260  38.9655610
 118.6927310 150.3663230  41.8566610 119.2441900 150.4758570  41.0819860
 119.2070820 150.7400830  42.5721840 126.5804040 153.8662390  32.8055840
 127.0197320 153.0284820  32.6593660 127.2932460 154.4991790  32.8919980
 118.3670040 153.8882590  45.4671950 118.2277810 154.7605390  45.8359350
 117.4851400 153.5455400  45.3219890 130.1621180 145.1205200  31.1196880
 129.8493840 145.2132030  32.0195950 130.9233650 145.6986230  31.0694310
 116.6803320 152.4865000  35.5774220 116.5600920 153.2127090  34.9655490
 116.3704210 151.7167910  35.1002130 131.3722470 149.8576700  47.0971020
 130.7566740 150.3656370  46.5686480 131.0518890 148.9575030  47.0396960
 119.1466980 145.8300070  38.9597890 118.7035130 146.6109610  38.6282410
 119.7051970 146.1529960  39.6668830 123.4336790 148.6968590  44.5633210
 122.9716160 148.9051610  45.3753150 123.0314900 147.8827940  44.2603880
 128.4341300 149.9177540  45.6929870 127.5834890 149.6183290  46.0138940
 128.2743090 150.1619550  44.7813690 125.5291010 151.4179290  47.7928660
 125.8544420 150.5843040  47.4530890 126.3171340 151.9407810  47.9406990
 122.2625800 145.4510770  33.8403720 121.6379980 145.4470640  34.5657030
 122.1755920 144.5841730  33.4439690 121.1842880 146.3747400  40.8187490
 121.4815210 147.2810230  40.7379510 121.7328440 145.8866180  40.2047060
 118.9381200 150.9533640  36.6879140 118.7122120 150.7370810  37.5925760
 118.1573730 151.3862100  36.3425110 126.1678960 150.9597010  35.2869790
 125.5687850 151.6832810  35.1033410 126.7158570 150.8973790  34.5046240
 121.3780410 151.8519220  47.3539410 121.2824010 150.9113950  47.2039810
 122.2212390 152.0734290  46.9587480 124.7743830 149.5960550  37.3173070
 125.1673400 149.9132750  36.5041760 125.1360680 148.7172430  37.4317590
 116.5090950 148.2632890  45.5073190 116.1154340 149.1108100  45.7145970
 115.8209350 147.6259260  45.6981830 123.0836000 148.3467860  48.5769930
 122.3934320 148.1540060  49.2116020 123.8268300 148.6302500  49.1094230
 113.8108000 146.1861350  39.5403270 113.5221050 146.7564210  40.2528250
 114.5553760 145.7065800  39.9034500 113.9978230 150.1281470  30.7505990
 113.9152900 151.0712230  30.8920980 113.6461290 149.9856380  29.8718340
 125.3598970 152.1866300  41.4123850 124.6280090 152.6953110  41.7613950
 124.9623310 151.3696280  41.1112630 121.7976360 148.8620500  39.8176340
 121.8012420 148.4210450  38.9680880 122.6927480 149.1837830  39.9248160
 117.6478740 148.7446990  38.7770550 117.3078790 149.2222220  39.5337600
 116.8856060 148.2912110  38.4171650 121.8596510 149.8632580  32.8083100
 121.9809330 149.8219060  33.7568920 121.4745020 150.7256730  32.6529830
 125.8224880 147.6399980  40.8246790 125.8397620 148.0908630  41.6688640
 125.5740460 146.7405620  41.0380230 120.8718010 152.1733720  32.2066400
 120.3034910 151.7251970  31.5802310 121.5807010 152.5326500  31.6731550
 129.2495630 145.0532160  46.6633170 129.5741400 144.3221820  47.1891150
 129.2852140 144.7345800  45.7614160 122.0984330 152.9222280  41.5641750
 122.4654460 152.4480850  42.3103090 121.9089390 153.7963850  41.9050090
 114.9624820 147.6665970  37.6935220 114.6771740 147.3021640  38.5313840
 114.9003680 146.9346430  37.0798360 119.8883700 151.9630920  43.8825960
 119.5840770 152.8422900  44.1076320 120.8430160 152.0230710  43.9183400
 124.6363410 146.5595230  34.4148590 123.8228020 146.0608400  34.3393900
 124.4425360 147.3993480  33.9984940 127.3511800 150.9314880  32.7110750
 128.2391420 151.2432110  32.5362090 127.3216890 150.0587130  32.3191330
 115.9447430 152.8033660  45.0297320 115.5862370 153.4687510  45.6170660
 115.6501990 151.9717210  45.4009940 119.1460550 153.2617900  47.9136870
 118.8460690 153.4075080  47.0164690 119.9171790 152.7023190  47.8210260
 129.6226070 152.2426720  32.1790610 129.5389790 152.6740940  31.3287050
 130.3420260 152.7025070  32.6117430 114.4555480 152.8024920  31.6531920
 115.3250330 153.0849720  31.9367840 113.9645800 153.6160790  31.5380730
 121.6190290 154.1898130  35.7740200 122.0753070 155.0003380  36.0000390
 121.2678500 153.8721270  36.6058690 117.5202070 144.5335780  36.2462720
 117.3916700 144.5253680  37.1947640 116.6964090 144.8718870  35.8953730
 114.5196000 146.2926900  45.7069420 113.8054520 146.4923820  46.3122030
 114.9391040 145.5166470  46.0784220 126.0134780 148.7849210  43.4570870
 126.3815600 147.9644420  43.7850440 125.1532980 148.8451100  43.8726520
 129.3796810 147.7406150  34.2658430 128.7509970 147.8451820  33.5516660
 128.8848730 147.9602930  35.0552310 121.3480840 150.0192100  35.6816310
 120.6396990 150.4878440  36.1229920 121.6325320 149.3614110  36.3161500
 122.9736770 151.4388800  43.6808840 123.4722020 151.9134620  44.3460690
 123.1159720 150.5152320  43.8878870 125.3796270 146.7442760  37.1212100
 125.2564050 146.7628890  36.1721610 126.3280830 146.7921700  37.2410500
 119.5515860 148.3277180  33.0567020 120.4006390 148.7647330  32.9907210
 119.1847130 148.6397440  33.8839080 130.1803630 147.6556760  44.5237230
 129.6777230 148.3962160  44.8631040 130.9960290 148.0440760  44.2074020
 128.4725640 152.8989940  37.9698590 127.5315780 152.9140170  38.1446280
 128.7869710 152.1125900  38.4158890 118.4507280 154.5809540  31.5302550
 119.2170550 154.4690900  32.0927980 118.5281970 153.8847510  30.8779320
 117.1454040 152.0134610  32.2135440 117.2257630 151.0662120  32.3252840
 118.0373790 152.3441490  32.3196100 114.6724840 153.8349530  47.4491610
 115.1763860 153.2556810  48.0207840 113.9332260 154.1189760  47.9867980
 116.7047920 151.9779120  48.3441680 116.7453260 151.6792990  49.2526910
 117.5593420 152.3786730  48.1849200 120.4826310 154.5774670  33.5045190
 120.9042730 154.4114540  34.3476580 120.6077150 153.7674900  33.0100330
 118.6453730 150.5571220  46.3116170 118.1150190 150.0662170  45.6839510
 119.3141800 150.9855420  45.7774100 122.9953950 153.6012280  30.7522290
 123.5159610 152.8861300  30.3863440 123.6422350 154.2398150  31.0522800
 128.0153960 152.3636840  48.0796510 128.5974730 151.6089160  47.9916990
 128.1915730 152.8944280  47.3027990 119.1326030 147.5233590  46.3913460
 119.0382900 146.9054340  45.6664330 118.5523420 148.2499880  46.1643370
 121.8987470 146.0806830  43.4240850 121.4504770 146.1031090  42.5786400
 121.2652670 145.6825850  44.0211150 124.6410920 152.7077340  45.4291130
 124.7607130 152.1118480  46.1685970 125.5004920 152.7447030  45.0092430
 126.9798820 153.2614530  44.0053640 126.4534040 153.7857150  43.4018780
 127.3230160 153.8941920  44.6363370 119.3785210 150.6507900  30.4503350
 119.1774270 149.7875260  30.8116690 119.2077260 150.5641260  29.5124950
 121.4079690 149.2498690  46.6866950 121.9979380 148.9414540  47.3744770
 120.5899930 148.7778440  46.8426850 126.2273120 148.8664500  46.9199970
 125.5388640 148.2046040  46.8549960 126.9479140 148.4202770  47.3648430
 126.8573520 145.4616130  32.9790230 127.1375810 144.6184030  33.3349650
 126.0839250 145.6939240  33.4928980 118.1768010 147.7508520  30.4381230
 118.4793910 147.7575950  29.5300380 118.9162600 147.4006380  30.9348890
 121.3952940 146.6943140  31.4237430 121.0474940 146.0167130  30.8439880
 121.5965710 146.2332650  32.2380820 114.7358580 153.2230790  37.8201800
 114.0807420 152.9542430  37.1761500 115.5736530 153.1135270  37.3703780
 127.6849020 148.0172080  32.0420290 128.1033900 147.8303060  31.2016950
 127.3785080 147.1651130  32.3523220 131.1838750 152.9296220  35.7396090
 130.8082350 152.1624150  35.3077380 130.4541870 153.3118920  36.2271020
 115.7734510 153.6083360  42.3605140 116.1407550 153.5210760  43.2401160
 115.2045330 152.8449910  42.2612000 130.5738370 152.0767740  45.3735610
 130.3424460 151.8480490  44.4733560 130.8342920 152.9967290  45.3280500
 115.3250510 150.5192450  46.2663560 114.4306560 150.4859210  46.6057270
 115.8648060 150.7179240  47.0314810 129.0126440 147.3024170  48.1515310
 129.8896620 147.3107570  48.5349310 129.0247280 146.5655010  47.5407660
 113.9496660 150.4329720  33.7627130 113.0460740 150.6959920  33.5878790
 114.4337280 150.7040890  32.9827090 130.4589710 151.1553710  39.0403330
 130.9827190 150.6616360  38.4093500 131.0449130 151.2904070  39.7850900
 130.6379430 151.2393580  42.5622880 129.6882140 151.2057120  42.6767870
 130.8192440 152.1493690  42.3272650 116.4923870 149.4895260  31.6721510
 117.2015570 149.0678480  31.1868790 115.7763810 149.5570490  31.0404860
 116.1398030 145.5434590  30.7124160 116.8626160 146.0843530  31.0305380
 116.4122550 145.2698010  29.8365700 129.9489680 150.4127060  34.9795740
 130.4448800 150.1797930  35.7644620 129.7505750 149.5738900  34.5633380
 115.8290220 144.7940780  40.6146780 116.4766410 144.2438160  40.1741940
 116.2492060 145.0483930  41.4362590 131.3776840 149.0488010  37.5133420
 131.2676120 148.8944050  38.4515690 132.1384430 148.5208950  37.2708830
 129.7242560 144.9882140  43.9716420 130.3614780 145.6016280  44.3375610
 129.8717450 145.0242800  43.0265650 132.2667110 146.8795930  30.7539560
 133.1916420 146.7477110  30.5457850 132.2442900 146.9588750  31.7076010
 132.3405600 147.6506590  33.3796270 131.5457100 147.5851710  33.9089180
 132.5448880 148.5857230  33.3681620 115.5822220 144.9496450  43.3572100
 115.2337040 145.4060270  44.1230280 115.2509920 144.0553580  43.4394530
 123.0947040 146.1408330  46.8791520 123.0335930 146.7330160  47.6286930
 124.0347420 146.0334290  46.7341780 125.7321600 145.7978390  46.5183810
 126.3462010 146.1157680  45.8564890 126.2771160 145.3126980  47.1379670
 116.2542860 144.4772650  46.6322870 116.8025850 144.2960700  45.8688980
 116.3198170 143.6866760  47.1679180 126.4729640 144.3610530  42.8453100
 125.5989480 144.6945640  42.6426030 126.3640390 143.8883710  43.6704970
 127.3801620 146.5681400  44.2294820 127.0514980 145.7533160  43.8496550
 128.3283920 146.5251210  44.1060510 124.2204460 145.2780370  41.7846010
 123.4376250 145.7525870  42.0642770 123.9267390 144.3735200  41.6759190
 128.7725530 145.9803470  39.8295100 129.2133620 145.9248570  38.9816700
 128.5033120 146.8961480  39.9005280 130.6364100 145.6118710  37.8403920
 130.5752500 144.6679930  37.6934940 131.4156130 145.7198800  38.3857380
 115.5644870 145.5827850  34.3059730 116.3224230 145.6956730  33.7323760
 115.1022040 146.4197050  34.2603160 122.1058680 147.6967120  37.2962040
 121.2933190 147.3224010  36.9557920 122.6100320 146.9412200  37.5983230
 126.6083660 144.3609570  38.5345110 127.2113030 144.9329780  39.0093630
 125.8676650 144.9249010  38.3119010 129.7518260 144.7631130  33.8085390
 129.9468890 145.6614580  34.0752820 128.9648130 144.5318210  34.3018340
 117.9370020 146.1091900  32.8461700 118.4662780 145.3221700  32.7169650
 118.5698340 146.7883090  33.0797230 120.1307860 145.8467040  35.9007090
 119.5010600 145.1454350  36.0677220 119.5913000 146.6071170  35.6840250
 120.2563420 145.1251020  48.3359580 119.9747690 145.6284620  47.5720400
 120.6383120 144.3272770  47.9701710 126.8578880 144.5404600  48.9140050
 126.7444330 144.8599210  49.8091570 127.6748620 144.9417110  48.6177330
 125.7637030 152.5597070  19.2774790 125.6831080 151.6451680  19.0066500
 125.3501450 153.0564140  18.5714500 123.8955070 154.3376090  21.1584060
 123.1197170 153.8576530  21.4482630 124.5468000 153.6581740  20.9840220
 117.9120900 154.6495900  22.0359820 117.0805780 154.3944610  22.4356330
 118.5201880 154.7206670  22.7717740 116.3212850 149.6097790  15.8202210
 115.4329550 149.9513760  15.7182090 116.6054040 149.4098110  14.9283040
 114.2845860 152.2103440  21.7041910 114.8561970 151.4425640  21.7045550
 114.2847400 152.5092200  20.7948520 115.5270730 147.6187800  23.4910840
 115.3473570 146.7213550  23.7713600 115.1250810 148.1659670  24.1657790
 124.3669230 149.8203660  21.3923150 124.7434050 148.9475540  21.2796820
 124.2688740 150.1562360  20.5013590 118.4974240 148.1929290  16.8540590
 118.6040990 149.0933020  17.1609350 117.5866600 148.1447260  16.5635240
 128.1493350 147.3154100  18.3251490 128.9702970 146.8250670  18.3676970
 128.1827430 147.9051760  19.0783330 116.1457400 150.1148300  22.0993180
 116.8267510 150.3786670  22.7180580 115.8305450 149.2749170  22.4331190
 120.3381970 151.1615660  21.1865770 120.8460190 151.6596630  21.8270790
 120.8695210 150.3850860  21.0105130 132.4392900 149.3320850  24.8895120
 131.7345070 149.7202560  24.3710230 132.7050820 150.0271140  25.4916050
 118.6218070 145.8014220  25.4529190 118.6236510 146.3186610  24.6475090
 117.7922380 145.3244400  25.4299120 128.3854830 149.2554480  21.0979030
 127.6810400 149.5439370  21.6782140 128.7466990 150.0654590  20.7378590
 118.3033400 147.5124180  23.4599640 118.6450210 148.3566230  23.1653510
 117.3649210 147.6607920  23.5764980 131.4541750 148.7009270  21.4888240
 130.5066660 148.7348250  21.6203670 131.7791740 149.5148220  21.8737600
 121.9861290 145.0006450  19.7844230 122.2936270 144.4453340  19.0679730
 121.0561990 145.1350910  19.6017220 124.3742050 153.0655280  16.5204350
 123.4471330 152.9992660  16.7492820 124.5266870 154.0035410  16.4059590
 124.3611130 149.3372280  13.5171510 123.4214800 149.4986240  13.6023970
 124.6794390 150.0557960  12.9707500 130.8823890 154.0190800  23.4950540
 130.0542520 154.0883890  23.0200670 131.4774370 154.6045110  23.0266370
 128.4039340 154.6275580  17.0239600 127.7851760 154.2895130  16.3765900
 128.3863790 153.9835340  17.7318790 127.8465900 150.8060120  24.4405410
 127.4337080 151.6313830  24.6945400 127.1141850 150.2205160  24.2481770
 119.9798690 153.5920020  19.3024080 119.5755690 152.8797270  18.8069980
 120.0661810 153.2473260  20.1912120 118.6927310 150.3663230  23.0823120
 119.2441900 150.4758570  22.3076370 119.2070820 150.7400830  23.7978350
 126.5804040 153.8662390  14.0312350 127.0197320 153.0284820  13.8850170
 127.2932460 154.4991790  14.1176490 118.3670040 153.8882590  26.6928460
 118.2277810 154.7605390  27.0615860 117.4851400 153.5455400  26.5476400
 130.1621180 145.1205200  12.3453390 129.8493840 145.2132030  13.2452460
 130.9233650 145.6986230  12.2950820 116.6803320 152.4865000  16.8030730
 116.5600920 153.2127090  16.1912000 116.3704210 151.7167910  16.3258640
 131.3722470 149.8576700  28.3227530 130.7566740 150.3656370  27.7942990
 131.0518890 148.9575030  28.2653470 119.1466980 145.8300070  20.1854400
 118.7035130 146.6109610  19.8538920 119.7051970 146.1529960  20.8925340
 123.4336790 148.6968590  25.7889720 122.9716160 148.9051610  26.6009660
 123.0314900 147.8827940  25.4860390 128.4341300 149.9177540  26.9186380
 127.5834890 149.6183290  27.2395450 128.2743090 150.1619550  26.0070200
 125.5291010 151.4179290  29.0185170 125.8544420 150.5843040  28.6787400
 126.3171340 151.9407810  29.1663500 122.2625800 145.4510770  15.0660230
 121.6379980 145.4470640  15.7913540 122.1755920 144.5841730  14.6696200
 121.1842880 146.3747400  22.0444000 121.4815210 147.2810230  21.9636020
 121.7328440 145.8866180  21.4303570 118.9381200 150.9533640  17.9135650
 118.7122120 150.7370810  18.8182270 118.1573730 151.3862100  17.5681620
 126.1678960 150.9597010  16.5126300 125.5687850 151.6832810  16.3289920
 126.7158570 150.8973790  15.7302750 121.3780410 151.8519220  28.5795920
 121.2824010 150.9113950  28.4296320 122.2212390 152.0734290  28.1843990
 124.7743830 149.5960550  18.5429580 125.1673400 149.9132750  17.7298270
 125.1360680 148.7172430  18.6574100 116.5090950 148.2632890  26.7329700
 116.1154340 149.1108100  26.9402480 115.8209350 147.6259260  26.9238340
 123.0836000 148.3467860  29.8026440 122.3934320 148.1540060  30.4372530
 123.8268300 148.6302500  30.3350740 113.8108000 146.1861350  20.7659780
 113.5221050 146.7564210  21.4784760 114.5553760 145.7065800  21.1291010
 113.9978230 150.1281470  11.9762500 113.9152900 151.0712230  12.1177490
 113.6461290 149.9856380  11.0974850 125.3598970 152.1866300  22.6380360
 124.6280090 152.6953110  22.9870460 124.9623310 151.3696280  22.3369140
 121.7976360 148.8620500  21.0432850 121.8012420 148.4210450  20.1937390
 122.6927480 149.1837830  21.1504670 117.6478740 148.7446990  20.0027060
 117.3078790 149.2222220  20.7594110 116.8856060 148.2912110  19.6428160
 121.8596510 149.8632580  14.0339610 121.9809330 149.8219060  14.9825430
 121.4745020 150.7256730  13.8786340 125.8224880 147.6399980  22.0503300
 125.8397620 148.0908630  22.8945150 125.5740460 146.7405620  22.2636740
 120.8718010 152.1733720  13.4322910 120.3034910 151.7251970  12.8058820
 121.5807010 152.5326500  12.8988060 129.2495630 145.0532160  27.8889680
 129.5741400 144.3221820  28.4147660 129.2852140 144.7345800  26.9870670
 122.0984330 152.9222280  22.7898260 122.4654460 152.4480850  23.5359600
 121.9089390 153.7963850  23.1306600 114.9624820 147.6665970  18.9191730
 114.6771740 147.3021640  19.7570350 114.9003680 146.9346430  18.3054870
 119.8883700 151.9630920  25.1082470 119.5840770 152.8422900  25.3332830
 120.8430160 152.0230710  25.1439910 124.6363410 146.5595230  15.6405100
 123.8228020 146.0608400  15.5650410 124.4425360 147.3993480  15.2241450
 127.3511800 150.9314880  13.9367260 128.2391420 151.2432110  13.7618600
 127.3216890 150.0587130  13.5447840 115.9447430 152.8033660  26.2553830
 115.5862370 153.4687510  26.8427170 115.6501990 151.9717210  26.6266450
 119.1460550 153.2617900  29.1393380 118.8460690 153.4075080  28.2421200
 119.9171790 152.7023190  29.0466770 129.6226070 152.2426720  13.4047120
 129.5389790 152.6740940  12.5543560 130.3420260 152.7025070  13.8373940
 114.4555480 152.8024920  12.8788430 115.3250330 153.0849720  13.1624350
 113.9645800 153.6160790  12.7637240 121.6190290 154.1898130  16.9996710
 122.0753070 155.0003380  17.2256900 121.2678500 153.8721270  17.8315200
 117.5202070 144.5335780  17.4719230 117.3916700 144.5253680  18.4204150
 116.6964090 144.8718870  17.1210240 114.5196000 146.2926900  26.9325930
 113.8054520 146.4923820  27.5378540 114.9391040 145.5166470  27.3040730
 126.0134780 148.7849210  24.6827380 126.3815600 147.9644420  25.0106950
 125.1532980 148.8451100  25.0983030 129.3796810 147.7406150  15.4914940
 128.7509970 147.8451820  14.7773170 128.8848730 147.9602930  16.2808820
 121.3480840 150.0192100  16.9072820 120.6396990 150.4878440  17.3486430
 121.6325320 149.3614110  17.5418010 122.9736770 151.4388800  24.9065350
 123.4722020 151.9134620  25.5717200 123.1159720 150.5152320  25.1135380
 125.3796270 146.7442760  18.3468610 125.2564050 146.7628890  17.3978120
 126.3280830 146.7921700  18.4667010 119.5515860 148.3277180  14.2823530
 120.4006390 148.7647330  14.2163720 119.1847130 148.6397440  15.1095590
 130.1803630 147.6556760  25.7493740 129.6777230 148.3962160  26.0887550
 130.9960290 148.0440760  25.4330530 128.4725640 152.8989940  19.1955100
 127.5315780 152.9140170  19.3702790 128.7869710 152.1125900  19.6415400
 118.4507280 154.5809540  12.7559060 119.2170550 154.4690900  13.3184490
 118.5281970 153.8847510  12.1035830 117.1454040 152.0134610  13.4391950
 117.2257630 151.0662120  13.5509350 118.0373790 152.3441490  13.5452610
 114.6724840 153.8349530  28.6748120 115.1763860 153.2556810  29.2464350
 113.9332260 154.1189760  29.2124490 116.7047920 151.9779120  29.5698190
 116.7453260 151.6792990  30.4783420 117.5593420 152.3786730  29.4105710
 120.4826310 154.5774670  14.7301700 120.9042730 154.4114540  15.5733090
 120.6077150 153.7674900  14.2356840 118.6453730 150.5571220  27.5372680
 118.1150190 150.0662170  26.9096020 119.3141800 150.9855420  27.0030610
 122.9953950 153.6012280  11.9778800 123.5159610 152.8861300  11.6119950
 123.6422350 154.2398150  12.2779310 128.0153960 152.3636840  29.3053020
 128.5974730 151.6089160  29.2173500 128.1915730 152.8944280  28.5284500
 119.1326030 147.5233590  27.6169970 119.0382900 146.9054340  26.8920840
 118.5523420 148.2499880  27.3899880 121.8987470 146.0806830  24.6497360
 121.4504770 146.1031090  23.8042910 121.2652670 145.6825850  25.2467660
 124.6410920 152.7077340  26.6547640 124.7607130 152.1118480  27.3942480
 125.5004920 152.7447030  26.2348940 126.9798820 153.2614530  25.2310150
 126.4534040 153.7857150  24.6275290 127.3230160 153.8941920  25.8619880
 119.3785210 150.6507900  11.6759860 119.1774270 149.7875260  12.0373200
 119.2077260 150.5641260  10.7381460 121.4079690 149.2498690  27.9123460
 121.9979380 148.9414540  28.6001280 120.5899930 148.7778440  28.0683360
 126.2273120 148.8664500  28.1456480 125.5388640 148.2046040  28.0806470
 126.9479140 148.4202770  28.5904940 126.8573520 145.4616130  14.2046740
 127.1375810 144.6184030  14.5606160 126.0839250 145.6939240  14.7185490
 118.1768010 147.7508520  11.6637740 118.4793910 147.7575950  10.7556890
 118.9162600 147.4006380  12.1605400 121.3952940 146.6943140  12.6493940
 121.0474940 146.0167130  12.0696390 121.5965710 146.2332650  13.4637330
 114.7358580 153.2230790  19.0458310 114.0807420 152.9542430  18.4018010
 115.5736530 153.1135270  18.5960290 127.6849020 148.0172080  13.2676800
 128.1033900 147.8303060  12.4273460 127.3785080 147.1651130  13.5779730
 131.1838750 152.9296220  16.9652600 130.8082350 152.1624150  16.5333890
 130.4541870 153.3118920  17.4527530 115.7734510 153.6083360  23.5861650
 116.1407550 153.5210760  24.4657670 115.2045330 152.8449910  23.4868510
 130.5738370 152.0767740  26.5992120 130.3424460 151.8480490  25.6990070
 130.8342920 152.9967290  26.5537010 115.3250510 150.5192450  27.4920070
 114.4306560 150.4859210  27.8313780 115.8648060 150.7179240  28.2571320
 129.0126440 147.3024170  29.3771820 129.8896620 147.3107570  29.7605820
 129.0247280 146.5655010  28.7664170 113.9496660 150.4329720  14.9883640
 113.0460740 150.6959920  14.8135300 114.4337280 150.7040890  14.2083600
 130.4589710 151.1553710  20.2659840 130.9827190 150.6616360  19.6350010
 131.0449130 151.2904070  21.0107410 130.6379430 151.2393580  23.7879390
 129.6882140 151.2057120  23.9024380 130.8192440 152.1493690  23.5529160
 116.4923870 149.4895260  12.8978020 117.2015570 149.0678480  12.4125300
 115.7763810 149.5570490  12.2661370 116.1398030 145.5434590  11.9380670
 116.8626160 146.0843530  12.2561890 116.4122550 145.2698010  11.0622210
 129.9489680 150.4127060  16.2052250 130.4448800 150.1797930  16.9901130
 129.7505750 149.5738900  15.7889890 115.8290220 144.7940780  21.8403290
 116.4766410 144.2438160  21.3998450 116.2492060 145.0483930  22.6619100
 131.3776840 149.0488010  18.7389930 131.2676120 148.8944050  19.6772200
 132.1384430 148.5208950  18.4965340 129.7242560 144.9882140  25.1972930
 130.3614780 145.6016280  25.5632120 129.8717450 145.0242800  24.2522160
 132.2667110 146.8795930  11.9796070 133.1916420 146.7477110  11.7714360
 132.2442900 146.9588750  12.9332520 132.3405600 147.6506590  14.6052780
 131.5457100 147.5851710  15.1345690 132.5448880 148.5857230  14.5938130
 115.5822220 144.9496450  24.5828610 115.2337040 145.4060270  25.3486790
 115.2509920 144.0553580  24.6651040 123.0947040 146.1408330  28.1048030
 123.0335930 146.7330160  28.8543440 124.0347420 146.0334290  27.9598290
 125.7321600 145.7978390  27.7440320 126.3462010 146.1157680  27.0821400
 126.2771160 145.3126980  28.3636180 116.2542860 144.4772650  27.8579380
 116.8025850 144.2960700  27.0945490 116.3198170 143.6866760  28.3935690
 126.4729640 144.3610530  24.0709610 125.5989480 144.6945640  23.8682540
 126.3640390 143.8883710  24.8961480 127.3801620 146.5681400  25.4551330
 127.0514980 145.7533160  25.0753060 128.3283920 146.5251210  25.3317020
 124.2204460 145.2780370  23.0102520 123.4376250 145.7525870  23.2899280
 123.9267390 144.3735200  22.9015700 128.7725530 145.9803470  21.0551610
 129.2133620 145.9248570  20.2073210 128.5033120 146.8961480  21.1261790
 130.6364100 145.6118710  19.0660430 130.5752500 144.6679930  18.9191450
 131.4156130 145.7198800  19.6113890 115.5644870 145.5827850  15.5316240
 116.3224230 145.6956730  14.9580270 115.1022040 146.4197050  15.4859670
 122.1058680 147.6967120  18.5218550 121.2933190 147.3224010  18.1814430
 122.6100320 146.9412200  18.8239740 126.6083660 144.3609570  19.7601620
 127.2113030 144.9329780  20.2350140 125.8676650 144.9249010  19.5375520
 129.7518260 144.7631130  15.0341900 129.9468890 145.6614580  15.3009330
 128.9648130 144.5318210  15.5274850 117.9370020 146.1091900  14.0718210
 118.4662780 145.3221700  13.9426160 118.5698340 146.7883090  14.3053740
 120.1307860 145.8467040  17.1263600 119.5010600 145.1454350  17.2933730
 119.5913000 146.6071170  16.9096760 120.2563420 145.1251020  29.5616090
 119.9747690 145.6284620  28.7976910 120.6383120 144.3272770  29.1958220
 126.8578880 144.5404600  30.1396560 126.7444330 144.8599210  31.0348080
 127.6748620 144.9417110  29.8433840 123.8955070 154.3376090   2.3840570
 123.1197170 153.8576530   2.6739140 124.5468000 153.6581740   2.2096730
 117.9120900 154.6495900   3.2616330 117.0805780 154.3944610   3.6612840
 118.5201880 154.7206670   3.9974250 114.2845860 152.2103440   2.9298420
 114.8561970 151.4425640   2.9302060 114.2847400 152.5092200   2.0205030
 115.5270730 147.6187800   4.7167350 115.3473570 146.7213550   4.9970110
 115.1250810 148.1659670   5.3914300 124.3669230 149.8203660   2.6179660
 124.7434050 148.9475540   2.5053330 124.2688740 150.1562360   1.7270100
 116.1457400 150.1148300   3.3249690 116.8267510 150.3786670   3.9437090
 115.8305450 149.2749170   3.6587700 120.3381970 151.1615660   2.4122280
 120.8460190 151.6596630   3.0527300 120.8695210 150.3850860   2.2361640
 132.4392900 149.3320850   6.1151630 131.7345070 149.7202560   5.5966740
 132.7050820 150.0271140   6.7172560 118.6218070 145.8014220   6.6785700
 118.6236510 146.3186610   5.8731600 117.7922380 145.3244400   6.6555630
 128.3854830 149.2554480   2.3235540 127.6810400 149.5439370   2.9038650
 128.7466990 150.0654590   1.9635100 118.3033400 147.5124180   4.6856150
 118.6450210 148.3566230   4.3910020 117.3649210 147.6607920   4.8021490
 131.4541750 148.7009270   2.7144750 130.5066660 148.7348250   2.8460180
 131.7791740 149.5148220   3.0994110 130.8823890 154.0190800   4.7207050
 130.0542520 154.0883890   4.2457180 131.4774370 154.6045110   4.2522880
 127.8465900 150.8060120   5.6661920 127.4337080 151.6313830   5.9201910
 127.1141850 150.2205160   5.4738280 118.6927310 150.3663230   4.3079630
 119.2441900 150.4758570   3.5332880 119.2070820 150.7400830   5.0234860
 118.3670040 153.8882590   7.9184970 118.2277810 154.7605390   8.2872370
 117.4851400 153.5455400   7.7732910 131.3722470 149.8576700   9.5484040
 130.7566740 150.3656370   9.0199500 131.0518890 148.9575030   9.4909980
 123.4336790 148.6968590   7.0146230 122.9716160 148.9051610   7.8266170
 123.0314900 147.8827940   6.7116900 128.4341300 149.9177540   8.1442890
 127.5834890 149.6183290   8.4651960 128.2743090 150.1619550   7.2326710
 125.5291010 151.4179290  10.2441680 125.8544420 150.5843040   9.9043910
 126.3171340 151.9407810  10.3920010 121.1842880 146.3747400   3.2700510
 121.4815210 147.2810230   3.1892530 121.7328440 145.8866180   2.6560080
 121.3780410 151.8519220   9.8052430 121.2824010 150.9113950   9.6552830
 122.2212390 152.0734290   9.4100500 116.5090950 148.2632890   7.9586210
 116.1154340 149.1108100   8.1658990 115.8209350 147.6259260   8.1494850
 123.0836000 148.3467860  11.0282950 122.3934320 148.1540060  11.6629040
 123.8268300 148.6302500  11.5607250 113.8108000 146.1861350   1.9916290
 113.5221050 146.7564210   2.7041270 114.5553760 145.7065800   2.3547520
 125.3598970 152.1866300   3.8636870 124.6280090 152.6953110   4.2126970
 124.9623310 151.3696280   3.5625650 121.7976360 148.8620500   2.2689360
 121.8012420 148.4210450   1.4193900 122.6927480 149.1837830   2.3761180
 125.8224880 147.6399980   3.2759810 125.8397620 148.0908630   4.1201660
 125.5740460 146.7405620   3.4893250 129.2495630 145.0532160   9.1146190
 129.5741400 144.3221820   9.6404170 129.2852140 144.7345800   8.2127180
 122.0984330 152.9222280   4.0154770 122.4654460 152.4480850   4.7616110
 121.9089390 153.7963850   4.3563110 119.8883700 151.9630920   6.3338980
 119.5840770 152.8422900   6.5589340 120.8430160 152.0230710   6.3696420
 115.9447430 152.8033660   7.4810340 115.5862370 153.4687510   8.0683680
 115.6501990 151.9717210   7.8522960 119.1460550 153.2617900  10.3649890
 118.8460690 153.4075080   9.4677710 119.9171790 152.7023190  10.2723280
 114.5196000 146.2926900   8.1582440 113.8054520 146.4923820   8.7635050
 114.9391040 145.5166470   8.5297240 126.0134780 148.7849210   5.9083890
 126.3815600 147.9644420   6.2363460 125.1532980 148.8451100   6.3239540
 122.9736770 151.4388800   6.1321860 123.4722020 151.9134620   6.7973710
 123.1159720 150.5152320   6.3391890 130.1803630 147.6556760   6.9750250
 129.6777230 148.3962160   7.3144060 130.9960290 148.0440760   6.6587040
 114.6724840 153.8349530   9.9004630 115.1763860 153.2556810  10.4720860
 113.9332260 154.1189760  10.4381000 116.7047920 151.9779120  10.7954700
 116.7453260 151.6792990  11.7039930 117.5593420 152.3786730  10.6362220
 118.6453730 150.5571220   8.7629190 118.1150190 150.0662170   8.1352530
 119.3141800 150.9855420   8.2287120 128.0153960 152.3636840  10.5309530
 128.5974730 151.6089160  10.4430010 128.1915730 152.8944280   9.7541010
 119.1326030 147.5233590   8.8426480 119.0382900 146.9054340   8.1177350
 118.5523420 148.2499880   8.6156390 121.8987470 146.0806830   5.8753870
 121.4504770 146.1031090   5.0299420 121.2652670 145.6825850   6.4724170
 124.6410920 152.7077340   7.8804150 124.7607130 152.1118480   8.6198990
 125.5004920 152.7447030   7.4605450 126.9798820 153.2614530   6.4566660
 126.4534040 153.7857150   5.8531800 127.3230160 153.8941920   7.0876390
 121.4079690 149.2498690   9.1379970 121.9979380 148.9414540   9.8257790
 120.5899930 148.7778440   9.2939870 126.2273120 148.8664500   9.3712990
 125.5388640 148.2046040   9.3062980 126.9479140 148.4202770   9.8161450
 115.7734510 153.6083360   4.8118160 116.1407550 153.5210760   5.6914180
 115.2045330 152.8449910   4.7125020 130.5738370 152.0767740   7.8248630
 130.3424460 151.8480490   6.9246580 130.8342920 152.9967290   7.7793520
 115.3250510 150.5192450   8.7176580 114.4306560 150.4859210   9.0570290
 115.8648060 150.7179240   9.4827830 129.0126440 147.3024170  10.6028330
 129.8896620 147.3107570  10.9862330 129.0247280 146.5655010   9.9920680
 130.6379430 151.2393580   5.0135900 129.6882140 151.2057120   5.1280890
 130.8192440 152.1493690   4.7785670 115.8290220 144.7940780   3.0659800
 116.4766410 144.2438160   2.6254960 116.2492060 145.0483930   3.8875610
 129.7242560 144.9882140   6.4229440 130.3614780 145.6016280   6.7888630
 129.8717450 145.0242800   5.4778670 115.5822220 144.9496450   5.8085120
 115.2337040 145.4060270   6.5743300 115.2509920 144.0553580   5.8907550
 123.0947040 146.1408330   9.3304540 123.0335930 146.7330160  10.0799950
 124.0347420 146.0334290   9.1854800 125.7321600 145.7978390   8.9696830
 126.3462010 146.1157680   8.3077910 126.2771160 145.3126980   9.5892690
 116.2542860 144.4772650   9.0835890 116.8025850 144.2960700   8.3202000
 116.3198170 143.6866760   9.6192200 126.4729640 144.3610530   5.2966120
 125.5989480 144.6945640   5.0939050 126.3640390 143.8883710   6.1217990
 127.3801620 146.5681400   6.6807840 127.0514980 145.7533160   6.3009570
 128.3283920 146.5251210   6.5573530 124.2204460 145.2780370   4.2359030
 123.4376250 145.7525870   4.5155790 123.9267390 144.3735200   4.1272210
 128.7725530 145.9803470   2.2808120 129.2133620 145.9248570   1.4329720
 128.5033120 146.8961480   2.3518300 120.2563420 145.1251020  10.7872600
 119.9747690 145.6284620  10.0233420 120.6383120 144.3272770  10.4214730
 126.8578880 144.5404600  11.3653070 126.7444330 144.8599210  12.2604590
 127.6748620 144.9417110  11.0690350 125.7637030 133.7853580 150.6979220
 125.6831080 132.8708190 150.4270930 125.3501450 134.2820650 149.9918930
 123.8955070 135.5632600 152.5788490 123.1197170 135.0833040 152.8687060
 124.5468000 134.8838250 152.4044650 127.9162500 139.9692790 151.3587620
 127.4544030 139.1980030 151.6874790 128.7288050 139.9958860 151.8640070
 116.3212850 130.8354300 147.2406640 115.4329550 131.1770270 147.1386520
 116.6054040 130.6354620 146.3487470 114.2845860 133.4359950 153.1246340
 114.8561970 132.6682150 153.1249980 114.2847400 133.7348710 152.2152950
 124.1425810 142.2550800 150.9791610 123.5237250 142.7108300 150.4086050
 124.9977590 142.4102260 150.5781310 123.3364060 138.2389790 152.5858650
 123.2672340 137.2979730 152.4247780 124.0983920 138.3291200 153.1581220
 124.3669230 131.0460170 152.8127580 124.7434050 130.1732050 152.7001250
 124.2688740 131.3818870 151.9218020 118.4974240 129.4185800 148.2745020
 118.6040990 130.3189530 148.5813780 117.5866600 129.3703770 147.9839670
 128.1493350 128.5410610 149.7455920 128.9702970 128.0507180 149.7881400
 128.1827430 129.1308270 150.4987760 125.0089160 137.1390040 148.3723520
 124.3906430 137.6039490 147.8086240 125.5212410 137.8317520 148.7893030
 128.3854830 130.4810990 152.5183460 127.6810400 130.7695880 153.0986570
 128.7466990 131.2911100 152.1583020 114.3772360 137.8246570 145.7463150
 114.0000340 138.3133670 145.0148050 114.6345430 138.4971850 146.3769680
 121.9861290 126.2262960 151.2048660 122.2936270 125.6709850 150.4884160
 121.0561990 126.3607420 151.0221650 128.8321770 138.6646470 148.5846290
 128.7218100 137.7220800 148.7095710 128.8290020 139.0262110 149.4709050
 124.3742050 134.2911790 147.9408780 123.4471330 134.2249170 148.1697250
 124.5266870 135.2291920 147.8264020 124.3611130 130.5628790 144.9375940
 123.4214800 130.7242750 145.0228400 124.6794390 131.2814470 144.3911930
 128.4039340 135.8532090 148.4444030 127.7851760 135.5151640 147.7970330
 128.3863790 135.2091850 149.1523220 119.9798690 134.8176530 150.7228510
 119.5755690 134.1053780 150.2274410 120.0661810 134.4729770 151.6116550
 120.4480390 138.5044090 152.8867720 120.1508680 137.8989560 152.2075500
 121.3980210 138.5421400 152.7757080 126.5804040 135.0918900 145.4516780
 127.0197320 134.2541330 145.3054600 127.2932460 135.7248300 145.5380920
 124.6899420 140.0314970 149.4198020 125.1295330 140.7739300 149.0053410
 124.6286310 140.2741540 150.3436980 130.1621180 126.3461710 143.7657820
 129.8493840 126.4388540 144.6656890 130.9233650 126.9242740 143.7155250
 116.6803320 133.7121510 148.2235160 116.5600920 134.4383600 147.6116430
 116.3704210 132.9424420 147.7463070 115.5636320 138.5836840 150.4409980
 115.1564400 138.7251430 149.5863580 116.4549330 138.2997000 150.2381190
 127.3569600 143.0184090 146.7761030 127.1970740 142.7287030 147.6742860
 127.1916310 142.2424220 146.2406260 119.8357980 142.7982620 148.5532650
 119.6600460 141.8818160 148.3400450 118.9813720 143.1569910 148.7930450
 127.0595730 140.5271650 145.3359030 126.3660890 140.5248940 144.6761310
 127.8018590 140.1030970 144.9053200 126.6245660 142.1534360 149.4107520
 127.0802610 141.3723740 149.7246140 126.9638180 142.8641180 149.9548700
 119.1466980 127.0556580 151.6058830 118.7035130 127.8366120 151.2743350
 119.7051970 127.3786470 152.3129770 122.2625800 126.6767280 146.4864660
 121.6379980 126.6727150 147.2117970 122.1755920 125.8098240 146.0900630
 118.9381200 132.1790150 149.3340080 118.7122120 131.9627320 150.2386700
 118.1573730 132.6118610 148.9886050 126.1678960 132.1853520 147.9330730
 125.5687850 132.9089320 147.7494350 126.7158570 132.1230300 147.1507180
 124.7743830 130.8217060 149.9634010 125.1673400 131.1389260 149.1502700
 125.1360680 129.9428940 150.0778530 113.8108000 127.4117860 152.1864210
 113.5221050 127.9820720 152.8989190 114.5553760 126.9322310 152.5495440
 113.9978230 131.3537980 143.3966930 113.9152900 132.2968740 143.5381920
 113.6461290 131.2112890 142.5179280 121.7976360 130.0877010 152.4637280
 121.8012420 129.6466960 151.6141820 122.6927480 130.4094340 152.5709100
 117.6478740 129.9703500 151.4231490 117.3078790 130.4478730 152.1798540
 116.8856060 129.5168620 151.0632590 121.8596510 131.0889090 145.4544040
 121.9809330 131.0475570 146.4029860 121.4745020 131.9513240 145.2990770
 120.8718010 133.3990230 144.8527340 120.3034910 132.9508480 144.2263250
 121.5807010 133.7583010 144.3192490 114.9624820 128.8922480 150.3396160
 114.6771740 128.5278150 151.1774780 114.9003680 128.1602940 149.7259300
 118.4165490 137.3948420 147.1253750 117.6427750 136.8546040 146.9652470
 119.1460120 136.8755030 146.7871510 129.1753470 136.3913780 152.9180140
 129.8952590 136.8869070 152.5276250 128.9735290 135.7131670 152.2734010
 124.6363410 127.7851740 147.0609530 123.8228020 127.2864910 146.9854840
 124.4425360 128.6249990 146.6445880 127.3511800 132.1571390 145.3571690
 128.2391420 132.4688620 145.1823030 127.3216890 131.2843640 144.9652270
 118.4602890 137.0628800 150.7632560 118.9781560 136.2597060 150.7089450
 118.0086910 137.0007940 151.6049390 123.3472390 138.3295080 146.0359860
 123.6888090 139.0737310 145.5403180 122.5185100 138.6426200 146.3984690
 129.6226070 133.4683230 144.8251550 129.5389790 133.8997450 143.9747990
 130.3420260 133.9281580 145.2578370 130.6513320 140.3225490 147.5533680
 130.0089480 139.6681110 147.8277400 130.2643980 140.7280580 146.7774350
 126.2299800 137.6510920 151.4005370 126.5823620 137.0539050 150.7406740
 125.3462130 137.3255150 151.5713620 122.3163080 138.4108610 148.8075780
 123.0034210 138.9577820 149.1883370 121.5295500 138.9549340 148.8425390
 114.4555480 134.0281430 144.2992860 115.3250330 134.3106230 144.5828780
 113.9645800 134.8417300 144.1841670 121.6190290 135.4154640 148.4201140
 122.0753070 136.2259890 148.6461330 121.2678500 135.0977780 149.2519630
 117.5202070 125.7592290 148.8923660 117.3916700 125.7510190 149.8408580
 116.6964090 126.0975380 148.5414670 129.0410700 139.2141950 144.0910030
 128.8148280 138.4972390 144.6834670 128.6506900 138.9654390 143.2531780
 114.8226730 143.2408810 144.8654490 115.1824370 143.8398150 144.2111760
 114.6819070 143.7868700 145.6389520 128.6226950 137.1313890 145.7524190
 128.3348650 137.5926580 146.5402070 129.4179120 136.6711660 146.0208410
 120.8395350 140.6240010 145.6828160 120.8305450 141.3569700 145.0672670
 119.9193710 140.3771590 145.7755120 116.4401990 135.8454900 146.4274920
 115.8329940 136.5853800 146.4370220 116.9151340 135.9354260 145.6013120
 129.3796810 128.9662660 146.9119370 128.7509970 129.0708330 146.1977600
 128.8848730 129.1859440 147.7013250 123.8254950 140.6868250 144.3453350
 123.9266930 140.4832240 143.4155330 122.9256690 140.4326530 144.5501130
 121.3480840 131.2448610 148.3277250 120.6396990 131.7134950 148.7690860
 121.6325320 130.5870620 148.9622440 125.3796270 127.9699270 149.7673040
 125.2564050 127.9885400 148.8182550 126.3280830 128.0178210 149.8871440
 122.4673060 143.2054570 149.0401020 122.7214560 143.1675960 148.1180390
 121.5185540 143.0787900 149.0329270 119.5515860 129.5533690 145.7027960
 120.4006390 129.9903840 145.6368150 119.1847130 129.8653950 146.5300020
 128.4725640 134.1246450 150.6159530 127.5315780 134.1396680 150.7907220
 128.7869710 133.3382410 151.0619830 118.4507280 135.8066050 144.1763490
 119.2170550 135.6947410 144.7388920 118.5281970 135.1104020 143.5240260
 117.1454040 133.2391120 144.8596380 117.2257630 132.2918630 144.9713780
 118.0373790 133.5698000 144.9657040 130.4751220 141.2955300 152.2913790
 130.5998640 142.1186470 152.7637600 131.3416780 141.0846030 151.9437940
 117.9468750 143.3886510 151.9630920 118.6831230 142.8401970 152.2339490
 118.3309670 144.2542520 151.8236910 114.8314230 139.4560080 147.8372430
 113.9054010 139.6981220 147.8277840 115.2970660 140.2834340 147.7157180
 121.0571060 142.5616820 143.7856490 121.8499670 142.8505650 143.3338280
 120.5375410 142.1308990 143.1068970 130.1101230 141.7886950 145.2093230
 129.8242740 141.3752090 144.3947410 129.9120780 142.7174660 145.0893750
 121.5748460 137.7820230 143.6498840 121.4699100 137.1672580 144.3760220
 121.4072680 137.2586120 142.8661850 124.8151190 136.8440260 144.2540830
 124.2661290 137.2909560 144.8983570 125.4370450 136.3389510 144.7778500
 120.4826310 135.8031180 146.1506130 120.9042730 135.6371050 146.9937520
 120.6077150 134.9931410 145.6561270 122.9953950 134.8268790 143.3983230
 123.5159610 134.1117810 143.0324380 123.6422350 135.4654660 143.6983740
 119.3785210 131.8764410 143.0964290 119.1774270 131.0131770 143.4577630
 119.2077260 131.7897770 142.1585890 126.8573520 126.6872640 145.6251170
 127.1375810 125.8440540 145.9810590 126.0839250 126.9195750 146.1389920
 118.1768010 128.9765030 143.0842170 118.4793910 128.9832460 142.1761320
 118.9162600 128.6262890 143.5809830 121.3952940 127.9199650 144.0698370
 121.0474940 127.2423640 143.4900820 121.5965710 127.4589160 144.8841760
 123.5601980 142.9080400 145.6884970 124.4552770 143.2465370 145.7103730
 123.5919610 142.1859810 145.0609250 117.1998140 138.2807450 143.9171970
 117.6373010 138.8237120 144.5729550 117.6845870 137.4554400 143.9268310
 114.4143940 141.0696480 151.3692230 114.7446950 140.2017540 151.1370870
 114.8434940 141.2755000 152.1997190 119.0105860 139.4005490 149.0294200
 118.7101400 139.2770460 149.9298110 118.9043350 138.5414080 148.6209930
 131.7797780 139.1801890 143.7320880 130.9490740 139.2478540 144.2028110
 131.9569610 140.0706010 143.4287740 131.2354240 135.9249370 146.2355080
 131.9973150 136.4946020 146.3414770 131.2508610 135.3576570 147.0063390
 114.7358580 134.4487300 150.4662740 114.0807420 134.1798940 149.8222440
 115.5736530 134.3391780 150.0164720 132.2414210 136.7799470 151.0797010
 132.6123040 135.9966790 150.6732980 132.8816140 137.4688570 150.9014310
 131.2873410 136.2183740 143.3927600 131.5622250 137.1262620 143.2646820
 131.0984150 136.1546270 144.3289590 127.6849020 129.2428590 144.6881230
 128.1033900 129.0559570 143.8477890 127.3785080 128.3907640 144.9984160
 131.1838750 134.1552730 148.3857030 130.8082350 133.3880660 147.9538320
 130.4541870 134.5375430 148.8731960 113.9496660 131.6586230 146.4088070
 113.0460740 131.9216430 146.2339730 114.4337280 131.9297400 145.6288030
 130.4589710 132.3810220 151.6864270 130.9827190 131.8872870 151.0554440
 131.0449130 132.5160580 152.4311840 116.4923870 130.7151770 144.3182450
 117.2015570 130.2934990 143.8329730 115.7763810 130.7827000 143.6865800
 116.1398030 126.7691100 143.3585100 116.8626160 127.3100040 143.6766320
 116.4122550 126.4954520 142.4826640 129.9489680 131.6383570 147.6256680
 130.4448800 131.4054440 148.4105560 129.7505750 130.7995410 147.2094320
 131.3776840 130.2744520 150.1594360 131.2676120 130.1200560 151.0976630
 132.1384430 129.7465460 149.9169770 132.2667110 128.1052440 143.4000500
 133.1916420 127.9733620 143.1918790 132.2442900 128.1845260 144.3536950
 132.3405600 128.8763100 146.0257210 131.5457100 128.8108220 146.5550120
 132.5448880 129.8113740 146.0142560 129.2824020 142.9154650 150.0195600
 129.8783090 142.5939220 149.3430020 129.5402170 142.4426470 150.8108870
 128.7725530 127.2059980 152.4756040 129.2133620 127.1505080 151.6277640
 128.5033120 128.1217990 152.5466220 130.6364100 126.8375220 150.4864860
 130.5752500 125.8936440 150.3395880 131.4156130 126.9455310 151.0318320
 114.9416850 142.9767580 149.4488810 114.7738890 142.3438260 150.1470700
 114.0751360 143.1826980 149.0983000 115.5644870 126.8084360 146.9520670
 116.3224230 126.9213240 146.3784700 115.1022040 127.6453560 146.9064100
 122.1058680 128.9223630 149.9422980 121.2933190 128.5480520 149.6018860
 122.6100320 128.1668710 150.2444170 126.6083660 125.5866080 151.1806050
 127.2113030 126.1586290 151.6554570 125.8676650 126.1505520 150.9579950
 129.7518260 125.9887640 146.4546330 129.9468890 126.8871090 146.7213760
 128.9648130 125.7574720 146.9479280 116.5479550 141.6700810 146.8938950
 116.0227170 142.0508840 146.1900910 116.4724130 142.2951580 147.6148660
 117.9370020 127.3348410 145.4922640 118.4662780 126.5478210 145.3630590
 118.5698340 128.0139600 145.7258170 120.1307860 127.0723550 148.5468030
 119.5010600 126.3710860 148.7138160 119.5913000 127.8327680 148.3301190
 131.3044870 143.2288350 148.2152890 131.4797060 142.5426090 147.5713810
 130.6066440 143.7535400 147.8229560 119.1472520 143.6183190 145.7688200
 119.8791340 143.3342470 145.2212090 119.4066190 143.3796470 146.6587580
 118.3087310 139.7347920 145.7734530 117.6796190 140.2033020 146.3220360
 118.4235140 138.8897140 146.2080720 125.7637030 133.7853580 131.9235730
 125.6831080 132.8708190 131.6527440 125.3501450 134.2820650 131.2175440
 123.8955070 135.5632600 133.8045000 123.1197170 135.0833040 134.0943570
 124.5468000 134.8838250 133.6301160 117.9120900 135.8752410 134.6820760
 117.0805780 135.6201120 135.0817270 118.5201880 135.9463180 135.4178680
 127.9162500 139.9692790 132.5844130 127.4544030 139.1980030 132.9131300
 128.7288050 139.9958860 133.0896580 117.8922160 139.9092500 134.8778780
 118.1950200 139.0190240 134.6989000 118.6365750 140.4662720 134.6501030
 116.3212850 130.8354300 128.4663150 115.4329550 131.1770270 128.3643030
 116.6054040 130.6354620 127.5743980 114.2845860 133.4359950 134.3502850
 114.8561970 132.6682150 134.3506490 114.2847400 133.7348710 133.4409460
 124.1425810 142.2550800 132.2048120 123.5237250 142.7108300 131.6342560
 124.9977590 142.4102260 131.8037820 123.3364060 138.2389790 133.8115160
 123.2672340 137.2979730 133.6504290 124.0983920 138.3291200 134.3837730
 115.5270730 128.8444310 136.1371780 115.3473570 127.9470060 136.4174540
 115.1250810 129.3916180 136.8118730 124.3669230 131.0460170 134.0384090
 124.7434050 130.1732050 133.9257760 124.2688740 131.3818870 133.1474530
 118.4974240 129.4185800 129.5001530 118.6040990 130.3189530 129.8070290
 117.5866600 129.3703770 129.2096180 128.1493350 128.5410610 130.9712430
 128.9702970 128.0507180 131.0137910 128.1827430 129.1308270 131.7244270
 116.1457400 131.3404810 134.7454120 116.8267510 131.6043180 135.3641520
 115.8305450 130.5005680 135.0792130 120.3381970 132.3872170 133.8326710
 120.8460190 132.8853140 134.4731730 120.8695210 131.6107370 133.6566070
 132.4392900 130.5577360 137.5356060 131.7345070 130.9459070 137.0171170
 132.7050820 131.2527650 138.1376990 118.6218070 127.0270730 138.0990130
 118.6236510 127.5443120 137.2936030 117.7922380 126.5500910 138.0760060
 125.0089160 137.1390040 129.5980030 124.3906430 137.6039490 129.0342750
 125.5212410 137.8317520 130.0149540 119.8720920 136.6665910 136.2763630
 119.5390300 137.2934830 136.9184700 120.0487600 137.1927790 135.4965300
 128.3854830 130.4810990 133.7439970 127.6810400 130.7695880 134.3243080
 128.7466990 131.2911100 133.3839530 118.3033400 128.7380690 136.1060580
 118.6450210 129.5822740 135.8114450 117.3649210 128.8864430 136.2225920
 119.0840020 138.6346710 138.0912810 119.7014020 139.3097790 137.8097260
 118.2233140 139.0434690 138.0000310 114.3772360 137.8246570 126.9719660
 114.0000340 138.3133670 126.2404560 114.6345430 138.4971850 127.6026190
 130.0017610 140.0986120 136.0067450 129.3181130 140.7685230 135.9984120
 130.5411900 140.2966770 135.2412310 131.4541750 129.9265780 134.1349180
 130.5066660 129.9604760 134.2664610 131.7791740 130.7404730 134.5198540
 121.9861290 126.2262960 132.4305170 122.2936270 125.6709850 131.7140670
 121.0561990 126.3607420 132.2478160 127.5376350 141.9430250 134.7212630
 127.5503510 141.5392540 133.8534890 126.9851570 142.7177540 134.6174060
 128.8321770 138.6646470 129.8102800 128.7218100 137.7220800 129.9352220
 128.8290020 139.0262110 130.6965560 126.9361790 136.8460090 136.0495240
 127.3530580 136.6320200 135.2148700 127.6601610 137.1032880 136.6203860
 124.3742050 134.2911790 129.1665290 123.4471330 134.2249170 129.3953760
 124.5266870 135.2291920 129.0520530 124.3611130 130.5628790 126.1632450
 123.4214800 130.7242750 126.2484910 124.6794390 131.2814470 125.6168440
 130.8823890 135.2447310 136.1411480 130.0542520 135.3140400 135.6661610
 131.4774370 135.8301620 135.6727310 128.4039340 135.8532090 129.6700540
 127.7851760 135.5151640 129.0226840 128.3863790 135.2091850 130.3779730
 127.8465900 132.0316630 137.0866350 127.4337080 132.8570340 137.3406340
 127.1141850 131.4461670 136.8942710 119.9798690 134.8176530 131.9485020
 119.5755690 134.1053780 131.4530920 120.0661810 134.4729770 132.8373060
 120.4480390 138.5044090 134.1124230 120.1508680 137.8989560 133.4332010
 121.3980210 138.5421400 134.0013590 118.6927310 131.5919740 135.7284060
 119.2441900 131.7015080 134.9537310 119.2070820 131.9657340 136.4439290
 128.5366000 142.0775960 137.7747330 128.0596560 142.8848150 137.5819940
 127.8527790 141.4254290 137.9273540 119.5398820 138.2425780 140.7632030
 118.6427350 138.4665750 141.0105430 119.5651690 138.3660720 139.8143430
 126.5804040 135.0918900 126.6773290 127.0197320 134.2541330 126.5311110
 127.2932460 135.7248300 126.7637430 118.3670040 135.1139100 139.3389400
 118.2277810 135.9861900 139.7076800 117.4851400 134.7711910 139.1937340
 124.6899420 140.0314970 130.6454530 125.1295330 140.7739300 130.2309920
 124.6286310 140.2741540 131.5693490 120.1650390 141.0560800 141.5474550
 120.1365820 141.4603750 140.6802980 120.0015360 140.1271160 141.3846150
 130.1621180 126.3461710 124.9914330 129.8493840 126.4388540 125.8913400
 130.9233650 126.9242740 124.9411760 116.6803320 133.7121510 129.4491670
 116.5600920 134.4383600 128.8372940 116.3704210 132.9424420 128.9719580
 132.1165210 141.8387900 142.8438720 132.5924930 142.3170790 143.5227800
 132.7372370 141.7705390 142.1184220 114.3188690 136.8836650 135.2560310
 114.3969110 137.0185420 134.3116030 114.9330370 136.1752540 135.4488430
 115.5636320 138.5836840 131.6666490 115.1564400 138.7251430 130.8120090
 116.4549330 138.2997000 131.4637700 131.5198460 139.0300750 140.0038730
 131.6461520 138.7912630 139.0855910 131.5619840 138.1985290 140.4760810
 125.3815200 142.7328750 138.5733540 125.8959870 142.6436760 139.3755970
 124.5384280 143.0788450 138.8661450 127.3569600 143.0184090 128.0017540
 127.1970740 142.7287030 128.8999370 127.1916310 142.2424220 127.4662770
 119.8357980 142.7982620 129.7789160 119.6600460 141.8818160 129.5656960
 118.9813720 143.1569910 130.0186960 127.0595730 140.5271650 126.5615540
 126.3660890 140.5248940 125.9017820 127.8018590 140.1030970 126.1309710
 126.6245660 142.1534360 130.6364030 127.0802610 141.3723740 130.9502650
 126.9638180 142.8641180 131.1805210 131.3722470 131.0833210 140.9688470
 130.7566740 131.5912880 140.4403930 131.0518890 130.1831540 140.9114410
 114.3748210 137.9250820 137.7954770 114.5379250 137.4556180 136.9774140
 114.8400660 137.4174380 138.4603610 119.1466980 127.0556580 132.8315340
 118.7035130 127.8366120 132.4999860 119.7051970 127.3786470 133.5386280
 123.4336790 129.9225100 138.4350660 122.9716160 130.1308120 139.2470600
 123.0314900 129.1084450 138.1321330 128.4341300 131.1434050 139.5647320
 127.5834890 130.8439800 139.8856390 128.2743090 131.3876060 138.6531140
 125.5291010 132.6435800 141.6646110 125.8544420 131.8099550 141.3248340
 126.3171340 133.1664320 141.8124440 122.2625800 126.6767280 127.7121170
 121.6379980 126.6727150 128.4374480 122.1755920 125.8098240 127.3157140
 121.1842880 127.6003910 134.6904940 121.4815210 128.5066740 134.6096960
 121.7328440 127.1122690 134.0764510 118.9381200 132.1790150 130.5596590
 118.7122120 131.9627320 131.4643210 118.1573730 132.6118610 130.2142560
 126.1678960 132.1853520 129.1587240 125.5687850 132.9089320 128.9750860
 126.7158570 132.1230300 128.3763690 121.3780410 133.0775730 141.2256860
 121.2824010 132.1370460 141.0757260 122.2212390 133.2990800 140.8304930
 124.7743830 130.8217060 131.1890520 125.1673400 131.1389260 130.3759210
 125.1360680 129.9428940 131.3035040 116.5090950 129.4889400 139.3790640
 116.1154340 130.3364610 139.5863420 115.8209350 128.8515770 139.5699280
 123.0836000 129.5724370 142.4487380 122.3934320 129.3796570 143.0833470
 123.8268300 129.8559010 142.9811680 113.8108000 127.4117860 133.4120720
 113.5221050 127.9820720 134.1245700 114.5553760 126.9322310 133.7751950
 113.9978230 131.3537980 124.6223440 113.9152900 132.2968740 124.7638430
 113.6461290 131.2112890 123.7435790 125.3598970 133.4122810 135.2841300
 124.6280090 133.9209620 135.6331400 124.9623310 132.5952790 134.9830080
 121.7976360 130.0877010 133.6893790 121.8012420 129.6466960 132.8398330
 122.6927480 130.4094340 133.7965610 117.6478740 129.9703500 132.6488000
 117.3078790 130.4478730 133.4055050 116.8856060 129.5168620 132.2889100
 121.8596510 131.0889090 126.6800550 121.9809330 131.0475570 127.6286370
 121.4745020 131.9513240 126.5247280 125.8224880 128.8656490 134.6964240
 125.8397620 129.3165140 135.5406090 125.5740460 127.9662130 134.9097680
 120.8718010 133.3990230 126.0783850 120.3034910 132.9508480 125.4519760
 121.5807010 133.7583010 125.5449000 129.2495630 126.2788670 140.5350620
 129.5741400 125.5478330 141.0608600 129.2852140 125.9602310 139.6331610
 115.9487190 137.3002250 139.9550580 115.5641980 136.6595920 140.5533540
 116.2599380 138.0038370 140.5245310 122.0984330 134.1478790 135.4359200
 122.4654460 133.6737360 136.1820540 121.9089390 135.0220360 135.7767540
 114.9624820 128.8922480 131.5652670 114.6771740 128.5278150 132.4031290
 114.9003680 128.1602940 130.9515810 119.8883700 133.1887430 137.7543410
 119.5840770 134.0679410 137.9793770 120.8430160 133.2487220 137.7900850
 118.4165490 137.3948420 128.3510260 117.6427750 136.8546040 128.1908980
 119.1460120 136.8755030 128.0128020 129.1753470 136.3913780 134.1436650
 129.8952590 136.8869070 133.7532760 128.9735290 135.7131670 133.4990520
 124.6363410 127.7851740 128.2866040 123.8228020 127.2864910 128.2111350
 124.4425360 128.6249990 127.8702390 124.5572270 136.4622840 140.0305650
 124.4909580 135.5418510 139.7763240 123.9277410 136.5598280 140.7450290
 127.3511800 132.1571390 126.5828200 128.2391420 132.4688620 126.4079540
 127.3216890 131.2843640 126.1908780 118.4602890 137.0628800 131.9889070
 118.9781560 136.2597060 131.9345960 118.0086910 137.0007940 132.8305900
 123.3472390 138.3295080 127.2616370 123.6888090 139.0737310 126.7659690
 122.5185100 138.6426200 127.6241200 115.9447430 134.0290170 138.9014770
 115.5862370 134.6944020 139.4888110 115.6501990 133.1973720 139.2727390
 119.1460550 134.4874410 141.7854320 118.8460690 134.6331590 140.8882140
 119.9171790 133.9279700 141.6927710 124.4889000 139.2843410 139.7809450
 124.5033540 138.3524370 139.5628360 123.7814100 139.3703170 140.4199220
 129.6226070 133.4683230 126.0508060 129.5389790 133.8997450 125.2004500
 130.3420260 133.9281580 126.4834880 130.7000210 135.9250750 139.1278030
 129.9748400 136.5179530 138.9307420 131.2275670 135.9174290 138.3291400
 130.6513320 140.3225490 128.7790190 130.0089480 139.6681110 129.0533910
 130.2643980 140.7280580 128.0030860 126.2299800 137.6510920 132.6261880
 126.5823620 137.0539050 131.9663250 125.3462130 137.3255150 132.7970130
 122.3163080 138.4108610 130.0332290 123.0034210 138.9577820 130.4139880
 121.5295500 138.9549340 130.0681900 114.4555480 134.0281430 125.5249370
 115.3250330 134.3106230 125.8085290 113.9645800 134.8417300 125.4098180
 121.6190290 135.4154640 129.6457650 122.0753070 136.2259890 129.8717840
 121.2678500 135.0977780 130.4776140 123.9222900 140.9260980 136.8749950
 124.5665120 141.1320360 137.5523370 124.2852340 140.1649380 136.4220800
 117.5202070 125.7592290 130.1180170 117.3916700 125.7510190 131.0665090
 116.6964090 126.0975380 129.7671180 125.1954980 138.9293330 135.5927400
 125.8377210 138.2286490 135.7059570 125.7204330 139.7091770 135.4124290
 129.0410700 139.2141950 125.3166540 128.8148280 138.4972390 125.9091180
 128.6506900 138.9654390 124.4788290 126.9692600 139.7288230 138.7963460
 127.3048840 140.3154920 139.4741380 126.0492940 139.5980940 139.0261250
 114.8226730 143.2408810 126.0911000 115.1824370 143.8398150 125.4368270
 114.6819070 143.7868700 126.8646030 114.5196000 127.5183410 139.5786870
 113.8054520 127.7180330 140.1839480 114.9391040 126.7422980 139.9501670
 128.6226950 137.1313890 126.9780700 128.3348650 137.5926580 127.7658580
 129.4179120 136.6711660 127.2464920 114.8068590 141.5063670 140.5653400
 114.9159710 140.5658410 140.4248790 114.1549150 141.7718420 139.9167130
 122.7981180 139.7779560 141.9651520 122.4778050 139.0588800 142.5097210
 122.1239540 140.4534630 142.0387580 120.8395350 140.6240010 126.9084670
 120.8305450 141.3569700 126.2929180 119.9193710 140.3771590 127.0011630
 116.4401990 135.8454900 127.6531430 115.8329940 136.5853800 127.6626730
 116.9151340 135.9354260 126.8269630 126.0134780 130.0105720 137.3288320
 126.3815600 129.1900930 137.6567890 125.1532980 130.0707610 137.7443970
 129.3796810 128.9662660 128.1375880 128.7509970 129.0708330 127.4234110
 128.8848730 129.1859440 128.9269760 123.8254950 140.6868250 125.5709860
 123.9266930 140.4832240 124.6411840 122.9256690 140.4326530 125.7757640
 121.3480840 131.2448610 129.5533760 120.6396990 131.7134950 129.9947370
 121.6325320 130.5870620 130.1878950 122.9736770 132.6645310 137.5526290
 123.4722020 133.1391130 138.2178140 123.1159720 131.7408830 137.7596320
 125.3796270 127.9699270 130.9929550 125.2564050 127.9885400 130.0439060
 126.3280830 128.0178210 131.1127950 122.4673060 143.2054570 130.2657530
 122.7214560 143.1675960 129.3436900 121.5185540 143.0787900 130.2585780
 119.5515860 129.5533690 126.9284470 120.4006390 129.9903840 126.8624660
 119.1847130 129.8653950 127.7556530 130.1803630 128.8813270 138.3954680
 129.6777230 129.6218670 138.7348490 130.9960290 129.2697270 138.0791470
 128.4725640 134.1246450 131.8416040 127.5315780 134.1396680 132.0163730
 128.7869710 133.3382410 132.2876340 118.4507280 135.8066050 125.4020000
 119.2170550 135.6947410 125.9645430 118.5281970 135.1104020 124.7496770
 117.1454040 133.2391120 126.0852890 117.2257630 132.2918630 126.1970290
 118.0373790 133.5698000 126.1913550 130.4751220 141.2955300 133.5170300
 130.5998640 142.1186470 133.9894110 131.3416780 141.0846030 133.1694450
 117.9468750 143.3886510 133.1887430 118.6831230 142.8401970 133.4596000
 118.3309670 144.2542520 133.0493420 114.8314230 139.4560080 129.0628940
 113.9054010 139.6981220 129.0534350 115.2970660 140.2834340 128.9413690
 116.9527030 142.5732580 142.3773010 117.7539760 142.8944630 142.7908410
 116.4378850 142.2128160 143.0992920 121.0571060 142.5616820 125.0113000
 121.8499670 142.8505650 124.5594790 120.5375410 142.1308990 124.3325480
 125.7891660 138.6812450 142.3248420 125.1829820 138.7044050 141.5844170
 125.4845770 137.9495490 142.8615670 127.2192030 142.4092740 140.9357830
 128.1713780 142.3250760 140.8858070 127.0720250 143.0734450 141.6091620
 130.1101230 141.7886950 126.4349740 129.8242740 141.3752090 125.6203920
 129.9120780 142.7174660 126.3150260 114.6724840 135.0606040 141.3209060
 115.1763860 134.4813320 141.8925290 113.9332260 135.3446270 141.8585430
 121.5748460 137.7820230 124.8755350 121.4699100 137.1672580 125.6016730
 121.4072680 137.2586120 124.0918360 121.7262780 136.4677030 140.8544580
 120.9608450 137.0362030 140.7699250 121.9078740 136.1753240 139.9612810
 124.8151190 136.8440260 125.4797340 124.2661290 137.2909560 126.1240080
 125.4370450 136.3389510 126.0035010 128.8686130 138.1982360 141.4119600
 129.6095600 138.5358120 140.9087060 128.1058810 138.3674420 140.8589370
 116.7047920 133.2035630 142.2159130 116.7453260 132.9049500 143.1244360
 117.5593420 133.6043240 142.0566650 120.4826310 135.8031180 127.3762640
 120.9042730 135.6371050 128.2194030 120.6077150 134.9931410 126.8817780
 118.6453730 131.7827730 140.1833620 118.1150190 131.2918680 139.5556960
 119.3141800 132.2111930 139.6491550 122.9953950 134.8268790 124.6239740
 123.5159610 134.1117810 124.2580890 123.6422350 135.4654660 124.9240250
 127.5431790 136.2497190 139.9474810 127.9572810 136.4042270 140.7965230
 126.6082790 136.3752410 140.1100590 128.0153960 133.5893350 141.9513960
 128.5974730 132.8345670 141.8634440 128.1915730 134.1200790 141.1745440
 119.1326030 128.7490100 140.2630910 119.0382900 128.1310850 139.5381780
 118.5523420 129.4756390 140.0360820 121.8987470 127.3063340 137.2958300
 121.4504770 127.3287600 136.4503850 121.2652670 126.9082360 137.8928600
 122.3047020 136.2017670 137.9170740 122.7235130 137.0450400 137.7446980
 121.3855650 136.3389710 137.6877520 124.6410920 133.9333850 139.3008580
 124.7607130 133.3374990 140.0403420 125.5004920 133.9703540 138.8809880
 126.9798820 134.4871040 137.8771090 126.4534040 135.0113660 137.2736230
 127.3230160 135.1198430 138.5080820 119.3785210 131.8764410 124.3220800
 119.1774270 131.0131770 124.6834140 119.2077260 131.7897770 123.3842400
 120.1554440 142.5070680 139.0328470 119.6175530 143.2316740 138.7137170
 120.4088400 142.0301020 138.2425810 121.4079690 130.4755200 140.5584400
 121.9979380 130.1671050 141.2462220 120.5899930 130.0034950 140.7144300
 126.2273120 130.0921010 140.7917420 125.5388640 129.4302550 140.7267410
 126.9479140 129.6459280 141.2365880 126.8573520 126.6872640 126.8507680
 127.1375810 125.8440540 127.2067100 126.0839250 126.9195750 127.3646430
 118.1768010 128.9765030 124.3098680 118.4793910 128.9832460 123.4017830
 118.9162600 128.6262890 124.8066340 123.0116650 143.7421890 139.2915120
 122.9375350 144.6457030 139.5987490 122.1095490 143.4233790 139.2637190
 121.3952940 127.9199650 125.2954880 121.0474940 127.2423640 124.7157330
 121.5965710 127.4589160 126.1098270 123.5601980 142.9080400 126.9141480
 124.4552770 143.2465370 126.9360240 123.5919610 142.1859810 126.2865760
 117.1998140 138.2807450 125.1428480 117.6373010 138.8237120 125.7986060
 117.6845870 137.4554400 125.1524820 114.4143940 141.0696480 132.5948740
 114.7446950 140.2017540 132.3627380 114.8434940 141.2755000 133.4253700
 119.0105860 139.4005490 130.2550710 118.7101400 139.2770460 131.1554620
 118.9043350 138.5414080 129.8466440 114.9034150 141.9367070 135.3330370
 114.4665140 142.1167870 136.1654520 115.4711830 142.6941690 135.1912090
 130.5396330 141.4384070 139.6207680 129.9398320 141.4976630 138.8771600
 130.6690230 140.4989050 139.7504530 131.7797780 139.1801890 124.9577390
 130.9490740 139.2478540 125.4284620 131.9569610 140.0706010 124.6544250
 131.2354240 135.9249370 127.4611590 131.9973150 136.4946020 127.5671280
 131.2508610 135.3576570 128.2319900 114.7358580 134.4487300 131.6919250
 114.0807420 134.1798940 131.0478950 115.5736530 134.3391780 131.2421230
 132.2414210 136.7799470 132.3053520 132.6123040 135.9966790 131.8989490
 132.8816140 137.4688570 132.1270820 129.2247970 138.1636050 137.7183840
 128.4107810 138.5933210 137.9809630 129.6322170 138.7754460 137.1052890
 131.2873410 136.2183740 124.6184110 131.5622250 137.1262620 124.4903330
 131.0984150 136.1546270 125.5546100 127.6849020 129.2428590 125.9137740
 128.1033900 129.0559570 125.0734400 127.3785080 128.3907640 126.2240670
 131.1838750 134.1552730 129.6113540 130.8082350 133.3880660 129.1794830
 130.4541870 134.5375430 130.0988470 115.7734510 134.8339870 136.2322590
 116.1407550 134.7467270 137.1118610 115.2045330 134.0706420 136.1329450
 130.5738370 133.3024250 139.2453060 130.3424460 133.0737000 138.3451010
 130.8342920 134.2223800 139.1997950 115.3250510 131.7448960 140.1381010
 114.4306560 131.7115720 140.4774720 115.8648060 131.9435750 140.9032260
 129.0126440 128.5280680 142.0232760 129.8896620 128.5364080 142.4066760
 129.0247280 127.7911520 141.4125110 113.9496660 131.6586230 127.6344580
 113.0460740 131.9216430 127.4596240 114.4337280 131.9297400 126.8544540
 130.4589710 132.3810220 132.9120780 130.9827190 131.8872870 132.2810950
 131.0449130 132.5160580 133.6568350 130.6379430 132.4650090 136.4340330
 129.6882140 132.4313630 136.5485320 130.8192440 133.3750200 136.1990100
 116.4923870 130.7151770 125.5438960 117.2015570 130.2934990 125.0586240
 115.7763810 130.7827000 124.9122310 116.1398030 126.7691100 124.5841610
 116.8626160 127.3100040 124.9022830 116.4122550 126.4954520 123.7083150
 129.9489680 131.6383570 128.8513190 130.4448800 131.4054440 129.6362070
 129.7505750 130.7995410 128.4350830 115.8290220 126.0197290 134.4864230
 116.4766410 125.4694670 134.0459390 116.2492060 126.2740440 135.3080040
 131.3776840 130.2744520 131.3850870 131.2676120 130.1200560 132.3233140
 132.1384430 129.7465460 131.1426280 129.7242560 126.2138650 137.8433870
 130.3614780 126.8272790 138.2093060 129.8717450 126.2499310 136.8983100
 132.2667110 128.1052440 124.6257010 133.1916420 127.9733620 124.4175300
 132.2442900 128.1845260 125.5793460 132.3405600 128.8763100 127.2513720
 131.5457100 128.8108220 127.7806630 132.5448880 129.8113740 127.2399070
 129.2824020 142.9154650 131.2452110 129.8783090 142.5939220 130.5686530
 129.5402170 142.4426470 132.0365380 115.5822220 126.1752960 137.2289550
 115.2337040 126.6316780 137.9947730 115.2509920 125.2810090 137.3111980
 117.1886590 139.3472560 141.3942740 117.1456220 138.9765470 142.2757200
 117.3197600 140.2850130 141.5344560 120.8892620 140.9032150 136.9952460
 120.6483980 141.1706710 136.1082980 121.8295260 141.0737880 137.0503320
 123.0947040 127.3664840 140.7508970 123.0335930 127.9586670 141.5004380
 124.0347420 127.2590800 140.6059230 125.7321600 127.0234900 140.3901260
 126.3462010 127.3414190 139.7282340 126.2771160 126.5383490 141.0097120
 132.1496780 142.9226530 137.7963100 131.6555060 143.3195400 137.0790230
 131.5410070 142.2975740 138.1900380 116.2542860 125.7029160 140.5040320
 116.8025850 125.5217210 139.7406430 116.3198170 124.9123270 141.0396630
 117.0274620 142.2934810 138.5140520 116.4334940 142.1619510 139.2530560
 117.0198460 141.4572950 138.0482620 126.4729640 125.5867040 136.7170550
 125.5989480 125.9202150 136.5143480 126.3640390 125.1140220 137.5422420
 127.3801620 127.7937910 138.1012270 127.0514980 126.9789670 137.7214000
 128.3283920 127.7507720 137.9777960 129.8336230 143.5649950 135.0749840
 129.3739200 144.3165760 134.7007860 129.2048690 142.8456420 135.0164640
 116.6586850 139.6593190 137.4648560 115.9320910 139.0398480 137.3974510
 116.7196000 140.0533800 136.5946640 120.2631950 141.8738190 134.2497970
 120.7796970 141.2625550 133.7246230 120.9129330 142.3766970 134.7408980
 123.0027450 142.7646680 135.0766950 123.2905260 142.5100980 134.1999960
 123.5150670 142.2124040 135.6672520 124.2204460 126.5036880 135.6563460
 123.4376250 126.9782380 135.9360220 123.9267390 125.5991710 135.5476640
 128.7725530 127.2059980 133.7012550 129.2133620 127.1505080 132.8534150
 128.5033120 128.1217990 133.7722730 130.6364100 126.8375220 131.7121370
 130.5752500 125.8936440 131.5652390 131.4156130 126.9455310 132.2574830
 114.9416850 142.9767580 130.6745320 114.7738890 142.3438260 131.3727210
 114.0751360 143.1826980 130.3239510 115.5644870 126.8084360 128.1777180
 116.3224230 126.9213240 127.6041210 115.1022040 127.6453560 128.1320610
 122.1058680 128.9223630 131.1679490 121.2933190 128.5480520 130.8275370
 122.6100320 128.1668710 131.4700680 126.6083660 125.5866080 132.4062560
 127.2113030 126.1586290 132.8811080 125.8676650 126.1505520 132.1836460
 129.7518260 125.9887640 127.6802840 129.9468890 126.8871090 127.9470270
 128.9648130 125.7574720 128.1735790 116.5479550 141.6700810 128.1195460
 116.0227170 142.0508840 127.4157420 116.4724130 142.2951580 128.8405170
 117.9370020 127.3348410 126.7179150 118.4662780 126.5478210 126.5887100
 118.5698340 128.0139600 126.9514680 120.1307860 127.0723550 129.7724540
 119.5010600 126.3710860 129.9394670 119.5913000 127.8327680 129.5557700
 123.0699810 143.6862780 142.4435150 123.9967120 143.4507050 142.4871110
 123.0550240 144.5134780 141.9621180 131.3044870 143.2288350 129.4409400
 131.4797060 142.5426090 128.7970320 130.6066440 143.7535400 129.0486070
 120.2563420 126.3507530 142.2077030 119.9747690 126.8541130 141.4437850
 120.6383120 125.5529280 141.8419160 119.1472520 143.6183190 126.9944710
 119.8791340 143.3342470 126.4468600 119.4066190 143.3796470 127.8844090
 118.3087310 139.7347920 126.9991040 117.6796190 140.2033020 127.5476870
 118.4235140 138.8897140 127.4337230 126.8578880 125.7661110 142.7857500
 126.7444330 126.0855720 143.6809020 127.6748620 126.1673620 142.4894780
 129.6377370 142.9132640 142.2676190 130.4302690 142.4181870 142.0602150
 129.9310520 143.5922780 142.8751800 125.7637030 133.7853580 113.1492240
 125.6831080 132.8708190 112.8783950 125.3501450 134.2820650 112.4431950
 123.8955070 135.5632600 115.0301510 123.1197170 135.0833040 115.3200080
 124.5468000 134.8838250 114.8557670 117.9120900 135.8752410 115.9077270
 117.0805780 135.6201120 116.3073780 118.5201880 135.9463180 116.6435190
 127.9162500 139.9692790 113.8100640 127.4544030 139.1980030 114.1387810
 128.7288050 139.9958860 114.3153090 117.8922160 139.9092500 116.1035290
 118.1950200 139.0190240 115.9245510 118.6365750 140.4662720 115.8757540
 116.3212850 130.8354300 109.6919660 115.4329550 131.1770270 109.5899540
 116.6054040 130.6354620 108.8000490 114.2845860 133.4359950 115.5759360
 114.8561970 132.6682150 115.5763000 114.2847400 133.7348710 114.6665970
 124.1425810 142.2550800 113.4304630 123.5237250 142.7108300 112.8599070
 124.9977590 142.4102260 113.0294330 123.3364060 138.2389790 115.0371670
 123.2672340 137.2979730 114.8760800 124.0983920 138.3291200 115.6094240
 115.5270730 128.8444310 117.3628290 115.3473570 127.9470060 117.6431050
 115.1250810 129.3916180 118.0375240 124.3669230 131.0460170 115.2640600
 124.7434050 130.1732050 115.1514270 124.2688740 131.3818870 114.3731040
 118.4974240 129.4185800 110.7258040 118.6040990 130.3189530 111.0326800
 117.5866600 129.3703770 110.4352690 128.1493350 128.5410610 112.1968940
 128.9702970 128.0507180 112.2394420 128.1827430 129.1308270 112.9500780
 116.1457400 131.3404810 115.9710630 116.8267510 131.6043180 116.5898030
 115.8305450 130.5005680 116.3048640 120.3381970 132.3872170 115.0583220
 120.8460190 132.8853140 115.6988240 120.8695210 131.6107370 114.8822580
 132.4392900 130.5577360 118.7612570 131.7345070 130.9459070 118.2427680
 132.7050820 131.2527650 119.3633500 118.6218070 127.0270730 119.3246640
 118.6236510 127.5443120 118.5192540 117.7922380 126.5500910 119.3016570
 125.0089160 137.1390040 110.8236540 124.3906430 137.6039490 110.2599260
 125.5212410 137.8317520 111.2406050 119.8720920 136.6665910 117.5020140
 119.5390300 137.2934830 118.1441210 120.0487600 137.1927790 116.7221810
 128.3854830 130.4810990 114.9696480 127.6810400 130.7695880 115.5499590
 128.7466990 131.2911100 114.6096040 118.3033400 128.7380690 117.3317090
 118.6450210 129.5822740 117.0370960 117.3649210 128.8864430 117.4482430
 119.0840020 138.6346710 119.3169320 119.7014020 139.3097790 119.0353770
 118.2233140 139.0434690 119.2256820 114.3772360 137.8246570 108.1976170
 114.0000340 138.3133670 107.4661070 114.6345430 138.4971850 108.8282700
 130.0017610 140.0986120 117.2323960 129.3181130 140.7685230 117.2240630
 130.5411900 140.2966770 116.4668820 131.4541750 129.9265780 115.3605690
 130.5066660 129.9604760 115.4921120 131.7791740 130.7404730 115.7455050
 121.9861290 126.2262960 113.6561680 122.2936270 125.6709850 112.9397180
 121.0561990 126.3607420 113.4734670 127.5376350 141.9430250 115.9469140
 127.5503510 141.5392540 115.0791400 126.9851570 142.7177540 115.8430570
 128.8321770 138.6646470 111.0359310 128.7218100 137.7220800 111.1608730
 128.8290020 139.0262110 111.9222070 126.9361790 136.8460090 117.2751750
 127.3530580 136.6320200 116.4405210 127.6601610 137.1032880 117.8460370
 124.3742050 134.2911790 110.3921800 123.4471330 134.2249170 110.6210270
 124.5266870 135.2291920 110.2777040 124.3611130 130.5628790 107.3888960
 123.4214800 130.7242750 107.4741420 124.6794390 131.2814470 106.8424950
 130.8823890 135.2447310 117.3667990 130.0542520 135.3140400 116.8918120
 131.4774370 135.8301620 116.8983820 128.4039340 135.8532090 110.8957050
 127.7851760 135.5151640 110.2483350 128.3863790 135.2091850 111.6036240
 127.8465900 132.0316630 118.3122860 127.4337080 132.8570340 118.5662850
 127.1141850 131.4461670 118.1199220 119.9798690 134.8176530 113.1741530
 119.5755690 134.1053780 112.6787430 120.0661810 134.4729770 114.0629570
 120.4480390 138.5044090 115.3380740 120.1508680 137.8989560 114.6588520
 121.3980210 138.5421400 115.2270100 118.6927310 131.5919740 116.9540570
 119.2441900 131.7015080 116.1793820 119.2070820 131.9657340 117.6695800
 128.5366000 142.0775960 119.0003840 128.0596560 142.8848150 118.8076450
 127.8527790 141.4254290 119.1530050 119.5398820 138.2425780 121.9888540
 118.6427350 138.4665750 122.2361940 119.5651690 138.3660720 121.0399940
 126.5804040 135.0918900 107.9029800 127.0197320 134.2541330 107.7567620
 127.2932460 135.7248300 107.9893940 118.3670040 135.1139100 120.5645910
 118.2277810 135.9861900 120.9333310 117.4851400 134.7711910 120.4193850
 124.6899420 140.0314970 111.8711040 125.1295330 140.7739300 111.4566430
 124.6286310 140.2741540 112.7950000 120.1650390 141.0560800 122.7731060
 120.1365820 141.4603750 121.9059490 120.0015360 140.1271160 122.6102660
 130.1621180 126.3461710 106.2170840 129.8493840 126.4388540 107.1169910
 130.9233650 126.9242740 106.1668270 116.6803320 133.7121510 110.6748180
 116.5600920 134.4383600 110.0629450 116.3704210 132.9424420 110.1976090
 132.1165210 141.8387900 124.0695230 132.5924930 142.3170790 124.7484310
 132.7372370 141.7705390 123.3440730 114.3188690 136.8836650 116.4816820
 114.3969110 137.0185420 115.5372540 114.9330370 136.1752540 116.6744940
 115.5636320 138.5836840 112.8923000 115.1564400 138.7251430 112.0376600
 116.4549330 138.2997000 112.6894210 131.5198460 139.0300750 121.2295240
 131.6461520 138.7912630 120.3112420 131.5619840 138.1985290 121.7017320
 125.3815200 142.7328750 119.7990050 125.8959870 142.6436760 120.6012480
 124.5384280 143.0788450 120.0917960 127.3569600 143.0184090 109.2274050
 127.1970740 142.7287030 110.1255880 127.1916310 142.2424220 108.6919280
 119.8357980 142.7982620 111.0045670 119.6600460 141.8818160 110.7913470
 118.9813720 143.1569910 111.2443470 127.0595730 140.5271650 107.7872050
 126.3660890 140.5248940 107.1274330 127.8018590 140.1030970 107.3566220
 126.6245660 142.1534360 111.8620540 127.0802610 141.3723740 112.1759160
 126.9638180 142.8641180 112.4061720 131.3722470 131.0833210 122.1944980
 130.7566740 131.5912880 121.6660440 131.0518890 130.1831540 122.1370920
 114.3748210 137.9250820 119.0211280 114.5379250 137.4556180 118.2030650
 114.8400660 137.4174380 119.6860120 119.1466980 127.0556580 114.0571850
 118.7035130 127.8366120 113.7256370 119.7051970 127.3786470 114.7642790
 123.4336790 129.9225100 119.6607170 122.9716160 130.1308120 120.4727110
 123.0314900 129.1084450 119.3577840 128.4341300 131.1434050 120.7903830
 127.5834890 130.8439800 121.1112900 128.2743090 131.3876060 119.8787650
 125.5291010 132.6435800 122.8902620 125.8544420 131.8099550 122.5504850
 126.3171340 133.1664320 123.0380950 122.2625800 126.6767280 108.9377680
 121.6379980 126.6727150 109.6630990 122.1755920 125.8098240 108.5413650
 121.1842880 127.6003910 115.9161450 121.4815210 128.5066740 115.8353470
 121.7328440 127.1122690 115.3021020 118.9381200 132.1790150 111.7853100
 118.7122120 131.9627320 112.6899720 118.1573730 132.6118610 111.4399070
 126.1678960 132.1853520 110.3843750 125.5687850 132.9089320 110.2007370
 126.7158570 132.1230300 109.6020200 121.3780410 133.0775730 122.4513370
 121.2824010 132.1370460 122.3013770 122.2212390 133.2990800 122.0561440
 124.7743830 130.8217060 112.4147030 125.1673400 131.1389260 111.6015720
 125.1360680 129.9428940 112.5291550 116.5090950 129.4889400 120.6047150
 116.1154340 130.3364610 120.8119930 115.8209350 128.8515770 120.7955790
 123.0836000 129.5724370 123.6743890 122.3934320 129.3796570 124.3089980
 123.8268300 129.8559010 124.2068190 113.8108000 127.4117860 114.6377230
 113.5221050 127.9820720 115.3502210 114.5553760 126.9322310 115.0008460
 113.9978230 131.3537980 105.8479950 113.9152900 132.2968740 105.9894940
 113.6461290 131.2112890 104.9692300 125.3598970 133.4122810 116.5097810
 124.6280090 133.9209620 116.8587910 124.9623310 132.5952790 116.2086590
 121.7976360 130.0877010 114.9150300 121.8012420 129.6466960 114.0654840
 122.6927480 130.4094340 115.0222120 117.6478740 129.9703500 113.8744510
 117.3078790 130.4478730 114.6311560 116.8856060 129.5168620 113.5145610
 121.8596510 131.0889090 107.9057060 121.9809330 131.0475570 108.8542880
 121.4745020 131.9513240 107.7503790 125.8224880 128.8656490 115.9220750
 125.8397620 129.3165140 116.7662600 125.5740460 127.9662130 116.1354190
 120.8718010 133.3990230 107.3040360 120.3034910 132.9508480 106.6776270
 121.5807010 133.7583010 106.7705510 129.2495630 126.2788670 121.7607130
 129.5741400 125.5478330 122.2865110 129.2852140 125.9602310 120.8588120
 115.9487190 137.3002250 121.1807090 115.5641980 136.6595920 121.7790050
 116.2599380 138.0038370 121.7501820 122.0984330 134.1478790 116.6615710
 122.4654460 133.6737360 117.4077050 121.9089390 135.0220360 117.0024050
 114.9624820 128.8922480 112.7909180 114.6771740 128.5278150 113.6287800
 114.9003680 128.1602940 112.1772320 119.8883700 133.1887430 118.9799920
 119.5840770 134.0679410 119.2050280 120.8430160 133.2487220 119.0157360
 118.4165490 137.3948420 109.5766770 117.6427750 136.8546040 109.4165490
 119.1460120 136.8755030 109.2384530 129.1753470 136.3913780 115.3693160
 129.8952590 136.8869070 114.9789270 128.9735290 135.7131670 114.7247030
 124.6363410 127.7851740 109.5122550 123.8228020 127.2864910 109.4367860
 124.4425360 128.6249990 109.0958900 124.5572270 136.4622840 121.2562160
 124.4909580 135.5418510 121.0019750 123.9277410 136.5598280 121.9706800
 127.3511800 132.1571390 107.8084710 128.2391420 132.4688620 107.6336050
 127.3216890 131.2843640 107.4165290 118.4602890 137.0628800 113.2145580
 118.9781560 136.2597060 113.1602470 118.0086910 137.0007940 114.0562410
 123.3472390 138.3295080 108.4872880 123.6888090 139.0737310 107.9916200
 122.5185100 138.6426200 108.8497710 115.9447430 134.0290170 120.1271280
 115.5862370 134.6944020 120.7144620 115.6501990 133.1973720 120.4983900
 119.1460550 134.4874410 123.0110830 118.8460690 134.6331590 122.1138650
 119.9171790 133.9279700 122.9184220 124.4889000 139.2843410 121.0065960
 124.5033540 138.3524370 120.7884870 123.7814100 139.3703170 121.6455730
 129.6226070 133.4683230 107.2764570 129.5389790 133.8997450 106.4261010
 130.3420260 133.9281580 107.7091390 130.7000210 135.9250750 120.3534540
 129.9748400 136.5179530 120.1563930 131.2275670 135.9174290 119.5547910
 130.6513320 140.3225490 110.0046700 130.0089480 139.6681110 110.2790420
 130.2643980 140.7280580 109.2287370 126.2299800 137.6510920 113.8518390
 126.5823620 137.0539050 113.1919760 125.3462130 137.3255150 114.0226640
 122.3163080 138.4108610 111.2588800 123.0034210 138.9577820 111.6396390
 121.5295500 138.9549340 111.2938410 114.4555480 134.0281430 106.7505880
 115.3250330 134.3106230 107.0341800 113.9645800 134.8417300 106.6354690
 121.6190290 135.4154640 110.8714160 122.0753070 136.2259890 111.0974350
 121.2678500 135.0977780 111.7032650 123.9222900 140.9260980 118.1006460
 124.5665120 141.1320360 118.7779880 124.2852340 140.1649380 117.6477310
 117.5202070 125.7592290 111.3436680 117.3916700 125.7510190 112.2921600
 116.6964090 126.0975380 110.9927690 125.1954980 138.9293330 116.8183910
 125.8377210 138.2286490 116.9316080 125.7204330 139.7091770 116.6380800
 129.0410700 139.2141950 106.5423050 128.8148280 138.4972390 107.1347690
 128.6506900 138.9654390 105.7044800 126.9692600 139.7288230 120.0219970
 127.3048840 140.3154920 120.6997890 126.0492940 139.5980940 120.2517760
 114.8226730 143.2408810 107.3167510 115.1824370 143.8398150 106.6624780
 114.6819070 143.7868700 108.0902540 114.5196000 127.5183410 120.8043380
 113.8054520 127.7180330 121.4095990 114.9391040 126.7422980 121.1758180
 128.6226950 137.1313890 108.2037210 128.3348650 137.5926580 108.9915090
 129.4179120 136.6711660 108.4721430 114.8068590 141.5063670 121.7909910
 114.9159710 140.5658410 121.6505300 114.1549150 141.7718420 121.1423640
 122.7981180 139.7779560 123.1908030 122.4778050 139.0588800 123.7353720
 122.1239540 140.4534630 123.2644090 120.8395350 140.6240010 108.1341180
 120.8305450 141.3569700 107.5185690 119.9193710 140.3771590 108.2268140
 116.4401990 135.8454900 108.8787940 115.8329940 136.5853800 108.8883240
 116.9151340 135.9354260 108.0526140 126.0134780 130.0105720 118.5544830
 126.3815600 129.1900930 118.8824400 125.1532980 130.0707610 118.9700480
 129.3796810 128.9662660 109.3632390 128.7509970 129.0708330 108.6490620
 128.8848730 129.1859440 110.1526270 123.8254950 140.6868250 106.7966370
 123.9266930 140.4832240 105.8668350 122.9256690 140.4326530 107.0014150
 121.3480840 131.2448610 110.7790270 120.6396990 131.7134950 111.2203880
 121.6325320 130.5870620 111.4135460 122.9736770 132.6645310 118.7782800
 123.4722020 133.1391130 119.4434650 123.1159720 131.7408830 118.9852830
 125.3796270 127.9699270 112.2186060 125.2564050 127.9885400 111.2695570
 126.3280830 128.0178210 112.3384460 122.4673060 143.2054570 111.4914040
 122.7214560 143.1675960 110.5693410 121.5185540 143.0787900 111.4842290
 119.5515860 129.5533690 108.1540980 120.4006390 129.9903840 108.0881170
 119.1847130 129.8653950 108.9813040 130.1803630 128.8813270 119.6211190
 129.6777230 129.6218670 119.9605000 130.9960290 129.2697270 119.3047980
 128.4725640 134.1246450 113.0672550 127.5315780 134.1396680 113.2420240
 128.7869710 133.3382410 113.5132850 118.4507280 135.8066050 106.6276510
 119.2170550 135.6947410 107.1901940 118.5281970 135.1104020 105.9753280
 117.1454040 133.2391120 107.3109400 117.2257630 132.2918630 107.4226800
 118.0373790 133.5698000 107.4170060 130.4751220 141.2955300 114.7426810
 130.5998640 142.1186470 115.2150620 131.3416780 141.0846030 114.3950960
 117.9468750 143.3886510 114.4143940 118.6831230 142.8401970 114.6852510
 118.3309670 144.2542520 114.2749930 114.8314230 139.4560080 110.2885450
 113.9054010 139.6981220 110.2790860 115.2970660 140.2834340 110.1670200
 116.9527030 142.5732580 123.6029520 117.7539760 142.8944630 124.0164920
 116.4378850 142.2128160 124.3249430 121.0571060 142.5616820 106.2369510
 121.8499670 142.8505650 105.7851300 120.5375410 142.1308990 105.5581990
 125.7891660 138.6812450 123.5504930 125.1829820 138.7044050 122.8100680
 125.4845770 137.9495490 124.0872180 127.2192030 142.4092740 122.1614340
 128.1713780 142.3250760 122.1114580 127.0720250 143.0734450 122.8348130
 130.1101230 141.7886950 107.6606250 129.8242740 141.3752090 106.8460430
 129.9120780 142.7174660 107.5406770 114.6724840 135.0606040 122.5465570
 115.1763860 134.4813320 123.1181800 113.9332260 135.3446270 123.0841940
 121.5748460 137.7820230 106.1011860 121.4699100 137.1672580 106.8273240
 121.4072680 137.2586120 105.3174870 121.7262780 136.4677030 122.0801090
 120.9608450 137.0362030 121.9955760 121.9078740 136.1753240 121.1869320
 124.8151190 136.8440260 106.7053850 124.2661290 137.2909560 107.3496590
 125.4370450 136.3389510 107.2291520 128.8686130 138.1982360 122.6376110
 129.6095600 138.5358120 122.1343570 128.1058810 138.3674420 122.0845880
 116.7047920 133.2035630 123.4415640 116.7453260 132.9049500 124.3500870
 117.5593420 133.6043240 123.2823160 120.4826310 135.8031180 108.6019150
 120.9042730 135.6371050 109.4450540 120.6077150 134.9931410 108.1074290
 118.6453730 131.7827730 121.4090130 118.1150190 131.2918680 120.7813470
 119.3141800 132.2111930 120.8748060 122.9953950 134.8268790 105.8496250
 123.5159610 134.1117810 105.4837400 123.6422350 135.4654660 106.1496760
 127.5431790 136.2497190 121.1731320 127.9572810 136.4042270 122.0221740
 126.6082790 136.3752410 121.3357100 128.0153960 133.5893350 123.1770470
 128.5974730 132.8345670 123.0890950 128.1915730 134.1200790 122.4001950
 119.1326030 128.7490100 121.4887420 119.0382900 128.1310850 120.7638290
 118.5523420 129.4756390 121.2617330 121.8987470 127.3063340 118.5214810
 121.4504770 127.3287600 117.6760360 121.2652670 126.9082360 119.1185110
 122.3047020 136.2017670 119.1427250 122.7235130 137.0450400 118.9703490
 121.3855650 136.3389710 118.9134030 124.6410920 133.9333850 120.5265090
 124.7607130 133.3374990 121.2659930 125.5004920 133.9703540 120.1066390
 126.9798820 134.4871040 119.1027600 126.4534040 135.0113660 118.4992740
 127.3230160 135.1198430 119.7337330 119.3785210 131.8764410 105.5477310
 119.1774270 131.0131770 105.9090650 119.2077260 131.7897770 104.6098910
 120.1554440 142.5070680 120.2584980 119.6175530 143.2316740 119.9393680
 120.4088400 142.0301020 119.4682320 121.4079690 130.4755200 121.7840910
 121.9979380 130.1671050 122.4718730 120.5899930 130.0034950 121.9400810
 126.2273120 130.0921010 122.0173930 125.5388640 129.4302550 121.9523920
 126.9479140 129.6459280 122.4622390 126.8573520 126.6872640 108.0764190
 127.1375810 125.8440540 108.4323610 126.0839250 126.9195750 108.5902940
 118.1768010 128.9765030 105.5355190 118.4793910 128.9832460 104.6274340
 118.9162600 128.6262890 106.0322850 123.0116650 143.7421890 120.5171630
 122.9375350 144.6457030 120.8244000 122.1095490 143.4233790 120.4893700
 121.3952940 127.9199650 106.5211390 121.0474940 127.2423640 105.9413840
 121.5965710 127.4589160 107.3354780 123.5601980 142.9080400 108.1397990
 124.4552770 143.2465370 108.1616750 123.5919610 142.1859810 107.5122270
 117.1998140 138.2807450 106.3684990 117.6373010 138.8237120 107.0242570
 117.6845870 137.4554400 106.3781330 114.4143940 141.0696480 113.8205250
 114.7446950 140.2017540 113.5883890 114.8434940 141.2755000 114.6510210
 119.0105860 139.4005490 111.4807220 118.7101400 139.2770460 112.3811130
 118.9043350 138.5414080 111.0722950 114.9034150 141.9367070 116.5586880
 114.4665140 142.1167870 117.3911030 115.4711830 142.6941690 116.4168600
 130.5396330 141.4384070 120.8464190 129.9398320 141.4976630 120.1028110
 130.6690230 140.4989050 120.9761040 131.7797780 139.1801890 106.1833900
 130.9490740 139.2478540 106.6541130 131.9569610 140.0706010 105.8800760
 131.2354240 135.9249370 108.6868100 131.9973150 136.4946020 108.7927790
 131.2508610 135.3576570 109.4576410 114.7358580 134.4487300 112.9175760
 114.0807420 134.1798940 112.2735460 115.5736530 134.3391780 112.4677740
 132.2414210 136.7799470 113.5310030 132.6123040 135.9966790 113.1246000
 132.8816140 137.4688570 113.3527330 129.2247970 138.1636050 118.9440350
 128.4107810 138.5933210 119.2066140 129.6322170 138.7754460 118.3309400
 131.2873410 136.2183740 105.8440620 131.5622250 137.1262620 105.7159840
 131.0984150 136.1546270 106.7802610 127.6849020 129.2428590 107.1394250
 128.1033900 129.0559570 106.2990910 127.3785080 128.3907640 107.4497180
 131.1838750 134.1552730 110.8370050 130.8082350 133.3880660 110.4051340
 130.4541870 134.5375430 111.3244980 115.7734510 134.8339870 117.4579100
 116.1407550 134.7467270 118.3375120 115.2045330 134.0706420 117.3585960
 130.5738370 133.3024250 120.4709570 130.3424460 133.0737000 119.5707520
 130.8342920 134.2223800 120.4254460 115.3250510 131.7448960 121.3637520
 114.4306560 131.7115720 121.7031230 115.8648060 131.9435750 122.1288770
 129.0126440 128.5280680 123.2489270 129.8896620 128.5364080 123.6323270
 129.0247280 127.7911520 122.6381620 113.9496660 131.6586230 108.8601090
 113.0460740 131.9216430 108.6852750 114.4337280 131.9297400 108.0801050
 130.4589710 132.3810220 114.1377290 130.9827190 131.8872870 113.5067460
 131.0449130 132.5160580 114.8824860 130.6379430 132.4650090 117.6596840
 129.6882140 132.4313630 117.7741830 130.8192440 133.3750200 117.4246610
 116.4923870 130.7151770 106.7695470 117.2015570 130.2934990 106.2842750
 115.7763810 130.7827000 106.1378820 116.1398030 126.7691100 105.8098120
 116.8626160 127.3100040 106.1279340 116.4122550 126.4954520 104.9339660
 129.9489680 131.6383570 110.0769700 130.4448800 131.4054440 110.8618580
 129.7505750 130.7995410 109.6607340 115.8290220 126.0197290 115.7120740
 116.4766410 125.4694670 115.2715900 116.2492060 126.2740440 116.5336550
 131.3776840 130.2744520 112.6107380 131.2676120 130.1200560 113.5489650
 132.1384430 129.7465460 112.3682790 129.7242560 126.2138650 119.0690380
 130.3614780 126.8272790 119.4349570 129.8717450 126.2499310 118.1239610
 132.2667110 128.1052440 105.8513520 133.1916420 127.9733620 105.6431810
 132.2442900 128.1845260 106.8049970 132.3405600 128.8763100 108.4770230
 131.5457100 128.8108220 109.0063140 132.5448880 129.8113740 108.4655580
 129.2824020 142.9154650 112.4708620 129.8783090 142.5939220 111.7943040
 129.5402170 142.4426470 113.2621890 115.5822220 126.1752960 118.4546060
 115.2337040 126.6316780 119.2204240 115.2509920 125.2810090 118.5368490
 117.1886590 139.3472560 122.6199250 117.1456220 138.9765470 123.5013710
 117.3197600 140.2850130 122.7601070 120.8892620 140.9032150 118.2208970
 120.6483980 141.1706710 117.3339490 121.8295260 141.0737880 118.2759830
 123.0947040 127.3664840 121.9765480 123.0335930 127.9586670 122.7260890
 124.0347420 127.2590800 121.8315740 125.7321600 127.0234900 121.6157770
 126.3462010 127.3414190 120.9538850 126.2771160 126.5383490 122.2353630
 132.1496780 142.9226530 119.0219610 131.6555060 143.3195400 118.3046740
 131.5410070 142.2975740 119.4156890 116.2542860 125.7029160 121.7296830
 116.8025850 125.5217210 120.9662940 116.3198170 124.9123270 122.2653140
 117.0274620 142.2934810 119.7397030 116.4334940 142.1619510 120.4787070
 117.0198460 141.4572950 119.2739130 126.4729640 125.5867040 117.9427060
 125.5989480 125.9202150 117.7399990 126.3640390 125.1140220 118.7678930
 127.3801620 127.7937910 119.3268780 127.0514980 126.9789670 118.9470510
 128.3283920 127.7507720 119.2034470 129.8336230 143.5649950 116.3006350
 129.3739200 144.3165760 115.9264370 129.2048690 142.8456420 116.2421150
 116.6586850 139.6593190 118.6905070 115.9320910 139.0398480 118.6231020
 116.7196000 140.0533800 117.8203150 120.2631950 141.8738190 115.4754480
 120.7796970 141.2625550 114.9502740 120.9129330 142.3766970 115.9665490
 123.0027450 142.7646680 116.3023460 123.2905260 142.5100980 115.4256470
 123.5150670 142.2124040 116.8929030 124.2204460 126.5036880 116.8819970
 123.4376250 126.9782380 117.1616730 123.9267390 125.5991710 116.7733150
 128.7725530 127.2059980 114.9269060 129.2133620 127.1505080 114.0790660
 128.5033120 128.1217990 114.9979240 130.6364100 126.8375220 112.9377880
 130.5752500 125.8936440 112.7908900 131.4156130 126.9455310 113.4831340
 114.9416850 142.9767580 111.9001830 114.7738890 142.3438260 112.5983720
 114.0751360 143.1826980 111.5496020 115.5644870 126.8084360 109.4033690
 116.3224230 126.9213240 108.8297720 115.1022040 127.6453560 109.3577120
 122.1058680 128.9223630 112.3936000 121.2933190 128.5480520 112.0531880
 122.6100320 128.1668710 112.6957190 126.6083660 125.5866080 113.6319070
 127.2113030 126.1586290 114.1067590 125.8676650 126.1505520 113.4092970
 129.7518260 125.9887640 108.9059350 129.9468890 126.8871090 109.1726780
 128.9648130 125.7574720 109.3992300 116.5479550 141.6700810 109.3451970
 116.0227170 142.0508840 108.6413930 116.4724130 142.2951580 110.0661680
 117.9370020 127.3348410 107.9435660 118.4662780 126.5478210 107.8143610
 118.5698340 128.0139600 108.1771190 120.1307860 127.0723550 110.9981050
 119.5010600 126.3710860 111.1651180 119.5913000 127.8327680 110.7814210
 123.0699810 143.6862780 123.6691660 123.9967120 143.4507050 123.7127620
 123.0550240 144.5134780 123.1877690 131.3044870 143.2288350 110.6665910
 131.4797060 142.5426090 110.0226830 130.6066440 143.7535400 110.2742580
 120.2563420 126.3507530 123.4333540 119.9747690 126.8541130 122.6694360
 120.6383120 125.5529280 123.0675670 119.1472520 143.6183190 108.2201220
 119.8791340 143.3342470 107.6725110 119.4066190 143.3796470 109.1100600
 118.3087310 139.7347920 108.2247550 117.6796190 140.2033020 108.7733380
 118.4235140 138.8897140 108.6593740 126.8578880 125.7661110 124.0114010
 126.7444330 126.0855720 124.9065530 127.6748620 126.1673620 123.7151290
 129.6377370 142.9132640 123.4932700 130.4302690 142.4181870 123.2858660
 129.9310520 143.5922780 124.1008310 125.7637030 133.7853580  94.3748750
 125.6831080 132.8708190  94.1040460 125.3501450 134.2820650  93.6688460
 123.8955070 135.5632600  96.2558020 123.1197170 135.0833040  96.5456590
 124.5468000 134.8838250  96.0814180 117.9120900 135.8752410  97.1333780
 117.0805780 135.6201120  97.5330290 118.5201880 135.9463180  97.8691700
 127.9162500 139.9692790  95.0357150 127.4544030 139.1980030  95.3644320
 128.7288050 139.9958860  95.5409600 117.8922160 139.9092500  97.3291800
 118.1950200 139.0190240  97.1502020 118.6365750 140.4662720  97.1014050
 116.3212850 130.8354300  90.9176170 115.4329550 131.1770270  90.8156050
 116.6054040 130.6354620  90.0257000 114.2845860 133.4359950  96.8015870
 114.8561970 132.6682150  96.8019510 114.2847400 133.7348710  95.8922480
 124.1425810 142.2550800  94.6561140 123.5237250 142.7108300  94.0855580
 124.9977590 142.4102260  94.2550840 123.3364060 138.2389790  96.2628180
 123.2672340 137.2979730  96.1017310 124.0983920 138.3291200  96.8350750
 115.5270730 128.8444310  98.5884800 115.3473570 127.9470060  98.8687560
 115.1250810 129.3916180  99.2631750 124.3669230 131.0460170  96.4897110
 124.7434050 130.1732050  96.3770780 124.2688740 131.3818870  95.5987550
 118.4974240 129.4185800  91.9514550 118.6040990 130.3189530  92.2583310
 117.5866600 129.3703770  91.6609200 128.1493350 128.5410610  93.4225450
 128.9702970 128.0507180  93.4650930 128.1827430 129.1308270  94.1757290
 116.1457400 131.3404810  97.1967140 116.8267510 131.6043180  97.8154540
 115.8305450 130.5005680  97.5305150 120.3381970 132.3872170  96.2839730
 120.8460190 132.8853140  96.9244750 120.8695210 131.6107370  96.1079090
 132.4392900 130.5577360  99.9869080 131.7345070 130.9459070  99.4684190
 132.7050820 131.2527650 100.5890010 118.6218070 127.0270730 100.5503150
 118.6236510 127.5443120  99.7449050 117.7922380 126.5500910 100.5273080
 125.0089160 137.1390040  92.0493050 124.3906430 137.6039490  91.4855770
 125.5212410 137.8317520  92.4662560 119.8720920 136.6665910  98.7276650
 119.5390300 137.2934830  99.3697720 120.0487600 137.1927790  97.9478320
 128.3854830 130.4810990  96.1952990 127.6810400 130.7695880  96.7756100
 128.7466990 131.2911100  95.8352550 118.3033400 128.7380690  98.5573600
 118.6450210 129.5822740  98.2627470 117.3649210 128.8864430  98.6738940
 119.0840020 138.6346710 100.5425830 119.7014020 139.3097790 100.2610280
 118.2233140 139.0434690 100.4513330 114.3772360 137.8246570  89.4232680
 114.0000340 138.3133670  88.6917580 114.6345430 138.4971850  90.0539210
 130.0017610 140.0986120  98.4580470 129.3181130 140.7685230  98.4497140
 130.5411900 140.2966770  97.6925330 131.4541750 129.9265780  96.5862200
 130.5066660 129.9604760  96.7177630 131.7791740 130.7404730  96.9711560
 121.9861290 126.2262960  94.8818190 122.2936270 125.6709850  94.1653690
 121.0561990 126.3607420  94.6991180 127.5376350 141.9430250  97.1725650
 127.5503510 141.5392540  96.3047910 126.9851570 142.7177540  97.0687080
 128.8321770 138.6646470  92.2615820 128.7218100 137.7220800  92.3865240
 128.8290020 139.0262110  93.1478580 126.9361790 136.8460090  98.5008260
 127.3530580 136.6320200  97.6661720 127.6601610 137.1032880  99.0716880
 124.3742050 134.2911790  91.6178310 123.4471330 134.2249170  91.8466780
 124.5266870 135.2291920  91.5033550 124.3611130 130.5628790  88.6145470
 123.4214800 130.7242750  88.6997930 124.6794390 131.2814470  88.0681460
 130.8823890 135.2447310  98.5924500 130.0542520 135.3140400  98.1174630
 131.4774370 135.8301620  98.1240330 128.4039340 135.8532090  92.1213560
 127.7851760 135.5151640  91.4739860 128.3863790 135.2091850  92.8292750
 127.8465900 132.0316630  99.5379370 127.4337080 132.8570340  99.7919360
 127.1141850 131.4461670  99.3455730 119.9798690 134.8176530  94.3998040
 119.5755690 134.1053780  93.9043940 120.0661810 134.4729770  95.2886080
 120.4480390 138.5044090  96.5637250 120.1508680 137.8989560  95.8845030
 121.3980210 138.5421400  96.4526610 118.6927310 131.5919740  98.1797080
 119.2441900 131.7015080  97.4050330 119.2070820 131.9657340  98.8952310
 128.5366000 142.0775960 100.2260350 128.0596560 142.8848150 100.0332960
 127.8527790 141.4254290 100.3786560 119.5398820 138.2425780 103.2145050
 118.6427350 138.4665750 103.4618450 119.5651690 138.3660720 102.2656450
 126.5804040 135.0918900  89.1286310 127.0197320 134.2541330  88.9824130
 127.2932460 135.7248300  89.2150450 118.3670040 135.1139100 101.7902420
 118.2277810 135.9861900 102.1589820 117.4851400 134.7711910 101.6450360
 124.6899420 140.0314970  93.0967550 125.1295330 140.7739300  92.6822940
 124.6286310 140.2741540  94.0206510 120.1650390 141.0560800 103.9987570
 120.1365820 141.4603750 103.1316000 120.0015360 140.1271160 103.8359170
 130.1621180 126.3461710  87.4427350 129.8493840 126.4388540  88.3426420
 130.9233650 126.9242740  87.3924780 116.6803320 133.7121510  91.9004690
 116.5600920 134.4383600  91.2885960 116.3704210 132.9424420  91.4232600
 132.1165210 141.8387900 105.2951740 132.5924930 142.3170790 105.9740820
 132.7372370 141.7705390 104.5697240 114.3188690 136.8836650  97.7073330
 114.3969110 137.0185420  96.7629050 114.9330370 136.1752540  97.9001450
 115.5636320 138.5836840  94.1179510 115.1564400 138.7251430  93.2633110
 116.4549330 138.2997000  93.9150720 131.5198460 139.0300750 102.4551750
 131.6461520 138.7912630 101.5368930 131.5619840 138.1985290 102.9273830
 125.3815200 142.7328750 101.0246560 125.8959870 142.6436760 101.8268990
 124.5384280 143.0788450 101.3174470 127.3569600 143.0184090  90.4530560
 127.1970740 142.7287030  91.3512390 127.1916310 142.2424220  89.9175790
 119.8357980 142.7982620  92.2302180 119.6600460 141.8818160  92.0169980
 118.9813720 143.1569910  92.4699980 127.0595730 140.5271650  89.0128560
 126.3660890 140.5248940  88.3530840 127.8018590 140.1030970  88.5822730
 126.6245660 142.1534360  93.0877050 127.0802610 141.3723740  93.4015670
 126.9638180 142.8641180  93.6318230 131.3722470 131.0833210 103.4201490
 130.7566740 131.5912880 102.8916950 131.0518890 130.1831540 103.3627430
 114.3748210 137.9250820 100.2467790 114.5379250 137.4556180  99.4287160
 114.8400660 137.4174380 100.9116630 119.1466980 127.0556580  95.2828360
 118.7035130 127.8366120  94.9512880 119.7051970 127.3786470  95.9899300
 123.4336790 129.9225100 100.8863680 122.9716160 130.1308120 101.6983620
 123.0314900 129.1084450 100.5834350 128.4341300 131.1434050 102.0160340
 127.5834890 130.8439800 102.3369410 128.2743090 131.3876060 101.1044160
 125.5291010 132.6435800 104.1159130 125.8544420 131.8099550 103.7761360
 126.3171340 133.1664320 104.2637460 122.2625800 126.6767280  90.1634190
 121.6379980 126.6727150  90.8887500 122.1755920 125.8098240  89.7670160
 121.1842880 127.6003910  97.1417960 121.4815210 128.5066740  97.0609980
 121.7328440 127.1122690  96.5277530 118.9381200 132.1790150  93.0109610
 118.7122120 131.9627320  93.9156230 118.1573730 132.6118610  92.6655580
 126.1678960 132.1853520  91.6100260 125.5687850 132.9089320  91.4263880
 126.7158570 132.1230300  90.8276710 121.3780410 133.0775730 103.6769880
 121.2824010 132.1370460 103.5270280 122.2212390 133.2990800 103.2817950
 124.7743830 130.8217060  93.6403540 125.1673400 131.1389260  92.8272230
 125.1360680 129.9428940  93.7548060 116.5090950 129.4889400 101.8303660
 116.1154340 130.3364610 102.0376440 115.8209350 128.8515770 102.0212300
 123.0836000 129.5724370 104.9000400 122.3934320 129.3796570 105.5346490
 123.8268300 129.8559010 105.4324700 113.8108000 127.4117860  95.8633740
 113.5221050 127.9820720  96.5758720 114.5553760 126.9322310  96.2264970
 113.9978230 131.3537980  87.0736460 113.9152900 132.2968740  87.2151450
 113.6461290 131.2112890  86.1948810 125.3598970 133.4122810  97.7354320
 124.6280090 133.9209620  98.0844420 124.9623310 132.5952790  97.4343100
 121.7976360 130.0877010  96.1406810 121.8012420 129.6466960  95.2911350
 122.6927480 130.4094340  96.2478630 117.6478740 129.9703500  95.1001020
 117.3078790 130.4478730  95.8568070 116.8856060 129.5168620  94.7402120
 121.8596510 131.0889090  89.1313570 121.9809330 131.0475570  90.0799390
 121.4745020 131.9513240  88.9760300 125.8224880 128.8656490  97.1477260
 125.8397620 129.3165140  97.9919110 125.5740460 127.9662130  97.3610700
 120.8718010 133.3990230  88.5296870 120.3034910 132.9508480  87.9032780
 121.5807010 133.7583010  87.9962020 129.2495630 126.2788670 102.9863640
 129.5741400 125.5478330 103.5121620 129.2852140 125.9602310 102.0844630
 115.9487190 137.3002250 102.4063600 115.5641980 136.6595920 103.0046560
 116.2599380 138.0038370 102.9758330 122.0984330 134.1478790  97.8872220
 122.4654460 133.6737360  98.6333560 121.9089390 135.0220360  98.2280560
 114.9624820 128.8922480  94.0165690 114.6771740 128.5278150  94.8544310
 114.9003680 128.1602940  93.4028830 119.8883700 133.1887430 100.2056430
 119.5840770 134.0679410 100.4306790 120.8430160 133.2487220 100.2413870
 118.4165490 137.3948420  90.8023280 117.6427750 136.8546040  90.6422000
 119.1460120 136.8755030  90.4641040 129.1753470 136.3913780  96.5949670
 129.8952590 136.8869070  96.2045780 128.9735290 135.7131670  95.9503540
 124.6363410 127.7851740  90.7379060 123.8228020 127.2864910  90.6624370
 124.4425360 128.6249990  90.3215410 124.5572270 136.4622840 102.4818670
 124.4909580 135.5418510 102.2276260 123.9277410 136.5598280 103.1963310
 127.3511800 132.1571390  89.0341220 128.2391420 132.4688620  88.8592560
 127.3216890 131.2843640  88.6421800 118.4602890 137.0628800  94.4402090
 118.9781560 136.2597060  94.3858980 118.0086910 137.0007940  95.2818920
 123.3472390 138.3295080  89.7129390 123.6888090 139.0737310  89.2172710
 122.5185100 138.6426200  90.0754220 115.9447430 134.0290170 101.3527790
 115.5862370 134.6944020 101.9401130 115.6501990 133.1973720 101.7240410
 119.1460550 134.4874410 104.2367340 118.8460690 134.6331590 103.3395160
 119.9171790 133.9279700 104.1440730 124.4889000 139.2843410 102.2322470
 124.5033540 138.3524370 102.0141380 123.7814100 139.3703170 102.8712240
 129.6226070 133.4683230  88.5021080 129.5389790 133.8997450  87.6517520
 130.3420260 133.9281580  88.9347900 130.7000210 135.9250750 101.5791050
 129.9748400 136.5179530 101.3820440 131.2275670 135.9174290 100.7804420
 130.6513320 140.3225490  91.2303210 130.0089480 139.6681110  91.5046930
 130.2643980 140.7280580  90.4543880 126.2299800 137.6510920  95.0774900
 126.5823620 137.0539050  94.4176270 125.3462130 137.3255150  95.2483150
 122.3163080 138.4108610  92.4845310 123.0034210 138.9577820  92.8652900
 121.5295500 138.9549340  92.5194920 114.4555480 134.0281430  87.9762390
 115.3250330 134.3106230  88.2598310 113.9645800 134.8417300  87.8611200
 121.6190290 135.4154640  92.0970670 122.0753070 136.2259890  92.3230860
 121.2678500 135.0977780  92.9289160 123.9222900 140.9260980  99.3262970
 124.5665120 141.1320360 100.0036390 124.2852340 140.1649380  98.8733820
 117.5202070 125.7592290  92.5693190 117.3916700 125.7510190  93.5178110
 116.6964090 126.0975380  92.2184200 125.1954980 138.9293330  98.0440420
 125.8377210 138.2286490  98.1572590 125.7204330 139.7091770  97.8637310
 129.0410700 139.2141950  87.7679560 128.8148280 138.4972390  88.3604200
 128.6506900 138.9654390  86.9301310 126.9692600 139.7288230 101.2476480
 127.3048840 140.3154920 101.9254400 126.0492940 139.5980940 101.4774270
 114.8226730 143.2408810  88.5424020 115.1824370 143.8398150  87.8881290
 114.6819070 143.7868700  89.3159050 114.5196000 127.5183410 102.0299890
 113.8054520 127.7180330 102.6352500 114.9391040 126.7422980 102.4014690
 128.6226950 137.1313890  89.4293720 128.3348650 137.5926580  90.2171600
 129.4179120 136.6711660  89.6977940 114.8068590 141.5063670 103.0166420
 114.9159710 140.5658410 102.8761810 114.1549150 141.7718420 102.3680150
 122.7981180 139.7779560 104.4164540 122.4778050 139.0588800 104.9610230
 122.1239540 140.4534630 104.4900600 120.8395350 140.6240010  89.3597690
 120.8305450 141.3569700  88.7442200 119.9193710 140.3771590  89.4524650
 116.4401990 135.8454900  90.1044450 115.8329940 136.5853800  90.1139750
 116.9151340 135.9354260  89.2782650 126.0134780 130.0105720  99.7801340
 126.3815600 129.1900930 100.1080910 125.1532980 130.0707610 100.1956990
 129.3796810 128.9662660  90.5888900 128.7509970 129.0708330  89.8747130
 128.8848730 129.1859440  91.3782780 123.8254950 140.6868250  88.0222880
 123.9266930 140.4832240  87.0924860 122.9256690 140.4326530  88.2270660
 121.3480840 131.2448610  92.0046780 120.6396990 131.7134950  92.4460390
 121.6325320 130.5870620  92.6391970 122.9736770 132.6645310 100.0039310
 123.4722020 133.1391130 100.6691160 123.1159720 131.7408830 100.2109340
 125.3796270 127.9699270  93.4442570 125.2564050 127.9885400  92.4952080
 126.3280830 128.0178210  93.5640970 122.4673060 143.2054570  92.7170550
 122.7214560 143.1675960  91.7949920 121.5185540 143.0787900  92.7098800
 119.5515860 129.5533690  89.3797490 120.4006390 129.9903840  89.3137680
 119.1847130 129.8653950  90.2069550 130.1803630 128.8813270 100.8467700
 129.6777230 129.6218670 101.1861510 130.9960290 129.2697270 100.5304490
 128.4725640 134.1246450  94.2929060 127.5315780 134.1396680  94.4676750
 128.7869710 133.3382410  94.7389360 118.4507280 135.8066050  87.8533020
 119.2170550 135.6947410  88.4158450 118.5281970 135.1104020  87.2009790
 117.1454040 133.2391120  88.5365910 117.2257630 132.2918630  88.6483310
 118.0373790 133.5698000  88.6426570 130.4751220 141.2955300  95.9683320
 130.5998640 142.1186470  96.4407130 131.3416780 141.0846030  95.6207470
 117.9468750 143.3886510  95.6400450 118.6831230 142.8401970  95.9109020
 118.3309670 144.2542520  95.5006440 114.8314230 139.4560080  91.5141960
 113.9054010 139.6981220  91.5047370 115.2970660 140.2834340  91.3926710
 116.9527030 142.5732580 104.8286030 117.7539760 142.8944630 105.2421430
 116.4378850 142.2128160 105.5505940 121.0571060 142.5616820  87.4626020
 121.8499670 142.8505650  87.0107810 120.5375410 142.1308990  86.7838500
 125.7891660 138.6812450 104.7761440 125.1829820 138.7044050 104.0357190
 125.4845770 137.9495490 105.3128690 127.2192030 142.4092740 103.3870850
 128.1713780 142.3250760 103.3371090 127.0720250 143.0734450 104.0604640
 130.1101230 141.7886950  88.8862760 129.8242740 141.3752090  88.0716940
 129.9120780 142.7174660  88.7663280 114.6724840 135.0606040 103.7722080
 115.1763860 134.4813320 104.3438310 113.9332260 135.3446270 104.3098450
 121.5748460 137.7820230  87.3268370 121.4699100 137.1672580  88.0529750
 121.4072680 137.2586120  86.5431380 121.7262780 136.4677030 103.3057600
 120.9608450 137.0362030 103.2212270 121.9078740 136.1753240 102.4125830
 124.8151190 136.8440260  87.9310360 124.2661290 137.2909560  88.5753100
 125.4370450 136.3389510  88.4548030 128.8686130 138.1982360 103.8632620
 129.6095600 138.5358120 103.3600080 128.1058810 138.3674420 103.3102390
 116.7047920 133.2035630 104.6672150 116.7453260 132.9049500 105.5757380
 117.5593420 133.6043240 104.5079670 120.4826310 135.8031180  89.8275660
 120.9042730 135.6371050  90.6707050 120.6077150 134.9931410  89.3330800
 118.6453730 131.7827730 102.6346640 118.1150190 131.2918680 102.0069980
 119.3141800 132.2111930 102.1004570 122.9953950 134.8268790  87.0752760
 123.5159610 134.1117810  86.7093910 123.6422350 135.4654660  87.3753270
 127.5431790 136.2497190 102.3987830 127.9572810 136.4042270 103.2478250
 126.6082790 136.3752410 102.5613610 128.0153960 133.5893350 104.4026980
 128.5974730 132.8345670 104.3147460 128.1915730 134.1200790 103.6258460
 119.1326030 128.7490100 102.7143930 119.0382900 128.1310850 101.9894800
 118.5523420 129.4756390 102.4873840 121.8987470 127.3063340  99.7471320
 121.4504770 127.3287600  98.9016870 121.2652670 126.9082360 100.3441620
 122.3047020 136.2017670 100.3683760 122.7235130 137.0450400 100.1960000
 121.3855650 136.3389710 100.1390540 124.6410920 133.9333850 101.7521600
 124.7607130 133.3374990 102.4916440 125.5004920 133.9703540 101.3322900
 126.9798820 134.4871040 100.3284110 126.4534040 135.0113660  99.7249250
 127.3230160 135.1198430 100.9593840 119.3785210 131.8764410  86.7733820
 119.1774270 131.0131770  87.1347160 119.2077260 131.7897770  85.8355420
 120.1554440 142.5070680 101.4841490 119.6175530 143.2316740 101.1650190
 120.4088400 142.0301020 100.6938830 121.4079690 130.4755200 103.0097420
 121.9979380 130.1671050 103.6975240 120.5899930 130.0034950 103.1657320
 126.2273120 130.0921010 103.2430440 125.5388640 129.4302550 103.1780430
 126.9479140 129.6459280 103.6878900 126.8573520 126.6872640  89.3020700
 127.1375810 125.8440540  89.6580120 126.0839250 126.9195750  89.8159450
 118.1768010 128.9765030  86.7611700 118.4793910 128.9832460  85.8530850
 118.9162600 128.6262890  87.2579360 123.0116650 143.7421890 101.7428140
 122.9375350 144.6457030 102.0500510 122.1095490 143.4233790 101.7150210
 121.3952940 127.9199650  87.7467900 121.0474940 127.2423640  87.1670350
 121.5965710 127.4589160  88.5611290 123.5601980 142.9080400  89.3654500
 124.4552770 143.2465370  89.3873260 123.5919610 142.1859810  88.7378780
 117.1998140 138.2807450  87.5941500 117.6373010 138.8237120  88.2499080
 117.6845870 137.4554400  87.6037840 114.4143940 141.0696480  95.0461760
 114.7446950 140.2017540  94.8140400 114.8434940 141.2755000  95.8766720
 119.0105860 139.4005490  92.7063730 118.7101400 139.2770460  93.6067640
 118.9043350 138.5414080  92.2979460 114.9034150 141.9367070  97.7843390
 114.4665140 142.1167870  98.6167540 115.4711830 142.6941690  97.6425110
 130.5396330 141.4384070 102.0720700 129.9398320 141.4976630 101.3284620
 130.6690230 140.4989050 102.2017550 131.7797780 139.1801890  87.4090410
 130.9490740 139.2478540  87.8797640 131.9569610 140.0706010  87.1057270
 131.2354240 135.9249370  89.9124610 131.9973150 136.4946020  90.0184300
 131.2508610 135.3576570  90.6832920 114.7358580 134.4487300  94.1432270
 114.0807420 134.1798940  93.4991970 115.5736530 134.3391780  93.6934250
 132.2414210 136.7799470  94.7566540 132.6123040 135.9966790  94.3502510
 132.8816140 137.4688570  94.5783840 129.2247970 138.1636050 100.1696860
 128.4107810 138.5933210 100.4322650 129.6322170 138.7754460  99.5565910
 131.2873410 136.2183740  87.0697130 131.5622250 137.1262620  86.9416350
 131.0984150 136.1546270  88.0059120 127.6849020 129.2428590  88.3650760
 128.1033900 129.0559570  87.5247420 127.3785080 128.3907640  88.6753690
 131.1838750 134.1552730  92.0626560 130.8082350 133.3880660  91.6307850
 130.4541870 134.5375430  92.5501490 115.7734510 134.8339870  98.6835610
 116.1407550 134.7467270  99.5631630 115.2045330 134.0706420  98.5842470
 130.5738370 133.3024250 101.6966080 130.3424460 133.0737000 100.7964030
 130.8342920 134.2223800 101.6510970 115.3250510 131.7448960 102.5894030
 114.4306560 131.7115720 102.9287740 115.8648060 131.9435750 103.3545280
 129.0126440 128.5280680 104.4745780 129.8896620 128.5364080 104.8579780
 129.0247280 127.7911520 103.8638130 113.9496660 131.6586230  90.0857600
 113.0460740 131.9216430  89.9109260 114.4337280 131.9297400  89.3057560
 130.4589710 132.3810220  95.3633800 130.9827190 131.8872870  94.7323970
 131.0449130 132.5160580  96.1081370 130.6379430 132.4650090  98.8853350
 129.6882140 132.4313630  98.9998340 130.8192440 133.3750200  98.6503120
 116.4923870 130.7151770  87.9951980 117.2015570 130.2934990  87.5099260
 115.7763810 130.7827000  87.3635330 116.1398030 126.7691100  87.0354630
 116.8626160 127.3100040  87.3535850 116.4122550 126.4954520  86.1596170
 129.9489680 131.6383570  91.3026210 130.4448800 131.4054440  92.0875090
 129.7505750 130.7995410  90.8863850 115.8290220 126.0197290  96.9377250
 116.4766410 125.4694670  96.4972410 116.2492060 126.2740440  97.7593060
 131.3776840 130.2744520  93.8363890 131.2676120 130.1200560  94.7746160
 132.1384430 129.7465460  93.5939300 129.7242560 126.2138650 100.2946890
 130.3614780 126.8272790 100.6606080 129.8717450 126.2499310  99.3496120
 132.2667110 128.1052440  87.0770030 133.1916420 127.9733620  86.8688320
 132.2442900 128.1845260  88.0306480 132.3405600 128.8763100  89.7026740
 131.5457100 128.8108220  90.2319650 132.5448880 129.8113740  89.6912090
 129.2824020 142.9154650  93.6965130 129.8783090 142.5939220  93.0199550
 129.5402170 142.4426470  94.4878400 115.5822220 126.1752960  99.6802570
 115.2337040 126.6316780 100.4460750 115.2509920 125.2810090  99.7625000
 117.1886590 139.3472560 103.8455760 117.1456220 138.9765470 104.7270220
 117.3197600 140.2850130 103.9857580 120.8892620 140.9032150  99.4465480
 120.6483980 141.1706710  98.5596000 121.8295260 141.0737880  99.5016340
 123.0947040 127.3664840 103.2021990 123.0335930 127.9586670 103.9517400
 124.0347420 127.2590800 103.0572250 125.7321600 127.0234900 102.8414280
 126.3462010 127.3414190 102.1795360 126.2771160 126.5383490 103.4610140
 132.1496780 142.9226530 100.2476120 131.6555060 143.3195400  99.5303250
 131.5410070 142.2975740 100.6413400 116.2542860 125.7029160 102.9553340
 116.8025850 125.5217210 102.1919450 116.3198170 124.9123270 103.4909650
 117.0274620 142.2934810 100.9653540 116.4334940 142.1619510 101.7043580
 117.0198460 141.4572950 100.4995640 126.4729640 125.5867040  99.1683570
 125.5989480 125.9202150  98.9656500 126.3640390 125.1140220  99.9935440
 127.3801620 127.7937910 100.5525290 127.0514980 126.9789670 100.1727020
 128.3283920 127.7507720 100.4290980 129.8336230 143.5649950  97.5262860
 129.3739200 144.3165760  97.1520880 129.2048690 142.8456420  97.4677660
 116.6586850 139.6593190  99.9161580 115.9320910 139.0398480  99.8487530
 116.7196000 140.0533800  99.0459660 120.2631950 141.8738190  96.7010990
 120.7796970 141.2625550  96.1759250 120.9129330 142.3766970  97.1922000
 123.0027450 142.7646680  97.5279970 123.2905260 142.5100980  96.6512980
 123.5150670 142.2124040  98.1185540 124.2204460 126.5036880  98.1076480
 123.4376250 126.9782380  98.3873240 123.9267390 125.5991710  97.9989660
 128.7725530 127.2059980  96.1525570 129.2133620 127.1505080  95.3047170
 128.5033120 128.1217990  96.2235750 130.6364100 126.8375220  94.1634390
 130.5752500 125.8936440  94.0165410 131.4156130 126.9455310  94.7087850
 114.9416850 142.9767580  93.1258340 114.7738890 142.3438260  93.8240230
 114.0751360 143.1826980  92.7752530 115.5644870 126.8084360  90.6290200
 116.3224230 126.9213240  90.0554230 115.1022040 127.6453560  90.5833630
 122.1058680 128.9223630  93.6192510 121.2933190 128.5480520  93.2788390
 122.6100320 128.1668710  93.9213700 126.6083660 125.5866080  94.8575580
 127.2113030 126.1586290  95.3324100 125.8676650 126.1505520  94.6349480
 129.7518260 125.9887640  90.1315860 129.9468890 126.8871090  90.3983290
 128.9648130 125.7574720  90.6248810 116.5479550 141.6700810  90.5708480
 116.0227170 142.0508840  89.8670440 116.4724130 142.2951580  91.2918190
 117.9370020 127.3348410  89.1692170 118.4662780 126.5478210  89.0400120
 118.5698340 128.0139600  89.4027700 120.1307860 127.0723550  92.2237560
 119.5010600 126.3710860  92.3907690 119.5913000 127.8327680  92.0070720
 123.0699810 143.6862780 104.8948170 123.9967120 143.4507050 104.9384130
 123.0550240 144.5134780 104.4134200 131.3044870 143.2288350  91.8922420
 131.4797060 142.5426090  91.2483340 130.6066440 143.7535400  91.4999090
 120.2563420 126.3507530 104.6590050 119.9747690 126.8541130 103.8950870
 120.6383120 125.5529280 104.2932180 119.1472520 143.6183190  89.4457730
 119.8791340 143.3342470  88.8981620 119.4066190 143.3796470  90.3357110
 118.3087310 139.7347920  89.4504060 117.6796190 140.2033020  89.9989890
 118.4235140 138.8897140  89.8850250 126.8578880 125.7661110 105.2370520
 126.7444330 126.0855720 106.1322040 127.6748620 126.1673620 104.9407800
 129.6377370 142.9132640 104.7189210 130.4302690 142.4181870 104.5115170
 129.9310520 143.5922780 105.3264820 125.7637030 133.7853580  75.6005260
 125.6831080 132.8708190  75.3296970 125.3501450 134.2820650  74.8944970
 123.8955070 135.5632600  77.4814530 123.1197170 135.0833040  77.7713100
 124.5468000 134.8838250  77.3070690 117.9120900 135.8752410  78.3590290
 117.0805780 135.6201120  78.7586800 118.5201880 135.9463180  79.0948210
 127.9162500 139.9692790  76.2613660 127.4544030 139.1980030  76.5900830
 128.7288050 139.9958860  76.7666110 117.8922160 139.9092500  78.5548310
 118.1950200 139.0190240  78.3758530 118.6365750 140.4662720  78.3270560
 116.3212850 130.8354300  72.1432680 115.4329550 131.1770270  72.0412560
 116.6054040 130.6354620  71.2513510 114.2845860 133.4359950  78.0272380
 114.8561970 132.6682150  78.0276020 114.2847400 133.7348710  77.1178990
 124.1425810 142.2550800  75.8817650 123.5237250 142.7108300  75.3112090
 124.9977590 142.4102260  75.4807350 123.3364060 138.2389790  77.4884690
 123.2672340 137.2979730  77.3273820 124.0983920 138.3291200  78.0607260
 124.3669230 131.0460170  77.7153620 124.7434050 130.1732050  77.6027290
 124.2688740 131.3818870  76.8244060 118.4974240 129.4185800  73.1771060
 118.6040990 130.3189530  73.4839820 117.5866600 129.3703770  72.8865710
 128.1493350 128.5410610  74.6481960 128.9702970 128.0507180  74.6907440
 128.1827430 129.1308270  75.4013800 132.4392900 130.5577360  81.2125590
 131.7345070 130.9459070  80.6940700 132.7050820 131.2527650  81.8146520
 118.6218070 127.0270730  81.7759660 118.6236510 127.5443120  80.9705560
 117.7922380 126.5500910  81.7529590 125.0089160 137.1390040  73.2749560
 124.3906430 137.6039490  72.7112280 125.5212410 137.8317520  73.6919070
 119.8720920 136.6665910  79.9533160 119.5390300 137.2934830  80.5954230
 120.0487600 137.1927790  79.1734830 128.3854830 130.4810990  77.4209500
 127.6810400 130.7695880  78.0012610 128.7466990 131.2911100  77.0609060
 119.0840020 138.6346710  81.7682340 119.7014020 139.3097790  81.4866790
 118.2233140 139.0434690  81.6769840 114.3772360 137.8246570  70.6489190
 114.0000340 138.3133670  69.9174090 114.6345430 138.4971850  71.2795720
 130.0017610 140.0986120  79.6836980 129.3181130 140.7685230  79.6753650
 130.5411900 140.2966770  78.9181840 131.4541750 129.9265780  77.8118710
 130.5066660 129.9604760  77.9434140 131.7791740 130.7404730  78.1968070
 121.9861290 126.2262960  76.1074700 122.2936270 125.6709850  75.3910200
 121.0561990 126.3607420  75.9247690 127.5376350 141.9430250  78.3982160
 127.5503510 141.5392540  77.5304420 126.9851570 142.7177540  78.2943590
 128.8321770 138.6646470  73.4872330 128.7218100 137.7220800  73.6121750
 128.8290020 139.0262110  74.3735090 126.9361790 136.8460090  79.7264770
 127.3530580 136.6320200  78.8918230 127.6601610 137.1032880  80.2973390
 124.3742050 134.2911790  72.8434820 123.4471330 134.2249170  73.0723290
 124.5266870 135.2291920  72.7290060 124.3611130 130.5628790  69.8401980
 123.4214800 130.7242750  69.9254440 124.6794390 131.2814470  69.2937970
 130.8823890 135.2447310  79.8181010 130.0542520 135.3140400  79.3431140
 131.4774370 135.8301620  79.3496840 128.4039340 135.8532090  73.3470070
 127.7851760 135.5151640  72.6996370 128.3863790 135.2091850  74.0549260
 127.8465900 132.0316630  80.7635880 127.4337080 132.8570340  81.0175870
 127.1141850 131.4461670  80.5712240 119.9798690 134.8176530  75.6254550
 119.5755690 134.1053780  75.1300450 120.0661810 134.4729770  76.5142590
 120.4480390 138.5044090  77.7893760 120.1508680 137.8989560  77.1101540
 121.3980210 138.5421400  77.6783120 128.5366000 142.0775960  81.4516860
 128.0596560 142.8848150  81.2589470 127.8527790 141.4254290  81.6043070
 119.5398820 138.2425780  84.4401560 118.6427350 138.4665750  84.6874960
 119.5651690 138.3660720  83.4912960 126.5804040 135.0918900  70.3542820
 127.0197320 134.2541330  70.2080640 127.2932460 135.7248300  70.4406960
 118.3670040 135.1139100  83.0158930 118.2277810 135.9861900  83.3846330
 117.4851400 134.7711910  82.8706870 124.6899420 140.0314970  74.3224060
 125.1295330 140.7739300  73.9079450 124.6286310 140.2741540  75.2463020
 120.1650390 141.0560800  85.2244080 120.1365820 141.4603750  84.3572510
 120.0015360 140.1271160  85.0615680 130.1621180 126.3461710  68.6683860
 129.8493840 126.4388540  69.5682930 130.9233650 126.9242740  68.6181290
 116.6803320 133.7121510  73.1261200 116.5600920 134.4383600  72.5142470
 116.3704210 132.9424420  72.6489110 132.1165210 141.8387900  86.5208250
 132.5924930 142.3170790  87.1997330 132.7372370 141.7705390  85.7953750
 114.3188690 136.8836650  78.9329840 114.3969110 137.0185420  77.9885560
 114.9330370 136.1752540  79.1257960 115.5636320 138.5836840  75.3436020
 115.1564400 138.7251430  74.4889620 116.4549330 138.2997000  75.1407230
 131.5198460 139.0300750  83.6808260 131.6461520 138.7912630  82.7625440
 131.5619840 138.1985290  84.1530340 125.3815200 142.7328750  82.2503070
 125.8959870 142.6436760  83.0525500 124.5384280 143.0788450  82.5430980
 127.3569600 143.0184090  71.6787070 127.1970740 142.7287030  72.5768900
 127.1916310 142.2424220  71.1432300 119.8357980 142.7982620  73.4558690
 119.6600460 141.8818160  73.2426490 118.9813720 143.1569910  73.6956490
 127.0595730 140.5271650  70.2385070 126.3660890 140.5248940  69.5787350
 127.8018590 140.1030970  69.8079240 126.6245660 142.1534360  74.3133560
 127.0802610 141.3723740  74.6272180 126.9638180 142.8641180  74.8574740
 131.3722470 131.0833210  84.6458000 130.7566740 131.5912880  84.1173460
 131.0518890 130.1831540  84.5883940 114.3748210 137.9250820  81.4724300
 114.5379250 137.4556180  80.6543670 114.8400660 137.4174380  82.1373140
 123.4336790 129.9225100  82.1120190 122.9716160 130.1308120  82.9240130
 123.0314900 129.1084450  81.8090860 128.4341300 131.1434050  83.2416850
 127.5834890 130.8439800  83.5625920 128.2743090 131.3876060  82.3300670
 125.5291010 132.6435800  85.3415640 125.8544420 131.8099550  85.0017870
 126.3171340 133.1664320  85.4893970 122.2625800 126.6767280  71.3890700
 121.6379980 126.6727150  72.1144010 122.1755920 125.8098240  70.9926670
 121.1842880 127.6003910  78.3674470 121.4815210 128.5066740  78.2866490
 121.7328440 127.1122690  77.7534040 118.9381200 132.1790150  74.2366120
 118.7122120 131.9627320  75.1412740 118.1573730 132.6118610  73.8912090
 126.1678960 132.1853520  72.8356770 125.5687850 132.9089320  72.6520390
 126.7158570 132.1230300  72.0533220 121.3780410 133.0775730  84.9026390
 121.2824010 132.1370460  84.7526790 122.2212390 133.2990800  84.5074460
 124.7743830 130.8217060  74.8660050 125.1673400 131.1389260  74.0528740
 125.1360680 129.9428940  74.9804570 116.5090950 129.4889400  83.0560170
 116.1154340 130.3364610  83.2632950 115.8209350 128.8515770  83.2468810
 123.0836000 129.5724370  86.1256910 122.3934320 129.3796570  86.7603000
 123.8268300 129.8559010  86.6581210 113.9978230 131.3537980  68.2992970
 113.9152900 132.2968740  68.4407960 113.6461290 131.2112890  67.4205320
 125.3598970 133.4122810  78.9610830 124.6280090 133.9209620  79.3100930
 124.9623310 132.5952790  78.6599610 121.7976360 130.0877010  77.3663320
 121.8012420 129.6466960  76.5167860 122.6927480 130.4094340  77.4735140
 121.8596510 131.0889090  70.3570080 121.9809330 131.0475570  71.3055900
 121.4745020 131.9513240  70.2016810 125.8224880 128.8656490  78.3733770
 125.8397620 129.3165140  79.2175620 125.5740460 127.9662130  78.5867210
 120.8718010 133.3990230  69.7553380 120.3034910 132.9508480  69.1289290
 121.5807010 133.7583010  69.2218530 129.2495630 126.2788670  84.2120150
 129.5741400 125.5478330  84.7378130 129.2852140 125.9602310  83.3101140
 115.9487190 137.3002250  83.6320110 115.5641980 136.6595920  84.2303070
 116.2599380 138.0038370  84.2014840 122.0984330 134.1478790  79.1128730
 122.4654460 133.6737360  79.8590070 121.9089390 135.0220360  79.4537070
 119.8883700 133.1887430  81.4312940 119.5840770 134.0679410  81.6563300
 120.8430160 133.2487220  81.4670380 118.4165490 137.3948420  72.0279790
 117.6427750 136.8546040  71.8678510 119.1460120 136.8755030  71.6897550
 129.1753470 136.3913780  77.8206180 129.8952590 136.8869070  77.4302290
 128.9735290 135.7131670  77.1760050 124.6363410 127.7851740  71.9635570
 123.8228020 127.2864910  71.8880880 124.4425360 128.6249990  71.5471920
 124.5572270 136.4622840  83.7075180 124.4909580 135.5418510  83.4532770
 123.9277410 136.5598280  84.4219820 127.3511800 132.1571390  70.2597730
 128.2391420 132.4688620  70.0849070 127.3216890 131.2843640  69.8678310
 118.4602890 137.0628800  75.6658600 118.9781560 136.2597060  75.6115490
 118.0086910 137.0007940  76.5075430 123.3472390 138.3295080  70.9385900
 123.6888090 139.0737310  70.4429220 122.5185100 138.6426200  71.3010730
 115.9447430 134.0290170  82.5784300 115.5862370 134.6944020  83.1657640
 115.6501990 133.1973720  82.9496920 119.1460550 134.4874410  85.4623850
 118.8460690 134.6331590  84.5651670 119.9171790 133.9279700  85.3697240
 124.4889000 139.2843410  83.4578980 124.5033540 138.3524370  83.2397890
 123.7814100 139.3703170  84.0968750 129.6226070 133.4683230  69.7277590
 129.5389790 133.8997450  68.8774030 130.3420260 133.9281580  70.1604410
 130.7000210 135.9250750  82.8047560 129.9748400 136.5179530  82.6076950
 131.2275670 135.9174290  82.0060930 130.6513320 140.3225490  72.4559720
 130.0089480 139.6681110  72.7303440 130.2643980 140.7280580  71.6800390
 126.2299800 137.6510920  76.3031410 126.5823620 137.0539050  75.6432780
 125.3462130 137.3255150  76.4739660 122.3163080 138.4108610  73.7101820
 123.0034210 138.9577820  74.0909410 121.5295500 138.9549340  73.7451430
 114.4555480 134.0281430  69.2018900 115.3250330 134.3106230  69.4854820
 113.9645800 134.8417300  69.0867710 121.6190290 135.4154640  73.3227180
 122.0753070 136.2259890  73.5487370 121.2678500 135.0977780  74.1545670
 123.9222900 140.9260980  80.5519480 124.5665120 141.1320360  81.2292900
 124.2852340 140.1649380  80.0990330 117.5202070 125.7592290  73.7949700
 117.3916700 125.7510190  74.7434620 116.6964090 126.0975380  73.4440710
 125.1954980 138.9293330  79.2696930 125.8377210 138.2286490  79.3829100
 125.7204330 139.7091770  79.0893820 129.0410700 139.2141950  68.9936070
 128.8148280 138.4972390  69.5860710 128.6506900 138.9654390  68.1557820
 126.9692600 139.7288230  82.4732990 127.3048840 140.3154920  83.1510910
 126.0492940 139.5980940  82.7030780 114.8226730 143.2408810  69.7680530
 115.1824370 143.8398150  69.1137800 114.6819070 143.7868700  70.5415560
 114.5196000 127.5183410  83.2556400 113.8054520 127.7180330  83.8609010
 114.9391040 126.7422980  83.6271200 128.6226950 137.1313890  70.6550230
 128.3348650 137.5926580  71.4428110 129.4179120 136.6711660  70.9234450
 114.8068590 141.5063670  84.2422930 114.9159710 140.5658410  84.1018320
 114.1549150 141.7718420  83.5936660 122.7981180 139.7779560  85.6421050
 122.4778050 139.0588800  86.1866740 122.1239540 140.4534630  85.7157110
 120.8395350 140.6240010  70.5854200 120.8305450 141.3569700  69.9698710
 119.9193710 140.3771590  70.6781160 116.4401990 135.8454900  71.3300960
 115.8329940 136.5853800  71.3396260 116.9151340 135.9354260  70.5039160
 126.0134780 130.0105720  81.0057850 126.3815600 129.1900930  81.3337420
 125.1532980 130.0707610  81.4213500 129.3796810 128.9662660  71.8145410
 128.7509970 129.0708330  71.1003640 128.8848730 129.1859440  72.6039290
 123.8254950 140.6868250  69.2479390 123.9266930 140.4832240  68.3181370
 122.9256690 140.4326530  69.4527170 121.3480840 131.2448610  73.2303290
 120.6396990 131.7134950  73.6716900 121.6325320 130.5870620  73.8648480
 122.9736770 132.6645310  81.2295820 123.4722020 133.1391130  81.8947670
 123.1159720 131.7408830  81.4365850 125.3796270 127.9699270  74.6699080
 125.2564050 127.9885400  73.7208590 126.3280830 128.0178210  74.7897480
 122.4673060 143.2054570  73.9427060 122.7214560 143.1675960  73.0206430
 121.5185540 143.0787900  73.9355310 119.5515860 129.5533690  70.6054000
 120.4006390 129.9903840  70.5394190 119.1847130 129.8653950  71.4326060
 130.1803630 128.8813270  82.0724210 129.6777230 129.6218670  82.4118020
 130.9960290 129.2697270  81.7561000 128.4725640 134.1246450  75.5185570
 127.5315780 134.1396680  75.6933260 128.7869710 133.3382410  75.9645870
 118.4507280 135.8066050  69.0789530 119.2170550 135.6947410  69.6414960
 118.5281970 135.1104020  68.4266300 117.1454040 133.2391120  69.7622420
 117.2257630 132.2918630  69.8739820 118.0373790 133.5698000  69.8683080
 130.4751220 141.2955300  77.1939830 130.5998640 142.1186470  77.6663640
 131.3416780 141.0846030  76.8463980 117.9468750 143.3886510  76.8656960
 118.6831230 142.8401970  77.1365530 118.3309670 144.2542520  76.7262950
 114.8314230 139.4560080  72.7398470 113.9054010 139.6981220  72.7303880
 115.2970660 140.2834340  72.6183220 116.9527030 142.5732580  86.0542540
 117.7539760 142.8944630  86.4677940 116.4378850 142.2128160  86.7762450
 121.0571060 142.5616820  68.6882530 121.8499670 142.8505650  68.2364320
 120.5375410 142.1308990  68.0095010 125.7891660 138.6812450  86.0017950
 125.1829820 138.7044050  85.2613700 125.4845770 137.9495490  86.5385200
 127.2192030 142.4092740  84.6127360 128.1713780 142.3250760  84.5627600
 127.0720250 143.0734450  85.2861150 130.1101230 141.7886950  70.1119270
 129.8242740 141.3752090  69.2973450 129.9120780 142.7174660  69.9919790
 114.6724840 135.0606040  84.9978590 115.1763860 134.4813320  85.5694820
 113.9332260 135.3446270  85.5354960 121.5748460 137.7820230  68.5524880
 121.4699100 137.1672580  69.2786260 121.4072680 137.2586120  67.7687890
 121.7262780 136.4677030  84.5314110 120.9608450 137.0362030  84.4468780
 121.9078740 136.1753240  83.6382340 124.8151190 136.8440260  69.1566870
 124.2661290 137.2909560  69.8009610 125.4370450 136.3389510  69.6804540
 128.8686130 138.1982360  85.0889130 129.6095600 138.5358120  84.5856590
 128.1058810 138.3674420  84.5358900 116.7047920 133.2035630  85.8928660
 116.7453260 132.9049500  86.8013890 117.5593420 133.6043240  85.7336180
 120.4826310 135.8031180  71.0532170 120.9042730 135.6371050  71.8963560
 120.6077150 134.9931410  70.5587310 118.6453730 131.7827730  83.8603150
 118.1150190 131.2918680  83.2326490 119.3141800 132.2111930  83.3261080
 122.9953950 134.8268790  68.3009270 123.5159610 134.1117810  67.9350420
 123.6422350 135.4654660  68.6009780 127.5431790 136.2497190  83.6244340
 127.9572810 136.4042270  84.4734760 126.6082790 136.3752410  83.7870120
 128.0153960 133.5893350  85.6283490 128.5974730 132.8345670  85.5403970
 128.1915730 134.1200790  84.8514970 119.1326030 128.7490100  83.9400440
 119.0382900 128.1310850  83.2151310 118.5523420 129.4756390  83.7130350
 121.8987470 127.3063340  80.9727830 121.4504770 127.3287600  80.1273380
 121.2652670 126.9082360  81.5698130 122.3047020 136.2017670  81.5940270
 122.7235130 137.0450400  81.4216510 121.3855650 136.3389710  81.3647050
 124.6410920 133.9333850  82.9778110 124.7607130 133.3374990  83.7172950
 125.5004920 133.9703540  82.5579410 126.9798820 134.4871040  81.5540620
 126.4534040 135.0113660  80.9505760 127.3230160 135.1198430  82.1850350
 119.3785210 131.8764410  67.9990330 119.1774270 131.0131770  68.3603670
 119.2077260 131.7897770  67.0611930 120.1554440 142.5070680  82.7098000
 119.6175530 143.2316740  82.3906700 120.4088400 142.0301020  81.9195340
 121.4079690 130.4755200  84.2353930 121.9979380 130.1671050  84.9231750
 120.5899930 130.0034950  84.3913830 126.2273120 130.0921010  84.4686950
 125.5388640 129.4302550  84.4036940 126.9479140 129.6459280  84.9135410
 126.8573520 126.6872640  70.5277210 127.1375810 125.8440540  70.8836630
 126.0839250 126.9195750  71.0415960 118.1768010 128.9765030  67.9868210
 118.4793910 128.9832460  67.0787360 118.9162600 128.6262890  68.4835870
 123.0116650 143.7421890  82.9684650 122.9375350 144.6457030  83.2757020
 122.1095490 143.4233790  82.9406720 121.3952940 127.9199650  68.9724410
 121.0474940 127.2423640  68.3926860 121.5965710 127.4589160  69.7867800
 123.5601980 142.9080400  70.5911010 124.4552770 143.2465370  70.6129770
 123.5919610 142.1859810  69.9635290 117.1998140 138.2807450  68.8198010
 117.6373010 138.8237120  69.4755590 117.6845870 137.4554400  68.8294350
 114.4143940 141.0696480  76.2718270 114.7446950 140.2017540  76.0396910
 114.8434940 141.2755000  77.1023230 119.0105860 139.4005490  73.9320240
 118.7101400 139.2770460  74.8324150 118.9043350 138.5414080  73.5235970
 114.9034150 141.9367070  79.0099900 114.4665140 142.1167870  79.8424050
 115.4711830 142.6941690  78.8681620 130.5396330 141.4384070  83.2977210
 129.9398320 141.4976630  82.5541130 130.6690230 140.4989050  83.4274060
 131.7797780 139.1801890  68.6346920 130.9490740 139.2478540  69.1054150
 131.9569610 140.0706010  68.3313780 131.2354240 135.9249370  71.1381120
 131.9973150 136.4946020  71.2440810 131.2508610 135.3576570  71.9089430
 114.7358580 134.4487300  75.3688780 114.0807420 134.1798940  74.7248480
 115.5736530 134.3391780  74.9190760 132.2414210 136.7799470  75.9823050
 132.6123040 135.9966790  75.5759020 132.8816140 137.4688570  75.8040350
 129.2247970 138.1636050  81.3953370 128.4107810 138.5933210  81.6579160
 129.6322170 138.7754460  80.7822420 131.2873410 136.2183740  68.2953640
 131.5622250 137.1262620  68.1672860 131.0984150 136.1546270  69.2315630
 127.6849020 129.2428590  69.5907270 128.1033900 129.0559570  68.7503930
 127.3785080 128.3907640  69.9010200 131.1838750 134.1552730  73.2883070
 130.8082350 133.3880660  72.8564360 130.4541870 134.5375430  73.7758000
 115.7734510 134.8339870  79.9092120 116.1407550 134.7467270  80.7888140
 115.2045330 134.0706420  79.8098980 130.5738370 133.3024250  82.9222590
 130.3424460 133.0737000  82.0220540 130.8342920 134.2223800  82.8767480
 115.3250510 131.7448960  83.8150540 114.4306560 131.7115720  84.1544250
 115.8648060 131.9435750  84.5801790 129.0126440 128.5280680  85.7002290
 129.8896620 128.5364080  86.0836290 129.0247280 127.7911520  85.0894640
 113.9496660 131.6586230  71.3114110 113.0460740 131.9216430  71.1365770
 114.4337280 131.9297400  70.5314070 130.4589710 132.3810220  76.5890310
 130.9827190 131.8872870  75.9580480 131.0449130 132.5160580  77.3337880
 130.6379430 132.4650090  80.1109860 129.6882140 132.4313630  80.2254850
 130.8192440 133.3750200  79.8759630 116.4923870 130.7151770  69.2208490
 117.2015570 130.2934990  68.7355770 115.7763810 130.7827000  68.5891840
 116.1398030 126.7691100  68.2611140 116.8626160 127.3100040  68.5792360
 116.4122550 126.4954520  67.3852680 129.9489680 131.6383570  72.5282720
 130.4448800 131.4054440  73.3131600 129.7505750 130.7995410  72.1120360
 131.3776840 130.2744520  75.0620400 131.2676120 130.1200560  76.0002670
 132.1384430 129.7465460  74.8195810 129.7242560 126.2138650  81.5203400
 130.3614780 126.8272790  81.8862590 129.8717450 126.2499310  80.5752630
 132.2667110 128.1052440  68.3026540 133.1916420 127.9733620  68.0944830
 132.2442900 128.1845260  69.2562990 132.3405600 128.8763100  70.9283250
 131.5457100 128.8108220  71.4576160 132.5448880 129.8113740  70.9168600
 129.2824020 142.9154650  74.9221640 129.8783090 142.5939220  74.2456060
 129.5402170 142.4426470  75.7134910 115.5822220 126.1752960  80.9059080
 115.2337040 126.6316780  81.6717260 115.2509920 125.2810090  80.9881510
 117.1886590 139.3472560  85.0712270 117.1456220 138.9765470  85.9526730
 117.3197600 140.2850130  85.2114090 120.8892620 140.9032150  80.6721990
 120.6483980 141.1706710  79.7852510 121.8295260 141.0737880  80.7272850
 123.0947040 127.3664840  84.4278500 123.0335930 127.9586670  85.1773910
 124.0347420 127.2590800  84.2828760 125.7321600 127.0234900  84.0670790
 126.3462010 127.3414190  83.4051870 126.2771160 126.5383490  84.6866650
 132.1496780 142.9226530  81.4732630 131.6555060 143.3195400  80.7559760
 131.5410070 142.2975740  81.8669910 116.2542860 125.7029160  84.1809850
 116.8025850 125.5217210  83.4175960 116.3198170 124.9123270  84.7166160
 117.0274620 142.2934810  82.1910050 116.4334940 142.1619510  82.9300090
 117.0198460 141.4572950  81.7252150 126.4729640 125.5867040  80.3940080
 125.5989480 125.9202150  80.1913010 126.3640390 125.1140220  81.2191950
 127.3801620 127.7937910  81.7781800 127.0514980 126.9789670  81.3983530
 128.3283920 127.7507720  81.6547490 129.8336230 143.5649950  78.7519370
 129.3739200 144.3165760  78.3777390 129.2048690 142.8456420  78.6934170
 116.6586850 139.6593190  81.1418090 115.9320910 139.0398480  81.0744040
 116.7196000 140.0533800  80.2716170 120.2631950 141.8738190  77.9267500
 120.7796970 141.2625550  77.4015760 120.9129330 142.3766970  78.4178510
 123.0027450 142.7646680  78.7536480 123.2905260 142.5100980  77.8769490
 123.5150670 142.2124040  79.3442050 124.2204460 126.5036880  79.3332990
 123.4376250 126.9782380  79.6129750 123.9267390 125.5991710  79.2246170
 128.7725530 127.2059980  77.3782080 129.2133620 127.1505080  76.5303680
 128.5033120 128.1217990  77.4492260 130.6364100 126.8375220  75.3890900
 130.5752500 125.8936440  75.2421920 131.4156130 126.9455310  75.9344360
 114.9416850 142.9767580  74.3514850 114.7738890 142.3438260  75.0496740
 114.0751360 143.1826980  74.0009040 115.5644870 126.8084360  71.8546710
 116.3224230 126.9213240  71.2810740 115.1022040 127.6453560  71.8090140
 122.1058680 128.9223630  74.8449020 121.2933190 128.5480520  74.5044900
 122.6100320 128.1668710  75.1470210 126.6083660 125.5866080  76.0832090
 127.2113030 126.1586290  76.5580610 125.8676650 126.1505520  75.8605990
 129.7518260 125.9887640  71.3572370 129.9468890 126.8871090  71.6239800
 128.9648130 125.7574720  71.8505320 116.5479550 141.6700810  71.7964990
 116.0227170 142.0508840  71.0926950 116.4724130 142.2951580  72.5174700
 117.9370020 127.3348410  70.3948680 118.4662780 126.5478210  70.2656630
 118.5698340 128.0139600  70.6284210 120.1307860 127.0723550  73.4494070
 119.5010600 126.3710860  73.6164200 119.5913000 127.8327680  73.2327230
 123.0699810 143.6862780  86.1204680 123.9967120 143.4507050  86.1640640
 123.0550240 144.5134780  85.6390710 131.3044870 143.2288350  73.1178930
 131.4797060 142.5426090  72.4739850 130.6066440 143.7535400  72.7255600
 120.2563420 126.3507530  85.8846560 119.9747690 126.8541130  85.1207380
 120.6383120 125.5529280  85.5188690 119.1472520 143.6183190  70.6714240
 119.8791340 143.3342470  70.1238130 119.4066190 143.3796470  71.5613620
 118.3087310 139.7347920  70.6760570 117.6796190 140.2033020  71.2246400
 118.4235140 138.8897140  71.1106760 126.8578880 125.7661110  86.4627030
 126.7444330 126.0855720  87.3578550 127.6748620 126.1673620  86.1664310
 129.6377370 142.9132640  85.9445720 130.4302690 142.4181870  85.7371680
 129.9310520 143.5922780  86.5521330 125.7637030 133.7853580  56.8261770
 125.6831080 132.8708190  56.5553480 125.3501450 134.2820650  56.1201480
 123.8955070 135.5632600  58.7071040 123.1197170 135.0833040  58.9969610
 124.5468000 134.8838250  58.5327200 117.9120900 135.8752410  59.5846800
 117.0805780 135.6201120  59.9843310 118.5201880 135.9463180  60.3204720
 127.9162500 139.9692790  57.4870170 127.4544030 139.1980030  57.8157340
 128.7288050 139.9958860  57.9922620 117.8922160 139.9092500  59.7804820
 118.1950200 139.0190240  59.6015040 118.6365750 140.4662720  59.5527070
 116.3212850 130.8354300  53.3689190 115.4329550 131.1770270  53.2669070
 116.6054040 130.6354620  52.4770020 114.2845860 133.4359950  59.2528890
 114.8561970 132.6682150  59.2532530 114.2847400 133.7348710  58.3435500
 124.1425810 142.2550800  57.1074160 123.5237250 142.7108300  56.5368600
 124.9977590 142.4102260  56.7063860 123.3364060 138.2389790  58.7141200
 123.2672340 137.2979730  58.5530330 124.0983920 138.3291200  59.2863770
 115.5270730 128.8444310  61.0397820 115.3473570 127.9470060  61.3200580
 115.1250810 129.3916180  61.7144770 124.3669230 131.0460170  58.9410130
 124.7434050 130.1732050  58.8283800 124.2688740 131.3818870  58.0500570
 118.4974240 129.4185800  54.4027570 118.6040990 130.3189530  54.7096330
 117.5866600 129.3703770  54.1122220 128.1493350 128.5410610  55.8738470
 128.9702970 128.0507180  55.9163950 128.1827430 129.1308270  56.6270310
 116.1457400 131.3404810  59.6480160 116.8267510 131.6043180  60.2667560
 115.8305450 130.5005680  59.9818170 120.3381970 132.3872170  58.7352750
 120.8460190 132.8853140  59.3757770 120.8695210 131.6107370  58.5592110
 132.4392900 130.5577360  62.4382100 131.7345070 130.9459070  61.9197210
 132.7050820 131.2527650  63.0403030 118.6218070 127.0270730  63.0016170
 118.6236510 127.5443120  62.1962070 117.7922380 126.5500910  62.9786100
 125.0089160 137.1390040  54.5006070 124.3906430 137.6039490  53.9368790
 125.5212410 137.8317520  54.9175580 119.8720920 136.6665910  61.1789670
 119.5390300 137.2934830  61.8210740 120.0487600 137.1927790  60.3991340
 128.3854830 130.4810990  58.6466010 127.6810400 130.7695880  59.2269120
 128.7466990 131.2911100  58.2865570 118.3033400 128.7380690  61.0086620
 118.6450210 129.5822740  60.7140490 117.3649210 128.8864430  61.1251960
 119.0840020 138.6346710  62.9938850 119.7014020 139.3097790  62.7123300
 118.2233140 139.0434690  62.9026350 114.3772360 137.8246570  51.8745700
 114.0000340 138.3133670  51.1430600 114.6345430 138.4971850  52.5052230
 130.0017610 140.0986120  60.9093490 129.3181130 140.7685230  60.9010160
 130.5411900 140.2966770  60.1438350 131.4541750 129.9265780  59.0375220
 130.5066660 129.9604760  59.1690650 131.7791740 130.7404730  59.4224580
 121.9861290 126.2262960  57.3331210 122.2936270 125.6709850  56.6166710
 121.0561990 126.3607420  57.1504200 127.5376350 141.9430250  59.6238670
 127.5503510 141.5392540  58.7560930 126.9851570 142.7177540  59.5200100
 128.8321770 138.6646470  54.7128840 128.7218100 137.7220800  54.8378260
 128.8290020 139.0262110  55.5991600 126.9361790 136.8460090  60.9521280
 127.3530580 136.6320200  60.1174740 127.6601610 137.1032880  61.5229900
 124.3742050 134.2911790  54.0691330 123.4471330 134.2249170  54.2979800
 124.5266870 135.2291920  53.9546570 124.3611130 130.5628790  51.0658490
 123.4214800 130.7242750  51.1510950 124.6794390 131.2814470  50.5194480
 130.8823890 135.2447310  61.0437520 130.0542520 135.3140400  60.5687650
 131.4774370 135.8301620  60.5753350 128.4039340 135.8532090  54.5726580
 127.7851760 135.5151640  53.9252880 128.3863790 135.2091850  55.2805770
 127.8465900 132.0316630  61.9892390 127.4337080 132.8570340  62.2432380
 127.1141850 131.4461670  61.7968750 119.9798690 134.8176530  56.8511060
 119.5755690 134.1053780  56.3556960 120.0661810 134.4729770  57.7399100
 120.4480390 138.5044090  59.0150270 120.1508680 137.8989560  58.3358050
 121.3980210 138.5421400  58.9039630 118.6927310 131.5919740  60.6310100
 119.2441900 131.7015080  59.8563350 119.2070820 131.9657340  61.3465330
 128.5366000 142.0775960  62.6773370 128.0596560 142.8848150  62.4845980
 127.8527790 141.4254290  62.8299580 119.5398820 138.2425780  65.6658070
 118.6427350 138.4665750  65.9131470 119.5651690 138.3660720  64.7169470
 126.5804040 135.0918900  51.5799330 127.0197320 134.2541330  51.4337150
 127.2932460 135.7248300  51.6663470 118.3670040 135.1139100  64.2415440
 118.2277810 135.9861900  64.6102840 117.4851400 134.7711910  64.0963380
 124.6899420 140.0314970  55.5480570 125.1295330 140.7739300  55.1335960
 124.6286310 140.2741540  56.4719530 120.1650390 141.0560800  66.4500590
 120.1365820 141.4603750  65.5829020 120.0015360 140.1271160  66.2872190
 130.1621180 126.3461710  49.8940370 129.8493840 126.4388540  50.7939440
 130.9233650 126.9242740  49.8437800 116.6803320 133.7121510  54.3517710
 116.5600920 134.4383600  53.7398980 116.3704210 132.9424420  53.8745620
 132.1165210 141.8387900  67.7464760 132.5924930 142.3170790  68.4253840
 132.7372370 141.7705390  67.0210260 114.3188690 136.8836650  60.1586350
 114.3969110 137.0185420  59.2142070 114.9330370 136.1752540  60.3514470
 115.5636320 138.5836840  56.5692530 115.1564400 138.7251430  55.7146130
 116.4549330 138.2997000  56.3663740 131.5198460 139.0300750  64.9064770
 131.6461520 138.7912630  63.9881950 131.5619840 138.1985290  65.3786850
 125.3815200 142.7328750  63.4759580 125.8959870 142.6436760  64.2782010
 124.5384280 143.0788450  63.7687490 127.3569600 143.0184090  52.9043580
 127.1970740 142.7287030  53.8025410 127.1916310 142.2424220  52.3688810
 119.8357980 142.7982620  54.6815200 119.6600460 141.8818160  54.4683000
 118.9813720 143.1569910  54.9213000 127.0595730 140.5271650  51.4641580
 126.3660890 140.5248940  50.8043860 127.8018590 140.1030970  51.0335750
 126.6245660 142.1534360  55.5390070 127.0802610 141.3723740  55.8528690
 126.9638180 142.8641180  56.0831250 131.3722470 131.0833210  65.8714510
 130.7566740 131.5912880  65.3429970 131.0518890 130.1831540  65.8140450
 114.3748210 137.9250820  62.6980810 114.5379250 137.4556180  61.8800180
 114.8400660 137.4174380  63.3629650 119.1466980 127.0556580  57.7341380
 118.7035130 127.8366120  57.4025900 119.7051970 127.3786470  58.4412320
 123.4336790 129.9225100  63.3376700 122.9716160 130.1308120  64.1496640
 123.0314900 129.1084450  63.0347370 128.4341300 131.1434050  64.4673360
 127.5834890 130.8439800  64.7882430 128.2743090 131.3876060  63.5557180
 125.5291010 132.6435800  66.5672150 125.8544420 131.8099550  66.2274380
 126.3171340 133.1664320  66.7150480 122.2625800 126.6767280  52.6147210
 121.6379980 126.6727150  53.3400520 122.1755920 125.8098240  52.2183180
 121.1842880 127.6003910  59.5930980 121.4815210 128.5066740  59.5123000
 121.7328440 127.1122690  58.9790550 118.9381200 132.1790150  55.4622630
 118.7122120 131.9627320  56.3669250 118.1573730 132.6118610  55.1168600
 126.1678960 132.1853520  54.0613280 125.5687850 132.9089320  53.8776900
 126.7158570 132.1230300  53.2789730 121.3780410 133.0775730  66.1282900
 121.2824010 132.1370460  65.9783300 122.2212390 133.2990800  65.7330970
 124.7743830 130.8217060  56.0916560 125.1673400 131.1389260  55.2785250
 125.1360680 129.9428940  56.2061080 116.5090950 129.4889400  64.2816680
 116.1154340 130.3364610  64.4889460 115.8209350 128.8515770  64.4725320
 123.0836000 129.5724370  67.3513420 122.3934320 129.3796570  67.9859510
 123.8268300 129.8559010  67.8837720 113.8108000 127.4117860  58.3146760
 113.5221050 127.9820720  59.0271740 114.5553760 126.9322310  58.6777990
 113.9978230 131.3537980  49.5249480 113.9152900 132.2968740  49.6664470
 113.6461290 131.2112890  48.6461830 125.3598970 133.4122810  60.1867340
 124.6280090 133.9209620  60.5357440 124.9623310 132.5952790  59.8856120
 121.7976360 130.0877010  58.5919830 121.8012420 129.6466960  57.7424370
 122.6927480 130.4094340  58.6991650 117.6478740 129.9703500  57.5514040
 117.3078790 130.4478730  58.3081090 116.8856060 129.5168620  57.1915140
 121.8596510 131.0889090  51.5826590 121.9809330 131.0475570  52.5312410
 121.4745020 131.9513240  51.4273320 125.8224880 128.8656490  59.5990280
 125.8397620 129.3165140  60.4432130 125.5740460 127.9662130  59.8123720
 120.8718010 133.3990230  50.9809890 120.3034910 132.9508480  50.3545800
 121.5807010 133.7583010  50.4475040 129.2495630 126.2788670  65.4376660
 129.5741400 125.5478330  65.9634640 129.2852140 125.9602310  64.5357650
 115.9487190 137.3002250  64.8576620 115.5641980 136.6595920  65.4559580
 116.2599380 138.0038370  65.4271350 122.0984330 134.1478790  60.3385240
 122.4654460 133.6737360  61.0846580 121.9089390 135.0220360  60.6793580
 114.9624820 128.8922480  56.4678710 114.6771740 128.5278150  57.3057330
 114.9003680 128.1602940  55.8541850 119.8883700 133.1887430  62.6569450
 119.5840770 134.0679410  62.8819810 120.8430160 133.2487220  62.6926890
 118.4165490 137.3948420  53.2536300 117.6427750 136.8546040  53.0935020
 119.1460120 136.8755030  52.9154060 129.1753470 136.3913780  59.0462690
 129.8952590 136.8869070  58.6558800 128.9735290 135.7131670  58.4016560
 124.6363410 127.7851740  53.1892080 123.8228020 127.2864910  53.1137390
 124.4425360 128.6249990  52.7728430 124.5572270 136.4622840  64.9331690
 124.4909580 135.5418510  64.6789280 123.9277410 136.5598280  65.6476330
 127.3511800 132.1571390  51.4854240 128.2391420 132.4688620  51.3105580
 127.3216890 131.2843640  51.0934820 118.4602890 137.0628800  56.8915110
 118.9781560 136.2597060  56.8372000 118.0086910 137.0007940  57.7331940
 123.3472390 138.3295080  52.1642410 123.6888090 139.0737310  51.6685730
 122.5185100 138.6426200  52.5267240 115.9447430 134.0290170  63.8040810
 115.5862370 134.6944020  64.3914150 115.6501990 133.1973720  64.1753430
 119.1460550 134.4874410  66.6880360 118.8460690 134.6331590  65.7908180
 119.9171790 133.9279700  66.5953750 124.4889000 139.2843410  64.6835490
 124.5033540 138.3524370  64.4654400 123.7814100 139.3703170  65.3225260
 129.6226070 133.4683230  50.9534100 129.5389790 133.8997450  50.1030540
 130.3420260 133.9281580  51.3860920 130.7000210 135.9250750  64.0304070
 129.9748400 136.5179530  63.8333460 131.2275670 135.9174290  63.2317440
 130.6513320 140.3225490  53.6816230 130.0089480 139.6681110  53.9559950
 130.2643980 140.7280580  52.9056900 126.2299800 137.6510920  57.5287920
 126.5823620 137.0539050  56.8689290 125.3462130 137.3255150  57.6996170
 122.3163080 138.4108610  54.9358330 123.0034210 138.9577820  55.3165920
 121.5295500 138.9549340  54.9707940 114.4555480 134.0281430  50.4275410
 115.3250330 134.3106230  50.7111330 113.9645800 134.8417300  50.3124220
 121.6190290 135.4154640  54.5483690 122.0753070 136.2259890  54.7743880
 121.2678500 135.0977780  55.3802180 123.9222900 140.9260980  61.7775990
 124.5665120 141.1320360  62.4549410 124.2852340 140.1649380  61.3246840
 117.5202070 125.7592290  55.0206210 117.3916700 125.7510190  55.9691130
 116.6964090 126.0975380  54.6697220 125.1954980 138.9293330  60.4953440
 125.8377210 138.2286490  60.6085610 125.7204330 139.7091770  60.3150330
 129.0410700 139.2141950  50.2192580 128.8148280 138.4972390  50.8117220
 128.6506900 138.9654390  49.3814330 126.9692600 139.7288230  63.6989500
 127.3048840 140.3154920  64.3767420 126.0492940 139.5980940  63.9287290
 114.8226730 143.2408810  50.9937040 115.1824370 143.8398150  50.3394310
 114.6819070 143.7868700  51.7672070 114.5196000 127.5183410  64.4812910
 113.8054520 127.7180330  65.0865520 114.9391040 126.7422980  64.8527710
 128.6226950 137.1313890  51.8806740 128.3348650 137.5926580  52.6684620
 129.4179120 136.6711660  52.1490960 114.8068590 141.5063670  65.4679440
 114.9159710 140.5658410  65.3274830 114.1549150 141.7718420  64.8193170
 122.7981180 139.7779560  66.8677560 122.4778050 139.0588800  67.4123250
 122.1239540 140.4534630  66.9413620 120.8395350 140.6240010  51.8110710
 120.8305450 141.3569700  51.1955220 119.9193710 140.3771590  51.9037670
 116.4401990 135.8454900  52.5557470 115.8329940 136.5853800  52.5652770
 116.9151340 135.9354260  51.7295670 126.0134780 130.0105720  62.2314360
 126.3815600 129.1900930  62.5593930 125.1532980 130.0707610  62.6470010
 129.3796810 128.9662660  53.0401920 128.7509970 129.0708330  52.3260150
 128.8848730 129.1859440  53.8295800 123.8254950 140.6868250  50.4735900
 123.9266930 140.4832240  49.5437880 122.9256690 140.4326530  50.6783680
 121.3480840 131.2448610  54.4559800 120.6396990 131.7134950  54.8973410
 121.6325320 130.5870620  55.0904990 122.9736770 132.6645310  62.4552330
 123.4722020 133.1391130  63.1204180 123.1159720 131.7408830  62.6622360
 125.3796270 127.9699270  55.8955590 125.2564050 127.9885400  54.9465100
 126.3280830 128.0178210  56.0153990 122.4673060 143.2054570  55.1683570
 122.7214560 143.1675960  54.2462940 121.5185540 143.0787900  55.1611820
 119.5515860 129.5533690  51.8310510 120.4006390 129.9903840  51.7650700
 119.1847130 129.8653950  52.6582570 130.1803630 128.8813270  63.2980720
 129.6777230 129.6218670  63.6374530 130.9960290 129.2697270  62.9817510
 128.4725640 134.1246450  56.7442080 127.5315780 134.1396680  56.9189770
 128.7869710 133.3382410  57.1902380 118.4507280 135.8066050  50.3046040
 119.2170550 135.6947410  50.8671470 118.5281970 135.1104020  49.6522810
 117.1454040 133.2391120  50.9878930 117.2257630 132.2918630  51.0996330
 118.0373790 133.5698000  51.0939590 130.4751220 141.2955300  58.4196340
 130.5998640 142.1186470  58.8920150 131.3416780 141.0846030  58.0720490
 117.9468750 143.3886510  58.0913470 118.6831230 142.8401970  58.3622040
 118.3309670 144.2542520  57.9519460 114.8314230 139.4560080  53.9654980
 113.9054010 139.6981220  53.9560390 115.2970660 140.2834340  53.8439730
 116.9527030 142.5732580  67.2799050 117.7539760 142.8944630  67.6934450
 116.4378850 142.2128160  68.0018960 121.0571060 142.5616820  49.9139040
 121.8499670 142.8505650  49.4620830 120.5375410 142.1308990  49.2351520
 125.7891660 138.6812450  67.2274460 125.1829820 138.7044050  66.4870210
 125.4845770 137.9495490  67.7641710 127.2192030 142.4092740  65.8383870
 128.1713780 142.3250760  65.7884110 127.0720250 143.0734450  66.5117660
 130.1101230 141.7886950  51.3375780 129.8242740 141.3752090  50.5229960
 129.9120780 142.7174660  51.2176300 114.6724840 135.0606040  66.2235100
 115.1763860 134.4813320  66.7951330 113.9332260 135.3446270  66.7611470
 121.5748460 137.7820230  49.7781390 121.4699100 137.1672580  50.5042770
 121.4072680 137.2586120  48.9944400 121.7262780 136.4677030  65.7570620
 120.9608450 137.0362030  65.6725290 121.9078740 136.1753240  64.8638850
 124.8151190 136.8440260  50.3823380 124.2661290 137.2909560  51.0266120
 125.4370450 136.3389510  50.9061050 128.8686130 138.1982360  66.3145640
 129.6095600 138.5358120  65.8113100 128.1058810 138.3674420  65.7615410
 116.7047920 133.2035630  67.1185170 116.7453260 132.9049500  68.0270400
 117.5593420 133.6043240  66.9592690 120.4826310 135.8031180  52.2788680
 120.9042730 135.6371050  53.1220070 120.6077150 134.9931410  51.7843820
 118.6453730 131.7827730  65.0859660 118.1150190 131.2918680  64.4583000
 119.3141800 132.2111930  64.5517590 122.9953950 134.8268790  49.5265780
 123.5159610 134.1117810  49.1606930 123.6422350 135.4654660  49.8266290
 127.5431790 136.2497190  64.8500850 127.9572810 136.4042270  65.6991270
 126.6082790 136.3752410  65.0126630 128.0153960 133.5893350  66.8540000
 128.5974730 132.8345670  66.7660480 128.1915730 134.1200790  66.0771480
 119.1326030 128.7490100  65.1656950 119.0382900 128.1310850  64.4407820
 118.5523420 129.4756390  64.9386860 121.8987470 127.3063340  62.1984340
 121.4504770 127.3287600  61.3529890 121.2652670 126.9082360  62.7954640
 122.3047020 136.2017670  62.8196780 122.7235130 137.0450400  62.6473020
 121.3855650 136.3389710  62.5903560 124.6410920 133.9333850  64.2034620
 124.7607130 133.3374990  64.9429460 125.5004920 133.9703540  63.7835920
 126.9798820 134.4871040  62.7797130 126.4534040 135.0113660  62.1762270
 127.3230160 135.1198430  63.4106860 119.3785210 131.8764410  49.2246840
 119.1774270 131.0131770  49.5860180 119.2077260 131.7897770  48.2868440
 120.1554440 142.5070680  63.9354510 119.6175530 143.2316740  63.6163210
 120.4088400 142.0301020  63.1451850 121.4079690 130.4755200  65.4610440
 121.9979380 130.1671050  66.1488260 120.5899930 130.0034950  65.6170340
 126.2273120 130.0921010  65.6943460 125.5388640 129.4302550  65.6293450
 126.9479140 129.6459280  66.1391920 126.8573520 126.6872640  51.7533720
 127.1375810 125.8440540  52.1093140 126.0839250 126.9195750  52.2672470
 118.1768010 128.9765030  49.2124720 118.4793910 128.9832460  48.3043870
 118.9162600 128.6262890  49.7092380 123.0116650 143.7421890  64.1941160
 122.9375350 144.6457030  64.5013530 122.1095490 143.4233790  64.1663230
 121.3952940 127.9199650  50.1980920 121.0474940 127.2423640  49.6183370
 121.5965710 127.4589160  51.0124310 123.5601980 142.9080400  51.8167520
 124.4552770 143.2465370  51.8386280 123.5919610 142.1859810  51.1891800
 117.1998140 138.2807450  50.0454520 117.6373010 138.8237120  50.7012100
 117.6845870 137.4554400  50.0550860 114.4143940 141.0696480  57.4974780
 114.7446950 140.2017540  57.2653420 114.8434940 141.2755000  58.3279740
 119.0105860 139.4005490  55.1576750 118.7101400 139.2770460  56.0580660
 118.9043350 138.5414080  54.7492480 114.9034150 141.9367070  60.2356410
 114.4665140 142.1167870  61.0680560 115.4711830 142.6941690  60.0938130
 130.5396330 141.4384070  64.5233720 129.9398320 141.4976630  63.7797640
 130.6690230 140.4989050  64.6530570 131.7797780 139.1801890  49.8603430
 130.9490740 139.2478540  50.3310660 131.9569610 140.0706010  49.5570290
 131.2354240 135.9249370  52.3637630 131.9973150 136.4946020  52.4697320
 131.2508610 135.3576570  53.1345940 114.7358580 134.4487300  56.5945290
 114.0807420 134.1798940  55.9504990 115.5736530 134.3391780  56.1447270
 132.2414210 136.7799470  57.2079560 132.6123040 135.9966790  56.8015530
 132.8816140 137.4688570  57.0296860 129.2247970 138.1636050  62.6209880
 128.4107810 138.5933210  62.8835670 129.6322170 138.7754460  62.0078930
 131.2873410 136.2183740  49.5210150 131.5622250 137.1262620  49.3929370
 131.0984150 136.1546270  50.4572140 127.6849020 129.2428590  50.8163780
 128.1033900 129.0559570  49.9760440 127.3785080 128.3907640  51.1266710
 131.1838750 134.1552730  54.5139580 130.8082350 133.3880660  54.0820870
 130.4541870 134.5375430  55.0014510 115.7734510 134.8339870  61.1348630
 116.1407550 134.7467270  62.0144650 115.2045330 134.0706420  61.0355490
 130.5738370 133.3024250  64.1479100 130.3424460 133.0737000  63.2477050
 130.8342920 134.2223800  64.1023990 115.3250510 131.7448960  65.0407050
 114.4306560 131.7115720  65.3800760 115.8648060 131.9435750  65.8058300
 129.0126440 128.5280680  66.9258800 129.8896620 128.5364080  67.3092800
 129.0247280 127.7911520  66.3151150 113.9496660 131.6586230  52.5370620
 113.0460740 131.9216430  52.3622280 114.4337280 131.9297400  51.7570580
 130.4589710 132.3810220  57.8146820 130.9827190 131.8872870  57.1836990
 131.0449130 132.5160580  58.5594390 130.6379430 132.4650090  61.3366370
 129.6882140 132.4313630  61.4511360 130.8192440 133.3750200  61.1016140
 116.4923870 130.7151770  50.4465000 117.2015570 130.2934990  49.9612280
 115.7763810 130.7827000  49.8148350 116.1398030 126.7691100  49.4867650
 116.8626160 127.3100040  49.8048870 116.4122550 126.4954520  48.6109190
 129.9489680 131.6383570  53.7539230 130.4448800 131.4054440  54.5388110
 129.7505750 130.7995410  53.3376870 131.3776840 130.2744520  56.2876910
 131.2676120 130.1200560  57.2259180 132.1384430 129.7465460  56.0452320
 129.7242560 126.2138650  62.7459910 130.3614780 126.8272790  63.1119100
 129.8717450 126.2499310  61.8009140 132.2667110 128.1052440  49.5283050
 133.1916420 127.9733620  49.3201340 132.2442900 128.1845260  50.4819500
 132.3405600 128.8763100  52.1539760 131.5457100 128.8108220  52.6832670
 132.5448880 129.8113740  52.1425110 129.2824020 142.9154650  56.1478150
 129.8783090 142.5939220  55.4712570 129.5402170 142.4426470  56.9391420
 117.1886590 139.3472560  66.2968780 117.1456220 138.9765470  67.1783240
 117.3197600 140.2850130  66.4370600 120.8892620 140.9032150  61.8978500
 120.6483980 141.1706710  61.0109020 121.8295260 141.0737880  61.9529360
 123.0947040 127.3664840  65.6535010 123.0335930 127.9586670  66.4030420
 124.0347420 127.2590800  65.5085270 125.7321600 127.0234900  65.2927300
 126.3462010 127.3414190  64.6308380 126.2771160 126.5383490  65.9123160
 132.1496780 142.9226530  62.6989140 131.6555060 143.3195400  61.9816270
 131.5410070 142.2975740  63.0926420 116.2542860 125.7029160  65.4066360
 116.8025850 125.5217210  64.6432470 116.3198170 124.9123270  65.9422670
 117.0274620 142.2934810  63.4166560 116.4334940 142.1619510  64.1556600
 117.0198460 141.4572950  62.9508660 126.4729640 125.5867040  61.6196590
 125.5989480 125.9202150  61.4169520 126.3640390 125.1140220  62.4448460
 127.3801620 127.7937910  63.0038310 127.0514980 126.9789670  62.6240040
 128.3283920 127.7507720  62.8804000 129.8336230 143.5649950  59.9775880
 129.3739200 144.3165760  59.6033900 129.2048690 142.8456420  59.9190680
 116.6586850 139.6593190  62.3674600 115.9320910 139.0398480  62.3000550
 116.7196000 140.0533800  61.4972680 120.2631950 141.8738190  59.1524010
 120.7796970 141.2625550  58.6272270 120.9129330 142.3766970  59.6435020
 123.0027450 142.7646680  59.9792990 123.2905260 142.5100980  59.1026000
 123.5150670 142.2124040  60.5698560 124.2204460 126.5036880  60.5589500
 123.4376250 126.9782380  60.8386260 123.9267390 125.5991710  60.4502680
 128.7725530 127.2059980  58.6038590 129.2133620 127.1505080  57.7560190
 128.5033120 128.1217990  58.6748770 130.6364100 126.8375220  56.6147410
 130.5752500 125.8936440  56.4678430 131.4156130 126.9455310  57.1600870
 114.9416850 142.9767580  55.5771360 114.7738890 142.3438260  56.2753250
 114.0751360 143.1826980  55.2265550 115.5644870 126.8084360  53.0803220
 116.3224230 126.9213240  52.5067250 115.1022040 127.6453560  53.0346650
 122.1058680 128.9223630  56.0705530 121.2933190 128.5480520  55.7301410
 122.6100320 128.1668710  56.3726720 126.6083660 125.5866080  57.3088600
 127.2113030 126.1586290  57.7837120 125.8676650 126.1505520  57.0862500
 129.7518260 125.9887640  52.5828880 129.9468890 126.8871090  52.8496310
 128.9648130 125.7574720  53.0761830 116.5479550 141.6700810  53.0221500
 116.0227170 142.0508840  52.3183460 116.4724130 142.2951580  53.7431210
 117.9370020 127.3348410  51.6205190 118.4662780 126.5478210  51.4913140
 118.5698340 128.0139600  51.8540720 120.1307860 127.0723550  54.6750580
 119.5010600 126.3710860  54.8420710 119.5913000 127.8327680  54.4583740
 123.0699810 143.6862780  67.3461190 123.9967120 143.4507050  67.3897150
 123.0550240 144.5134780  66.8647220 131.3044870 143.2288350  54.3435440
 131.4797060 142.5426090  53.6996360 130.6066440 143.7535400  53.9512110
 120.2563420 126.3507530  67.1103070 119.9747690 126.8541130  66.3463890
 120.6383120 125.5529280  66.7445200 119.1472520 143.6183190  51.8970750
 119.8791340 143.3342470  51.3494640 119.4066190 143.3796470  52.7870130
 118.3087310 139.7347920  51.9017080 117.6796190 140.2033020  52.4502910
 118.4235140 138.8897140  52.3363270 126.8578880 125.7661110  67.6883540
 126.7444330 126.0855720  68.5835060 127.6748620 126.1673620  67.3920820
 129.6377370 142.9132640  67.1702230 130.4302690 142.4181870  66.9628190
 129.9310520 143.5922780  67.7777840 125.7637030 133.7853580  38.0518280
 125.6831080 132.8708190  37.7809990 125.3501450 134.2820650  37.3457990
 123.8955070 135.5632600  39.9327550 123.1197170 135.0833040  40.2226120
 124.5468000 134.8838250  39.7583710 117.9120900 135.8752410  40.8103310
 117.0805780 135.6201120  41.2099820 118.5201880 135.9463180  41.5461230
 127.9162500 139.9692790  38.7126680 127.4544030 139.1980030  39.0413850
 128.7288050 139.9958860  39.2179130 117.8922160 139.9092500  41.0061330
 118.1950200 139.0190240  40.8271550 118.6365750 140.4662720  40.7783580
 116.3212850 130.8354300  34.5945700 115.4329550 131.1770270  34.4925580
 116.6054040 130.6354620  33.7026530 114.2845860 133.4359950  40.4785400
 114.8561970 132.6682150  40.4789040 114.2847400 133.7348710  39.5692010
 124.1425810 142.2550800  38.3330670 123.5237250 142.7108300  37.7625110
 124.9977590 142.4102260  37.9320370 123.3364060 138.2389790  39.9397710
 123.2672340 137.2979730  39.7786840 124.0983920 138.3291200  40.5120280
 115.5270730 128.8444310  42.2654330 115.3473570 127.9470060  42.5457090
 115.1250810 129.3916180  42.9401280 124.3669230 131.0460170  40.1666640
 124.7434050 130.1732050  40.0540310 124.2688740 131.3818870  39.2757080
 118.4974240 129.4185800  35.6284080 118.6040990 130.3189530  35.9352840
 117.5866600 129.3703770  35.3378730 128.1493350 128.5410610  37.0994980
 128.9702970 128.0507180  37.1420460 128.1827430 129.1308270  37.8526820
 116.1457400 131.3404810  40.8736670 116.8267510 131.6043180  41.4924070
 115.8305450 130.5005680  41.2074680 120.3381970 132.3872170  39.9609260
 120.8460190 132.8853140  40.6014280 120.8695210 131.6107370  39.7848620
 132.4392900 130.5577360  43.6638610 131.7345070 130.9459070  43.1453720
 132.7050820 131.2527650  44.2659540 118.6218070 127.0270730  44.2272680
 118.6236510 127.5443120  43.4218580 117.7922380 126.5500910  44.2042610
 125.0089160 137.1390040  35.7262580 124.3906430 137.6039490  35.1625300
 125.5212410 137.8317520  36.1432090 119.8720920 136.6665910  42.4046180
 119.5390300 137.2934830  43.0467250 120.0487600 137.1927790  41.6247850
 128.3854830 130.4810990  39.8722520 127.6810400 130.7695880  40.4525630
 128.7466990 131.2911100  39.5122080 118.3033400 128.7380690  42.2343130
 118.6450210 129.5822740  41.9397000 117.3649210 128.8864430  42.3508470
 119.0840020 138.6346710  44.2195360 119.7014020 139.3097790  43.9379810
 118.2233140 139.0434690  44.1282860 114.3772360 137.8246570  33.1002210
 114.0000340 138.3133670  32.3687110 114.6345430 138.4971850  33.7308740
 130.0017610 140.0986120  42.1350000 129.3181130 140.7685230  42.1266670
 130.5411900 140.2966770  41.3694860 131.4541750 129.9265780  40.2631730
 130.5066660 129.9604760  40.3947160 131.7791740 130.7404730  40.6481090
 121.9861290 126.2262960  38.5587720 122.2936270 125.6709850  37.8423220
 121.0561990 126.3607420  38.3760710 127.5376350 141.9430250  40.8495180
 127.5503510 141.5392540  39.9817440 126.9851570 142.7177540  40.7456610
 128.8321770 138.6646470  35.9385350 128.7218100 137.7220800  36.0634770
 128.8290020 139.0262110  36.8248110 126.9361790 136.8460090  42.1777790
 127.3530580 136.6320200  41.3431250 127.6601610 137.1032880  42.7486410
 124.3742050 134.2911790  35.2947840 123.4471330 134.2249170  35.5236310
 124.5266870 135.2291920  35.1803080 124.3611130 130.5628790  32.2915000
 123.4214800 130.7242750  32.3767460 124.6794390 131.2814470  31.7450990
 130.8823890 135.2447310  42.2694030 130.0542520 135.3140400  41.7944160
 131.4774370 135.8301620  41.8009860 128.4039340 135.8532090  35.7983090
 127.7851760 135.5151640  35.1509390 128.3863790 135.2091850  36.5062280
 127.8465900 132.0316630  43.2148900 127.4337080 132.8570340  43.4688890
 127.1141850 131.4461670  43.0225260 119.9798690 134.8176530  38.0767570
 119.5755690 134.1053780  37.5813470 120.0661810 134.4729770  38.9655610
 120.4480390 138.5044090  40.2406780 120.1508680 137.8989560  39.5614560
 121.3980210 138.5421400  40.1296140 118.6927310 131.5919740  41.8566610
 119.2441900 131.7015080  41.0819860 119.2070820 131.9657340  42.5721840
 128.5366000 142.0775960  43.9029880 128.0596560 142.8848150  43.7102490
 127.8527790 141.4254290  44.0556090 119.5398820 138.2425780  46.8914580
 118.6427350 138.4665750  47.1387980 119.5651690 138.3660720  45.9425980
 126.5804040 135.0918900  32.8055840 127.0197320 134.2541330  32.6593660
 127.2932460 135.7248300  32.8919980 118.3670040 135.1139100  45.4671950
 118.2277810 135.9861900  45.8359350 117.4851400 134.7711910  45.3219890
 124.6899420 140.0314970  36.7737080 125.1295330 140.7739300  36.3592470
 124.6286310 140.2741540  37.6976040 120.1650390 141.0560800  47.6757100
 120.1365820 141.4603750  46.8085530 120.0015360 140.1271160  47.5128700
 130.1621180 126.3461710  31.1196880 129.8493840 126.4388540  32.0195950
 130.9233650 126.9242740  31.0694310 116.6803320 133.7121510  35.5774220
 116.5600920 134.4383600  34.9655490 116.3704210 132.9424420  35.1002130
 132.1165210 141.8387900  48.9721270 132.5924930 142.3170790  49.6510350
 132.7372370 141.7705390  48.2466770 114.3188690 136.8836650  41.3842860
 114.3969110 137.0185420  40.4398580 114.9330370 136.1752540  41.5770980
 115.5636320 138.5836840  37.7949040 115.1564400 138.7251430  36.9402640
 116.4549330 138.2997000  37.5920250 131.5198460 139.0300750  46.1321280
 131.6461520 138.7912630  45.2138460 131.5619840 138.1985290  46.6043360
 125.3815200 142.7328750  44.7016090 125.8959870 142.6436760  45.5038520
 124.5384280 143.0788450  44.9944000 127.3569600 143.0184090  34.1300090
 127.1970740 142.7287030  35.0281920 127.1916310 142.2424220  33.5945320
 119.8357980 142.7982620  35.9071710 119.6600460 141.8818160  35.6939510
 118.9813720 143.1569910  36.1469510 127.0595730 140.5271650  32.6898090
 126.3660890 140.5248940  32.0300370 127.8018590 140.1030970  32.2592260
 126.6245660 142.1534360  36.7646580 127.0802610 141.3723740  37.0785200
 126.9638180 142.8641180  37.3087760 131.3722470 131.0833210  47.0971020
 130.7566740 131.5912880  46.5686480 131.0518890 130.1831540  47.0396960
 114.3748210 137.9250820  43.9237320 114.5379250 137.4556180  43.1056690
 114.8400660 137.4174380  44.5886160 119.1466980 127.0556580  38.9597890
 118.7035130 127.8366120  38.6282410 119.7051970 127.3786470  39.6668830
 123.4336790 129.9225100  44.5633210 122.9716160 130.1308120  45.3753150
 123.0314900 129.1084450  44.2603880 128.4341300 131.1434050  45.6929870
 127.5834890 130.8439800  46.0138940 128.2743090 131.3876060  44.7813690
 125.5291010 132.6435800  47.7928660 125.8544420 131.8099550  47.4530890
 126.3171340 133.1664320  47.9406990 122.2625800 126.6767280  33.8403720
 121.6379980 126.6727150  34.5657030 122.1755920 125.8098240  33.4439690
 121.1842880 127.6003910  40.8187490 121.4815210 128.5066740  40.7379510
 121.7328440 127.1122690  40.2047060 118.9381200 132.1790150  36.6879140
 118.7122120 131.9627320  37.5925760 118.1573730 132.6118610  36.3425110
 126.1678960 132.1853520  35.2869790 125.5687850 132.9089320  35.1033410
 126.7158570 132.1230300  34.5046240 121.3780410 133.0775730  47.3539410
 121.2824010 132.1370460  47.2039810 122.2212390 133.2990800  46.9587480
 124.7743830 130.8217060  37.3173070 125.1673400 131.1389260  36.5041760
 125.1360680 129.9428940  37.4317590 116.5090950 129.4889400  45.5073190
 116.1154340 130.3364610  45.7145970 115.8209350 128.8515770  45.6981830
 123.0836000 129.5724370  48.5769930 122.3934320 129.3796570  49.2116020
 123.8268300 129.8559010  49.1094230 113.8108000 127.4117860  39.5403270
 113.5221050 127.9820720  40.2528250 114.5553760 126.9322310  39.9034500
 113.9978230 131.3537980  30.7505990 113.9152900 132.2968740  30.8920980
 113.6461290 131.2112890  29.8718340 125.3598970 133.4122810  41.4123850
 124.6280090 133.9209620  41.7613950 124.9623310 132.5952790  41.1112630
 121.7976360 130.0877010  39.8176340 121.8012420 129.6466960  38.9680880
 122.6927480 130.4094340  39.9248160 117.6478740 129.9703500  38.7770550
 117.3078790 130.4478730  39.5337600 116.8856060 129.5168620  38.4171650
 121.8596510 131.0889090  32.8083100 121.9809330 131.0475570  33.7568920
 121.4745020 131.9513240  32.6529830 125.8224880 128.8656490  40.8246790
 125.8397620 129.3165140  41.6688640 125.5740460 127.9662130  41.0380230
 120.8718010 133.3990230  32.2066400 120.3034910 132.9508480  31.5802310
 121.5807010 133.7583010  31.6731550 129.2495630 126.2788670  46.6633170
 129.5741400 125.5478330  47.1891150 129.2852140 125.9602310  45.7614160
 115.9487190 137.3002250  46.0833130 115.5641980 136.6595920  46.6816090
 116.2599380 138.0038370  46.6527860 122.0984330 134.1478790  41.5641750
 122.4654460 133.6737360  42.3103090 121.9089390 135.0220360  41.9050090
 114.9624820 128.8922480  37.6935220 114.6771740 128.5278150  38.5313840
 114.9003680 128.1602940  37.0798360 119.8883700 133.1887430  43.8825960
 119.5840770 134.0679410  44.1076320 120.8430160 133.2487220  43.9183400
 118.4165490 137.3948420  34.4792810 117.6427750 136.8546040  34.3191530
 119.1460120 136.8755030  34.1410570 129.1753470 136.3913780  40.2719200
 129.8952590 136.8869070  39.8815310 128.9735290 135.7131670  39.6273070
 124.6363410 127.7851740  34.4148590 123.8228020 127.2864910  34.3393900
 124.4425360 128.6249990  33.9984940 124.5572270 136.4622840  46.1588200
 124.4909580 135.5418510  45.9045790 123.9277410 136.5598280  46.8732840
 127.3511800 132.1571390  32.7110750 128.2391420 132.4688620  32.5362090
 127.3216890 131.2843640  32.3191330 118.4602890 137.0628800  38.1171620
 118.9781560 136.2597060  38.0628510 118.0086910 137.0007940  38.9588450
 123.3472390 138.3295080  33.3898920 123.6888090 139.0737310  32.8942240
 122.5185100 138.6426200  33.7523750 115.9447430 134.0290170  45.0297320
 115.5862370 134.6944020  45.6170660 115.6501990 133.1973720  45.4009940
 119.1460550 134.4874410  47.9136870 118.8460690 134.6331590  47.0164690
 119.9171790 133.9279700  47.8210260 124.4889000 139.2843410  45.9092000
 124.5033540 138.3524370  45.6910910 123.7814100 139.3703170  46.5481770
 129.6226070 133.4683230  32.1790610 129.5389790 133.8997450  31.3287050
 130.3420260 133.9281580  32.6117430 130.7000210 135.9250750  45.2560580
 129.9748400 136.5179530  45.0589970 131.2275670 135.9174290  44.4573950
 130.6513320 140.3225490  34.9072740 130.0089480 139.6681110  35.1816460
 130.2643980 140.7280580  34.1313410 126.2299800 137.6510920  38.7544430
 126.5823620 137.0539050  38.0945800 125.3462130 137.3255150  38.9252680
 122.3163080 138.4108610  36.1614840 123.0034210 138.9577820  36.5422430
 121.5295500 138.9549340  36.1964450 114.4555480 134.0281430  31.6531920
 115.3250330 134.3106230  31.9367840 113.9645800 134.8417300  31.5380730
 121.6190290 135.4154640  35.7740200 122.0753070 136.2259890  36.0000390
 121.2678500 135.0977780  36.6058690 123.9222900 140.9260980  43.0032500
 124.5665120 141.1320360  43.6805920 124.2852340 140.1649380  42.5503350
 117.5202070 125.7592290  36.2462720 117.3916700 125.7510190  37.1947640
 116.6964090 126.0975380  35.8953730 125.1954980 138.9293330  41.7209950
 125.8377210 138.2286490  41.8342120 125.7204330 139.7091770  41.5406840
 129.0410700 139.2141950  31.4449090 128.8148280 138.4972390  32.0373730
 128.6506900 138.9654390  30.6070840 126.9692600 139.7288230  44.9246010
 127.3048840 140.3154920  45.6023930 126.0492940 139.5980940  45.1543800
 114.8226730 143.2408810  32.2193550 115.1824370 143.8398150  31.5650820
 114.6819070 143.7868700  32.9928580 114.5196000 127.5183410  45.7069420
 113.8054520 127.7180330  46.3122030 114.9391040 126.7422980  46.0784220
 128.6226950 137.1313890  33.1063250 128.3348650 137.5926580  33.8941130
 129.4179120 136.6711660  33.3747470 114.8068590 141.5063670  46.6935950
 114.9159710 140.5658410  46.5531340 114.1549150 141.7718420  46.0449680
 122.7981180 139.7779560  48.0934070 122.4778050 139.0588800  48.6379760
 122.1239540 140.4534630  48.1670130 120.8395350 140.6240010  33.0367220
 120.8305450 141.3569700  32.4211730 119.9193710 140.3771590  33.1294180
 116.4401990 135.8454900  33.7813980 115.8329940 136.5853800  33.7909280
 116.9151340 135.9354260  32.9552180 126.0134780 130.0105720  43.4570870
 126.3815600 129.1900930  43.7850440 125.1532980 130.0707610  43.8726520
 129.3796810 128.9662660  34.2658430 128.7509970 129.0708330  33.5516660
 128.8848730 129.1859440  35.0552310 123.8254950 140.6868250  31.6992410
 123.9266930 140.4832240  30.7694390 122.9256690 140.4326530  31.9040190
 121.3480840 131.2448610  35.6816310 120.6396990 131.7134950  36.1229920
 121.6325320 130.5870620  36.3161500 122.9736770 132.6645310  43.6808840
 123.4722020 133.1391130  44.3460690 123.1159720 131.7408830  43.8878870
 125.3796270 127.9699270  37.1212100 125.2564050 127.9885400  36.1721610
 126.3280830 128.0178210  37.2410500 122.4673060 143.2054570  36.3940080
 122.7214560 143.1675960  35.4719450 121.5185540 143.0787900  36.3868330
 119.5515860 129.5533690  33.0567020 120.4006390 129.9903840  32.9907210
 119.1847130 129.8653950  33.8839080 130.1803630 128.8813270  44.5237230
 129.6777230 129.6218670  44.8631040 130.9960290 129.2697270  44.2074020
 128.4725640 134.1246450  37.9698590 127.5315780 134.1396680  38.1446280
 128.7869710 133.3382410  38.4158890 118.4507280 135.8066050  31.5302550
 119.2170550 135.6947410  32.0927980 118.5281970 135.1104020  30.8779320
 117.1454040 133.2391120  32.2135440 117.2257630 132.2918630  32.3252840
 118.0373790 133.5698000  32.3196100 130.4751220 141.2955300  39.6452850
 130.5998640 142.1186470  40.1176660 131.3416780 141.0846030  39.2977000
 117.9468750 143.3886510  39.3169980 118.6831230 142.8401970  39.5878550
 118.3309670 144.2542520  39.1775970 114.8314230 139.4560080  35.1911490
 113.9054010 139.6981220  35.1816900 115.2970660 140.2834340  35.0696240
 116.9527030 142.5732580  48.5055560 117.7539760 142.8944630  48.9190960
 116.4378850 142.2128160  49.2275470 121.0571060 142.5616820  31.1395550
 121.8499670 142.8505650  30.6877340 120.5375410 142.1308990  30.4608030
 125.7891660 138.6812450  48.4530970 125.1829820 138.7044050  47.7126720
 125.4845770 137.9495490  48.9898220 127.2192030 142.4092740  47.0640380
 128.1713780 142.3250760  47.0140620 127.0720250 143.0734450  47.7374170
 130.1101230 141.7886950  32.5632290 129.8242740 141.3752090  31.7486470
 129.9120780 142.7174660  32.4432810 114.6724840 135.0606040  47.4491610
 115.1763860 134.4813320  48.0207840 113.9332260 135.3446270  47.9867980
 121.5748460 137.7820230  31.0037900 121.4699100 137.1672580  31.7299280
 121.4072680 137.2586120  30.2200910 121.7262780 136.4677030  46.9827130
 120.9608450 137.0362030  46.8981800 121.9078740 136.1753240  46.0895360
 124.8151190 136.8440260  31.6079890 124.2661290 137.2909560  32.2522630
 125.4370450 136.3389510  32.1317560 128.8686130 138.1982360  47.5402150
 129.6095600 138.5358120  47.0369610 128.1058810 138.3674420  46.9871920
 116.7047920 133.2035630  48.3441680 116.7453260 132.9049500  49.2526910
 117.5593420 133.6043240  48.1849200 120.4826310 135.8031180  33.5045190
 120.9042730 135.6371050  34.3476580 120.6077150 134.9931410  33.0100330
 118.6453730 131.7827730  46.3116170 118.1150190 131.2918680  45.6839510
 119.3141800 132.2111930  45.7774100 122.9953950 134.8268790  30.7522290
 123.5159610 134.1117810  30.3863440 123.6422350 135.4654660  31.0522800
 127.5431790 136.2497190  46.0757360 127.9572810 136.4042270  46.9247780
 126.6082790 136.3752410  46.2383140 128.0153960 133.5893350  48.0796510
 128.5974730 132.8345670  47.9916990 128.1915730 134.1200790  47.3027990
 119.1326030 128.7490100  46.3913460 119.0382900 128.1310850  45.6664330
 118.5523420 129.4756390  46.1643370 121.8987470 127.3063340  43.4240850
 121.4504770 127.3287600  42.5786400 121.2652670 126.9082360  44.0211150
 122.3047020 136.2017670  44.0453290 122.7235130 137.0450400  43.8729530
 121.3855650 136.3389710  43.8160070 124.6410920 133.9333850  45.4291130
 124.7607130 133.3374990  46.1685970 125.5004920 133.9703540  45.0092430
 126.9798820 134.4871040  44.0053640 126.4534040 135.0113660  43.4018780
 127.3230160 135.1198430  44.6363370 119.3785210 131.8764410  30.4503350
 119.1774270 131.0131770  30.8116690 119.2077260 131.7897770  29.5124950
 120.1554440 142.5070680  45.1611020 119.6175530 143.2316740  44.8419720
 120.4088400 142.0301020  44.3708360 121.4079690 130.4755200  46.6866950
 121.9979380 130.1671050  47.3744770 120.5899930 130.0034950  46.8426850
 126.2273120 130.0921010  46.9199970 125.5388640 129.4302550  46.8549960
 126.9479140 129.6459280  47.3648430 126.8573520 126.6872640  32.9790230
 127.1375810 125.8440540  33.3349650 126.0839250 126.9195750  33.4928980
 118.1768010 128.9765030  30.4381230 118.4793910 128.9832460  29.5300380
 118.9162600 128.6262890  30.9348890 123.0116650 143.7421890  45.4197670
 122.9375350 144.6457030  45.7270040 122.1095490 143.4233790  45.3919740
 121.3952940 127.9199650  31.4237430 121.0474940 127.2423640  30.8439880
 121.5965710 127.4589160  32.2380820 123.5601980 142.9080400  33.0424030
 124.4552770 143.2465370  33.0642790 123.5919610 142.1859810  32.4148310
 117.1998140 138.2807450  31.2711030 117.6373010 138.8237120  31.9268610
 117.6845870 137.4554400  31.2807370 114.4143940 141.0696480  38.7231290
 114.7446950 140.2017540  38.4909930 114.8434940 141.2755000  39.5536250
 119.0105860 139.4005490  36.3833260 118.7101400 139.2770460  37.2837170
 118.9043350 138.5414080  35.9748990 114.9034150 141.9367070  41.4612920
 114.4665140 142.1167870  42.2937070 115.4711830 142.6941690  41.3194640
 130.5396330 141.4384070  45.7490230 129.9398320 141.4976630  45.0054150
 130.6690230 140.4989050  45.8787080 131.7797780 139.1801890  31.0859940
 130.9490740 139.2478540  31.5567170 131.9569610 140.0706010  30.7826800
 131.2354240 135.9249370  33.5894140 131.9973150 136.4946020  33.6953830
 131.2508610 135.3576570  34.3602450 114.7358580 134.4487300  37.8201800
 114.0807420 134.1798940  37.1761500 115.5736530 134.3391780  37.3703780
 132.2414210 136.7799470  38.4336070 132.6123040 135.9966790  38.0272040
 132.8816140 137.4688570  38.2553370 129.2247970 138.1636050  43.8466390
 128.4107810 138.5933210  44.1092180 129.6322170 138.7754460  43.2335440
 131.2873410 136.2183740  30.7466660 131.5622250 137.1262620  30.6185880
 131.0984150 136.1546270  31.6828650 127.6849020 129.2428590  32.0420290
 128.1033900 129.0559570  31.2016950 127.3785080 128.3907640  32.3523220
 131.1838750 134.1552730  35.7396090 130.8082350 133.3880660  35.3077380
 130.4541870 134.5375430  36.2271020 115.7734510 134.8339870  42.3605140
 116.1407550 134.7467270  43.2401160 115.2045330 134.0706420  42.2612000
 130.5738370 133.3024250  45.3735610 130.3424460 133.0737000  44.4733560
 130.8342920 134.2223800  45.3280500 115.3250510 131.7448960  46.2663560
 114.4306560 131.7115720  46.6057270 115.8648060 131.9435750  47.0314810
 129.0126440 128.5280680  48.1515310 129.8896620 128.5364080  48.5349310
 129.0247280 127.7911520  47.5407660 113.9496660 131.6586230  33.7627130
 113.0460740 131.9216430  33.5878790 114.4337280 131.9297400  32.9827090
 130.4589710 132.3810220  39.0403330 130.9827190 131.8872870  38.4093500
 131.0449130 132.5160580  39.7850900 130.6379430 132.4650090  42.5622880
 129.6882140 132.4313630  42.6767870 130.8192440 133.3750200  42.3272650
 116.4923870 130.7151770  31.6721510 117.2015570 130.2934990  31.1868790
 115.7763810 130.7827000  31.0404860 116.1398030 126.7691100  30.7124160
 116.8626160 127.3100040  31.0305380 116.4122550 126.4954520  29.8365700
 129.9489680 131.6383570  34.9795740 130.4448800 131.4054440  35.7644620
 129.7505750 130.7995410  34.5633380 115.8290220 126.0197290  40.6146780
 116.4766410 125.4694670  40.1741940 116.2492060 126.2740440  41.4362590
 131.3776840 130.2744520  37.5133420 131.2676120 130.1200560  38.4515690
 132.1384430 129.7465460  37.2708830 129.7242560 126.2138650  43.9716420
 130.3614780 126.8272790  44.3375610 129.8717450 126.2499310  43.0265650
 132.2667110 128.1052440  30.7539560 133.1916420 127.9733620  30.5457850
 132.2442900 128.1845260  31.7076010 132.3405600 128.8763100  33.3796270
 131.5457100 128.8108220  33.9089180 132.5448880 129.8113740  33.3681620
 129.2824020 142.9154650  37.3734660 129.8783090 142.5939220  36.6969080
 129.5402170 142.4426470  38.1647930 115.5822220 126.1752960  43.3572100
 115.2337040 126.6316780  44.1230280 115.2509920 125.2810090  43.4394530
 117.1886590 139.3472560  47.5225290 117.1456220 138.9765470  48.4039750
 117.3197600 140.2850130  47.6627110 120.8892620 140.9032150  43.1235010
 120.6483980 141.1706710  42.2365530 121.8295260 141.0737880  43.1785870
 123.0947040 127.3664840  46.8791520 123.0335930 127.9586670  47.6286930
 124.0347420 127.2590800  46.7341780 125.7321600 127.0234900  46.5183810
 126.3462010 127.3414190  45.8564890 126.2771160 126.5383490  47.1379670
 132.1496780 142.9226530  43.9245650 131.6555060 143.3195400  43.2072780
 131.5410070 142.2975740  44.3182930 116.2542860 125.7029160  46.6322870
 116.8025850 125.5217210  45.8688980 116.3198170 124.9123270  47.1679180
 117.0274620 142.2934810  44.6423070 116.4334940 142.1619510  45.3813110
 117.0198460 141.4572950  44.1765170 126.4729640 125.5867040  42.8453100
 125.5989480 125.9202150  42.6426030 126.3640390 125.1140220  43.6704970
 127.3801620 127.7937910  44.2294820 127.0514980 126.9789670  43.8496550
 128.3283920 127.7507720  44.1060510 129.8336230 143.5649950  41.2032390
 129.3739200 144.3165760  40.8290410 129.2048690 142.8456420  41.1447190
 116.6586850 139.6593190  43.5931110 115.9320910 139.0398480  43.5257060
 116.7196000 140.0533800  42.7229190 120.2631950 141.8738190  40.3780520
 120.7796970 141.2625550  39.8528780 120.9129330 142.3766970  40.8691530
 123.0027450 142.7646680  41.2049500 123.2905260 142.5100980  40.3282510
 123.5150670 142.2124040  41.7955070 124.2204460 126.5036880  41.7846010
 123.4376250 126.9782380  42.0642770 123.9267390 125.5991710  41.6759190
 128.7725530 127.2059980  39.8295100 129.2133620 127.1505080  38.9816700
 128.5033120 128.1217990  39.9005280 130.6364100 126.8375220  37.8403920
 130.5752500 125.8936440  37.6934940 131.4156130 126.9455310  38.3857380
 114.9416850 142.9767580  36.8027870 114.7738890 142.3438260  37.5009760
 114.0751360 143.1826980  36.4522060 115.5644870 126.8084360  34.3059730
 116.3224230 126.9213240  33.7323760 115.1022040 127.6453560  34.2603160
 122.1058680 128.9223630  37.2962040 121.2933190 128.5480520  36.9557920
 122.6100320 128.1668710  37.5983230 126.6083660 125.5866080  38.5345110
 127.2113030 126.1586290  39.0093630 125.8676650 126.1505520  38.3119010
 129.7518260 125.9887640  33.8085390 129.9468890 126.8871090  34.0752820
 128.9648130 125.7574720  34.3018340 116.5479550 141.6700810  34.2478010
 116.0227170 142.0508840  33.5439970 116.4724130 142.2951580  34.9687720
 117.9370020 127.3348410  32.8461700 118.4662780 126.5478210  32.7169650
 118.5698340 128.0139600  33.0797230 120.1307860 127.0723550  35.9007090
 119.5010600 126.3710860  36.0677220 119.5913000 127.8327680  35.6840250
 123.0699810 143.6862780  48.5717700 123.9967120 143.4507050  48.6153660
 123.0550240 144.5134780  48.0903730 131.3044870 143.2288350  35.5691950
 131.4797060 142.5426090  34.9252870 130.6066440 143.7535400  35.1768620
 120.2563420 126.3507530  48.3359580 119.9747690 126.8541130  47.5720400
 120.6383120 125.5529280  47.9701710 119.1472520 143.6183190  33.1227260
 119.8791340 143.3342470  32.5751150 119.4066190 143.3796470  34.0126640
 118.3087310 139.7347920  33.1273590 117.6796190 140.2033020  33.6759420
 118.4235140 138.8897140  33.5619780 126.8578880 125.7661110  48.9140050
 126.7444330 126.0855720  49.8091570 127.6748620 126.1673620  48.6177330
 129.6377370 142.9132640  48.3958740 130.4302690 142.4181870  48.1884700
 129.9310520 143.5922780  49.0034350 125.7637030 133.7853580  19.2774790
 125.6831080 132.8708190  19.0066500 125.3501450 134.2820650  18.5714500
 123.8955070 135.5632600  21.1584060 123.1197170 135.0833040  21.4482630
 124.5468000 134.8838250  20.9840220 117.9120900 135.8752410  22.0359820
 117.0805780 135.6201120  22.4356330 118.5201880 135.9463180  22.7717740
 127.9162500 139.9692790  19.9383190 127.4544030 139.1980030  20.2670360
 128.7288050 139.9958860  20.4435640 117.8922160 139.9092500  22.2317840
 118.1950200 139.0190240  22.0528060 118.6365750 140.4662720  22.0040090
 116.3212850 130.8354300  15.8202210 115.4329550 131.1770270  15.7182090
 116.6054040 130.6354620  14.9283040 114.2845860 133.4359950  21.7041910
 114.8561970 132.6682150  21.7045550 114.2847400 133.7348710  20.7948520
 124.1425810 142.2550800  19.5587180 123.5237250 142.7108300  18.9881620
 124.9977590 142.4102260  19.1576880 123.3364060 138.2389790  21.1654220
 123.2672340 137.2979730  21.0043350 124.0983920 138.3291200  21.7376790
 115.5270730 128.8444310  23.4910840 115.3473570 127.9470060  23.7713600
 115.1250810 129.3916180  24.1657790 124.3669230 131.0460170  21.3923150
 124.7434050 130.1732050  21.2796820 124.2688740 131.3818870  20.5013590
 118.4974240 129.4185800  16.8540590 118.6040990 130.3189530  17.1609350
 117.5866600 129.3703770  16.5635240 128.1493350 128.5410610  18.3251490
 128.9702970 128.0507180  18.3676970 128.1827430 129.1308270  19.0783330
 116.1457400 131.3404810  22.0993180 116.8267510 131.6043180  22.7180580
 115.8305450 130.5005680  22.4331190 120.3381970 132.3872170  21.1865770
 120.8460190 132.8853140  21.8270790 120.8695210 131.6107370  21.0105130
 132.4392900 130.5577360  24.8895120 131.7345070 130.9459070  24.3710230
 132.7050820 131.2527650  25.4916050 118.6218070 127.0270730  25.4529190
 118.6236510 127.5443120  24.6475090 117.7922380 126.5500910  25.4299120
 125.0089160 137.1390040  16.9519090 124.3906430 137.6039490  16.3881810
 125.5212410 137.8317520  17.3688600 119.8720920 136.6665910  23.6302690
 119.5390300 137.2934830  24.2723760 120.0487600 137.1927790  22.8504360
 128.3854830 130.4810990  21.0979030 127.6810400 130.7695880  21.6782140
 128.7466990 131.2911100  20.7378590 118.3033400 128.7380690  23.4599640
 118.6450210 129.5822740  23.1653510 117.3649210 128.8864430  23.5764980
 119.0840020 138.6346710  25.4451870 119.7014020 139.3097790  25.1636320
 118.2233140 139.0434690  25.3539370 114.3772360 137.8246570  14.3258720
 114.0000340 138.3133670  13.5943620 114.6345430 138.4971850  14.9565250
 130.0017610 140.0986120  23.3606510 129.3181130 140.7685230  23.3523180
 130.5411900 140.2966770  22.5951370 131.4541750 129.9265780  21.4888240
 130.5066660 129.9604760  21.6203670 131.7791740 130.7404730  21.8737600
 121.9861290 126.2262960  19.7844230 122.2936270 125.6709850  19.0679730
 121.0561990 126.3607420  19.6017220 127.5376350 141.9430250  22.0751690
 127.5503510 141.5392540  21.2073950 126.9851570 142.7177540  21.9713120
 128.8321770 138.6646470  17.1641860 128.7218100 137.7220800  17.2891280
 128.8290020 139.0262110  18.0504620 126.9361790 136.8460090  23.4034300
 127.3530580 136.6320200  22.5687760 127.6601610 137.1032880  23.9742920
 124.3742050 134.2911790  16.5204350 123.4471330 134.2249170  16.7492820
 124.5266870 135.2291920  16.4059590 124.3611130 130.5628790  13.5171510
 123.4214800 130.7242750  13.6023970 124.6794390 131.2814470  12.9707500
 130.8823890 135.2447310  23.4950540 130.0542520 135.3140400  23.0200670
 131.4774370 135.8301620  23.0266370 128.4039340 135.8532090  17.0239600
 127.7851760 135.5151640  16.3765900 128.3863790 135.2091850  17.7318790
 127.8465900 132.0316630  24.4405410 127.4337080 132.8570340  24.6945400
 127.1141850 131.4461670  24.2481770 119.9798690 134.8176530  19.3024080
 119.5755690 134.1053780  18.8069980 120.0661810 134.4729770  20.1912120
 120.4480390 138.5044090  21.4663290 120.1508680 137.8989560  20.7871070
 121.3980210 138.5421400  21.3552650 118.6927310 131.5919740  23.0823120
 119.2441900 131.7015080  22.3076370 119.2070820 131.9657340  23.7978350
 128.5366000 142.0775960  25.1286390 128.0596560 142.8848150  24.9359000
 127.8527790 141.4254290  25.2812600 119.5398820 138.2425780  28.1171090
 118.6427350 138.4665750  28.3644490 119.5651690 138.3660720  27.1682490
 126.5804040 135.0918900  14.0312350 127.0197320 134.2541330  13.8850170
 127.2932460 135.7248300  14.1176490 118.3670040 135.1139100  26.6928460
 118.2277810 135.9861900  27.0615860 117.4851400 134.7711910  26.5476400
 124.6899420 140.0314970  17.9993590 125.1295330 140.7739300  17.5848980
 124.6286310 140.2741540  18.9232550 120.1650390 141.0560800  28.9013610
 120.1365820 141.4603750  28.0342040 120.0015360 140.1271160  28.7385210
 130.1621180 126.3461710  12.3453390 129.8493840 126.4388540  13.2452460
 130.9233650 126.9242740  12.2950820 116.6803320 133.7121510  16.8030730
 116.5600920 134.4383600  16.1912000 116.3704210 132.9424420  16.3258640
 132.1165210 141.8387900  30.1977780 132.5924930 142.3170790  30.8766860
 132.7372370 141.7705390  29.4723280 114.3188690 136.8836650  22.6099370
 114.3969110 137.0185420  21.6655090 114.9330370 136.1752540  22.8027490
 115.5636320 138.5836840  19.0205550 115.1564400 138.7251430  18.1659150
 116.4549330 138.2997000  18.8176760 131.5198460 139.0300750  27.3577790
 131.6461520 138.7912630  26.4394970 131.5619840 138.1985290  27.8299870
 125.3815200 142.7328750  25.9272600 125.8959870 142.6436760  26.7295030
 124.5384280 143.0788450  26.2200510 127.3569600 143.0184090  15.3556600
 127.1970740 142.7287030  16.2538430 127.1916310 142.2424220  14.8201830
 119.8357980 142.7982620  17.1328220 119.6600460 141.8818160  16.9196020
 118.9813720 143.1569910  17.3726020 127.0595730 140.5271650  13.9154600
 126.3660890 140.5248940  13.2556880 127.8018590 140.1030970  13.4848770
 126.6245660 142.1534360  17.9903090 127.0802610 141.3723740  18.3041710
 126.9638180 142.8641180  18.5344270 131.3722470 131.0833210  28.3227530
 130.7566740 131.5912880  27.7942990 131.0518890 130.1831540  28.2653470
 114.3748210 137.9250820  25.1493830 114.5379250 137.4556180  24.3313200
 114.8400660 137.4174380  25.8142670 119.1466980 127.0556580  20.1854400
 118.7035130 127.8366120  19.8538920 119.7051970 127.3786470  20.8925340
 123.4336790 129.9225100  25.7889720 122.9716160 130.1308120  26.6009660
 123.0314900 129.1084450  25.4860390 128.4341300 131.1434050  26.9186380
 127.5834890 130.8439800  27.2395450 128.2743090 131.3876060  26.0070200
 125.5291010 132.6435800  29.0185170 125.8544420 131.8099550  28.6787400
 126.3171340 133.1664320  29.1663500 122.2625800 126.6767280  15.0660230
 121.6379980 126.6727150  15.7913540 122.1755920 125.8098240  14.6696200
 121.1842880 127.6003910  22.0444000 121.4815210 128.5066740  21.9636020
 121.7328440 127.1122690  21.4303570 118.9381200 132.1790150  17.9135650
 118.7122120 131.9627320  18.8182270 118.1573730 132.6118610  17.5681620
 126.1678960 132.1853520  16.5126300 125.5687850 132.9089320  16.3289920
 126.7158570 132.1230300  15.7302750 121.3780410 133.0775730  28.5795920
 121.2824010 132.1370460  28.4296320 122.2212390 133.2990800  28.1843990
 124.7743830 130.8217060  18.5429580 125.1673400 131.1389260  17.7298270
 125.1360680 129.9428940  18.6574100 116.5090950 129.4889400  26.7329700
 116.1154340 130.3364610  26.9402480 115.8209350 128.8515770  26.9238340
 123.0836000 129.5724370  29.8026440 122.3934320 129.3796570  30.4372530
 123.8268300 129.8559010  30.3350740 113.8108000 127.4117860  20.7659780
 113.5221050 127.9820720  21.4784760 114.5553760 126.9322310  21.1291010
 113.9978230 131.3537980  11.9762500 113.9152900 132.2968740  12.1177490
 113.6461290 131.2112890  11.0974850 125.3598970 133.4122810  22.6380360
 124.6280090 133.9209620  22.9870460 124.9623310 132.5952790  22.3369140
 121.7976360 130.0877010  21.0432850 121.8012420 129.6466960  20.1937390
 122.6927480 130.4094340  21.1504670 117.6478740 129.9703500  20.0027060
 117.3078790 130.4478730  20.7594110 116.8856060 129.5168620  19.6428160
 121.8596510 131.0889090  14.0339610 121.9809330 131.0475570  14.9825430
 121.4745020 131.9513240  13.8786340 125.8224880 128.8656490  22.0503300
 125.8397620 129.3165140  22.8945150 125.5740460 127.9662130  22.2636740
 120.8718010 133.3990230  13.4322910 120.3034910 132.9508480  12.8058820
 121.5807010 133.7583010  12.8988060 129.2495630 126.2788670  27.8889680
 129.5741400 125.5478330  28.4147660 129.2852140 125.9602310  26.9870670
 115.9487190 137.3002250  27.3089640 115.5641980 136.6595920  27.9072600
 116.2599380 138.0038370  27.8784370 122.0984330 134.1478790  22.7898260
 122.4654460 133.6737360  23.5359600 121.9089390 135.0220360  23.1306600
 114.9624820 128.8922480  18.9191730 114.6771740 128.5278150  19.7570350
 114.9003680 128.1602940  18.3054870 119.8883700 133.1887430  25.1082470
 119.5840770 134.0679410  25.3332830 120.8430160 133.2487220  25.1439910
 118.4165490 137.3948420  15.7049320 117.6427750 136.8546040  15.5448040
 119.1460120 136.8755030  15.3667080 129.1753470 136.3913780  21.4975710
 129.8952590 136.8869070  21.1071820 128.9735290 135.7131670  20.8529580
 124.6363410 127.7851740  15.6405100 123.8228020 127.2864910  15.5650410
 124.4425360 128.6249990  15.2241450 124.5572270 136.4622840  27.3844710
 124.4909580 135.5418510  27.1302300 123.9277410 136.5598280  28.0989350
 127.3511800 132.1571390  13.9367260 128.2391420 132.4688620  13.7618600
 127.3216890 131.2843640  13.5447840 118.4602890 137.0628800  19.3428130
 118.9781560 136.2597060  19.2885020 118.0086910 137.0007940  20.1844960
 123.3472390 138.3295080  14.6155430 123.6888090 139.0737310  14.1198750
 122.5185100 138.6426200  14.9780260 115.9447430 134.0290170  26.2553830
 115.5862370 134.6944020  26.8427170 115.6501990 133.1973720  26.6266450
 119.1460550 134.4874410  29.1393380 118.8460690 134.6331590  28.2421200
 119.9171790 133.9279700  29.0466770 124.4889000 139.2843410  27.1348510
 124.5033540 138.3524370  26.9167420 123.7814100 139.3703170  27.7738280
 129.6226070 133.4683230  13.4047120 129.5389790 133.8997450  12.5543560
 130.3420260 133.9281580  13.8373940 130.7000210 135.9250750  26.4817090
 129.9748400 136.5179530  26.2846480 131.2275670 135.9174290  25.6830460
 130.6513320 140.3225490  16.1329250 130.0089480 139.6681110  16.4072970
 130.2643980 140.7280580  15.3569920 126.2299800 137.6510920  19.9800940
 126.5823620 137.0539050  19.3202310 125.3462130 137.3255150  20.1509190
 122.3163080 138.4108610  17.3871350 123.0034210 138.9577820  17.7678940
 121.5295500 138.9549340  17.4220960 114.4555480 134.0281430  12.8788430
 115.3250330 134.3106230  13.1624350 113.9645800 134.8417300  12.7637240
 121.6190290 135.4154640  16.9996710 122.0753070 136.2259890  17.2256900
 121.2678500 135.0977780  17.8315200 123.9222900 140.9260980  24.2289010
 124.5665120 141.1320360  24.9062430 124.2852340 140.1649380  23.7759860
 117.5202070 125.7592290  17.4719230 117.3916700 125.7510190  18.4204150
 116.6964090 126.0975380  17.1210240 125.1954980 138.9293330  22.9466460
 125.8377210 138.2286490  23.0598630 125.7204330 139.7091770  22.7663350
 129.0410700 139.2141950  12.6705600 128.8148280 138.4972390  13.2630240
 128.6506900 138.9654390  11.8327350 126.9692600 139.7288230  26.1502520
 127.3048840 140.3154920  26.8280440 126.0492940 139.5980940  26.3800310
 114.8226730 143.2408810  13.4450060 115.1824370 143.8398150  12.7907330
 114.6819070 143.7868700  14.2185090 114.5196000 127.5183410  26.9325930
 113.8054520 127.7180330  27.5378540 114.9391040 126.7422980  27.3040730
 128.6226950 137.1313890  14.3319760 128.3348650 137.5926580  15.1197640
 129.4179120 136.6711660  14.6003980 114.8068590 141.5063670  27.9192460
 114.9159710 140.5658410  27.7787850 114.1549150 141.7718420  27.2706190
 122.7981180 139.7779560  29.3190580 122.4778050 139.0588800  29.8636270
 122.1239540 140.4534630  29.3926640 120.8395350 140.6240010  14.2623730
 120.8305450 141.3569700  13.6468240 119.9193710 140.3771590  14.3550690
 116.4401990 135.8454900  15.0070490 115.8329940 136.5853800  15.0165790
 116.9151340 135.9354260  14.1808690 126.0134780 130.0105720  24.6827380
 126.3815600 129.1900930  25.0106950 125.1532980 130.0707610  25.0983030
 129.3796810 128.9662660  15.4914940 128.7509970 129.0708330  14.7773170
 128.8848730 129.1859440  16.2808820 123.8254950 140.6868250  12.9248920
 123.9266930 140.4832240  11.9950900 122.9256690 140.4326530  13.1296700
 121.3480840 131.2448610  16.9072820 120.6396990 131.7134950  17.3486430
 121.6325320 130.5870620  17.5418010 122.9736770 132.6645310  24.9065350
 123.4722020 133.1391130  25.5717200 123.1159720 131.7408830  25.1135380
 125.3796270 127.9699270  18.3468610 125.2564050 127.9885400  17.3978120
 126.3280830 128.0178210  18.4667010 122.4673060 143.2054570  17.6196590
 122.7214560 143.1675960  16.6975960 121.5185540 143.0787900  17.6124840
 119.5515860 129.5533690  14.2823530 120.4006390 129.9903840  14.2163720
 119.1847130 129.8653950  15.1095590 130.1803630 128.8813270  25.7493740
 129.6777230 129.6218670  26.0887550 130.9960290 129.2697270  25.4330530
 128.4725640 134.1246450  19.1955100 127.5315780 134.1396680  19.3702790
 128.7869710 133.3382410  19.6415400 118.4507280 135.8066050  12.7559060
 119.2170550 135.6947410  13.3184490 118.5281970 135.1104020  12.1035830
 117.1454040 133.2391120  13.4391950 117.2257630 132.2918630  13.5509350
 118.0373790 133.5698000  13.5452610 130.4751220 141.2955300  20.8709360
 130.5998640 142.1186470  21.3433170 131.3416780 141.0846030  20.5233510
 117.9468750 143.3886510  20.5426490 118.6831230 142.8401970  20.8135060
 118.3309670 144.2542520  20.4032480 114.8314230 139.4560080  16.4168000
 113.9054010 139.6981220  16.4073410 115.2970660 140.2834340  16.2952750
 116.9527030 142.5732580  29.7312070 117.7539760 142.8944630  30.1447470
 116.4378850 142.2128160  30.4531980 121.0571060 142.5616820  12.3652060
 121.8499670 142.8505650  11.9133850 120.5375410 142.1308990  11.6864540
 125.7891660 138.6812450  29.6787480 125.1829820 138.7044050  28.9383230
 125.4845770 137.9495490  30.2154730 127.2192030 142.4092740  28.2896890
 128.1713780 142.3250760  28.2397130 127.0720250 143.0734450  28.9630680
 130.1101230 141.7886950  13.7888800 129.8242740 141.3752090  12.9742980
 129.9120780 142.7174660  13.6689320 114.6724840 135.0606040  28.6748120
 115.1763860 134.4813320  29.2464350 113.9332260 135.3446270  29.2124490
 121.5748460 137.7820230  12.2294410 121.4699100 137.1672580  12.9555790
 121.4072680 137.2586120  11.4457420 121.7262780 136.4677030  28.2083640
 120.9608450 137.0362030  28.1238310 121.9078740 136.1753240  27.3151870
 124.8151190 136.8440260  12.8336400 124.2661290 137.2909560  13.4779140
 125.4370450 136.3389510  13.3574070 128.8686130 138.1982360  28.7658660
 129.6095600 138.5358120  28.2626120 128.1058810 138.3674420  28.2128430
 116.7047920 133.2035630  29.5698190 116.7453260 132.9049500  30.4783420
 117.5593420 133.6043240  29.4105710 120.4826310 135.8031180  14.7301700
 120.9042730 135.6371050  15.5733090 120.6077150 134.9931410  14.2356840
 118.6453730 131.7827730  27.5372680 118.1150190 131.2918680  26.9096020
 119.3141800 132.2111930  27.0030610 122.9953950 134.8268790  11.9778800
 123.5159610 134.1117810  11.6119950 123.6422350 135.4654660  12.2779310
 127.5431790 136.2497190  27.3013870 127.9572810 136.4042270  28.1504290
 126.6082790 136.3752410  27.4639650 128.0153960 133.5893350  29.3053020
 128.5974730 132.8345670  29.2173500 128.1915730 134.1200790  28.5284500
 119.1326030 128.7490100  27.6169970 119.0382900 128.1310850  26.8920840
 118.5523420 129.4756390  27.3899880 121.8987470 127.3063340  24.6497360
 121.4504770 127.3287600  23.8042910 121.2652670 126.9082360  25.2467660
 122.3047020 136.2017670  25.2709800 122.7235130 137.0450400  25.0986040
 121.3855650 136.3389710  25.0416580 124.6410920 133.9333850  26.6547640
 124.7607130 133.3374990  27.3942480 125.5004920 133.9703540  26.2348940
 126.9798820 134.4871040  25.2310150 126.4534040 135.0113660  24.6275290
 127.3230160 135.1198430  25.8619880 119.3785210 131.8764410  11.6759860
 119.1774270 131.0131770  12.0373200 119.2077260 131.7897770  10.7381460
 120.1554440 142.5070680  26.3867530 119.6175530 143.2316740  26.0676230
 120.4088400 142.0301020  25.5964870 121.4079690 130.4755200  27.9123460
 121.9979380 130.1671050  28.6001280 120.5899930 130.0034950  28.0683360
 126.2273120 130.0921010  28.1456480 125.5388640 129.4302550  28.0806470
 126.9479140 129.6459280  28.5904940 126.8573520 126.6872640  14.2046740
 127.1375810 125.8440540  14.5606160 126.0839250 126.9195750  14.7185490
 118.1768010 128.9765030  11.6637740 118.4793910 128.9832460  10.7556890
 118.9162600 128.6262890  12.1605400 123.0116650 143.7421890  26.6454180
 122.9375350 144.6457030  26.9526550 122.1095490 143.4233790  26.6176250
 121.3952940 127.9199650  12.6493940 121.0474940 127.2423640  12.0696390
 121.5965710 127.4589160  13.4637330 123.5601980 142.9080400  14.2680540
 124.4552770 143.2465370  14.2899300 123.5919610 142.1859810  13.6404820
 117.1998140 138.2807450  12.4967540 117.6373010 138.8237120  13.1525120
 117.6845870 137.4554400  12.5063880 114.4143940 141.0696480  19.9487800
 114.7446950 140.2017540  19.7166440 114.8434940 141.2755000  20.7792760
 119.0105860 139.4005490  17.6089770 118.7101400 139.2770460  18.5093680
 118.9043350 138.5414080  17.2005500 114.9034150 141.9367070  22.6869430
 114.4665140 142.1167870  23.5193580 115.4711830 142.6941690  22.5451150
 130.5396330 141.4384070  26.9746740 129.9398320 141.4976630  26.2310660
 130.6690230 140.4989050  27.1043590 131.7797780 139.1801890  12.3116450
 130.9490740 139.2478540  12.7823680 131.9569610 140.0706010  12.0083310
 131.2354240 135.9249370  14.8150650 131.9973150 136.4946020  14.9210340
 131.2508610 135.3576570  15.5858960 114.7358580 134.4487300  19.0458310
 114.0807420 134.1798940  18.4018010 115.5736530 134.3391780  18.5960290
 132.2414210 136.7799470  19.6592580 132.6123040 135.9966790  19.2528550
 132.8816140 137.4688570  19.4809880 129.2247970 138.1636050  25.0722900
 128.4107810 138.5933210  25.3348690 129.6322170 138.7754460  24.4591950
 131.2873410 136.2183740  11.9723170 131.5622250 137.1262620  11.8442390
 131.0984150 136.1546270  12.9085160 127.6849020 129.2428590  13.2676800
 128.1033900 129.0559570  12.4273460 127.3785080 128.3907640  13.5779730
 131.1838750 134.1552730  16.9652600 130.8082350 133.3880660  16.5333890
 130.4541870 134.5375430  17.4527530 115.7734510 134.8339870  23.5861650
 116.1407550 134.7467270  24.4657670 115.2045330 134.0706420  23.4868510
 130.5738370 133.3024250  26.5992120 130.3424460 133.0737000  25.6990070
 130.8342920 134.2223800  26.5537010 115.3250510 131.7448960  27.4920070
 114.4306560 131.7115720  27.8313780 115.8648060 131.9435750  28.2571320
 129.0126440 128.5280680  29.3771820 129.8896620 128.5364080  29.7605820
 129.0247280 127.7911520  28.7664170 113.9496660 131.6586230  14.9883640
 113.0460740 131.9216430  14.8135300 114.4337280 131.9297400  14.2083600
 130.4589710 132.3810220  20.2659840 130.9827190 131.8872870  19.6350010
 131.0449130 132.5160580  21.0107410 130.6379430 132.4650090  23.7879390
 129.6882140 132.4313630  23.9024380 130.8192440 133.3750200  23.5529160
 116.4923870 130.7151770  12.8978020 117.2015570 130.2934990  12.4125300
 115.7763810 130.7827000  12.2661370 116.1398030 126.7691100  11.9380670
 116.8626160 127.3100040  12.2561890 116.4122550 126.4954520  11.0622210
 129.9489680 131.6383570  16.2052250 130.4448800 131.4054440  16.9901130
 129.7505750 130.7995410  15.7889890 115.8290220 126.0197290  21.8403290
 116.4766410 125.4694670  21.3998450 116.2492060 126.2740440  22.6619100
 131.3776840 130.2744520  18.7389930 131.2676120 130.1200560  19.6772200
 132.1384430 129.7465460  18.4965340 129.7242560 126.2138650  25.1972930
 130.3614780 126.8272790  25.5632120 129.8717450 126.2499310  24.2522160
 132.2667110 128.1052440  11.9796070 133.1916420 127.9733620  11.7714360
 132.2442900 128.1845260  12.9332520 132.3405600 128.8763100  14.6052780
 131.5457100 128.8108220  15.1345690 132.5448880 129.8113740  14.5938130
 129.2824020 142.9154650  18.5991170 129.8783090 142.5939220  17.9225590
 129.5402170 142.4426470  19.3904440 115.5822220 126.1752960  24.5828610
 115.2337040 126.6316780  25.3486790 115.2509920 125.2810090  24.6651040
 117.1886590 139.3472560  28.7481800 117.1456220 138.9765470  29.6296260
 117.3197600 140.2850130  28.8883620 120.8892620 140.9032150  24.3491520
 120.6483980 141.1706710  23.4622040 121.8295260 141.0737880  24.4042380
 123.0947040 127.3664840  28.1048030 123.0335930 127.9586670  28.8543440
 124.0347420 127.2590800  27.9598290 125.7321600 127.0234900  27.7440320
 126.3462010 127.3414190  27.0821400 126.2771160 126.5383490  28.3636180
 132.1496780 142.9226530  25.1502160 131.6555060 143.3195400  24.4329290
 131.5410070 142.2975740  25.5439440 116.2542860 125.7029160  27.8579380
 116.8025850 125.5217210  27.0945490 116.3198170 124.9123270  28.3935690
 117.0274620 142.2934810  25.8679580 116.4334940 142.1619510  26.6069620
 117.0198460 141.4572950  25.4021680 126.4729640 125.5867040  24.0709610
 125.5989480 125.9202150  23.8682540 126.3640390 125.1140220  24.8961480
 127.3801620 127.7937910  25.4551330 127.0514980 126.9789670  25.0753060
 128.3283920 127.7507720  25.3317020 129.8336230 143.5649950  22.4288900
 129.3739200 144.3165760  22.0546920 129.2048690 142.8456420  22.3703700
 116.6586850 139.6593190  24.8187620 115.9320910 139.0398480  24.7513570
 116.7196000 140.0533800  23.9485700 120.2631950 141.8738190  21.6037030
 120.7796970 141.2625550  21.0785290 120.9129330 142.3766970  22.0948040
 123.0027450 142.7646680  22.4306010 123.2905260 142.5100980  21.5539020
 123.5150670 142.2124040  23.0211580 124.2204460 126.5036880  23.0102520
 123.4376250 126.9782380  23.2899280 123.9267390 125.5991710  22.9015700
 128.7725530 127.2059980  21.0551610 129.2133620 127.1505080  20.2073210
 128.5033120 128.1217990  21.1261790 130.6364100 126.8375220  19.0660430
 130.5752500 125.8936440  18.9191450 131.4156130 126.9455310  19.6113890
 114.9416850 142.9767580  18.0284380 114.7738890 142.3438260  18.7266270
 114.0751360 143.1826980  17.6778570 115.5644870 126.8084360  15.5316240
 116.3224230 126.9213240  14.9580270 115.1022040 127.6453560  15.4859670
 122.1058680 128.9223630  18.5218550 121.2933190 128.5480520  18.1814430
 122.6100320 128.1668710  18.8239740 126.6083660 125.5866080  19.7601620
 127.2113030 126.1586290  20.2350140 125.8676650 126.1505520  19.5375520
 129.7518260 125.9887640  15.0341900 129.9468890 126.8871090  15.3009330
 128.9648130 125.7574720  15.5274850 116.5479550 141.6700810  15.4734520
 116.0227170 142.0508840  14.7696480 116.4724130 142.2951580  16.1944230
 117.9370020 127.3348410  14.0718210 118.4662780 126.5478210  13.9426160
 118.5698340 128.0139600  14.3053740 120.1307860 127.0723550  17.1263600
 119.5010600 126.3710860  17.2933730 119.5913000 127.8327680  16.9096760
 123.0699810 143.6862780  29.7974210 123.9967120 143.4507050  29.8410170
 123.0550240 144.5134780  29.3160240 131.3044870 143.2288350  16.7948460
 131.4797060 142.5426090  16.1509380 130.6066440 143.7535400  16.4025130
 120.2563420 126.3507530  29.5616090 119.9747690 126.8541130  28.7976910
 120.6383120 125.5529280  29.1958220 119.1472520 143.6183190  14.3483770
 119.8791340 143.3342470  13.8007660 119.4066190 143.3796470  15.2383150
 118.3087310 139.7347920  14.3530100 117.6796190 140.2033020  14.9015930
 118.4235140 138.8897140  14.7876290 126.8578880 125.7661110  30.1396560
 126.7444330 126.0855720  31.0348080 127.6748620 126.1673620  29.8433840
 129.6377370 142.9132640  29.6215250 130.4302690 142.4181870  29.4141210
 129.9310520 143.5922780  30.2290860 123.8955070 135.5632600   2.3840570
 123.1197170 135.0833040   2.6739140 124.5468000 134.8838250   2.2096730
 117.9120900 135.8752410   3.2616330 117.0805780 135.6201120   3.6612840
 118.5201880 135.9463180   3.9974250 117.8922160 139.9092500   3.4574350
 118.1950200 139.0190240   3.2784570 118.6365750 140.4662720   3.2296600
 114.2845860 133.4359950   2.9298420 114.8561970 132.6682150   2.9302060
 114.2847400 133.7348710   2.0205030 123.3364060 138.2389790   2.3910730
 123.2672340 137.2979730   2.2299860 124.0983920 138.3291200   2.9633300
 115.5270730 128.8444310   4.7167350 115.3473570 127.9470060   4.9970110
 115.1250810 129.3916180   5.3914300 124.3669230 131.0460170   2.6179660
 124.7434050 130.1732050   2.5053330 124.2688740 131.3818870   1.7270100
 116.1457400 131.3404810   3.3249690 116.8267510 131.6043180   3.9437090
 115.8305450 130.5005680   3.6587700 120.3381970 132.3872170   2.4122280
 120.8460190 132.8853140   3.0527300 120.8695210 131.6107370   2.2361640
 132.4392900 130.5577360   6.1151630 131.7345070 130.9459070   5.5966740
 132.7050820 131.2527650   6.7172560 118.6218070 127.0270730   6.6785700
 118.6236510 127.5443120   5.8731600 117.7922380 126.5500910   6.6555630
 119.8720920 136.6665910   4.8559200 119.5390300 137.2934830   5.4980270
 120.0487600 137.1927790   4.0760870 128.3854830 130.4810990   2.3235540
 127.6810400 130.7695880   2.9038650 128.7466990 131.2911100   1.9635100
 118.3033400 128.7380690   4.6856150 118.6450210 129.5822740   4.3910020
 117.3649210 128.8864430   4.8021490 119.0840020 138.6346710   6.6708380
 119.7014020 139.3097790   6.3892830 118.2233140 139.0434690   6.5795880
 130.0017610 140.0986120   4.5863020 129.3181130 140.7685230   4.5779690
 130.5411900 140.2966770   3.8207880 131.4541750 129.9265780   2.7144750
 130.5066660 129.9604760   2.8460180 131.7791740 130.7404730   3.0994110
 127.5376350 141.9430250   3.3008200 127.5503510 141.5392540   2.4330460
 126.9851570 142.7177540   3.1969630 126.9361790 136.8460090   4.6290810
 127.3530580 136.6320200   3.7944270 127.6601610 137.1032880   5.1999430
 130.8823890 135.2447310   4.7207050 130.0542520 135.3140400   4.2457180
 131.4774370 135.8301620   4.2522880 127.8465900 132.0316630   5.6661920
 127.4337080 132.8570340   5.9201910 127.1141850 131.4461670   5.4738280
 120.4480390 138.5044090   2.6919800 120.1508680 137.8989560   2.0127580
 121.3980210 138.5421400   2.5809160 118.6927310 131.5919740   4.3079630
 119.2441900 131.7015080   3.5332880 119.2070820 131.9657340   5.0234860
 128.5366000 142.0775960   6.3542900 128.0596560 142.8848150   6.1615510
 127.8527790 141.4254290   6.5069110 119.5398820 138.2425780   9.3427600
 118.6427350 138.4665750   9.5901000 119.5651690 138.3660720   8.3939000
 118.3670040 135.1139100   7.9184970 118.2277810 135.9861900   8.2872370
 117.4851400 134.7711910   7.7732910 120.1650390 141.0560800  10.1270120
 120.1365820 141.4603750   9.2598550 120.0015360 140.1271160   9.9641720
 132.1165210 141.8387900  11.4234290 132.5924930 142.3170790  12.1023370
 132.7372370 141.7705390  10.6979790 114.3188690 136.8836650   3.8355880
 114.3969110 137.0185420   2.8911600 114.9330370 136.1752540   4.0284000
 131.5198460 139.0300750   8.5834300 131.6461520 138.7912630   7.6651480
 131.5619840 138.1985290   9.0556380 125.3815200 142.7328750   7.1529110
 125.8959870 142.6436760   7.9551540 124.5384280 143.0788450   7.4457020
 131.3722470 131.0833210   9.5484040 130.7566740 131.5912880   9.0199500
 131.0518890 130.1831540   9.4909980 114.3748210 137.9250820   6.3750340
 114.5379250 137.4556180   5.5569710 114.8400660 137.4174380   7.0399180
 123.4336790 129.9225100   7.0146230 122.9716160 130.1308120   7.8266170
 123.0314900 129.1084450   6.7116900 128.4341300 131.1434050   8.1442890
 127.5834890 130.8439800   8.4651960 128.2743090 131.3876060   7.2326710
 125.5291010 132.6435800  10.2441680 125.8544420 131.8099550   9.9043910
 126.3171340 133.1664320  10.3920010 121.1842880 127.6003910   3.2700510
 121.4815210 128.5066740   3.1892530 121.7328440 127.1122690   2.6560080
 121.3780410 133.0775730   9.8052430 121.2824010 132.1370460   9.6552830
 122.2212390 133.2990800   9.4100500 116.5090950 129.4889400   7.9586210
 116.1154340 130.3364610   8.1658990 115.8209350 128.8515770   8.1494850
 123.0836000 129.5724370  11.0282950 122.3934320 129.3796570  11.6629040
 123.8268300 129.8559010  11.5607250 113.8108000 127.4117860   1.9916290
 113.5221050 127.9820720   2.7041270 114.5553760 126.9322310   2.3547520
 125.3598970 133.4122810   3.8636870 124.6280090 133.9209620   4.2126970
 124.9623310 132.5952790   3.5625650 121.7976360 130.0877010   2.2689360
 121.8012420 129.6466960   1.4193900 122.6927480 130.4094340   2.3761180
 125.8224880 128.8656490   3.2759810 125.8397620 129.3165140   4.1201660
 125.5740460 127.9662130   3.4893250 129.2495630 126.2788670   9.1146190
 129.5741400 125.5478330   9.6404170 129.2852140 125.9602310   8.2127180
 115.9487190 137.3002250   8.5346150 115.5641980 136.6595920   9.1329110
 116.2599380 138.0038370   9.1040880 122.0984330 134.1478790   4.0154770
 122.4654460 133.6737360   4.7616110 121.9089390 135.0220360   4.3563110
 119.8883700 133.1887430   6.3338980 119.5840770 134.0679410   6.5589340
 120.8430160 133.2487220   6.3696420 129.1753470 136.3913780   2.7232220
 129.8952590 136.8869070   2.3328330 128.9735290 135.7131670   2.0786090
 124.5572270 136.4622840   8.6101220 124.4909580 135.5418510   8.3558810
 123.9277410 136.5598280   9.3245860 115.9447430 134.0290170   7.4810340
 115.5862370 134.6944020   8.0683680 115.6501990 133.1973720   7.8522960
 119.1460550 134.4874410  10.3649890 118.8460690 134.6331590   9.4677710
 119.9171790 133.9279700  10.2723280 124.4889000 139.2843410   8.3605020
 124.5033540 138.3524370   8.1423930 123.7814100 139.3703170   8.9994790
 130.7000210 135.9250750   7.7073600 129.9748400 136.5179530   7.5102990
 131.2275670 135.9174290   6.9086970 123.9222900 140.9260980   5.4545520
 124.5665120 141.1320360   6.1318940 124.2852340 140.1649380   5.0016370
 125.1954980 138.9293330   4.1722970 125.8377210 138.2286490   4.2855140
 125.7204330 139.7091770   3.9919860 126.9692600 139.7288230   7.3759030
 127.3048840 140.3154920   8.0536950 126.0492940 139.5980940   7.6056820
 114.5196000 127.5183410   8.1582440 113.8054520 127.7180330   8.7635050
 114.9391040 126.7422980   8.5297240 114.8068590 141.5063670   9.1448970
 114.9159710 140.5658410   9.0044360 114.1549150 141.7718420   8.4962700
 122.7981180 139.7779560  10.5447090 122.4778050 139.0588800  11.0892780
 122.1239540 140.4534630  10.6183150 126.0134780 130.0105720   5.9083890
 126.3815600 129.1900930   6.2363460 125.1532980 130.0707610   6.3239540
 122.9736770 132.6645310   6.1321860 123.4722020 133.1391130   6.7973710
 123.1159720 131.7408830   6.3391890 130.1803630 128.8813270   6.9750250
 129.6777230 129.6218670   7.3144060 130.9960290 129.2697270   6.6587040
 130.4751220 141.2955300   2.0965870 130.5998640 142.1186470   2.5689680
 131.3416780 141.0846030   1.7490020 117.9468750 143.3886510   1.7683000
 118.6831230 142.8401970   2.0391570 118.3309670 144.2542520   1.6288990
 116.9527030 142.5732580  10.9568580 117.7539760 142.8944630  11.3703980
 116.4378850 142.2128160  11.6788490 125.7891660 138.6812450  10.9043990
 125.1829820 138.7044050  10.1639740 125.4845770 137.9495490  11.4411240
 127.2192030 142.4092740   9.5153400 128.1713780 142.3250760   9.4653640
 127.0720250 143.0734450  10.1887190 114.6724840 135.0606040   9.9004630
 115.1763860 134.4813320  10.4720860 113.9332260 135.3446270  10.4381000
 121.7262780 136.4677030   9.4340150 120.9608450 137.0362030   9.3494820
 121.9078740 136.1753240   8.5408380 128.8686130 138.1982360   9.9915170
 129.6095600 138.5358120   9.4882630 128.1058810 138.3674420   9.4384940
 116.7047920 133.2035630  10.7954700 116.7453260 132.9049500  11.7039930
 117.5593420 133.6043240  10.6362220 118.6453730 131.7827730   8.7629190
 118.1150190 131.2918680   8.1352530 119.3141800 132.2111930   8.2287120
 127.5431790 136.2497190   8.5270380 127.9572810 136.4042270   9.3760800
 126.6082790 136.3752410   8.6896160 128.0153960 133.5893350  10.5309530
 128.5974730 132.8345670  10.4430010 128.1915730 134.1200790   9.7541010
 119.1326030 128.7490100   8.8426480 119.0382900 128.1310850   8.1177350
 118.5523420 129.4756390   8.6156390 121.8987470 127.3063340   5.8753870
 121.4504770 127.3287600   5.0299420 121.2652670 126.9082360   6.4724170
 122.3047020 136.2017670   6.4966310 122.7235130 137.0450400   6.3242550
 121.3855650 136.3389710   6.2673090 124.6410920 133.9333850   7.8804150
 124.7607130 133.3374990   8.6198990 125.5004920 133.9703540   7.4605450
 126.9798820 134.4871040   6.4566660 126.4534040 135.0113660   5.8531800
 127.3230160 135.1198430   7.0876390 120.1554440 142.5070680   7.6124040
 119.6175530 143.2316740   7.2932740 120.4088400 142.0301020   6.8221380
 121.4079690 130.4755200   9.1379970 121.9979380 130.1671050   9.8257790
 120.5899930 130.0034950   9.2939870 126.2273120 130.0921010   9.3712990
 125.5388640 129.4302550   9.3062980 126.9479140 129.6459280   9.8161450
 123.0116650 143.7421890   7.8710690 122.9375350 144.6457030   8.1783060
 122.1095490 143.4233790   7.8432760 114.9034150 141.9367070   3.9125940
 114.4665140 142.1167870   4.7450090 115.4711830 142.6941690   3.7707660
 130.5396330 141.4384070   8.2003250 129.9398320 141.4976630   7.4567170
 130.6690230 140.4989050   8.3300100 129.2247970 138.1636050   6.2979410
 128.4107810 138.5933210   6.5605200 129.6322170 138.7754460   5.6848460
 115.7734510 134.8339870   4.8118160 116.1407550 134.7467270   5.6914180
 115.2045330 134.0706420   4.7125020 130.5738370 133.3024250   7.8248630
 130.3424460 133.0737000   6.9246580 130.8342920 134.2223800   7.7793520
 115.3250510 131.7448960   8.7176580 114.4306560 131.7115720   9.0570290
 115.8648060 131.9435750   9.4827830 129.0126440 128.5280680  10.6028330
 129.8896620 128.5364080  10.9862330 129.0247280 127.7911520   9.9920680
 130.6379430 132.4650090   5.0135900 129.6882140 132.4313630   5.1280890
 130.8192440 133.3750200   4.7785670 115.8290220 126.0197290   3.0659800
 116.4766410 125.4694670   2.6254960 116.2492060 126.2740440   3.8875610
 129.7242560 126.2138650   6.4229440 130.3614780 126.8272790   6.7888630
 129.8717450 126.2499310   5.4778670 115.5822220 126.1752960   5.8085120
 115.2337040 126.6316780   6.5743300 115.2509920 125.2810090   5.8907550
 117.1886590 139.3472560   9.9738310 117.1456220 138.9765470  10.8552770
 117.3197600 140.2850130  10.1140130 120.8892620 140.9032150   5.5748030
 120.6483980 141.1706710   4.6878550 121.8295260 141.0737880   5.6298890
 123.0947040 127.3664840   9.3304540 123.0335930 127.9586670  10.0799950
 124.0347420 127.2590800   9.1854800 125.7321600 127.0234900   8.9696830
 126.3462010 127.3414190   8.3077910 126.2771160 126.5383490   9.5892690
 132.1496780 142.9226530   6.3758670 131.6555060 143.3195400   5.6585800
 131.5410070 142.2975740   6.7695950 116.2542860 125.7029160   9.0835890
 116.8025850 125.5217210   8.3202000 116.3198170 124.9123270   9.6192200
 117.0274620 142.2934810   7.0936090 116.4334940 142.1619510   7.8326130
 117.0198460 141.4572950   6.6278190 126.4729640 125.5867040   5.2966120
 125.5989480 125.9202150   5.0939050 126.3640390 125.1140220   6.1217990
 127.3801620 127.7937910   6.6807840 127.0514980 126.9789670   6.3009570
 128.3283920 127.7507720   6.5573530 129.8336230 143.5649950   3.6545410
 129.3739200 144.3165760   3.2803430 129.2048690 142.8456420   3.5960210
 116.6586850 139.6593190   6.0444130 115.9320910 139.0398480   5.9770080
 116.7196000 140.0533800   5.1742210 120.2631950 141.8738190   2.8293540
 120.7796970 141.2625550   2.3041800 120.9129330 142.3766970   3.3204550
 123.0027450 142.7646680   3.6562520 123.2905260 142.5100980   2.7795530
 123.5150670 142.2124040   4.2468090 124.2204460 126.5036880   4.2359030
 123.4376250 126.9782380   4.5155790 123.9267390 125.5991710   4.1272210
 128.7725530 127.2059980   2.2808120 129.2133620 127.1505080   1.4329720
 128.5033120 128.1217990   2.3518300 123.0699810 143.6862780  11.0230720
 123.9967120 143.4507050  11.0666680 123.0550240 144.5134780  10.5416750
 120.2563420 126.3507530  10.7872600 119.9747690 126.8541130  10.0233420
 120.6383120 125.5529280  10.4214730 126.8578880 125.7661110  11.3653070
 126.7444330 126.0855720  12.2604590 127.6748620 126.1673620  11.0690350
 129.6377370 142.9132640  10.8471760 130.4302690 142.4181870  10.6397720
 129.9310520 143.5922780  11.4547370 125.7637030 115.0110090 150.6979220
 125.6831080 114.0964700 150.4270930 125.3501450 115.5077160 149.9918930
 123.8955070 116.7889110 152.5788490 123.1197170 116.3089550 152.8687060
 124.5468000 116.1094760 152.4044650 127.9162500 121.1949300 151.3587620
 127.4544030 120.4236540 151.6874790 128.7288050 121.2215370 151.8640070
 116.3212850 112.0610810 147.2406640 115.4329550 112.4026780 147.1386520
 116.6054040 111.8611130 146.3487470 114.2845860 114.6616460 153.1246340
 114.8561970 113.8938660 153.1249980 114.2847400 114.9605220 152.2152950
 124.1425810 123.4807310 150.9791610 123.5237250 123.9364810 150.4086050
 124.9977590 123.6358770 150.5781310 123.3364060 119.4646300 152.5858650
 123.2672340 118.5236240 152.4247780 124.0983920 119.5547710 153.1581220
 124.3669230 112.2716680 152.8127580 124.7434050 111.3988560 152.7001250
 124.2688740 112.6075380 151.9218020 118.4974240 110.6442310 148.2745020
 118.6040990 111.5446040 148.5813780 117.5866600 110.5960280 147.9839670
 128.1493350 109.7667120 149.7455920 128.9702970 109.2763690 149.7881400
 128.1827430 110.3564780 150.4987760 125.0089160 118.3646550 148.3723520
 124.3906430 118.8296000 147.8086240 125.5212410 119.0574030 148.7893030
 128.3854830 111.7067500 152.5183460 127.6810400 111.9952390 153.0986570
 128.7466990 112.5167610 152.1583020 114.3772360 119.0503080 145.7463150
 114.0000340 119.5390180 145.0148050 114.6345430 119.7228360 146.3769680
 121.9861290 107.4519470 151.2048660 122.2936270 106.8966360 150.4884160
 121.0561990 107.5863930 151.0221650 128.8321770 119.8902980 148.5846290
 128.7218100 118.9477310 148.7095710 128.8290020 120.2518620 149.4709050
 124.3742050 115.5168300 147.9408780 123.4471330 115.4505680 148.1697250
 124.5266870 116.4548430 147.8264020 124.3611130 111.7885300 144.9375940
 123.4214800 111.9499260 145.0228400 124.6794390 112.5070980 144.3911930
 128.4039340 117.0788600 148.4444030 127.7851760 116.7408150 147.7970330
 128.3863790 116.4348360 149.1523220 119.9798690 116.0433040 150.7228510
 119.5755690 115.3310290 150.2274410 120.0661810 115.6986280 151.6116550
 120.4480390 119.7300600 152.8867720 120.1508680 119.1246070 152.2075500
 121.3980210 119.7677910 152.7757080 126.5804040 116.3175410 145.4516780
 127.0197320 115.4797840 145.3054600 127.2932460 116.9504810 145.5380920
 124.6899420 121.2571480 149.4198020 125.1295330 121.9995810 149.0053410
 124.6286310 121.4998050 150.3436980 130.1621180 107.5718220 143.7657820
 129.8493840 107.6645050 144.6656890 130.9233650 108.1499250 143.7155250
 116.6803320 114.9378020 148.2235160 116.5600920 115.6640110 147.6116430
 116.3704210 114.1680930 147.7463070 115.5636320 119.8093350 150.4409980
 115.1564400 119.9507940 149.5863580 116.4549330 119.5253510 150.2381190
 127.3569600 124.2440600 146.7761030 127.1970740 123.9543540 147.6742860
 127.1916310 123.4680730 146.2406260 119.8357980 124.0239130 148.5532650
 119.6600460 123.1074670 148.3400450 118.9813720 124.3826420 148.7930450
 127.0595730 121.7528160 145.3359030 126.3660890 121.7505450 144.6761310
 127.8018590 121.3287480 144.9053200 126.6245660 123.3790870 149.4107520
 127.0802610 122.5980250 149.7246140 126.9638180 124.0897690 149.9548700
 119.1466980 108.2813090 151.6058830 118.7035130 109.0622630 151.2743350
 119.7051970 108.6042980 152.3129770 122.2625800 107.9023790 146.4864660
 121.6379980 107.8983660 147.2117970 122.1755920 107.0354750 146.0900630
 118.9381200 113.4046660 149.3340080 118.7122120 113.1883830 150.2386700
 118.1573730 113.8375120 148.9886050 126.1678960 113.4110030 147.9330730
 125.5687850 114.1345830 147.7494350 126.7158570 113.3486810 147.1507180
 124.7743830 112.0473570 149.9634010 125.1673400 112.3645770 149.1502700
 125.1360680 111.1685450 150.0778530 113.8108000 108.6374370 152.1864210
 113.5221050 109.2077230 152.8989190 114.5553760 108.1578820 152.5495440
 113.9978230 112.5794490 143.3966930 113.9152900 113.5225250 143.5381920
 113.6461290 112.4369400 142.5179280 121.7976360 111.3133520 152.4637280
 121.8012420 110.8723470 151.6141820 122.6927480 111.6350850 152.5709100
 117.6478740 111.1960010 151.4231490 117.3078790 111.6735240 152.1798540
 116.8856060 110.7425130 151.0632590 121.8596510 112.3145600 145.4544040
 121.9809330 112.2732080 146.4029860 121.4745020 113.1769750 145.2990770
 120.8718010 114.6246740 144.8527340 120.3034910 114.1764990 144.2263250
 121.5807010 114.9839520 144.3192490 114.9624820 110.1178990 150.3396160
 114.6771740 109.7534660 151.1774780 114.9003680 109.3859450 149.7259300
 118.4165490 118.6204930 147.1253750 117.6427750 118.0802550 146.9652470
 119.1460120 118.1011540 146.7871510 129.1753470 117.6170290 152.9180140
 129.8952590 118.1125580 152.5276250 128.9735290 116.9388180 152.2734010
 124.6363410 109.0108250 147.0609530 123.8228020 108.5121420 146.9854840
 124.4425360 109.8506500 146.6445880 127.3511800 113.3827900 145.3571690
 128.2391420 113.6945130 145.1823030 127.3216890 112.5100150 144.9652270
 118.4602890 118.2885310 150.7632560 118.9781560 117.4853570 150.7089450
 118.0086910 118.2264450 151.6049390 123.3472390 119.5551590 146.0359860
 123.6888090 120.2993820 145.5403180 122.5185100 119.8682710 146.3984690
 129.6226070 114.6939740 144.8251550 129.5389790 115.1253960 143.9747990
 130.3420260 115.1538090 145.2578370 130.6513320 121.5482000 147.5533680
 130.0089480 120.8937620 147.8277400 130.2643980 121.9537090 146.7774350
 126.2299800 118.8767430 151.4005370 126.5823620 118.2795560 150.7406740
 125.3462130 118.5511660 151.5713620 122.3163080 119.6365120 148.8075780
 123.0034210 120.1834330 149.1883370 121.5295500 120.1805850 148.8425390
 114.4555480 115.2537940 144.2992860 115.3250330 115.5362740 144.5828780
 113.9645800 116.0673810 144.1841670 121.6190290 116.6411150 148.4201140
 122.0753070 117.4516400 148.6461330 121.2678500 116.3234290 149.2519630
 117.5202070 106.9848800 148.8923660 117.3916700 106.9766700 149.8408580
 116.6964090 107.3231890 148.5414670 129.0410700 120.4398460 144.0910030
 128.8148280 119.7228900 144.6834670 128.6506900 120.1910900 143.2531780
 114.8226730 124.4665320 144.8654490 115.1824370 125.0654660 144.2111760
 114.6819070 125.0125210 145.6389520 128.6226950 118.3570400 145.7524190
 128.3348650 118.8183090 146.5402070 129.4179120 117.8968170 146.0208410
 120.8395350 121.8496520 145.6828160 120.8305450 122.5826210 145.0672670
 119.9193710 121.6028100 145.7755120 116.4401990 117.0711410 146.4274920
 115.8329940 117.8110310 146.4370220 116.9151340 117.1610770 145.6013120
 129.3796810 110.1919170 146.9119370 128.7509970 110.2964840 146.1977600
 128.8848730 110.4115950 147.7013250 123.8254950 121.9124760 144.3453350
 123.9266930 121.7088750 143.4155330 122.9256690 121.6583040 144.5501130
 121.3480840 112.4705120 148.3277250 120.6396990 112.9391460 148.7690860
 121.6325320 111.8127130 148.9622440 125.3796270 109.1955780 149.7673040
 125.2564050 109.2141910 148.8182550 126.3280830 109.2434720 149.8871440
 122.4673060 124.4311080 149.0401020 122.7214560 124.3932470 148.1180390
 121.5185540 124.3044410 149.0329270 119.5515860 110.7790200 145.7027960
 120.4006390 111.2160350 145.6368150 119.1847130 111.0910460 146.5300020
 128.4725640 115.3502960 150.6159530 127.5315780 115.3653190 150.7907220
 128.7869710 114.5638920 151.0619830 118.4507280 117.0322560 144.1763490
 119.2170550 116.9203920 144.7388920 118.5281970 116.3360530 143.5240260
 117.1454040 114.4647630 144.8596380 117.2257630 113.5175140 144.9713780
 118.0373790 114.7954510 144.9657040 130.4751220 122.5211810 152.2913790
 130.5998640 123.3442980 152.7637600 131.3416780 122.3102540 151.9437940
 117.9468750 124.6143020 151.9630920 118.6831230 124.0658480 152.2339490
 118.3309670 125.4799030 151.8236910 114.8314230 120.6816590 147.8372430
 113.9054010 120.9237730 147.8277840 115.2970660 121.5090850 147.7157180
 121.0571060 123.7873330 143.7856490 121.8499670 124.0762160 143.3338280
 120.5375410 123.3565500 143.1068970 130.1101230 123.0143460 145.2093230
 129.8242740 122.6008600 144.3947410 129.9120780 123.9431170 145.0893750
 121.5748460 119.0076740 143.6498840 121.4699100 118.3929090 144.3760220
 121.4072680 118.4842630 142.8661850 124.8151190 118.0696770 144.2540830
 124.2661290 118.5166070 144.8983570 125.4370450 117.5646020 144.7778500
 120.4826310 117.0287690 146.1506130 120.9042730 116.8627560 146.9937520
 120.6077150 116.2187920 145.6561270 122.9953950 116.0525300 143.3983230
 123.5159610 115.3374320 143.0324380 123.6422350 116.6911170 143.6983740
 119.3785210 113.1020920 143.0964290 119.1774270 112.2388280 143.4577630
 119.2077260 113.0154280 142.1585890 126.8573520 107.9129150 145.6251170
 127.1375810 107.0697050 145.9810590 126.0839250 108.1452260 146.1389920
 118.1768010 110.2021540 143.0842170 118.4793910 110.2088970 142.1761320
 118.9162600 109.8519400 143.5809830 121.3952940 109.1456160 144.0698370
 121.0474940 108.4680150 143.4900820 121.5965710 108.6845670 144.8841760
 123.5601980 124.1336910 145.6884970 124.4552770 124.4721880 145.7103730
 123.5919610 123.4116320 145.0609250 117.1998140 119.5063960 143.9171970
 117.6373010 120.0493630 144.5729550 117.6845870 118.6810910 143.9268310
 114.4143940 122.2952990 151.3692230 114.7446950 121.4274050 151.1370870
 114.8434940 122.5011510 152.1997190 119.0105860 120.6262000 149.0294200
 118.7101400 120.5026970 149.9298110 118.9043350 119.7670590 148.6209930
 131.7797780 120.4058400 143.7320880 130.9490740 120.4735050 144.2028110
 131.9569610 121.2962520 143.4287740 131.2354240 117.1505880 146.2355080
 131.9973150 117.7202530 146.3414770 131.2508610 116.5833080 147.0063390
 114.7358580 115.6743810 150.4662740 114.0807420 115.4055450 149.8222440
 115.5736530 115.5648290 150.0164720 132.2414210 118.0055980 151.0797010
 132.6123040 117.2223300 150.6732980 132.8816140 118.6945080 150.9014310
 131.2873410 117.4440250 143.3927600 131.5622250 118.3519130 143.2646820
 131.0984150 117.3802780 144.3289590 127.6849020 110.4685100 144.6881230
 128.1033900 110.2816080 143.8477890 127.3785080 109.6164150 144.9984160
 131.1838750 115.3809240 148.3857030 130.8082350 114.6137170 147.9538320
 130.4541870 115.7631940 148.8731960 113.9496660 112.8842740 146.4088070
 113.0460740 113.1472940 146.2339730 114.4337280 113.1553910 145.6288030
 130.4589710 113.6066730 151.6864270 130.9827190 113.1129380 151.0554440
 131.0449130 113.7417090 152.4311840 116.4923870 111.9408280 144.3182450
 117.2015570 111.5191500 143.8329730 115.7763810 112.0083510 143.6865800
 116.1398030 107.9947610 143.3585100 116.8626160 108.5356550 143.6766320
 116.4122550 107.7211030 142.4826640 129.9489680 112.8640080 147.6256680
 130.4448800 112.6310950 148.4105560 129.7505750 112.0251920 147.2094320
 131.3776840 111.5001030 150.1594360 131.2676120 111.3457070 151.0976630
 132.1384430 110.9721970 149.9169770 132.2667110 109.3308950 143.4000500
 133.1916420 109.1990130 143.1918790 132.2442900 109.4101770 144.3536950
 132.3405600 110.1019610 146.0257210 131.5457100 110.0364730 146.5550120
 132.5448880 111.0370250 146.0142560 129.2824020 124.1411160 150.0195600
 129.8783090 123.8195730 149.3430020 129.5402170 123.6682980 150.8108870
 128.7725530 108.4316490 152.4756040 129.2133620 108.3761590 151.6277640
 128.5033120 109.3474500 152.5466220 130.6364100 108.0631730 150.4864860
 130.5752500 107.1192950 150.3395880 131.4156130 108.1711820 151.0318320
 114.9416850 124.2024090 149.4488810 114.7738890 123.5694770 150.1470700
 114.0751360 124.4083490 149.0983000 115.5644870 108.0340870 146.9520670
 116.3224230 108.1469750 146.3784700 115.1022040 108.8710070 146.9064100
 122.1058680 110.1480140 149.9422980 121.2933190 109.7737030 149.6018860
 122.6100320 109.3925220 150.2444170 126.6083660 106.8122590 151.1806050
 127.2113030 107.3842800 151.6554570 125.8676650 107.3762030 150.9579950
 129.7518260 107.2144150 146.4546330 129.9468890 108.1127600 146.7213760
 128.9648130 106.9831230 146.9479280 116.5479550 122.8957320 146.8938950
 116.0227170 123.2765350 146.1900910 116.4724130 123.5208090 147.6148660
 117.9370020 108.5604920 145.4922640 118.4662780 107.7734720 145.3630590
 118.5698340 109.2396110 145.7258170 120.1307860 108.2980060 148.5468030
 119.5010600 107.5967370 148.7138160 119.5913000 109.0584190 148.3301190
 131.3044870 124.4544860 148.2152890 131.4797060 123.7682600 147.5713810
 130.6066440 124.9791910 147.8229560 119.1472520 124.8439700 145.7688200
 119.8791340 124.5598980 145.2212090 119.4066190 124.6052980 146.6587580
 118.3087310 120.9604430 145.7734530 117.6796190 121.4289530 146.3220360
 118.4235140 120.1153650 146.2080720 125.7637030 115.0110090 131.9235730
 125.6831080 114.0964700 131.6527440 125.3501450 115.5077160 131.2175440
 123.8955070 116.7889110 133.8045000 123.1197170 116.3089550 134.0943570
 124.5468000 116.1094760 133.6301160 117.9120900 117.1008920 134.6820760
 117.0805780 116.8457630 135.0817270 118.5201880 117.1719690 135.4178680
 127.9162500 121.1949300 132.5844130 127.4544030 120.4236540 132.9131300
 128.7288050 121.2215370 133.0896580 117.8922160 121.1349010 134.8778780
 118.1950200 120.2446750 134.6989000 118.6365750 121.6919230 134.6501030
 116.3212850 112.0610810 128.4663150 115.4329550 112.4026780 128.3643030
 116.6054040 111.8611130 127.5743980 114.2845860 114.6616460 134.3502850
 114.8561970 113.8938660 134.3506490 114.2847400 114.9605220 133.4409460
 124.1425810 123.4807310 132.2048120 123.5237250 123.9364810 131.6342560
 124.9977590 123.6358770 131.8037820 123.3364060 119.4646300 133.8115160
 123.2672340 118.5236240 133.6504290 124.0983920 119.5547710 134.3837730
 115.5270730 110.0700820 136.1371780 115.3473570 109.1726570 136.4174540
 115.1250810 110.6172690 136.8118730 124.3669230 112.2716680 134.0384090
 124.7434050 111.3988560 133.9257760 124.2688740 112.6075380 133.1474530
 118.4974240 110.6442310 129.5001530 118.6040990 111.5446040 129.8070290
 117.5866600 110.5960280 129.2096180 128.1493350 109.7667120 130.9712430
 128.9702970 109.2763690 131.0137910 128.1827430 110.3564780 131.7244270
 116.1457400 112.5661320 134.7454120 116.8267510 112.8299690 135.3641520
 115.8305450 111.7262190 135.0792130 120.3381970 113.6128680 133.8326710
 120.8460190 114.1109650 134.4731730 120.8695210 112.8363880 133.6566070
 132.4392900 111.7833870 137.5356060 131.7345070 112.1715580 137.0171170
 132.7050820 112.4784160 138.1376990 118.6218070 108.2527240 138.0990130
 118.6236510 108.7699630 137.2936030 117.7922380 107.7757420 138.0760060
 125.0089160 118.3646550 129.5980030 124.3906430 118.8296000 129.0342750
 125.5212410 119.0574030 130.0149540 119.8720920 117.8922420 136.2763630
 119.5390300 118.5191340 136.9184700 120.0487600 118.4184300 135.4965300
 128.3854830 111.7067500 133.7439970 127.6810400 111.9952390 134.3243080
 128.7466990 112.5167610 133.3839530 118.3033400 109.9637200 136.1060580
 118.6450210 110.8079250 135.8114450 117.3649210 110.1120940 136.2225920
 119.0840020 119.8603220 138.0912810 119.7014020 120.5354300 137.8097260
 118.2233140 120.2691200 138.0000310 114.3772360 119.0503080 126.9719660
 114.0000340 119.5390180 126.2404560 114.6345430 119.7228360 127.6026190
 130.0017610 121.3242630 136.0067450 129.3181130 121.9941740 135.9984120
 130.5411900 121.5223280 135.2412310 131.4541750 111.1522290 134.1349180
 130.5066660 111.1861270 134.2664610 131.7791740 111.9661240 134.5198540
 121.9861290 107.4519470 132.4305170 122.2936270 106.8966360 131.7140670
 121.0561990 107.5863930 132.2478160 127.5376350 123.1686760 134.7212630
 127.5503510 122.7649050 133.8534890 126.9851570 123.9434050 134.6174060
 128.8321770 119.8902980 129.8102800 128.7218100 118.9477310 129.9352220
 128.8290020 120.2518620 130.6965560 126.9361790 118.0716600 136.0495240
 127.3530580 117.8576710 135.2148700 127.6601610 118.3289390 136.6203860
 124.3742050 115.5168300 129.1665290 123.4471330 115.4505680 129.3953760
 124.5266870 116.4548430 129.0520530 124.3611130 111.7885300 126.1632450
 123.4214800 111.9499260 126.2484910 124.6794390 112.5070980 125.6168440
 130.8823890 116.4703820 136.1411480 130.0542520 116.5396910 135.6661610
 131.4774370 117.0558130 135.6727310 128.4039340 117.0788600 129.6700540
 127.7851760 116.7408150 129.0226840 128.3863790 116.4348360 130.3779730
 127.8465900 113.2573140 137.0866350 127.4337080 114.0826850 137.3406340
 127.1141850 112.6718180 136.8942710 119.9798690 116.0433040 131.9485020
 119.5755690 115.3310290 131.4530920 120.0661810 115.6986280 132.8373060
 120.4480390 119.7300600 134.1124230 120.1508680 119.1246070 133.4332010
 121.3980210 119.7677910 134.0013590 118.6927310 112.8176250 135.7284060
 119.2441900 112.9271590 134.9537310 119.2070820 113.1913850 136.4439290
 128.5366000 123.3032470 137.7747330 128.0596560 124.1104660 137.5819940
 127.8527790 122.6510800 137.9273540 119.5398820 119.4682290 140.7632030
 118.6427350 119.6922260 141.0105430 119.5651690 119.5917230 139.8143430
 126.5804040 116.3175410 126.6773290 127.0197320 115.4797840 126.5311110
 127.2932460 116.9504810 126.7637430 118.3670040 116.3395610 139.3389400
 118.2277810 117.2118410 139.7076800 117.4851400 115.9968420 139.1937340
 124.6899420 121.2571480 130.6454530 125.1295330 121.9995810 130.2309920
 124.6286310 121.4998050 131.5693490 120.1650390 122.2817310 141.5474550
 120.1365820 122.6860260 140.6802980 120.0015360 121.3527670 141.3846150
 130.1621180 107.5718220 124.9914330 129.8493840 107.6645050 125.8913400
 130.9233650 108.1499250 124.9411760 116.6803320 114.9378020 129.4491670
 116.5600920 115.6640110 128.8372940 116.3704210 114.1680930 128.9719580
 132.1165210 123.0644410 142.8438720 132.5924930 123.5427300 143.5227800
 132.7372370 122.9961900 142.1184220 114.3188690 118.1093160 135.2560310
 114.3969110 118.2441930 134.3116030 114.9330370 117.4009050 135.4488430
 115.5636320 119.8093350 131.6666490 115.1564400 119.9507940 130.8120090
 116.4549330 119.5253510 131.4637700 131.5198460 120.2557260 140.0038730
 131.6461520 120.0169140 139.0855910 131.5619840 119.4241800 140.4760810
 125.3815200 123.9585260 138.5733540 125.8959870 123.8693270 139.3755970
 124.5384280 124.3044960 138.8661450 127.3569600 124.2440600 128.0017540
 127.1970740 123.9543540 128.8999370 127.1916310 123.4680730 127.4662770
 119.8357980 124.0239130 129.7789160 119.6600460 123.1074670 129.5656960
 118.9813720 124.3826420 130.0186960 127.0595730 121.7528160 126.5615540
 126.3660890 121.7505450 125.9017820 127.8018590 121.3287480 126.1309710
 126.6245660 123.3790870 130.6364030 127.0802610 122.5980250 130.9502650
 126.9638180 124.0897690 131.1805210 131.3722470 112.3089720 140.9688470
 130.7566740 112.8169390 140.4403930 131.0518890 111.4088050 140.9114410
 114.3748210 119.1507330 137.7954770 114.5379250 118.6812690 136.9774140
 114.8400660 118.6430890 138.4603610 119.1466980 108.2813090 132.8315340
 118.7035130 109.0622630 132.4999860 119.7051970 108.6042980 133.5386280
 123.4336790 111.1481610 138.4350660 122.9716160 111.3564630 139.2470600
 123.0314900 110.3340960 138.1321330 128.4341300 112.3690560 139.5647320
 127.5834890 112.0696310 139.8856390 128.2743090 112.6132570 138.6531140
 125.5291010 113.8692310 141.6646110 125.8544420 113.0356060 141.3248340
 126.3171340 114.3920830 141.8124440 122.2625800 107.9023790 127.7121170
 121.6379980 107.8983660 128.4374480 122.1755920 107.0354750 127.3157140
 121.1842880 108.8260420 134.6904940 121.4815210 109.7323250 134.6096960
 121.7328440 108.3379200 134.0764510 118.9381200 113.4046660 130.5596590
 118.7122120 113.1883830 131.4643210 118.1573730 113.8375120 130.2142560
 126.1678960 113.4110030 129.1587240 125.5687850 114.1345830 128.9750860
 126.7158570 113.3486810 128.3763690 121.3780410 114.3032240 141.2256860
 121.2824010 113.3626970 141.0757260 122.2212390 114.5247310 140.8304930
 124.7743830 112.0473570 131.1890520 125.1673400 112.3645770 130.3759210
 125.1360680 111.1685450 131.3035040 116.5090950 110.7145910 139.3790640
 116.1154340 111.5621120 139.5863420 115.8209350 110.0772280 139.5699280
 123.0836000 110.7980880 142.4487380 122.3934320 110.6053080 143.0833470
 123.8268300 111.0815520 142.9811680 113.8108000 108.6374370 133.4120720
 113.5221050 109.2077230 134.1245700 114.5553760 108.1578820 133.7751950
 113.9978230 112.5794490 124.6223440 113.9152900 113.5225250 124.7638430
 113.6461290 112.4369400 123.7435790 125.3598970 114.6379320 135.2841300
 124.6280090 115.1466130 135.6331400 124.9623310 113.8209300 134.9830080
 121.7976360 111.3133520 133.6893790 121.8012420 110.8723470 132.8398330
 122.6927480 111.6350850 133.7965610 117.6478740 111.1960010 132.6488000
 117.3078790 111.6735240 133.4055050 116.8856060 110.7425130 132.2889100
 121.8596510 112.3145600 126.6800550 121.9809330 112.2732080 127.6286370
 121.4745020 113.1769750 126.5247280 125.8224880 110.0913000 134.6964240
 125.8397620 110.5421650 135.5406090 125.5740460 109.1918640 134.9097680
 120.8718010 114.6246740 126.0783850 120.3034910 114.1764990 125.4519760
 121.5807010 114.9839520 125.5449000 129.2495630 107.5045180 140.5350620
 129.5741400 106.7734840 141.0608600 129.2852140 107.1858820 139.6331610
 115.9487190 118.5258760 139.9550580 115.5641980 117.8852430 140.5533540
 116.2599380 119.2294880 140.5245310 122.0984330 115.3735300 135.4359200
 122.4654460 114.8993870 136.1820540 121.9089390 116.2476870 135.7767540
 114.9624820 110.1178990 131.5652670 114.6771740 109.7534660 132.4031290
 114.9003680 109.3859450 130.9515810 119.8883700 114.4143940 137.7543410
 119.5840770 115.2935920 137.9793770 120.8430160 114.4743730 137.7900850
 118.4165490 118.6204930 128.3510260 117.6427750 118.0802550 128.1908980
 119.1460120 118.1011540 128.0128020 129.1753470 117.6170290 134.1436650
 129.8952590 118.1125580 133.7532760 128.9735290 116.9388180 133.4990520
 124.6363410 109.0108250 128.2866040 123.8228020 108.5121420 128.2111350
 124.4425360 109.8506500 127.8702390 124.5572270 117.6879350 140.0305650
 124.4909580 116.7675020 139.7763240 123.9277410 117.7854790 140.7450290
 127.3511800 113.3827900 126.5828200 128.2391420 113.6945130 126.4079540
 127.3216890 112.5100150 126.1908780 118.4602890 118.2885310 131.9889070
 118.9781560 117.4853570 131.9345960 118.0086910 118.2264450 132.8305900
 123.3472390 119.5551590 127.2616370 123.6888090 120.2993820 126.7659690
 122.5185100 119.8682710 127.6241200 115.9447430 115.2546680 138.9014770
 115.5862370 115.9200530 139.4888110 115.6501990 114.4230230 139.2727390
 119.1460550 115.7130920 141.7854320 118.8460690 115.8588100 140.8882140
 119.9171790 115.1536210 141.6927710 124.4889000 120.5099920 139.7809450
 124.5033540 119.5780880 139.5628360 123.7814100 120.5959680 140.4199220
 129.6226070 114.6939740 126.0508060 129.5389790 115.1253960 125.2004500
 130.3420260 115.1538090 126.4834880 130.7000210 117.1507260 139.1278030
 129.9748400 117.7436040 138.9307420 131.2275670 117.1430800 138.3291400
 130.6513320 121.5482000 128.7790190 130.0089480 120.8937620 129.0533910
 130.2643980 121.9537090 128.0030860 126.2299800 118.8767430 132.6261880
 126.5823620 118.2795560 131.9663250 125.3462130 118.5511660 132.7970130
 122.3163080 119.6365120 130.0332290 123.0034210 120.1834330 130.4139880
 121.5295500 120.1805850 130.0681900 114.4555480 115.2537940 125.5249370
 115.3250330 115.5362740 125.8085290 113.9645800 116.0673810 125.4098180
 121.6190290 116.6411150 129.6457650 122.0753070 117.4516400 129.8717840
 121.2678500 116.3234290 130.4776140 123.9222900 122.1517490 136.8749950
 124.5665120 122.3576870 137.5523370 124.2852340 121.3905890 136.4220800
 117.5202070 106.9848800 130.1180170 117.3916700 106.9766700 131.0665090
 116.6964090 107.3231890 129.7671180 125.1954980 120.1549840 135.5927400
 125.8377210 119.4543000 135.7059570 125.7204330 120.9348280 135.4124290
 129.0410700 120.4398460 125.3166540 128.8148280 119.7228900 125.9091180
 128.6506900 120.1910900 124.4788290 126.9692600 120.9544740 138.7963460
 127.3048840 121.5411430 139.4741380 126.0492940 120.8237450 139.0261250
 114.8226730 124.4665320 126.0911000 115.1824370 125.0654660 125.4368270
 114.6819070 125.0125210 126.8646030 114.5196000 108.7439920 139.5786870
 113.8054520 108.9436840 140.1839480 114.9391040 107.9679490 139.9501670
 128.6226950 118.3570400 126.9780700 128.3348650 118.8183090 127.7658580
 129.4179120 117.8968170 127.2464920 114.8068590 122.7320180 140.5653400
 114.9159710 121.7914920 140.4248790 114.1549150 122.9974930 139.9167130
 122.7981180 121.0036070 141.9651520 122.4778050 120.2845310 142.5097210
 122.1239540 121.6791140 142.0387580 120.8395350 121.8496520 126.9084670
 120.8305450 122.5826210 126.2929180 119.9193710 121.6028100 127.0011630
 116.4401990 117.0711410 127.6531430 115.8329940 117.8110310 127.6626730
 116.9151340 117.1610770 126.8269630 126.0134780 111.2362230 137.3288320
 126.3815600 110.4157440 137.6567890 125.1532980 111.2964120 137.7443970
 129.3796810 110.1919170 128.1375880 128.7509970 110.2964840 127.4234110
 128.8848730 110.4115950 128.9269760 123.8254950 121.9124760 125.5709860
 123.9266930 121.7088750 124.6411840 122.9256690 121.6583040 125.7757640
 121.3480840 112.4705120 129.5533760 120.6396990 112.9391460 129.9947370
 121.6325320 111.8127130 130.1878950 122.9736770 113.8901820 137.5526290
 123.4722020 114.3647640 138.2178140 123.1159720 112.9665340 137.7596320
 125.3796270 109.1955780 130.9929550 125.2564050 109.2141910 130.0439060
 126.3280830 109.2434720 131.1127950 122.4673060 124.4311080 130.2657530
 122.7214560 124.3932470 129.3436900 121.5185540 124.3044410 130.2585780
 119.5515860 110.7790200 126.9284470 120.4006390 111.2160350 126.8624660
 119.1847130 111.0910460 127.7556530 130.1803630 110.1069780 138.3954680
 129.6777230 110.8475180 138.7348490 130.9960290 110.4953780 138.0791470
 128.4725640 115.3502960 131.8416040 127.5315780 115.3653190 132.0163730
 128.7869710 114.5638920 132.2876340 118.4507280 117.0322560 125.4020000
 119.2170550 116.9203920 125.9645430 118.5281970 116.3360530 124.7496770
 117.1454040 114.4647630 126.0852890 117.2257630 113.5175140 126.1970290
 118.0373790 114.7954510 126.1913550 130.4751220 122.5211810 133.5170300
 130.5998640 123.3442980 133.9894110 131.3416780 122.3102540 133.1694450
 117.9468750 124.6143020 133.1887430 118.6831230 124.0658480 133.4596000
 118.3309670 125.4799030 133.0493420 114.8314230 120.6816590 129.0628940
 113.9054010 120.9237730 129.0534350 115.2970660 121.5090850 128.9413690
 116.9527030 123.7989090 142.3773010 117.7539760 124.1201140 142.7908410
 116.4378850 123.4384670 143.0992920 121.0571060 123.7873330 125.0113000
 121.8499670 124.0762160 124.5594790 120.5375410 123.3565500 124.3325480
 125.7891660 119.9068960 142.3248420 125.1829820 119.9300560 141.5844170
 125.4845770 119.1752000 142.8615670 127.2192030 123.6349250 140.9357830
 128.1713780 123.5507270 140.8858070 127.0720250 124.2990960 141.6091620
 130.1101230 123.0143460 126.4349740 129.8242740 122.6008600 125.6203920
 129.9120780 123.9431170 126.3150260 114.6724840 116.2862550 141.3209060
 115.1763860 115.7069830 141.8925290 113.9332260 116.5702780 141.8585430
 121.5748460 119.0076740 124.8755350 121.4699100 118.3929090 125.6016730
 121.4072680 118.4842630 124.0918360 121.7262780 117.6933540 140.8544580
 120.9608450 118.2618540 140.7699250 121.9078740 117.4009750 139.9612810
 124.8151190 118.0696770 125.4797340 124.2661290 118.5166070 126.1240080
 125.4370450 117.5646020 126.0035010 128.8686130 119.4238870 141.4119600
 129.6095600 119.7614630 140.9087060 128.1058810 119.5930930 140.8589370
 116.7047920 114.4292140 142.2159130 116.7453260 114.1306010 143.1244360
 117.5593420 114.8299750 142.0566650 120.4826310 117.0287690 127.3762640
 120.9042730 116.8627560 128.2194030 120.6077150 116.2187920 126.8817780
 118.6453730 113.0084240 140.1833620 118.1150190 112.5175190 139.5556960
 119.3141800 113.4368440 139.6491550 122.9953950 116.0525300 124.6239740
 123.5159610 115.3374320 124.2580890 123.6422350 116.6911170 124.9240250
 127.5431790 117.4753700 139.9474810 127.9572810 117.6298780 140.7965230
 126.6082790 117.6008920 140.1100590 128.0153960 114.8149860 141.9513960
 128.5974730 114.0602180 141.8634440 128.1915730 115.3457300 141.1745440
 119.1326030 109.9746610 140.2630910 119.0382900 109.3567360 139.5381780
 118.5523420 110.7012900 140.0360820 121.8987470 108.5319850 137.2958300
 121.4504770 108.5544110 136.4503850 121.2652670 108.1338870 137.8928600
 122.3047020 117.4274180 137.9170740 122.7235130 118.2706910 137.7446980
 121.3855650 117.5646220 137.6877520 124.6410920 115.1590360 139.3008580
 124.7607130 114.5631500 140.0403420 125.5004920 115.1960050 138.8809880
 126.9798820 115.7127550 137.8771090 126.4534040 116.2370170 137.2736230
 127.3230160 116.3454940 138.5080820 119.3785210 113.1020920 124.3220800
 119.1774270 112.2388280 124.6834140 119.2077260 113.0154280 123.3842400
 120.1554440 123.7327190 139.0328470 119.6175530 124.4573250 138.7137170
 120.4088400 123.2557530 138.2425810 121.4079690 111.7011710 140.5584400
 121.9979380 111.3927560 141.2462220 120.5899930 111.2291460 140.7144300
 126.2273120 111.3177520 140.7917420 125.5388640 110.6559060 140.7267410
 126.9479140 110.8715790 141.2365880 126.8573520 107.9129150 126.8507680
 127.1375810 107.0697050 127.2067100 126.0839250 108.1452260 127.3646430
 118.1768010 110.2021540 124.3098680 118.4793910 110.2088970 123.4017830
 118.9162600 109.8519400 124.8066340 123.0116650 124.9678400 139.2915120
 122.9375350 125.8713540 139.5987490 122.1095490 124.6490300 139.2637190
 121.3952940 109.1456160 125.2954880 121.0474940 108.4680150 124.7157330
 121.5965710 108.6845670 126.1098270 123.5601980 124.1336910 126.9141480
 124.4552770 124.4721880 126.9360240 123.5919610 123.4116320 126.2865760
 117.1998140 119.5063960 125.1428480 117.6373010 120.0493630 125.7986060
 117.6845870 118.6810910 125.1524820 114.4143940 122.2952990 132.5948740
 114.7446950 121.4274050 132.3627380 114.8434940 122.5011510 133.4253700
 119.0105860 120.6262000 130.2550710 118.7101400 120.5026970 131.1554620
 118.9043350 119.7670590 129.8466440 114.9034150 123.1623580 135.3330370
 114.4665140 123.3424380 136.1654520 115.4711830 123.9198200 135.1912090
 130.5396330 122.6640580 139.6207680 129.9398320 122.7233140 138.8771600
 130.6690230 121.7245560 139.7504530 131.7797780 120.4058400 124.9577390
 130.9490740 120.4735050 125.4284620 131.9569610 121.2962520 124.6544250
 131.2354240 117.1505880 127.4611590 131.9973150 117.7202530 127.5671280
 131.2508610 116.5833080 128.2319900 114.7358580 115.6743810 131.6919250
 114.0807420 115.4055450 131.0478950 115.5736530 115.5648290 131.2421230
 132.2414210 118.0055980 132.3053520 132.6123040 117.2223300 131.8989490
 132.8816140 118.6945080 132.1270820 129.2247970 119.3892560 137.7183840
 128.4107810 119.8189720 137.9809630 129.6322170 120.0010970 137.1052890
 131.2873410 117.4440250 124.6184110 131.5622250 118.3519130 124.4903330
 131.0984150 117.3802780 125.5546100 127.6849020 110.4685100 125.9137740
 128.1033900 110.2816080 125.0734400 127.3785080 109.6164150 126.2240670
 131.1838750 115.3809240 129.6113540 130.8082350 114.6137170 129.1794830
 130.4541870 115.7631940 130.0988470 115.7734510 116.0596380 136.2322590
 116.1407550 115.9723780 137.1118610 115.2045330 115.2962930 136.1329450
 130.5738370 114.5280760 139.2453060 130.3424460 114.2993510 138.3451010
 130.8342920 115.4480310 139.1997950 115.3250510 112.9705470 140.1381010
 114.4306560 112.9372230 140.4774720 115.8648060 113.1692260 140.9032260
 129.0126440 109.7537190 142.0232760 129.8896620 109.7620590 142.4066760
 129.0247280 109.0168030 141.4125110 113.9496660 112.8842740 127.6344580
 113.0460740 113.1472940 127.4596240 114.4337280 113.1553910 126.8544540
 130.4589710 113.6066730 132.9120780 130.9827190 113.1129380 132.2810950
 131.0449130 113.7417090 133.6568350 130.6379430 113.6906600 136.4340330
 129.6882140 113.6570140 136.5485320 130.8192440 114.6006710 136.1990100
 116.4923870 111.9408280 125.5438960 117.2015570 111.5191500 125.0586240
 115.7763810 112.0083510 124.9122310 116.1398030 107.9947610 124.5841610
 116.8626160 108.5356550 124.9022830 116.4122550 107.7211030 123.7083150
 129.9489680 112.8640080 128.8513190 130.4448800 112.6310950 129.6362070
 129.7505750 112.0251920 128.4350830 115.8290220 107.2453800 134.4864230
 116.4766410 106.6951180 134.0459390 116.2492060 107.4996950 135.3080040
 131.3776840 111.5001030 131.3850870 131.2676120 111.3457070 132.3233140
 132.1384430 110.9721970 131.1426280 129.7242560 107.4395160 137.8433870
 130.3614780 108.0529300 138.2093060 129.8717450 107.4755820 136.8983100
 132.2667110 109.3308950 124.6257010 133.1916420 109.1990130 124.4175300
 132.2442900 109.4101770 125.5793460 132.3405600 110.1019610 127.2513720
 131.5457100 110.0364730 127.7806630 132.5448880 111.0370250 127.2399070
 129.2824020 124.1411160 131.2452110 129.8783090 123.8195730 130.5686530
 129.5402170 123.6682980 132.0365380 115.5822220 107.4009470 137.2289550
 115.2337040 107.8573290 137.9947730 115.2509920 106.5066600 137.3111980
 117.1886590 120.5729070 141.3942740 117.1456220 120.2021980 142.2757200
 117.3197600 121.5106640 141.5344560 120.8892620 122.1288660 136.9952460
 120.6483980 122.3963220 136.1082980 121.8295260 122.2994390 137.0503320
 123.0947040 108.5921350 140.7508970 123.0335930 109.1843180 141.5004380
 124.0347420 108.4847310 140.6059230 125.7321600 108.2491410 140.3901260
 126.3462010 108.5670700 139.7282340 126.2771160 107.7640000 141.0097120
 132.1496780 124.1483040 137.7963100 131.6555060 124.5451910 137.0790230
 131.5410070 123.5232250 138.1900380 116.2542860 106.9285670 140.5040320
 116.8025850 106.7473720 139.7406430 116.3198170 106.1379780 141.0396630
 117.0274620 123.5191320 138.5140520 116.4334940 123.3876020 139.2530560
 117.0198460 122.6829460 138.0482620 126.4729640 106.8123550 136.7170550
 125.5989480 107.1458660 136.5143480 126.3640390 106.3396730 137.5422420
 127.3801620 109.0194420 138.1012270 127.0514980 108.2046180 137.7214000
 128.3283920 108.9764230 137.9777960 129.8336230 124.7906460 135.0749840
 129.3739200 125.5422270 134.7007860 129.2048690 124.0712930 135.0164640
 116.6586850 120.8849700 137.4648560 115.9320910 120.2654990 137.3974510
 116.7196000 121.2790310 136.5946640 120.2631950 123.0994700 134.2497970
 120.7796970 122.4882060 133.7246230 120.9129330 123.6023480 134.7408980
 123.0027450 123.9903190 135.0766950 123.2905260 123.7357490 134.1999960
 123.5150670 123.4380550 135.6672520 124.2204460 107.7293390 135.6563460
 123.4376250 108.2038890 135.9360220 123.9267390 106.8248220 135.5476640
 128.7725530 108.4316490 133.7012550 129.2133620 108.3761590 132.8534150
 128.5033120 109.3474500 133.7722730 130.6364100 108.0631730 131.7121370
 130.5752500 107.1192950 131.5652390 131.4156130 108.1711820 132.2574830
 114.9416850 124.2024090 130.6745320 114.7738890 123.5694770 131.3727210
 114.0751360 124.4083490 130.3239510 115.5644870 108.0340870 128.1777180
 116.3224230 108.1469750 127.6041210 115.1022040 108.8710070 128.1320610
 122.1058680 110.1480140 131.1679490 121.2933190 109.7737030 130.8275370
 122.6100320 109.3925220 131.4700680 126.6083660 106.8122590 132.4062560
 127.2113030 107.3842800 132.8811080 125.8676650 107.3762030 132.1836460
 129.7518260 107.2144150 127.6802840 129.9468890 108.1127600 127.9470270
 128.9648130 106.9831230 128.1735790 116.5479550 122.8957320 128.1195460
 116.0227170 123.2765350 127.4157420 116.4724130 123.5208090 128.8405170
 117.9370020 108.5604920 126.7179150 118.4662780 107.7734720 126.5887100
 118.5698340 109.2396110 126.9514680 120.1307860 108.2980060 129.7724540
 119.5010600 107.5967370 129.9394670 119.5913000 109.0584190 129.5557700
 123.0699810 124.9119290 142.4435150 123.9967120 124.6763560 142.4871110
 123.0550240 125.7391290 141.9621180 131.3044870 124.4544860 129.4409400
 131.4797060 123.7682600 128.7970320 130.6066440 124.9791910 129.0486070
 120.2563420 107.5764040 142.2077030 119.9747690 108.0797640 141.4437850
 120.6383120 106.7785790 141.8419160 119.1472520 124.8439700 126.9944710
 119.8791340 124.5598980 126.4468600 119.4066190 124.6052980 127.8844090
 118.3087310 120.9604430 126.9991040 117.6796190 121.4289530 127.5476870
 118.4235140 120.1153650 127.4337230 126.8578880 106.9917620 142.7857500
 126.7444330 107.3112230 143.6809020 127.6748620 107.3930130 142.4894780
 129.6377370 124.1389150 142.2676190 130.4302690 123.6438380 142.0602150
 129.9310520 124.8179290 142.8751800 125.7637030 115.0110090 113.1492240
 125.6831080 114.0964700 112.8783950 125.3501450 115.5077160 112.4431950
 123.8955070 116.7889110 115.0301510 123.1197170 116.3089550 115.3200080
 124.5468000 116.1094760 114.8557670 117.9120900 117.1008920 115.9077270
 117.0805780 116.8457630 116.3073780 118.5201880 117.1719690 116.6435190
 127.9162500 121.1949300 113.8100640 127.4544030 120.4236540 114.1387810
 128.7288050 121.2215370 114.3153090 117.8922160 121.1349010 116.1035290
 118.1950200 120.2446750 115.9245510 118.6365750 121.6919230 115.8757540
 116.3212850 112.0610810 109.6919660 115.4329550 112.4026780 109.5899540
 116.6054040 111.8611130 108.8000490 114.2845860 114.6616460 115.5759360
 114.8561970 113.8938660 115.5763000 114.2847400 114.9605220 114.6665970
 124.1425810 123.4807310 113.4304630 123.5237250 123.9364810 112.8599070
 124.9977590 123.6358770 113.0294330 123.3364060 119.4646300 115.0371670
 123.2672340 118.5236240 114.8760800 124.0983920 119.5547710 115.6094240
 115.5270730 110.0700820 117.3628290 115.3473570 109.1726570 117.6431050
 115.1250810 110.6172690 118.0375240 124.3669230 112.2716680 115.2640600
 124.7434050 111.3988560 115.1514270 124.2688740 112.6075380 114.3731040
 118.4974240 110.6442310 110.7258040 118.6040990 111.5446040 111.0326800
 117.5866600 110.5960280 110.4352690 128.1493350 109.7667120 112.1968940
 128.9702970 109.2763690 112.2394420 128.1827430 110.3564780 112.9500780
 116.1457400 112.5661320 115.9710630 116.8267510 112.8299690 116.5898030
 115.8305450 111.7262190 116.3048640 120.3381970 113.6128680 115.0583220
 120.8460190 114.1109650 115.6988240 120.8695210 112.8363880 114.8822580
 132.4392900 111.7833870 118.7612570 131.7345070 112.1715580 118.2427680
 132.7050820 112.4784160 119.3633500 118.6218070 108.2527240 119.3246640
 118.6236510 108.7699630 118.5192540 117.7922380 107.7757420 119.3016570
 125.0089160 118.3646550 110.8236540 124.3906430 118.8296000 110.2599260
 125.5212410 119.0574030 111.2406050 119.8720920 117.8922420 117.5020140
 119.5390300 118.5191340 118.1441210 120.0487600 118.4184300 116.7221810
 128.3854830 111.7067500 114.9696480 127.6810400 111.9952390 115.5499590
 128.7466990 112.5167610 114.6096040 118.3033400 109.9637200 117.3317090
 118.6450210 110.8079250 117.0370960 117.3649210 110.1120940 117.4482430
 119.0840020 119.8603220 119.3169320 119.7014020 120.5354300 119.0353770
 118.2233140 120.2691200 119.2256820 114.3772360 119.0503080 108.1976170
 114.0000340 119.5390180 107.4661070 114.6345430 119.7228360 108.8282700
 130.0017610 121.3242630 117.2323960 129.3181130 121.9941740 117.2240630
 130.5411900 121.5223280 116.4668820 131.4541750 111.1522290 115.3605690
 130.5066660 111.1861270 115.4921120 131.7791740 111.9661240 115.7455050
 121.9861290 107.4519470 113.6561680 122.2936270 106.8966360 112.9397180
 121.0561990 107.5863930 113.4734670 127.5376350 123.1686760 115.9469140
 127.5503510 122.7649050 115.0791400 126.9851570 123.9434050 115.8430570
 128.8321770 119.8902980 111.0359310 128.7218100 118.9477310 111.1608730
 128.8290020 120.2518620 111.9222070 126.9361790 118.0716600 117.2751750
 127.3530580 117.8576710 116.4405210 127.6601610 118.3289390 117.8460370
 124.3742050 115.5168300 110.3921800 123.4471330 115.4505680 110.6210270
 124.5266870 116.4548430 110.2777040 130.8823890 116.4703820 117.3667990
 130.0542520 116.5396910 116.8918120 131.4774370 117.0558130 116.8983820
 128.4039340 117.0788600 110.8957050 127.7851760 116.7408150 110.2483350
 128.3863790 116.4348360 111.6036240 127.8465900 113.2573140 118.3122860
 127.4337080 114.0826850 118.5662850 127.1141850 112.6718180 118.1199220
 119.9798690 116.0433040 113.1741530 119.5755690 115.3310290 112.6787430
 120.0661810 115.6986280 114.0629570 120.4480390 119.7300600 115.3380740
 120.1508680 119.1246070 114.6588520 121.3980210 119.7677910 115.2270100
 118.6927310 112.8176250 116.9540570 119.2441900 112.9271590 116.1793820
 119.2070820 113.1913850 117.6695800 128.5366000 123.3032470 119.0003840
 128.0596560 124.1104660 118.8076450 127.8527790 122.6510800 119.1530050
 119.5398820 119.4682290 121.9888540 118.6427350 119.6922260 122.2361940
 119.5651690 119.5917230 121.0399940 126.5804040 116.3175410 107.9029800
 127.0197320 115.4797840 107.7567620 127.2932460 116.9504810 107.9893940
 118.3670040 116.3395610 120.5645910 118.2277810 117.2118410 120.9333310
 117.4851400 115.9968420 120.4193850 124.6899420 121.2571480 111.8711040
 125.1295330 121.9995810 111.4566430 124.6286310 121.4998050 112.7950000
 120.1650390 122.2817310 122.7731060 120.1365820 122.6860260 121.9059490
 120.0015360 121.3527670 122.6102660 130.1621180 107.5718220 106.2170840
 129.8493840 107.6645050 107.1169910 130.9233650 108.1499250 106.1668270
 116.6803320 114.9378020 110.6748180 116.5600920 115.6640110 110.0629450
 116.3704210 114.1680930 110.1976090 132.1165210 123.0644410 124.0695230
 132.5924930 123.5427300 124.7484310 132.7372370 122.9961900 123.3440730
 114.3188690 118.1093160 116.4816820 114.3969110 118.2441930 115.5372540
 114.9330370 117.4009050 116.6744940 115.5636320 119.8093350 112.8923000
 115.1564400 119.9507940 112.0376600 116.4549330 119.5253510 112.6894210
 131.5198460 120.2557260 121.2295240 131.6461520 120.0169140 120.3112420
 131.5619840 119.4241800 121.7017320 125.3815200 123.9585260 119.7990050
 125.8959870 123.8693270 120.6012480 124.5384280 124.3044960 120.0917960
 127.3569600 124.2440600 109.2274050 127.1970740 123.9543540 110.1255880
 127.1916310 123.4680730 108.6919280 119.8357980 124.0239130 111.0045670
 119.6600460 123.1074670 110.7913470 118.9813720 124.3826420 111.2443470
 127.0595730 121.7528160 107.7872050 126.3660890 121.7505450 107.1274330
 127.8018590 121.3287480 107.3566220 126.6245660 123.3790870 111.8620540
 127.0802610 122.5980250 112.1759160 126.9638180 124.0897690 112.4061720
 131.3722470 112.3089720 122.1944980 130.7566740 112.8169390 121.6660440
 131.0518890 111.4088050 122.1370920 114.3748210 119.1507330 119.0211280
 114.5379250 118.6812690 118.2030650 114.8400660 118.6430890 119.6860120
 119.1466980 108.2813090 114.0571850 118.7035130 109.0622630 113.7256370
 119.7051970 108.6042980 114.7642790 123.4336790 111.1481610 119.6607170
 122.9716160 111.3564630 120.4727110 123.0314900 110.3340960 119.3577840
 128.4341300 112.3690560 120.7903830 127.5834890 112.0696310 121.1112900
 128.2743090 112.6132570 119.8787650 125.5291010 113.8692310 122.8902620
 125.8544420 113.0356060 122.5504850 126.3171340 114.3920830 123.0380950
 121.1842880 108.8260420 115.9161450 121.4815210 109.7323250 115.8353470
 121.7328440 108.3379200 115.3021020 118.9381200 113.4046660 111.7853100
 118.7122120 113.1883830 112.6899720 118.1573730 113.8375120 111.4399070
 121.3780410 114.3032240 122.4513370 121.2824010 113.3626970 122.3013770
 122.2212390 114.5247310 122.0561440 124.7743830 112.0473570 112.4147030
 125.1673400 112.3645770 111.6015720 125.1360680 111.1685450 112.5291550
 116.5090950 110.7145910 120.6047150 116.1154340 111.5621120 120.8119930
 115.8209350 110.0772280 120.7955790 123.0836000 110.7980880 123.6743890
 122.3934320 110.6053080 124.3089980 123.8268300 111.0815520 124.2068190
 113.8108000 108.6374370 114.6377230 113.5221050 109.2077230 115.3502210
 114.5553760 108.1578820 115.0008460 125.3598970 114.6379320 116.5097810
 124.6280090 115.1466130 116.8587910 124.9623310 113.8209300 116.2086590
 121.7976360 111.3133520 114.9150300 121.8012420 110.8723470 114.0654840
 122.6927480 111.6350850 115.0222120 117.6478740 111.1960010 113.8744510
 117.3078790 111.6735240 114.6311560 116.8856060 110.7425130 113.5145610
 125.8224880 110.0913000 115.9220750 125.8397620 110.5421650 116.7662600
 125.5740460 109.1918640 116.1354190 120.8718010 114.6246740 107.3040360
 120.3034910 114.1764990 106.6776270 121.5807010 114.9839520 106.7705510
 129.2495630 107.5045180 121.7607130 129.5741400 106.7734840 122.2865110
 129.2852140 107.1858820 120.8588120 115.9487190 118.5258760 121.1807090
 115.5641980 117.8852430 121.7790050 116.2599380 119.2294880 121.7501820
 122.0984330 115.3735300 116.6615710 122.4654460 114.8993870 117.4077050
 121.9089390 116.2476870 117.0024050 114.9624820 110.1178990 112.7909180
 114.6771740 109.7534660 113.6287800 114.9003680 109.3859450 112.1772320
 119.8883700 114.4143940 118.9799920 119.5840770 115.2935920 119.2050280
 120.8430160 114.4743730 119.0157360 118.4165490 118.6204930 109.5766770
 117.6427750 118.0802550 109.4165490 119.1460120 118.1011540 109.2384530
 129.1753470 117.6170290 115.3693160 129.8952590 118.1125580 114.9789270
 128.9735290 116.9388180 114.7247030 124.5572270 117.6879350 121.2562160
 124.4909580 116.7675020 121.0019750 123.9277410 117.7854790 121.9706800
 118.4602890 118.2885310 113.2145580 118.9781560 117.4853570 113.1602470
 118.0086910 118.2264450 114.0562410 123.3472390 119.5551590 108.4872880
 123.6888090 120.2993820 107.9916200 122.5185100 119.8682710 108.8497710
 115.9447430 115.2546680 120.1271280 115.5862370 115.9200530 120.7144620
 115.6501990 114.4230230 120.4983900 119.1460550 115.7130920 123.0110830
 118.8460690 115.8588100 122.1138650 119.9171790 115.1536210 122.9184220
 124.4889000 120.5099920 121.0065960 124.5033540 119.5780880 120.7884870
 123.7814100 120.5959680 121.6455730 129.6226070 114.6939740 107.2764570
 129.5389790 115.1253960 106.4261010 130.3420260 115.1538090 107.7091390
 130.7000210 117.1507260 120.3534540 129.9748400 117.7436040 120.1563930
 131.2275670 117.1430800 119.5547910 130.6513320 121.5482000 110.0046700
 130.0089480 120.8937620 110.2790420 130.2643980 121.9537090 109.2287370
 126.2299800 118.8767430 113.8518390 126.5823620 118.2795560 113.1919760
 125.3462130 118.5511660 114.0226640 122.3163080 119.6365120 111.2588800
 123.0034210 120.1834330 111.6396390 121.5295500 120.1805850 111.2938410
 121.6190290 116.6411150 110.8714160 122.0753070 117.4516400 111.0974350
 121.2678500 116.3234290 111.7032650 123.9222900 122.1517490 118.1006460
 124.5665120 122.3576870 118.7779880 124.2852340 121.3905890 117.6477310
 117.5202070 106.9848800 111.3436680 117.3916700 106.9766700 112.2921600
 116.6964090 107.3231890 110.9927690 125.1954980 120.1549840 116.8183910
 125.8377210 119.4543000 116.9316080 125.7204330 120.9348280 116.6380800
 129.0410700 120.4398460 106.5423050 128.8148280 119.7228900 107.1347690
 128.6506900 120.1910900 105.7044800 126.9692600 120.9544740 120.0219970
 127.3048840 121.5411430 120.6997890 126.0492940 120.8237450 120.2517760
 114.8226730 124.4665320 107.3167510 115.1824370 125.0654660 106.6624780
 114.6819070 125.0125210 108.0902540 114.5196000 108.7439920 120.8043380
 113.8054520 108.9436840 121.4095990 114.9391040 107.9679490 121.1758180
 128.6226950 118.3570400 108.2037210 128.3348650 118.8183090 108.9915090
 129.4179120 117.8968170 108.4721430 114.8068590 122.7320180 121.7909910
 114.9159710 121.7914920 121.6505300 114.1549150 122.9974930 121.1423640
 122.7981180 121.0036070 123.1908030 122.4778050 120.2845310 123.7353720
 122.1239540 121.6791140 123.2644090 120.8395350 121.8496520 108.1341180
 120.8305450 122.5826210 107.5185690 119.9193710 121.6028100 108.2268140
 116.4401990 117.0711410 108.8787940 115.8329940 117.8110310 108.8883240
 116.9151340 117.1610770 108.0526140 126.0134780 111.2362230 118.5544830
 126.3815600 110.4157440 118.8824400 125.1532980 111.2964120 118.9700480
 129.3796810 110.1919170 109.3632390 128.7509970 110.2964840 108.6490620
 128.8848730 110.4115950 110.1526270 123.8254950 121.9124760 106.7966370
 123.9266930 121.7088750 105.8668350 122.9256690 121.6583040 107.0014150
 122.9736770 113.8901820 118.7782800 123.4722020 114.3647640 119.4434650
 123.1159720 112.9665340 118.9852830 125.3796270 109.1955780 112.2186060
 125.2564050 109.2141910 111.2695570 126.3280830 109.2434720 112.3384460
 122.4673060 124.4311080 111.4914040 122.7214560 124.3932470 110.5693410
 121.5185540 124.3044410 111.4842290 130.1803630 110.1069780 119.6211190
 129.6777230 110.8475180 119.9605000 130.9960290 110.4953780 119.3047980
 128.4725640 115.3502960 113.0672550 127.5315780 115.3653190 113.2420240
 128.7869710 114.5638920 113.5132850 118.4507280 117.0322560 106.6276510
 119.2170550 116.9203920 107.1901940 118.5281970 116.3360530 105.9753280
 117.1454040 114.4647630 107.3109400 117.2257630 113.5175140 107.4226800
 118.0373790 114.7954510 107.4170060 130.4751220 122.5211810 114.7426810
 130.5998640 123.3442980 115.2150620 131.3416780 122.3102540 114.3950960
 117.9468750 124.6143020 114.4143940 118.6831230 124.0658480 114.6852510
 118.3309670 125.4799030 114.2749930 114.8314230 120.6816590 110.2885450
 113.9054010 120.9237730 110.2790860 115.2970660 121.5090850 110.1670200
 116.9527030 123.7989090 123.6029520 117.7539760 124.1201140 124.0164920
 116.4378850 123.4384670 124.3249430 121.0571060 123.7873330 106.2369510
 121.8499670 124.0762160 105.7851300 120.5375410 123.3565500 105.5581990
 125.7891660 119.9068960 123.5504930 125.1829820 119.9300560 122.8100680
 125.4845770 119.1752000 124.0872180 127.2192030 123.6349250 122.1614340
 128.1713780 123.5507270 122.1114580 127.0720250 124.2990960 122.8348130
 130.1101230 123.0143460 107.6606250 129.8242740 122.6008600 106.8460430
 129.9120780 123.9431170 107.5406770 114.6724840 116.2862550 122.5465570
 115.1763860 115.7069830 123.1181800 113.9332260 116.5702780 123.0841940
 121.5748460 119.0076740 106.1011860 121.4699100 118.3929090 106.8273240
 121.4072680 118.4842630 105.3174870 121.7262780 117.6933540 122.0801090
 120.9608450 118.2618540 121.9955760 121.9078740 117.4009750 121.1869320
 124.8151190 118.0696770 106.7053850 124.2661290 118.5166070 107.3496590
 125.4370450 117.5646020 107.2291520 128.8686130 119.4238870 122.6376110
 129.6095600 119.7614630 122.1343570 128.1058810 119.5930930 122.0845880
 116.7047920 114.4292140 123.4415640 116.7453260 114.1306010 124.3500870
 117.5593420 114.8299750 123.2823160 120.4826310 117.0287690 108.6019150
 120.9042730 116.8627560 109.4450540 120.6077150 116.2187920 108.1074290
 118.6453730 113.0084240 121.4090130 118.1150190 112.5175190 120.7813470
 119.3141800 113.4368440 120.8748060 122.9953950 116.0525300 105.8496250
 123.5159610 115.3374320 105.4837400 123.6422350 116.6911170 106.1496760
 127.5431790 117.4753700 121.1731320 127.9572810 117.6298780 122.0221740
 126.6082790 117.6008920 121.3357100 128.0153960 114.8149860 123.1770470
 128.5974730 114.0602180 123.0890950 128.1915730 115.3457300 122.4001950
 119.1326030 109.9746610 121.4887420 119.0382900 109.3567360 120.7638290
 118.5523420 110.7012900 121.2617330 121.8987470 108.5319850 118.5214810
 121.4504770 108.5544110 117.6760360 121.2652670 108.1338870 119.1185110
 122.3047020 117.4274180 119.1427250 122.7235130 118.2706910 118.9703490
 121.3855650 117.5646220 118.9134030 124.6410920 115.1590360 120.5265090
 124.7607130 114.5631500 121.2659930 125.5004920 115.1960050 120.1066390
 126.9798820 115.7127550 119.1027600 126.4534040 116.2370170 118.4992740
 127.3230160 116.3454940 119.7337330 119.3785210 113.1020920 105.5477310
 119.1774270 112.2388280 105.9090650 119.2077260 113.0154280 104.6098910
 120.1554440 123.7327190 120.2584980 119.6175530 124.4573250 119.9393680
 120.4088400 123.2557530 119.4682320 121.4079690 111.7011710 121.7840910
 121.9979380 111.3927560 122.4718730 120.5899930 111.2291460 121.9400810
 126.2273120 111.3177520 122.0173930 125.5388640 110.6559060 121.9523920
 126.9479140 110.8715790 122.4622390 123.0116650 124.9678400 120.5171630
 122.9375350 125.8713540 120.8244000 122.1095490 124.6490300 120.4893700
 123.5601980 124.1336910 108.1397990 124.4552770 124.4721880 108.1616750
 123.5919610 123.4116320 107.5122270 117.1998140 119.5063960 106.3684990
 117.6373010 120.0493630 107.0242570 117.6845870 118.6810910 106.3781330
 114.4143940 122.2952990 113.8205250 114.7446950 121.4274050 113.5883890
 114.8434940 122.5011510 114.6510210 119.0105860 120.6262000 111.4807220
 118.7101400 120.5026970 112.3811130 118.9043350 119.7670590 111.0722950
 114.9034150 123.1623580 116.5586880 114.4665140 123.3424380 117.3911030
 115.4711830 123.9198200 116.4168600 130.5396330 122.6640580 120.8464190
 129.9398320 122.7233140 120.1028110 130.6690230 121.7245560 120.9761040
 131.7797780 120.4058400 106.1833900 130.9490740 120.4735050 106.6541130
 131.9569610 121.2962520 105.8800760 131.2354240 117.1505880 108.6868100
 131.9973150 117.7202530 108.7927790 131.2508610 116.5833080 109.4576410
 114.7358580 115.6743810 112.9175760 114.0807420 115.4055450 112.2735460
 115.5736530 115.5648290 112.4677740 132.2414210 118.0055980 113.5310030
 132.6123040 117.2223300 113.1246000 132.8816140 118.6945080 113.3527330
 129.2247970 119.3892560 118.9440350 128.4107810 119.8189720 119.2066140
 129.6322170 120.0010970 118.3309400 131.2873410 117.4440250 105.8440620
 131.5622250 118.3519130 105.7159840 131.0984150 117.3802780 106.7802610
 131.1838750 115.3809240 110.8370050 130.8082350 114.6137170 110.4051340
 130.4541870 115.7631940 111.3244980 115.7734510 116.0596380 117.4579100
 116.1407550 115.9723780 118.3375120 115.2045330 115.2962930 117.3585960
 130.5738370 114.5280760 120.4709570 130.3424460 114.2993510 119.5707520
 130.8342920 115.4480310 120.4254460 115.3250510 112.9705470 121.3637520
 114.4306560 112.9372230 121.7031230 115.8648060 113.1692260 122.1288770
 129.0126440 109.7537190 123.2489270 129.8896620 109.7620590 123.6323270
 129.0247280 109.0168030 122.6381620 130.4589710 113.6066730 114.1377290
 130.9827190 113.1129380 113.5067460 131.0449130 113.7417090 114.8824860
 130.6379430 113.6906600 117.6596840 129.6882140 113.6570140 117.7741830
 130.8192440 114.6006710 117.4246610 129.9489680 112.8640080 110.0769700
 130.4448800 112.6310950 110.8618580 129.7505750 112.0251920 109.6607340
 115.8290220 107.2453800 115.7120740 116.4766410 106.6951180 115.2715900
 116.2492060 107.4996950 116.5336550 131.3776840 111.5001030 112.6107380
 131.2676120 111.3457070 113.5489650 132.1384430 110.9721970 112.3682790
 129.7242560 107.4395160 119.0690380 130.3614780 108.0529300 119.4349570
 129.8717450 107.4755820 118.1239610 132.2667110 109.3308950 105.8513520
 133.1916420 109.1990130 105.6431810 132.2442900 109.4101770 106.8049970
 132.3405600 110.1019610 108.4770230 131.5457100 110.0364730 109.0063140
 132.5448880 111.0370250 108.4655580 129.2824020 124.1411160 112.4708620
 129.8783090 123.8195730 111.7943040 129.5402170 123.6682980 113.2621890
 117.1886590 120.5729070 122.6199250 117.1456220 120.2021980 123.5013710
 117.3197600 121.5106640 122.7601070 120.8892620 122.1288660 118.2208970
 120.6483980 122.3963220 117.3339490 121.8295260 122.2994390 118.2759830
 123.0947040 108.5921350 121.9765480 123.0335930 109.1843180 122.7260890
 124.0347420 108.4847310 121.8315740 125.7321600 108.2491410 121.6157770
 126.3462010 108.5670700 120.9538850 126.2771160 107.7640000 122.2353630
 132.1496780 124.1483040 119.0219610 131.6555060 124.5451910 118.3046740
 131.5410070 123.5232250 119.4156890 117.0274620 123.5191320 119.7397030
 116.4334940 123.3876020 120.4787070 117.0198460 122.6829460 119.2739130
 126.4729640 106.8123550 117.9427060 125.5989480 107.1458660 117.7399990
 126.3640390 106.3396730 118.7678930 127.3801620 109.0194420 119.3268780
 127.0514980 108.2046180 118.9470510 128.3283920 108.9764230 119.2034470
 129.8336230 124.7906460 116.3006350 129.3739200 125.5422270 115.9264370
 129.2048690 124.0712930 116.2421150 116.6586850 120.8849700 118.6905070
 115.9320910 120.2654990 118.6231020 116.7196000 121.2790310 117.8203150
 120.2631950 123.0994700 115.4754480 120.7796970 122.4882060 114.9502740
 120.9129330 123.6023480 115.9665490 123.0027450 123.9903190 116.3023460
 123.2905260 123.7357490 115.4256470 123.5150670 123.4380550 116.8929030
 124.2204460 107.7293390 116.8819970 123.4376250 108.2038890 117.1616730
 123.9267390 106.8248220 116.7733150 128.7725530 108.4316490 114.9269060
 129.2133620 108.3761590 114.0790660 128.5033120 109.3474500 114.9979240
 130.6364100 108.0631730 112.9377880 130.5752500 107.1192950 112.7908900
 131.4156130 108.1711820 113.4831340 114.9416850 124.2024090 111.9001830
 114.7738890 123.5694770 112.5983720 114.0751360 124.4083490 111.5496020
 115.5644870 108.0340870 109.4033690 116.3224230 108.1469750 108.8297720
 115.1022040 108.8710070 109.3577120 122.1058680 110.1480140 112.3936000
 121.2933190 109.7737030 112.0531880 122.6100320 109.3925220 112.6957190
 126.6083660 106.8122590 113.6319070 127.2113030 107.3842800 114.1067590
 125.8676650 107.3762030 113.4092970 129.7518260 107.2144150 108.9059350
 129.9468890 108.1127600 109.1726780 128.9648130 106.9831230 109.3992300
 116.5479550 122.8957320 109.3451970 116.0227170 123.2765350 108.6413930
 116.4724130 123.5208090 110.0661680 117.9370020 108.5604920 107.9435660
 118.4662780 107.7734720 107.8143610 118.5698340 109.2396110 108.1771190
 120.1307860 108.2980060 110.9981050 119.5010600 107.5967370 111.1651180
 119.5913000 109.0584190 110.7814210 123.0699810 124.9119290 123.6691660
 123.9967120 124.6763560 123.7127620 123.0550240 125.7391290 123.1877690
 131.3044870 124.4544860 110.6665910 131.4797060 123.7682600 110.0226830
 130.6066440 124.9791910 110.2742580 120.2563420 107.5764040 123.4333540
 119.9747690 108.0797640 122.6694360 120.6383120 106.7785790 123.0675670
 119.1472520 124.8439700 108.2201220 119.8791340 124.5598980 107.6725110
 119.4066190 124.6052980 109.1100600 118.3087310 120.9604430 108.2247550
 117.6796190 121.4289530 108.7733380 118.4235140 120.1153650 108.6593740
 126.8578880 106.9917620 124.0114010 126.7444330 107.3112230 124.9065530
 127.6748620 107.3930130 123.7151290 129.6377370 124.1389150 123.4932700
 130.4302690 123.6438380 123.2858660 129.9310520 124.8179290 124.1008310
 125.7637030 115.0110090  94.3748750 125.6831080 114.0964700  94.1040460
 125.3501450 115.5077160  93.6688460 123.8955070 116.7889110  96.2558020
 123.1197170 116.3089550  96.5456590 124.5468000 116.1094760  96.0814180
 117.9120900 117.1008920  97.1333780 117.0805780 116.8457630  97.5330290
 118.5201880 117.1719690  97.8691700 127.9162500 121.1949300  95.0357150
 127.4544030 120.4236540  95.3644320 128.7288050 121.2215370  95.5409600
 117.8922160 121.1349010  97.3291800 118.1950200 120.2446750  97.1502020
 118.6365750 121.6919230  97.1014050 116.3212850 112.0610810  90.9176170
 115.4329550 112.4026780  90.8156050 116.6054040 111.8611130  90.0257000
 114.2845860 114.6616460  96.8015870 114.8561970 113.8938660  96.8019510
 114.2847400 114.9605220  95.8922480 124.1425810 123.4807310  94.6561140
 123.5237250 123.9364810  94.0855580 124.9977590 123.6358770  94.2550840
 123.3364060 119.4646300  96.2628180 123.2672340 118.5236240  96.1017310
 124.0983920 119.5547710  96.8350750 118.4974240 110.6442310  91.9514550
 118.6040990 111.5446040  92.2583310 117.5866600 110.5960280  91.6609200
 120.3381970 113.6128680  96.2839730 120.8460190 114.1109650  96.9244750
 120.8695210 112.8363880  96.1079090 132.4392900 111.7833870  99.9869080
 131.7345070 112.1715580  99.4684190 132.7050820 112.4784160 100.5890010
 125.0089160 118.3646550  92.0493050 124.3906430 118.8296000  91.4855770
 125.5212410 119.0574030  92.4662560 119.8720920 117.8922420  98.7276650
 119.5390300 118.5191340  99.3697720 120.0487600 118.4184300  97.9478320
 119.0840020 119.8603220 100.5425830 119.7014020 120.5354300 100.2610280
 118.2233140 120.2691200 100.4513330 114.3772360 119.0503080  89.4232680
 114.0000340 119.5390180  88.6917580 114.6345430 119.7228360  90.0539210
 130.0017610 121.3242630  98.4580470 129.3181130 121.9941740  98.4497140
 130.5411900 121.5223280  97.6925330 131.4541750 111.1522290  96.5862200
 130.5066660 111.1861270  96.7177630 131.7791740 111.9661240  96.9711560
 121.9861290 107.4519470  94.8818190 122.2936270 106.8966360  94.1653690
 121.0561990 107.5863930  94.6991180 127.5376350 123.1686760  97.1725650
 127.5503510 122.7649050  96.3047910 126.9851570 123.9434050  97.0687080
 128.8321770 119.8902980  92.2615820 128.7218100 118.9477310  92.3865240
 128.8290020 120.2518620  93.1478580 126.9361790 118.0716600  98.5008260
 127.3530580 117.8576710  97.6661720 127.6601610 118.3289390  99.0716880
 130.8823890 116.4703820  98.5924500 130.0542520 116.5396910  98.1174630
 131.4774370 117.0558130  98.1240330 120.4480390 119.7300600  96.5637250
 120.1508680 119.1246070  95.8845030 121.3980210 119.7677910  96.4526610
 128.5366000 123.3032470 100.2260350 128.0596560 124.1104660 100.0332960
 127.8527790 122.6510800 100.3786560 119.5398820 119.4682290 103.2145050
 118.6427350 119.6922260 103.4618450 119.5651690 119.5917230 102.2656450
 118.3670040 116.3395610 101.7902420 118.2277810 117.2118410 102.1589820
 117.4851400 115.9968420 101.6450360 124.6899420 121.2571480  93.0967550
 125.1295330 121.9995810  92.6822940 124.6286310 121.4998050  94.0206510
 120.1650390 122.2817310 103.9987570 120.1365820 122.6860260 103.1316000
 120.0015360 121.3527670 103.8359170 116.6803320 114.9378020  91.9004690
 116.5600920 115.6640110  91.2885960 116.3704210 114.1680930  91.4232600
 132.1165210 123.0644410 105.2951740 132.5924930 123.5427300 105.9740820
 132.7372370 122.9961900 104.5697240 114.3188690 118.1093160  97.7073330
 114.3969110 118.2441930  96.7629050 114.9330370 117.4009050  97.9001450
 115.5636320 119.8093350  94.1179510 115.1564400 119.9507940  93.2633110
 116.4549330 119.5253510  93.9150720 131.5198460 120.2557260 102.4551750
 131.6461520 120.0169140 101.5368930 131.5619840 119.4241800 102.9273830
 125.3815200 123.9585260 101.0246560 125.8959870 123.8693270 101.8268990
 124.5384280 124.3044960 101.3174470 127.3569600 124.2440600  90.4530560
 127.1970740 123.9543540  91.3512390 127.1916310 123.4680730  89.9175790
 127.0595730 121.7528160  89.0128560 126.3660890 121.7505450  88.3530840
 127.8018590 121.3287480  88.5822730 126.6245660 123.3790870  93.0877050
 127.0802610 122.5980250  93.4015670 126.9638180 124.0897690  93.6318230
 131.3722470 112.3089720 103.4201490 130.7566740 112.8169390 102.8916950
 131.0518890 111.4088050 103.3627430 114.3748210 119.1507330 100.2467790
 114.5379250 118.6812690  99.4287160 114.8400660 118.6430890 100.9116630
 119.1466980 108.2813090  95.2828360 118.7035130 109.0622630  94.9512880
 119.7051970 108.6042980  95.9899300 125.5291010 113.8692310 104.1159130
 125.8544420 113.0356060 103.7761360 126.3171340 114.3920830 104.2637460
 121.1842880 108.8260420  97.1417960 121.4815210 109.7323250  97.0609980
 121.7328440 108.3379200  96.5277530 118.9381200 113.4046660  93.0109610
 118.7122120 113.1883830  93.9156230 118.1573730 113.8375120  92.6655580
 124.7743830 112.0473570  93.6403540 125.1673400 112.3645770  92.8272230
 125.1360680 111.1685450  93.7548060 121.7976360 111.3133520  96.1406810
 121.8012420 110.8723470  95.2911350 122.6927480 111.6350850  96.2478630
 117.6478740 111.1960010  95.1001020 117.3078790 111.6735240  95.8568070
 116.8856060 110.7425130  94.7402120 120.8718010 114.6246740  88.5296870
 120.3034910 114.1764990  87.9032780 121.5807010 114.9839520  87.9962020
 129.2495630 107.5045180 102.9863640 129.5741400 106.7734840 103.5121620
 129.2852140 107.1858820 102.0844630 115.9487190 118.5258760 102.4063600
 115.5641980 117.8852430 103.0046560 116.2599380 119.2294880 102.9758330
 122.0984330 115.3735300  97.8872220 122.4654460 114.8993870  98.6333560
 121.9089390 116.2476870  98.2280560 114.9624820 110.1178990  94.0165690
 114.6771740 109.7534660  94.8544310 114.9003680 109.3859450  93.4028830
 129.1753470 117.6170290  96.5949670 129.8952590 118.1125580  96.2045780
 128.9735290 116.9388180  95.9503540 124.6363410 109.0108250  90.7379060
 123.8228020 108.5121420  90.6624370 124.4425360 109.8506500  90.3215410
 124.5572270 117.6879350 102.4818670 124.4909580 116.7675020 102.2276260
 123.9277410 117.7854790 103.1963310 123.3472390 119.5551590  89.7129390
 123.6888090 120.2993820  89.2172710 122.5185100 119.8682710  90.0754220
 115.9447430 115.2546680 101.3527790 115.5862370 115.9200530 101.9401130
 115.6501990 114.4230230 101.7240410 119.1460550 115.7130920 104.2367340
 118.8460690 115.8588100 103.3395160 119.9171790 115.1536210 104.1440730
 124.4889000 120.5099920 102.2322470 124.5033540 119.5780880 102.0141380
 123.7814100 120.5959680 102.8712240 129.6226070 114.6939740  88.5021080
 129.5389790 115.1253960  87.6517520 130.3420260 115.1538090  88.9347900
 130.7000210 117.1507260 101.5791050 129.9748400 117.7436040 101.3820440
 131.2275670 117.1430800 100.7804420 130.6513320 121.5482000  91.2303210
 130.0089480 120.8937620  91.5046930 130.2643980 121.9537090  90.4543880
 126.2299800 118.8767430  95.0774900 126.5823620 118.2795560  94.4176270
 125.3462130 118.5511660  95.2483150 114.4555480 115.2537940  87.9762390
 115.3250330 115.5362740  88.2598310 113.9645800 116.0673810  87.8611200
 123.9222900 122.1517490  99.3262970 124.5665120 122.3576870 100.0036390
 124.2852340 121.3905890  98.8733820 125.1954980 120.1549840  98.0440420
 125.8377210 119.4543000  98.1572590 125.7204330 120.9348280  97.8637310
 129.0410700 120.4398460  87.7679560 128.8148280 119.7228900  88.3604200
 128.6506900 120.1910900  86.9301310 126.9692600 120.9544740 101.2476480
 127.3048840 121.5411430 101.9254400 126.0492940 120.8237450 101.4774270
 114.8226730 124.4665320  88.5424020 115.1824370 125.0654660  87.8881290
 114.6819070 125.0125210  89.3159050 114.5196000 108.7439920 102.0299890
 113.8054520 108.9436840 102.6352500 114.9391040 107.9679490 102.4014690
 128.6226950 118.3570400  89.4293720 128.3348650 118.8183090  90.2171600
 129.4179120 117.8968170  89.6977940 114.8068590 122.7320180 103.0166420
 114.9159710 121.7914920 102.8761810 114.1549150 122.9974930 102.3680150
 122.7981180 121.0036070 104.4164540 122.4778050 120.2845310 104.9610230
 122.1239540 121.6791140 104.4900600 116.4401990 117.0711410  90.1044450
 115.8329940 117.8110310  90.1139750 116.9151340 117.1610770  89.2782650
 129.3796810 110.1919170  90.5888900 128.7509970 110.2964840  89.8747130
 128.8848730 110.4115950  91.3782780 123.8254950 121.9124760  88.0222880
 123.9266930 121.7088750  87.0924860 122.9256690 121.6583040  88.2270660
 121.3480840 112.4705120  92.0046780 120.6396990 112.9391460  92.4460390
 121.6325320 111.8127130  92.6391970 122.4673060 124.4311080  92.7170550
 122.7214560 124.3932470  91.7949920 121.5185540 124.3044410  92.7098800
 128.4725640 115.3502960  94.2929060 127.5315780 115.3653190  94.4676750
 128.7869710 114.5638920  94.7389360 118.4507280 117.0322560  87.8533020
 119.2170550 116.9203920  88.4158450 118.5281970 116.3360530  87.2009790
 130.4751220 122.5211810  95.9683320 130.5998640 123.3442980  96.4407130
 131.3416780 122.3102540  95.6207470 117.9468750 124.6143020  95.6400450
 118.6831230 124.0658480  95.9109020 118.3309670 125.4799030  95.5006440
 114.8314230 120.6816590  91.5141960 113.9054010 120.9237730  91.5047370
 115.2970660 121.5090850  91.3926710 116.9527030 123.7989090 104.8286030
 117.7539760 124.1201140 105.2421430 116.4378850 123.4384670 105.5505940
 121.0571060 123.7873330  87.4626020 121.8499670 124.0762160  87.0107810
 120.5375410 123.3565500  86.7838500 125.7891660 119.9068960 104.7761440
 125.1829820 119.9300560 104.0357190 125.4845770 119.1752000 105.3128690
 127.2192030 123.6349250 103.3870850 128.1713780 123.5507270 103.3371090
 127.0720250 124.2990960 104.0604640 130.1101230 123.0143460  88.8862760
 129.8242740 122.6008600  88.0716940 129.9120780 123.9431170  88.7663280
 114.6724840 116.2862550 103.7722080 115.1763860 115.7069830 104.3438310
 113.9332260 116.5702780 104.3098450 121.5748460 119.0076740  87.3268370
 121.4699100 118.3929090  88.0529750 121.4072680 118.4842630  86.5431380
 121.7262780 117.6933540 103.3057600 120.9608450 118.2618540 103.2212270
 121.9078740 117.4009750 102.4125830 124.8151190 118.0696770  87.9310360
 124.2661290 118.5166070  88.5753100 125.4370450 117.5646020  88.4548030
 128.8686130 119.4238870 103.8632620 129.6095600 119.7614630 103.3600080
 128.1058810 119.5930930 103.3102390 122.9953950 116.0525300  87.0752760
 123.5159610 115.3374320  86.7093910 123.6422350 116.6911170  87.3753270
 127.5431790 117.4753700 102.3987830 127.9572810 117.6298780 103.2478250
 126.6082790 117.6008920 102.5613610 128.0153960 114.8149860 104.4026980
 128.5974730 114.0602180 104.3147460 128.1915730 115.3457300 103.6258460
 122.3047020 117.4274180 100.3683760 122.7235130 118.2706910 100.1960000
 121.3855650 117.5646220 100.1390540 124.6410920 115.1590360 101.7521600
 124.7607130 114.5631500 102.4916440 125.5004920 115.1960050 101.3322900
 126.9798820 115.7127550 100.3284110 126.4534040 116.2370170  99.7249250
 127.3230160 116.3454940 100.9593840 120.1554440 123.7327190 101.4841490
 119.6175530 124.4573250 101.1650190 120.4088400 123.2557530 100.6938830
 126.2273120 111.3177520 103.2430440 125.5388640 110.6559060 103.1780430
 126.9479140 110.8715790 103.6878900 126.8573520 107.9129150  89.3020700
 127.1375810 107.0697050  89.6580120 126.0839250 108.1452260  89.8159450
 123.0116650 124.9678400 101.7428140 122.9375350 125.8713540 102.0500510
 122.1095490 124.6490300 101.7150210 121.3952940 109.1456160  87.7467900
 121.0474940 108.4680150  87.1670350 121.5965710 108.6845670  88.5611290
 123.5601980 124.1336910  89.3654500 124.4552770 124.4721880  89.3873260
 123.5919610 123.4116320  88.7378780 117.1998140 119.5063960  87.5941500
 117.6373010 120.0493630  88.2499080 117.6845870 118.6810910  87.6037840
 114.4143940 122.2952990  95.0461760 114.7446950 121.4274050  94.8140400
 114.8434940 122.5011510  95.8766720 114.9034150 123.1623580  97.7843390
 114.4665140 123.3424380  98.6167540 115.4711830 123.9198200  97.6425110
 130.5396330 122.6640580 102.0720700 129.9398320 122.7233140 101.3284620
 130.6690230 121.7245560 102.2017550 131.7797780 120.4058400  87.4090410
 130.9490740 120.4735050  87.8797640 131.9569610 121.2962520  87.1057270
 131.2354240 117.1505880  89.9124610 131.9973150 117.7202530  90.0184300
 131.2508610 116.5833080  90.6832920 114.7358580 115.6743810  94.1432270
 114.0807420 115.4055450  93.4991970 115.5736530 115.5648290  93.6934250
 132.2414210 118.0055980  94.7566540 132.6123040 117.2223300  94.3502510
 132.8816140 118.6945080  94.5783840 129.2247970 119.3892560 100.1696860
 128.4107810 119.8189720 100.4322650 129.6322170 120.0010970  99.5565910
 131.2873410 117.4440250  87.0697130 131.5622250 118.3519130  86.9416350
 131.0984150 117.3802780  88.0059120 127.6849020 110.4685100  88.3650760
 128.1033900 110.2816080  87.5247420 127.3785080 109.6164150  88.6753690
 131.1838750 115.3809240  92.0626560 130.8082350 114.6137170  91.6307850
 130.4541870 115.7631940  92.5501490 115.7734510 116.0596380  98.6835610
 116.1407550 115.9723780  99.5631630 115.2045330 115.2962930  98.5842470
 130.5738370 114.5280760 101.6966080 130.3424460 114.2993510 100.7964030
 130.8342920 115.4480310 101.6510970 129.0126440 109.7537190 104.4745780
 129.8896620 109.7620590 104.8579780 129.0247280 109.0168030 103.8638130
 130.4589710 113.6066730  95.3633800 130.9827190 113.1129380  94.7323970
 131.0449130 113.7417090  96.1081370 130.6379430 113.6906600  98.8853350
 129.6882140 113.6570140  98.9998340 130.8192440 114.6006710  98.6503120
 129.9489680 112.8640080  91.3026210 130.4448800 112.6310950  92.0875090
 129.7505750 112.0251920  90.8863850 115.8290220 107.2453800  96.9377250
 116.4766410 106.6951180  96.4972410 116.2492060 107.4996950  97.7593060
 129.2824020 124.1411160  93.6965130 129.8783090 123.8195730  93.0199550
 129.5402170 123.6682980  94.4878400 117.1886590 120.5729070 103.8455760
 117.1456220 120.2021980 104.7270220 117.3197600 121.5106640 103.9857580
 120.8892620 122.1288660  99.4465480 120.6483980 122.3963220  98.5596000
 121.8295260 122.2994390  99.5016340 125.7321600 108.2491410 102.8414280
 126.3462010 108.5670700 102.1795360 126.2771160 107.7640000 103.4610140
 132.1496780 124.1483040 100.2476120 131.6555060 124.5451910  99.5303250
 131.5410070 123.5232250 100.6413400 117.0274620 123.5191320 100.9653540
 116.4334940 123.3876020 101.7043580 117.0198460 122.6829460 100.4995640
 129.8336230 124.7906460  97.5262860 129.3739200 125.5422270  97.1520880
 129.2048690 124.0712930  97.4677660 116.6586850 120.8849700  99.9161580
 115.9320910 120.2654990  99.8487530 116.7196000 121.2790310  99.0459660
 120.2631950 123.0994700  96.7010990 120.7796970 122.4882060  96.1759250
 120.9129330 123.6023480  97.1922000 123.0027450 123.9903190  97.5279970
 123.2905260 123.7357490  96.6512980 123.5150670 123.4380550  98.1185540
 114.9416850 124.2024090  93.1258340 114.7738890 123.5694770  93.8240230
 114.0751360 124.4083490  92.7752530 116.5479550 122.8957320  90.5708480
 116.0227170 123.2765350  89.8670440 116.4724130 123.5208090  91.2918190
 123.0699810 124.9119290 104.8948170 123.9967120 124.6763560 104.9384130
 123.0550240 125.7391290 104.4134200 131.3044870 124.4544860  91.8922420
 131.4797060 123.7682600  91.2483340 130.6066440 124.9791910  91.4999090
 119.1472520 124.8439700  89.4457730 119.8791340 124.5598980  88.8981620
 119.4066190 124.6052980  90.3357110 126.8578880 106.9917620 105.2370520
 126.7444330 107.3112230 106.1322040 127.6748620 107.3930130 104.9407800
 129.6377370 124.1389150 104.7189210 130.4302690 123.6438380 104.5115170
 129.9310520 124.8179290 105.3264820 125.7637030 115.0110090  75.6005260
 125.6831080 114.0964700  75.3296970 125.3501450 115.5077160  74.8944970
 117.9120900 117.1008920  78.3590290 117.0805780 116.8457630  78.7586800
 118.5201880 117.1719690  79.0948210 127.9162500 121.1949300  76.2613660
 127.4544030 120.4236540  76.5900830 128.7288050 121.2215370  76.7666110
 117.8922160 121.1349010  78.5548310 118.1950200 120.2446750  78.3758530
 118.6365750 121.6919230  78.3270560 124.1425810 123.4807310  75.8817650
 123.5237250 123.9364810  75.3112090 124.9977590 123.6358770  75.4807350
 123.3364060 119.4646300  77.4884690 123.2672340 118.5236240  77.3273820
 124.0983920 119.5547710  78.0607260 115.5270730 110.0700820  79.8141310
 115.3473570 109.1726570  80.0944070 115.1250810 110.6172690  80.4888260
 128.1493350 109.7667120  74.6481960 128.9702970 109.2763690  74.6907440
 128.1827430 110.3564780  75.4013800 116.1457400 112.5661320  78.4223650
 116.8267510 112.8299690  79.0411050 115.8305450 111.7262190  78.7561660
 118.6218070 108.2527240  81.7759660 118.6236510 108.7699630  80.9705560
 117.7922380 107.7757420  81.7529590 119.8720920 117.8922420  79.9533160
 119.5390300 118.5191340  80.5954230 120.0487600 118.4184300  79.1734830
 128.3854830 111.7067500  77.4209500 127.6810400 111.9952390  78.0012610
 128.7466990 112.5167610  77.0609060 119.0840020 119.8603220  81.7682340
 119.7014020 120.5354300  81.4866790 118.2233140 120.2691200  81.6769840
 114.3772360 119.0503080  70.6489190 114.0000340 119.5390180  69.9174090
 114.6345430 119.7228360  71.2795720 130.0017610 121.3242630  79.6836980
 129.3181130 121.9941740  79.6753650 130.5411900 121.5223280  78.9181840
 131.4541750 111.1522290  77.8118710 130.5066660 111.1861270  77.9434140
 131.7791740 111.9661240  78.1968070 127.5376350 123.1686760  78.3982160
 127.5503510 122.7649050  77.5304420 126.9851570 123.9434050  78.2943590
 128.8321770 119.8902980  73.4872330 128.7218100 118.9477310  73.6121750
 128.8290020 120.2518620  74.3735090 126.9361790 118.0716600  79.7264770
 127.3530580 117.8576710  78.8918230 127.6601610 118.3289390  80.2973390
 130.8823890 116.4703820  79.8181010 130.0542520 116.5396910  79.3431140
 131.4774370 117.0558130  79.3496840 128.4039340 117.0788600  73.3470070
 127.7851760 116.7408150  72.6996370 128.3863790 116.4348360  74.0549260
 127.8465900 113.2573140  80.7635880 127.4337080 114.0826850  81.0175870
 127.1141850 112.6718180  80.5712240 120.4480390 119.7300600  77.7893760
 120.1508680 119.1246070  77.1101540 121.3980210 119.7677910  77.6783120
 128.5366000 123.3032470  81.4516860 128.0596560 124.1104660  81.2589470
 127.8527790 122.6510800  81.6043070 119.5398820 119.4682290  84.4401560
 118.6427350 119.6922260  84.6874960 119.5651690 119.5917230  83.4912960
 118.3670040 116.3395610  83.0158930 118.2277810 117.2118410  83.3846330
 117.4851400 115.9968420  82.8706870 120.1650390 122.2817310  85.2244080
 120.1365820 122.6860260  84.3572510 120.0015360 121.3527670  85.0615680
 116.6803320 114.9378020  73.1261200 116.5600920 115.6640110  72.5142470
 116.3704210 114.1680930  72.6489110 132.1165210 123.0644410  86.5208250
 132.5924930 123.5427300  87.1997330 132.7372370 122.9961900  85.7953750
 115.5636320 119.8093350  75.3436020 115.1564400 119.9507940  74.4889620
 116.4549330 119.5253510  75.1407230 131.5198460 120.2557260  83.6808260
 131.6461520 120.0169140  82.7625440 131.5619840 119.4241800  84.1530340
 125.3815200 123.9585260  82.2503070 125.8959870 123.8693270  83.0525500
 124.5384280 124.3044960  82.5430980 127.3569600 124.2440600  71.6787070
 127.1970740 123.9543540  72.5768900 127.1916310 123.4680730  71.1432300
 119.8357980 124.0239130  73.4558690 119.6600460 123.1074670  73.2426490
 118.9813720 124.3826420  73.6956490 127.0595730 121.7528160  70.2385070
 126.3660890 121.7505450  69.5787350 127.8018590 121.3287480  69.8079240
 126.6245660 123.3790870  74.3133560 127.0802610 122.5980250  74.6272180
 126.9638180 124.0897690  74.8574740 114.3748210 119.1507330  81.4724300
 114.5379250 118.6812690  80.6543670 114.8400660 118.6430890  82.1373140
 128.4341300 112.3690560  83.2416850 127.5834890 112.0696310  83.5625920
 128.2743090 112.6132570  82.3300670 125.5291010 113.8692310  85.3415640
 125.8544420 113.0356060  85.0017870 126.3171340 114.3920830  85.4893970
 118.9381200 113.4046660  74.2366120 118.7122120 113.1883830  75.1412740
 118.1573730 113.8375120  73.8912090 126.1678960 113.4110030  72.8356770
 125.5687850 114.1345830  72.6520390 126.7158570 113.3486810  72.0533220
 121.3780410 114.3032240  84.9026390 121.2824010 113.3626970  84.7526790
 122.2212390 114.5247310  84.5074460 116.5090950 110.7145910  83.0560170
 116.1154340 111.5621120  83.2632950 115.8209350 110.0772280  83.2468810
 113.8108000 108.6374370  77.0890250 113.5221050 109.2077230  77.8015230
 114.5553760 108.1578820  77.4521480 113.9978230 112.5794490  68.2992970
 113.9152900 113.5225250  68.4407960 113.6461290 112.4369400  67.4205320
 125.3598970 114.6379320  78.9610830 124.6280090 115.1466130  79.3100930
 124.9623310 113.8209300  78.6599610 117.6478740 111.1960010  76.3257530
 117.3078790 111.6735240  77.0824580 116.8856060 110.7425130  75.9658630
 115.9487190 118.5258760  83.6320110 115.5641980 117.8852430  84.2303070
 116.2599380 119.2294880  84.2014840 119.8883700 114.4143940  81.4312940
 119.5840770 115.2935920  81.6563300 120.8430160 114.4743730  81.4670380
 129.1753470 117.6170290  77.8206180 129.8952590 118.1125580  77.4302290
 128.9735290 116.9388180  77.1760050 115.9447430 115.2546680  82.5784300
 115.5862370 115.9200530  83.1657640 115.6501990 114.4230230  82.9496920
 119.1460550 115.7130920  85.4623850 118.8460690 115.8588100  84.5651670
 119.9171790 115.1536210  85.3697240 124.4889000 120.5099920  83.4578980
 124.5033540 119.5780880  83.2397890 123.7814100 120.5959680  84.0968750
 130.7000210 117.1507260  82.8047560 129.9748400 117.7436040  82.6076950
 131.2275670 117.1430800  82.0060930 130.6513320 121.5482000  72.4559720
 130.0089480 120.8937620  72.7303440 130.2643980 121.9537090  71.6800390
 126.2299800 118.8767430  76.3031410 126.5823620 118.2795560  75.6432780
 125.3462130 118.5511660  76.4739660 114.4555480 115.2537940  69.2018900
 115.3250330 115.5362740  69.4854820 113.9645800 116.0673810  69.0867710
 123.9222900 122.1517490  80.5519480 124.5665120 122.3576870  81.2292900
 124.2852340 121.3905890  80.0990330 117.5202070 106.9848800  73.7949700
 117.3916700 106.9766700  74.7434620 116.6964090 107.3231890  73.4440710
 125.1954980 120.1549840  79.2696930 125.8377210 119.4543000  79.3829100
 125.7204330 120.9348280  79.0893820 129.0410700 120.4398460  68.9936070
 128.8148280 119.7228900  69.5860710 128.6506900 120.1910900  68.1557820
 126.9692600 120.9544740  82.4732990 127.3048840 121.5411430  83.1510910
 126.0492940 120.8237450  82.7030780 114.8226730 124.4665320  69.7680530
 115.1824370 125.0654660  69.1137800 114.6819070 125.0125210  70.5415560
 114.5196000 108.7439920  83.2556400 113.8054520 108.9436840  83.8609010
 114.9391040 107.9679490  83.6271200 114.8068590 122.7320180  84.2422930
 114.9159710 121.7914920  84.1018320 114.1549150 122.9974930  83.5936660
 122.7981180 121.0036070  85.6421050 122.4778050 120.2845310  86.1866740
 122.1239540 121.6791140  85.7157110 116.4401990 117.0711410  71.3300960
 115.8329940 117.8110310  71.3396260 116.9151340 117.1610770  70.5039160
 126.0134780 111.2362230  81.0057850 126.3815600 110.4157440  81.3337420
 125.1532980 111.2964120  81.4213500 129.3796810 110.1919170  71.8145410
 128.7509970 110.2964840  71.1003640 128.8848730 110.4115950  72.6039290
 123.8254950 121.9124760  69.2479390 123.9266930 121.7088750  68.3181370
 122.9256690 121.6583040  69.4527170 121.3480840 112.4705120  73.2303290
 120.6396990 112.9391460  73.6716900 121.6325320 111.8127130  73.8648480
 122.9736770 113.8901820  81.2295820 123.4722020 114.3647640  81.8947670
 123.1159720 112.9665340  81.4365850 122.4673060 124.4311080  73.9427060
 122.7214560 124.3932470  73.0206430 121.5185540 124.3044410  73.9355310
 119.5515860 110.7790200  70.6054000 120.4006390 111.2160350  70.5394190
 119.1847130 111.0910460  71.4326060 128.4725640 115.3502960  75.5185570
 127.5315780 115.3653190  75.6933260 128.7869710 114.5638920  75.9645870
 118.4507280 117.0322560  69.0789530 119.2170550 116.9203920  69.6414960
 118.5281970 116.3360530  68.4266300 117.1454040 114.4647630  69.7622420
 117.2257630 113.5175140  69.8739820 118.0373790 114.7954510  69.8683080
 130.4751220 122.5211810  77.1939830 130.5998640 123.3442980  77.6663640
 131.3416780 122.3102540  76.8463980 117.9468750 124.6143020  76.8656960
 118.6831230 124.0658480  77.1365530 118.3309670 125.4799030  76.7262950
 114.8314230 120.6816590  72.7398470 113.9054010 120.9237730  72.7303880
 115.2970660 121.5090850  72.6183220 116.9527030 123.7989090  86.0542540
 117.7539760 124.1201140  86.4677940 116.4378850 123.4384670  86.7762450
 121.0571060 123.7873330  68.6882530 121.8499670 124.0762160  68.2364320
 120.5375410 123.3565500  68.0095010 125.7891660 119.9068960  86.0017950
 125.1829820 119.9300560  85.2613700 125.4845770 119.1752000  86.5385200
 127.2192030 123.6349250  84.6127360 128.1713780 123.5507270  84.5627600
 127.0720250 124.2990960  85.2861150 130.1101230 123.0143460  70.1119270
 129.8242740 122.6008600  69.2973450 129.9120780 123.9431170  69.9919790
 114.6724840 116.2862550  84.9978590 115.1763860 115.7069830  85.5694820
 113.9332260 116.5702780  85.5354960 121.5748460 119.0076740  68.5524880
 121.4699100 118.3929090  69.2786260 121.4072680 118.4842630  67.7687890
 128.8686130 119.4238870  85.0889130 129.6095600 119.7614630  84.5856590
 128.1058810 119.5930930  84.5358900 118.6453730 113.0084240  83.8603150
 118.1150190 112.5175190  83.2326490 119.3141800 113.4368440  83.3261080
 127.5431790 117.4753700  83.6244340 127.9572810 117.6298780  84.4734760
 126.6082790 117.6008920  83.7870120 128.0153960 114.8149860  85.6283490
 128.5974730 114.0602180  85.5403970 128.1915730 115.3457300  84.8514970
 119.1326030 109.9746610  83.9400440 119.0382900 109.3567360  83.2151310
 118.5523420 110.7012900  83.7130350 124.6410920 115.1590360  82.9778110
 124.7607130 114.5631500  83.7172950 125.5004920 115.1960050  82.5579410
 126.9798820 115.7127550  81.5540620 126.4534040 116.2370170  80.9505760
 127.3230160 116.3454940  82.1850350 119.3785210 113.1020920  67.9990330
 119.1774270 112.2388280  68.3603670 119.2077260 113.0154280  67.0611930
 120.1554440 123.7327190  82.7098000 119.6175530 124.4573250  82.3906700
 120.4088400 123.2557530  81.9195340 121.4079690 111.7011710  84.2353930
 121.9979380 111.3927560  84.9231750 120.5899930 111.2291460  84.3913830
 126.2273120 111.3177520  84.4686950 125.5388640 110.6559060  84.4036940
 126.9479140 110.8715790  84.9135410 126.8573520 107.9129150  70.5277210
 127.1375810 107.0697050  70.8836630 126.0839250 108.1452260  71.0415960
 123.0116650 124.9678400  82.9684650 122.9375350 125.8713540  83.2757020
 122.1095490 124.6490300  82.9406720 123.5601980 124.1336910  70.5911010
 124.4552770 124.4721880  70.6129770 123.5919610 123.4116320  69.9635290
 117.1998140 119.5063960  68.8198010 117.6373010 120.0493630  69.4755590
 117.6845870 118.6810910  68.8294350 114.4143940 122.2952990  76.2718270
 114.7446950 121.4274050  76.0396910 114.8434940 122.5011510  77.1023230
 114.9034150 123.1623580  79.0099900 114.4665140 123.3424380  79.8424050
 115.4711830 123.9198200  78.8681620 130.5396330 122.6640580  83.2977210
 129.9398320 122.7233140  82.5541130 130.6690230 121.7245560  83.4274060
 131.7797780 120.4058400  68.6346920 130.9490740 120.4735050  69.1054150
 131.9569610 121.2962520  68.3313780 114.7358580 115.6743810  75.3688780
 114.0807420 115.4055450  74.7248480 115.5736530 115.5648290  74.9190760
 132.2414210 118.0055980  75.9823050 132.6123040 117.2223300  75.5759020
 132.8816140 118.6945080  75.8040350 129.2247970 119.3892560  81.3953370
 128.4107810 119.8189720  81.6579160 129.6322170 120.0010970  80.7822420
 131.2873410 117.4440250  68.2953640 131.5622250 118.3519130  68.1672860
 131.0984150 117.3802780  69.2315630 127.6849020 110.4685100  69.5907270
 128.1033900 110.2816080  68.7503930 127.3785080 109.6164150  69.9010200
 131.1838750 115.3809240  73.2883070 130.8082350 114.6137170  72.8564360
 130.4541870 115.7631940  73.7758000 130.5738370 114.5280760  82.9222590
 130.3424460 114.2993510  82.0220540 130.8342920 115.4480310  82.8767480
 115.3250510 112.9705470  83.8150540 114.4306560 112.9372230  84.1544250
 115.8648060 113.1692260  84.5801790 113.9496660 112.8842740  71.3114110
 113.0460740 113.1472940  71.1365770 114.4337280 113.1553910  70.5314070
 130.4589710 113.6066730  76.5890310 130.9827190 113.1129380  75.9580480
 131.0449130 113.7417090  77.3337880 130.6379430 113.6906600  80.1109860
 129.6882140 113.6570140  80.2254850 130.8192440 114.6006710  79.8759630
 116.4923870 111.9408280  69.2208490 117.2015570 111.5191500  68.7355770
 115.7763810 112.0083510  68.5891840 116.1398030 107.9947610  68.2611140
 116.8626160 108.5356550  68.5792360 116.4122550 107.7211030  67.3852680
 129.9489680 112.8640080  72.5282720 130.4448800 112.6310950  73.3131600
 129.7505750 112.0251920  72.1120360 115.8290220 107.2453800  78.1633760
 116.4766410 106.6951180  77.7228920 116.2492060 107.4996950  78.9849570
 131.3776840 111.5001030  75.0620400 131.2676120 111.3457070  76.0002670
 132.1384430 110.9721970  74.8195810 129.7242560 107.4395160  81.5203400
 130.3614780 108.0529300  81.8862590 129.8717450 107.4755820  80.5752630
 129.2824020 124.1411160  74.9221640 129.8783090 123.8195730  74.2456060
 129.5402170 123.6682980  75.7134910 115.5822220 107.4009470  80.9059080
 115.2337040 107.8573290  81.6717260 115.2509920 106.5066600  80.9881510
 117.1886590 120.5729070  85.0712270 117.1456220 120.2021980  85.9526730
 117.3197600 121.5106640  85.2114090 120.8892620 122.1288660  80.6721990
 120.6483980 122.3963220  79.7852510 121.8295260 122.2994390  80.7272850
 123.0947040 108.5921350  84.4278500 123.0335930 109.1843180  85.1773910
 124.0347420 108.4847310  84.2828760 125.7321600 108.2491410  84.0670790
 126.3462010 108.5670700  83.4051870 126.2771160 107.7640000  84.6866650
 132.1496780 124.1483040  81.4732630 131.6555060 124.5451910  80.7559760
 131.5410070 123.5232250  81.8669910 116.2542860 106.9285670  84.1809850
 116.8025850 106.7473720  83.4175960 116.3198170 106.1379780  84.7166160
 117.0274620 123.5191320  82.1910050 116.4334940 123.3876020  82.9300090
 117.0198460 122.6829460  81.7252150 126.4729640 106.8123550  80.3940080
 125.5989480 107.1458660  80.1913010 126.3640390 106.3396730  81.2191950
 127.3801620 109.0194420  81.7781800 127.0514980 108.2046180  81.3983530
 128.3283920 108.9764230  81.6547490 129.8336230 124.7906460  78.7519370
 129.3739200 125.5422270  78.3777390 129.2048690 124.0712930  78.6934170
 116.6586850 120.8849700  81.1418090 115.9320910 120.2654990  81.0744040
 116.7196000 121.2790310  80.2716170 120.2631950 123.0994700  77.9267500
 120.7796970 122.4882060  77.4015760 120.9129330 123.6023480  78.4178510
 123.0027450 123.9903190  78.7536480 123.2905260 123.7357490  77.8769490
 123.5150670 123.4380550  79.3442050 128.7725530 108.4316490  77.3782080
 129.2133620 108.3761590  76.5303680 128.5033120 109.3474500  77.4492260
 114.9416850 124.2024090  74.3514850 114.7738890 123.5694770  75.0496740
 114.0751360 124.4083490  74.0009040 126.6083660 106.8122590  76.0832090
 127.2113030 107.3842800  76.5580610 125.8676650 107.3762030  75.8605990
 117.9370020 108.5604920  70.3948680 118.4662780 107.7734720  70.2656630
 118.5698340 109.2396110  70.6284210 120.1307860 108.2980060  73.4494070
 119.5010600 107.5967370  73.6164200 119.5913000 109.0584190  73.2327230
 123.0699810 124.9119290  86.1204680 123.9967120 124.6763560  86.1640640
 123.0550240 125.7391290  85.6390710 131.3044870 124.4544860  73.1178930
 131.4797060 123.7682600  72.4739850 130.6066440 124.9791910  72.7255600
 120.2563420 107.5764040  85.8846560 119.9747690 108.0797640  85.1207380
 120.6383120 106.7785790  85.5188690 126.8578880 106.9917620  86.4627030
 126.7444330 107.3112230  87.3578550 127.6748620 107.3930130  86.1664310
 129.6377370 124.1389150  85.9445720 130.4302690 123.6438380  85.7371680
 129.9310520 124.8179290  86.5521330 127.9162500 121.1949300  57.4870170
 127.4544030 120.4236540  57.8157340 128.7288050 121.2215370  57.9922620
 114.2845860 114.6616460  59.2528890 114.8561970 113.8938660  59.2532530
 114.2847400 114.9605220  58.3435500 124.1425810 123.4807310  57.1074160
 123.5237250 123.9364810  56.5368600 124.9977590 123.6358770  56.7063860
 115.5270730 110.0700820  61.0397820 115.3473570 109.1726570  61.3200580
 115.1250810 110.6172690  61.7144770 128.1493350 109.7667120  55.8738470
 128.9702970 109.2763690  55.9163950 128.1827430 110.3564780  56.6270310
 116.1457400 112.5661320  59.6480160 116.8267510 112.8299690  60.2667560
 115.8305450 111.7262190  59.9818170 132.4392900 111.7833870  62.4382100
 131.7345070 112.1715580  61.9197210 132.7050820 112.4784160  63.0403030
 125.0089160 118.3646550  54.5006070 124.3906430 118.8296000  53.9368790
 125.5212410 119.0574030  54.9175580 130.0017610 121.3242630  60.9093490
 129.3181130 121.9941740  60.9010160 130.5411900 121.5223280  60.1438350
 131.4541750 111.1522290  59.0375220 130.5066660 111.1861270  59.1690650
 131.7791740 111.9661240  59.4224580 121.9861290 107.4519470  57.3331210
 122.2936270 106.8966360  56.6166710 121.0561990 107.5863930  57.1504200
 127.5376350 123.1686760  59.6238670 127.5503510 122.7649050  58.7560930
 126.9851570 123.9434050  59.5200100 128.8321770 119.8902980  54.7128840
 128.7218100 118.9477310  54.8378260 128.8290020 120.2518620  55.5991600
 126.9361790 118.0716600  60.9521280 127.3530580 117.8576710  60.1174740
 127.6601610 118.3289390  61.5229900 124.3611130 111.7885300  51.0658490
 123.4214800 111.9499260  51.1510950 124.6794390 112.5070980  50.5194480
 130.8823890 116.4703820  61.0437520 130.0542520 116.5396910  60.5687650
 131.4774370 117.0558130  60.5753350 128.4039340 117.0788600  54.5726580
 127.7851760 116.7408150  53.9252880 128.3863790 116.4348360  55.2805770
 127.8465900 113.2573140  61.9892390 127.4337080 114.0826850  62.2432380
 127.1141850 112.6718180  61.7968750 128.5366000 123.3032470  62.6773370
 128.0596560 124.1104660  62.4845980 127.8527790 122.6510800  62.8299580
 126.5804040 116.3175410  51.5799330 127.0197320 115.4797840  51.4337150
 127.2932460 116.9504810  51.6663470 124.6899420 121.2571480  55.5480570
 125.1295330 121.9995810  55.1335960 124.6286310 121.4998050  56.4719530
 120.1650390 122.2817310  66.4500590 120.1365820 122.6860260  65.5829020
 120.0015360 121.3527670  66.2872190 130.1621180 107.5718220  49.8940370
 129.8493840 107.6645050  50.7939440 130.9233650 108.1499250  49.8437800
 132.1165210 123.0644410  67.7464760 132.5924930 123.5427300  68.4253840
 132.7372370 122.9961900  67.0210260 131.5198460 120.2557260  64.9064770
 131.6461520 120.0169140  63.9881950 131.5619840 119.4241800  65.3786850
 125.3815200 123.9585260  63.4759580 125.8959870 123.8693270  64.2782010
 124.5384280 124.3044960  63.7687490 127.3569600 124.2440600  52.9043580
 127.1970740 123.9543540  53.8025410 127.1916310 123.4680730  52.3688810
 119.8357980 124.0239130  54.6815200 119.6600460 123.1074670  54.4683000
 118.9813720 124.3826420  54.9213000 127.0595730 121.7528160  51.4641580
 126.3660890 121.7505450  50.8043860 127.8018590 121.3287480  51.0335750
 126.6245660 123.3790870  55.5390070 127.0802610 122.5980250  55.8528690
 126.9638180 124.0897690  56.0831250 114.3748210 119.1507330  62.6980810
 114.5379250 118.6812690  61.8800180 114.8400660 118.6430890  63.3629650
 122.2625800 107.9023790  52.6147210 121.6379980 107.8983660  53.3400520
 122.1755920 107.0354750  52.2183180 121.8596510 112.3145600  51.5826590
 121.9809330 112.2732080  52.5312410 121.4745020 113.1769750  51.4273320
 120.8718010 114.6246740  50.9809890 120.3034910 114.1764990  50.3545800
 121.5807010 114.9839520  50.4475040 118.4165490 118.6204930  53.2536300
 117.6427750 118.0802550  53.0935020 119.1460120 118.1011540  52.9154060
 129.1753470 117.6170290  59.0462690 129.8952590 118.1125580  58.6558800
 128.9735290 116.9388180  58.4016560 124.6363410 109.0108250  53.1892080
 123.8228020 108.5121420  53.1137390 124.4425360 109.8506500  52.7728430
 124.5572270 117.6879350  64.9331690 124.4909580 116.7675020  64.6789280
 123.9277410 117.7854790  65.6476330 127.3511800 113.3827900  51.4854240
 128.2391420 113.6945130  51.3105580 127.3216890 112.5100150  51.0934820
 123.3472390 119.5551590  52.1642410 123.6888090 120.2993820  51.6685730
 122.5185100 119.8682710  52.5267240 124.4889000 120.5099920  64.6835490
 124.5033540 119.5780880  64.4654400 123.7814100 120.5959680  65.3225260
 129.6226070 114.6939740  50.9534100 129.5389790 115.1253960  50.1030540
 130.3420260 115.1538090  51.3860920 130.7000210 117.1507260  64.0304070
 129.9748400 117.7436040  63.8333460 131.2275670 117.1430800  63.2317440
 130.6513320 121.5482000  53.6816230 130.0089480 120.8937620  53.9559950
 130.2643980 121.9537090  52.9056900 122.3163080 119.6365120  54.9358330
 123.0034210 120.1834330  55.3165920 121.5295500 120.1805850  54.9707940
 123.9222900 122.1517490  61.7775990 124.5665120 122.3576870  62.4549410
 124.2852340 121.3905890  61.3246840 125.1954980 120.1549840  60.4953440
 125.8377210 119.4543000  60.6085610 125.7204330 120.9348280  60.3150330
 129.0410700 120.4398460  50.2192580 128.8148280 119.7228900  50.8117220
 128.6506900 120.1910900  49.3814330 126.9692600 120.9544740  63.6989500
 127.3048840 121.5411430  64.3767420 126.0492940 120.8237450  63.9287290
 114.5196000 108.7439920  64.4812910 113.8054520 108.9436840  65.0865520
 114.9391040 107.9679490  64.8527710 128.6226950 118.3570400  51.8806740
 128.3348650 118.8183090  52.6684620 129.4179120 117.8968170  52.1490960
 114.8068590 122.7320180  65.4679440 114.9159710 121.7914920  65.3274830
 114.1549150 122.9974930  64.8193170 122.7981180 121.0036070  66.8677560
 122.4778050 120.2845310  67.4123250 122.1239540 121.6791140  66.9413620
 120.8395350 121.8496520  51.8110710 120.8305450 122.5826210  51.1955220
 119.9193710 121.6028100  51.9037670 116.4401990 117.0711410  52.5557470
 115.8329940 117.8110310  52.5652770 116.9151340 117.1610770  51.7295670
 129.3796810 110.1919170  53.0401920 128.7509970 110.2964840  52.3260150
 128.8848730 110.4115950  53.8295800 123.8254950 121.9124760  50.4735900
 123.9266930 121.7088750  49.5437880 122.9256690 121.6583040  50.6783680
 125.3796270 109.1955780  55.8955590 125.2564050 109.2141910  54.9465100
 126.3280830 109.2434720  56.0153990 122.4673060 124.4311080  55.1683570
 122.7214560 124.3932470  54.2462940 121.5185540 124.3044410  55.1611820
 130.1803630 110.1069780  63.2980720 129.6777230 110.8475180  63.6374530
 130.9960290 110.4953780  62.9817510 118.4507280 117.0322560  50.3046040
 119.2170550 116.9203920  50.8671470 118.5281970 116.3360530  49.6522810
 130.4751220 122.5211810  58.4196340 130.5998640 123.3442980  58.8920150
 131.3416780 122.3102540  58.0720490 114.8314230 120.6816590  53.9654980
 113.9054010 120.9237730  53.9560390 115.2970660 121.5090850  53.8439730
 116.9527030 123.7989090  67.2799050 117.7539760 124.1201140  67.6934450
 116.4378850 123.4384670  68.0018960 121.0571060 123.7873330  49.9139040
 121.8499670 124.0762160  49.4620830 120.5375410 123.3565500  49.2351520
 127.2192030 123.6349250  65.8383870 128.1713780 123.5507270  65.7884110
 127.0720250 124.2990960  66.5117660 130.1101230 123.0143460  51.3375780
 129.8242740 122.6008600  50.5229960 129.9120780 123.9431170  51.2176300
 114.6724840 116.2862550  66.2235100 115.1763860 115.7069830  66.7951330
 113.9332260 116.5702780  66.7611470 121.5748460 119.0076740  49.7781390
 121.4699100 118.3929090  50.5042770 121.4072680 118.4842630  48.9944400
 124.8151190 118.0696770  50.3823380 124.2661290 118.5166070  51.0266120
 125.4370450 117.5646020  50.9061050 128.8686130 119.4238870  66.3145640
 129.6095600 119.7614630  65.8113100 128.1058810 119.5930930  65.7615410
 116.7047920 114.4292140  67.1185170 116.7453260 114.1306010  68.0270400
 117.5593420 114.8299750  66.9592690 120.4826310 117.0287690  52.2788680
 120.9042730 116.8627560  53.1220070 120.6077150 116.2187920  51.7843820
 122.9953950 116.0525300  49.5265780 123.5159610 115.3374320  49.1606930
 123.6422350 116.6911170  49.8266290 127.5431790 117.4753700  64.8500850
 127.9572810 117.6298780  65.6991270 126.6082790 117.6008920  65.0126630
 124.6410920 115.1590360  64.2034620 124.7607130 114.5631500  64.9429460
 125.5004920 115.1960050  63.7835920 126.9798820 115.7127550  62.7797130
 126.4534040 116.2370170  62.1762270 127.3230160 116.3454940  63.4106860
 120.1554440 123.7327190  63.9354510 119.6175530 124.4573250  63.6163210
 120.4088400 123.2557530  63.1451850 126.8573520 107.9129150  51.7533720
 127.1375810 107.0697050  52.1093140 126.0839250 108.1452260  52.2672470
 123.0116650 124.9678400  64.1941160 122.9375350 125.8713540  64.5013530
 122.1095490 124.6490300  64.1663230 123.5601980 124.1336910  51.8167520
 124.4552770 124.4721880  51.8386280 123.5919610 123.4116320  51.1891800
 117.1998140 119.5063960  50.0454520 117.6373010 120.0493630  50.7012100
 117.6845870 118.6810910  50.0550860 119.0105860 120.6262000  55.1576750
 118.7101400 120.5026970  56.0580660 118.9043350 119.7670590  54.7492480
 130.5396330 122.6640580  64.5233720 129.9398320 122.7233140  63.7797640
 130.6690230 121.7245560  64.6530570 131.7797780 120.4058400  49.8603430
 130.9490740 120.4735050  50.3310660 131.9569610 121.2962520  49.5570290
 131.2354240 117.1505880  52.3637630 131.9973150 117.7202530  52.4697320
 131.2508610 116.5833080  53.1345940 114.7358580 115.6743810  56.5945290
 114.0807420 115.4055450  55.9504990 115.5736530 115.5648290  56.1447270
 132.2414210 118.0055980  57.2079560 132.6123040 117.2223300  56.8015530
 132.8816140 118.6945080  57.0296860 129.2247970 119.3892560  62.6209880
 128.4107810 119.8189720  62.8835670 129.6322170 120.0010970  62.0078930
 131.2873410 117.4440250  49.5210150 131.5622250 118.3519130  49.3929370
 131.0984150 117.3802780  50.4572140 127.6849020 110.4685100  50.8163780
 128.1033900 110.2816080  49.9760440 127.3785080 109.6164150  51.1266710
 131.1838750 115.3809240  54.5139580 130.8082350 114.6137170  54.0820870
 130.4541870 115.7631940  55.0014510 130.5738370 114.5280760  64.1479100
 130.3424460 114.2993510  63.2477050 130.8342920 115.4480310  64.1023990
 115.3250510 112.9705470  65.0407050 114.4306560 112.9372230  65.3800760
 115.8648060 113.1692260  65.8058300 130.4589710 113.6066730  57.8146820
 130.9827190 113.1129380  57.1836990 131.0449130 113.7417090  58.5594390
 130.6379430 113.6906600  61.3366370 129.6882140 113.6570140  61.4511360
 130.8192440 114.6006710  61.1016140 129.9489680 112.8640080  53.7539230
 130.4448800 112.6310950  54.5388110 129.7505750 112.0251920  53.3376870
 131.3776840 111.5001030  56.2876910 131.2676120 111.3457070  57.2259180
 132.1384430 110.9721970  56.0452320 129.7242560 107.4395160  62.7459910
 130.3614780 108.0529300  63.1119100 129.8717450 107.4755820  61.8009140
 132.2667110 109.3308950  49.5283050 133.1916420 109.1990130  49.3201340
 132.2442900 109.4101770  50.4819500 132.3405600 110.1019610  52.1539760
 131.5457100 110.0364730  52.6832670 132.5448880 111.0370250  52.1425110
 129.2824020 124.1411160  56.1478150 129.8783090 123.8195730  55.4712570
 129.5402170 123.6682980  56.9391420 115.5822220 107.4009470  62.1315590
 115.2337040 107.8573290  62.8973770 115.2509920 106.5066600  62.2138020
 132.1496780 124.1483040  62.6989140 131.6555060 124.5451910  61.9816270
 131.5410070 123.5232250  63.0926420 116.2542860 106.9285670  65.4066360
 116.8025850 106.7473720  64.6432470 116.3198170 106.1379780  65.9422670
 129.8336230 124.7906460  59.9775880 129.3739200 125.5422270  59.6033900
 129.2048690 124.0712930  59.9190680 123.0027450 123.9903190  59.9792990
 123.2905260 123.7357490  59.1026000 123.5150670 123.4380550  60.5698560
 128.7725530 108.4316490  58.6038590 129.2133620 108.3761590  57.7560190
 128.5033120 109.3474500  58.6748770 130.6364100 108.0631730  56.6147410
 130.5752500 107.1192950  56.4678430 131.4156130 108.1711820  57.1600870
 126.6083660 106.8122590  57.3088600 127.2113030 107.3842800  57.7837120
 125.8676650 107.3762030  57.0862500 129.7518260 107.2144150  52.5828880
 129.9468890 108.1127600  52.8496310 128.9648130 106.9831230  53.0761830
 116.5479550 122.8957320  53.0221500 116.0227170 123.2765350  52.3183460
 116.4724130 123.5208090  53.7431210 123.0699810 124.9119290  67.3461190
 123.9967120 124.6763560  67.3897150 123.0550240 125.7391290  66.8647220
 131.3044870 124.4544860  54.3435440 131.4797060 123.7682600  53.6996360
 130.6066440 124.9791910  53.9512110 119.1472520 124.8439700  51.8970750
 119.8791340 124.5598980  51.3494640 119.4066190 124.6052980  52.7870130
 118.3087310 120.9604430  51.9017080 117.6796190 121.4289530  52.4502910
 118.4235140 120.1153650  52.3363270 129.6377370 124.1389150  67.1702230
 130.4302690 123.6438380  66.9628190 129.9310520 124.8179290  67.7777840
 125.7637030 115.0110090  38.0518280 125.6831080 114.0964700  37.7809990
 125.3501450 115.5077160  37.3457990 123.8955070 116.7889110  39.9327550
 123.1197170 116.3089550  40.2226120 124.5468000 116.1094760  39.7583710
 117.9120900 117.1008920  40.8103310 117.0805780 116.8457630  41.2099820
 118.5201880 117.1719690  41.5461230 127.9162500 121.1949300  38.7126680
 127.4544030 120.4236540  39.0413850 128.7288050 121.2215370  39.2179130
 117.8922160 121.1349010  41.0061330 118.1950200 120.2446750  40.8271550
 118.6365750 121.6919230  40.7783580 116.3212850 112.0610810  34.5945700
 115.4329550 112.4026780  34.4925580 116.6054040 111.8611130  33.7026530
 114.2845860 114.6616460  40.4785400 114.8561970 113.8938660  40.4789040
 114.2847400 114.9605220  39.5692010 124.1425810 123.4807310  38.3330670
 123.5237250 123.9364810  37.7625110 124.9977590 123.6358770  37.9320370
 123.3364060 119.4646300  39.9397710 123.2672340 118.5236240  39.7786840
 124.0983920 119.5547710  40.5120280 115.5270730 110.0700820  42.2654330
 115.3473570 109.1726570  42.5457090 115.1250810 110.6172690  42.9401280
 124.3669230 112.2716680  40.1666640 124.7434050 111.3988560  40.0540310
 124.2688740 112.6075380  39.2757080 118.4974240 110.6442310  35.6284080
 118.6040990 111.5446040  35.9352840 117.5866600 110.5960280  35.3378730
 128.1493350 109.7667120  37.0994980 128.9702970 109.2763690  37.1420460
 128.1827430 110.3564780  37.8526820 116.1457400 112.5661320  40.8736670
 116.8267510 112.8299690  41.4924070 115.8305450 111.7262190  41.2074680
 120.3381970 113.6128680  39.9609260 120.8460190 114.1109650  40.6014280
 120.8695210 112.8363880  39.7848620 132.4392900 111.7833870  43.6638610
 131.7345070 112.1715580  43.1453720 132.7050820 112.4784160  44.2659540
 118.6218070 108.2527240  44.2272680 118.6236510 108.7699630  43.4218580
 117.7922380 107.7757420  44.2042610 125.0089160 118.3646550  35.7262580
 124.3906430 118.8296000  35.1625300 125.5212410 119.0574030  36.1432090
 119.8720920 117.8922420  42.4046180 119.5390300 118.5191340  43.0467250
 120.0487600 118.4184300  41.6247850 128.3854830 111.7067500  39.8722520
 127.6810400 111.9952390  40.4525630 128.7466990 112.5167610  39.5122080
 118.3033400 109.9637200  42.2343130 118.6450210 110.8079250  41.9397000
 117.3649210 110.1120940  42.3508470 119.0840020 119.8603220  44.2195360
 119.7014020 120.5354300  43.9379810 118.2233140 120.2691200  44.1282860
 114.3772360 119.0503080  33.1002210 114.0000340 119.5390180  32.3687110
 114.6345430 119.7228360  33.7308740 130.0017610 121.3242630  42.1350000
 129.3181130 121.9941740  42.1266670 130.5411900 121.5223280  41.3694860
 131.4541750 111.1522290  40.2631730 130.5066660 111.1861270  40.3947160
 131.7791740 111.9661240  40.6481090 121.9861290 107.4519470  38.5587720
 122.2936270 106.8966360  37.8423220 121.0561990 107.5863930  38.3760710
 127.5376350 123.1686760  40.8495180 127.5503510 122.7649050  39.9817440
 126.9851570 123.9434050  40.7456610 128.8321770 119.8902980  35.9385350
 128.7218100 118.9477310  36.0634770 128.8290020 120.2518620  36.8248110
 126.9361790 118.0716600  42.1777790 127.3530580 117.8576710  41.3431250
 127.6601610 118.3289390  42.7486410 124.3742050 115.5168300  35.2947840
 123.4471330 115.4505680  35.5236310 124.5266870 116.4548430  35.1803080
 124.3611130 111.7885300  32.2915000 123.4214800 111.9499260  32.3767460
 124.6794390 112.5070980  31.7450990 130.8823890 116.4703820  42.2694030
 130.0542520 116.5396910  41.7944160 131.4774370 117.0558130  41.8009860
 128.4039340 117.0788600  35.7983090 127.7851760 116.7408150  35.1509390
 128.3863790 116.4348360  36.5062280 127.8465900 113.2573140  43.2148900
 127.4337080 114.0826850  43.4688890 127.1141850 112.6718180  43.0225260
 119.9798690 116.0433040  38.0767570 119.5755690 115.3310290  37.5813470
 120.0661810 115.6986280  38.9655610 120.4480390 119.7300600  40.2406780
 120.1508680 119.1246070  39.5614560 121.3980210 119.7677910  40.1296140
 118.6927310 112.8176250  41.8566610 119.2441900 112.9271590  41.0819860
 119.2070820 113.1913850  42.5721840 128.5366000 123.3032470  43.9029880
 128.0596560 124.1104660  43.7102490 127.8527790 122.6510800  44.0556090
 119.5398820 119.4682290  46.8914580 118.6427350 119.6922260  47.1387980
 119.5651690 119.5917230  45.9425980 126.5804040 116.3175410  32.8055840
 127.0197320 115.4797840  32.6593660 127.2932460 116.9504810  32.8919980
 118.3670040 116.3395610  45.4671950 118.2277810 117.2118410  45.8359350
 117.4851400 115.9968420  45.3219890 124.6899420 121.2571480  36.7737080
 125.1295330 121.9995810  36.3592470 124.6286310 121.4998050  37.6976040
 120.1650390 122.2817310  47.6757100 120.1365820 122.6860260  46.8085530
 120.0015360 121.3527670  47.5128700 130.1621180 107.5718220  31.1196880
 129.8493840 107.6645050  32.0195950 130.9233650 108.1499250  31.0694310
 116.6803320 114.9378020  35.5774220 116.5600920 115.6640110  34.9655490
 116.3704210 114.1680930  35.1002130 132.1165210 123.0644410  48.9721270
 132.5924930 123.5427300  49.6510350 132.7372370 122.9961900  48.2466770
 114.3188690 118.1093160  41.3842860 114.3969110 118.2441930  40.4398580
 114.9330370 117.4009050  41.5770980 115.5636320 119.8093350  37.7949040
 115.1564400 119.9507940  36.9402640 116.4549330 119.5253510  37.5920250
 131.5198460 120.2557260  46.1321280 131.6461520 120.0169140  45.2138460
 131.5619840 119.4241800  46.6043360 125.3815200 123.9585260  44.7016090
 125.8959870 123.8693270  45.5038520 124.5384280 124.3044960  44.9944000
 127.3569600 124.2440600  34.1300090 127.1970740 123.9543540  35.0281920
 127.1916310 123.4680730  33.5945320 119.8357980 124.0239130  35.9071710
 119.6600460 123.1074670  35.6939510 118.9813720 124.3826420  36.1469510
 127.0595730 121.7528160  32.6898090 126.3660890 121.7505450  32.0300370
 127.8018590 121.3287480  32.2592260 126.6245660 123.3790870  36.7646580
 127.0802610 122.5980250  37.0785200 126.9638180 124.0897690  37.3087760
 131.3722470 112.3089720  47.0971020 130.7566740 112.8169390  46.5686480
 131.0518890 111.4088050  47.0396960 114.3748210 119.1507330  43.9237320
 114.5379250 118.6812690  43.1056690 114.8400660 118.6430890  44.5886160
 119.1466980 108.2813090  38.9597890 118.7035130 109.0622630  38.6282410
 119.7051970 108.6042980  39.6668830 123.4336790 111.1481610  44.5633210
 122.9716160 111.3564630  45.3753150 123.0314900 110.3340960  44.2603880
 128.4341300 112.3690560  45.6929870 127.5834890 112.0696310  46.0138940
 128.2743090 112.6132570  44.7813690 125.5291010 113.8692310  47.7928660
 125.8544420 113.0356060  47.4530890 126.3171340 114.3920830  47.9406990
 122.2625800 107.9023790  33.8403720 121.6379980 107.8983660  34.5657030
 122.1755920 107.0354750  33.4439690 121.1842880 108.8260420  40.8187490
 121.4815210 109.7323250  40.7379510 121.7328440 108.3379200  40.2047060
 118.9381200 113.4046660  36.6879140 118.7122120 113.1883830  37.5925760
 118.1573730 113.8375120  36.3425110 126.1678960 113.4110030  35.2869790
 125.5687850 114.1345830  35.1033410 126.7158570 113.3486810  34.5046240
 121.3780410 114.3032240  47.3539410 121.2824010 113.3626970  47.2039810
 122.2212390 114.5247310  46.9587480 124.7743830 112.0473570  37.3173070
 125.1673400 112.3645770  36.5041760 125.1360680 111.1685450  37.4317590
 116.5090950 110.7145910  45.5073190 116.1154340 111.5621120  45.7145970
 115.8209350 110.0772280  45.6981830 113.8108000 108.6374370  39.5403270
 113.5221050 109.2077230  40.2528250 114.5553760 108.1578820  39.9034500
 113.9978230 112.5794490  30.7505990 113.9152900 113.5225250  30.8920980
 113.6461290 112.4369400  29.8718340 125.3598970 114.6379320  41.4123850
 124.6280090 115.1466130  41.7613950 124.9623310 113.8209300  41.1112630
 121.7976360 111.3133520  39.8176340 121.8012420 110.8723470  38.9680880
 122.6927480 111.6350850  39.9248160 117.6478740 111.1960010  38.7770550
 117.3078790 111.6735240  39.5337600 116.8856060 110.7425130  38.4171650
 121.8596510 112.3145600  32.8083100 121.9809330 112.2732080  33.7568920
 121.4745020 113.1769750  32.6529830 125.8224880 110.0913000  40.8246790
 125.8397620 110.5421650  41.6688640 125.5740460 109.1918640  41.0380230
 120.8718010 114.6246740  32.2066400 120.3034910 114.1764990  31.5802310
 121.5807010 114.9839520  31.6731550 129.2495630 107.5045180  46.6633170
 129.5741400 106.7734840  47.1891150 129.2852140 107.1858820  45.7614160
 115.9487190 118.5258760  46.0833130 115.5641980 117.8852430  46.6816090
 116.2599380 119.2294880  46.6527860 122.0984330 115.3735300  41.5641750
 122.4654460 114.8993870  42.3103090 121.9089390 116.2476870  41.9050090
 114.9624820 110.1178990  37.6935220 114.6771740 109.7534660  38.5313840
 114.9003680 109.3859450  37.0798360 119.8883700 114.4143940  43.8825960
 119.5840770 115.2935920  44.1076320 120.8430160 114.4743730  43.9183400
 118.4165490 118.6204930  34.4792810 117.6427750 118.0802550  34.3191530
 119.1460120 118.1011540  34.1410570 129.1753470 117.6170290  40.2719200
 129.8952590 118.1125580  39.8815310 128.9735290 116.9388180  39.6273070
 124.6363410 109.0108250  34.4148590 123.8228020 108.5121420  34.3393900
 124.4425360 109.8506500  33.9984940 124.5572270 117.6879350  46.1588200
 124.4909580 116.7675020  45.9045790 123.9277410 117.7854790  46.8732840
 127.3511800 113.3827900  32.7110750 128.2391420 113.6945130  32.5362090
 127.3216890 112.5100150  32.3191330 118.4602890 118.2885310  38.1171620
 118.9781560 117.4853570  38.0628510 118.0086910 118.2264450  38.9588450
 123.3472390 119.5551590  33.3898920 123.6888090 120.2993820  32.8942240
 122.5185100 119.8682710  33.7523750 115.9447430 115.2546680  45.0297320
 115.5862370 115.9200530  45.6170660 115.6501990 114.4230230  45.4009940
 119.1460550 115.7130920  47.9136870 118.8460690 115.8588100  47.0164690
 119.9171790 115.1536210  47.8210260 124.4889000 120.5099920  45.9092000
 124.5033540 119.5780880  45.6910910 123.7814100 120.5959680  46.5481770
 129.6226070 114.6939740  32.1790610 129.5389790 115.1253960  31.3287050
 130.3420260 115.1538090  32.6117430 130.7000210 117.1507260  45.2560580
 129.9748400 117.7436040  45.0589970 131.2275670 117.1430800  44.4573950
 130.6513320 121.5482000  34.9072740 130.0089480 120.8937620  35.1816460
 130.2643980 121.9537090  34.1313410 126.2299800 118.8767430  38.7544430
 126.5823620 118.2795560  38.0945800 125.3462130 118.5511660  38.9252680
 122.3163080 119.6365120  36.1614840 123.0034210 120.1834330  36.5422430
 121.5295500 120.1805850  36.1964450 114.4555480 115.2537940  31.6531920
 115.3250330 115.5362740  31.9367840 113.9645800 116.0673810  31.5380730
 121.6190290 116.6411150  35.7740200 122.0753070 117.4516400  36.0000390
 121.2678500 116.3234290  36.6058690 123.9222900 122.1517490  43.0032500
 124.5665120 122.3576870  43.6805920 124.2852340 121.3905890  42.5503350
 125.1954980 120.1549840  41.7209950 125.8377210 119.4543000  41.8342120
 125.7204330 120.9348280  41.5406840 129.0410700 120.4398460  31.4449090
 128.8148280 119.7228900  32.0373730 128.6506900 120.1910900  30.6070840
 126.9692600 120.9544740  44.9246010 127.3048840 121.5411430  45.6023930
 126.0492940 120.8237450  45.1543800 114.8226730 124.4665320  32.2193550
 115.1824370 125.0654660  31.5650820 114.6819070 125.0125210  32.9928580
 114.5196000 108.7439920  45.7069420 113.8054520 108.9436840  46.3122030
 114.9391040 107.9679490  46.0784220 128.6226950 118.3570400  33.1063250
 128.3348650 118.8183090  33.8941130 129.4179120 117.8968170  33.3747470
 122.7981180 121.0036070  48.0934070 122.4778050 120.2845310  48.6379760
 122.1239540 121.6791140  48.1670130 120.8395350 121.8496520  33.0367220
 120.8305450 122.5826210  32.4211730 119.9193710 121.6028100  33.1294180
 116.4401990 117.0711410  33.7813980 115.8329940 117.8110310  33.7909280
 116.9151340 117.1610770  32.9552180 126.0134780 111.2362230  43.4570870
 126.3815600 110.4157440  43.7850440 125.1532980 111.2964120  43.8726520
 129.3796810 110.1919170  34.2658430 128.7509970 110.2964840  33.5516660
 128.8848730 110.4115950  35.0552310 123.8254950 121.9124760  31.6992410
 123.9266930 121.7088750  30.7694390 122.9256690 121.6583040  31.9040190
 121.3480840 112.4705120  35.6816310 120.6396990 112.9391460  36.1229920
 121.6325320 111.8127130  36.3161500 122.9736770 113.8901820  43.6808840
 123.4722020 114.3647640  44.3460690 123.1159720 112.9665340  43.8878870
 125.3796270 109.1955780  37.1212100 125.2564050 109.2141910  36.1721610
 126.3280830 109.2434720  37.2410500 122.4673060 124.4311080  36.3940080
 122.7214560 124.3932470  35.4719450 121.5185540 124.3044410  36.3868330
 119.5515860 110.7790200  33.0567020 120.4006390 111.2160350  32.9907210
 119.1847130 111.0910460  33.8839080 130.1803630 110.1069780  44.5237230
 129.6777230 110.8475180  44.8631040 130.9960290 110.4953780  44.2074020
 128.4725640 115.3502960  37.9698590 127.5315780 115.3653190  38.1446280
 128.7869710 114.5638920  38.4158890 118.4507280 117.0322560  31.5302550
 119.2170550 116.9203920  32.0927980 118.5281970 116.3360530  30.8779320
 117.1454040 114.4647630  32.2135440 117.2257630 113.5175140  32.3252840
 118.0373790 114.7954510  32.3196100 130.4751220 122.5211810  39.6452850
 130.5998640 123.3442980  40.1176660 131.3416780 122.3102540  39.2977000
 117.9468750 124.6143020  39.3169980 118.6831230 124.0658480  39.5878550
 118.3309670 125.4799030  39.1775970 114.8314230 120.6816590  35.1911490
 113.9054010 120.9237730  35.1816900 115.2970660 121.5090850  35.0696240
 116.9527030 123.7989090  48.5055560 117.7539760 124.1201140  48.9190960
 116.4378850 123.4384670  49.2275470 121.0571060 123.7873330  31.1395550
 121.8499670 124.0762160  30.6877340 120.5375410 123.3565500  30.4608030
 125.7891660 119.9068960  48.4530970 125.1829820 119.9300560  47.7126720
 125.4845770 119.1752000  48.9898220 127.2192030 123.6349250  47.0640380
 128.1713780 123.5507270  47.0140620 127.0720250 124.2990960  47.7374170
 130.1101230 123.0143460  32.5632290 129.8242740 122.6008600  31.7486470
 129.9120780 123.9431170  32.4432810 114.6724840 116.2862550  47.4491610
 115.1763860 115.7069830  48.0207840 113.9332260 116.5702780  47.9867980
 121.5748460 119.0076740  31.0037900 121.4699100 118.3929090  31.7299280
 121.4072680 118.4842630  30.2200910 121.7262780 117.6933540  46.9827130
 120.9608450 118.2618540  46.8981800 121.9078740 117.4009750  46.0895360
 124.8151190 118.0696770  31.6079890 124.2661290 118.5166070  32.2522630
 125.4370450 117.5646020  32.1317560 128.8686130 119.4238870  47.5402150
 129.6095600 119.7614630  47.0369610 128.1058810 119.5930930  46.9871920
 116.7047920 114.4292140  48.3441680 116.7453260 114.1306010  49.2526910
 117.5593420 114.8299750  48.1849200 120.4826310 117.0287690  33.5045190
 120.9042730 116.8627560  34.3476580 120.6077150 116.2187920  33.0100330
 118.6453730 113.0084240  46.3116170 118.1150190 112.5175190  45.6839510
 119.3141800 113.4368440  45.7774100 122.9953950 116.0525300  30.7522290
 123.5159610 115.3374320  30.3863440 123.6422350 116.6911170  31.0522800
 127.5431790 117.4753700  46.0757360 127.9572810 117.6298780  46.9247780
 126.6082790 117.6008920  46.2383140 128.0153960 114.8149860  48.0796510
 128.5974730 114.0602180  47.9916990 128.1915730 115.3457300  47.3027990
 121.8987470 108.5319850  43.4240850 121.4504770 108.5544110  42.5786400
 121.2652670 108.1338870  44.0211150 122.3047020 117.4274180  44.0453290
 122.7235130 118.2706910  43.8729530 121.3855650 117.5646220  43.8160070
 124.6410920 115.1590360  45.4291130 124.7607130 114.5631500  46.1685970
 125.5004920 115.1960050  45.0092430 126.9798820 115.7127550  44.0053640
 126.4534040 116.2370170  43.4018780 127.3230160 116.3454940  44.6363370
 119.3785210 113.1020920  30.4503350 119.1774270 112.2388280  30.8116690
 119.2077260 113.0154280  29.5124950 120.1554440 123.7327190  45.1611020
 119.6175530 124.4573250  44.8419720 120.4088400 123.2557530  44.3708360
 126.2273120 111.3177520  46.9199970 125.5388640 110.6559060  46.8549960
 126.9479140 110.8715790  47.3648430 126.8573520 107.9129150  32.9790230
 127.1375810 107.0697050  33.3349650 126.0839250 108.1452260  33.4928980
 118.1768010 110.2021540  30.4381230 118.4793910 110.2088970  29.5300380
 118.9162600 109.8519400  30.9348890 123.0116650 124.9678400  45.4197670
 122.9375350 125.8713540  45.7270040 122.1095490 124.6490300  45.3919740
 121.3952940 109.1456160  31.4237430 121.0474940 108.4680150  30.8439880
 121.5965710 108.6845670  32.2380820 123.5601980 124.1336910  33.0424030
 124.4552770 124.4721880  33.0642790 123.5919610 123.4116320  32.4148310
 117.1998140 119.5063960  31.2711030 117.6373010 120.0493630  31.9268610
 117.6845870 118.6810910  31.2807370 114.4143940 122.2952990  38.7231290
 114.7446950 121.4274050  38.4909930 114.8434940 122.5011510  39.5536250
 119.0105860 120.6262000  36.3833260 118.7101400 120.5026970  37.2837170
 118.9043350 119.7670590  35.9748990 114.9034150 123.1623580  41.4612920
 114.4665140 123.3424380  42.2937070 115.4711830 123.9198200  41.3194640
 130.5396330 122.6640580  45.7490230 129.9398320 122.7233140  45.0054150
 130.6690230 121.7245560  45.8787080 131.7797780 120.4058400  31.0859940
 130.9490740 120.4735050  31.5567170 131.9569610 121.2962520  30.7826800
 131.2354240 117.1505880  33.5894140 131.9973150 117.7202530  33.6953830
 131.2508610 116.5833080  34.3602450 114.7358580 115.6743810  37.8201800
 114.0807420 115.4055450  37.1761500 115.5736530 115.5648290  37.3703780
 132.2414210 118.0055980  38.4336070 132.6123040 117.2223300  38.0272040
 132.8816140 118.6945080  38.2553370 129.2247970 119.3892560  43.8466390
 128.4107810 119.8189720  44.1092180 129.6322170 120.0010970  43.2335440
 131.2873410 117.4440250  30.7466660 131.5622250 118.3519130  30.6185880
 131.0984150 117.3802780  31.6828650 127.6849020 110.4685100  32.0420290
 128.1033900 110.2816080  31.2016950 127.3785080 109.6164150  32.3523220
 131.1838750 115.3809240  35.7396090 130.8082350 114.6137170  35.3077380
 130.4541870 115.7631940  36.2271020 115.7734510 116.0596380  42.3605140
 116.1407550 115.9723780  43.2401160 115.2045330 115.2962930  42.2612000
 130.5738370 114.5280760  45.3735610 130.3424460 114.2993510  44.4733560
 130.8342920 115.4480310  45.3280500 115.3250510 112.9705470  46.2663560
 114.4306560 112.9372230  46.6057270 115.8648060 113.1692260  47.0314810
 129.0126440 109.7537190  48.1515310 129.8896620 109.7620590  48.5349310
 129.0247280 109.0168030  47.5407660 113.9496660 112.8842740  33.7627130
 113.0460740 113.1472940  33.5878790 114.4337280 113.1553910  32.9827090
 130.4589710 113.6066730  39.0403330 130.9827190 113.1129380  38.4093500
 131.0449130 113.7417090  39.7850900 130.6379430 113.6906600  42.5622880
 129.6882140 113.6570140  42.6767870 130.8192440 114.6006710  42.3272650
 116.4923870 111.9408280  31.6721510 117.2015570 111.5191500  31.1868790
 115.7763810 112.0083510  31.0404860 116.1398030 107.9947610  30.7124160
 116.8626160 108.5356550  31.0305380 116.4122550 107.7211030  29.8365700
 129.9489680 112.8640080  34.9795740 130.4448800 112.6310950  35.7644620
 129.7505750 112.0251920  34.5633380 115.8290220 107.2453800  40.6146780
 116.4766410 106.6951180  40.1741940 116.2492060 107.4996950  41.4362590
 131.3776840 111.5001030  37.5133420 131.2676120 111.3457070  38.4515690
 132.1384430 110.9721970  37.2708830 129.7242560 107.4395160  43.9716420
 130.3614780 108.0529300  44.3375610 129.8717450 107.4755820  43.0265650
 132.2667110 109.3308950  30.7539560 133.1916420 109.1990130  30.5457850
 132.2442900 109.4101770  31.7076010 132.3405600 110.1019610  33.3796270
 131.5457100 110.0364730  33.9089180 132.5448880 111.0370250  33.3681620
 129.2824020 124.1411160  37.3734660 129.8783090 123.8195730  36.6969080
 129.5402170 123.6682980  38.1647930 115.5822220 107.4009470  43.3572100
 115.2337040 107.8573290  44.1230280 115.2509920 106.5066600  43.4394530
 117.1886590 120.5729070  47.5225290 117.1456220 120.2021980  48.4039750
 117.3197600 121.5106640  47.6627110 120.8892620 122.1288660  43.1235010
 120.6483980 122.3963220  42.2365530 121.8295260 122.2994390  43.1785870
 123.0947040 108.5921350  46.8791520 123.0335930 109.1843180  47.6286930
 124.0347420 108.4847310  46.7341780 125.7321600 108.2491410  46.5183810
 126.3462010 108.5670700  45.8564890 126.2771160 107.7640000  47.1379670
 132.1496780 124.1483040  43.9245650 131.6555060 124.5451910  43.2072780
 131.5410070 123.5232250  44.3182930 116.2542860 106.9285670  46.6322870
 116.8025850 106.7473720  45.8688980 116.3198170 106.1379780  47.1679180
 117.0274620 123.5191320  44.6423070 116.4334940 123.3876020  45.3813110
 117.0198460 122.6829460  44.1765170 126.4729640 106.8123550  42.8453100
 125.5989480 107.1458660  42.6426030 126.3640390 106.3396730  43.6704970
 127.3801620 109.0194420  44.2294820 127.0514980 108.2046180  43.8496550
 128.3283920 108.9764230  44.1060510 129.8336230 124.7906460  41.2032390
 129.3739200 125.5422270  40.8290410 129.2048690 124.0712930  41.1447190
 116.6586850 120.8849700  43.5931110 115.9320910 120.2654990  43.5257060
 116.7196000 121.2790310  42.7229190 120.2631950 123.0994700  40.3780520
 120.7796970 122.4882060  39.8528780 120.9129330 123.6023480  40.8691530
 123.0027450 123.9903190  41.2049500 123.2905260 123.7357490  40.3282510
 123.5150670 123.4380550  41.7955070 124.2204460 107.7293390  41.7846010
 123.4376250 108.2038890  42.0642770 123.9267390 106.8248220  41.6759190
 128.7725530 108.4316490  39.8295100 129.2133620 108.3761590  38.9816700
 128.5033120 109.3474500  39.9005280 130.6364100 108.0631730  37.8403920
 130.5752500 107.1192950  37.6934940 131.4156130 108.1711820  38.3857380
 114.9416850 124.2024090  36.8027870 114.7738890 123.5694770  37.5009760
 114.0751360 124.4083490  36.4522060 115.5644870 108.0340870  34.3059730
 116.3224230 108.1469750  33.7323760 115.1022040 108.8710070  34.2603160
 122.1058680 110.1480140  37.2962040 121.2933190 109.7737030  36.9557920
 122.6100320 109.3925220  37.5983230 126.6083660 106.8122590  38.5345110
 127.2113030 107.3842800  39.0093630 125.8676650 107.3762030  38.3119010
 129.7518260 107.2144150  33.8085390 129.9468890 108.1127600  34.0752820
 128.9648130 106.9831230  34.3018340 116.5479550 122.8957320  34.2478010
 116.0227170 123.2765350  33.5439970 116.4724130 123.5208090  34.9687720
 117.9370020 108.5604920  32.8461700 118.4662780 107.7734720  32.7169650
 118.5698340 109.2396110  33.0797230 120.1307860 108.2980060  35.9007090
 119.5010600 107.5967370  36.0677220 119.5913000 109.0584190  35.6840250
 123.0699810 124.9119290  48.5717700 123.9967120 124.6763560  48.6153660
 123.0550240 125.7391290  48.0903730 131.3044870 124.4544860  35.5691950
 131.4797060 123.7682600  34.9252870 130.6066440 124.9791910  35.1768620
 120.2563420 107.5764040  48.3359580 119.9747690 108.0797640  47.5720400
 120.6383120 106.7785790  47.9701710 119.1472520 124.8439700  33.1227260
 119.8791340 124.5598980  32.5751150 119.4066190 124.6052980  34.0126640
 118.3087310 120.9604430  33.1273590 117.6796190 121.4289530  33.6759420
 118.4235140 120.1153650  33.5619780 126.8578880 106.9917620  48.9140050
 126.7444330 107.3112230  49.8091570 127.6748620 107.3930130  48.6177330
 129.6377370 124.1389150  48.3958740 130.4302690 123.6438380  48.1884700
 129.9310520 124.8179290  49.0034350 125.7637030 115.0110090  19.2774790
 125.6831080 114.0964700  19.0066500 125.3501450 115.5077160  18.5714500
 123.8955070 116.7889110  21.1584060 123.1197170 116.3089550  21.4482630
 124.5468000 116.1094760  20.9840220 117.9120900 117.1008920  22.0359820
 117.0805780 116.8457630  22.4356330 118.5201880 117.1719690  22.7717740
 127.9162500 121.1949300  19.9383190 127.4544030 120.4236540  20.2670360
 128.7288050 121.2215370  20.4435640 117.8922160 121.1349010  22.2317840
 118.1950200 120.2446750  22.0528060 118.6365750 121.6919230  22.0040090
 116.3212850 112.0610810  15.8202210 115.4329550 112.4026780  15.7182090
 116.6054040 111.8611130  14.9283040 114.2845860 114.6616460  21.7041910
 114.8561970 113.8938660  21.7045550 114.2847400 114.9605220  20.7948520
 124.1425810 123.4807310  19.5587180 123.5237250 123.9364810  18.9881620
 124.9977590 123.6358770  19.1576880 123.3364060 119.4646300  21.1654220
 123.2672340 118.5236240  21.0043350 124.0983920 119.5547710  21.7376790
 115.5270730 110.0700820  23.4910840 115.3473570 109.1726570  23.7713600
 115.1250810 110.6172690  24.1657790 124.3669230 112.2716680  21.3923150
 124.7434050 111.3988560  21.2796820 124.2688740 112.6075380  20.5013590
 118.4974240 110.6442310  16.8540590 118.6040990 111.5446040  17.1609350
 117.5866600 110.5960280  16.5635240 128.1493350 109.7667120  18.3251490
 128.9702970 109.2763690  18.3676970 128.1827430 110.3564780  19.0783330
 116.1457400 112.5661320  22.0993180 116.8267510 112.8299690  22.7180580
 115.8305450 111.7262190  22.4331190 120.3381970 113.6128680  21.1865770
 120.8460190 114.1109650  21.8270790 120.8695210 112.8363880  21.0105130
 132.4392900 111.7833870  24.8895120 131.7345070 112.1715580  24.3710230
 132.7050820 112.4784160  25.4916050 118.6218070 108.2527240  25.4529190
 118.6236510 108.7699630  24.6475090 117.7922380 107.7757420  25.4299120
 125.0089160 118.3646550  16.9519090 124.3906430 118.8296000  16.3881810
 125.5212410 119.0574030  17.3688600 119.8720920 117.8922420  23.6302690
 119.5390300 118.5191340  24.2723760 120.0487600 118.4184300  22.8504360
 128.3854830 111.7067500  21.0979030 127.6810400 111.9952390  21.6782140
 128.7466990 112.5167610  20.7378590 118.3033400 109.9637200  23.4599640
 118.6450210 110.8079250  23.1653510 117.3649210 110.1120940  23.5764980
 119.0840020 119.8603220  25.4451870 119.7014020 120.5354300  25.1636320
 118.2233140 120.2691200  25.3539370 114.3772360 119.0503080  14.3258720
 114.0000340 119.5390180  13.5943620 114.6345430 119.7228360  14.9565250
 130.0017610 121.3242630  23.3606510 129.3181130 121.9941740  23.3523180
 130.5411900 121.5223280  22.5951370 131.4541750 111.1522290  21.4888240
 130.5066660 111.1861270  21.6203670 131.7791740 111.9661240  21.8737600
 121.9861290 107.4519470  19.7844230 122.2936270 106.8966360  19.0679730
 121.0561990 107.5863930  19.6017220 127.5376350 123.1686760  22.0751690
 127.5503510 122.7649050  21.2073950 126.9851570 123.9434050  21.9713120
 128.8321770 119.8902980  17.1641860 128.7218100 118.9477310  17.2891280
 128.8290020 120.2518620  18.0504620 126.9361790 118.0716600  23.4034300
 127.3530580 117.8576710  22.5687760 127.6601610 118.3289390  23.9742920
 124.3742050 115.5168300  16.5204350 123.4471330 115.4505680  16.7492820
 124.5266870 116.4548430  16.4059590 124.3611130 111.7885300  13.5171510
 123.4214800 111.9499260  13.6023970 124.6794390 112.5070980  12.9707500
 130.8823890 116.4703820  23.4950540 130.0542520 116.5396910  23.0200670
 131.4774370 117.0558130  23.0266370 128.4039340 117.0788600  17.0239600
 127.7851760 116.7408150  16.3765900 128.3863790 116.4348360  17.7318790
 127.8465900 113.2573140  24.4405410 127.4337080 114.0826850  24.6945400
 127.1141850 112.6718180  24.2481770 119.9798690 116.0433040  19.3024080
 119.5755690 115.3310290  18.8069980 120.0661810 115.6986280  20.1912120
 120.4480390 119.7300600  21.4663290 120.1508680 119.1246070  20.7871070
 121.3980210 119.7677910  21.3552650 118.6927310 112.8176250  23.0823120
 119.2441900 112.9271590  22.3076370 119.2070820 113.1913850  23.7978350
 128.5366000 123.3032470  25.1286390 128.0596560 124.1104660  24.9359000
 127.8527790 122.6510800  25.2812600 119.5398820 119.4682290  28.1171090
 118.6427350 119.6922260  28.3644490 119.5651690 119.5917230  27.1682490
 126.5804040 116.3175410  14.0312350 127.0197320 115.4797840  13.8850170
 127.2932460 116.9504810  14.1176490 118.3670040 116.3395610  26.6928460
 118.2277810 117.2118410  27.0615860 117.4851400 115.9968420  26.5476400
 124.6899420 121.2571480  17.9993590 125.1295330 121.9995810  17.5848980
 124.6286310 121.4998050  18.9232550 120.1650390 122.2817310  28.9013610
 120.1365820 122.6860260  28.0342040 120.0015360 121.3527670  28.7385210
 130.1621180 107.5718220  12.3453390 129.8493840 107.6645050  13.2452460
 130.9233650 108.1499250  12.2950820 116.6803320 114.9378020  16.8030730
 116.5600920 115.6640110  16.1912000 116.3704210 114.1680930  16.3258640
 132.1165210 123.0644410  30.1977780 132.5924930 123.5427300  30.8766860
 132.7372370 122.9961900  29.4723280 114.3188690 118.1093160  22.6099370
 114.3969110 118.2441930  21.6655090 114.9330370 117.4009050  22.8027490
 115.5636320 119.8093350  19.0205550 115.1564400 119.9507940  18.1659150
 116.4549330 119.5253510  18.8176760 131.5198460 120.2557260  27.3577790
 131.6461520 120.0169140  26.4394970 131.5619840 119.4241800  27.8299870
 125.3815200 123.9585260  25.9272600 125.8959870 123.8693270  26.7295030
 124.5384280 124.3044960  26.2200510 127.3569600 124.2440600  15.3556600
 127.1970740 123.9543540  16.2538430 127.1916310 123.4680730  14.8201830
 119.8357980 124.0239130  17.1328220 119.6600460 123.1074670  16.9196020
 118.9813720 124.3826420  17.3726020 127.0595730 121.7528160  13.9154600
 126.3660890 121.7505450  13.2556880 127.8018590 121.3287480  13.4848770
 126.6245660 123.3790870  17.9903090 127.0802610 122.5980250  18.3041710
 126.9638180 124.0897690  18.5344270 131.3722470 112.3089720  28.3227530
 130.7566740 112.8169390  27.7942990 131.0518890 111.4088050  28.2653470
 114.3748210 119.1507330  25.1493830 114.5379250 118.6812690  24.3313200
 114.8400660 118.6430890  25.8142670 119.1466980 108.2813090  20.1854400
 118.7035130 109.0622630  19.8538920 119.7051970 108.6042980  20.8925340
 123.4336790 111.1481610  25.7889720 122.9716160 111.3564630  26.6009660
 123.0314900 110.3340960  25.4860390 128.4341300 112.3690560  26.9186380
 127.5834890 112.0696310  27.2395450 128.2743090 112.6132570  26.0070200
 125.5291010 113.8692310  29.0185170 125.8544420 113.0356060  28.6787400
 126.3171340 114.3920830  29.1663500 122.2625800 107.9023790  15.0660230
 121.6379980 107.8983660  15.7913540 122.1755920 107.0354750  14.6696200
 121.1842880 108.8260420  22.0444000 121.4815210 109.7323250  21.9636020
 121.7328440 108.3379200  21.4303570 118.9381200 113.4046660  17.9135650
 118.7122120 113.1883830  18.8182270 118.1573730 113.8375120  17.5681620
 126.1678960 113.4110030  16.5126300 125.5687850 114.1345830  16.3289920
 126.7158570 113.3486810  15.7302750 121.3780410 114.3032240  28.5795920
 121.2824010 113.3626970  28.4296320 122.2212390 114.5247310  28.1843990
 124.7743830 112.0473570  18.5429580 125.1673400 112.3645770  17.7298270
 125.1360680 111.1685450  18.6574100 116.5090950 110.7145910  26.7329700
 116.1154340 111.5621120  26.9402480 115.8209350 110.0772280  26.9238340
 123.0836000 110.7980880  29.8026440 122.3934320 110.6053080  30.4372530
 123.8268300 111.0815520  30.3350740 113.8108000 108.6374370  20.7659780
 113.5221050 109.2077230  21.4784760 114.5553760 108.1578820  21.1291010
 113.9978230 112.5794490  11.9762500 113.9152900 113.5225250  12.1177490
 113.6461290 112.4369400  11.0974850 125.3598970 114.6379320  22.6380360
 124.6280090 115.1466130  22.9870460 124.9623310 113.8209300  22.3369140
 121.7976360 111.3133520  21.0432850 121.8012420 110.8723470  20.1937390
 122.6927480 111.6350850  21.1504670 117.6478740 111.1960010  20.0027060
 117.3078790 111.6735240  20.7594110 116.8856060 110.7425130  19.6428160
 121.8596510 112.3145600  14.0339610 121.9809330 112.2732080  14.9825430
 121.4745020 113.1769750  13.8786340 125.8224880 110.0913000  22.0503300
 125.8397620 110.5421650  22.8945150 125.5740460 109.1918640  22.2636740
 120.8718010 114.6246740  13.4322910 120.3034910 114.1764990  12.8058820
 121.5807010 114.9839520  12.8988060 129.2495630 107.5045180  27.8889680
 129.5741400 106.7734840  28.4147660 129.2852140 107.1858820  26.9870670
 115.9487190 118.5258760  27.3089640 115.5641980 117.8852430  27.9072600
 116.2599380 119.2294880  27.8784370 122.0984330 115.3735300  22.7898260
 122.4654460 114.8993870  23.5359600 121.9089390 116.2476870  23.1306600
 114.9624820 110.1178990  18.9191730 114.6771740 109.7534660  19.7570350
 114.9003680 109.3859450  18.3054870 119.8883700 114.4143940  25.1082470
 119.5840770 115.2935920  25.3332830 120.8430160 114.4743730  25.1439910
 118.4165490 118.6204930  15.7049320 117.6427750 118.0802550  15.5448040
 119.1460120 118.1011540  15.3667080 129.1753470 117.6170290  21.4975710
 129.8952590 118.1125580  21.1071820 128.9735290 116.9388180  20.8529580
 124.6363410 109.0108250  15.6405100 123.8228020 108.5121420  15.5650410
 124.4425360 109.8506500  15.2241450 124.5572270 117.6879350  27.3844710
 124.4909580 116.7675020  27.1302300 123.9277410 117.7854790  28.0989350
 127.3511800 113.3827900  13.9367260 128.2391420 113.6945130  13.7618600
 127.3216890 112.5100150  13.5447840 118.4602890 118.2885310  19.3428130
 118.9781560 117.4853570  19.2885020 118.0086910 118.2264450  20.1844960
 123.3472390 119.5551590  14.6155430 123.6888090 120.2993820  14.1198750
 122.5185100 119.8682710  14.9780260 115.9447430 115.2546680  26.2553830
 115.5862370 115.9200530  26.8427170 115.6501990 114.4230230  26.6266450
 119.1460550 115.7130920  29.1393380 118.8460690 115.8588100  28.2421200
 119.9171790 115.1536210  29.0466770 124.4889000 120.5099920  27.1348510
 124.5033540 119.5780880  26.9167420 123.7814100 120.5959680  27.7738280
 129.6226070 114.6939740  13.4047120 129.5389790 115.1253960  12.5543560
 130.3420260 115.1538090  13.8373940 130.7000210 117.1507260  26.4817090
 129.9748400 117.7436040  26.2846480 131.2275670 117.1430800  25.6830460
 130.6513320 121.5482000  16.1329250 130.0089480 120.8937620  16.4072970
 130.2643980 121.9537090  15.3569920 126.2299800 118.8767430  19.9800940
 126.5823620 118.2795560  19.3202310 125.3462130 118.5511660  20.1509190
 122.3163080 119.6365120  17.3871350 123.0034210 120.1834330  17.7678940
 121.5295500 120.1805850  17.4220960 114.4555480 115.2537940  12.8788430
 115.3250330 115.5362740  13.1624350 113.9645800 116.0673810  12.7637240
 121.6190290 116.6411150  16.9996710 122.0753070 117.4516400  17.2256900
 121.2678500 116.3234290  17.8315200 123.9222900 122.1517490  24.2289010
 124.5665120 122.3576870  24.9062430 124.2852340 121.3905890  23.7759860
 117.5202070 106.9848800  17.4719230 117.3916700 106.9766700  18.4204150
 116.6964090 107.3231890  17.1210240 125.1954980 120.1549840  22.9466460
 125.8377210 119.4543000  23.0598630 125.7204330 120.9348280  22.7663350
 129.0410700 120.4398460  12.6705600 128.8148280 119.7228900  13.2630240
 128.6506900 120.1910900  11.8327350 126.9692600 120.9544740  26.1502520
 127.3048840 121.5411430  26.8280440 126.0492940 120.8237450  26.3800310
 114.8226730 124.4665320  13.4450060 115.1824370 125.0654660  12.7907330
 114.6819070 125.0125210  14.2185090 114.5196000 108.7439920  26.9325930
 113.8054520 108.9436840  27.5378540 114.9391040 107.9679490  27.3040730
 128.6226950 118.3570400  14.3319760 128.3348650 118.8183090  15.1197640
 129.4179120 117.8968170  14.6003980 114.8068590 122.7320180  27.9192460
 114.9159710 121.7914920  27.7787850 114.1549150 122.9974930  27.2706190
 122.7981180 121.0036070  29.3190580 122.4778050 120.2845310  29.8636270
 122.1239540 121.6791140  29.3926640 120.8395350 121.8496520  14.2623730
 120.8305450 122.5826210  13.6468240 119.9193710 121.6028100  14.3550690
 116.4401990 117.0711410  15.0070490 115.8329940 117.8110310  15.0165790
 116.9151340 117.1610770  14.1808690 126.0134780 111.2362230  24.6827380
 126.3815600 110.4157440  25.0106950 125.1532980 111.2964120  25.0983030
 129.3796810 110.1919170  15.4914940 128.7509970 110.2964840  14.7773170
 128.8848730 110.4115950  16.2808820 123.8254950 121.9124760  12.9248920
 123.9266930 121.7088750  11.9950900 122.9256690 121.6583040  13.1296700
 121.3480840 112.4705120  16.9072820 120.6396990 112.9391460  17.3486430
 121.6325320 111.8127130  17.5418010 122.9736770 113.8901820  24.9065350
 123.4722020 114.3647640  25.5717200 123.1159720 112.9665340  25.1135380
 125.3796270 109.1955780  18.3468610 125.2564050 109.2141910  17.3978120
 126.3280830 109.2434720  18.4667010 122.4673060 124.4311080  17.6196590
 122.7214560 124.3932470  16.6975960 121.5185540 124.3044410  17.6124840
 119.5515860 110.7790200  14.2823530 120.4006390 111.2160350  14.2163720
 119.1847130 111.0910460  15.1095590 130.1803630 110.1069780  25.7493740
 129.6777230 110.8475180  26.0887550 130.9960290 110.4953780  25.4330530
 128.4725640 115.3502960  19.1955100 127.5315780 115.3653190  19.3702790
 128.7869710 114.5638920  19.6415400 118.4507280 117.0322560  12.7559060
 119.2170550 116.9203920  13.3184490 118.5281970 116.3360530  12.1035830
 117.1454040 114.4647630  13.4391950 117.2257630 113.5175140  13.5509350
 118.0373790 114.7954510  13.5452610 130.4751220 122.5211810  20.8709360
 130.5998640 123.3442980  21.3433170 131.3416780 122.3102540  20.5233510
 117.9468750 124.6143020  20.5426490 118.6831230 124.0658480  20.8135060
 118.3309670 125.4799030  20.4032480 114.8314230 120.6816590  16.4168000
 113.9054010 120.9237730  16.4073410 115.2970660 121.5090850  16.2952750
 116.9527030 123.7989090  29.7312070 117.7539760 124.1201140  30.1447470
 116.4378850 123.4384670  30.4531980 121.0571060 123.7873330  12.3652060
 121.8499670 124.0762160  11.9133850 120.5375410 123.3565500  11.6864540
 125.7891660 119.9068960  29.6787480 125.1829820 119.9300560  28.9383230
 125.4845770 119.1752000  30.2154730 127.2192030 123.6349250  28.2896890
 128.1713780 123.5507270  28.2397130 127.0720250 124.2990960  28.9630680
 130.1101230 123.0143460  13.7888800 129.8242740 122.6008600  12.9742980
 129.9120780 123.9431170  13.6689320 114.6724840 116.2862550  28.6748120
 115.1763860 115.7069830  29.2464350 113.9332260 116.5702780  29.2124490
 121.5748460 119.0076740  12.2294410 121.4699100 118.3929090  12.9555790
 121.4072680 118.4842630  11.4457420 121.7262780 117.6933540  28.2083640
 120.9608450 118.2618540  28.1238310 121.9078740 117.4009750  27.3151870
 124.8151190 118.0696770  12.8336400 124.2661290 118.5166070  13.4779140
 125.4370450 117.5646020  13.3574070 128.8686130 119.4238870  28.7658660
 129.6095600 119.7614630  28.2626120 128.1058810 119.5930930  28.2128430
 116.7047920 114.4292140  29.5698190 116.7453260 114.1306010  30.4783420
 117.5593420 114.8299750  29.4105710 120.4826310 117.0287690  14.7301700
 120.9042730 116.8627560  15.5733090 120.6077150 116.2187920  14.2356840
 118.6453730 113.0084240  27.5372680 118.1150190 112.5175190  26.9096020
 119.3141800 113.4368440  27.0030610 122.9953950 116.0525300  11.9778800
 123.5159610 115.3374320  11.6119950 123.6422350 116.6911170  12.2779310
 127.5431790 117.4753700  27.3013870 127.9572810 117.6298780  28.1504290
 126.6082790 117.6008920  27.4639650 128.0153960 114.8149860  29.3053020
 128.5974730 114.0602180  29.2173500 128.1915730 115.3457300  28.5284500
 119.1326030 109.9746610  27.6169970 119.0382900 109.3567360  26.8920840
 118.5523420 110.7012900  27.3899880 121.8987470 108.5319850  24.6497360
 121.4504770 108.5544110  23.8042910 121.2652670 108.1338870  25.2467660
 122.3047020 117.4274180  25.2709800 122.7235130 118.2706910  25.0986040
 121.3855650 117.5646220  25.0416580 124.6410920 115.1590360  26.6547640
 124.7607130 114.5631500  27.3942480 125.5004920 115.1960050  26.2348940
 126.9798820 115.7127550  25.2310150 126.4534040 116.2370170  24.6275290
 127.3230160 116.3454940  25.8619880 119.3785210 113.1020920  11.6759860
 119.1774270 112.2388280  12.0373200 119.2077260 113.0154280  10.7381460
 120.1554440 123.7327190  26.3867530 119.6175530 124.4573250  26.0676230
 120.4088400 123.2557530  25.5964870 121.4079690 111.7011710  27.9123460
 121.9979380 111.3927560  28.6001280 120.5899930 111.2291460  28.0683360
 126.2273120 111.3177520  28.1456480 125.5388640 110.6559060  28.0806470
 126.9479140 110.8715790  28.5904940 126.8573520 107.9129150  14.2046740
 127.1375810 107.0697050  14.5606160 126.0839250 108.1452260  14.7185490
 118.1768010 110.2021540  11.6637740 118.4793910 110.2088970  10.7556890
 118.9162600 109.8519400  12.1605400 123.0116650 124.9678400  26.6454180
 122.9375350 125.8713540  26.9526550 122.1095490 124.6490300  26.6176250
 121.3952940 109.1456160  12.6493940 121.0474940 108.4680150  12.0696390
 121.5965710 108.6845670  13.4637330 123.5601980 124.1336910  14.2680540
 124.4552770 124.4721880  14.2899300 123.5919610 123.4116320  13.6404820
 117.1998140 119.5063960  12.4967540 117.6373010 120.0493630  13.1525120
 117.6845870 118.6810910  12.5063880 114.4143940 122.2952990  19.9487800
 114.7446950 121.4274050  19.7166440 114.8434940 122.5011510  20.7792760
 119.0105860 120.6262000  17.6089770 118.7101400 120.5026970  18.5093680
 118.9043350 119.7670590  17.2005500 114.9034150 123.1623580  22.6869430
 114.4665140 123.3424380  23.5193580 115.4711830 123.9198200  22.5451150
 130.5396330 122.6640580  26.9746740 129.9398320 122.7233140  26.2310660
 130.6690230 121.7245560  27.1043590 131.7797780 120.4058400  12.3116450
 130.9490740 120.4735050  12.7823680 131.9569610 121.2962520  12.0083310
 131.2354240 117.1505880  14.8150650 131.9973150 117.7202530  14.9210340
 131.2508610 116.5833080  15.5858960 114.7358580 115.6743810  19.0458310
 114.0807420 115.4055450  18.4018010 115.5736530 115.5648290  18.5960290
 132.2414210 118.0055980  19.6592580 132.6123040 117.2223300  19.2528550
 132.8816140 118.6945080  19.4809880 129.2247970 119.3892560  25.0722900
 128.4107810 119.8189720  25.3348690 129.6322170 120.0010970  24.4591950
 131.2873410 117.4440250  11.9723170 131.5622250 118.3519130  11.8442390
 131.0984150 117.3802780  12.9085160 127.6849020 110.4685100  13.2676800
 128.1033900 110.2816080  12.4273460 127.3785080 109.6164150  13.5779730
 131.1838750 115.3809240  16.9652600 130.8082350 114.6137170  16.5333890
 130.4541870 115.7631940  17.4527530 115.7734510 116.0596380  23.5861650
 116.1407550 115.9723780  24.4657670 115.2045330 115.2962930  23.4868510
 130.5738370 114.5280760  26.5992120 130.3424460 114.2993510  25.6990070
 130.8342920 115.4480310  26.5537010 115.3250510 112.9705470  27.4920070
 114.4306560 112.9372230  27.8313780 115.8648060 113.1692260  28.2571320
 129.0126440 109.7537190  29.3771820 129.8896620 109.7620590  29.7605820
 129.0247280 109.0168030  28.7664170 113.9496660 112.8842740  14.9883640
 113.0460740 113.1472940  14.8135300 114.4337280 113.1553910  14.2083600
 130.4589710 113.6066730  20.2659840 130.9827190 113.1129380  19.6350010
 131.0449130 113.7417090  21.0107410 130.6379430 113.6906600  23.7879390
 129.6882140 113.6570140  23.9024380 130.8192440 114.6006710  23.5529160
 116.4923870 111.9408280  12.8978020 117.2015570 111.5191500  12.4125300
 115.7763810 112.0083510  12.2661370 116.1398030 107.9947610  11.9380670
 116.8626160 108.5356550  12.2561890 116.4122550 107.7211030  11.0622210
 129.9489680 112.8640080  16.2052250 130.4448800 112.6310950  16.9901130
 129.7505750 112.0251920  15.7889890 115.8290220 107.2453800  21.8403290
 116.4766410 106.6951180  21.3998450 116.2492060 107.4996950  22.6619100
 131.3776840 111.5001030  18.7389930 131.2676120 111.3457070  19.6772200
 132.1384430 110.9721970  18.4965340 129.7242560 107.4395160  25.1972930
 130.3614780 108.0529300  25.5632120 129.8717450 107.4755820  24.2522160
 132.2667110 109.3308950  11.9796070 133.1916420 109.1990130  11.7714360
 132.2442900 109.4101770  12.9332520 132.3405600 110.1019610  14.6052780
 131.5457100 110.0364730  15.1345690 132.5448880 111.0370250  14.5938130
 129.2824020 124.1411160  18.5991170 129.8783090 123.8195730  17.9225590
 129.5402170 123.6682980  19.3904440 115.5822220 107.4009470  24.5828610
 115.2337040 107.8573290  25.3486790 115.2509920 106.5066600  24.6651040
 117.1886590 120.5729070  28.7481800 117.1456220 120.2021980  29.6296260
 117.3197600 121.5106640  28.8883620 120.8892620 122.1288660  24.3491520
 120.6483980 122.3963220  23.4622040 121.8295260 122.2994390  24.4042380
 123.0947040 108.5921350  28.1048030 123.0335930 109.1843180  28.8543440
 124.0347420 108.4847310  27.9598290 125.7321600 108.2491410  27.7440320
 126.3462010 108.5670700  27.0821400 126.2771160 107.7640000  28.3636180
 132.1496780 124.1483040  25.1502160 131.6555060 124.5451910  24.4329290
 131.5410070 123.5232250  25.5439440 116.2542860 106.9285670  27.8579380
 116.8025850 106.7473720  27.0945490 116.3198170 106.1379780  28.3935690
 117.0274620 123.5191320  25.8679580 116.4334940 123.3876020  26.6069620
 117.0198460 122.6829460  25.4021680 126.4729640 106.8123550  24.0709610
 125.5989480 107.1458660  23.8682540 126.3640390 106.3396730  24.8961480
 127.3801620 109.0194420  25.4551330 127.0514980 108.2046180  25.0753060
 128.3283920 108.9764230  25.3317020 129.8336230 124.7906460  22.4288900
 129.3739200 125.5422270  22.0546920 129.2048690 124.0712930  22.3703700
 116.6586850 120.8849700  24.8187620 115.9320910 120.2654990  24.7513570
 116.7196000 121.2790310  23.9485700 120.2631950 123.0994700  21.6037030
 120.7796970 122.4882060  21.0785290 120.9129330 123.6023480  22.0948040
 123.0027450 123.9903190  22.4306010 123.2905260 123.7357490  21.5539020
 123.5150670 123.4380550  23.0211580 124.2204460 107.7293390  23.0102520
 123.4376250 108.2038890  23.2899280 123.9267390 106.8248220  22.9015700
 128.7725530 108.4316490  21.0551610 129.2133620 108.3761590  20.2073210
 128.5033120 109.3474500  21.1261790 130.6364100 108.0631730  19.0660430
 130.5752500 107.1192950  18.9191450 131.4156130 108.1711820  19.6113890
 114.9416850 124.2024090  18.0284380 114.7738890 123.5694770  18.7266270
 114.0751360 124.4083490  17.6778570 115.5644870 108.0340870  15.5316240
 116.3224230 108.1469750  14.9580270 115.1022040 108.8710070  15.4859670
 122.1058680 110.1480140  18.5218550 121.2933190 109.7737030  18.1814430
 122.6100320 109.3925220  18.8239740 126.6083660 106.8122590  19.7601620
 127.2113030 107.3842800  20.2350140 125.8676650 107.3762030  19.5375520
 129.7518260 107.2144150  15.0341900 129.9468890 108.1127600  15.3009330
 128.9648130 106.9831230  15.5274850 116.5479550 122.8957320  15.4734520
 116.0227170 123.2765350  14.7696480 116.4724130 123.5208090  16.1944230
 117.9370020 108.5604920  14.0718210 118.4662780 107.7734720  13.9426160
 118.5698340 109.2396110  14.3053740 120.1307860 108.2980060  17.1263600
 119.5010600 107.5967370  17.2933730 119.5913000 109.0584190  16.9096760
 123.0699810 124.9119290  29.7974210 123.9967120 124.6763560  29.8410170
 123.0550240 125.7391290  29.3160240 131.3044870 124.4544860  16.7948460
 131.4797060 123.7682600  16.1509380 130.6066440 124.9791910  16.4025130
 120.2563420 107.5764040  29.5616090 119.9747690 108.0797640  28.7976910
 120.6383120 106.7785790  29.1958220 119.1472520 124.8439700  14.3483770
 119.8791340 124.5598980  13.8007660 119.4066190 124.6052980  15.2383150
 118.3087310 120.9604430  14.3530100 117.6796190 121.4289530  14.9015930
 118.4235140 120.1153650  14.7876290 126.8578880 106.9917620  30.1396560
 126.7444330 107.3112230  31.0348080 127.6748620 107.3930130  29.8433840
 129.6377370 124.1389150  29.6215250 130.4302690 123.6438380  29.4141210
 129.9310520 124.8179290  30.2290860 123.8955070 116.7889110   2.3840570
 123.1197170 116.3089550   2.6739140 124.5468000 116.1094760   2.2096730
 117.9120900 117.1008920   3.2616330 117.0805780 116.8457630   3.6612840
 118.5201880 117.1719690   3.9974250 117.8922160 121.1349010   3.4574350
 118.1950200 120.2446750   3.2784570 118.6365750 121.6919230   3.2296600
 114.2845860 114.6616460   2.9298420 114.8561970 113.8938660   2.9302060
 114.2847400 114.9605220   2.0205030 123.3364060 119.4646300   2.3910730
 123.2672340 118.5236240   2.2299860 124.0983920 119.5547710   2.9633300
 115.5270730 110.0700820   4.7167350 115.3473570 109.1726570   4.9970110
 115.1250810 110.6172690   5.3914300 124.3669230 112.2716680   2.6179660
 124.7434050 111.3988560   2.5053330 124.2688740 112.6075380   1.7270100
 116.1457400 112.5661320   3.3249690 116.8267510 112.8299690   3.9437090
 115.8305450 111.7262190   3.6587700 120.3381970 113.6128680   2.4122280
 120.8460190 114.1109650   3.0527300 120.8695210 112.8363880   2.2361640
 132.4392900 111.7833870   6.1151630 131.7345070 112.1715580   5.5966740
 132.7050820 112.4784160   6.7172560 118.6218070 108.2527240   6.6785700
 118.6236510 108.7699630   5.8731600 117.7922380 107.7757420   6.6555630
 119.8720920 117.8922420   4.8559200 119.5390300 118.5191340   5.4980270
 120.0487600 118.4184300   4.0760870 128.3854830 111.7067500   2.3235540
 127.6810400 111.9952390   2.9038650 128.7466990 112.5167610   1.9635100
 118.3033400 109.9637200   4.6856150 118.6450210 110.8079250   4.3910020
 117.3649210 110.1120940   4.8021490 119.0840020 119.8603220   6.6708380
 119.7014020 120.5354300   6.3892830 118.2233140 120.2691200   6.5795880
 130.0017610 121.3242630   4.5863020 129.3181130 121.9941740   4.5779690
 130.5411900 121.5223280   3.8207880 131.4541750 111.1522290   2.7144750
 130.5066660 111.1861270   2.8460180 131.7791740 111.9661240   3.0994110
 127.5376350 123.1686760   3.3008200 127.5503510 122.7649050   2.4330460
 126.9851570 123.9434050   3.1969630 126.9361790 118.0716600   4.6290810
 127.3530580 117.8576710   3.7944270 127.6601610 118.3289390   5.1999430
 130.8823890 116.4703820   4.7207050 130.0542520 116.5396910   4.2457180
 131.4774370 117.0558130   4.2522880 127.8465900 113.2573140   5.6661920
 127.4337080 114.0826850   5.9201910 127.1141850 112.6718180   5.4738280
 120.4480390 119.7300600   2.6919800 120.1508680 119.1246070   2.0127580
 121.3980210 119.7677910   2.5809160 118.6927310 112.8176250   4.3079630
 119.2441900 112.9271590   3.5332880 119.2070820 113.1913850   5.0234860
 128.5366000 123.3032470   6.3542900 128.0596560 124.1104660   6.1615510
 127.8527790 122.6510800   6.5069110 119.5398820 119.4682290   9.3427600
 118.6427350 119.6922260   9.5901000 119.5651690 119.5917230   8.3939000
 118.3670040 116.3395610   7.9184970 118.2277810 117.2118410   8.2872370
 117.4851400 115.9968420   7.7732910 120.1650390 122.2817310  10.1270120
 120.1365820 122.6860260   9.2598550 120.0015360 121.3527670   9.9641720
 132.1165210 123.0644410  11.4234290 132.5924930 123.5427300  12.1023370
 132.7372370 122.9961900  10.6979790 114.3188690 118.1093160   3.8355880
 114.3969110 118.2441930   2.8911600 114.9330370 117.4009050   4.0284000
 131.5198460 120.2557260   8.5834300 131.6461520 120.0169140   7.6651480
 131.5619840 119.4241800   9.0556380 125.3815200 123.9585260   7.1529110
 125.8959870 123.8693270   7.9551540 124.5384280 124.3044960   7.4457020
 131.3722470 112.3089720   9.5484040 130.7566740 112.8169390   9.0199500
 131.0518890 111.4088050   9.4909980 114.3748210 119.1507330   6.3750340
 114.5379250 118.6812690   5.5569710 114.8400660 118.6430890   7.0399180
 123.4336790 111.1481610   7.0146230 122.9716160 111.3564630   7.8266170
 123.0314900 110.3340960   6.7116900 128.4341300 112.3690560   8.1442890
 127.5834890 112.0696310   8.4651960 128.2743090 112.6132570   7.2326710
 125.5291010 113.8692310  10.2441680 125.8544420 113.0356060   9.9043910
 126.3171340 114.3920830  10.3920010 121.1842880 108.8260420   3.2700510
 121.4815210 109.7323250   3.1892530 121.7328440 108.3379200   2.6560080
 121.3780410 114.3032240   9.8052430 121.2824010 113.3626970   9.6552830
 122.2212390 114.5247310   9.4100500 116.5090950 110.7145910   7.9586210
 116.1154340 111.5621120   8.1658990 115.8209350 110.0772280   8.1494850
 123.0836000 110.7980880  11.0282950 122.3934320 110.6053080  11.6629040
 123.8268300 111.0815520  11.5607250 113.8108000 108.6374370   1.9916290
 113.5221050 109.2077230   2.7041270 114.5553760 108.1578820   2.3547520
 125.3598970 114.6379320   3.8636870 124.6280090 115.1466130   4.2126970
 124.9623310 113.8209300   3.5625650 121.7976360 111.3133520   2.2689360
 121.8012420 110.8723470   1.4193900 122.6927480 111.6350850   2.3761180
 125.8224880 110.0913000   3.2759810 125.8397620 110.5421650   4.1201660
 125.5740460 109.1918640   3.4893250 129.2495630 107.5045180   9.1146190
 129.5741400 106.7734840   9.6404170 129.2852140 107.1858820   8.2127180
 115.9487190 118.5258760   8.5346150 115.5641980 117.8852430   9.1329110
 116.2599380 119.2294880   9.1040880 122.0984330 115.3735300   4.0154770
 122.4654460 114.8993870   4.7616110 121.9089390 116.2476870   4.3563110
 119.8883700 114.4143940   6.3338980 119.5840770 115.2935920   6.5589340
 120.8430160 114.4743730   6.3696420 129.1753470 117.6170290   2.7232220
 129.8952590 118.1125580   2.3328330 128.9735290 116.9388180   2.0786090
 124.5572270 117.6879350   8.6101220 124.4909580 116.7675020   8.3558810
 123.9277410 117.7854790   9.3245860 115.9447430 115.2546680   7.4810340
 115.5862370 115.9200530   8.0683680 115.6501990 114.4230230   7.8522960
 119.1460550 115.7130920  10.3649890 118.8460690 115.8588100   9.4677710
 119.9171790 115.1536210  10.2723280 124.4889000 120.5099920   8.3605020
 124.5033540 119.5780880   8.1423930 123.7814100 120.5959680   8.9994790
 130.7000210 117.1507260   7.7073600 129.9748400 117.7436040   7.5102990
 131.2275670 117.1430800   6.9086970 123.9222900 122.1517490   5.4545520
 124.5665120 122.3576870   6.1318940 124.2852340 121.3905890   5.0016370
 125.1954980 120.1549840   4.1722970 125.8377210 119.4543000   4.2855140
 125.7204330 120.9348280   3.9919860 126.9692600 120.9544740   7.3759030
 127.3048840 121.5411430   8.0536950 126.0492940 120.8237450   7.6056820
 114.5196000 108.7439920   8.1582440 113.8054520 108.9436840   8.7635050
 114.9391040 107.9679490   8.5297240 114.8068590 122.7320180   9.1448970
 114.9159710 121.7914920   9.0044360 114.1549150 122.9974930   8.4962700
 122.7981180 121.0036070  10.5447090 122.4778050 120.2845310  11.0892780
 122.1239540 121.6791140  10.6183150 126.0134780 111.2362230   5.9083890
 126.3815600 110.4157440   6.2363460 125.1532980 111.2964120   6.3239540
 122.9736770 113.8901820   6.1321860 123.4722020 114.3647640   6.7973710
 123.1159720 112.9665340   6.3391890 130.1803630 110.1069780   6.9750250
 129.6777230 110.8475180   7.3144060 130.9960290 110.4953780   6.6587040
 130.4751220 122.5211810   2.0965870 130.5998640 123.3442980   2.5689680
 131.3416780 122.3102540   1.7490020 117.9468750 124.6143020   1.7683000
 118.6831230 124.0658480   2.0391570 118.3309670 125.4799030   1.6288990
 116.9527030 123.7989090  10.9568580 117.7539760 124.1201140  11.3703980
 116.4378850 123.4384670  11.6788490 125.7891660 119.9068960  10.9043990
 125.1829820 119.9300560  10.1639740 125.4845770 119.1752000  11.4411240
 127.2192030 123.6349250   9.5153400 128.1713780 123.5507270   9.4653640
 127.0720250 124.2990960  10.1887190 114.6724840 116.2862550   9.9004630
 115.1763860 115.7069830  10.4720860 113.9332260 116.5702780  10.4381000
 121.7262780 117.6933540   9.4340150 120.9608450 118.2618540   9.3494820
 121.9078740 117.4009750   8.5408380 128.8686130 119.4238870   9.9915170
 129.6095600 119.7614630   9.4882630 128.1058810 119.5930930   9.4384940
 116.7047920 114.4292140  10.7954700 116.7453260 114.1306010  11.7039930
 117.5593420 114.8299750  10.6362220 118.6453730 113.0084240   8.7629190
 118.1150190 112.5175190   8.1352530 119.3141800 113.4368440   8.2287120
 127.5431790 117.4753700   8.5270380 127.9572810 117.6298780   9.3760800
 126.6082790 117.6008920   8.6896160 128.0153960 114.8149860  10.5309530
 128.5974730 114.0602180  10.4430010 128.1915730 115.3457300   9.7541010
 119.1326030 109.9746610   8.8426480 119.0382900 109.3567360   8.1177350
 118.5523420 110.7012900   8.6156390 121.8987470 108.5319850   5.8753870
 121.4504770 108.5544110   5.0299420 121.2652670 108.1338870   6.4724170
 122.3047020 117.4274180   6.4966310 122.7235130 118.2706910   6.3242550
 121.3855650 117.5646220   6.2673090 124.6410920 115.1590360   7.8804150
 124.7607130 114.5631500   8.6198990 125.5004920 115.1960050   7.4605450
 126.9798820 115.7127550   6.4566660 126.4534040 116.2370170   5.8531800
 127.3230160 116.3454940   7.0876390 120.1554440 123.7327190   7.6124040
 119.6175530 124.4573250   7.2932740 120.4088400 123.2557530   6.8221380
 121.4079690 111.7011710   9.1379970 121.9979380 111.3927560   9.8257790
 120.5899930 111.2291460   9.2939870 126.2273120 111.3177520   9.3712990
 125.5388640 110.6559060   9.3062980 126.9479140 110.8715790   9.8161450
 123.0116650 124.9678400   7.8710690 122.9375350 125.8713540   8.1783060
 122.1095490 124.6490300   7.8432760 114.9034150 123.1623580   3.9125940
 114.4665140 123.3424380   4.7450090 115.4711830 123.9198200   3.7707660
 130.5396330 122.6640580   8.2003250 129.9398320 122.7233140   7.4567170
 130.6690230 121.7245560   8.3300100 129.2247970 119.3892560   6.2979410
 128.4107810 119.8189720   6.5605200 129.6322170 120.0010970   5.6848460
 115.7734510 116.0596380   4.8118160 116.1407550 115.9723780   5.6914180
 115.2045330 115.2962930   4.7125020 130.5738370 114.5280760   7.8248630
 130.3424460 114.2993510   6.9246580 130.8342920 115.4480310   7.7793520
 115.3250510 112.9705470   8.7176580 114.4306560 112.9372230   9.0570290
 115.8648060 113.1692260   9.4827830 129.0126440 109.7537190  10.6028330
 129.8896620 109.7620590  10.9862330 129.0247280 109.0168030   9.9920680
 130.6379430 113.6906600   5.0135900 129.6882140 113.6570140   5.1280890
 130.8192440 114.6006710   4.7785670 115.8290220 107.2453800   3.0659800
 116.4766410 106.6951180   2.6254960 116.2492060 107.4996950   3.8875610
 129.7242560 107.4395160   6.4229440 130.3614780 108.0529300   6.7888630
 129.8717450 107.4755820   5.4778670 115.5822220 107.4009470   5.8085120
 115.2337040 107.8573290   6.5743300 115.2509920 106.5066600   5.8907550
 117.1886590 120.5729070   9.9738310 117.1456220 120.2021980  10.8552770
 117.3197600 121.5106640  10.1140130 120.8892620 122.1288660   5.5748030
 120.6483980 122.3963220   4.6878550 121.8295260 122.2994390   5.6298890
 123.0947040 108.5921350   9.3304540 123.0335930 109.1843180  10.0799950
 124.0347420 108.4847310   9.1854800 125.7321600 108.2491410   8.9696830
 126.3462010 108.5670700   8.3077910 126.2771160 107.7640000   9.5892690
 132.1496780 124.1483040   6.3758670 131.6555060 124.5451910   5.6585800
 131.5410070 123.5232250   6.7695950 116.2542860 106.9285670   9.0835890
 116.8025850 106.7473720   8.3202000 116.3198170 106.1379780   9.6192200
 117.0274620 123.5191320   7.0936090 116.4334940 123.3876020   7.8326130
 117.0198460 122.6829460   6.6278190 126.4729640 106.8123550   5.2966120
 125.5989480 107.1458660   5.0939050 126.3640390 106.3396730   6.1217990
 127.3801620 109.0194420   6.6807840 127.0514980 108.2046180   6.3009570
 128.3283920 108.9764230   6.5573530 129.8336230 124.7906460   3.6545410
 129.3739200 125.5422270   3.2803430 129.2048690 124.0712930   3.5960210
 116.6586850 120.8849700   6.0444130 115.9320910 120.2654990   5.9770080
 116.7196000 121.2790310   5.1742210 120.2631950 123.0994700   2.8293540
 120.7796970 122.4882060   2.3041800 120.9129330 123.6023480   3.3204550
 123.0027450 123.9903190   3.6562520 123.2905260 123.7357490   2.7795530
 123.5150670 123.4380550   4.2468090 124.2204460 107.7293390   4.2359030
 123.4376250 108.2038890   4.5155790 123.9267390 106.8248220   4.1272210
 128.7725530 108.4316490   2.2808120 129.2133620 108.3761590   1.4329720
 128.5033120 109.3474500   2.3518300 123.0699810 124.9119290  11.0230720
 123.9967120 124.6763560  11.0666680 123.0550240 125.7391290  10.5416750
 120.2563420 107.5764040  10.7872600 119.9747690 108.0797640  10.0233420
 120.6383120 106.7785790  10.4214730 126.8578880 106.9917620  11.3653070
 126.7444330 107.3112230  12.2604590 127.6748620 107.3930130  11.0690350
 129.6377370 124.1389150  10.8471760 130.4302690 123.6438380  10.6397720
 129.9310520 124.8179290  11.4547370 125.7637030  96.2366600 150.6979220
 125.6831080  95.3221210 150.4270930 125.3501450  96.7333670 149.9918930
 123.8955070  98.0145620 152.5788490 123.1197170  97.5346060 152.8687060
 124.5468000  97.3351270 152.4044650 127.9162500 102.4205810 151.3587620
 127.4544030 101.6493050 151.6874790 128.7288050 102.4471880 151.8640070
 116.3212850  93.2867320 147.2406640 115.4329550  93.6283290 147.1386520
 116.6054040  93.0867640 146.3487470 114.2845860  95.8872970 153.1246340
 114.8561970  95.1195170 153.1249980 114.2847400  96.1861730 152.2152950
 124.1425810 104.7063820 150.9791610 123.5237250 105.1621320 150.4086050
 124.9977590 104.8615280 150.5781310 123.3364060 100.6902810 152.5858650
 123.2672340  99.7492750 152.4247780 124.0983920 100.7804220 153.1581220
 124.3669230  93.4973190 152.8127580 124.7434050  92.6245070 152.7001250
 124.2688740  93.8331890 151.9218020 118.4974240  91.8698820 148.2745020
 118.6040990  92.7702550 148.5813780 117.5866600  91.8216790 147.9839670
 128.1493350  90.9923630 149.7455920 128.9702970  90.5020200 149.7881400
 128.1827430  91.5821290 150.4987760 125.0089160  99.5903060 148.3723520
 124.3906430 100.0552510 147.8086240 125.5212410 100.2830540 148.7893030
 128.3854830  92.9324010 152.5183460 127.6810400  93.2208900 153.0986570
 128.7466990  93.7424120 152.1583020 114.3772360 100.2759590 145.7463150
 114.0000340 100.7646690 145.0148050 114.6345430 100.9484870 146.3769680
 121.9861290  88.6775980 151.2048660 122.2936270  88.1222870 150.4884160
 121.0561990  88.8120440 151.0221650 128.8321770 101.1159490 148.5846290
 128.7218100 100.1733820 148.7095710 128.8290020 101.4775130 149.4709050
 124.3742050  96.7424810 147.9408780 123.4471330  96.6762190 148.1697250
 124.5266870  97.6804940 147.8264020 124.3611130  93.0141810 144.9375940
 123.4214800  93.1755770 145.0228400 124.6794390  93.7327490 144.3911930
 128.4039340  98.3045110 148.4444030 127.7851760  97.9664660 147.7970330
 128.3863790  97.6604870 149.1523220 119.9798690  97.2689550 150.7228510
 119.5755690  96.5566800 150.2274410 120.0661810  96.9242790 151.6116550
 120.4480390 100.9557110 152.8867720 120.1508680 100.3502580 152.2075500
 121.3980210 100.9934420 152.7757080 126.5804040  97.5431920 145.4516780
 127.0197320  96.7054350 145.3054600 127.2932460  98.1761320 145.5380920
 124.6899420 102.4827990 149.4198020 125.1295330 103.2252320 149.0053410
 124.6286310 102.7254560 150.3436980 130.1621180  88.7974730 143.7657820
 129.8493840  88.8901560 144.6656890 130.9233650  89.3755760 143.7155250
 116.6803320  96.1634530 148.2235160 116.5600920  96.8896620 147.6116430
 116.3704210  95.3937440 147.7463070 115.5636320 101.0349860 150.4409980
 115.1564400 101.1764450 149.5863580 116.4549330 100.7510020 150.2381190
 127.3569600 105.4697110 146.7761030 127.1970740 105.1800050 147.6742860
 127.1916310 104.6937240 146.2406260 119.8357980 105.2495640 148.5532650
 119.6600460 104.3331180 148.3400450 118.9813720 105.6082930 148.7930450
 127.0595730 102.9784670 145.3359030 126.3660890 102.9761960 144.6761310
 127.8018590 102.5543990 144.9053200 126.6245660 104.6047380 149.4107520
 127.0802610 103.8236760 149.7246140 126.9638180 105.3154200 149.9548700
 119.1466980  89.5069600 151.6058830 118.7035130  90.2879140 151.2743350
 119.7051970  89.8299490 152.3129770 122.2625800  89.1280300 146.4864660
 121.6379980  89.1240170 147.2117970 122.1755920  88.2611260 146.0900630
 118.9381200  94.6303170 149.3340080 118.7122120  94.4140340 150.2386700
 118.1573730  95.0631630 148.9886050 126.1678960  94.6366540 147.9330730
 125.5687850  95.3602340 147.7494350 126.7158570  94.5743320 147.1507180
 124.7743830  93.2730080 149.9634010 125.1673400  93.5902280 149.1502700
 125.1360680  92.3941960 150.0778530 113.8108000  89.8630880 152.1864210
 113.5221050  90.4333740 152.8989190 114.5553760  89.3835330 152.5495440
 113.9978230  93.8051000 143.3966930 113.9152900  94.7481760 143.5381920
 113.6461290  93.6625910 142.5179280 121.7976360  92.5390030 152.4637280
 121.8012420  92.0979980 151.6141820 122.6927480  92.8607360 152.5709100
 117.6478740  92.4216520 151.4231490 117.3078790  92.8991750 152.1798540
 116.8856060  91.9681640 151.0632590 121.8596510  93.5402110 145.4544040
 121.9809330  93.4988590 146.4029860 121.4745020  94.4026260 145.2990770
 120.8718010  95.8503250 144.8527340 120.3034910  95.4021500 144.2263250
 121.5807010  96.2096030 144.3192490 114.9624820  91.3435500 150.3396160
 114.6771740  90.9791170 151.1774780 114.9003680  90.6115960 149.7259300
 118.4165490  99.8461440 147.1253750 117.6427750  99.3059060 146.9652470
 119.1460120  99.3268050 146.7871510 129.1753470  98.8426800 152.9180140
 129.8952590  99.3382090 152.5276250 128.9735290  98.1644690 152.2734010
 124.6363410  90.2364760 147.0609530 123.8228020  89.7377930 146.9854840
 124.4425360  91.0763010 146.6445880 127.3511800  94.6084410 145.3571690
 128.2391420  94.9201640 145.1823030 127.3216890  93.7356660 144.9652270
 118.4602890  99.5141820 150.7632560 118.9781560  98.7110080 150.7089450
 118.0086910  99.4520960 151.6049390 123.3472390 100.7808100 146.0359860
 123.6888090 101.5250330 145.5403180 122.5185100 101.0939220 146.3984690
 129.6226070  95.9196250 144.8251550 129.5389790  96.3510470 143.9747990
 130.3420260  96.3794600 145.2578370 130.6513320 102.7738510 147.5533680
 130.0089480 102.1194130 147.8277400 130.2643980 103.1793600 146.7774350
 126.2299800 100.1023940 151.4005370 126.5823620  99.5052070 150.7406740
 125.3462130  99.7768170 151.5713620 122.3163080 100.8621630 148.8075780
 123.0034210 101.4090840 149.1883370 121.5295500 101.4062360 148.8425390
 114.4555480  96.4794450 144.2992860 115.3250330  96.7619250 144.5828780
 113.9645800  97.2930320 144.1841670 121.6190290  97.8667660 148.4201140
 122.0753070  98.6772910 148.6461330 121.2678500  97.5490800 149.2519630
 117.5202070  88.2105310 148.8923660 117.3916700  88.2023210 149.8408580
 116.6964090  88.5488400 148.5414670 129.0410700 101.6654970 144.0910030
 128.8148280 100.9485410 144.6834670 128.6506900 101.4167410 143.2531780
 114.8226730 105.6921830 144.8654490 115.1824370 106.2911170 144.2111760
 114.6819070 106.2381720 145.6389520 128.6226950  99.5826910 145.7524190
 128.3348650 100.0439600 146.5402070 129.4179120  99.1224680 146.0208410
 120.8395350 103.0753030 145.6828160 120.8305450 103.8082720 145.0672670
 119.9193710 102.8284610 145.7755120 116.4401990  98.2967920 146.4274920
 115.8329940  99.0366820 146.4370220 116.9151340  98.3867280 145.6013120
 129.3796810  91.4175680 146.9119370 128.7509970  91.5221350 146.1977600
 128.8848730  91.6372460 147.7013250 123.8254950 103.1381270 144.3453350
 123.9266930 102.9345260 143.4155330 122.9256690 102.8839550 144.5501130
 121.3480840  93.6961630 148.3277250 120.6396990  94.1647970 148.7690860
 121.6325320  93.0383640 148.9622440 125.3796270  90.4212290 149.7673040
 125.2564050  90.4398420 148.8182550 126.3280830  90.4691230 149.8871440
 122.4673060 105.6567590 149.0401020 122.7214560 105.6188980 148.1180390
 121.5185540 105.5300920 149.0329270 119.5515860  92.0046710 145.7027960
 120.4006390  92.4416860 145.6368150 119.1847130  92.3166970 146.5300020
 128.4725640  96.5759470 150.6159530 127.5315780  96.5909700 150.7907220
 128.7869710  95.7895430 151.0619830 118.4507280  98.2579070 144.1763490
 119.2170550  98.1460430 144.7388920 118.5281970  97.5617040 143.5240260
 117.1454040  95.6904140 144.8596380 117.2257630  94.7431650 144.9713780
 118.0373790  96.0211020 144.9657040 130.4751220 103.7468320 152.2913790
 130.5998640 104.5699490 152.7637600 131.3416780 103.5359050 151.9437940
 117.9468750 105.8399530 151.9630920 118.6831230 105.2914990 152.2339490
 118.3309670 106.7055540 151.8236910 114.8314230 101.9073100 147.8372430
 113.9054010 102.1494240 147.8277840 115.2970660 102.7347360 147.7157180
 121.0571060 105.0129840 143.7856490 121.8499670 105.3018670 143.3338280
 120.5375410 104.5822010 143.1068970 130.1101230 104.2399970 145.2093230
 129.8242740 103.8265110 144.3947410 129.9120780 105.1687680 145.0893750
 121.5748460 100.2333250 143.6498840 121.4699100  99.6185600 144.3760220
 121.4072680  99.7099140 142.8661850 124.8151190  99.2953280 144.2540830
 124.2661290  99.7422580 144.8983570 125.4370450  98.7902530 144.7778500
 120.4826310  98.2544200 146.1506130 120.9042730  98.0884070 146.9937520
 120.6077150  97.4444430 145.6561270 122.9953950  97.2781810 143.3983230
 123.5159610  96.5630830 143.0324380 123.6422350  97.9167680 143.6983740
 119.3785210  94.3277430 143.0964290 119.1774270  93.4644790 143.4577630
 119.2077260  94.2410790 142.1585890 126.8573520  89.1385660 145.6251170
 127.1375810  88.2953560 145.9810590 126.0839250  89.3708770 146.1389920
 118.1768010  91.4278050 143.0842170 118.4793910  91.4345480 142.1761320
 118.9162600  91.0775910 143.5809830 121.3952940  90.3712670 144.0698370
 121.0474940  89.6936660 143.4900820 121.5965710  89.9102180 144.8841760
 123.5601980 105.3593420 145.6884970 124.4552770 105.6978390 145.7103730
 123.5919610 104.6372830 145.0609250 117.1998140 100.7320470 143.9171970
 117.6373010 101.2750140 144.5729550 117.6845870  99.9067420 143.9268310
 114.4143940 103.5209500 151.3692230 114.7446950 102.6530560 151.1370870
 114.8434940 103.7268020 152.1997190 119.0105860 101.8518510 149.0294200
 118.7101400 101.7283480 149.9298110 118.9043350 100.9927100 148.6209930
 131.7797780 101.6314910 143.7320880 130.9490740 101.6991560 144.2028110
 131.9569610 102.5219030 143.4287740 131.2354240  98.3762390 146.2355080
 131.9973150  98.9459040 146.3414770 131.2508610  97.8089590 147.0063390
 114.7358580  96.9000320 150.4662740 114.0807420  96.6311960 149.8222440
 115.5736530  96.7904800 150.0164720 132.2414210  99.2312490 151.0797010
 132.6123040  98.4479810 150.6732980 132.8816140  99.9201590 150.9014310
 131.2873410  98.6696760 143.3927600 131.5622250  99.5775640 143.2646820
 131.0984150  98.6059290 144.3289590 127.6849020  91.6941610 144.6881230
 128.1033900  91.5072590 143.8477890 127.3785080  90.8420660 144.9984160
 131.1838750  96.6065750 148.3857030 130.8082350  95.8393680 147.9538320
 130.4541870  96.9888450 148.8731960 113.9496660  94.1099250 146.4088070
 113.0460740  94.3729450 146.2339730 114.4337280  94.3810420 145.6288030
 130.4589710  94.8323240 151.6864270 130.9827190  94.3385890 151.0554440
 131.0449130  94.9673600 152.4311840 116.4923870  93.1664790 144.3182450
 117.2015570  92.7448010 143.8329730 115.7763810  93.2340020 143.6865800
 116.1398030  89.2204120 143.3585100 116.8626160  89.7613060 143.6766320
 116.4122550  88.9467540 142.4826640 129.9489680  94.0896590 147.6256680
 130.4448800  93.8567460 148.4105560 129.7505750  93.2508430 147.2094320
 131.3776840  92.7257540 150.1594360 131.2676120  92.5713580 151.0976630
 132.1384430  92.1978480 149.9169770 132.2667110  90.5565460 143.4000500
 133.1916420  90.4246640 143.1918790 132.2442900  90.6358280 144.3536950
 132.3405600  91.3276120 146.0257210 131.5457100  91.2621240 146.5550120
 132.5448880  92.2626760 146.0142560 129.2824020 105.3667670 150.0195600
 129.8783090 105.0452240 149.3430020 129.5402170 104.8939490 150.8108870
 128.7725530  89.6573000 152.4756040 129.2133620  89.6018100 151.6277640
 128.5033120  90.5731010 152.5466220 130.6364100  89.2888240 150.4864860
 130.5752500  88.3449460 150.3395880 131.4156130  89.3968330 151.0318320
 114.9416850 105.4280600 149.4488810 114.7738890 104.7951280 150.1470700
 114.0751360 105.6340000 149.0983000 115.5644870  89.2597380 146.9520670
 116.3224230  89.3726260 146.3784700 115.1022040  90.0966580 146.9064100
 122.1058680  91.3736650 149.9422980 121.2933190  90.9993540 149.6018860
 122.6100320  90.6181730 150.2444170 126.6083660  88.0379100 151.1806050
 127.2113030  88.6099310 151.6554570 125.8676650  88.6018540 150.9579950
 129.7518260  88.4400660 146.4546330 129.9468890  89.3384110 146.7213760
 128.9648130  88.2087740 146.9479280 116.5479550 104.1213830 146.8938950
 116.0227170 104.5021860 146.1900910 116.4724130 104.7464600 147.6148660
 117.9370020  89.7861430 145.4922640 118.4662780  88.9991230 145.3630590
 118.5698340  90.4652620 145.7258170 120.1307860  89.5236570 148.5468030
 119.5010600  88.8223880 148.7138160 119.5913000  90.2840700 148.3301190
 131.3044870 105.6801370 148.2152890 131.4797060 104.9939110 147.5713810
 130.6066440 106.2048420 147.8229560 119.1472520 106.0696210 145.7688200
 119.8791340 105.7855490 145.2212090 119.4066190 105.8309490 146.6587580
 118.3087310 102.1860940 145.7734530 117.6796190 102.6546040 146.3220360
 118.4235140 101.3410160 146.2080720 125.7637030  96.2366600 131.9235730
 125.6831080  95.3221210 131.6527440 125.3501450  96.7333670 131.2175440
 123.8955070  98.0145620 133.8045000 123.1197170  97.5346060 134.0943570
 124.5468000  97.3351270 133.6301160 117.9120900  98.3265430 134.6820760
 117.0805780  98.0714140 135.0817270 118.5201880  98.3976200 135.4178680
 127.9162500 102.4205810 132.5844130 127.4544030 101.6493050 132.9131300
 128.7288050 102.4471880 133.0896580 117.8922160 102.3605520 134.8778780
 118.1950200 101.4703260 134.6989000 118.6365750 102.9175740 134.6501030
 116.3212850  93.2867320 128.4663150 115.4329550  93.6283290 128.3643030
 116.6054040  93.0867640 127.5743980 114.2845860  95.8872970 134.3502850
 114.8561970  95.1195170 134.3506490 114.2847400  96.1861730 133.4409460
 124.1425810 104.7063820 132.2048120 123.5237250 105.1621320 131.6342560
 124.9977590 104.8615280 131.8037820 123.3364060 100.6902810 133.8115160
 123.2672340  99.7492750 133.6504290 124.0983920 100.7804220 134.3837730
 115.5270730  91.2957330 136.1371780 115.3473570  90.3983080 136.4174540
 115.1250810  91.8429200 136.8118730 124.3669230  93.4973190 134.0384090
 124.7434050  92.6245070 133.9257760 124.2688740  93.8331890 133.1474530
 118.4974240  91.8698820 129.5001530 118.6040990  92.7702550 129.8070290
 117.5866600  91.8216790 129.2096180 128.1493350  90.9923630 130.9712430
 128.9702970  90.5020200 131.0137910 128.1827430  91.5821290 131.7244270
 116.1457400  93.7917830 134.7454120 116.8267510  94.0556200 135.3641520
 115.8305450  92.9518700 135.0792130 120.3381970  94.8385190 133.8326710
 120.8460190  95.3366160 134.4731730 120.8695210  94.0620390 133.6566070
 132.4392900  93.0090380 137.5356060 131.7345070  93.3972090 137.0171170
 132.7050820  93.7040670 138.1376990 118.6218070  89.4783750 138.0990130
 118.6236510  89.9956140 137.2936030 117.7922380  89.0013930 138.0760060
 125.0089160  99.5903060 129.5980030 124.3906430 100.0552510 129.0342750
 125.5212410 100.2830540 130.0149540 119.8720920  99.1178930 136.2763630
 119.5390300  99.7447850 136.9184700 120.0487600  99.6440810 135.4965300
 128.3854830  92.9324010 133.7439970 127.6810400  93.2208900 134.3243080
 128.7466990  93.7424120 133.3839530 118.3033400  91.1893710 136.1060580
 118.6450210  92.0335760 135.8114450 117.3649210  91.3377450 136.2225920
 119.0840020 101.0859730 138.0912810 119.7014020 101.7610810 137.8097260
 118.2233140 101.4947710 138.0000310 114.3772360 100.2759590 126.9719660
 114.0000340 100.7646690 126.2404560 114.6345430 100.9484870 127.6026190
 130.0017610 102.5499140 136.0067450 129.3181130 103.2198250 135.9984120
 130.5411900 102.7479790 135.2412310 131.4541750  92.3778800 134.1349180
 130.5066660  92.4117780 134.2664610 131.7791740  93.1917750 134.5198540
 121.9861290  88.6775980 132.4305170 122.2936270  88.1222870 131.7140670
 121.0561990  88.8120440 132.2478160 127.5376350 104.3943270 134.7212630
 127.5503510 103.9905560 133.8534890 126.9851570 105.1690560 134.6174060
 128.8321770 101.1159490 129.8102800 128.7218100 100.1733820 129.9352220
 128.8290020 101.4775130 130.6965560 126.9361790  99.2973110 136.0495240
 127.3530580  99.0833220 135.2148700 127.6601610  99.5545900 136.6203860
 124.3742050  96.7424810 129.1665290 123.4471330  96.6762190 129.3953760
 124.5266870  97.6804940 129.0520530 124.3611130  93.0141810 126.1632450
 123.4214800  93.1755770 126.2484910 124.6794390  93.7327490 125.6168440
 130.8823890  97.6960330 136.1411480 130.0542520  97.7653420 135.6661610
 131.4774370  98.2814640 135.6727310 128.4039340  98.3045110 129.6700540
 127.7851760  97.9664660 129.0226840 128.3863790  97.6604870 130.3779730
 127.8465900  94.4829650 137.0866350 127.4337080  95.3083360 137.3406340
 127.1141850  93.8974690 136.8942710 119.9798690  97.2689550 131.9485020
 119.5755690  96.5566800 131.4530920 120.0661810  96.9242790 132.8373060
 120.4480390 100.9557110 134.1124230 120.1508680 100.3502580 133.4332010
 121.3980210 100.9934420 134.0013590 118.6927310  94.0432760 135.7284060
 119.2441900  94.1528100 134.9537310 119.2070820  94.4170360 136.4439290
 128.5366000 104.5288980 137.7747330 128.0596560 105.3361170 137.5819940
 127.8527790 103.8767310 137.9273540 119.5398820 100.6938800 140.7632030
 118.6427350 100.9178770 141.0105430 119.5651690 100.8173740 139.8143430
 126.5804040  97.5431920 126.6773290 127.0197320  96.7054350 126.5311110
 127.2932460  98.1761320 126.7637430 118.3670040  97.5652120 139.3389400
 118.2277810  98.4374920 139.7076800 117.4851400  97.2224930 139.1937340
 124.6899420 102.4827990 130.6454530 125.1295330 103.2252320 130.2309920
 124.6286310 102.7254560 131.5693490 120.1650390 103.5073820 141.5474550
 120.1365820 103.9116770 140.6802980 120.0015360 102.5784180 141.3846150
 130.1621180  88.7974730 124.9914330 129.8493840  88.8901560 125.8913400
 130.9233650  89.3755760 124.9411760 116.6803320  96.1634530 129.4491670
 116.5600920  96.8896620 128.8372940 116.3704210  95.3937440 128.9719580
 132.1165210 104.2900920 142.8438720 132.5924930 104.7683810 143.5227800
 132.7372370 104.2218410 142.1184220 114.3188690  99.3349670 135.2560310
 114.3969110  99.4698440 134.3116030 114.9330370  98.6265560 135.4488430
 115.5636320 101.0349860 131.6666490 115.1564400 101.1764450 130.8120090
 116.4549330 100.7510020 131.4637700 131.5198460 101.4813770 140.0038730
 131.6461520 101.2425650 139.0855910 131.5619840 100.6498310 140.4760810
 125.3815200 105.1841770 138.5733540 125.8959870 105.0949780 139.3755970
 124.5384280 105.5301470 138.8661450 127.3569600 105.4697110 128.0017540
 127.1970740 105.1800050 128.8999370 127.1916310 104.6937240 127.4662770
 119.8357980 105.2495640 129.7789160 119.6600460 104.3331180 129.5656960
 118.9813720 105.6082930 130.0186960 127.0595730 102.9784670 126.5615540
 126.3660890 102.9761960 125.9017820 127.8018590 102.5543990 126.1309710
 126.6245660 104.6047380 130.6364030 127.0802610 103.8236760 130.9502650
 126.9638180 105.3154200 131.1805210 131.3722470  93.5346230 140.9688470
 130.7566740  94.0425900 140.4403930 131.0518890  92.6344560 140.9114410
 114.3748210 100.3763840 137.7954770 114.5379250  99.9069200 136.9774140
 114.8400660  99.8687400 138.4603610 119.1466980  89.5069600 132.8315340
 118.7035130  90.2879140 132.4999860 119.7051970  89.8299490 133.5386280
 123.4336790  92.3738120 138.4350660 122.9716160  92.5821140 139.2470600
 123.0314900  91.5597470 138.1321330 128.4341300  93.5947070 139.5647320
 127.5834890  93.2952820 139.8856390 128.2743090  93.8389080 138.6531140
 125.5291010  95.0948820 141.6646110 125.8544420  94.2612570 141.3248340
 126.3171340  95.6177340 141.8124440 122.2625800  89.1280300 127.7121170
 121.6379980  89.1240170 128.4374480 122.1755920  88.2611260 127.3157140
 121.1842880  90.0516930 134.6904940 121.4815210  90.9579760 134.6096960
 121.7328440  89.5635710 134.0764510 118.9381200  94.6303170 130.5596590
 118.7122120  94.4140340 131.4643210 118.1573730  95.0631630 130.2142560
 126.1678960  94.6366540 129.1587240 125.5687850  95.3602340 128.9750860
 126.7158570  94.5743320 128.3763690 121.3780410  95.5288750 141.2256860
 121.2824010  94.5883480 141.0757260 122.2212390  95.7503820 140.8304930
 124.7743830  93.2730080 131.1890520 125.1673400  93.5902280 130.3759210
 125.1360680  92.3941960 131.3035040 116.5090950  91.9402420 139.3790640
 116.1154340  92.7877630 139.5863420 115.8209350  91.3028790 139.5699280
 123.0836000  92.0237390 142.4487380 122.3934320  91.8309590 143.0833470
 123.8268300  92.3072030 142.9811680 113.8108000  89.8630880 133.4120720
 113.5221050  90.4333740 134.1245700 114.5553760  89.3835330 133.7751950
 113.9978230  93.8051000 124.6223440 113.9152900  94.7481760 124.7638430
 113.6461290  93.6625910 123.7435790 125.3598970  95.8635830 135.2841300
 124.6280090  96.3722640 135.6331400 124.9623310  95.0465810 134.9830080
 121.7976360  92.5390030 133.6893790 121.8012420  92.0979980 132.8398330
 122.6927480  92.8607360 133.7965610 117.6478740  92.4216520 132.6488000
 117.3078790  92.8991750 133.4055050 116.8856060  91.9681640 132.2889100
 121.8596510  93.5402110 126.6800550 121.9809330  93.4988590 127.6286370
 121.4745020  94.4026260 126.5247280 125.8224880  91.3169510 134.6964240
 125.8397620  91.7678160 135.5406090 125.5740460  90.4175150 134.9097680
 120.8718010  95.8503250 126.0783850 120.3034910  95.4021500 125.4519760
 121.5807010  96.2096030 125.5449000 129.2495630  88.7301690 140.5350620
 129.5741400  87.9991350 141.0608600 129.2852140  88.4115330 139.6331610
 115.9487190  99.7515270 139.9550580 115.5641980  99.1108940 140.5533540
 116.2599380 100.4551390 140.5245310 122.0984330  96.5991810 135.4359200
 122.4654460  96.1250380 136.1820540 121.9089390  97.4733380 135.7767540
 114.9624820  91.3435500 131.5652670 114.6771740  90.9791170 132.4031290
 114.9003680  90.6115960 130.9515810 119.8883700  95.6400450 137.7543410
 119.5840770  96.5192430 137.9793770 120.8430160  95.7000240 137.7900850
 118.4165490  99.8461440 128.3510260 117.6427750  99.3059060 128.1908980
 119.1460120  99.3268050 128.0128020 129.1753470  98.8426800 134.1436650
 129.8952590  99.3382090 133.7532760 128.9735290  98.1644690 133.4990520
 124.6363410  90.2364760 128.2866040 123.8228020  89.7377930 128.2111350
 124.4425360  91.0763010 127.8702390 124.5572270  98.9135860 140.0305650
 124.4909580  97.9931530 139.7763240 123.9277410  99.0111300 140.7450290
 127.3511800  94.6084410 126.5828200 128.2391420  94.9201640 126.4079540
 127.3216890  93.7356660 126.1908780 118.4602890  99.5141820 131.9889070
 118.9781560  98.7110080 131.9345960 118.0086910  99.4520960 132.8305900
 123.3472390 100.7808100 127.2616370 123.6888090 101.5250330 126.7659690
 122.5185100 101.0939220 127.6241200 115.9447430  96.4803190 138.9014770
 115.5862370  97.1457040 139.4888110 115.6501990  95.6486740 139.2727390
 119.1460550  96.9387430 141.7854320 118.8460690  97.0844610 140.8882140
 119.9171790  96.3792720 141.6927710 124.4889000 101.7356430 139.7809450
 124.5033540 100.8037390 139.5628360 123.7814100 101.8216190 140.4199220
 129.6226070  95.9196250 126.0508060 129.5389790  96.3510470 125.2004500
 130.3420260  96.3794600 126.4834880 130.7000210  98.3763770 139.1278030
 129.9748400  98.9692550 138.9307420 131.2275670  98.3687310 138.3291400
 130.6513320 102.7738510 128.7790190 130.0089480 102.1194130 129.0533910
 130.2643980 103.1793600 128.0030860 126.2299800 100.1023940 132.6261880
 126.5823620  99.5052070 131.9663250 125.3462130  99.7768170 132.7970130
 122.3163080 100.8621630 130.0332290 123.0034210 101.4090840 130.4139880
 121.5295500 101.4062360 130.0681900 114.4555480  96.4794450 125.5249370
 115.3250330  96.7619250 125.8085290 113.9645800  97.2930320 125.4098180
 121.6190290  97.8667660 129.6457650 122.0753070  98.6772910 129.8717840
 121.2678500  97.5490800 130.4776140 123.9222900 103.3774000 136.8749950
 124.5665120 103.5833380 137.5523370 124.2852340 102.6162400 136.4220800
 117.5202070  88.2105310 130.1180170 117.3916700  88.2023210 131.0665090
 116.6964090  88.5488400 129.7671180 125.1954980 101.3806350 135.5927400
 125.8377210 100.6799510 135.7059570 125.7204330 102.1604790 135.4124290
 129.0410700 101.6654970 125.3166540 128.8148280 100.9485410 125.9091180
 128.6506900 101.4167410 124.4788290 126.9692600 102.1801250 138.7963460
 127.3048840 102.7667940 139.4741380 126.0492940 102.0493960 139.0261250
 114.8226730 105.6921830 126.0911000 115.1824370 106.2911170 125.4368270
 114.6819070 106.2381720 126.8646030 114.5196000  89.9696430 139.5786870
 113.8054520  90.1693350 140.1839480 114.9391040  89.1936000 139.9501670
 128.6226950  99.5826910 126.9780700 128.3348650 100.0439600 127.7658580
 129.4179120  99.1224680 127.2464920 114.8068590 103.9576690 140.5653400
 114.9159710 103.0171430 140.4248790 114.1549150 104.2231440 139.9167130
 122.7981180 102.2292580 141.9651520 122.4778050 101.5101820 142.5097210
 122.1239540 102.9047650 142.0387580 120.8395350 103.0753030 126.9084670
 120.8305450 103.8082720 126.2929180 119.9193710 102.8284610 127.0011630
 116.4401990  98.2967920 127.6531430 115.8329940  99.0366820 127.6626730
 116.9151340  98.3867280 126.8269630 126.0134780  92.4618740 137.3288320
 126.3815600  91.6413950 137.6567890 125.1532980  92.5220630 137.7443970
 129.3796810  91.4175680 128.1375880 128.7509970  91.5221350 127.4234110
 128.8848730  91.6372460 128.9269760 123.8254950 103.1381270 125.5709860
 123.9266930 102.9345260 124.6411840 122.9256690 102.8839550 125.7757640
 121.3480840  93.6961630 129.5533760 120.6396990  94.1647970 129.9947370
 121.6325320  93.0383640 130.1878950 122.9736770  95.1158330 137.5526290
 123.4722020  95.5904150 138.2178140 123.1159720  94.1921850 137.7596320
 125.3796270  90.4212290 130.9929550 125.2564050  90.4398420 130.0439060
 126.3280830  90.4691230 131.1127950 122.4673060 105.6567590 130.2657530
 122.7214560 105.6188980 129.3436900 121.5185540 105.5300920 130.2585780
 119.5515860  92.0046710 126.9284470 120.4006390  92.4416860 126.8624660
 119.1847130  92.3166970 127.7556530 130.1803630  91.3326290 138.3954680
 129.6777230  92.0731690 138.7348490 130.9960290  91.7210290 138.0791470
 128.4725640  96.5759470 131.8416040 127.5315780  96.5909700 132.0163730
 128.7869710  95.7895430 132.2876340 118.4507280  98.2579070 125.4020000
 119.2170550  98.1460430 125.9645430 118.5281970  97.5617040 124.7496770
 117.1454040  95.6904140 126.0852890 117.2257630  94.7431650 126.1970290
 118.0373790  96.0211020 126.1913550 130.4751220 103.7468320 133.5170300
 130.5998640 104.5699490 133.9894110 131.3416780 103.5359050 133.1694450
 117.9468750 105.8399530 133.1887430 118.6831230 105.2914990 133.4596000
 118.3309670 106.7055540 133.0493420 114.8314230 101.9073100 129.0628940
 113.9054010 102.1494240 129.0534350 115.2970660 102.7347360 128.9413690
 116.9527030 105.0245600 142.3773010 117.7539760 105.3457650 142.7908410
 116.4378850 104.6641180 143.0992920 121.0571060 105.0129840 125.0113000
 121.8499670 105.3018670 124.5594790 120.5375410 104.5822010 124.3325480
 125.7891660 101.1325470 142.3248420 125.1829820 101.1557070 141.5844170
 125.4845770 100.4008510 142.8615670 127.2192030 104.8605760 140.9357830
 128.1713780 104.7763780 140.8858070 127.0720250 105.5247470 141.6091620
 130.1101230 104.2399970 126.4349740 129.8242740 103.8265110 125.6203920
 129.9120780 105.1687680 126.3150260 114.6724840  97.5119060 141.3209060
 115.1763860  96.9326340 141.8925290 113.9332260  97.7959290 141.8585430
 121.5748460 100.2333250 124.8755350 121.4699100  99.6185600 125.6016730
 121.4072680  99.7099140 124.0918360 121.7262780  98.9190050 140.8544580
 120.9608450  99.4875050 140.7699250 121.9078740  98.6266260 139.9612810
 124.8151190  99.2953280 125.4797340 124.2661290  99.7422580 126.1240080
 125.4370450  98.7902530 126.0035010 128.8686130 100.6495380 141.4119600
 129.6095600 100.9871140 140.9087060 128.1058810 100.8187440 140.8589370
 116.7047920  95.6548650 142.2159130 116.7453260  95.3562520 143.1244360
 117.5593420  96.0556260 142.0566650 120.4826310  98.2544200 127.3762640
 120.9042730  98.0884070 128.2194030 120.6077150  97.4444430 126.8817780
 118.6453730  94.2340750 140.1833620 118.1150190  93.7431700 139.5556960
 119.3141800  94.6624950 139.6491550 122.9953950  97.2781810 124.6239740
 123.5159610  96.5630830 124.2580890 123.6422350  97.9167680 124.9240250
 127.5431790  98.7010210 139.9474810 127.9572810  98.8555290 140.7965230
 126.6082790  98.8265430 140.1100590 128.0153960  96.0406370 141.9513960
 128.5974730  95.2858690 141.8634440 128.1915730  96.5713810 141.1745440
 119.1326030  91.2003120 140.2630910 119.0382900  90.5823870 139.5381780
 118.5523420  91.9269410 140.0360820 121.8987470  89.7576360 137.2958300
 121.4504770  89.7800620 136.4503850 121.2652670  89.3595380 137.8928600
 122.3047020  98.6530690 137.9170740 122.7235130  99.4963420 137.7446980
 121.3855650  98.7902730 137.6877520 124.6410920  96.3846870 139.3008580
 124.7607130  95.7888010 140.0403420 125.5004920  96.4216560 138.8809880
 126.9798820  96.9384060 137.8771090 126.4534040  97.4626680 137.2736230
 127.3230160  97.5711450 138.5080820 119.3785210  94.3277430 124.3220800
 119.1774270  93.4644790 124.6834140 119.2077260  94.2410790 123.3842400
 120.1554440 104.9583700 139.0328470 119.6175530 105.6829760 138.7137170
 120.4088400 104.4814040 138.2425810 121.4079690  92.9268220 140.5584400
 121.9979380  92.6184070 141.2462220 120.5899930  92.4547970 140.7144300
 126.2273120  92.5434030 140.7917420 125.5388640  91.8815570 140.7267410
 126.9479140  92.0972300 141.2365880 126.8573520  89.1385660 126.8507680
 127.1375810  88.2953560 127.2067100 126.0839250  89.3708770 127.3646430
 118.1768010  91.4278050 124.3098680 118.4793910  91.4345480 123.4017830
 118.9162600  91.0775910 124.8066340 123.0116650 106.1934910 139.2915120
 122.9375350 107.0970050 139.5987490 122.1095490 105.8746810 139.2637190
 121.3952940  90.3712670 125.2954880 121.0474940  89.6936660 124.7157330
 121.5965710  89.9102180 126.1098270 123.5601980 105.3593420 126.9141480
 124.4552770 105.6978390 126.9360240 123.5919610 104.6372830 126.2865760
 117.1998140 100.7320470 125.1428480 117.6373010 101.2750140 125.7986060
 117.6845870  99.9067420 125.1524820 114.4143940 103.5209500 132.5948740
 114.7446950 102.6530560 132.3627380 114.8434940 103.7268020 133.4253700
 119.0105860 101.8518510 130.2550710 118.7101400 101.7283480 131.1554620
 118.9043350 100.9927100 129.8466440 114.9034150 104.3880090 135.3330370
 114.4665140 104.5680890 136.1654520 115.4711830 105.1454710 135.1912090
 130.5396330 103.8897090 139.6207680 129.9398320 103.9489650 138.8771600
 130.6690230 102.9502070 139.7504530 131.7797780 101.6314910 124.9577390
 130.9490740 101.6991560 125.4284620 131.9569610 102.5219030 124.6544250
 131.2354240  98.3762390 127.4611590 131.9973150  98.9459040 127.5671280
 131.2508610  97.8089590 128.2319900 114.7358580  96.9000320 131.6919250
 114.0807420  96.6311960 131.0478950 115.5736530  96.7904800 131.2421230
 132.2414210  99.2312490 132.3053520 132.6123040  98.4479810 131.8989490
 132.8816140  99.9201590 132.1270820 129.2247970 100.6149070 137.7183840
 128.4107810 101.0446230 137.9809630 129.6322170 101.2267480 137.1052890
 131.2873410  98.6696760 124.6184110 131.5622250  99.5775640 124.4903330
 131.0984150  98.6059290 125.5546100 127.6849020  91.6941610 125.9137740
 128.1033900  91.5072590 125.0734400 127.3785080  90.8420660 126.2240670
 131.1838750  96.6065750 129.6113540 130.8082350  95.8393680 129.1794830
 130.4541870  96.9888450 130.0988470 115.7734510  97.2852890 136.2322590
 116.1407550  97.1980290 137.1118610 115.2045330  96.5219440 136.1329450
 130.5738370  95.7537270 139.2453060 130.3424460  95.5250020 138.3451010
 130.8342920  96.6736820 139.1997950 115.3250510  94.1961980 140.1381010
 114.4306560  94.1628740 140.4774720 115.8648060  94.3948770 140.9032260
 129.0126440  90.9793700 142.0232760 129.8896620  90.9877100 142.4066760
 129.0247280  90.2424540 141.4125110 113.9496660  94.1099250 127.6344580
 113.0460740  94.3729450 127.4596240 114.4337280  94.3810420 126.8544540
 130.4589710  94.8323240 132.9120780 130.9827190  94.3385890 132.2810950
 131.0449130  94.9673600 133.6568350 130.6379430  94.9163110 136.4340330
 129.6882140  94.8826650 136.5485320 130.8192440  95.8263220 136.1990100
 116.4923870  93.1664790 125.5438960 117.2015570  92.7448010 125.0586240
 115.7763810  93.2340020 124.9122310 116.1398030  89.2204120 124.5841610
 116.8626160  89.7613060 124.9022830 116.4122550  88.9467540 123.7083150
 129.9489680  94.0896590 128.8513190 130.4448800  93.8567460 129.6362070
 129.7505750  93.2508430 128.4350830 115.8290220  88.4710310 134.4864230
 116.4766410  87.9207690 134.0459390 116.2492060  88.7253460 135.3080040
 131.3776840  92.7257540 131.3850870 131.2676120  92.5713580 132.3233140
 132.1384430  92.1978480 131.1426280 129.7242560  88.6651670 137.8433870
 130.3614780  89.2785810 138.2093060 129.8717450  88.7012330 136.8983100
 132.2667110  90.5565460 124.6257010 133.1916420  90.4246640 124.4175300
 132.2442900  90.6358280 125.5793460 132.3405600  91.3276120 127.2513720
 131.5457100  91.2621240 127.7806630 132.5448880  92.2626760 127.2399070
 129.2824020 105.3667670 131.2452110 129.8783090 105.0452240 130.5686530
 129.5402170 104.8939490 132.0365380 115.5822220  88.6265980 137.2289550
 115.2337040  89.0829800 137.9947730 115.2509920  87.7323110 137.3111980
 117.1886590 101.7985580 141.3942740 117.1456220 101.4278490 142.2757200
 117.3197600 102.7363150 141.5344560 120.8892620 103.3545170 136.9952460
 120.6483980 103.6219730 136.1082980 121.8295260 103.5250900 137.0503320
 123.0947040  89.8177860 140.7508970 123.0335930  90.4099690 141.5004380
 124.0347420  89.7103820 140.6059230 125.7321600  89.4747920 140.3901260
 126.3462010  89.7927210 139.7282340 126.2771160  88.9896510 141.0097120
 132.1496780 105.3739550 137.7963100 131.6555060 105.7708420 137.0790230
 131.5410070 104.7488760 138.1900380 116.2542860  88.1542180 140.5040320
 116.8025850  87.9730230 139.7406430 116.3198170  87.3636290 141.0396630
 117.0274620 104.7447830 138.5140520 116.4334940 104.6132530 139.2530560
 117.0198460 103.9085970 138.0482620 126.4729640  88.0380060 136.7170550
 125.5989480  88.3715170 136.5143480 126.3640390  87.5653240 137.5422420
 127.3801620  90.2450930 138.1012270 127.0514980  89.4302690 137.7214000
 128.3283920  90.2020740 137.9777960 129.8336230 106.0162970 135.0749840
 129.3739200 106.7678780 134.7007860 129.2048690 105.2969440 135.0164640
 116.6586850 102.1106210 137.4648560 115.9320910 101.4911500 137.3974510
 116.7196000 102.5046820 136.5946640 120.2631950 104.3251210 134.2497970
 120.7796970 103.7138570 133.7246230 120.9129330 104.8279990 134.7408980
 123.0027450 105.2159700 135.0766950 123.2905260 104.9614000 134.1999960
 123.5150670 104.6637060 135.6672520 124.2204460  88.9549900 135.6563460
 123.4376250  89.4295400 135.9360220 123.9267390  88.0504730 135.5476640
 128.7725530  89.6573000 133.7012550 129.2133620  89.6018100 132.8534150
 128.5033120  90.5731010 133.7722730 130.6364100  89.2888240 131.7121370
 130.5752500  88.3449460 131.5652390 131.4156130  89.3968330 132.2574830
 114.9416850 105.4280600 130.6745320 114.7738890 104.7951280 131.3727210
 114.0751360 105.6340000 130.3239510 115.5644870  89.2597380 128.1777180
 116.3224230  89.3726260 127.6041210 115.1022040  90.0966580 128.1320610
 122.1058680  91.3736650 131.1679490 121.2933190  90.9993540 130.8275370
 122.6100320  90.6181730 131.4700680 126.6083660  88.0379100 132.4062560
 127.2113030  88.6099310 132.8811080 125.8676650  88.6018540 132.1836460
 129.7518260  88.4400660 127.6802840 129.9468890  89.3384110 127.9470270
 128.9648130  88.2087740 128.1735790 116.5479550 104.1213830 128.1195460
 116.0227170 104.5021860 127.4157420 116.4724130 104.7464600 128.8405170
 117.9370020  89.7861430 126.7179150 118.4662780  88.9991230 126.5887100
 118.5698340  90.4652620 126.9514680 120.1307860  89.5236570 129.7724540
 119.5010600  88.8223880 129.9394670 119.5913000  90.2840700 129.5557700
 123.0699810 106.1375800 142.4435150 123.9967120 105.9020070 142.4871110
 123.0550240 106.9647800 141.9621180 131.3044870 105.6801370 129.4409400
 131.4797060 104.9939110 128.7970320 130.6066440 106.2048420 129.0486070
 120.2563420  88.8020550 142.2077030 119.9747690  89.3054150 141.4437850
 120.6383120  88.0042300 141.8419160 119.1472520 106.0696210 126.9944710
 119.8791340 105.7855490 126.4468600 119.4066190 105.8309490 127.8844090
 118.3087310 102.1860940 126.9991040 117.6796190 102.6546040 127.5476870
 118.4235140 101.3410160 127.4337230 126.8578880  88.2174130 142.7857500
 126.7444330  88.5368740 143.6809020 127.6748620  88.6186640 142.4894780
 129.6377370 105.3645660 142.2676190 130.4302690 104.8694890 142.0602150
 129.9310520 106.0435800 142.8751800 125.7637030  96.2366600 113.1492240
 125.6831080  95.3221210 112.8783950 125.3501450  96.7333670 112.4431950
 123.8955070  98.0145620 115.0301510 123.1197170  97.5346060 115.3200080
 124.5468000  97.3351270 114.8557670 127.9162500 102.4205810 113.8100640
 127.4544030 101.6493050 114.1387810 128.7288050 102.4471880 114.3153090
 115.5270730  91.2957330 117.3628290 115.3473570  90.3983080 117.6431050
 115.1250810  91.8429200 118.0375240 124.3669230  93.4973190 115.2640600
 124.7434050  92.6245070 115.1514270 124.2688740  93.8331890 114.3731040
 118.4974240  91.8698820 110.7258040 118.6040990  92.7702550 111.0326800
 117.5866600  91.8216790 110.4352690 128.1493350  90.9923630 112.1968940
 128.9702970  90.5020200 112.2394420 128.1827430  91.5821290 112.9500780
 120.3381970  94.8385190 115.0583220 120.8460190  95.3366160 115.6988240
 120.8695210  94.0620390 114.8822580 132.4392900  93.0090380 118.7612570
 131.7345070  93.3972090 118.2427680 132.7050820  93.7040670 119.3633500
 128.3854830  92.9324010 114.9696480 127.6810400  93.2208900 115.5499590
 128.7466990  93.7424120 114.6096040 118.3033400  91.1893710 117.3317090
 118.6450210  92.0335760 117.0370960 117.3649210  91.3377450 117.4482430
 114.3772360 100.2759590 108.1976170 114.0000340 100.7646690 107.4661070
 114.6345430 100.9484870 108.8282700 130.0017610 102.5499140 117.2323960
 129.3181130 103.2198250 117.2240630 130.5411900 102.7479790 116.4668820
 131.4541750  92.3778800 115.3605690 130.5066660  92.4117780 115.4921120
 131.7791740  93.1917750 115.7455050 121.9861290  88.6775980 113.6561680
 122.2936270  88.1222870 112.9397180 121.0561990  88.8120440 113.4734670
 128.8321770 101.1159490 111.0359310 128.7218100 100.1733820 111.1608730
 128.8290020 101.4775130 111.9222070 126.9361790  99.2973110 117.2751750
 127.3530580  99.0833220 116.4405210 127.6601610  99.5545900 117.8460370
 124.3742050  96.7424810 110.3921800 123.4471330  96.6762190 110.6210270
 124.5266870  97.6804940 110.2777040 130.8823890  97.6960330 117.3667990
 130.0542520  97.7653420 116.8918120 131.4774370  98.2814640 116.8983820
 128.4039340  98.3045110 110.8957050 127.7851760  97.9664660 110.2483350
 128.3863790  97.6604870 111.6036240 127.8465900  94.4829650 118.3122860
 127.4337080  95.3083360 118.5662850 127.1141850  93.8974690 118.1199220
 118.6927310  94.0432760 116.9540570 119.2441900  94.1528100 116.1793820
 119.2070820  94.4170360 117.6695800 128.5366000 104.5288980 119.0003840
 128.0596560 105.3361170 118.8076450 127.8527790 103.8767310 119.1530050
 119.5398820 100.6938800 121.9888540 118.6427350 100.9178770 122.2361940
 119.5651690 100.8173740 121.0399940 120.1650390 103.5073820 122.7731060
 120.1365820 103.9116770 121.9059490 120.0015360 102.5784180 122.6102660
 130.1621180  88.7974730 106.2170840 129.8493840  88.8901560 107.1169910
 130.9233650  89.3755760 106.1668270 132.1165210 104.2900920 124.0695230
 132.5924930 104.7683810 124.7484310 132.7372370 104.2218410 123.3440730
 131.5198460 101.4813770 121.2295240 131.6461520 101.2425650 120.3112420
 131.5619840 100.6498310 121.7017320 125.3815200 105.1841770 119.7990050
 125.8959870 105.0949780 120.6012480 124.5384280 105.5301470 120.0917960
 119.8357980 105.2495640 111.0045670 119.6600460 104.3331180 110.7913470
 118.9813720 105.6082930 111.2443470 131.3722470  93.5346230 122.1944980
 130.7566740  94.0425900 121.6660440 131.0518890  92.6344560 122.1370920
 119.1466980  89.5069600 114.0571850 118.7035130  90.2879140 113.7256370
 119.7051970  89.8299490 114.7642790 128.4341300  93.5947070 120.7903830
 127.5834890  93.2952820 121.1112900 128.2743090  93.8389080 119.8787650
 125.5291010  95.0948820 122.8902620 125.8544420  94.2612570 122.5504850
 126.3171340  95.6177340 123.0380950 122.2625800  89.1280300 108.9377680
 121.6379980  89.1240170 109.6630990 122.1755920  88.2611260 108.5413650
 121.1842880  90.0516930 115.9161450 121.4815210  90.9579760 115.8353470
 121.7328440  89.5635710 115.3021020 118.9381200  94.6303170 111.7853100
 118.7122120  94.4140340 112.6899720 118.1573730  95.0631630 111.4399070
 126.1678960  94.6366540 110.3843750 125.5687850  95.3602340 110.2007370
 126.7158570  94.5743320 109.6020200 121.3780410  95.5288750 122.4513370
 121.2824010  94.5883480 122.3013770 122.2212390  95.7503820 122.0561440
 124.7743830  93.2730080 112.4147030 125.1673400  93.5902280 111.6015720
 125.1360680  92.3941960 112.5291550 116.5090950  91.9402420 120.6047150
 116.1154340  92.7877630 120.8119930 115.8209350  91.3028790 120.7955790
 123.0836000  92.0237390 123.6743890 122.3934320  91.8309590 124.3089980
 123.8268300  92.3072030 124.2068190 125.3598970  95.8635830 116.5097810
 124.6280090  96.3722640 116.8587910 124.9623310  95.0465810 116.2086590
 121.7976360  92.5390030 114.9150300 121.8012420  92.0979980 114.0654840
 122.6927480  92.8607360 115.0222120 117.6478740  92.4216520 113.8744510
 117.3078790  92.8991750 114.6311560 116.8856060  91.9681640 113.5145610
 125.8224880  91.3169510 115.9220750 125.8397620  91.7678160 116.7662600
 125.5740460  90.4175150 116.1354190 129.2495630  88.7301690 121.7607130
 129.5741400  87.9991350 122.2865110 129.2852140  88.4115330 120.8588120
 122.0984330  96.5991810 116.6615710 122.4654460  96.1250380 117.4077050
 121.9089390  97.4733380 117.0024050 114.9624820  91.3435500 112.7909180
 114.6771740  90.9791170 113.6287800 114.9003680  90.6115960 112.1772320
 118.4165490  99.8461440 109.5766770 117.6427750  99.3059060 109.4165490
 119.1460120  99.3268050 109.2384530 129.1753470  98.8426800 115.3693160
 129.8952590  99.3382090 114.9789270 128.9735290  98.1644690 114.7247030
 124.6363410  90.2364760 109.5122550 123.8228020  89.7377930 109.4367860
 124.4425360  91.0763010 109.0958900 124.5572270  98.9135860 121.2562160
 124.4909580  97.9931530 121.0019750 123.9277410  99.0111300 121.9706800
 127.3511800  94.6084410 107.8084710 128.2391420  94.9201640 107.6336050
 127.3216890  93.7356660 107.4165290 115.9447430  96.4803190 120.1271280
 115.5862370  97.1457040 120.7144620 115.6501990  95.6486740 120.4983900
 119.1460550  96.9387430 123.0110830 118.8460690  97.0844610 122.1138650
 119.9171790  96.3792720 122.9184220 124.4889000 101.7356430 121.0065960
 124.5033540 100.8037390 120.7884870 123.7814100 101.8216190 121.6455730
 130.7000210  98.3763770 120.3534540 129.9748400  98.9692550 120.1563930
 131.2275670  98.3687310 119.5547910 130.6513320 102.7738510 110.0046700
 130.0089480 102.1194130 110.2790420 130.2643980 103.1793600 109.2287370
 117.5202070  88.2105310 111.3436680 117.3916700  88.2023210 112.2921600
 116.6964090  88.5488400 110.9927690 129.0410700 101.6654970 106.5423050
 128.8148280 100.9485410 107.1347690 128.6506900 101.4167410 105.7044800
 126.9692600 102.1801250 120.0219970 127.3048840 102.7667940 120.6997890
 126.0492940 102.0493960 120.2517760 122.7981180 102.2292580 123.1908030
 122.4778050 101.5101820 123.7353720 122.1239540 102.9047650 123.2644090
 120.8395350 103.0753030 108.1341180 120.8305450 103.8082720 107.5185690
 119.9193710 102.8284610 108.2268140 116.4401990  98.2967920 108.8787940
 115.8329940  99.0366820 108.8883240 116.9151340  98.3867280 108.0526140
 126.0134780  92.4618740 118.5544830 126.3815600  91.6413950 118.8824400
 125.1532980  92.5220630 118.9700480 129.3796810  91.4175680 109.3632390
 128.7509970  91.5221350 108.6490620 128.8848730  91.6372460 110.1526270
 121.3480840  93.6961630 110.7790270 120.6396990  94.1647970 111.2203880
 121.6325320  93.0383640 111.4135460 122.9736770  95.1158330 118.7782800
 123.4722020  95.5904150 119.4434650 123.1159720  94.1921850 118.9852830
 125.3796270  90.4212290 112.2186060 125.2564050  90.4398420 111.2695570
 126.3280830  90.4691230 112.3384460 122.4673060 105.6567590 111.4914040
 122.7214560 105.6188980 110.5693410 121.5185540 105.5300920 111.4842290
 130.1803630  91.3326290 119.6211190 129.6777230  92.0731690 119.9605000
 130.9960290  91.7210290 119.3047980 128.4725640  96.5759470 113.0672550
 127.5315780  96.5909700 113.2420240 128.7869710  95.7895430 113.5132850
 130.4751220 103.7468320 114.7426810 130.5998640 104.5699490 115.2150620
 131.3416780 103.5359050 114.3950960 117.9468750 105.8399530 114.4143940
 118.6831230 105.2914990 114.6852510 118.3309670 106.7055540 114.2749930
 114.8314230 101.9073100 110.2885450 113.9054010 102.1494240 110.2790860
 115.2970660 102.7347360 110.1670200 121.0571060 105.0129840 106.2369510
 121.8499670 105.3018670 105.7851300 120.5375410 104.5822010 105.5581990
 125.7891660 101.1325470 123.5504930 125.1829820 101.1557070 122.8100680
 125.4845770 100.4008510 124.0872180 127.2192030 104.8605760 122.1614340
 128.1713780 104.7763780 122.1114580 127.0720250 105.5247470 122.8348130
 130.1101230 104.2399970 107.6606250 129.8242740 103.8265110 106.8460430
 129.9120780 105.1687680 107.5406770 114.6724840  97.5119060 122.5465570
 115.1763860  96.9326340 123.1181800 113.9332260  97.7959290 123.0841940
 121.7262780  98.9190050 122.0801090 120.9608450  99.4875050 121.9955760
 121.9078740  98.6266260 121.1869320 128.8686130 100.6495380 122.6376110
 129.6095600 100.9871140 122.1343570 128.1058810 100.8187440 122.0845880
 116.7047920  95.6548650 123.4415640 116.7453260  95.3562520 124.3500870
 117.5593420  96.0556260 123.2823160 120.4826310  98.2544200 108.6019150
 120.9042730  98.0884070 109.4450540 120.6077150  97.4444430 108.1074290
 118.6453730  94.2340750 121.4090130 118.1150190  93.7431700 120.7813470
 119.3141800  94.6624950 120.8748060 127.5431790  98.7010210 121.1731320
 127.9572810  98.8555290 122.0221740 126.6082790  98.8265430 121.3357100
 128.0153960  96.0406370 123.1770470 128.5974730  95.2858690 123.0890950
 128.1915730  96.5713810 122.4001950 122.3047020  98.6530690 119.1427250
 122.7235130  99.4963420 118.9703490 121.3855650  98.7902730 118.9134030
 124.6410920  96.3846870 120.5265090 124.7607130  95.7888010 121.2659930
 125.5004920  96.4216560 120.1066390 126.9798820  96.9384060 119.1027600
 126.4534040  97.4626680 118.4992740 127.3230160  97.5711450 119.7337330
 126.2273120  92.5434030 122.0173930 125.5388640  91.8815570 121.9523920
 126.9479140  92.0972300 122.4622390 126.8573520  89.1385660 108.0764190
 127.1375810  88.2953560 108.4323610 126.0839250  89.3708770 108.5902940
 123.0116650 106.1934910 120.5171630 122.9375350 107.0970050 120.8244000
 122.1095490 105.8746810 120.4893700 117.1998140 100.7320470 106.3684990
 117.6373010 101.2750140 107.0242570 117.6845870  99.9067420 106.3781330
 114.4143940 103.5209500 113.8205250 114.7446950 102.6530560 113.5883890
 114.8434940 103.7268020 114.6510210 119.0105860 101.8518510 111.4807220
 118.7101400 101.7283480 112.3811130 118.9043350 100.9927100 111.0722950
 114.9034150 104.3880090 116.5586880 114.4665140 104.5680890 117.3911030
 115.4711830 105.1454710 116.4168600 130.5396330 103.8897090 120.8464190
 129.9398320 103.9489650 120.1028110 130.6690230 102.9502070 120.9761040
 131.7797780 101.6314910 106.1833900 130.9490740 101.6991560 106.6541130
 131.9569610 102.5219030 105.8800760 132.2414210  99.2312490 113.5310030
 132.6123040  98.4479810 113.1246000 132.8816140  99.9201590 113.3527330
 129.2247970 100.6149070 118.9440350 128.4107810 101.0446230 119.2066140
 129.6322170 101.2267480 118.3309400 127.6849020  91.6941610 107.1394250
 128.1033900  91.5072590 106.2990910 127.3785080  90.8420660 107.4497180
 131.1838750  96.6065750 110.8370050 130.8082350  95.8393680 110.4051340
 130.4541870  96.9888450 111.3244980 130.5738370  95.7537270 120.4709570
 130.3424460  95.5250020 119.5707520 130.8342920  96.6736820 120.4254460
 115.3250510  94.1961980 121.3637520 114.4306560  94.1628740 121.7031230
 115.8648060  94.3948770 122.1288770 129.0126440  90.9793700 123.2489270
 129.8896620  90.9877100 123.6323270 129.0247280  90.2424540 122.6381620
 113.9496660  94.1099250 108.8601090 113.0460740  94.3729450 108.6852750
 114.4337280  94.3810420 108.0801050 130.4589710  94.8323240 114.1377290
 130.9827190  94.3385890 113.5067460 131.0449130  94.9673600 114.8824860
 130.6379430  94.9163110 117.6596840 129.6882140  94.8826650 117.7741830
 130.8192440  95.8263220 117.4246610 129.9489680  94.0896590 110.0769700
 130.4448800  93.8567460 110.8618580 129.7505750  93.2508430 109.6607340
 131.3776840  92.7257540 112.6107380 131.2676120  92.5713580 113.5489650
 132.1384430  92.1978480 112.3682790 129.7242560  88.6651670 119.0690380
 130.3614780  89.2785810 119.4349570 129.8717450  88.7012330 118.1239610
 132.2667110  90.5565460 105.8513520 133.1916420  90.4246640 105.6431810
 132.2442900  90.6358280 106.8049970 132.3405600  91.3276120 108.4770230
 131.5457100  91.2621240 109.0063140 132.5448880  92.2626760 108.4655580
 129.2824020 105.3667670 112.4708620 129.8783090 105.0452240 111.7943040
 129.5402170 104.8939490 113.2621890 125.7321600  89.4747920 121.6157770
 126.3462010  89.7927210 120.9538850 126.2771160  88.9896510 122.2353630
 132.1496780 105.3739550 119.0219610 131.6555060 105.7708420 118.3046740
 131.5410070 104.7488760 119.4156890 127.3801620  90.2450930 119.3268780
 127.0514980  89.4302690 118.9470510 128.3283920  90.2020740 119.2034470
 129.8336230 106.0162970 116.3006350 129.3739200 106.7678780 115.9264370
 129.2048690 105.2969440 116.2421150 128.7725530  89.6573000 114.9269060
 129.2133620  89.6018100 114.0790660 128.5033120  90.5731010 114.9979240
 130.6364100  89.2888240 112.9377880 130.5752500  88.3449460 112.7908900
 131.4156130  89.3968330 113.4831340 114.9416850 105.4280600 111.9001830
 114.7738890 104.7951280 112.5983720 114.0751360 105.6340000 111.5496020
 122.1058680  91.3736650 112.3936000 121.2933190  90.9993540 112.0531880
 122.6100320  90.6181730 112.6957190 126.6083660  88.0379100 113.6319070
 127.2113030  88.6099310 114.1067590 125.8676650  88.6018540 113.4092970
 129.7518260  88.4400660 108.9059350 129.9468890  89.3384110 109.1726780
 128.9648130  88.2087740 109.3992300 116.5479550 104.1213830 109.3451970
 116.0227170 104.5021860 108.6413930 116.4724130 104.7464600 110.0661680
 120.1307860  89.5236570 110.9981050 119.5010600  88.8223880 111.1651180
 119.5913000  90.2840700 110.7814210 123.0699810 106.1375800 123.6691660
 123.9967120 105.9020070 123.7127620 123.0550240 106.9647800 123.1877690
 131.3044870 105.6801370 110.6665910 131.4797060 104.9939110 110.0226830
 130.6066440 106.2048420 110.2742580 119.1472520 106.0696210 108.2201220
 119.8791340 105.7855490 107.6725110 119.4066190 105.8309490 109.1100600
 118.3087310 102.1860940 108.2247550 117.6796190 102.6546040 108.7733380
 118.4235140 101.3410160 108.6593740 126.8578880  88.2174130 124.0114010
 126.7444330  88.5368740 124.9065530 127.6748620  88.6186640 123.7151290
 129.6377370 105.3645660 123.4932700 130.4302690 104.8694890 123.2858660
 129.9310520 106.0435800 124.1008310 125.7637030  96.2366600  94.3748750
 125.6831080  95.3221210  94.1040460 125.3501450  96.7333670  93.6688460
 127.9162500 102.4205810  95.0357150 127.4544030 101.6493050  95.3644320
 128.7288050 102.4471880  95.5409600 116.3212850  93.2867320  90.9176170
 115.4329550  93.6283290  90.8156050 116.6054040  93.0867640  90.0257000
 123.3364060 100.6902810  96.2628180 123.2672340  99.7492750  96.1017310
 124.0983920 100.7804220  96.8350750 115.5270730  91.2957330  98.5884800
 115.3473570  90.3983080  98.8687560 115.1250810  91.8429200  99.2631750
 118.4974240  91.8698820  91.9514550 118.6040990  92.7702550  92.2583310
 117.5866600  91.8216790  91.6609200 116.1457400  93.7917830  97.1967140
 116.8267510  94.0556200  97.8154540 115.8305450  92.9518700  97.5305150
 132.4392900  93.0090380  99.9869080 131.7345070  93.3972090  99.4684190
 132.7050820  93.7040670 100.5890010 118.6218070  89.4783750 100.5503150
 118.6236510  89.9956140  99.7449050 117.7922380  89.0013930 100.5273080
 125.0089160  99.5903060  92.0493050 124.3906430 100.0552510  91.4855770
 125.5212410 100.2830540  92.4662560 118.3033400  91.1893710  98.5573600
 118.6450210  92.0335760  98.2627470 117.3649210  91.3377450  98.6738940
 119.0840020 101.0859730 100.5425830 119.7014020 101.7610810 100.2610280
 118.2233140 101.4947710 100.4513330 114.3772360 100.2759590  89.4232680
 114.0000340 100.7646690  88.6917580 114.6345430 100.9484870  90.0539210
 130.0017610 102.5499140  98.4580470 129.3181130 103.2198250  98.4497140
 130.5411900 102.7479790  97.6925330 131.4541750  92.3778800  96.5862200
 130.5066660  92.4117780  96.7177630 131.7791740  93.1917750  96.9711560
 121.9861290  88.6775980  94.8818190 122.2936270  88.1222870  94.1653690
 121.0561990  88.8120440  94.6991180 126.9361790  99.2973110  98.5008260
 127.3530580  99.0833220  97.6661720 127.6601610  99.5545900  99.0716880
 124.3611130  93.0141810  88.6145470 123.4214800  93.1755770  88.6997930
 124.6794390  93.7327490  88.0681460 130.8823890  97.6960330  98.5924500
 130.0542520  97.7653420  98.1174630 131.4774370  98.2814640  98.1240330
 127.8465900  94.4829650  99.5379370 127.4337080  95.3083360  99.7919360
 127.1141850  93.8974690  99.3455730 128.5366000 104.5288980 100.2260350
 128.0596560 105.3361170 100.0332960 127.8527790 103.8767310 100.3786560
 116.6803320  96.1634530  91.9004690 116.5600920  96.8896620  91.2885960
 116.3704210  95.3937440  91.4232600 132.1165210 104.2900920 105.2951740
 132.5924930 104.7683810 105.9740820 132.7372370 104.2218410 104.5697240
 125.3815200 105.1841770 101.0246560 125.8959870 105.0949780 101.8268990
 124.5384280 105.5301470 101.3174470 127.3569600 105.4697110  90.4530560
 127.1970740 105.1800050  91.3512390 127.1916310 104.6937240  89.9175790
 127.0595730 102.9784670  89.0128560 126.3660890 102.9761960  88.3530840
 127.8018590 102.5543990  88.5822730 126.6245660 104.6047380  93.0877050
 127.0802610 103.8236760  93.4015670 126.9638180 105.3154200  93.6318230
 131.3722470  93.5346230 103.4201490 130.7566740  94.0425900 102.8916950
 131.0518890  92.6344560 103.3627430 114.3748210 100.3763840 100.2467790
 114.5379250  99.9069200  99.4287160 114.8400660  99.8687400 100.9116630
 119.1466980  89.5069600  95.2828360 118.7035130  90.2879140  94.9512880
 119.7051970  89.8299490  95.9899300 128.4341300  93.5947070 102.0160340
 127.5834890  93.2952820 102.3369410 128.2743090  93.8389080 101.1044160
 122.2625800  89.1280300  90.1634190 121.6379980  89.1240170  90.8887500
 122.1755920  88.2611260  89.7670160 121.1842880  90.0516930  97.1417960
 121.4815210  90.9579760  97.0609980 121.7328440  89.5635710  96.5277530
 118.9381200  94.6303170  93.0109610 118.7122120  94.4140340  93.9156230
 118.1573730  95.0631630  92.6655580 113.8108000  89.8630880  95.8633740
 113.5221050  90.4333740  96.5758720 114.5553760  89.3835330  96.2264970
 117.6478740  92.4216520  95.1001020 117.3078790  92.8991750  95.8568070
 116.8856060  91.9681640  94.7402120 121.8596510  93.5402110  89.1313570
 121.9809330  93.4988590  90.0799390 121.4745020  94.4026260  88.9760300
 120.8718010  95.8503250  88.5296870 120.3034910  95.4021500  87.9032780
 121.5807010  96.2096030  87.9962020 129.2495630  88.7301690 102.9863640
 129.5741400  87.9991350 103.5121620 129.2852140  88.4115330 102.0844630
 115.9487190  99.7515270 102.4063600 115.5641980  99.1108940 103.0046560
 116.2599380 100.4551390 102.9758330 114.9624820  91.3435500  94.0165690
 114.6771740  90.9791170  94.8544310 114.9003680  90.6115960  93.4028830
 129.1753470  98.8426800  96.5949670 129.8952590  99.3382090  96.2045780
 128.9735290  98.1644690  95.9503540 115.9447430  96.4803190 101.3527790
 115.5862370  97.1457040 101.9401130 115.6501990  95.6486740 101.7240410
 124.4889000 101.7356430 102.2322470 124.5033540 100.8037390 102.0141380
 123.7814100 101.8216190 102.8712240 130.7000210  98.3763770 101.5791050
 129.9748400  98.9692550 101.3820440 131.2275670  98.3687310 100.7804420
 130.6513320 102.7738510  91.2303210 130.0089480 102.1194130  91.5046930
 130.2643980 103.1793600  90.4543880 126.2299800 100.1023940  95.0774900
 126.5823620  99.5052070  94.4176270 125.3462130  99.7768170  95.2483150
 123.9222900 103.3774000  99.3262970 124.5665120 103.5833380 100.0036390
 124.2852340 102.6162400  98.8733820 117.5202070  88.2105310  92.5693190
 117.3916700  88.2023210  93.5178110 116.6964090  88.5488400  92.2184200
 125.1954980 101.3806350  98.0440420 125.8377210 100.6799510  98.1572590
 125.7204330 102.1604790  97.8637310 126.9692600 102.1801250 101.2476480
 127.3048840 102.7667940 101.9254400 126.0492940 102.0493960 101.4774270
 114.8226730 105.6921830  88.5424020 115.1824370 106.2911170  87.8881290
 114.6819070 106.2381720  89.3159050 116.4401990  98.2967920  90.1044450
 115.8329940  99.0366820  90.1139750 116.9151340  98.3867280  89.2782650
 123.8254950 103.1381270  88.0222880 123.9266930 102.9345260  87.0924860
 122.9256690 102.8839550  88.2270660 121.3480840  93.6961630  92.0046780
 120.6396990  94.1647970  92.4460390 121.6325320  93.0383640  92.6391970
 130.1803630  91.3326290 100.8467700 129.6777230  92.0731690 101.1861510
 130.9960290  91.7210290 100.5304490 118.4507280  98.2579070  87.8533020
 119.2170550  98.1460430  88.4158450 118.5281970  97.5617040  87.2009790
 117.1454040  95.6904140  88.5365910 117.2257630  94.7431650  88.6483310
 118.0373790  96.0211020  88.6426570 130.4751220 103.7468320  95.9683320
 130.5998640 104.5699490  96.4407130 131.3416780 103.5359050  95.6207470
 114.6724840  97.5119060 103.7722080 115.1763860  96.9326340 104.3438310
 113.9332260  97.7959290 104.3098450 121.5748460 100.2333250  87.3268370
 121.4699100  99.6185600  88.0529750 121.4072680  99.7099140  86.5431380
 127.5431790  98.7010210 102.3987830 127.9572810  98.8555290 103.2478250
 126.6082790  98.8265430 102.5613610 128.0153960  96.0406370 104.4026980
 128.5974730  95.2858690 104.3147460 128.1915730  96.5713810 103.6258460
 121.8987470  89.7576360  99.7471320 121.4504770  89.7800620  98.9016870
 121.2652670  89.3595380 100.3441620 126.9798820  96.9384060 100.3284110
 126.4534040  97.4626680  99.7249250 127.3230160  97.5711450 100.9593840
 119.3785210  94.3277430  86.7733820 119.1774270  93.4644790  87.1347160
 119.2077260  94.2410790  85.8355420 126.2273120  92.5434030 103.2430440
 125.5388640  91.8815570 103.1780430 126.9479140  92.0972300 103.6878900
 118.1768010  91.4278050  86.7611700 118.4793910  91.4345480  85.8530850
 118.9162600  91.0775910  87.2579360 123.0116650 106.1934910 101.7428140
 122.9375350 107.0970050 102.0500510 122.1095490 105.8746810 101.7150210
 123.5601980 105.3593420  89.3654500 124.4552770 105.6978390  89.3873260
 123.5919610 104.6372830  88.7378780 117.1998140 100.7320470  87.5941500
 117.6373010 101.2750140  88.2499080 117.6845870  99.9067420  87.6037840
 114.9034150 104.3880090  97.7843390 114.4665140 104.5680890  98.6167540
 115.4711830 105.1454710  97.6425110 132.2414210  99.2312490  94.7566540
 132.6123040  98.4479810  94.3502510 132.8816140  99.9201590  94.5783840
 129.2247970 100.6149070 100.1696860 128.4107810 101.0446230 100.4322650
 129.6322170 101.2267480  99.5565910 127.6849020  91.6941610  88.3650760
 128.1033900  91.5072590  87.5247420 127.3785080  90.8420660  88.6753690
 115.7734510  97.2852890  98.6835610 116.1407550  97.1980290  99.5631630
 115.2045330  96.5219440  98.5842470 130.5738370  95.7537270 101.6966080
 130.3424460  95.5250020 100.7964030 130.8342920  96.6736820 101.6510970
 129.0126440  90.9793700 104.4745780 129.8896620  90.9877100 104.8579780
 129.0247280  90.2424540 103.8638130 130.4589710  94.8323240  95.3633800
 130.9827190  94.3385890  94.7323970 131.0449130  94.9673600  96.1081370
 130.6379430  94.9163110  98.8853350 129.6882140  94.8826650  98.9998340
 130.8192440  95.8263220  98.6503120 116.4923870  93.1664790  87.9951980
 117.2015570  92.7448010  87.5099260 115.7763810  93.2340020  87.3635330
 116.1398030  89.2204120  87.0354630 116.8626160  89.7613060  87.3535850
 116.4122550  88.9467540  86.1596170 115.8290220  88.4710310  96.9377250
 116.4766410  87.9207690  96.4972410 116.2492060  88.7253460  97.7593060
 129.2824020 105.3667670  93.6965130 129.8783090 105.0452240  93.0199550
 129.5402170 104.8939490  94.4878400 115.5822220  88.6265980  99.6802570
 115.2337040  89.0829800 100.4460750 115.2509920  87.7323110  99.7625000
 120.8892620 103.3545170  99.4465480 120.6483980 103.6219730  98.5596000
 121.8295260 103.5250900  99.5016340 123.0947040  89.8177860 103.2021990
 123.0335930  90.4099690 103.9517400 124.0347420  89.7103820 103.0572250
 125.7321600  89.4747920 102.8414280 126.3462010  89.7927210 102.1795360
 126.2771160  88.9896510 103.4610140 132.1496780 105.3739550 100.2476120
 131.6555060 105.7708420  99.5303250 131.5410070 104.7488760 100.6413400
 116.6586850 102.1106210  99.9161580 115.9320910 101.4911500  99.8487530
 116.7196000 102.5046820  99.0459660 120.2631950 104.3251210  96.7010990
 120.7796970 103.7138570  96.1759250 120.9129330 104.8279990  97.1922000
 123.0027450 105.2159700  97.5279970 123.2905260 104.9614000  96.6512980
 123.5150670 104.6637060  98.1185540 115.5644870  89.2597380  90.6290200
 116.3224230  89.3726260  90.0554230 115.1022040  90.0966580  90.5833630
 122.1058680  91.3736650  93.6192510 121.2933190  90.9993540  93.2788390
 122.6100320  90.6181730  93.9213700 120.1307860  89.5236570  92.2237560
 119.5010600  88.8223880  92.3907690 119.5913000  90.2840700  92.0070720
 123.0699810 106.1375800 104.8948170 123.9967120 105.9020070 104.9384130
 123.0550240 106.9647800 104.4134200 131.3044870 105.6801370  91.8922420
 131.4797060 104.9939110  91.2483340 130.6066440 106.2048420  91.4999090
 126.8578880  88.2174130 105.2370520 126.7444330  88.5368740 106.1322040
 127.6748620  88.6186640 104.9407800 125.7637030  96.2366600  75.6005260
 125.6831080  95.3221210  75.3296970 125.3501450  96.7333670  74.8944970
 116.3212850  93.2867320  72.1432680 115.4329550  93.6283290  72.0412560
 116.6054040  93.0867640  71.2513510 114.2845860  95.8872970  78.0272380
 114.8561970  95.1195170  78.0276020 114.2847400  96.1861730  77.1178990
 115.5270730  91.2957330  79.8141310 115.3473570  90.3983080  80.0944070
 115.1250810  91.8429200  80.4888260 124.3669230  93.4973190  77.7153620
 124.7434050  92.6245070  77.6027290 124.2688740  93.8331890  76.8244060
 118.4974240  91.8698820  73.1771060 118.6040990  92.7702550  73.4839820
 117.5866600  91.8216790  72.8865710 128.1493350  90.9923630  74.6481960
 128.9702970  90.5020200  74.6907440 128.1827430  91.5821290  75.4013800
 116.1457400  93.7917830  78.4223650 116.8267510  94.0556200  79.0411050
 115.8305450  92.9518700  78.7561660 120.3381970  94.8385190  77.5096240
 120.8460190  95.3366160  78.1501260 120.8695210  94.0620390  77.3335600
 118.6218070  89.4783750  81.7759660 118.6236510  89.9956140  80.9705560
 117.7922380  89.0013930  81.7529590 125.0089160  99.5903060  73.2749560
 124.3906430 100.0552510  72.7112280 125.5212410 100.2830540  73.6919070
 128.3854830  92.9324010  77.4209500 127.6810400  93.2208900  78.0012610
 128.7466990  93.7424120  77.0609060 118.3033400  91.1893710  79.7830110
 118.6450210  92.0335760  79.4883980 117.3649210  91.3377450  79.8995450
 114.3772360 100.2759590  70.6489190 114.0000340 100.7646690  69.9174090
 114.6345430 100.9484870  71.2795720 124.3742050  96.7424810  72.8434820
 123.4471330  96.6762190  73.0723290 124.5266870  97.6804940  72.7290060
 124.3611130  93.0141810  69.8401980 123.4214800  93.1755770  69.9254440
 124.6794390  93.7327490  69.2937970 128.4039340  98.3045110  73.3470070
 127.7851760  97.9664660  72.6996370 128.3863790  97.6604870  74.0549260
 118.6927310  94.0432760  79.4053590 119.2441900  94.1528100  78.6306840
 119.2070820  94.4170360  80.1208820 119.5398820 100.6938800  84.4401560
 118.6427350 100.9178770  84.6874960 119.5651690 100.8173740  83.4912960
 126.5804040  97.5431920  70.3542820 127.0197320  96.7054350  70.2080640
 127.2932460  98.1761320  70.4406960 120.1650390 103.5073820  85.2244080
 120.1365820 103.9116770  84.3572510 120.0015360 102.5784180  85.0615680
 116.6803320  96.1634530  73.1261200 116.5600920  96.8896620  72.5142470
 116.3704210  95.3937440  72.6489110 115.5636320 101.0349860  75.3436020
 115.1564400 101.1764450  74.4889620 116.4549330 100.7510020  75.1407230
 125.3815200 105.1841770  82.2503070 125.8959870 105.0949780  83.0525500
 124.5384280 105.5301470  82.5430980 127.3569600 105.4697110  71.6787070
 127.1970740 105.1800050  72.5768900 127.1916310 104.6937240  71.1432300
 119.8357980 105.2495640  73.4558690 119.6600460 104.3331180  73.2426490
 118.9813720 105.6082930  73.6956490 127.0595730 102.9784670  70.2385070
 126.3660890 102.9761960  69.5787350 127.8018590 102.5543990  69.8079240
 126.6245660 104.6047380  74.3133560 127.0802610 103.8236760  74.6272180
 126.9638180 105.3154200  74.8574740 114.3748210 100.3763840  81.4724300
 114.5379250  99.9069200  80.6543670 114.8400660  99.8687400  82.1373140
 119.1466980  89.5069600  76.5084870 118.7035130  90.2879140  76.1769390
 119.7051970  89.8299490  77.2155810 118.9381200  94.6303170  74.2366120
 118.7122120  94.4140340  75.1412740 118.1573730  95.0631630  73.8912090
 126.1678960  94.6366540  72.8356770 125.5687850  95.3602340  72.6520390
 126.7158570  94.5743320  72.0533220 124.7743830  93.2730080  74.8660050
 125.1673400  93.5902280  74.0528740 125.1360680  92.3941960  74.9804570
 116.5090950  91.9402420  83.0560170 116.1154340  92.7877630  83.2632950
 115.8209350  91.3028790  83.2468810 123.0836000  92.0237390  86.1256910
 122.3934320  91.8309590  86.7603000 123.8268300  92.3072030  86.6581210
 113.9978230  93.8051000  68.2992970 113.9152900  94.7481760  68.4407960
 113.6461290  93.6625910  67.4205320 121.7976360  92.5390030  77.3663320
 121.8012420  92.0979980  76.5167860 122.6927480  92.8607360  77.4735140
 117.6478740  92.4216520  76.3257530 117.3078790  92.8991750  77.0824580
 116.8856060  91.9681640  75.9658630 121.8596510  93.5402110  70.3570080
 121.9809330  93.4988590  71.3055900 121.4745020  94.4026260  70.2016810
 120.8718010  95.8503250  69.7553380 120.3034910  95.4021500  69.1289290
 121.5807010  96.2096030  69.2218530 129.2495630  88.7301690  84.2120150
 129.5741400  87.9991350  84.7378130 129.2852140  88.4115330  83.3101140
 118.4165490  99.8461440  72.0279790 117.6427750  99.3059060  71.8678510
 119.1460120  99.3268050  71.6897550 124.6363410  90.2364760  71.9635570
 123.8228020  89.7377930  71.8880880 124.4425360  91.0763010  71.5471920
 127.3511800  94.6084410  70.2597730 128.2391420  94.9201640  70.0849070
 127.3216890  93.7356660  69.8678310 123.3472390 100.7808100  70.9385900
 123.6888090 101.5250330  70.4429220 122.5185100 101.0939220  71.3010730
 119.1460550  96.9387430  85.4623850 118.8460690  97.0844610  84.5651670
 119.9171790  96.3792720  85.3697240 129.6226070  95.9196250  69.7277590
 129.5389790  96.3510470  68.8774030 130.3420260  96.3794600  70.1604410
 122.3163080 100.8621630  73.7101820 123.0034210 101.4090840  74.0909410
 121.5295500 101.4062360  73.7451430 114.4555480  96.4794450  69.2018900
 115.3250330  96.7619250  69.4854820 113.9645800  97.2930320  69.0867710
 121.6190290  97.8667660  73.3227180 122.0753070  98.6772910  73.5487370
 121.2678500  97.5490800  74.1545670 117.5202070  88.2105310  73.7949700
 117.3916700  88.2023210  74.7434620 116.6964090  88.5488400  73.4440710
 114.8226730 105.6921830  69.7680530 115.1824370 106.2911170  69.1137800
 114.6819070 106.2381720  70.5415560 114.5196000  89.9696430  83.2556400
 113.8054520  90.1693350  83.8609010 114.9391040  89.1936000  83.6271200
 114.8068590 103.9576690  84.2422930 114.9159710 103.0171430  84.1018320
 114.1549150 104.2231440  83.5936660 120.8395350 103.0753030  70.5854200
 120.8305450 103.8082720  69.9698710 119.9193710 102.8284610  70.6781160
 116.4401990  98.2967920  71.3300960 115.8329940  99.0366820  71.3396260
 116.9151340  98.3867280  70.5039160 123.8254950 103.1381270  69.2479390
 123.9266930 102.9345260  68.3181370 122.9256690 102.8839550  69.4527170
 121.3480840  93.6961630  73.2303290 120.6396990  94.1647970  73.6716900
 121.6325320  93.0383640  73.8648480 125.3796270  90.4212290  74.6699080
 125.2564050  90.4398420  73.7208590 126.3280830  90.4691230  74.7897480
 122.4673060 105.6567590  73.9427060 122.7214560 105.6188980  73.0206430
 121.5185540 105.5300920  73.9355310 119.5515860  92.0046710  70.6054000
 120.4006390  92.4416860  70.5394190 119.1847130  92.3166970  71.4326060
 128.4725640  96.5759470  75.5185570 127.5315780  96.5909700  75.6933260
 128.7869710  95.7895430  75.9645870 117.1454040  95.6904140  69.7622420
 117.2257630  94.7431650  69.8739820 118.0373790  96.0211020  69.8683080
 114.8314230 101.9073100  72.7398470 113.9054010 102.1494240  72.7303880
 115.2970660 102.7347360  72.6183220 116.9527030 105.0245600  86.0542540
 117.7539760 105.3457650  86.4677940 116.4378850 104.6641180  86.7762450
 121.0571060 105.0129840  68.6882530 121.8499670 105.3018670  68.2364320
 120.5375410 104.5822010  68.0095010 127.2192030 104.8605760  84.6127360
 128.1713780 104.7763780  84.5627600 127.0720250 105.5247470  85.2861150
 124.8151190  99.2953280  69.1566870 124.2661290  99.7422580  69.8009610
 125.4370450  98.7902530  69.6804540 116.7047920  95.6548650  85.8928660
 116.7453260  95.3562520  86.8013890 117.5593420  96.0556260  85.7336180
 120.4826310  98.2544200  71.0532170 120.9042730  98.0884070  71.8963560
 120.6077150  97.4444430  70.5587310 118.6453730  94.2340750  83.8603150
 118.1150190  93.7431700  83.2326490 119.3141800  94.6624950  83.3261080
 119.1326030  91.2003120  83.9400440 119.0382900  90.5823870  83.2151310
 118.5523420  91.9269410  83.7130350 120.1554440 104.9583700  82.7098000
 119.6175530 105.6829760  82.3906700 120.4088400 104.4814040  81.9195340
 121.4079690  92.9268220  84.2353930 121.9979380  92.6184070  84.9231750
 120.5899930  92.4547970  84.3913830 118.1768010  91.4278050  67.9868210
 118.4793910  91.4345480  67.0787360 118.9162600  91.0775910  68.4835870
 123.0116650 106.1934910  82.9684650 122.9375350 107.0970050  83.2757020
 122.1095490 105.8746810  82.9406720 121.3952940  90.3712670  68.9724410
 121.0474940  89.6936660  68.3926860 121.5965710  89.9102180  69.7867800
 123.5601980 105.3593420  70.5911010 124.4552770 105.6978390  70.6129770
 123.5919610 104.6372830  69.9635290 114.4143940 103.5209500  76.2718270
 114.7446950 102.6530560  76.0396910 114.8434940 103.7268020  77.1023230
 119.0105860 101.8518510  73.9320240 118.7101400 101.7283480  74.8324150
 118.9043350 100.9927100  73.5235970 114.9034150 104.3880090  79.0099900
 114.4665140 104.5680890  79.8424050 115.4711830 105.1454710  78.8681620
 114.7358580  96.9000320  75.3688780 114.0807420  96.6311960  74.7248480
 115.5736530  96.7904800  74.9190760 131.1838750  96.6065750  73.2883070
 130.8082350  95.8393680  72.8564360 130.4541870  96.9888450  73.7758000
 115.3250510  94.1961980  83.8150540 114.4306560  94.1628740  84.1544250
 115.8648060  94.3948770  84.5801790 113.9496660  94.1099250  71.3114110
 113.0460740  94.3729450  71.1365770 114.4337280  94.3810420  70.5314070
 130.4589710  94.8323240  76.5890310 130.9827190  94.3385890  75.9580480
 131.0449130  94.9673600  77.3337880 116.4923870  93.1664790  69.2208490
 117.2015570  92.7448010  68.7355770 115.7763810  93.2340020  68.5891840
 116.1398030  89.2204120  68.2611140 116.8626160  89.7613060  68.5792360
 116.4122550  88.9467540  67.3852680 129.9489680  94.0896590  72.5282720
 130.4448800  93.8567460  73.3131600 129.7505750  93.2508430  72.1120360
 115.8290220  88.4710310  78.1633760 116.4766410  87.9207690  77.7228920
 116.2492060  88.7253460  78.9849570 131.3776840  92.7257540  75.0620400
 131.2676120  92.5713580  76.0002670 132.1384430  92.1978480  74.8195810
 115.5822220  88.6265980  80.9059080 115.2337040  89.0829800  81.6717260
 115.2509920  87.7323110  80.9881510 117.1886590 101.7985580  85.0712270
 117.1456220 101.4278490  85.9526730 117.3197600 102.7363150  85.2114090
 123.0947040  89.8177860  84.4278500 123.0335930  90.4099690  85.1773910
 124.0347420  89.7103820  84.2828760 132.1496780 105.3739550  81.4732630
 131.6555060 105.7708420  80.7559760 131.5410070 104.7488760  81.8669910
 116.2542860  88.1542180  84.1809850 116.8025850  87.9730230  83.4175960
 116.3198170  87.3636290  84.7166160 117.0274620 104.7447830  82.1910050
 116.4334940 104.6132530  82.9300090 117.0198460 103.9085970  81.7252150
 128.7725530  89.6573000  77.3782080 129.2133620  89.6018100  76.5303680
 128.5033120  90.5731010  77.4492260 130.6364100  89.2888240  75.3890900
 130.5752500  88.3449460  75.2421920 131.4156130  89.3968330  75.9344360
 114.9416850 105.4280600  74.3514850 114.7738890 104.7951280  75.0496740
 114.0751360 105.6340000  74.0009040 122.1058680  91.3736650  74.8449020
 121.2933190  90.9993540  74.5044900 122.6100320  90.6181730  75.1470210
 126.6083660  88.0379100  76.0832090 127.2113030  88.6099310  76.5580610
 125.8676650  88.6018540  75.8605990 116.5479550 104.1213830  71.7964990
 116.0227170 104.5021860  71.0926950 116.4724130 104.7464600  72.5174700
 117.9370020  89.7861430  70.3948680 118.4662780  88.9991230  70.2656630
 118.5698340  90.4652620  70.6284210 123.0699810 106.1375800  86.1204680
 123.9967120 105.9020070  86.1640640 123.0550240 106.9647800  85.6390710
 120.2563420  88.8020550  85.8846560 119.9747690  89.3054150  85.1207380
 120.6383120  88.0042300  85.5188690 119.1472520 106.0696210  70.6714240
 119.8791340 105.7855490  70.1238130 119.4066190 105.8309490  71.5613620
 118.3087310 102.1860940  70.6760570 117.6796190 102.6546040  71.2246400
 118.4235140 101.3410160  71.1106760 126.8578880  88.2174130  86.4627030
 126.7444330  88.5368740  87.3578550 127.6748620  88.6186640  86.1664310
 123.8955070  98.0145620  58.7071040 123.1197170  97.5346060  58.9969610
 124.5468000  97.3351270  58.5327200 117.9120900  98.3265430  59.5846800
 117.0805780  98.0714140  59.9843310 118.5201880  98.3976200  60.3204720
 127.9162500 102.4205810  57.4870170 127.4544030 101.6493050  57.8157340
 128.7288050 102.4471880  57.9922620 117.8922160 102.3605520  59.7804820
 118.1950200 101.4703260  59.6015040 118.6365750 102.9175740  59.5527070
 114.2845860  95.8872970  59.2528890 114.8561970  95.1195170  59.2532530
 114.2847400  96.1861730  58.3435500 124.1425810 104.7063820  57.1074160
 123.5237250 105.1621320  56.5368600 124.9977590 104.8615280  56.7063860
 123.3364060 100.6902810  58.7141200 123.2672340  99.7492750  58.5530330
 124.0983920 100.7804220  59.2863770 128.1493350  90.9923630  55.8738470
 128.9702970  90.5020200  55.9163950 128.1827430  91.5821290  56.6270310
 125.0089160  99.5903060  54.5006070 124.3906430 100.0552510  53.9368790
 125.5212410 100.2830540  54.9175580 119.8720920  99.1178930  61.1789670
 119.5390300  99.7447850  61.8210740 120.0487600  99.6440810  60.3991340
 114.3772360 100.2759590  51.8745700 114.0000340 100.7646690  51.1430600
 114.6345430 100.9484870  52.5052230 130.0017610 102.5499140  60.9093490
 129.3181130 103.2198250  60.9010160 130.5411900 102.7479790  60.1438350
 131.4541750  92.3778800  59.0375220 130.5066660  92.4117780  59.1690650
 131.7791740  93.1917750  59.4224580 127.5376350 104.3943270  59.6238670
 127.5503510 103.9905560  58.7560930 126.9851570 105.1690560  59.5200100
 126.9361790  99.2973110  60.9521280 127.3530580  99.0833220  60.1174740
 127.6601610  99.5545900  61.5229900 130.8823890  97.6960330  61.0437520
 130.0542520  97.7653420  60.5687650 131.4774370  98.2814640  60.5753350
 127.8465900  94.4829650  61.9892390 127.4337080  95.3083360  62.2432380
 127.1141850  93.8974690  61.7968750 120.4480390 100.9557110  59.0150270
 120.1508680 100.3502580  58.3358050 121.3980210 100.9934420  58.9039630
 128.5366000 104.5288980  62.6773370 128.0596560 105.3361170  62.4845980
 127.8527790 103.8767310  62.8299580 124.6899420 102.4827990  55.5480570
 125.1295330 103.2252320  55.1335960 124.6286310 102.7254560  56.4719530
 130.1621180  88.7974730  49.8940370 129.8493840  88.8901560  50.7939440
 130.9233650  89.3755760  49.8437800 114.3188690  99.3349670  60.1586350
 114.3969110  99.4698440  59.2142070 114.9330370  98.6265560  60.3514470
 115.5636320 101.0349860  56.5692530 115.1564400 101.1764450  55.7146130
 116.4549330 100.7510020  56.3663740 131.5198460 101.4813770  64.9064770
 131.6461520 101.2425650  63.9881950 131.5619840 100.6498310  65.3786850
 127.3569600 105.4697110  52.9043580 127.1970740 105.1800050  53.8025410
 127.1916310 104.6937240  52.3688810 119.8357980 105.2495640  54.6815200
 119.6600460 104.3331180  54.4683000 118.9813720 105.6082930  54.9213000
 127.0595730 102.9784670  51.4641580 126.3660890 102.9761960  50.8043860
 127.8018590 102.5543990  51.0335750 126.6245660 104.6047380  55.5390070
 127.0802610 103.8236760  55.8528690 126.9638180 105.3154200  56.0831250
 114.3748210 100.3763840  62.6980810 114.5379250  99.9069200  61.8800180
 114.8400660  99.8687400  63.3629650 126.1678960  94.6366540  54.0613280
 125.5687850  95.3602340  53.8776900 126.7158570  94.5743320  53.2789730
 124.7743830  93.2730080  56.0916560 125.1673400  93.5902280  55.2785250
 125.1360680  92.3941960  56.2061080 116.5090950  91.9402420  64.2816680
 116.1154340  92.7877630  64.4889460 115.8209350  91.3028790  64.4725320
 115.9487190  99.7515270  64.8576620 115.5641980  99.1108940  65.4559580
 116.2599380 100.4551390  65.4271350 122.0984330  96.5991810  60.3385240
 122.4654460  96.1250380  61.0846580 121.9089390  97.4733380  60.6793580
 124.6363410  90.2364760  53.1892080 123.8228020  89.7377930  53.1137390
 124.4425360  91.0763010  52.7728430 123.3472390 100.7808100  52.1642410
 123.6888090 101.5250330  51.6685730 122.5185100 101.0939220  52.5267240
 115.9447430  96.4803190  63.8040810 115.5862370  97.1457040  64.3914150
 115.6501990  95.6486740  64.1753430 130.7000210  98.3763770  64.0304070
 129.9748400  98.9692550  63.8333460 131.2275670  98.3687310  63.2317440
 130.6513320 102.7738510  53.6816230 130.0089480 102.1194130  53.9559950
 130.2643980 103.1793600  52.9056900 126.2299800 100.1023940  57.5287920
 126.5823620  99.5052070  56.8689290 125.3462130  99.7768170  57.6996170
 122.3163080 100.8621630  54.9358330 123.0034210 101.4090840  55.3165920
 121.5295500 101.4062360  54.9707940 114.4555480  96.4794450  50.4275410
 115.3250330  96.7619250  50.7111330 113.9645800  97.2930320  50.3124220
 123.9222900 103.3774000  61.7775990 124.5665120 103.5833380  62.4549410
 124.2852340 102.6162400  61.3246840 125.1954980 101.3806350  60.4953440
 125.8377210 100.6799510  60.6085610 125.7204330 102.1604790  60.3150330
 126.9692600 102.1801250  63.6989500 127.3048840 102.7667940  64.3767420
 126.0492940 102.0493960  63.9287290 128.6226950  99.5826910  51.8806740
 128.3348650 100.0439600  52.6684620 129.4179120  99.1224680  52.1490960
 114.8068590 103.9576690  65.4679440 114.9159710 103.0171430  65.3274830
 114.1549150 104.2231440  64.8193170 120.8395350 103.0753030  51.8110710
 120.8305450 103.8082720  51.1955220 119.9193710 102.8284610  51.9037670
 116.4401990  98.2967920  52.5557470 115.8329940  99.0366820  52.5652770
 116.9151340  98.3867280  51.7295670 129.3796810  91.4175680  53.0401920
 128.7509970  91.5221350  52.3260150 128.8848730  91.6372460  53.8295800
 125.3796270  90.4212290  55.8955590 125.2564050  90.4398420  54.9465100
 126.3280830  90.4691230  56.0153990 122.4673060 105.6567590  55.1683570
 122.7214560 105.6188980  54.2462940 121.5185540 105.5300920  55.1611820
 130.4751220 103.7468320  58.4196340 130.5998640 104.5699490  58.8920150
 131.3416780 103.5359050  58.0720490 114.8314230 101.9073100  53.9654980
 113.9054010 102.1494240  53.9560390 115.2970660 102.7347360  53.8439730
 116.9527030 105.0245600  67.2799050 117.7539760 105.3457650  67.6934450
 116.4378850 104.6641180  68.0018960 121.0571060 105.0129840  49.9139040
 121.8499670 105.3018670  49.4620830 120.5375410 104.5822010  49.2351520
 125.7891660 101.1325470  67.2274460 125.1829820 101.1557070  66.4870210
 125.4845770 100.4008510  67.7641710 127.2192030 104.8605760  65.8383870
 128.1713780 104.7763780  65.7884110 127.0720250 105.5247470  66.5117660
 130.1101230 104.2399970  51.3375780 129.8242740 103.8265110  50.5229960
 129.9120780 105.1687680  51.2176300 114.6724840  97.5119060  66.2235100
 115.1763860  96.9326340  66.7951330 113.9332260  97.7959290  66.7611470
 128.8686130 100.6495380  66.3145640 129.6095600 100.9871140  65.8113100
 128.1058810 100.8187440  65.7615410 116.7047920  95.6548650  67.1185170
 116.7453260  95.3562520  68.0270400 117.5593420  96.0556260  66.9592690
 127.5431790  98.7010210  64.8500850 127.9572810  98.8555290  65.6991270
 126.6082790  98.8265430  65.0126630 122.3047020  98.6530690  62.8196780
 122.7235130  99.4963420  62.6473020 121.3855650  98.7902730  62.5903560
 126.9798820  96.9384060  62.7797130 126.4534040  97.4626680  62.1762270
 127.3230160  97.5711450  63.4106860 126.8573520  89.1385660  51.7533720
 127.1375810  88.2953560  52.1093140 126.0839250  89.3708770  52.2672470
 118.1768010  91.4278050  49.2124720 118.4793910  91.4345480  48.3043870
 118.9162600  91.0775910  49.7092380 123.5601980 105.3593420  51.8167520
 124.4552770 105.6978390  51.8386280 123.5919610 104.6372830  51.1891800
 117.1998140 100.7320470  50.0454520 117.6373010 101.2750140  50.7012100
 117.6845870  99.9067420  50.0550860 114.4143940 103.5209500  57.4974780
 114.7446950 102.6530560  57.2653420 114.8434940 103.7268020  58.3279740
 119.0105860 101.8518510  55.1576750 118.7101400 101.7283480  56.0580660
 118.9043350 100.9927100  54.7492480 114.9034150 104.3880090  60.2356410
 114.4665140 104.5680890  61.0680560 115.4711830 105.1454710  60.0938130
 130.5396330 103.8897090  64.5233720 129.9398320 103.9489650  63.7797640
 130.6690230 102.9502070  64.6530570 131.7797780 101.6314910  49.8603430
 130.9490740 101.6991560  50.3310660 131.9569610 102.5219030  49.5570290
 129.2247970 100.6149070  62.6209880 128.4107810 101.0446230  62.8835670
 129.6322170 101.2267480  62.0078930 127.6849020  91.6941610  50.8163780
 128.1033900  91.5072590  49.9760440 127.3785080  90.8420660  51.1266710
 115.7734510  97.2852890  61.1348630 116.1407550  97.1980290  62.0144650
 115.2045330  96.5219440  61.0355490 130.5738370  95.7537270  64.1479100
 130.3424460  95.5250020  63.2477050 130.8342920  96.6736820  64.1023990
 115.3250510  94.1961980  65.0407050 114.4306560  94.1628740  65.3800760
 115.8648060  94.3948770  65.8058300 130.4589710  94.8323240  57.8146820
 130.9827190  94.3385890  57.1836990 131.0449130  94.9673600  58.5594390
 130.6379430  94.9163110  61.3366370 129.6882140  94.8826650  61.4511360
 130.8192440  95.8263220  61.1016140 116.1398030  89.2204120  49.4867650
 116.8626160  89.7613060  49.8048870 116.4122550  88.9467540  48.6109190
 129.9489680  94.0896590  53.7539230 130.4448800  93.8567460  54.5388110
 129.7505750  93.2508430  53.3376870 131.3776840  92.7257540  56.2876910
 131.2676120  92.5713580  57.2259180 132.1384430  92.1978480  56.0452320
 129.7242560  88.6651670  62.7459910 130.3614780  89.2785810  63.1119100
 129.8717450  88.7012330  61.8009140 132.2667110  90.5565460  49.5283050
 133.1916420  90.4246640  49.3201340 132.2442900  90.6358280  50.4819500
 132.3405600  91.3276120  52.1539760 131.5457100  91.2621240  52.6832670
 132.5448880  92.2626760  52.1425110 129.2824020 105.3667670  56.1478150
 129.8783090 105.0452240  55.4712570 129.5402170 104.8939490  56.9391420
 132.1496780 105.3739550  62.6989140 131.6555060 105.7708420  61.9816270
 131.5410070 104.7488760  63.0926420 116.2542860  88.1542180  65.4066360
 116.8025850  87.9730230  64.6432470 116.3198170  87.3636290  65.9422670
 117.0274620 104.7447830  63.4166560 116.4334940 104.6132530  64.1556600
 117.0198460 103.9085970  62.9508660 129.8336230 106.0162970  59.9775880
 129.3739200 106.7678780  59.6033900 129.2048690 105.2969440  59.9190680
 116.6586850 102.1106210  62.3674600 115.9320910 101.4911500  62.3000550
 116.7196000 102.5046820  61.4972680 120.2631950 104.3251210  59.1524010
 120.7796970 103.7138570  58.6272270 120.9129330 104.8279990  59.6435020
 123.0027450 105.2159700  59.9792990 123.2905260 104.9614000  59.1026000
 123.5150670 104.6637060  60.5698560 128.7725530  89.6573000  58.6038590
 129.2133620  89.6018100  57.7560190 128.5033120  90.5731010  58.6748770
 130.6364100  89.2888240  56.6147410 130.5752500  88.3449460  56.4678430
 131.4156130  89.3968330  57.1600870 114.9416850 105.4280600  55.5771360
 114.7738890 104.7951280  56.2753250 114.0751360 105.6340000  55.2265550
 115.5644870  89.2597380  53.0803220 116.3224230  89.3726260  52.5067250
 115.1022040  90.0966580  53.0346650 126.6083660  88.0379100  57.3088600
 127.2113030  88.6099310  57.7837120 125.8676650  88.6018540  57.0862500
 129.7518260  88.4400660  52.5828880 129.9468890  89.3384110  52.8496310
 128.9648130  88.2087740  53.0761830 116.5479550 104.1213830  53.0221500
 116.0227170 104.5021860  52.3183460 116.4724130 104.7464600  53.7431210
 123.0699810 106.1375800  67.3461190 123.9967120 105.9020070  67.3897150
 123.0550240 106.9647800  66.8647220 131.3044870 105.6801370  54.3435440
 131.4797060 104.9939110  53.6996360 130.6066440 106.2048420  53.9512110
 120.2563420  88.8020550  67.1103070 119.9747690  89.3054150  66.3463890
 120.6383120  88.0042300  66.7445200 118.3087310 102.1860940  51.9017080
 117.6796190 102.6546040  52.4502910 118.4235140 101.3410160  52.3363270
 125.7637030  96.2366600  38.0518280 125.6831080  95.3221210  37.7809990
 125.3501450  96.7333670  37.3457990 123.8955070  98.0145620  39.9327550
 123.1197170  97.5346060  40.2226120 124.5468000  97.3351270  39.7583710
 127.9162500 102.4205810  38.7126680 127.4544030 101.6493050  39.0413850
 128.7288050 102.4471880  39.2179130 116.3212850  93.2867320  34.5945700
 115.4329550  93.6283290  34.4925580 116.6054040  93.0867640  33.7026530
 118.4974240  91.8698820  35.6284080 118.6040990  92.7702550  35.9352840
 117.5866600  91.8216790  35.3378730 128.1493350  90.9923630  37.0994980
 128.9702970  90.5020200  37.1420460 128.1827430  91.5821290  37.8526820
 120.3381970  94.8385190  39.9609260 120.8460190  95.3366160  40.6014280
 120.8695210  94.0620390  39.7848620 132.4392900  93.0090380  43.6638610
 131.7345070  93.3972090  43.1453720 132.7050820  93.7040670  44.2659540
 118.6218070  89.4783750  44.2272680 118.6236510  89.9956140  43.4218580
 117.7922380  89.0013930  44.2042610 125.0089160  99.5903060  35.7262580
 124.3906430 100.0552510  35.1625300 125.5212410 100.2830540  36.1432090
 119.8720920  99.1178930  42.4046180 119.5390300  99.7447850  43.0467250
 120.0487600  99.6440810  41.6247850 128.3854830  92.9324010  39.8722520
 127.6810400  93.2208900  40.4525630 128.7466990  93.7424120  39.5122080
 130.0017610 102.5499140  42.1350000 129.3181130 103.2198250  42.1266670
 130.5411900 102.7479790  41.3694860 131.4541750  92.3778800  40.2631730
 130.5066660  92.4117780  40.3947160 131.7791740  93.1917750  40.6481090
 121.9861290  88.6775980  38.5587720 122.2936270  88.1222870  37.8423220
 121.0561990  88.8120440  38.3760710 127.5376350 104.3943270  40.8495180
 127.5503510 103.9905560  39.9817440 126.9851570 105.1690560  40.7456610
 128.8321770 101.1159490  35.9385350 128.7218100 100.1733820  36.0634770
 128.8290020 101.4775130  36.8248110 126.9361790  99.2973110  42.1777790
 127.3530580  99.0833220  41.3431250 127.6601610  99.5545900  42.7486410
 124.3742050  96.7424810  35.2947840 123.4471330  96.6762190  35.5236310
 124.5266870  97.6804940  35.1803080 124.3611130  93.0141810  32.2915000
 123.4214800  93.1755770  32.3767460 124.6794390  93.7327490  31.7450990
 128.4039340  98.3045110  35.7983090 127.7851760  97.9664660  35.1509390
 128.3863790  97.6604870  36.5062280 119.9798690  97.2689550  38.0767570
 119.5755690  96.5566800  37.5813470 120.0661810  96.9242790  38.9655610
 118.6927310  94.0432760  41.8566610 119.2441900  94.1528100  41.0819860
 119.2070820  94.4170360  42.5721840 128.5366000 104.5288980  43.9029880
 128.0596560 105.3361170  43.7102490 127.8527790 103.8767310  44.0556090
 126.5804040  97.5431920  32.8055840 127.0197320  96.7054350  32.6593660
 127.2932460  98.1761320  32.8919980 118.3670040  97.5652120  45.4671950
 118.2277810  98.4374920  45.8359350 117.4851400  97.2224930  45.3219890
 124.6899420 102.4827990  36.7737080 125.1295330 103.2252320  36.3592470
 124.6286310 102.7254560  37.6976040 120.1650390 103.5073820  47.6757100
 120.1365820 103.9116770  46.8085530 120.0015360 102.5784180  47.5128700
 130.1621180  88.7974730  31.1196880 129.8493840  88.8901560  32.0195950
 130.9233650  89.3755760  31.0694310 116.6803320  96.1634530  35.5774220
 116.5600920  96.8896620  34.9655490 116.3704210  95.3937440  35.1002130
 132.1165210 104.2900920  48.9721270 132.5924930 104.7683810  49.6510350
 132.7372370 104.2218410  48.2466770 125.3815200 105.1841770  44.7016090
 125.8959870 105.0949780  45.5038520 124.5384280 105.5301470  44.9944000
 127.3569600 105.4697110  34.1300090 127.1970740 105.1800050  35.0281920
 127.1916310 104.6937240  33.5945320 127.0595730 102.9784670  32.6898090
 126.3660890 102.9761960  32.0300370 127.8018590 102.5543990  32.2592260
 126.6245660 104.6047380  36.7646580 127.0802610 103.8236760  37.0785200
 126.9638180 105.3154200  37.3087760 131.3722470  93.5346230  47.0971020
 130.7566740  94.0425900  46.5686480 131.0518890  92.6344560  47.0396960
 119.1466980  89.5069600  38.9597890 118.7035130  90.2879140  38.6282410
 119.7051970  89.8299490  39.6668830 123.4336790  92.3738120  44.5633210
 122.9716160  92.5821140  45.3753150 123.0314900  91.5597470  44.2603880
 122.2625800  89.1280300  33.8403720 121.6379980  89.1240170  34.5657030
 122.1755920  88.2611260  33.4439690 121.1842880  90.0516930  40.8187490
 121.4815210  90.9579760  40.7379510 121.7328440  89.5635710  40.2047060
 118.9381200  94.6303170  36.6879140 118.7122120  94.4140340  37.5925760
 118.1573730  95.0631630  36.3425110 126.1678960  94.6366540  35.2869790
 125.5687850  95.3602340  35.1033410 126.7158570  94.5743320  34.5046240
 121.3780410  95.5288750  47.3539410 121.2824010  94.5883480  47.2039810
 122.2212390  95.7503820  46.9587480 123.0836000  92.0237390  48.5769930
 122.3934320  91.8309590  49.2116020 123.8268300  92.3072030  49.1094230
 113.8108000  89.8630880  39.5403270 113.5221050  90.4333740  40.2528250
 114.5553760  89.3835330  39.9034500 113.9978230  93.8051000  30.7505990
 113.9152900  94.7481760  30.8920980 113.6461290  93.6625910  29.8718340
 125.3598970  95.8635830  41.4123850 124.6280090  96.3722640  41.7613950
 124.9623310  95.0465810  41.1112630 117.6478740  92.4216520  38.7770550
 117.3078790  92.8991750  39.5337600 116.8856060  91.9681640  38.4171650
 121.8596510  93.5402110  32.8083100 121.9809330  93.4988590  33.7568920
 121.4745020  94.4026260  32.6529830 125.8224880  91.3169510  40.8246790
 125.8397620  91.7678160  41.6688640 125.5740460  90.4175150  41.0380230
 120.8718010  95.8503250  32.2066400 120.3034910  95.4021500  31.5802310
 121.5807010  96.2096030  31.6731550 129.2495630  88.7301690  46.6633170
 129.5741400  87.9991350  47.1891150 129.2852140  88.4115330  45.7614160
 115.9487190  99.7515270  46.0833130 115.5641980  99.1108940  46.6816090
 116.2599380 100.4551390  46.6527860 122.0984330  96.5991810  41.5641750
 122.4654460  96.1250380  42.3103090 121.9089390  97.4733380  41.9050090
 114.9624820  91.3435500  37.6935220 114.6771740  90.9791170  38.5313840
 114.9003680  90.6115960  37.0798360 119.8883700  95.6400450  43.8825960
 119.5840770  96.5192430  44.1076320 120.8430160  95.7000240  43.9183400
 129.1753470  98.8426800  40.2719200 129.8952590  99.3382090  39.8815310
 128.9735290  98.1644690  39.6273070 124.6363410  90.2364760  34.4148590
 123.8228020  89.7377930  34.3393900 124.4425360  91.0763010  33.9984940
 127.3511800  94.6084410  32.7110750 128.2391420  94.9201640  32.5362090
 127.3216890  93.7356660  32.3191330 123.3472390 100.7808100  33.3898920
 123.6888090 101.5250330  32.8942240 122.5185100 101.0939220  33.7523750
 119.1460550  96.9387430  47.9136870 118.8460690  97.0844610  47.0164690
 119.9171790  96.3792720  47.8210260 129.6226070  95.9196250  32.1790610
 129.5389790  96.3510470  31.3287050 130.3420260  96.3794600  32.6117430
 130.6513320 102.7738510  34.9072740 130.0089480 102.1194130  35.1816460
 130.2643980 103.1793600  34.1313410 126.2299800 100.1023940  38.7544430
 126.5823620  99.5052070  38.0945800 125.3462130  99.7768170  38.9252680
 114.4555480  96.4794450  31.6531920 115.3250330  96.7619250  31.9367840
 113.9645800  97.2930320  31.5380730 121.6190290  97.8667660  35.7740200
 122.0753070  98.6772910  36.0000390 121.2678500  97.5490800  36.6058690
 117.5202070  88.2105310  36.2462720 117.3916700  88.2023210  37.1947640
 116.6964090  88.5488400  35.8953730 129.0410700 101.6654970  31.4449090
 128.8148280 100.9485410  32.0373730 128.6506900 101.4167410  30.6070840
 114.8226730 105.6921830  32.2193550 115.1824370 106.2911170  31.5650820
 114.6819070 106.2381720  32.9928580 128.6226950  99.5826910  33.1063250
 128.3348650 100.0439600  33.8941130 129.4179120  99.1224680  33.3747470
 114.8068590 103.9576690  46.6935950 114.9159710 103.0171430  46.5531340
 114.1549150 104.2231440  46.0449680 116.4401990  98.2967920  33.7813980
 115.8329940  99.0366820  33.7909280 116.9151340  98.3867280  32.9552180
 126.0134780  92.4618740  43.4570870 126.3815600  91.6413950  43.7850440
 125.1532980  92.5220630  43.8726520 129.3796810  91.4175680  34.2658430
 128.7509970  91.5221350  33.5516660 128.8848730  91.6372460  35.0552310
 123.8254950 103.1381270  31.6992410 123.9266930 102.9345260  30.7694390
 122.9256690 102.8839550  31.9040190 121.3480840  93.6961630  35.6816310
 120.6396990  94.1647970  36.1229920 121.6325320  93.0383640  36.3161500
 122.9736770  95.1158330  43.6808840 123.4722020  95.5904150  44.3460690
 123.1159720  94.1921850  43.8878870 125.3796270  90.4212290  37.1212100
 125.2564050  90.4398420  36.1721610 126.3280830  90.4691230  37.2410500
 122.4673060 105.6567590  36.3940080 122.7214560 105.6188980  35.4719450
 121.5185540 105.5300920  36.3868330 119.5515860  92.0046710  33.0567020
 120.4006390  92.4416860  32.9907210 119.1847130  92.3166970  33.8839080
 130.1803630  91.3326290  44.5237230 129.6777230  92.0731690  44.8631040
 130.9960290  91.7210290  44.2074020 128.4725640  96.5759470  37.9698590
 127.5315780  96.5909700  38.1446280 128.7869710  95.7895430  38.4158890
 118.4507280  98.2579070  31.5302550 119.2170550  98.1460430  32.0927980
 118.5281970  97.5617040  30.8779320 117.1454040  95.6904140  32.2135440
 117.2257630  94.7431650  32.3252840 118.0373790  96.0211020  32.3196100
 130.4751220 103.7468320  39.6452850 130.5998640 104.5699490  40.1176660
 131.3416780 103.5359050  39.2977000 116.9527030 105.0245600  48.5055560
 117.7539760 105.3457650  48.9190960 116.4378850 104.6641180  49.2275470
 121.0571060 105.0129840  31.1395550 121.8499670 105.3018670  30.6877340
 120.5375410 104.5822010  30.4608030 127.2192030 104.8605760  47.0640380
 128.1713780 104.7763780  47.0140620 127.0720250 105.5247470  47.7374170
 130.1101230 104.2399970  32.5632290 129.8242740 103.8265110  31.7486470
 129.9120780 105.1687680  32.4432810 114.6724840  97.5119060  47.4491610
 115.1763860  96.9326340  48.0207840 113.9332260  97.7959290  47.9867980
 121.5748460 100.2333250  31.0037900 121.4699100  99.6185600  31.7299280
 121.4072680  99.7099140  30.2200910 124.8151190  99.2953280  31.6079890
 124.2661290  99.7422580  32.2522630 125.4370450  98.7902530  32.1317560
 116.7047920  95.6548650  48.3441680 116.7453260  95.3562520  49.2526910
 117.5593420  96.0556260  48.1849200 120.4826310  98.2544200  33.5045190
 120.9042730  98.0884070  34.3476580 120.6077150  97.4444430  33.0100330
 118.6453730  94.2340750  46.3116170 118.1150190  93.7431700  45.6839510
 119.3141800  94.6624950  45.7774100 122.9953950  97.2781810  30.7522290
 123.5159610  96.5630830  30.3863440 123.6422350  97.9167680  31.0522800
 119.1326030  91.2003120  46.3913460 119.0382900  90.5823870  45.6664330
 118.5523420  91.9269410  46.1643370 121.8987470  89.7576360  43.4240850
 121.4504770  89.7800620  42.5786400 121.2652670  89.3595380  44.0211150
 119.3785210  94.3277430  30.4503350 119.1774270  93.4644790  30.8116690
 119.2077260  94.2410790  29.5124950 120.1554440 104.9583700  45.1611020
 119.6175530 105.6829760  44.8419720 120.4088400 104.4814040  44.3708360
 121.4079690  92.9268220  46.6866950 121.9979380  92.6184070  47.3744770
 120.5899930  92.4547970  46.8426850 126.2273120  92.5434030  46.9199970
 125.5388640  91.8815570  46.8549960 126.9479140  92.0972300  47.3648430
 126.8573520  89.1385660  32.9790230 127.1375810  88.2953560  33.3349650
 126.0839250  89.3708770  33.4928980 118.1768010  91.4278050  30.4381230
 118.4793910  91.4345480  29.5300380 118.9162600  91.0775910  30.9348890
 123.0116650 106.1934910  45.4197670 122.9375350 107.0970050  45.7270040
 122.1095490 105.8746810  45.3919740 121.3952940  90.3712670  31.4237430
 121.0474940  89.6936660  30.8439880 121.5965710  89.9102180  32.2380820
 123.5601980 105.3593420  33.0424030 124.4552770 105.6978390  33.0642790
 123.5919610 104.6372830  32.4148310 117.1998140 100.7320470  31.2711030
 117.6373010 101.2750140  31.9268610 117.6845870  99.9067420  31.2807370
 114.4143940 103.5209500  38.7231290 114.7446950 102.6530560  38.4909930
 114.8434940 103.7268020  39.5536250 114.9034150 104.3880090  41.4612920
 114.4665140 104.5680890  42.2937070 115.4711830 105.1454710  41.3194640
 130.5396330 103.8897090  45.7490230 129.9398320 103.9489650  45.0054150
 130.6690230 102.9502070  45.8787080 131.7797780 101.6314910  31.0859940
 130.9490740 101.6991560  31.5567170 131.9569610 102.5219030  30.7826800
 131.2354240  98.3762390  33.5894140 131.9973150  98.9459040  33.6953830
 131.2508610  97.8089590  34.3602450 132.2414210  99.2312490  38.4336070
 132.6123040  98.4479810  38.0272040 132.8816140  99.9201590  38.2553370
 131.2873410  98.6696760  30.7466660 131.5622250  99.5775640  30.6185880
 131.0984150  98.6059290  31.6828650 127.6849020  91.6941610  32.0420290
 128.1033900  91.5072590  31.2016950 127.3785080  90.8420660  32.3523220
 131.1838750  96.6065750  35.7396090 130.8082350  95.8393680  35.3077380
 130.4541870  96.9888450  36.2271020 129.0126440  90.9793700  48.1515310
 129.8896620  90.9877100  48.5349310 129.0247280  90.2424540  47.5407660
 113.9496660  94.1099250  33.7627130 113.0460740  94.3729450  33.5878790
 114.4337280  94.3810420  32.9827090 130.4589710  94.8323240  39.0403330
 130.9827190  94.3385890  38.4093500 131.0449130  94.9673600  39.7850900
 130.6379430  94.9163110  42.5622880 129.6882140  94.8826650  42.6767870
 130.8192440  95.8263220  42.3272650 116.4923870  93.1664790  31.6721510
 117.2015570  92.7448010  31.1868790 115.7763810  93.2340020  31.0404860
 116.1398030  89.2204120  30.7124160 116.8626160  89.7613060  31.0305380
 116.4122550  88.9467540  29.8365700 129.9489680  94.0896590  34.9795740
 130.4448800  93.8567460  35.7644620 129.7505750  93.2508430  34.5633380
 115.8290220  88.4710310  40.6146780 116.4766410  87.9207690  40.1741940
 116.2492060  88.7253460  41.4362590 131.3776840  92.7257540  37.5133420
 131.2676120  92.5713580  38.4515690 132.1384430  92.1978480  37.2708830
 129.7242560  88.6651670  43.9716420 130.3614780  89.2785810  44.3375610
 129.8717450  88.7012330  43.0265650 132.2667110  90.5565460  30.7539560
 133.1916420  90.4246640  30.5457850 132.2442900  90.6358280  31.7076010
 132.3405600  91.3276120  33.3796270 131.5457100  91.2621240  33.9089180
 132.5448880  92.2626760  33.3681620 129.2824020 105.3667670  37.3734660
 129.8783090 105.0452240  36.6969080 129.5402170 104.8939490  38.1647930
 117.1886590 101.7985580  47.5225290 117.1456220 101.4278490  48.4039750
 117.3197600 102.7363150  47.6627110 123.0947040  89.8177860  46.8791520
 123.0335930  90.4099690  47.6286930 124.0347420  89.7103820  46.7341780
 125.7321600  89.4747920  46.5183810 126.3462010  89.7927210  45.8564890
 126.2771160  88.9896510  47.1379670 132.1496780 105.3739550  43.9245650
 131.6555060 105.7708420  43.2072780 131.5410070 104.7488760  44.3182930
 116.2542860  88.1542180  46.6322870 116.8025850  87.9730230  45.8688980
 116.3198170  87.3636290  47.1679180 117.0274620 104.7447830  44.6423070
 116.4334940 104.6132530  45.3813110 117.0198460 103.9085970  44.1765170
 126.4729640  88.0380060  42.8453100 125.5989480  88.3715170  42.6426030
 126.3640390  87.5653240  43.6704970 127.3801620  90.2450930  44.2294820
 127.0514980  89.4302690  43.8496550 128.3283920  90.2020740  44.1060510
 129.8336230 106.0162970  41.2032390 129.3739200 106.7678780  40.8290410
 129.2048690 105.2969440  41.1447190 124.2204460  88.9549900  41.7846010
 123.4376250  89.4295400  42.0642770 123.9267390  88.0504730  41.6759190
 128.7725530  89.6573000  39.8295100 129.2133620  89.6018100  38.9816700
 128.5033120  90.5731010  39.9005280 130.6364100  89.2888240  37.8403920
 130.5752500  88.3449460  37.6934940 131.4156130  89.3968330  38.3857380
 114.9416850 105.4280600  36.8027870 114.7738890 104.7951280  37.5009760
 114.0751360 105.6340000  36.4522060 115.5644870  89.2597380  34.3059730
 116.3224230  89.3726260  33.7323760 115.1022040  90.0966580  34.2603160
 126.6083660  88.0379100  38.5345110 127.2113030  88.6099310  39.0093630
 125.8676650  88.6018540  38.3119010 129.7518260  88.4400660  33.8085390
 129.9468890  89.3384110  34.0752820 128.9648130  88.2087740  34.3018340
 117.9370020  89.7861430  32.8461700 118.4662780  88.9991230  32.7169650
 118.5698340  90.4652620  33.0797230 120.1307860  89.5236570  35.9007090
 119.5010600  88.8223880  36.0677220 119.5913000  90.2840700  35.6840250
 123.0699810 106.1375800  48.5717700 123.9967120 105.9020070  48.6153660
 123.0550240 106.9647800  48.0903730 131.3044870 105.6801370  35.5691950
 131.4797060 104.9939110  34.9252870 130.6066440 106.2048420  35.1768620
 120.2563420  88.8020550  48.3359580 119.9747690  89.3054150  47.5720400
 120.6383120  88.0042300  47.9701710 126.8578880  88.2174130  48.9140050
 126.7444330  88.5368740  49.8091570 127.6748620  88.6186640  48.6177330
 129.6377370 105.3645660  48.3958740 130.4302690 104.8694890  48.1884700
 129.9310520 106.0435800  49.0034350 125.7637030  96.2366600  19.2774790
 125.6831080  95.3221210  19.0066500 125.3501450  96.7333670  18.5714500
 123.8955070  98.0145620  21.1584060 123.1197170  97.5346060  21.4482630
 124.5468000  97.3351270  20.9840220 117.9120900  98.3265430  22.0359820
 117.0805780  98.0714140  22.4356330 118.5201880  98.3976200  22.7717740
 127.9162500 102.4205810  19.9383190 127.4544030 101.6493050  20.2670360
 128.7288050 102.4471880  20.4435640 117.8922160 102.3605520  22.2317840
 118.1950200 101.4703260  22.0528060 118.6365750 102.9175740  22.0040090
 116.3212850  93.2867320  15.8202210 115.4329550  93.6283290  15.7182090
 116.6054040  93.0867640  14.9283040 114.2845860  95.8872970  21.7041910
 114.8561970  95.1195170  21.7045550 114.2847400  96.1861730  20.7948520
 124.1425810 104.7063820  19.5587180 123.5237250 105.1621320  18.9881620
 124.9977590 104.8615280  19.1576880 123.3364060 100.6902810  21.1654220
 123.2672340  99.7492750  21.0043350 124.0983920 100.7804220  21.7376790
 115.5270730  91.2957330  23.4910840 115.3473570  90.3983080  23.7713600
 115.1250810  91.8429200  24.1657790 124.3669230  93.4973190  21.3923150
 124.7434050  92.6245070  21.2796820 124.2688740  93.8331890  20.5013590
 118.4974240  91.8698820  16.8540590 118.6040990  92.7702550  17.1609350
 117.5866600  91.8216790  16.5635240 128.1493350  90.9923630  18.3251490
 128.9702970  90.5020200  18.3676970 128.1827430  91.5821290  19.0783330
 116.1457400  93.7917830  22.0993180 116.8267510  94.0556200  22.7180580
 115.8305450  92.9518700  22.4331190 120.3381970  94.8385190  21.1865770
 120.8460190  95.3366160  21.8270790 120.8695210  94.0620390  21.0105130
 132.4392900  93.0090380  24.8895120 131.7345070  93.3972090  24.3710230
 132.7050820  93.7040670  25.4916050 118.6218070  89.4783750  25.4529190
 118.6236510  89.9956140  24.6475090 117.7922380  89.0013930  25.4299120
 125.0089160  99.5903060  16.9519090 124.3906430 100.0552510  16.3881810
 125.5212410 100.2830540  17.3688600 119.8720920  99.1178930  23.6302690
 119.5390300  99.7447850  24.2723760 120.0487600  99.6440810  22.8504360
 128.3854830  92.9324010  21.0979030 127.6810400  93.2208900  21.6782140
 128.7466990  93.7424120  20.7378590 118.3033400  91.1893710  23.4599640
 118.6450210  92.0335760  23.1653510 117.3649210  91.3377450  23.5764980
 119.0840020 101.0859730  25.4451870 119.7014020 101.7610810  25.1636320
 118.2233140 101.4947710  25.3539370 114.3772360 100.2759590  14.3258720
 114.0000340 100.7646690  13.5943620 114.6345430 100.9484870  14.9565250
 130.0017610 102.5499140  23.3606510 129.3181130 103.2198250  23.3523180
 130.5411900 102.7479790  22.5951370 131.4541750  92.3778800  21.4888240
 130.5066660  92.4117780  21.6203670 131.7791740  93.1917750  21.8737600
 121.9861290  88.6775980  19.7844230 122.2936270  88.1222870  19.0679730
 121.0561990  88.8120440  19.6017220 127.5376350 104.3943270  22.0751690
 127.5503510 103.9905560  21.2073950 126.9851570 105.1690560  21.9713120
 128.8321770 101.1159490  17.1641860 128.7218100 100.1733820  17.2891280
 128.8290020 101.4775130  18.0504620 126.9361790  99.2973110  23.4034300
 127.3530580  99.0833220  22.5687760 127.6601610  99.5545900  23.9742920
 124.3742050  96.7424810  16.5204350 123.4471330  96.6762190  16.7492820
 124.5266870  97.6804940  16.4059590 124.3611130  93.0141810  13.5171510
 123.4214800  93.1755770  13.6023970 124.6794390  93.7327490  12.9707500
 130.8823890  97.6960330  23.4950540 130.0542520  97.7653420  23.0200670
 131.4774370  98.2814640  23.0266370 128.4039340  98.3045110  17.0239600
 127.7851760  97.9664660  16.3765900 128.3863790  97.6604870  17.7318790
 127.8465900  94.4829650  24.4405410 127.4337080  95.3083360  24.6945400
 127.1141850  93.8974690  24.2481770 119.9798690  97.2689550  19.3024080
 119.5755690  96.5566800  18.8069980 120.0661810  96.9242790  20.1912120
 120.4480390 100.9557110  21.4663290 120.1508680 100.3502580  20.7871070
 121.3980210 100.9934420  21.3552650 118.6927310  94.0432760  23.0823120
 119.2441900  94.1528100  22.3076370 119.2070820  94.4170360  23.7978350
 128.5366000 104.5288980  25.1286390 128.0596560 105.3361170  24.9359000
 127.8527790 103.8767310  25.2812600 119.5398820 100.6938800  28.1171090
 118.6427350 100.9178770  28.3644490 119.5651690 100.8173740  27.1682490
 126.5804040  97.5431920  14.0312350 127.0197320  96.7054350  13.8850170
 127.2932460  98.1761320  14.1176490 118.3670040  97.5652120  26.6928460
 118.2277810  98.4374920  27.0615860 117.4851400  97.2224930  26.5476400
 124.6899420 102.4827990  17.9993590 125.1295330 103.2252320  17.5848980
 124.6286310 102.7254560  18.9232550 120.1650390 103.5073820  28.9013610
 120.1365820 103.9116770  28.0342040 120.0015360 102.5784180  28.7385210
 130.1621180  88.7974730  12.3453390 129.8493840  88.8901560  13.2452460
 130.9233650  89.3755760  12.2950820 116.6803320  96.1634530  16.8030730
 116.5600920  96.8896620  16.1912000 116.3704210  95.3937440  16.3258640
 132.1165210 104.2900920  30.1977780 132.5924930 104.7683810  30.8766860
 132.7372370 104.2218410  29.4723280 114.3188690  99.3349670  22.6099370
 114.3969110  99.4698440  21.6655090 114.9330370  98.6265560  22.8027490
 115.5636320 101.0349860  19.0205550 115.1564400 101.1764450  18.1659150
 116.4549330 100.7510020  18.8176760 131.5198460 101.4813770  27.3577790
 131.6461520 101.2425650  26.4394970 131.5619840 100.6498310  27.8299870
 125.3815200 105.1841770  25.9272600 125.8959870 105.0949780  26.7295030
 124.5384280 105.5301470  26.2200510 127.3569600 105.4697110  15.3556600
 127.1970740 105.1800050  16.2538430 127.1916310 104.6937240  14.8201830
 119.8357980 105.2495640  17.1328220 119.6600460 104.3331180  16.9196020
 118.9813720 105.6082930  17.3726020 127.0595730 102.9784670  13.9154600
 126.3660890 102.9761960  13.2556880 127.8018590 102.5543990  13.4848770
 126.6245660 104.6047380  17.9903090 127.0802610 103.8236760  18.3041710
 126.9638180 105.3154200  18.5344270 131.3722470  93.5346230  28.3227530
 130.7566740  94.0425900  27.7942990 131.0518890  92.6344560  28.2653470
 114.3748210 100.3763840  25.1493830 114.5379250  99.9069200  24.3313200
 114.8400660  99.8687400  25.8142670 119.1466980  89.5069600  20.1854400
 118.7035130  90.2879140  19.8538920 119.7051970  89.8299490  20.8925340
 123.4336790  92.3738120  25.7889720 122.9716160  92.5821140  26.6009660
 123.0314900  91.5597470  25.4860390 128.4341300  93.5947070  26.9186380
 127.5834890  93.2952820  27.2395450 128.2743090  93.8389080  26.0070200
 125.5291010  95.0948820  29.0185170 125.8544420  94.2612570  28.6787400
 126.3171340  95.6177340  29.1663500 122.2625800  89.1280300  15.0660230
 121.6379980  89.1240170  15.7913540 122.1755920  88.2611260  14.6696200
 121.1842880  90.0516930  22.0444000 121.4815210  90.9579760  21.9636020
 121.7328440  89.5635710  21.4303570 118.9381200  94.6303170  17.9135650
 118.7122120  94.4140340  18.8182270 118.1573730  95.0631630  17.5681620
 126.1678960  94.6366540  16.5126300 125.5687850  95.3602340  16.3289920
 126.7158570  94.5743320  15.7302750 121.3780410  95.5288750  28.5795920
 121.2824010  94.5883480  28.4296320 122.2212390  95.7503820  28.1843990
 124.7743830  93.2730080  18.5429580 125.1673400  93.5902280  17.7298270
 125.1360680  92.3941960  18.6574100 116.5090950  91.9402420  26.7329700
 116.1154340  92.7877630  26.9402480 115.8209350  91.3028790  26.9238340
 123.0836000  92.0237390  29.8026440 122.3934320  91.8309590  30.4372530
 123.8268300  92.3072030  30.3350740 113.8108000  89.8630880  20.7659780
 113.5221050  90.4333740  21.4784760 114.5553760  89.3835330  21.1291010
 113.9978230  93.8051000  11.9762500 113.9152900  94.7481760  12.1177490
 113.6461290  93.6625910  11.0974850 125.3598970  95.8635830  22.6380360
 124.6280090  96.3722640  22.9870460 124.9623310  95.0465810  22.3369140
 121.7976360  92.5390030  21.0432850 121.8012420  92.0979980  20.1937390
 122.6927480  92.8607360  21.1504670 117.6478740  92.4216520  20.0027060
 117.3078790  92.8991750  20.7594110 116.8856060  91.9681640  19.6428160
 121.8596510  93.5402110  14.0339610 121.9809330  93.4988590  14.9825430
 121.4745020  94.4026260  13.8786340 125.8224880  91.3169510  22.0503300
 125.8397620  91.7678160  22.8945150 125.5740460  90.4175150  22.2636740
 120.8718010  95.8503250  13.4322910 120.3034910  95.4021500  12.8058820
 121.5807010  96.2096030  12.8988060 129.2495630  88.7301690  27.8889680
 129.5741400  87.9991350  28.4147660 129.2852140  88.4115330  26.9870670
 115.9487190  99.7515270  27.3089640 115.5641980  99.1108940  27.9072600
 116.2599380 100.4551390  27.8784370 122.0984330  96.5991810  22.7898260
 122.4654460  96.1250380  23.5359600 121.9089390  97.4733380  23.1306600
 114.9624820  91.3435500  18.9191730 114.6771740  90.9791170  19.7570350
 114.9003680  90.6115960  18.3054870 119.8883700  95.6400450  25.1082470
 119.5840770  96.5192430  25.3332830 120.8430160  95.7000240  25.1439910
 118.4165490  99.8461440  15.7049320 117.6427750  99.3059060  15.5448040
 119.1460120  99.3268050  15.3667080 129.1753470  98.8426800  21.4975710
 129.8952590  99.3382090  21.1071820 128.9735290  98.1644690  20.8529580
 124.6363410  90.2364760  15.6405100 123.8228020  89.7377930  15.5650410
 124.4425360  91.0763010  15.2241450 124.5572270  98.9135860  27.3844710
 124.4909580  97.9931530  27.1302300 123.9277410  99.0111300  28.0989350
 127.3511800  94.6084410  13.9367260 128.2391420  94.9201640  13.7618600
 127.3216890  93.7356660  13.5447840 118.4602890  99.5141820  19.3428130
 118.9781560  98.7110080  19.2885020 118.0086910  99.4520960  20.1844960
 123.3472390 100.7808100  14.6155430 123.6888090 101.5250330  14.1198750
 122.5185100 101.0939220  14.9780260 115.9447430  96.4803190  26.2553830
 115.5862370  97.1457040  26.8427170 115.6501990  95.6486740  26.6266450
 119.1460550  96.9387430  29.1393380 118.8460690  97.0844610  28.2421200
 119.9171790  96.3792720  29.0466770 124.4889000 101.7356430  27.1348510
 124.5033540 100.8037390  26.9167420 123.7814100 101.8216190  27.7738280
 129.6226070  95.9196250  13.4047120 129.5389790  96.3510470  12.5543560
 130.3420260  96.3794600  13.8373940 130.7000210  98.3763770  26.4817090
 129.9748400  98.9692550  26.2846480 131.2275670  98.3687310  25.6830460
 130.6513320 102.7738510  16.1329250 130.0089480 102.1194130  16.4072970
 130.2643980 103.1793600  15.3569920 126.2299800 100.1023940  19.9800940
 126.5823620  99.5052070  19.3202310 125.3462130  99.7768170  20.1509190
 122.3163080 100.8621630  17.3871350 123.0034210 101.4090840  17.7678940
 121.5295500 101.4062360  17.4220960 114.4555480  96.4794450  12.8788430
 115.3250330  96.7619250  13.1624350 113.9645800  97.2930320  12.7637240
 121.6190290  97.8667660  16.9996710 122.0753070  98.6772910  17.2256900
 121.2678500  97.5490800  17.8315200 123.9222900 103.3774000  24.2289010
 124.5665120 103.5833380  24.9062430 124.2852340 102.6162400  23.7759860
 117.5202070  88.2105310  17.4719230 117.3916700  88.2023210  18.4204150
 116.6964090  88.5488400  17.1210240 125.1954980 101.3806350  22.9466460
 125.8377210 100.6799510  23.0598630 125.7204330 102.1604790  22.7663350
 129.0410700 101.6654970  12.6705600 128.8148280 100.9485410  13.2630240
 128.6506900 101.4167410  11.8327350 126.9692600 102.1801250  26.1502520
 127.3048840 102.7667940  26.8280440 126.0492940 102.0493960  26.3800310
 114.8226730 105.6921830  13.4450060 115.1824370 106.2911170  12.7907330
 114.6819070 106.2381720  14.2185090 114.5196000  89.9696430  26.9325930
 113.8054520  90.1693350  27.5378540 114.9391040  89.1936000  27.3040730
 128.6226950  99.5826910  14.3319760 128.3348650 100.0439600  15.1197640
 129.4179120  99.1224680  14.6003980 114.8068590 103.9576690  27.9192460
 114.9159710 103.0171430  27.7787850 114.1549150 104.2231440  27.2706190
 122.7981180 102.2292580  29.3190580 122.4778050 101.5101820  29.8636270
 122.1239540 102.9047650  29.3926640 120.8395350 103.0753030  14.2623730
 120.8305450 103.8082720  13.6468240 119.9193710 102.8284610  14.3550690
 116.4401990  98.2967920  15.0070490 115.8329940  99.0366820  15.0165790
 116.9151340  98.3867280  14.1808690 126.0134780  92.4618740  24.6827380
 126.3815600  91.6413950  25.0106950 125.1532980  92.5220630  25.0983030
 129.3796810  91.4175680  15.4914940 128.7509970  91.5221350  14.7773170
 128.8848730  91.6372460  16.2808820 123.8254950 103.1381270  12.9248920
 123.9266930 102.9345260  11.9950900 122.9256690 102.8839550  13.1296700
 121.3480840  93.6961630  16.9072820 120.6396990  94.1647970  17.3486430
 121.6325320  93.0383640  17.5418010 122.9736770  95.1158330  24.9065350
 123.4722020  95.5904150  25.5717200 123.1159720  94.1921850  25.1135380
 125.3796270  90.4212290  18.3468610 125.2564050  90.4398420  17.3978120
 126.3280830  90.4691230  18.4667010 122.4673060 105.6567590  17.6196590
 122.7214560 105.6188980  16.6975960 121.5185540 105.5300920  17.6124840
 119.5515860  92.0046710  14.2823530 120.4006390  92.4416860  14.2163720
 119.1847130  92.3166970  15.1095590 130.1803630  91.3326290  25.7493740
 129.6777230  92.0731690  26.0887550 130.9960290  91.7210290  25.4330530
 128.4725640  96.5759470  19.1955100 127.5315780  96.5909700  19.3702790
 128.7869710  95.7895430  19.6415400 118.4507280  98.2579070  12.7559060
 119.2170550  98.1460430  13.3184490 118.5281970  97.5617040  12.1035830
 117.1454040  95.6904140  13.4391950 117.2257630  94.7431650  13.5509350
 118.0373790  96.0211020  13.5452610 130.4751220 103.7468320  20.8709360
 130.5998640 104.5699490  21.3433170 131.3416780 103.5359050  20.5233510
 117.9468750 105.8399530  20.5426490 118.6831230 105.2914990  20.8135060
 118.3309670 106.7055540  20.4032480 114.8314230 101.9073100  16.4168000
 113.9054010 102.1494240  16.4073410 115.2970660 102.7347360  16.2952750
 116.9527030 105.0245600  29.7312070 117.7539760 105.3457650  30.1447470
 116.4378850 104.6641180  30.4531980 121.0571060 105.0129840  12.3652060
 121.8499670 105.3018670  11.9133850 120.5375410 104.5822010  11.6864540
 125.7891660 101.1325470  29.6787480 125.1829820 101.1557070  28.9383230
 125.4845770 100.4008510  30.2154730 127.2192030 104.8605760  28.2896890
 128.1713780 104.7763780  28.2397130 127.0720250 105.5247470  28.9630680
 130.1101230 104.2399970  13.7888800 129.8242740 103.8265110  12.9742980
 129.9120780 105.1687680  13.6689320 114.6724840  97.5119060  28.6748120
 115.1763860  96.9326340  29.2464350 113.9332260  97.7959290  29.2124490
 121.5748460 100.2333250  12.2294410 121.4699100  99.6185600  12.9555790
 121.4072680  99.7099140  11.4457420 121.7262780  98.9190050  28.2083640
 120.9608450  99.4875050  28.1238310 121.9078740  98.6266260  27.3151870
 124.8151190  99.2953280  12.8336400 124.2661290  99.7422580  13.4779140
 125.4370450  98.7902530  13.3574070 128.8686130 100.6495380  28.7658660
 129.6095600 100.9871140  28.2626120 128.1058810 100.8187440  28.2128430
 116.7047920  95.6548650  29.5698190 116.7453260  95.3562520  30.4783420
 117.5593420  96.0556260  29.4105710 120.4826310  98.2544200  14.7301700
 120.9042730  98.0884070  15.5733090 120.6077150  97.4444430  14.2356840
 118.6453730  94.2340750  27.5372680 118.1150190  93.7431700  26.9096020
 119.3141800  94.6624950  27.0030610 122.9953950  97.2781810  11.9778800
 123.5159610  96.5630830  11.6119950 123.6422350  97.9167680  12.2779310
 127.5431790  98.7010210  27.3013870 127.9572810  98.8555290  28.1504290
 126.6082790  98.8265430  27.4639650 128.0153960  96.0406370  29.3053020
 128.5974730  95.2858690  29.2173500 128.1915730  96.5713810  28.5284500
 119.1326030  91.2003120  27.6169970 119.0382900  90.5823870  26.8920840
 118.5523420  91.9269410  27.3899880 121.8987470  89.7576360  24.6497360
 121.4504770  89.7800620  23.8042910 121.2652670  89.3595380  25.2467660
 122.3047020  98.6530690  25.2709800 122.7235130  99.4963420  25.0986040
 121.3855650  98.7902730  25.0416580 124.6410920  96.3846870  26.6547640
 124.7607130  95.7888010  27.3942480 125.5004920  96.4216560  26.2348940
 126.9798820  96.9384060  25.2310150 126.4534040  97.4626680  24.6275290
 127.3230160  97.5711450  25.8619880 119.3785210  94.3277430  11.6759860
 119.1774270  93.4644790  12.0373200 119.2077260  94.2410790  10.7381460
 120.1554440 104.9583700  26.3867530 119.6175530 105.6829760  26.0676230
 120.4088400 104.4814040  25.5964870 121.4079690  92.9268220  27.9123460
 121.9979380  92.6184070  28.6001280 120.5899930  92.4547970  28.0683360
 126.2273120  92.5434030  28.1456480 125.5388640  91.8815570  28.0806470
 126.9479140  92.0972300  28.5904940 126.8573520  89.1385660  14.2046740
 127.1375810  88.2953560  14.5606160 126.0839250  89.3708770  14.7185490
 118.1768010  91.4278050  11.6637740 118.4793910  91.4345480  10.7556890
 118.9162600  91.0775910  12.1605400 123.0116650 106.1934910  26.6454180
 122.9375350 107.0970050  26.9526550 122.1095490 105.8746810  26.6176250
 121.3952940  90.3712670  12.6493940 121.0474940  89.6936660  12.0696390
 121.5965710  89.9102180  13.4637330 123.5601980 105.3593420  14.2680540
 124.4552770 105.6978390  14.2899300 123.5919610 104.6372830  13.6404820
 117.1998140 100.7320470  12.4967540 117.6373010 101.2750140  13.1525120
 117.6845870  99.9067420  12.5063880 114.4143940 103.5209500  19.9487800
 114.7446950 102.6530560  19.7166440 114.8434940 103.7268020  20.7792760
 119.0105860 101.8518510  17.6089770 118.7101400 101.7283480  18.5093680
 118.9043350 100.9927100  17.2005500 114.9034150 104.3880090  22.6869430
 114.4665140 104.5680890  23.5193580 115.4711830 105.1454710  22.5451150
 130.5396330 103.8897090  26.9746740 129.9398320 103.9489650  26.2310660
 130.6690230 102.9502070  27.1043590 131.7797780 101.6314910  12.3116450
 130.9490740 101.6991560  12.7823680 131.9569610 102.5219030  12.0083310
 131.2354240  98.3762390  14.8150650 131.9973150  98.9459040  14.9210340
 131.2508610  97.8089590  15.5858960 114.7358580  96.9000320  19.0458310
 114.0807420  96.6311960  18.4018010 115.5736530  96.7904800  18.5960290
 132.2414210  99.2312490  19.6592580 132.6123040  98.4479810  19.2528550
 132.8816140  99.9201590  19.4809880 129.2247970 100.6149070  25.0722900
 128.4107810 101.0446230  25.3348690 129.6322170 101.2267480  24.4591950
 131.2873410  98.6696760  11.9723170 131.5622250  99.5775640  11.8442390
 131.0984150  98.6059290  12.9085160 127.6849020  91.6941610  13.2676800
 128.1033900  91.5072590  12.4273460 127.3785080  90.8420660  13.5779730
 131.1838750  96.6065750  16.9652600 130.8082350  95.8393680  16.5333890
 130.4541870  96.9888450  17.4527530 115.7734510  97.2852890  23.5861650
 116.1407550  97.1980290  24.4657670 115.2045330  96.5219440  23.4868510
 130.5738370  95.7537270  26.5992120 130.3424460  95.5250020  25.6990070
 130.8342920  96.6736820  26.5537010 115.3250510  94.1961980  27.4920070
 114.4306560  94.1628740  27.8313780 115.8648060  94.3948770  28.2571320
 129.0126440  90.9793700  29.3771820 129.8896620  90.9877100  29.7605820
 129.0247280  90.2424540  28.7664170 113.9496660  94.1099250  14.9883640
 113.0460740  94.3729450  14.8135300 114.4337280  94.3810420  14.2083600
 130.4589710  94.8323240  20.2659840 130.9827190  94.3385890  19.6350010
 131.0449130  94.9673600  21.0107410 130.6379430  94.9163110  23.7879390
 129.6882140  94.8826650  23.9024380 130.8192440  95.8263220  23.5529160
 116.4923870  93.1664790  12.8978020 117.2015570  92.7448010  12.4125300
 115.7763810  93.2340020  12.2661370 116.1398030  89.2204120  11.9380670
 116.8626160  89.7613060  12.2561890 116.4122550  88.9467540  11.0622210
 129.9489680  94.0896590  16.2052250 130.4448800  93.8567460  16.9901130
 129.7505750  93.2508430  15.7889890 115.8290220  88.4710310  21.8403290
 116.4766410  87.9207690  21.3998450 116.2492060  88.7253460  22.6619100
 131.3776840  92.7257540  18.7389930 131.2676120  92.5713580  19.6772200
 132.1384430  92.1978480  18.4965340 129.7242560  88.6651670  25.1972930
 130.3614780  89.2785810  25.5632120 129.8717450  88.7012330  24.2522160
 132.2667110  90.5565460  11.9796070 133.1916420  90.4246640  11.7714360
 132.2442900  90.6358280  12.9332520 132.3405600  91.3276120  14.6052780
 131.5457100  91.2621240  15.1345690 132.5448880  92.2626760  14.5938130
 129.2824020 105.3667670  18.5991170 129.8783090 105.0452240  17.9225590
 129.5402170 104.8939490  19.3904440 115.5822220  88.6265980  24.5828610
 115.2337040  89.0829800  25.3486790 115.2509920  87.7323110  24.6651040
 117.1886590 101.7985580  28.7481800 117.1456220 101.4278490  29.6296260
 117.3197600 102.7363150  28.8883620 120.8892620 103.3545170  24.3491520
 120.6483980 103.6219730  23.4622040 121.8295260 103.5250900  24.4042380
 123.0947040  89.8177860  28.1048030 123.0335930  90.4099690  28.8543440
 124.0347420  89.7103820  27.9598290 125.7321600  89.4747920  27.7440320
 126.3462010  89.7927210  27.0821400 126.2771160  88.9896510  28.3636180
 132.1496780 105.3739550  25.1502160 131.6555060 105.7708420  24.4329290
 131.5410070 104.7488760  25.5439440 116.2542860  88.1542180  27.8579380
 116.8025850  87.9730230  27.0945490 116.3198170  87.3636290  28.3935690
 117.0274620 104.7447830  25.8679580 116.4334940 104.6132530  26.6069620
 117.0198460 103.9085970  25.4021680 126.4729640  88.0380060  24.0709610
 125.5989480  88.3715170  23.8682540 126.3640390  87.5653240  24.8961480
 127.3801620  90.2450930  25.4551330 127.0514980  89.4302690  25.0753060
 128.3283920  90.2020740  25.3317020 129.8336230 106.0162970  22.4288900
 129.3739200 106.7678780  22.0546920 129.2048690 105.2969440  22.3703700
 116.6586850 102.1106210  24.8187620 115.9320910 101.4911500  24.7513570
 116.7196000 102.5046820  23.9485700 120.2631950 104.3251210  21.6037030
 120.7796970 103.7138570  21.0785290 120.9129330 104.8279990  22.0948040
 123.0027450 105.2159700  22.4306010 123.2905260 104.9614000  21.5539020
 123.5150670 104.6637060  23.0211580 124.2204460  88.9549900  23.0102520
 123.4376250  89.4295400  23.2899280 123.9267390  88.0504730  22.9015700
 128.7725530  89.6573000  21.0551610 129.2133620  89.6018100  20.2073210
 128.5033120  90.5731010  21.1261790 130.6364100  89.2888240  19.0660430
 130.5752500  88.3449460  18.9191450 131.4156130  89.3968330  19.6113890
 114.9416850 105.4280600  18.0284380 114.7738890 104.7951280  18.7266270
 114.0751360 105.6340000  17.6778570 115.5644870  89.2597380  15.5316240
 116.3224230  89.3726260  14.9580270 115.1022040  90.0966580  15.4859670
 122.1058680  91.3736650  18.5218550 121.2933190  90.9993540  18.1814430
 122.6100320  90.6181730  18.8239740 126.6083660  88.0379100  19.7601620
 127.2113030  88.6099310  20.2350140 125.8676650  88.6018540  19.5375520
 129.7518260  88.4400660  15.0341900 129.9468890  89.3384110  15.3009330
 128.9648130  88.2087740  15.5274850 116.5479550 104.1213830  15.4734520
 116.0227170 104.5021860  14.7696480 116.4724130 104.7464600  16.1944230
 117.9370020  89.7861430  14.0718210 118.4662780  88.9991230  13.9426160
 118.5698340  90.4652620  14.3053740 120.1307860  89.5236570  17.1263600
 119.5010600  88.8223880  17.2933730 119.5913000  90.2840700  16.9096760
 123.0699810 106.1375800  29.7974210 123.9967120 105.9020070  29.8410170
 123.0550240 106.9647800  29.3160240 131.3044870 105.6801370  16.7948460
 131.4797060 104.9939110  16.1509380 130.6066440 106.2048420  16.4025130
 120.2563420  88.8020550  29.5616090 119.9747690  89.3054150  28.7976910
 120.6383120  88.0042300  29.1958220 119.1472520 106.0696210  14.3483770
 119.8791340 105.7855490  13.8007660 119.4066190 105.8309490  15.2383150
 118.3087310 102.1860940  14.3530100 117.6796190 102.6546040  14.9015930
 118.4235140 101.3410160  14.7876290 126.8578880  88.2174130  30.1396560
 126.7444330  88.5368740  31.0348080 127.6748620  88.6186640  29.8433840
 129.6377370 105.3645660  29.6215250 130.4302690 104.8694890  29.4141210
 129.9310520 106.0435800  30.2290860 123.8955070  98.0145620   2.3840570
 123.1197170  97.5346060   2.6739140 124.5468000  97.3351270   2.2096730
 117.9120900  98.3265430   3.2616330 117.0805780  98.0714140   3.6612840
 118.5201880  98.3976200   3.9974250 117.8922160 102.3605520   3.4574350
 118.1950200 101.4703260   3.2784570 118.6365750 102.9175740   3.2296600
 114.2845860  95.8872970   2.9298420 114.8561970  95.1195170   2.9302060
 114.2847400  96.1861730   2.0205030 123.3364060 100.6902810   2.3910730
 123.2672340  99.7492750   2.2299860 124.0983920 100.7804220   2.9633300
 115.5270730  91.2957330   4.7167350 115.3473570  90.3983080   4.9970110
 115.1250810  91.8429200   5.3914300 124.3669230  93.4973190   2.6179660
 124.7434050  92.6245070   2.5053330 124.2688740  93.8331890   1.7270100
 116.1457400  93.7917830   3.3249690 116.8267510  94.0556200   3.9437090
 115.8305450  92.9518700   3.6587700 120.3381970  94.8385190   2.4122280
 120.8460190  95.3366160   3.0527300 120.8695210  94.0620390   2.2361640
 132.4392900  93.0090380   6.1151630 131.7345070  93.3972090   5.5966740
 132.7050820  93.7040670   6.7172560 118.6218070  89.4783750   6.6785700
 118.6236510  89.9956140   5.8731600 117.7922380  89.0013930   6.6555630
 119.8720920  99.1178930   4.8559200 119.5390300  99.7447850   5.4980270
 120.0487600  99.6440810   4.0760870 128.3854830  92.9324010   2.3235540
 127.6810400  93.2208900   2.9038650 128.7466990  93.7424120   1.9635100
 118.3033400  91.1893710   4.6856150 118.6450210  92.0335760   4.3910020
 117.3649210  91.3377450   4.8021490 119.0840020 101.0859730   6.6708380
 119.7014020 101.7610810   6.3892830 118.2233140 101.4947710   6.5795880
 130.0017610 102.5499140   4.5863020 129.3181130 103.2198250   4.5779690
 130.5411900 102.7479790   3.8207880 131.4541750  92.3778800   2.7144750
 130.5066660  92.4117780   2.8460180 131.7791740  93.1917750   3.0994110
 127.5376350 104.3943270   3.3008200 127.5503510 103.9905560   2.4330460
 126.9851570 105.1690560   3.1969630 126.9361790  99.2973110   4.6290810
 127.3530580  99.0833220   3.7944270 127.6601610  99.5545900   5.1999430
 130.8823890  97.6960330   4.7207050 130.0542520  97.7653420   4.2457180
 131.4774370  98.2814640   4.2522880 127.8465900  94.4829650   5.6661920
 127.4337080  95.3083360   5.9201910 127.1141850  93.8974690   5.4738280
 120.4480390 100.9557110   2.6919800 120.1508680 100.3502580   2.0127580
 121.3980210 100.9934420   2.5809160 118.6927310  94.0432760   4.3079630
 119.2441900  94.1528100   3.5332880 119.2070820  94.4170360   5.0234860
 128.5366000 104.5288980   6.3542900 128.0596560 105.3361170   6.1615510
 127.8527790 103.8767310   6.5069110 119.5398820 100.6938800   9.3427600
 118.6427350 100.9178770   9.5901000 119.5651690 100.8173740   8.3939000
 118.3670040  97.5652120   7.9184970 118.2277810  98.4374920   8.2872370
 117.4851400  97.2224930   7.7732910 120.1650390 103.5073820  10.1270120
 120.1365820 103.9116770   9.2598550 120.0015360 102.5784180   9.9641720
 132.1165210 104.2900920  11.4234290 132.5924930 104.7683810  12.1023370
 132.7372370 104.2218410  10.6979790 114.3188690  99.3349670   3.8355880
 114.3969110  99.4698440   2.8911600 114.9330370  98.6265560   4.0284000
 131.5198460 101.4813770   8.5834300 131.6461520 101.2425650   7.6651480
 131.5619840 100.6498310   9.0556380 125.3815200 105.1841770   7.1529110
 125.8959870 105.0949780   7.9551540 124.5384280 105.5301470   7.4457020
 131.3722470  93.5346230   9.5484040 130.7566740  94.0425900   9.0199500
 131.0518890  92.6344560   9.4909980 114.3748210 100.3763840   6.3750340
 114.5379250  99.9069200   5.5569710 114.8400660  99.8687400   7.0399180
 123.4336790  92.3738120   7.0146230 122.9716160  92.5821140   7.8266170
 123.0314900  91.5597470   6.7116900 128.4341300  93.5947070   8.1442890
 127.5834890  93.2952820   8.4651960 128.2743090  93.8389080   7.2326710
 125.5291010  95.0948820  10.2441680 125.8544420  94.2612570   9.9043910
 126.3171340  95.6177340  10.3920010 121.1842880  90.0516930   3.2700510
 121.4815210  90.9579760   3.1892530 121.7328440  89.5635710   2.6560080
 121.3780410  95.5288750   9.8052430 121.2824010  94.5883480   9.6552830
 122.2212390  95.7503820   9.4100500 116.5090950  91.9402420   7.9586210
 116.1154340  92.7877630   8.1658990 115.8209350  91.3028790   8.1494850
 123.0836000  92.0237390  11.0282950 122.3934320  91.8309590  11.6629040
 123.8268300  92.3072030  11.5607250 113.8108000  89.8630880   1.9916290
 113.5221050  90.4333740   2.7041270 114.5553760  89.3835330   2.3547520
 125.3598970  95.8635830   3.8636870 124.6280090  96.3722640   4.2126970
 124.9623310  95.0465810   3.5625650 121.7976360  92.5390030   2.2689360
 121.8012420  92.0979980   1.4193900 122.6927480  92.8607360   2.3761180
 125.8224880  91.3169510   3.2759810 125.8397620  91.7678160   4.1201660
 125.5740460  90.4175150   3.4893250 129.2495630  88.7301690   9.1146190
 129.5741400  87.9991350   9.6404170 129.2852140  88.4115330   8.2127180
 115.9487190  99.7515270   8.5346150 115.5641980  99.1108940   9.1329110
 116.2599380 100.4551390   9.1040880 122.0984330  96.5991810   4.0154770
 122.4654460  96.1250380   4.7616110 121.9089390  97.4733380   4.3563110
 119.8883700  95.6400450   6.3338980 119.5840770  96.5192430   6.5589340
 120.8430160  95.7000240   6.3696420 129.1753470  98.8426800   2.7232220
 129.8952590  99.3382090   2.3328330 128.9735290  98.1644690   2.0786090
 124.5572270  98.9135860   8.6101220 124.4909580  97.9931530   8.3558810
 123.9277410  99.0111300   9.3245860 115.9447430  96.4803190   7.4810340
 115.5862370  97.1457040   8.0683680 115.6501990  95.6486740   7.8522960
 119.1460550  96.9387430  10.3649890 118.8460690  97.0844610   9.4677710
 119.9171790  96.3792720  10.2723280 124.4889000 101.7356430   8.3605020
 124.5033540 100.8037390   8.1423930 123.7814100 101.8216190   8.9994790
 130.7000210  98.3763770   7.7073600 129.9748400  98.9692550   7.5102990
 131.2275670  98.3687310   6.9086970 123.9222900 103.3774000   5.4545520
 124.5665120 103.5833380   6.1318940 124.2852340 102.6162400   5.0016370
 125.1954980 101.3806350   4.1722970 125.8377210 100.6799510   4.2855140
 125.7204330 102.1604790   3.9919860 126.9692600 102.1801250   7.3759030
 127.3048840 102.7667940   8.0536950 126.0492940 102.0493960   7.6056820
 114.5196000  89.9696430   8.1582440 113.8054520  90.1693350   8.7635050
 114.9391040  89.1936000   8.5297240 114.8068590 103.9576690   9.1448970
 114.9159710 103.0171430   9.0044360 114.1549150 104.2231440   8.4962700
 122.7981180 102.2292580  10.5447090 122.4778050 101.5101820  11.0892780
 122.1239540 102.9047650  10.6183150 126.0134780  92.4618740   5.9083890
 126.3815600  91.6413950   6.2363460 125.1532980  92.5220630   6.3239540
 122.9736770  95.1158330   6.1321860 123.4722020  95.5904150   6.7973710
 123.1159720  94.1921850   6.3391890 130.1803630  91.3326290   6.9750250
 129.6777230  92.0731690   7.3144060 130.9960290  91.7210290   6.6587040
 130.4751220 103.7468320   2.0965870 130.5998640 104.5699490   2.5689680
 131.3416780 103.5359050   1.7490020 117.9468750 105.8399530   1.7683000
 118.6831230 105.2914990   2.0391570 118.3309670 106.7055540   1.6288990
 116.9527030 105.0245600  10.9568580 117.7539760 105.3457650  11.3703980
 116.4378850 104.6641180  11.6788490 125.7891660 101.1325470  10.9043990
 125.1829820 101.1557070  10.1639740 125.4845770 100.4008510  11.4411240
 127.2192030 104.8605760   9.5153400 128.1713780 104.7763780   9.4653640
 127.0720250 105.5247470  10.1887190 114.6724840  97.5119060   9.9004630
 115.1763860  96.9326340  10.4720860 113.9332260  97.7959290  10.4381000
 121.7262780  98.9190050   9.4340150 120.9608450  99.4875050   9.3494820
 121.9078740  98.6266260   8.5408380 128.8686130 100.6495380   9.9915170
 129.6095600 100.9871140   9.4882630 128.1058810 100.8187440   9.4384940
 116.7047920  95.6548650  10.7954700 116.7453260  95.3562520  11.7039930
 117.5593420  96.0556260  10.6362220 118.6453730  94.2340750   8.7629190
 118.1150190  93.7431700   8.1352530 119.3141800  94.6624950   8.2287120
 127.5431790  98.7010210   8.5270380 127.9572810  98.8555290   9.3760800
 126.6082790  98.8265430   8.6896160 128.0153960  96.0406370  10.5309530
 128.5974730  95.2858690  10.4430010 128.1915730  96.5713810   9.7541010
 119.1326030  91.2003120   8.8426480 119.0382900  90.5823870   8.1177350
 118.5523420  91.9269410   8.6156390 121.8987470  89.7576360   5.8753870
 121.4504770  89.7800620   5.0299420 121.2652670  89.3595380   6.4724170
 122.3047020  98.6530690   6.4966310 122.7235130  99.4963420   6.3242550
 121.3855650  98.7902730   6.2673090 124.6410920  96.3846870   7.8804150
 124.7607130  95.7888010   8.6198990 125.5004920  96.4216560   7.4605450
 126.9798820  96.9384060   6.4566660 126.4534040  97.4626680   5.8531800
 127.3230160  97.5711450   7.0876390 120.1554440 104.9583700   7.6124040
 119.6175530 105.6829760   7.2932740 120.4088400 104.4814040   6.8221380
 121.4079690  92.9268220   9.1379970 121.9979380  92.6184070   9.8257790
 120.5899930  92.4547970   9.2939870 126.2273120  92.5434030   9.3712990
 125.5388640  91.8815570   9.3062980 126.9479140  92.0972300   9.8161450
 123.0116650 106.1934910   7.8710690 122.9375350 107.0970050   8.1783060
 122.1095490 105.8746810   7.8432760 114.9034150 104.3880090   3.9125940
 114.4665140 104.5680890   4.7450090 115.4711830 105.1454710   3.7707660
 130.5396330 103.8897090   8.2003250 129.9398320 103.9489650   7.4567170
 130.6690230 102.9502070   8.3300100 129.2247970 100.6149070   6.2979410
 128.4107810 101.0446230   6.5605200 129.6322170 101.2267480   5.6848460
 115.7734510  97.2852890   4.8118160 116.1407550  97.1980290   5.6914180
 115.2045330  96.5219440   4.7125020 130.5738370  95.7537270   7.8248630
 130.3424460  95.5250020   6.9246580 130.8342920  96.6736820   7.7793520
 115.3250510  94.1961980   8.7176580 114.4306560  94.1628740   9.0570290
 115.8648060  94.3948770   9.4827830 129.0126440  90.9793700  10.6028330
 129.8896620  90.9877100  10.9862330 129.0247280  90.2424540   9.9920680
 130.6379430  94.9163110   5.0135900 129.6882140  94.8826650   5.1280890
 130.8192440  95.8263220   4.7785670 115.8290220  88.4710310   3.0659800
 116.4766410  87.9207690   2.6254960 116.2492060  88.7253460   3.8875610
 129.7242560  88.6651670   6.4229440 130.3614780  89.2785810   6.7888630
 129.8717450  88.7012330   5.4778670 115.5822220  88.6265980   5.8085120
 115.2337040  89.0829800   6.5743300 115.2509920  87.7323110   5.8907550
 117.1886590 101.7985580   9.9738310 117.1456220 101.4278490  10.8552770
 117.3197600 102.7363150  10.1140130 120.8892620 103.3545170   5.5748030
 120.6483980 103.6219730   4.6878550 121.8295260 103.5250900   5.6298890
 123.0947040  89.8177860   9.3304540 123.0335930  90.4099690  10.0799950
 124.0347420  89.7103820   9.1854800 125.7321600  89.4747920   8.9696830
 126.3462010  89.7927210   8.3077910 126.2771160  88.9896510   9.5892690
 132.1496780 105.3739550   6.3758670 131.6555060 105.7708420   5.6585800
 131.5410070 104.7488760   6.7695950 116.2542860  88.1542180   9.0835890
 116.8025850  87.9730230   8.3202000 116.3198170  87.3636290   9.6192200
 117.0274620 104.7447830   7.0936090 116.4334940 104.6132530   7.8326130
 117.0198460 103.9085970   6.6278190 126.4729640  88.0380060   5.2966120
 125.5989480  88.3715170   5.0939050 126.3640390  87.5653240   6.1217990
 127.3801620  90.2450930   6.6807840 127.0514980  89.4302690   6.3009570
 128.3283920  90.2020740   6.5573530 129.8336230 106.0162970   3.6545410
 129.3739200 106.7678780   3.2803430 129.2048690 105.2969440   3.5960210
 116.6586850 102.1106210   6.0444130 115.9320910 101.4911500   5.9770080
 116.7196000 102.5046820   5.1742210 120.2631950 104.3251210   2.8293540
 120.7796970 103.7138570   2.3041800 120.9129330 104.8279990   3.3204550
 123.0027450 105.2159700   3.6562520 123.2905260 104.9614000   2.7795530
 123.5150670 104.6637060   4.2468090 124.2204460  88.9549900   4.2359030
 123.4376250  89.4295400   4.5155790 123.9267390  88.0504730   4.1272210
 128.7725530  89.6573000   2.2808120 129.2133620  89.6018100   1.4329720
 128.5033120  90.5731010   2.3518300 123.0699810 106.1375800  11.0230720
 123.9967120 105.9020070  11.0666680 123.0550240 106.9647800  10.5416750
 120.2563420  88.8020550  10.7872600 119.9747690  89.3054150  10.0233420
 120.6383120  88.0042300  10.4214730 126.8578880  88.2174130  11.3653070
 126.7444330  88.5368740  12.2604590 127.6748620  88.6186640  11.0690350
 129.6377370 105.3645660  10.8471760 130.4302690 104.8694890  10.6397720
 129.9310520 106.0435800  11.4547370 125.7637030  77.4623110 150.6979220
 125.6831080  76.5477720 150.4270930 125.3501450  77.9590180 149.9918930
 123.8955070  79.2402130 152.5788490 123.1197170  78.7602570 152.8687060
 124.5468000  78.5607780 152.4044650 127.9162500  83.6462320 151.3587620
 127.4544030  82.8749560 151.6874790 128.7288050  83.6728390 151.8640070
 116.3212850  74.5123830 147.2406640 115.4329550  74.8539800 147.1386520
 116.6054040  74.3124150 146.3487470 114.2845860  77.1129480 153.1246340
 114.8561970  76.3451680 153.1249980 114.2847400  77.4118240 152.2152950
 124.1425810  85.9320330 150.9791610 123.5237250  86.3877830 150.4086050
 124.9977590  86.0871790 150.5781310 123.3364060  81.9159320 152.5858650
 123.2672340  80.9749260 152.4247780 124.0983920  82.0060730 153.1581220
 124.3669230  74.7229700 152.8127580 124.7434050  73.8501580 152.7001250
 124.2688740  75.0588400 151.9218020 118.4974240  73.0955330 148.2745020
 118.6040990  73.9959060 148.5813780 117.5866600  73.0473300 147.9839670
 128.1493350  72.2180140 149.7455920 128.9702970  71.7276710 149.7881400
 128.1827430  72.8077800 150.4987760 125.0089160  80.8159570 148.3723520
 124.3906430  81.2809020 147.8086240 125.5212410  81.5087050 148.7893030
 128.3854830  74.1580520 152.5183460 127.6810400  74.4465410 153.0986570
 128.7466990  74.9680630 152.1583020 114.3772360  81.5016100 145.7463150
 114.0000340  81.9903200 145.0148050 114.6345430  82.1741380 146.3769680
 121.9861290  69.9032490 151.2048660 122.2936270  69.3479380 150.4884160
 121.0561990  70.0376950 151.0221650 128.8321770  82.3416000 148.5846290
 128.7218100  81.3990330 148.7095710 128.8290020  82.7031640 149.4709050
 124.3742050  77.9681320 147.9408780 123.4471330  77.9018700 148.1697250
 124.5266870  78.9061450 147.8264020 124.3611130  74.2398320 144.9375940
 123.4214800  74.4012280 145.0228400 124.6794390  74.9584000 144.3911930
 128.4039340  79.5301620 148.4444030 127.7851760  79.1921170 147.7970330
 128.3863790  78.8861380 149.1523220 119.9798690  78.4946060 150.7228510
 119.5755690  77.7823310 150.2274410 120.0661810  78.1499300 151.6116550
 120.4480390  82.1813620 152.8867720 120.1508680  81.5759090 152.2075500
 121.3980210  82.2190930 152.7757080 126.5804040  78.7688430 145.4516780
 127.0197320  77.9310860 145.3054600 127.2932460  79.4017830 145.5380920
 124.6899420  83.7084500 149.4198020 125.1295330  84.4508830 149.0053410
 124.6286310  83.9511070 150.3436980 130.1621180  70.0231240 143.7657820
 129.8493840  70.1158070 144.6656890 130.9233650  70.6012270 143.7155250
 116.6803320  77.3891040 148.2235160 116.5600920  78.1153130 147.6116430
 116.3704210  76.6193950 147.7463070 115.5636320  82.2606370 150.4409980
 115.1564400  82.4020960 149.5863580 116.4549330  81.9766530 150.2381190
 127.3569600  86.6953620 146.7761030 127.1970740  86.4056560 147.6742860
 127.1916310  85.9193750 146.2406260 119.8357980  86.4752150 148.5532650
 119.6600460  85.5587690 148.3400450 118.9813720  86.8339440 148.7930450
 127.0595730  84.2041180 145.3359030 126.3660890  84.2018470 144.6761310
 127.8018590  83.7800500 144.9053200 126.6245660  85.8303890 149.4107520
 127.0802610  85.0493270 149.7246140 126.9638180  86.5410710 149.9548700
 119.1466980  70.7326110 151.6058830 118.7035130  71.5135650 151.2743350
 119.7051970  71.0556000 152.3129770 122.2625800  70.3536810 146.4864660
 121.6379980  70.3496680 147.2117970 122.1755920  69.4867770 146.0900630
 118.9381200  75.8559680 149.3340080 118.7122120  75.6396850 150.2386700
 118.1573730  76.2888140 148.9886050 126.1678960  75.8623050 147.9330730
 125.5687850  76.5858850 147.7494350 126.7158570  75.7999830 147.1507180
 124.7743830  74.4986590 149.9634010 125.1673400  74.8158790 149.1502700
 125.1360680  73.6198470 150.0778530 113.8108000  71.0887390 152.1864210
 113.5221050  71.6590250 152.8989190 114.5553760  70.6091840 152.5495440
 113.9978230  75.0307510 143.3966930 113.9152900  75.9738270 143.5381920
 113.6461290  74.8882420 142.5179280 121.7976360  73.7646540 152.4637280
 121.8012420  73.3236490 151.6141820 122.6927480  74.0863870 152.5709100
 117.6478740  73.6473030 151.4231490 117.3078790  74.1248260 152.1798540
 116.8856060  73.1938150 151.0632590 121.8596510  74.7658620 145.4544040
 121.9809330  74.7245100 146.4029860 121.4745020  75.6282770 145.2990770
 120.8718010  77.0759760 144.8527340 120.3034910  76.6278010 144.2263250
 121.5807010  77.4352540 144.3192490 114.9624820  72.5692010 150.3396160
 114.6771740  72.2047680 151.1774780 114.9003680  71.8372470 149.7259300
 118.4165490  81.0717950 147.1253750 117.6427750  80.5315570 146.9652470
 119.1460120  80.5524560 146.7871510 129.1753470  80.0683310 152.9180140
 129.8952590  80.5638600 152.5276250 128.9735290  79.3901200 152.2734010
 124.6363410  71.4621270 147.0609530 123.8228020  70.9634440 146.9854840
 124.4425360  72.3019520 146.6445880 127.3511800  75.8340920 145.3571690
 128.2391420  76.1458150 145.1823030 127.3216890  74.9613170 144.9652270
 118.4602890  80.7398330 150.7632560 118.9781560  79.9366590 150.7089450
 118.0086910  80.6777470 151.6049390 123.3472390  82.0064610 146.0359860
 123.6888090  82.7506840 145.5403180 122.5185100  82.3195730 146.3984690
 129.6226070  77.1452760 144.8251550 129.5389790  77.5766980 143.9747990
 130.3420260  77.6051110 145.2578370 130.6513320  83.9995020 147.5533680
 130.0089480  83.3450640 147.8277400 130.2643980  84.4050110 146.7774350
 126.2299800  81.3280450 151.4005370 126.5823620  80.7308580 150.7406740
 125.3462130  81.0024680 151.5713620 122.3163080  82.0878140 148.8075780
 123.0034210  82.6347350 149.1883370 121.5295500  82.6318870 148.8425390
 114.4555480  77.7050960 144.2992860 115.3250330  77.9875760 144.5828780
 113.9645800  78.5186830 144.1841670 121.6190290  79.0924170 148.4201140
 122.0753070  79.9029420 148.6461330 121.2678500  78.7747310 149.2519630
 117.5202070  69.4361820 148.8923660 117.3916700  69.4279720 149.8408580
 116.6964090  69.7744910 148.5414670 129.0410700  82.8911480 144.0910030
 128.8148280  82.1741920 144.6834670 128.6506900  82.6423920 143.2531780
 114.8226730  86.9178340 144.8654490 115.1824370  87.5167680 144.2111760
 114.6819070  87.4638230 145.6389520 128.6226950  80.8083420 145.7524190
 128.3348650  81.2696110 146.5402070 129.4179120  80.3481190 146.0208410
 120.8395350  84.3009540 145.6828160 120.8305450  85.0339230 145.0672670
 119.9193710  84.0541120 145.7755120 116.4401990  79.5224430 146.4274920
 115.8329940  80.2623330 146.4370220 116.9151340  79.6123790 145.6013120
 129.3796810  72.6432190 146.9119370 128.7509970  72.7477860 146.1977600
 128.8848730  72.8628970 147.7013250 123.8254950  84.3637780 144.3453350
 123.9266930  84.1601770 143.4155330 122.9256690  84.1096060 144.5501130
 121.3480840  74.9218140 148.3277250 120.6396990  75.3904480 148.7690860
 121.6325320  74.2640150 148.9622440 125.3796270  71.6468800 149.7673040
 125.2564050  71.6654930 148.8182550 126.3280830  71.6947740 149.8871440
 122.4673060  86.8824100 149.0401020 122.7214560  86.8445490 148.1180390
 121.5185540  86.7557430 149.0329270 119.5515860  73.2303220 145.7027960
 120.4006390  73.6673370 145.6368150 119.1847130  73.5423480 146.5300020
 128.4725640  77.8015980 150.6159530 127.5315780  77.8166210 150.7907220
 128.7869710  77.0151940 151.0619830 118.4507280  79.4835580 144.1763490
 119.2170550  79.3716940 144.7388920 118.5281970  78.7873550 143.5240260
 117.1454040  76.9160650 144.8596380 117.2257630  75.9688160 144.9713780
 118.0373790  77.2467530 144.9657040 130.4751220  84.9724830 152.2913790
 130.5998640  85.7956000 152.7637600 131.3416780  84.7615560 151.9437940
 117.9468750  87.0656040 151.9630920 118.6831230  86.5171500 152.2339490
 118.3309670  87.9312050 151.8236910 114.8314230  83.1329610 147.8372430
 113.9054010  83.3750750 147.8277840 115.2970660  83.9603870 147.7157180
 121.0571060  86.2386350 143.7856490 121.8499670  86.5275180 143.3338280
 120.5375410  85.8078520 143.1068970 130.1101230  85.4656480 145.2093230
 129.8242740  85.0521620 144.3947410 129.9120780  86.3944190 145.0893750
 121.5748460  81.4589760 143.6498840 121.4699100  80.8442110 144.3760220
 121.4072680  80.9355650 142.8661850 124.8151190  80.5209790 144.2540830
 124.2661290  80.9679090 144.8983570 125.4370450  80.0159040 144.7778500
 120.4826310  79.4800710 146.1506130 120.9042730  79.3140580 146.9937520
 120.6077150  78.6700940 145.6561270 122.9953950  78.5038320 143.3983230
 123.5159610  77.7887340 143.0324380 123.6422350  79.1424190 143.6983740
 119.3785210  75.5533940 143.0964290 119.1774270  74.6901300 143.4577630
 119.2077260  75.4667300 142.1585890 126.8573520  70.3642170 145.6251170
 127.1375810  69.5210070 145.9810590 126.0839250  70.5965280 146.1389920
 118.1768010  72.6534560 143.0842170 118.4793910  72.6601990 142.1761320
 118.9162600  72.3032420 143.5809830 121.3952940  71.5969180 144.0698370
 121.0474940  70.9193170 143.4900820 121.5965710  71.1358690 144.8841760
 123.5601980  86.5849930 145.6884970 124.4552770  86.9234900 145.7103730
 123.5919610  85.8629340 145.0609250 117.1998140  81.9576980 143.9171970
 117.6373010  82.5006650 144.5729550 117.6845870  81.1323930 143.9268310
 114.4143940  84.7466010 151.3692230 114.7446950  83.8787070 151.1370870
 114.8434940  84.9524530 152.1997190 119.0105860  83.0775020 149.0294200
 118.7101400  82.9539990 149.9298110 118.9043350  82.2183610 148.6209930
 131.7797780  82.8571420 143.7320880 130.9490740  82.9248070 144.2028110
 131.9569610  83.7475540 143.4287740 131.2354240  79.6018900 146.2355080
 131.9973150  80.1715550 146.3414770 131.2508610  79.0346100 147.0063390
 114.7358580  78.1256830 150.4662740 114.0807420  77.8568470 149.8222440
 115.5736530  78.0161310 150.0164720 132.2414210  80.4569000 151.0797010
 132.6123040  79.6736320 150.6732980 132.8816140  81.1458100 150.9014310
 131.2873410  79.8953270 143.3927600 131.5622250  80.8032150 143.2646820
 131.0984150  79.8315800 144.3289590 127.6849020  72.9198120 144.6881230
 128.1033900  72.7329100 143.8477890 127.3785080  72.0677170 144.9984160
 131.1838750  77.8322260 148.3857030 130.8082350  77.0650190 147.9538320
 130.4541870  78.2144960 148.8731960 113.9496660  75.3355760 146.4088070
 113.0460740  75.5985960 146.2339730 114.4337280  75.6066930 145.6288030
 130.4589710  76.0579750 151.6864270 130.9827190  75.5642400 151.0554440
 131.0449130  76.1930110 152.4311840 116.4923870  74.3921300 144.3182450
 117.2015570  73.9704520 143.8329730 115.7763810  74.4596530 143.6865800
 116.1398030  70.4460630 143.3585100 116.8626160  70.9869570 143.6766320
 116.4122550  70.1724050 142.4826640 129.9489680  75.3153100 147.6256680
 130.4448800  75.0823970 148.4105560 129.7505750  74.4764940 147.2094320
 131.3776840  73.9514050 150.1594360 131.2676120  73.7970090 151.0976630
 132.1384430  73.4234990 149.9169770 132.2667110  71.7821970 143.4000500
 133.1916420  71.6503150 143.1918790 132.2442900  71.8614790 144.3536950
 132.3405600  72.5532630 146.0257210 131.5457100  72.4877750 146.5550120
 132.5448880  73.4883270 146.0142560 129.2824020  86.5924180 150.0195600
 129.8783090  86.2708750 149.3430020 129.5402170  86.1196000 150.8108870
 128.7725530  70.8829510 152.4756040 129.2133620  70.8274610 151.6277640
 128.5033120  71.7987520 152.5466220 130.6364100  70.5144750 150.4864860
 130.5752500  69.5705970 150.3395880 131.4156130  70.6224840 151.0318320
 114.9416850  86.6537110 149.4488810 114.7738890  86.0207790 150.1470700
 114.0751360  86.8596510 149.0983000 115.5644870  70.4853890 146.9520670
 116.3224230  70.5982770 146.3784700 115.1022040  71.3223090 146.9064100
 122.1058680  72.5993160 149.9422980 121.2933190  72.2250050 149.6018860
 122.6100320  71.8438240 150.2444170 126.6083660  69.2635610 151.1806050
 127.2113030  69.8355820 151.6554570 125.8676650  69.8275050 150.9579950
 129.7518260  69.6657170 146.4546330 129.9468890  70.5640620 146.7213760
 128.9648130  69.4344250 146.9479280 116.5479550  85.3470340 146.8938950
 116.0227170  85.7278370 146.1900910 116.4724130  85.9721110 147.6148660
 117.9370020  71.0117940 145.4922640 118.4662780  70.2247740 145.3630590
 118.5698340  71.6909130 145.7258170 120.1307860  70.7493080 148.5468030
 119.5010600  70.0480390 148.7138160 119.5913000  71.5097210 148.3301190
 131.3044870  86.9057880 148.2152890 131.4797060  86.2195620 147.5713810
 130.6066440  87.4304930 147.8229560 119.1472520  87.2952720 145.7688200
 119.8791340  87.0112000 145.2212090 119.4066190  87.0566000 146.6587580
 118.3087310  83.4117450 145.7734530 117.6796190  83.8802550 146.3220360
 118.4235140  82.5666670 146.2080720 125.7637030  77.4623110 131.9235730
 125.6831080  76.5477720 131.6527440 125.3501450  77.9590180 131.2175440
 123.8955070  79.2402130 133.8045000 123.1197170  78.7602570 134.0943570
 124.5468000  78.5607780 133.6301160 117.9120900  79.5521940 134.6820760
 117.0805780  79.2970650 135.0817270 118.5201880  79.6232710 135.4178680
 127.9162500  83.6462320 132.5844130 127.4544030  82.8749560 132.9131300
 128.7288050  83.6728390 133.0896580 117.8922160  83.5862030 134.8778780
 118.1950200  82.6959770 134.6989000 118.6365750  84.1432250 134.6501030
 114.2845860  77.1129480 134.3502850 114.8561970  76.3451680 134.3506490
 114.2847400  77.4118240 133.4409460 124.1425810  85.9320330 132.2048120
 123.5237250  86.3877830 131.6342560 124.9977590  86.0871790 131.8037820
 123.3364060  81.9159320 133.8115160 123.2672340  80.9749260 133.6504290
 124.0983920  82.0060730 134.3837730 115.5270730  72.5213840 136.1371780
 115.3473570  71.6239590 136.4174540 115.1250810  73.0685710 136.8118730
 124.3669230  74.7229700 134.0384090 124.7434050  73.8501580 133.9257760
 124.2688740  75.0588400 133.1474530 118.4974240  73.0955330 129.5001530
 118.6040990  73.9959060 129.8070290 117.5866600  73.0473300 129.2096180
 128.1493350  72.2180140 130.9712430 128.9702970  71.7276710 131.0137910
 128.1827430  72.8077800 131.7244270 116.1457400  75.0174340 134.7454120
 116.8267510  75.2812710 135.3641520 115.8305450  74.1775210 135.0792130
 120.3381970  76.0641700 133.8326710 120.8460190  76.5622670 134.4731730
 120.8695210  75.2876900 133.6566070 132.4392900  74.2346890 137.5356060
 131.7345070  74.6228600 137.0171170 132.7050820  74.9297180 138.1376990
 118.6218070  70.7040260 138.0990130 118.6236510  71.2212650 137.2936030
 117.7922380  70.2270440 138.0760060 125.0089160  80.8159570 129.5980030
 124.3906430  81.2809020 129.0342750 125.5212410  81.5087050 130.0149540
 119.8720920  80.3435440 136.2763630 119.5390300  80.9704360 136.9184700
 120.0487600  80.8697320 135.4965300 128.3854830  74.1580520 133.7439970
 127.6810400  74.4465410 134.3243080 128.7466990  74.9680630 133.3839530
 118.3033400  72.4150220 136.1060580 118.6450210  73.2592270 135.8114450
 117.3649210  72.5633960 136.2225920 119.0840020  82.3116240 138.0912810
 119.7014020  82.9867320 137.8097260 118.2233140  82.7204220 138.0000310
 114.3772360  81.5016100 126.9719660 114.0000340  81.9903200 126.2404560
 114.6345430  82.1741380 127.6026190 130.0017610  83.7755650 136.0067450
 129.3181130  84.4454760 135.9984120 130.5411900  83.9736300 135.2412310
 131.4541750  73.6035310 134.1349180 130.5066660  73.6374290 134.2664610
 131.7791740  74.4174260 134.5198540 121.9861290  69.9032490 132.4305170
 122.2936270  69.3479380 131.7140670 121.0561990  70.0376950 132.2478160
 127.5376350  85.6199780 134.7212630 127.5503510  85.2162070 133.8534890
 126.9851570  86.3947070 134.6174060 128.8321770  82.3416000 129.8102800
 128.7218100  81.3990330 129.9352220 128.8290020  82.7031640 130.6965560
 126.9361790  80.5229620 136.0495240 127.3530580  80.3089730 135.2148700
 127.6601610  80.7802410 136.6203860 124.3742050  77.9681320 129.1665290
 123.4471330  77.9018700 129.3953760 124.5266870  78.9061450 129.0520530
 124.3611130  74.2398320 126.1632450 123.4214800  74.4012280 126.2484910
 124.6794390  74.9584000 125.6168440 130.8823890  78.9216840 136.1411480
 130.0542520  78.9909930 135.6661610 131.4774370  79.5071150 135.6727310
 128.4039340  79.5301620 129.6700540 127.7851760  79.1921170 129.0226840
 128.3863790  78.8861380 130.3779730 127.8465900  75.7086160 137.0866350
 127.4337080  76.5339870 137.3406340 127.1141850  75.1231200 136.8942710
 119.9798690  78.4946060 131.9485020 119.5755690  77.7823310 131.4530920
 120.0661810  78.1499300 132.8373060 120.4480390  82.1813620 134.1124230
 120.1508680  81.5759090 133.4332010 121.3980210  82.2190930 134.0013590
 118.6927310  75.2689270 135.7284060 119.2441900  75.3784610 134.9537310
 119.2070820  75.6426870 136.4439290 128.5366000  85.7545490 137.7747330
 128.0596560  86.5617680 137.5819940 127.8527790  85.1023820 137.9273540
 119.5398820  81.9195310 140.7632030 118.6427350  82.1435280 141.0105430
 119.5651690  82.0430250 139.8143430 126.5804040  78.7688430 126.6773290
 127.0197320  77.9310860 126.5311110 127.2932460  79.4017830 126.7637430
 118.3670040  78.7908630 139.3389400 118.2277810  79.6631430 139.7076800
 117.4851400  78.4481440 139.1937340 124.6899420  83.7084500 130.6454530
 125.1295330  84.4508830 130.2309920 124.6286310  83.9511070 131.5693490
 120.1650390  84.7330330 141.5474550 120.1365820  85.1373280 140.6802980
 120.0015360  83.8040690 141.3846150 130.1621180  70.0231240 124.9914330
 129.8493840  70.1158070 125.8913400 130.9233650  70.6012270 124.9411760
 116.6803320  77.3891040 129.4491670 116.5600920  78.1153130 128.8372940
 116.3704210  76.6193950 128.9719580 132.1165210  85.5157430 142.8438720
 132.5924930  85.9940320 143.5227800 132.7372370  85.4474920 142.1184220
 114.3188690  80.5606180 135.2560310 114.3969110  80.6954950 134.3116030
 114.9330370  79.8522070 135.4488430 115.5636320  82.2606370 131.6666490
 115.1564400  82.4020960 130.8120090 116.4549330  81.9766530 131.4637700
 131.5198460  82.7070280 140.0038730 131.6461520  82.4682160 139.0855910
 131.5619840  81.8754820 140.4760810 125.3815200  86.4098280 138.5733540
 125.8959870  86.3206290 139.3755970 124.5384280  86.7557980 138.8661450
 127.3569600  86.6953620 128.0017540 127.1970740  86.4056560 128.8999370
 127.1916310  85.9193750 127.4662770 119.8357980  86.4752150 129.7789160
 119.6600460  85.5587690 129.5656960 118.9813720  86.8339440 130.0186960
 127.0595730  84.2041180 126.5615540 126.3660890  84.2018470 125.9017820
 127.8018590  83.7800500 126.1309710 126.6245660  85.8303890 130.6364030
 127.0802610  85.0493270 130.9502650 126.9638180  86.5410710 131.1805210
 131.3722470  74.7602740 140.9688470 130.7566740  75.2682410 140.4403930
 131.0518890  73.8601070 140.9114410 114.3748210  81.6020350 137.7954770
 114.5379250  81.1325710 136.9774140 114.8400660  81.0943910 138.4603610
 119.1466980  70.7326110 132.8315340 118.7035130  71.5135650 132.4999860
 119.7051970  71.0556000 133.5386280 123.4336790  73.5994630 138.4350660
 122.9716160  73.8077650 139.2470600 123.0314900  72.7853980 138.1321330
 128.4341300  74.8203580 139.5647320 127.5834890  74.5209330 139.8856390
 128.2743090  75.0645590 138.6531140 125.5291010  76.3205330 141.6646110
 125.8544420  75.4869080 141.3248340 126.3171340  76.8433850 141.8124440
 122.2625800  70.3536810 127.7121170 121.6379980  70.3496680 128.4374480
 122.1755920  69.4867770 127.3157140 121.1842880  71.2773440 134.6904940
 121.4815210  72.1836270 134.6096960 121.7328440  70.7892220 134.0764510
 118.9381200  75.8559680 130.5596590 118.7122120  75.6396850 131.4643210
 118.1573730  76.2888140 130.2142560 126.1678960  75.8623050 129.1587240
 125.5687850  76.5858850 128.9750860 126.7158570  75.7999830 128.3763690
 121.3780410  76.7545260 141.2256860 121.2824010  75.8139990 141.0757260
 122.2212390  76.9760330 140.8304930 124.7743830  74.4986590 131.1890520
 125.1673400  74.8158790 130.3759210 125.1360680  73.6198470 131.3035040
 116.5090950  73.1658930 139.3790640 116.1154340  74.0134140 139.5863420
 115.8209350  72.5285300 139.5699280 123.0836000  73.2493900 142.4487380
 122.3934320  73.0566100 143.0833470 123.8268300  73.5328540 142.9811680
 113.8108000  71.0887390 133.4120720 113.5221050  71.6590250 134.1245700
 114.5553760  70.6091840 133.7751950 113.9978230  75.0307510 124.6223440
 113.9152900  75.9738270 124.7638430 113.6461290  74.8882420 123.7435790
 125.3598970  77.0892340 135.2841300 124.6280090  77.5979150 135.6331400
 124.9623310  76.2722320 134.9830080 121.7976360  73.7646540 133.6893790
 121.8012420  73.3236490 132.8398330 122.6927480  74.0863870 133.7965610
 117.6478740  73.6473030 132.6488000 117.3078790  74.1248260 133.4055050
 116.8856060  73.1938150 132.2889100 121.8596510  74.7658620 126.6800550
 121.9809330  74.7245100 127.6286370 121.4745020  75.6282770 126.5247280
 125.8224880  72.5426020 134.6964240 125.8397620  72.9934670 135.5406090
 125.5740460  71.6431660 134.9097680 120.8718010  77.0759760 126.0783850
 120.3034910  76.6278010 125.4519760 121.5807010  77.4352540 125.5449000
 129.2495630  69.9558200 140.5350620 129.5741400  69.2247860 141.0608600
 129.2852140  69.6371840 139.6331610 115.9487190  80.9771780 139.9550580
 115.5641980  80.3365450 140.5533540 116.2599380  81.6807900 140.5245310
 122.0984330  77.8248320 135.4359200 122.4654460  77.3506890 136.1820540
 121.9089390  78.6989890 135.7767540 119.8883700  76.8656960 137.7543410
 119.5840770  77.7448940 137.9793770 120.8430160  76.9256750 137.7900850
 118.4165490  81.0717950 128.3510260 117.6427750  80.5315570 128.1908980
 119.1460120  80.5524560 128.0128020 129.1753470  80.0683310 134.1436650
 129.8952590  80.5638600 133.7532760 128.9735290  79.3901200 133.4990520
 124.6363410  71.4621270 128.2866040 123.8228020  70.9634440 128.2111350
 124.4425360  72.3019520 127.8702390 124.5572270  80.1392370 140.0305650
 124.4909580  79.2188040 139.7763240 123.9277410  80.2367810 140.7450290
 127.3511800  75.8340920 126.5828200 128.2391420  76.1458150 126.4079540
 127.3216890  74.9613170 126.1908780 118.4602890  80.7398330 131.9889070
 118.9781560  79.9366590 131.9345960 118.0086910  80.6777470 132.8305900
 123.3472390  82.0064610 127.2616370 123.6888090  82.7506840 126.7659690
 122.5185100  82.3195730 127.6241200 115.9447430  77.7059700 138.9014770
 115.5862370  78.3713550 139.4888110 115.6501990  76.8743250 139.2727390
 119.1460550  78.1643940 141.7854320 118.8460690  78.3101120 140.8882140
 119.9171790  77.6049230 141.6927710 124.4889000  82.9612940 139.7809450
 124.5033540  82.0293900 139.5628360 123.7814100  83.0472700 140.4199220
 129.6226070  77.1452760 126.0508060 129.5389790  77.5766980 125.2004500
 130.3420260  77.6051110 126.4834880 130.7000210  79.6020280 139.1278030
 129.9748400  80.1949060 138.9307420 131.2275670  79.5943820 138.3291400
 130.6513320  83.9995020 128.7790190 130.0089480  83.3450640 129.0533910
 130.2643980  84.4050110 128.0030860 126.2299800  81.3280450 132.6261880
 126.5823620  80.7308580 131.9663250 125.3462130  81.0024680 132.7970130
 122.3163080  82.0878140 130.0332290 123.0034210  82.6347350 130.4139880
 121.5295500  82.6318870 130.0681900 114.4555480  77.7050960 125.5249370
 115.3250330  77.9875760 125.8085290 113.9645800  78.5186830 125.4098180
 121.6190290  79.0924170 129.6457650 122.0753070  79.9029420 129.8717840
 121.2678500  78.7747310 130.4776140 123.9222900  84.6030510 136.8749950
 124.5665120  84.8089890 137.5523370 124.2852340  83.8418910 136.4220800
 117.5202070  69.4361820 130.1180170 117.3916700  69.4279720 131.0665090
 116.6964090  69.7744910 129.7671180 125.1954980  82.6062860 135.5927400
 125.8377210  81.9056020 135.7059570 125.7204330  83.3861300 135.4124290
 129.0410700  82.8911480 125.3166540 128.8148280  82.1741920 125.9091180
 128.6506900  82.6423920 124.4788290 126.9692600  83.4057760 138.7963460
 127.3048840  83.9924450 139.4741380 126.0492940  83.2750470 139.0261250
 114.8226730  86.9178340 126.0911000 115.1824370  87.5167680 125.4368270
 114.6819070  87.4638230 126.8646030 114.5196000  71.1952940 139.5786870
 113.8054520  71.3949860 140.1839480 114.9391040  70.4192510 139.9501670
 128.6226950  80.8083420 126.9780700 128.3348650  81.2696110 127.7658580
 129.4179120  80.3481190 127.2464920 114.8068590  85.1833200 140.5653400
 114.9159710  84.2427940 140.4248790 114.1549150  85.4487950 139.9167130
 122.7981180  83.4549090 141.9651520 122.4778050  82.7358330 142.5097210
 122.1239540  84.1304160 142.0387580 120.8395350  84.3009540 126.9084670
 120.8305450  85.0339230 126.2929180 119.9193710  84.0541120 127.0011630
 116.4401990  79.5224430 127.6531430 115.8329940  80.2623330 127.6626730
 116.9151340  79.6123790 126.8269630 126.0134780  73.6875250 137.3288320
 126.3815600  72.8670460 137.6567890 125.1532980  73.7477140 137.7443970
 129.3796810  72.6432190 128.1375880 128.7509970  72.7477860 127.4234110
 128.8848730  72.8628970 128.9269760 123.8254950  84.3637780 125.5709860
 123.9266930  84.1601770 124.6411840 122.9256690  84.1096060 125.7757640
 121.3480840  74.9218140 129.5533760 120.6396990  75.3904480 129.9947370
 121.6325320  74.2640150 130.1878950 122.9736770  76.3414840 137.5526290
 123.4722020  76.8160660 138.2178140 123.1159720  75.4178360 137.7596320
 125.3796270  71.6468800 130.9929550 125.2564050  71.6654930 130.0439060
 126.3280830  71.6947740 131.1127950 122.4673060  86.8824100 130.2657530
 122.7214560  86.8445490 129.3436900 121.5185540  86.7557430 130.2585780
 119.5515860  73.2303220 126.9284470 120.4006390  73.6673370 126.8624660
 119.1847130  73.5423480 127.7556530 130.1803630  72.5582800 138.3954680
 129.6777230  73.2988200 138.7348490 130.9960290  72.9466800 138.0791470
 128.4725640  77.8015980 131.8416040 127.5315780  77.8166210 132.0163730
 128.7869710  77.0151940 132.2876340 118.4507280  79.4835580 125.4020000
 119.2170550  79.3716940 125.9645430 118.5281970  78.7873550 124.7496770
 117.1454040  76.9160650 126.0852890 117.2257630  75.9688160 126.1970290
 118.0373790  77.2467530 126.1913550 130.4751220  84.9724830 133.5170300
 130.5998640  85.7956000 133.9894110 131.3416780  84.7615560 133.1694450
 117.9468750  87.0656040 133.1887430 118.6831230  86.5171500 133.4596000
 118.3309670  87.9312050 133.0493420 114.8314230  83.1329610 129.0628940
 113.9054010  83.3750750 129.0534350 115.2970660  83.9603870 128.9413690
 116.9527030  86.2502110 142.3773010 117.7539760  86.5714160 142.7908410
 116.4378850  85.8897690 143.0992920 125.7891660  82.3581980 142.3248420
 125.1829820  82.3813580 141.5844170 125.4845770  81.6265020 142.8615670
 127.2192030  86.0862270 140.9357830 128.1713780  86.0020290 140.8858070
 127.0720250  86.7503980 141.6091620 130.1101230  85.4656480 126.4349740
 129.8242740  85.0521620 125.6203920 129.9120780  86.3944190 126.3150260
 114.6724840  78.7375570 141.3209060 115.1763860  78.1582850 141.8925290
 113.9332260  79.0215800 141.8585430 121.5748460  81.4589760 124.8755350
 121.4699100  80.8442110 125.6016730 121.4072680  80.9355650 124.0918360
 121.7262780  80.1446560 140.8544580 120.9608450  80.7131560 140.7699250
 121.9078740  79.8522770 139.9612810 124.8151190  80.5209790 125.4797340
 124.2661290  80.9679090 126.1240080 125.4370450  80.0159040 126.0035010
 128.8686130  81.8751890 141.4119600 129.6095600  82.2127650 140.9087060
 128.1058810  82.0443950 140.8589370 116.7047920  76.8805160 142.2159130
 116.7453260  76.5819030 143.1244360 117.5593420  77.2812770 142.0566650
 120.4826310  79.4800710 127.3762640 120.9042730  79.3140580 128.2194030
 120.6077150  78.6700940 126.8817780 118.6453730  75.4597260 140.1833620
 118.1150190  74.9688210 139.5556960 119.3141800  75.8881460 139.6491550
 122.9953950  78.5038320 124.6239740 123.5159610  77.7887340 124.2580890
 123.6422350  79.1424190 124.9240250 127.5431790  79.9266720 139.9474810
 127.9572810  80.0811800 140.7965230 126.6082790  80.0521940 140.1100590
 128.0153960  77.2662880 141.9513960 128.5974730  76.5115200 141.8634440
 128.1915730  77.7970320 141.1745440 119.1326030  72.4259630 140.2630910
 119.0382900  71.8080380 139.5381780 118.5523420  73.1525920 140.0360820
 121.8987470  70.9832870 137.2958300 121.4504770  71.0057130 136.4503850
 121.2652670  70.5851890 137.8928600 122.3047020  79.8787200 137.9170740
 122.7235130  80.7219930 137.7446980 121.3855650  80.0159240 137.6877520
 124.6410920  77.6103380 139.3008580 124.7607130  77.0144520 140.0403420
 125.5004920  77.6473070 138.8809880 126.9798820  78.1640570 137.8771090
 126.4534040  78.6883190 137.2736230 127.3230160  78.7967960 138.5080820
 119.3785210  75.5533940 124.3220800 119.1774270  74.6901300 124.6834140
 119.2077260  75.4667300 123.3842400 120.1554440  86.1840210 139.0328470
 119.6175530  86.9086270 138.7137170 120.4088400  85.7070550 138.2425810
 121.4079690  74.1524730 140.5584400 121.9979380  73.8440580 141.2462220
 120.5899930  73.6804480 140.7144300 126.2273120  73.7690540 140.7917420
 125.5388640  73.1072080 140.7267410 126.9479140  73.3228810 141.2365880
 126.8573520  70.3642170 126.8507680 127.1375810  69.5210070 127.2067100
 126.0839250  70.5965280 127.3646430 123.0116650  87.4191420 139.2915120
 122.9375350  88.3226560 139.5987490 122.1095490  87.1003320 139.2637190
 121.3952940  71.5969180 125.2954880 121.0474940  70.9193170 124.7157330
 121.5965710  71.1358690 126.1098270 123.5601980  86.5849930 126.9141480
 124.4552770  86.9234900 126.9360240 123.5919610  85.8629340 126.2865760
 117.1998140  81.9576980 125.1428480 117.6373010  82.5006650 125.7986060
 117.6845870  81.1323930 125.1524820 114.4143940  84.7466010 132.5948740
 114.7446950  83.8787070 132.3627380 114.8434940  84.9524530 133.4253700
 119.0105860  83.0775020 130.2550710 118.7101400  82.9539990 131.1554620
 118.9043350  82.2183610 129.8466440 114.9034150  85.6136600 135.3330370
 114.4665140  85.7937400 136.1654520 115.4711830  86.3711220 135.1912090
 130.5396330  85.1153600 139.6207680 129.9398320  85.1746160 138.8771600
 130.6690230  84.1758580 139.7504530 131.7797780  82.8571420 124.9577390
 130.9490740  82.9248070 125.4284620 131.9569610  83.7475540 124.6544250
 131.2354240  79.6018900 127.4611590 131.9973150  80.1715550 127.5671280
 131.2508610  79.0346100 128.2319900 114.7358580  78.1256830 131.6919250
 114.0807420  77.8568470 131.0478950 115.5736530  78.0161310 131.2421230
 132.2414210  80.4569000 132.3053520 132.6123040  79.6736320 131.8989490
 132.8816140  81.1458100 132.1270820 129.2247970  81.8405580 137.7183840
 128.4107810  82.2702740 137.9809630 129.6322170  82.4523990 137.1052890
 131.2873410  79.8953270 124.6184110 131.5622250  80.8032150 124.4903330
 131.0984150  79.8315800 125.5546100 127.6849020  72.9198120 125.9137740
 128.1033900  72.7329100 125.0734400 127.3785080  72.0677170 126.2240670
 131.1838750  77.8322260 129.6113540 130.8082350  77.0650190 129.1794830
 130.4541870  78.2144960 130.0988470 115.7734510  78.5109400 136.2322590
 116.1407550  78.4236800 137.1118610 115.2045330  77.7475950 136.1329450
 130.5738370  76.9793780 139.2453060 130.3424460  76.7506530 138.3451010
 130.8342920  77.8993330 139.1997950 115.3250510  75.4218490 140.1381010
 114.4306560  75.3885250 140.4774720 115.8648060  75.6205280 140.9032260
 129.0126440  72.2050210 142.0232760 129.8896620  72.2133610 142.4066760
 129.0247280  71.4681050 141.4125110 130.4589710  76.0579750 132.9120780
 130.9827190  75.5642400 132.2810950 131.0449130  76.1930110 133.6568350
 130.6379430  76.1419620 136.4340330 129.6882140  76.1083160 136.5485320
 130.8192440  77.0519730 136.1990100 116.4923870  74.3921300 125.5438960
 117.2015570  73.9704520 125.0586240 115.7763810  74.4596530 124.9122310
 116.1398030  70.4460630 124.5841610 116.8626160  70.9869570 124.9022830
 116.4122550  70.1724050 123.7083150 129.9489680  75.3153100 128.8513190
 130.4448800  75.0823970 129.6362070 129.7505750  74.4764940 128.4350830
 115.8290220  69.6966820 134.4864230 116.4766410  69.1464200 134.0459390
 116.2492060  69.9509970 135.3080040 131.3776840  73.9514050 131.3850870
 131.2676120  73.7970090 132.3233140 132.1384430  73.4234990 131.1426280
 129.7242560  69.8908180 137.8433870 130.3614780  70.5042320 138.2093060
 129.8717450  69.9268840 136.8983100 132.2667110  71.7821970 124.6257010
 133.1916420  71.6503150 124.4175300 132.2442900  71.8614790 125.5793460
 132.3405600  72.5532630 127.2513720 131.5457100  72.4877750 127.7806630
 132.5448880  73.4883270 127.2399070 129.2824020  86.5924180 131.2452110
 129.8783090  86.2708750 130.5686530 129.5402170  86.1196000 132.0365380
 115.5822220  69.8522490 137.2289550 115.2337040  70.3086310 137.9947730
 115.2509920  68.9579620 137.3111980 117.1886590  83.0242090 141.3942740
 117.1456220  82.6535000 142.2757200 117.3197600  83.9619660 141.5344560
 120.8892620  84.5801680 136.9952460 120.6483980  84.8476240 136.1082980
 121.8295260  84.7507410 137.0503320 123.0947040  71.0434370 140.7508970
 123.0335930  71.6356200 141.5004380 124.0347420  70.9360330 140.6059230
 125.7321600  70.7004430 140.3901260 126.3462010  71.0183720 139.7282340
 126.2771160  70.2153020 141.0097120 132.1496780  86.5996060 137.7963100
 131.6555060  86.9964930 137.0790230 131.5410070  85.9745270 138.1900380
 116.2542860  69.3798690 140.5040320 116.8025850  69.1986740 139.7406430
 116.3198170  68.5892800 141.0396630 117.0274620  85.9704340 138.5140520
 116.4334940  85.8389040 139.2530560 117.0198460  85.1342480 138.0482620
 126.4729640  69.2636570 136.7170550 125.5989480  69.5971680 136.5143480
 126.3640390  68.7909750 137.5422420 127.3801620  71.4707440 138.1012270
 127.0514980  70.6559200 137.7214000 128.3283920  71.4277250 137.9777960
 129.8336230  87.2419480 135.0749840 129.3739200  87.9935290 134.7007860
 129.2048690  86.5225950 135.0164640 116.6586850  83.3362720 137.4648560
 115.9320910  82.7168010 137.3974510 116.7196000  83.7303330 136.5946640
 120.2631950  85.5507720 134.2497970 120.7796970  84.9395080 133.7246230
 120.9129330  86.0536500 134.7408980 123.0027450  86.4416210 135.0766950
 123.2905260  86.1870510 134.1999960 123.5150670  85.8893570 135.6672520
 124.2204460  70.1806410 135.6563460 123.4376250  70.6551910 135.9360220
 123.9267390  69.2761240 135.5476640 128.7725530  70.8829510 133.7012550
 129.2133620  70.8274610 132.8534150 128.5033120  71.7987520 133.7722730
 130.6364100  70.5144750 131.7121370 130.5752500  69.5705970 131.5652390
 131.4156130  70.6224840 132.2574830 114.9416850  86.6537110 130.6745320
 114.7738890  86.0207790 131.3727210 114.0751360  86.8596510 130.3239510
 122.1058680  72.5993160 131.1679490 121.2933190  72.2250050 130.8275370
 122.6100320  71.8438240 131.4700680 126.6083660  69.2635610 132.4062560
 127.2113030  69.8355820 132.8811080 125.8676650  69.8275050 132.1836460
 129.7518260  69.6657170 127.6802840 129.9468890  70.5640620 127.9470270
 128.9648130  69.4344250 128.1735790 116.5479550  85.3470340 128.1195460
 116.0227170  85.7278370 127.4157420 116.4724130  85.9721110 128.8405170
 117.9370020  71.0117940 126.7179150 118.4662780  70.2247740 126.5887100
 118.5698340  71.6909130 126.9514680 120.1307860  70.7493080 129.7724540
 119.5010600  70.0480390 129.9394670 119.5913000  71.5097210 129.5557700
 123.0699810  87.3632310 142.4435150 123.9967120  87.1276580 142.4871110
 123.0550240  88.1904310 141.9621180 131.3044870  86.9057880 129.4409400
 131.4797060  86.2195620 128.7970320 130.6066440  87.4304930 129.0486070
 120.2563420  70.0277060 142.2077030 119.9747690  70.5310660 141.4437850
 120.6383120  69.2298810 141.8419160 119.1472520  87.2952720 126.9944710
 119.8791340  87.0112000 126.4468600 119.4066190  87.0566000 127.8844090
 118.3087310  83.4117450 126.9991040 117.6796190  83.8802550 127.5476870
 118.4235140  82.5666670 127.4337230 126.8578880  69.4430640 142.7857500
 126.7444330  69.7625250 143.6809020 127.6748620  69.8443150 142.4894780
 129.6377370  86.5902170 142.2676190 130.4302690  86.0951400 142.0602150
 129.9310520  87.2692310 142.8751800 127.9162500  83.6462320 113.8100640
 127.4544030  82.8749560 114.1387810 128.7288050  83.6728390 114.3153090
 117.8922160  83.5862030 116.1035290 118.1950200  82.6959770 115.9245510
 118.6365750  84.1432250 115.8757540 124.1425810  85.9320330 113.4304630
 123.5237250  86.3877830 112.8599070 124.9977590  86.0871790 113.0294330
 123.3364060  81.9159320 115.0371670 123.2672340  80.9749260 114.8760800
 124.0983920  82.0060730 115.6094240 124.3669230  74.7229700 115.2640600
 124.7434050  73.8501580 115.1514270 124.2688740  75.0588400 114.3731040
 132.4392900  74.2346890 118.7612570 131.7345070  74.6228600 118.2427680
 132.7050820  74.9297180 119.3633500 125.0089160  80.8159570 110.8236540
 124.3906430  81.2809020 110.2599260 125.5212410  81.5087050 111.2406050
 130.0017610  83.7755650 117.2323960 129.3181130  84.4454760 117.2240630
 130.5411900  83.9736300 116.4668820 127.5376350  85.6199780 115.9469140
 127.5503510  85.2162070 115.0791400 126.9851570  86.3947070 115.8430570
 120.4480390  82.1813620 115.3380740 120.1508680  81.5759090 114.6588520
 121.3980210  82.2190930 115.2270100 128.5366000  85.7545490 119.0003840
 128.0596560  86.5617680 118.8076450 127.8527790  85.1023820 119.1530050
 126.5804040  78.7688430 107.9029800 127.0197320  77.9310860 107.7567620
 127.2932460  79.4017830 107.9893940 124.6899420  83.7084500 111.8711040
 125.1295330  84.4508830 111.4566430 124.6286310  83.9511070 112.7950000
 130.1621180  70.0231240 106.2170840 129.8493840  70.1158070 107.1169910
 130.9233650  70.6012270 106.1668270 132.1165210  85.5157430 124.0695230
 132.5924930  85.9940320 124.7484310 132.7372370  85.4474920 123.3440730
 131.5198460  82.7070280 121.2295240 131.6461520  82.4682160 120.3112420
 131.5619840  81.8754820 121.7017320 127.3569600  86.6953620 109.2274050
 127.1970740  86.4056560 110.1255880 127.1916310  85.9193750 108.6919280
 119.8357980  86.4752150 111.0045670 119.6600460  85.5587690 110.7913470
 118.9813720  86.8339440 111.2443470 127.0595730  84.2041180 107.7872050
 126.3660890  84.2018470 107.1274330 127.8018590  83.7800500 107.3566220
 126.6245660  85.8303890 111.8620540 127.0802610  85.0493270 112.1759160
 126.9638180  86.5410710 112.4061720 131.3722470  74.7602740 122.1944980
 130.7566740  75.2682410 121.6660440 131.0518890  73.8601070 122.1370920
 123.4336790  73.5994630 119.6607170 122.9716160  73.8077650 120.4727110
 123.0314900  72.7853980 119.3577840 128.4341300  74.8203580 120.7903830
 127.5834890  74.5209330 121.1112900 128.2743090  75.0645590 119.8787650
 125.5291010  76.3205330 122.8902620 125.8544420  75.4869080 122.5504850
 126.3171340  76.8433850 123.0380950 126.1678960  75.8623050 110.3843750
 125.5687850  76.5858850 110.2007370 126.7158570  75.7999830 109.6020200
 123.0836000  73.2493900 123.6743890 122.3934320  73.0566100 124.3089980
 123.8268300  73.5328540 124.2068190 121.7976360  73.7646540 114.9150300
 121.8012420  73.3236490 114.0654840 122.6927480  74.0863870 115.0222120
 125.8224880  72.5426020 115.9220750 125.8397620  72.9934670 116.7662600
 125.5740460  71.6431660 116.1354190 129.2495630  69.9558200 121.7607130
 129.5741400  69.2247860 122.2865110 129.2852140  69.6371840 120.8588120
 122.0984330  77.8248320 116.6615710 122.4654460  77.3506890 117.4077050
 121.9089390  78.6989890 117.0024050 118.4165490  81.0717950 109.5766770
 117.6427750  80.5315570 109.4165490 119.1460120  80.5524560 109.2384530
 124.6363410  71.4621270 109.5122550 123.8228020  70.9634440 109.4367860
 124.4425360  72.3019520 109.0958900 124.5572270  80.1392370 121.2562160
 124.4909580  79.2188040 121.0019750 123.9277410  80.2367810 121.9706800
 127.3511800  75.8340920 107.8084710 128.2391420  76.1458150 107.6336050
 127.3216890  74.9613170 107.4165290 119.1460550  78.1643940 123.0110830
 118.8460690  78.3101120 122.1138650 119.9171790  77.6049230 122.9184220
 124.4889000  82.9612940 121.0065960 124.5033540  82.0293900 120.7884870
 123.7814100  83.0472700 121.6455730 130.7000210  79.6020280 120.3534540
 129.9748400  80.1949060 120.1563930 131.2275670  79.5943820 119.5547910
 130.6513320  83.9995020 110.0046700 130.0089480  83.3450640 110.2790420
 130.2643980  84.4050110 109.2287370 122.3163080  82.0878140 111.2588800
 123.0034210  82.6347350 111.6396390 121.5295500  82.6318870 111.2938410
 125.1954980  82.6062860 116.8183910 125.8377210  81.9056020 116.9316080
 125.7204330  83.3861300 116.6380800 129.0410700  82.8911480 106.5423050
 128.8148280  82.1741920 107.1347690 128.6506900  82.6423920 105.7044800
 126.9692600  83.4057760 120.0219970 127.3048840  83.9924450 120.6997890
 126.0492940  83.2750470 120.2517760 114.5196000  71.1952940 120.8043380
 113.8054520  71.3949860 121.4095990 114.9391040  70.4192510 121.1758180
 116.4401990  79.5224430 108.8787940 115.8329940  80.2623330 108.8883240
 116.9151340  79.6123790 108.0526140 126.0134780  73.6875250 118.5544830
 126.3815600  72.8670460 118.8824400 125.1532980  73.7477140 118.9700480
 129.3796810  72.6432190 109.3632390 128.7509970  72.7477860 108.6490620
 128.8848730  72.8628970 110.1526270 122.9736770  76.3414840 118.7782800
 123.4722020  76.8160660 119.4434650 123.1159720  75.4178360 118.9852830
 122.4673060  86.8824100 111.4914040 122.7214560  86.8445490 110.5693410
 121.5185540  86.7557430 111.4842290 130.1803630  72.5582800 119.6211190
 129.6777230  73.2988200 119.9605000 130.9960290  72.9466800 119.3047980
 118.4507280  79.4835580 106.6276510 119.2170550  79.3716940 107.1901940
 118.5281970  78.7873550 105.9753280 130.4751220  84.9724830 114.7426810
 130.5998640  85.7956000 115.2150620 131.3416780  84.7615560 114.3950960
 117.9468750  87.0656040 114.4143940 118.6831230  86.5171500 114.6852510
 118.3309670  87.9312050 114.2749930 125.7891660  82.3581980 123.5504930
 125.1829820  82.3813580 122.8100680 125.4845770  81.6265020 124.0872180
 127.2192030  86.0862270 122.1614340 128.1713780  86.0020290 122.1114580
 127.0720250  86.7503980 122.8348130 130.1101230  85.4656480 107.6606250
 129.8242740  85.0521620 106.8460430 129.9120780  86.3944190 107.5406770
 121.7262780  80.1446560 122.0801090 120.9608450  80.7131560 121.9955760
 121.9078740  79.8522770 121.1869320 128.8686130  81.8751890 122.6376110
 129.6095600  82.2127650 122.1343570 128.1058810  82.0443950 122.0845880
 128.0153960  77.2662880 123.1770470 128.5974730  76.5115200 123.0890950
 128.1915730  77.7970320 122.4001950 121.8987470  70.9832870 118.5214810
 121.4504770  71.0057130 117.6760360 121.2652670  70.5851890 119.1185110
 122.3047020  79.8787200 119.1427250 122.7235130  80.7219930 118.9703490
 121.3855650  80.0159240 118.9134030 126.2273120  73.7690540 122.0173930
 125.5388640  73.1072080 121.9523920 126.9479140  73.3228810 122.4622390
 117.1998140  81.9576980 106.3684990 117.6373010  82.5006650 107.0242570
 117.6845870  81.1323930 106.3781330 119.0105860  83.0775020 111.4807220
 118.7101400  82.9539990 112.3811130 118.9043350  82.2183610 111.0722950
 130.5396330  85.1153600 120.8464190 129.9398320  85.1746160 120.1028110
 130.6690230  84.1758580 120.9761040 131.7797780  82.8571420 106.1833900
 130.9490740  82.9248070 106.6541130 131.9569610  83.7475540 105.8800760
 114.7358580  78.1256830 112.9175760 114.0807420  77.8568470 112.2735460
 115.5736530  78.0161310 112.4677740 129.2247970  81.8405580 118.9440350
 128.4107810  82.2702740 119.2066140 129.6322170  82.4523990 118.3309400
 131.2873410  79.8953270 105.8440620 131.5622250  80.8032150 105.7159840
 131.0984150  79.8315800 106.7802610 127.6849020  72.9198120 107.1394250
 128.1033900  72.7329100 106.2990910 127.3785080  72.0677170 107.4497180
 130.5738370  76.9793780 120.4709570 130.3424460  76.7506530 119.5707520
 130.8342920  77.8993330 120.4254460 129.0126440  72.2050210 123.2489270
 129.8896620  72.2133610 123.6323270 129.0247280  71.4681050 122.6381620
 130.6379430  76.1419620 117.6596840 129.6882140  76.1083160 117.7741830
 130.8192440  77.0519730 117.4246610 129.9489680  75.3153100 110.0769700
 130.4448800  75.0823970 110.8618580 129.7505750  74.4764940 109.6607340
 129.7242560  69.8908180 119.0690380 130.3614780  70.5042320 119.4349570
 129.8717450  69.9268840 118.1239610 132.2667110  71.7821970 105.8513520
 133.1916420  71.6503150 105.6431810 132.2442900  71.8614790 106.8049970
 132.3405600  72.5532630 108.4770230 131.5457100  72.4877750 109.0063140
 132.5448880  73.4883270 108.4655580 129.2824020  86.5924180 112.4708620
 129.8783090  86.2708750 111.7943040 129.5402170  86.1196000 113.2621890
 125.7321600  70.7004430 121.6157770 126.3462010  71.0183720 120.9538850
 126.2771160  70.2153020 122.2353630 132.1496780  86.5996060 119.0219610
 131.6555060  86.9964930 118.3046740 131.5410070  85.9745270 119.4156890
 126.4729640  69.2636570 117.9427060 125.5989480  69.5971680 117.7399990
 126.3640390  68.7909750 118.7678930 127.3801620  71.4707440 119.3268780
 127.0514980  70.6559200 118.9470510 128.3283920  71.4277250 119.2034470
 129.8336230  87.2419480 116.3006350 129.3739200  87.9935290 115.9264370
 129.2048690  86.5225950 116.2421150 124.2204460  70.1806410 116.8819970
 123.4376250  70.6551910 117.1616730 123.9267390  69.2761240 116.7733150
 126.6083660  69.2635610 113.6319070 127.2113030  69.8355820 114.1067590
 125.8676650  69.8275050 113.4092970 129.7518260  69.6657170 108.9059350
 129.9468890  70.5640620 109.1726780 128.9648130  69.4344250 109.3992300
 123.0699810  87.3632310 123.6691660 123.9967120  87.1276580 123.7127620
 123.0550240  88.1904310 123.1877690 131.3044870  86.9057880 110.6665910
 131.4797060  86.2195620 110.0226830 130.6066440  87.4304930 110.2742580
 126.8578880  69.4430640 124.0114010 126.7444330  69.7625250 124.9065530
 127.6748620  69.8443150 123.7151290 129.6377370  86.5902170 123.4932700
 130.4302690  86.0951400 123.2858660 129.9310520  87.2692310 124.1008310
 123.8955070  79.2402130  96.2558020 123.1197170  78.7602570  96.5456590
 124.5468000  78.5607780  96.0814180 117.9120900  79.5521940  97.1333780
 117.0805780  79.2970650  97.5330290 118.5201880  79.6232710  97.8691700
 127.9162500  83.6462320  95.0357150 127.4544030  82.8749560  95.3644320
 128.7288050  83.6728390  95.5409600 117.8922160  83.5862030  97.3291800
 118.1950200  82.6959770  97.1502020 118.6365750  84.1432250  97.1014050
 123.3364060  81.9159320  96.2628180 123.2672340  80.9749260  96.1017310
 124.0983920  82.0060730  96.8350750 118.4974240  73.0955330  91.9514550
 118.6040990  73.9959060  92.2583310 117.5866600  73.0473300  91.6609200
 128.1493350  72.2180140  93.4225450 128.9702970  71.7276710  93.4650930
 128.1827430  72.8077800  94.1757290 132.4392900  74.2346890  99.9869080
 131.7345070  74.6228600  99.4684190 132.7050820  74.9297180 100.5890010
 125.0089160  80.8159570  92.0493050 124.3906430  81.2809020  91.4855770
 125.5212410  81.5087050  92.4662560 119.8720920  80.3435440  98.7276650
 119.5390300  80.9704360  99.3697720 120.0487600  80.8697320  97.9478320
 128.3854830  74.1580520  96.1952990 127.6810400  74.4465410  96.7756100
 128.7466990  74.9680630  95.8352550 119.0840020  82.3116240 100.5425830
 119.7014020  82.9867320 100.2610280 118.2233140  82.7204220 100.4513330
 130.0017610  83.7755650  98.4580470 129.3181130  84.4454760  98.4497140
 130.5411900  83.9736300  97.6925330 131.4541750  73.6035310  96.5862200
 130.5066660  73.6374290  96.7177630 131.7791740  74.4174260  96.9711560
 121.9861290  69.9032490  94.8818190 122.2936270  69.3479380  94.1653690
 121.0561990  70.0376950  94.6991180 128.8321770  82.3416000  92.2615820
 128.7218100  81.3990330  92.3865240 128.8290020  82.7031640  93.1478580
 130.8823890  78.9216840  98.5924500 130.0542520  78.9909930  98.1174630
 131.4774370  79.5071150  98.1240330 128.4039340  79.5301620  92.1213560
 127.7851760  79.1921170  91.4739860 128.3863790  78.8861380  92.8292750
 127.8465900  75.7086160  99.5379370 127.4337080  76.5339870  99.7919360
 127.1141850  75.1231200  99.3455730 119.9798690  78.4946060  94.3998040
 119.5755690  77.7823310  93.9043940 120.0661810  78.1499300  95.2886080
 120.4480390  82.1813620  96.5637250 120.1508680  81.5759090  95.8845030
 121.3980210  82.2190930  96.4526610 128.5366000  85.7545490 100.2260350
 128.0596560  86.5617680 100.0332960 127.8527790  85.1023820 100.3786560
 119.5398820  81.9195310 103.2145050 118.6427350  82.1435280 103.4618450
 119.5651690  82.0430250 102.2656450 126.5804040  78.7688430  89.1286310
 127.0197320  77.9310860  88.9824130 127.2932460  79.4017830  89.2150450
 118.3670040  78.7908630 101.7902420 118.2277810  79.6631430 102.1589820
 117.4851400  78.4481440 101.6450360 124.6899420  83.7084500  93.0967550
 125.1295330  84.4508830  92.6822940 124.6286310  83.9511070  94.0206510
 130.1621180  70.0231240  87.4427350 129.8493840  70.1158070  88.3426420
 130.9233650  70.6012270  87.3924780 115.5636320  82.2606370  94.1179510
 115.1564400  82.4020960  93.2633110 116.4549330  81.9766530  93.9150720
 125.3815200  86.4098280 101.0246560 125.8959870  86.3206290 101.8268990
 124.5384280  86.7557980 101.3174470 119.8357980  86.4752150  92.2302180
 119.6600460  85.5587690  92.0169980 118.9813720  86.8339440  92.4699980
 114.3748210  81.6020350 100.2467790 114.5379250  81.1325710  99.4287160
 114.8400660  81.0943910 100.9116630 119.1466980  70.7326110  95.2828360
 118.7035130  71.5135650  94.9512880 119.7051970  71.0556000  95.9899300
 128.4341300  74.8203580 102.0160340 127.5834890  74.5209330 102.3369410
 128.2743090  75.0645590 101.1044160 118.9381200  75.8559680  93.0109610
 118.7122120  75.6396850  93.9156230 118.1573730  76.2888140  92.6655580
 125.3598970  77.0892340  97.7354320 124.6280090  77.5979150  98.0844420
 124.9623310  76.2722320  97.4343100 125.8224880  72.5426020  97.1477260
 125.8397620  72.9934670  97.9919110 125.5740460  71.6431660  97.3610700
 120.8718010  77.0759760  88.5296870 120.3034910  76.6278010  87.9032780
 121.5807010  77.4352540  87.9962020 129.2495630  69.9558200 102.9863640
 129.5741400  69.2247860 103.5121620 129.2852140  69.6371840 102.0844630
 115.9487190  80.9771780 102.4063600 115.5641980  80.3365450 103.0046560
 116.2599380  81.6807900 102.9758330 122.0984330  77.8248320  97.8872220
 122.4654460  77.3506890  98.6333560 121.9089390  78.6989890  98.2280560
 129.1753470  80.0683310  96.5949670 129.8952590  80.5638600  96.2045780
 128.9735290  79.3901200  95.9503540 124.6363410  71.4621270  90.7379060
 123.8228020  70.9634440  90.6624370 124.4425360  72.3019520  90.3215410
 127.3511800  75.8340920  89.0341220 128.2391420  76.1458150  88.8592560
 127.3216890  74.9613170  88.6421800 118.4602890  80.7398330  94.4402090
 118.9781560  79.9366590  94.3858980 118.0086910  80.6777470  95.2818920
 123.3472390  82.0064610  89.7129390 123.6888090  82.7506840  89.2172710
 122.5185100  82.3195730  90.0754220 119.1460550  78.1643940 104.2367340
 118.8460690  78.3101120 103.3395160 119.9171790  77.6049230 104.1440730
 129.6226070  77.1452760  88.5021080 129.5389790  77.5766980  87.6517520
 130.3420260  77.6051110  88.9347900 130.6513320  83.9995020  91.2303210
 130.0089480  83.3450640  91.5046930 130.2643980  84.4050110  90.4543880
 126.2299800  81.3280450  95.0774900 126.5823620  80.7308580  94.4176270
 125.3462130  81.0024680  95.2483150 122.3163080  82.0878140  92.4845310
 123.0034210  82.6347350  92.8652900 121.5295500  82.6318870  92.5194920
 121.6190290  79.0924170  92.0970670 122.0753070  79.9029420  92.3230860
 121.2678500  78.7747310  92.9289160 117.5202070  69.4361820  92.5693190
 117.3916700  69.4279720  93.5178110 116.6964090  69.7744910  92.2184200
 129.0410700  82.8911480  87.7679560 128.8148280  82.1741920  88.3604200
 128.6506900  82.6423920  86.9301310 114.8068590  85.1833200 103.0166420
 114.9159710  84.2427940 102.8761810 114.1549150  85.4487950 102.3680150
 120.8395350  84.3009540  89.3597690 120.8305450  85.0339230  88.7442200
 119.9193710  84.0541120  89.4524650 126.0134780  73.6875250  99.7801340
 126.3815600  72.8670460 100.1080910 125.1532980  73.7477140 100.1956990
 129.3796810  72.6432190  90.5888900 128.7509970  72.7477860  89.8747130
 128.8848730  72.8628970  91.3782780 123.8254950  84.3637780  88.0222880
 123.9266930  84.1601770  87.0924860 122.9256690  84.1096060  88.2270660
 125.3796270  71.6468800  93.4442570 125.2564050  71.6654930  92.4952080
 126.3280830  71.6947740  93.5640970 130.1803630  72.5582800 100.8467700
 129.6777230  73.2988200 101.1861510 130.9960290  72.9466800 100.5304490
 130.4751220  84.9724830  95.9683320 130.5998640  85.7956000  96.4407130
 131.3416780  84.7615560  95.6207470 117.9468750  87.0656040  95.6400450
 118.6831230  86.5171500  95.9109020 118.3309670  87.9312050  95.5006440
 121.0571060  86.2386350  87.4626020 121.8499670  86.5275180  87.0107810
 120.5375410  85.8078520  86.7838500 127.2192030  86.0862270 103.3870850
 128.1713780  86.0020290 103.3371090 127.0720250  86.7503980 104.0604640
 121.5748460  81.4589760  87.3268370 121.4699100  80.8442110  88.0529750
 121.4072680  80.9355650  86.5431380 124.8151190  80.5209790  87.9310360
 124.2661290  80.9679090  88.5753100 125.4370450  80.0159040  88.4548030
 128.8686130  81.8751890 103.8632620 129.6095600  82.2127650 103.3600080
 128.1058810  82.0443950 103.3102390 120.4826310  79.4800710  89.8275660
 120.9042730  79.3140580  90.6707050 120.6077150  78.6700940  89.3330800
 122.9953950  78.5038320  87.0752760 123.5159610  77.7887340  86.7093910
 123.6422350  79.1424190  87.3753270 127.5431790  79.9266720 102.3987830
 127.9572810  80.0811800 103.2478250 126.6082790  80.0521940 102.5613610
 128.0153960  77.2662880 104.4026980 128.5974730  76.5115200 104.3147460
 128.1915730  77.7970320 103.6258460 122.3047020  79.8787200 100.3683760
 122.7235130  80.7219930 100.1960000 121.3855650  80.0159240 100.1390540
 126.9798820  78.1640570 100.3284110 126.4534040  78.6883190  99.7249250
 127.3230160  78.7967960 100.9593840 119.3785210  75.5533940  86.7733820
 119.1774270  74.6901300  87.1347160 119.2077260  75.4667300  85.8355420
 120.1554440  86.1840210 101.4841490 119.6175530  86.9086270 101.1650190
 120.4088400  85.7070550 100.6938830 126.2273120  73.7690540 103.2430440
 125.5388640  73.1072080 103.1780430 126.9479140  73.3228810 103.6878900
 126.8573520  70.3642170  89.3020700 127.1375810  69.5210070  89.6580120
 126.0839250  70.5965280  89.8159450 118.1768010  72.6534560  86.7611700
 118.4793910  72.6601990  85.8530850 118.9162600  72.3032420  87.2579360
 123.0116650  87.4191420 101.7428140 122.9375350  88.3226560 102.0500510
 122.1095490  87.1003320 101.7150210 123.5601980  86.5849930  89.3654500
 124.4552770  86.9234900  89.3873260 123.5919610  85.8629340  88.7378780
 114.4143940  84.7466010  95.0461760 114.7446950  83.8787070  94.8140400
 114.8434940  84.9524530  95.8766720 119.0105860  83.0775020  92.7063730
 118.7101400  82.9539990  93.6067640 118.9043350  82.2183610  92.2979460
 114.9034150  85.6136600  97.7843390 114.4665140  85.7937400  98.6167540
 115.4711830  86.3711220  97.6425110 130.5396330  85.1153600 102.0720700
 129.9398320  85.1746160 101.3284620 130.6690230  84.1758580 102.2017550
 131.7797780  82.8571420  87.4090410 130.9490740  82.9248070  87.8797640
 131.9569610  83.7475540  87.1057270 132.2414210  80.4569000  94.7566540
 132.6123040  79.6736320  94.3502510 132.8816140  81.1458100  94.5783840
 129.2247970  81.8405580 100.1696860 128.4107810  82.2702740 100.4322650
 129.6322170  82.4523990  99.5565910 131.2873410  79.8953270  87.0697130
 131.5622250  80.8032150  86.9416350 131.0984150  79.8315800  88.0059120
 127.6849020  72.9198120  88.3650760 128.1033900  72.7329100  87.5247420
 127.3785080  72.0677170  88.6753690 129.0126440  72.2050210 104.4745780
 129.8896620  72.2133610 104.8579780 129.0247280  71.4681050 103.8638130
 130.4589710  76.0579750  95.3633800 130.9827190  75.5642400  94.7323970
 131.0449130  76.1930110  96.1081370 130.6379430  76.1419620  98.8853350
 129.6882140  76.1083160  98.9998340 130.8192440  77.0519730  98.6503120
 116.4923870  74.3921300  87.9951980 117.2015570  73.9704520  87.5099260
 115.7763810  74.4596530  87.3635330 116.1398030  70.4460630  87.0354630
 116.8626160  70.9869570  87.3535850 116.4122550  70.1724050  86.1596170
 129.9489680  75.3153100  91.3026210 130.4448800  75.0823970  92.0875090
 129.7505750  74.4764940  90.8863850 131.3776840  73.9514050  93.8363890
 131.2676120  73.7970090  94.7746160 132.1384430  73.4234990  93.5939300
 129.7242560  69.8908180 100.2946890 130.3614780  70.5042320 100.6606080
 129.8717450  69.9268840  99.3496120 132.2667110  71.7821970  87.0770030
 133.1916420  71.6503150  86.8688320 132.2442900  71.8614790  88.0306480
 132.3405600  72.5532630  89.7026740 131.5457100  72.4877750  90.2319650
 132.5448880  73.4883270  89.6912090 117.1886590  83.0242090 103.8455760
 117.1456220  82.6535000 104.7270220 117.3197600  83.9619660 103.9857580
 120.8892620  84.5801680  99.4465480 120.6483980  84.8476240  98.5596000
 121.8295260  84.7507410  99.5016340 132.1496780  86.5996060 100.2476120
 131.6555060  86.9964930  99.5303250 131.5410070  85.9745270 100.6413400
 117.0274620  85.9704340 100.9653540 116.4334940  85.8389040 101.7043580
 117.0198460  85.1342480 100.4995640 126.4729640  69.2636570  99.1683570
 125.5989480  69.5971680  98.9656500 126.3640390  68.7909750  99.9935440
 127.3801620  71.4707440 100.5525290 127.0514980  70.6559200 100.1727020
 128.3283920  71.4277250 100.4290980 116.6586850  83.3362720  99.9161580
 115.9320910  82.7168010  99.8487530 116.7196000  83.7303330  99.0459660
 120.2631950  85.5507720  96.7010990 120.7796970  84.9395080  96.1759250
 120.9129330  86.0536500  97.1922000 123.0027450  86.4416210  97.5279970
 123.2905260  86.1870510  96.6512980 123.5150670  85.8893570  98.1185540
 128.7725530  70.8829510  96.1525570 129.2133620  70.8274610  95.3047170
 128.5033120  71.7987520  96.2235750 130.6364100  70.5144750  94.1634390
 130.5752500  69.5705970  94.0165410 131.4156130  70.6224840  94.7087850
 114.9416850  86.6537110  93.1258340 114.7738890  86.0207790  93.8240230
 114.0751360  86.8596510  92.7752530 115.5644870  70.4853890  90.6290200
 116.3224230  70.5982770  90.0554230 115.1022040  71.3223090  90.5833630
 126.6083660  69.2635610  94.8575580 127.2113030  69.8355820  95.3324100
 125.8676650  69.8275050  94.6349480 129.7518260  69.6657170  90.1315860
 129.9468890  70.5640620  90.3983290 128.9648130  69.4344250  90.6248810
 116.5479550  85.3470340  90.5708480 116.0227170  85.7278370  89.8670440
 116.4724130  85.9721110  91.2918190 123.0699810  87.3632310 104.8948170
 123.9967120  87.1276580 104.9384130 123.0550240  88.1904310 104.4134200
 118.3087310  83.4117450  89.4504060 117.6796190  83.8802550  89.9989890
 118.4235140  82.5666670  89.8850250 129.6377370  86.5902170 104.7189210
 130.4302690  86.0951400 104.5115170 129.9310520  87.2692310 105.3264820
 123.8955070  79.2402130  77.4814530 123.1197170  78.7602570  77.7713100
 124.5468000  78.5607780  77.3070690 117.9120900  79.5521940  78.3590290
 117.0805780  79.2970650  78.7586800 118.5201880  79.6232710  79.0948210
 117.8922160  83.5862030  78.5548310 118.1950200  82.6959770  78.3758530
 118.6365750  84.1432250  78.3270560 116.3212850  74.5123830  72.1432680
 115.4329550  74.8539800  72.0412560 116.6054040  74.3124150  71.2513510
 123.3364060  81.9159320  77.4884690 123.2672340  80.9749260  77.3273820
 124.0983920  82.0060730  78.0607260 115.5270730  72.5213840  79.8141310
 115.3473570  71.6239590  80.0944070 115.1250810  73.0685710  80.4888260
 118.4974240  73.0955330  73.1771060 118.6040990  73.9959060  73.4839820
 117.5866600  73.0473300  72.8865710 132.4392900  74.2346890  81.2125590
 131.7345070  74.6228600  80.6940700 132.7050820  74.9297180  81.8146520
 119.8720920  80.3435440  79.9533160 119.5390300  80.9704360  80.5954230
 120.0487600  80.8697320  79.1734830 119.0840020  82.3116240  81.7682340
 119.7014020  82.9867320  81.4866790 118.2233140  82.7204220  81.6769840
 114.3772360  81.5016100  70.6489190 114.0000340  81.9903200  69.9174090
 114.6345430  82.1741380  71.2795720 130.0017610  83.7755650  79.6836980
 129.3181130  84.4454760  79.6753650 130.5411900  83.9736300  78.9181840
 127.5376350  85.6199780  78.3982160 127.5503510  85.2162070  77.5304420
 126.9851570  86.3947070  78.2943590 130.8823890  78.9216840  79.8181010
 130.0542520  78.9909930  79.3431140 131.4774370  79.5071150  79.3496840
 120.4480390  82.1813620  77.7893760 120.1508680  81.5759090  77.1101540
 121.3980210  82.2190930  77.6783120 119.5398820  81.9195310  84.4401560
 118.6427350  82.1435280  84.6874960 119.5651690  82.0430250  83.4912960
 118.3670040  78.7908630  83.0158930 118.2277810  79.6631430  83.3846330
 117.4851400  78.4481440  82.8706870 124.6899420  83.7084500  74.3224060
 125.1295330  84.4508830  73.9079450 124.6286310  83.9511070  75.2463020
 120.1650390  84.7330330  85.2244080 120.1365820  85.1373280  84.3572510
 120.0015360  83.8040690  85.0615680 132.1165210  85.5157430  86.5208250
 132.5924930  85.9940320  87.1997330 132.7372370  85.4474920  85.7953750
 131.5198460  82.7070280  83.6808260 131.6461520  82.4682160  82.7625440
 131.5619840  81.8754820  84.1530340 127.0595730  84.2041180  70.2385070
 126.3660890  84.2018470  69.5787350 127.8018590  83.7800500  69.8079240
 126.6245660  85.8303890  74.3133560 127.0802610  85.0493270  74.6272180
 126.9638180  86.5410710  74.8574740 131.3722470  74.7602740  84.6458000
 130.7566740  75.2682410  84.1173460 131.0518890  73.8601070  84.5883940
 121.3780410  76.7545260  84.9026390 121.2824010  75.8139990  84.7526790
 122.2212390  76.9760330  84.5074460 116.5090950  73.1658930  83.0560170
 116.1154340  74.0134140  83.2632950 115.8209350  72.5285300  83.2468810
 113.8108000  71.0887390  77.0890250 113.5221050  71.6590250  77.8015230
 114.5553760  70.6091840  77.4521480 113.9978230  75.0307510  68.2992970
 113.9152900  75.9738270  68.4407960 113.6461290  74.8882420  67.4205320
 129.2495630  69.9558200  84.2120150 129.5741400  69.2247860  84.7378130
 129.2852140  69.6371840  83.3101140 122.0984330  77.8248320  79.1128730
 122.4654460  77.3506890  79.8590070 121.9089390  78.6989890  79.4537070
 114.9624820  72.5692010  75.2422200 114.6771740  72.2047680  76.0800820
 114.9003680  71.8372470  74.6285340 119.8883700  76.8656960  81.4312940
 119.5840770  77.7448940  81.6563300 120.8430160  76.9256750  81.4670380
 118.4165490  81.0717950  72.0279790 117.6427750  80.5315570  71.8678510
 119.1460120  80.5524560  71.6897550 118.4602890  80.7398330  75.6658600
 118.9781560  79.9366590  75.6115490 118.0086910  80.6777470  76.5075430
 123.3472390  82.0064610  70.9385900 123.6888090  82.7506840  70.4429220
 122.5185100  82.3195730  71.3010730 115.9447430  77.7059700  82.5784300
 115.5862370  78.3713550  83.1657640 115.6501990  76.8743250  82.9496920
 119.1460550  78.1643940  85.4623850 118.8460690  78.3101120  84.5651670
 119.9171790  77.6049230  85.3697240 129.6226070  77.1452760  69.7277590
 129.5389790  77.5766980  68.8774030 130.3420260  77.6051110  70.1604410
 130.6513320  83.9995020  72.4559720 130.0089480  83.3450640  72.7303440
 130.2643980  84.4050110  71.6800390 122.3163080  82.0878140  73.7101820
 123.0034210  82.6347350  74.0909410 121.5295500  82.6318870  73.7451430
 114.4555480  77.7050960  69.2018900 115.3250330  77.9875760  69.4854820
 113.9645800  78.5186830  69.0867710 125.1954980  82.6062860  79.2696930
 125.8377210  81.9056020  79.3829100 125.7204330  83.3861300  79.0893820
 129.0410700  82.8911480  68.9936070 128.8148280  82.1741920  69.5860710
 128.6506900  82.6423920  68.1557820 126.9692600  83.4057760  82.4732990
 127.3048840  83.9924450  83.1510910 126.0492940  83.2750470  82.7030780
 114.8226730  86.9178340  69.7680530 115.1824370  87.5167680  69.1137800
 114.6819070  87.4638230  70.5415560 114.5196000  71.1952940  83.2556400
 113.8054520  71.3949860  83.8609010 114.9391040  70.4192510  83.6271200
 122.7981180  83.4549090  85.6421050 122.4778050  82.7358330  86.1866740
 122.1239540  84.1304160  85.7157110 120.8395350  84.3009540  70.5854200
 120.8305450  85.0339230  69.9698710 119.9193710  84.0541120  70.6781160
 116.4401990  79.5224430  71.3300960 115.8329940  80.2623330  71.3396260
 116.9151340  79.6123790  70.5039160 123.8254950  84.3637780  69.2479390
 123.9266930  84.1601770  68.3181370 122.9256690  84.1096060  69.4527170
 119.5515860  73.2303220  70.6054000 120.4006390  73.6673370  70.5394190
 119.1847130  73.5423480  71.4326060 117.9468750  87.0656040  76.8656960
 118.6831230  86.5171500  77.1365530 118.3309670  87.9312050  76.7262950
 114.8314230  83.1329610  72.7398470 113.9054010  83.3750750  72.7303880
 115.2970660  83.9603870  72.6183220 116.9527030  86.2502110  86.0542540
 117.7539760  86.5714160  86.4677940 116.4378850  85.8897690  86.7762450
 121.0571060  86.2386350  68.6882530 121.8499670  86.5275180  68.2364320
 120.5375410  85.8078520  68.0095010 125.7891660  82.3581980  86.0017950
 125.1829820  82.3813580  85.2613700 125.4845770  81.6265020  86.5385200
 127.2192030  86.0862270  84.6127360 128.1713780  86.0020290  84.5627600
 127.0720250  86.7503980  85.2861150 130.1101230  85.4656480  70.1119270
 129.8242740  85.0521620  69.2973450 129.9120780  86.3944190  69.9919790
 121.5748460  81.4589760  68.5524880 121.4699100  80.8442110  69.2786260
 121.4072680  80.9355650  67.7687890 121.7262780  80.1446560  84.5314110
 120.9608450  80.7131560  84.4468780 121.9078740  79.8522770  83.6382340
 124.8151190  80.5209790  69.1566870 124.2661290  80.9679090  69.8009610
 125.4370450  80.0159040  69.6804540 128.8686130  81.8751890  85.0889130
 129.6095600  82.2127650  84.5856590 128.1058810  82.0443950  84.5358900
 118.6453730  75.4597260  83.8603150 118.1150190  74.9688210  83.2326490
 119.3141800  75.8881460  83.3261080 128.0153960  77.2662880  85.6283490
 128.5974730  76.5115200  85.5403970 128.1915730  77.7970320  84.8514970
 119.1326030  72.4259630  83.9400440 119.0382900  71.8080380  83.2151310
 118.5523420  73.1525920  83.7130350 122.3047020  79.8787200  81.5940270
 122.7235130  80.7219930  81.4216510 121.3855650  80.0159240  81.3647050
 120.1554440  86.1840210  82.7098000 119.6175530  86.9086270  82.3906700
 120.4088400  85.7070550  81.9195340 121.4079690  74.1524730  84.2353930
 121.9979380  73.8440580  84.9231750 120.5899930  73.6804480  84.3913830
 118.1768010  72.6534560  67.9868210 118.4793910  72.6601990  67.0787360
 118.9162600  72.3032420  68.4835870 123.5601980  86.5849930  70.5911010
 124.4552770  86.9234900  70.6129770 123.5919610  85.8629340  69.9635290
 117.1998140  81.9576980  68.8198010 117.6373010  82.5006650  69.4755590
 117.6845870  81.1323930  68.8294350 119.0105860  83.0775020  73.9320240
 118.7101400  82.9539990  74.8324150 118.9043350  82.2183610  73.5235970
 114.9034150  85.6136600  79.0099900 114.4665140  85.7937400  79.8424050
 115.4711830  86.3711220  78.8681620 130.5396330  85.1153600  83.2977210
 129.9398320  85.1746160  82.5541130 130.6690230  84.1758580  83.4274060
 131.7797780  82.8571420  68.6346920 130.9490740  82.9248070  69.1054150
 131.9569610  83.7475540  68.3313780 129.2247970  81.8405580  81.3953370
 128.4107810  82.2702740  81.6579160 129.6322170  82.4523990  80.7822420
 131.2873410  79.8953270  68.2953640 131.5622250  80.8032150  68.1672860
 131.0984150  79.8315800  69.2315630 131.1838750  77.8322260  73.2883070
 130.8082350  77.0650190  72.8564360 130.4541870  78.2144960  73.7758000
 115.3250510  75.4218490  83.8150540 114.4306560  75.3885250  84.1544250
 115.8648060  75.6205280  84.5801790 129.0126440  72.2050210  85.7002290
 129.8896620  72.2133610  86.0836290 129.0247280  71.4681050  85.0894640
 113.9496660  75.3355760  71.3114110 113.0460740  75.5985960  71.1365770
 114.4337280  75.6066930  70.5314070 116.4923870  74.3921300  69.2208490
 117.2015570  73.9704520  68.7355770 115.7763810  74.4596530  68.5891840
 131.3776840  73.9514050  75.0620400 131.2676120  73.7970090  76.0002670
 132.1384430  73.4234990  74.8195810 129.7242560  69.8908180  81.5203400
 130.3614780  70.5042320  81.8862590 129.8717450  69.9268840  80.5752630
 129.2824020  86.5924180  74.9221640 129.8783090  86.2708750  74.2456060
 129.5402170  86.1196000  75.7134910 115.5822220  69.8522490  80.9059080
 115.2337040  70.3086310  81.6717260 115.2509920  68.9579620  80.9881510
 120.8892620  84.5801680  80.6721990 120.6483980  84.8476240  79.7852510
 121.8295260  84.7507410  80.7272850 123.0947040  71.0434370  84.4278500
 123.0335930  71.6356200  85.1773910 124.0347420  70.9360330  84.2828760
 125.7321600  70.7004430  84.0670790 126.3462010  71.0183720  83.4051870
 126.2771160  70.2153020  84.6866650 132.1496780  86.5996060  81.4732630
 131.6555060  86.9964930  80.7559760 131.5410070  85.9745270  81.8669910
 116.2542860  69.3798690  84.1809850 116.8025850  69.1986740  83.4175960
 116.3198170  68.5892800  84.7166160 117.0274620  85.9704340  82.1910050
 116.4334940  85.8389040  82.9300090 117.0198460  85.1342480  81.7252150
 126.4729640  69.2636570  80.3940080 125.5989480  69.5971680  80.1913010
 126.3640390  68.7909750  81.2191950 129.8336230  87.2419480  78.7519370
 129.3739200  87.9935290  78.3777390 129.2048690  86.5225950  78.6934170
 116.6586850  83.3362720  81.1418090 115.9320910  82.7168010  81.0744040
 116.7196000  83.7303330  80.2716170 120.2631950  85.5507720  77.9267500
 120.7796970  84.9395080  77.4015760 120.9129330  86.0536500  78.4178510
 124.2204460  70.1806410  79.3332990 123.4376250  70.6551910  79.6129750
 123.9267390  69.2761240  79.2246170 128.7725530  70.8829510  77.3782080
 129.2133620  70.8274610  76.5303680 128.5033120  71.7987520  77.4492260
 126.6083660  69.2635610  76.0832090 127.2113030  69.8355820  76.5580610
 125.8676650  69.8275050  75.8605990 116.5479550  85.3470340  71.7964990
 116.0227170  85.7278370  71.0926950 116.4724130  85.9721110  72.5174700
 123.0699810  87.3632310  86.1204680 123.9967120  87.1276580  86.1640640
 123.0550240  88.1904310  85.6390710 131.3044870  86.9057880  73.1178930
 131.4797060  86.2195620  72.4739850 130.6066440  87.4304930  72.7255600
 120.2563420  70.0277060  85.8846560 119.9747690  70.5310660  85.1207380
 120.6383120  69.2298810  85.5188690 119.1472520  87.2952720  70.6714240
 119.8791340  87.0112000  70.1238130 119.4066190  87.0566000  71.5613620
 118.3087310  83.4117450  70.6760570 117.6796190  83.8802550  71.2246400
 118.4235140  82.5666670  71.1106760 126.8578880  69.4430640  86.4627030
 126.7444330  69.7625250  87.3578550 127.6748620  69.8443150  86.1664310
 129.6377370  86.5902170  85.9445720 130.4302690  86.0951400  85.7371680
 129.9310520  87.2692310  86.5521330 114.2845860  77.1129480  59.2528890
 114.8561970  76.3451680  59.2532530 114.2847400  77.4118240  58.3435500
 124.1425810  85.9320330  57.1074160 123.5237250  86.3877830  56.5368600
 124.9977590  86.0871790  56.7063860 115.5270730  72.5213840  61.0397820
 115.3473570  71.6239590  61.3200580 115.1250810  73.0685710  61.7144770
 124.3669230  74.7229700  58.9410130 124.7434050  73.8501580  58.8283800
 124.2688740  75.0588400  58.0500570 116.1457400  75.0174340  59.6480160
 116.8267510  75.2812710  60.2667560 115.8305450  74.1775210  59.9818170
 120.3381970  76.0641700  58.7352750 120.8460190  76.5622670  59.3757770
 120.8695210  75.2876900  58.5592110 132.4392900  74.2346890  62.4382100
 131.7345070  74.6228600  61.9197210 132.7050820  74.9297180  63.0403030
 118.6218070  70.7040260  63.0016170 118.6236510  71.2212650  62.1962070
 117.7922380  70.2270440  62.9786100 125.0089160  80.8159570  54.5006070
 124.3906430  81.2809020  53.9368790 125.5212410  81.5087050  54.9175580
 118.3033400  72.4150220  61.0086620 118.6450210  73.2592270  60.7140490
 117.3649210  72.5633960  61.1251960 130.0017610  83.7755650  60.9093490
 129.3181130  84.4454760  60.9010160 130.5411900  83.9736300  60.1438350
 121.9861290  69.9032490  57.3331210 122.2936270  69.3479380  56.6166710
 121.0561990  70.0376950  57.1504200 128.8321770  82.3416000  54.7128840
 128.7218100  81.3990330  54.8378260 128.8290020  82.7031640  55.5991600
 124.3742050  77.9681320  54.0691330 123.4471330  77.9018700  54.2979800
 124.5266870  78.9061450  53.9546570 124.3611130  74.2398320  51.0658490
 123.4214800  74.4012280  51.1510950 124.6794390  74.9584000  50.5194480
 127.8465900  75.7086160  61.9892390 127.4337080  76.5339870  62.2432380
 127.1141850  75.1231200  61.7968750 119.9798690  78.4946060  56.8511060
 119.5755690  77.7823310  56.3556960 120.0661810  78.1499300  57.7399100
 118.6927310  75.2689270  60.6310100 119.2441900  75.3784610  59.8563350
 119.2070820  75.6426870  61.3465330 119.5398820  81.9195310  65.6658070
 118.6427350  82.1435280  65.9131470 119.5651690  82.0430250  64.7169470
 126.5804040  78.7688430  51.5799330 127.0197320  77.9310860  51.4337150
 127.2932460  79.4017830  51.6663470 124.6899420  83.7084500  55.5480570
 125.1295330  84.4508830  55.1335960 124.6286310  83.9511070  56.4719530
 120.1650390  84.7330330  66.4500590 120.1365820  85.1373280  65.5829020
 120.0015360  83.8040690  66.2872190 116.6803320  77.3891040  54.3517710
 116.5600920  78.1153130  53.7398980 116.3704210  76.6193950  53.8745620
 114.3188690  80.5606180  60.1586350 114.3969110  80.6954950  59.2142070
 114.9330370  79.8522070  60.3514470 115.5636320  82.2606370  56.5692530
 115.1564400  82.4020960  55.7146130 116.4549330  81.9766530  56.3663740
 131.5198460  82.7070280  64.9064770 131.6461520  82.4682160  63.9881950
 131.5619840  81.8754820  65.3786850 127.3569600  86.6953620  52.9043580
 127.1970740  86.4056560  53.8025410 127.1916310  85.9193750  52.3688810
 127.0595730  84.2041180  51.4641580 126.3660890  84.2018470  50.8043860
 127.8018590  83.7800500  51.0335750 126.6245660  85.8303890  55.5390070
 127.0802610  85.0493270  55.8528690 126.9638180  86.5410710  56.0831250
 131.3722470  74.7602740  65.8714510 130.7566740  75.2682410  65.3429970
 131.0518890  73.8601070  65.8140450 114.3748210  81.6020350  62.6980810
 114.5379250  81.1325710  61.8800180 114.8400660  81.0943910  63.3629650
 119.1466980  70.7326110  57.7341380 118.7035130  71.5135650  57.4025900
 119.7051970  71.0556000  58.4412320 128.4341300  74.8203580  64.4673360
 127.5834890  74.5209330  64.7882430 128.2743090  75.0645590  63.5557180
 121.1842880  71.2773440  59.5930980 121.4815210  72.1836270  59.5123000
 121.7328440  70.7892220  58.9790550 118.9381200  75.8559680  55.4622630
 118.7122120  75.6396850  56.3669250 118.1573730  76.2888140  55.1168600
 124.7743830  74.4986590  56.0916560 125.1673400  74.8158790  55.2785250
 125.1360680  73.6198470  56.2061080 116.5090950  73.1658930  64.2816680
 116.1154340  74.0134140  64.4889460 115.8209350  72.5285300  64.4725320
 113.9978230  75.0307510  49.5249480 113.9152900  75.9738270  49.6664470
 113.6461290  74.8882420  48.6461830 125.3598970  77.0892340  60.1867340
 124.6280090  77.5979150  60.5357440 124.9623310  76.2722320  59.8856120
 121.7976360  73.7646540  58.5919830 121.8012420  73.3236490  57.7424370
 122.6927480  74.0863870  58.6991650 125.8224880  72.5426020  59.5990280
 125.8397620  72.9934670  60.4432130 125.5740460  71.6431660  59.8123720
 115.9487190  80.9771780  64.8576620 115.5641980  80.3365450  65.4559580
 116.2599380  81.6807900  65.4271350 124.5572270  80.1392370  64.9331690
 124.4909580  79.2188040  64.6789280 123.9277410  80.2367810  65.6476330
 127.3511800  75.8340920  51.4854240 128.2391420  76.1458150  51.3105580
 127.3216890  74.9613170  51.0934820 118.4602890  80.7398330  56.8915110
 118.9781560  79.9366590  56.8372000 118.0086910  80.6777470  57.7331940
 123.3472390  82.0064610  52.1642410 123.6888090  82.7506840  51.6685730
 122.5185100  82.3195730  52.5267240 124.4889000  82.9612940  64.6835490
 124.5033540  82.0293900  64.4654400 123.7814100  83.0472700  65.3225260
 129.6226070  77.1452760  50.9534100 129.5389790  77.5766980  50.1030540
 130.3420260  77.6051110  51.3860920 130.6513320  83.9995020  53.6816230
 130.0089480  83.3450640  53.9559950 130.2643980  84.4050110  52.9056900
 122.3163080  82.0878140  54.9358330 123.0034210  82.6347350  55.3165920
 121.5295500  82.6318870  54.9707940 114.4555480  77.7050960  50.4275410
 115.3250330  77.9875760  50.7111330 113.9645800  78.5186830  50.3124220
 121.6190290  79.0924170  54.5483690 122.0753070  79.9029420  54.7743880
 121.2678500  78.7747310  55.3802180 125.1954980  82.6062860  60.4953440
 125.8377210  81.9056020  60.6085610 125.7204330  83.3861300  60.3150330
 129.0410700  82.8911480  50.2192580 128.8148280  82.1741920  50.8117220
 128.6506900  82.6423920  49.3814330 126.9692600  83.4057760  63.6989500
 127.3048840  83.9924450  64.3767420 126.0492940  83.2750470  63.9287290
 114.5196000  71.1952940  64.4812910 113.8054520  71.3949860  65.0865520
 114.9391040  70.4192510  64.8527710 128.6226950  80.8083420  51.8806740
 128.3348650  81.2696110  52.6684620 129.4179120  80.3481190  52.1490960
 114.8068590  85.1833200  65.4679440 114.9159710  84.2427940  65.3274830
 114.1549150  85.4487950  64.8193170 122.7981180  83.4549090  66.8677560
 122.4778050  82.7358330  67.4123250 122.1239540  84.1304160  66.9413620
 126.0134780  73.6875250  62.2314360 126.3815600  72.8670460  62.5593930
 125.1532980  73.7477140  62.6470010 123.8254950  84.3637780  50.4735900
 123.9266930  84.1601770  49.5437880 122.9256690  84.1096060  50.6783680
 121.3480840  74.9218140  54.4559800 120.6396990  75.3904480  54.8973410
 121.6325320  74.2640150  55.0904990 122.9736770  76.3414840  62.4552330
 123.4722020  76.8160660  63.1204180 123.1159720  75.4178360  62.6622360
 122.4673060  86.8824100  55.1683570 122.7214560  86.8445490  54.2462940
 121.5185540  86.7557430  55.1611820 118.4507280  79.4835580  50.3046040
 119.2170550  79.3716940  50.8671470 118.5281970  78.7873550  49.6522810
 117.1454040  76.9160650  50.9878930 117.2257630  75.9688160  51.0996330
 118.0373790  77.2467530  51.0939590 130.4751220  84.9724830  58.4196340
 130.5998640  85.7956000  58.8920150 131.3416780  84.7615560  58.0720490
 116.9527030  86.2502110  67.2799050 117.7539760  86.5714160  67.6934450
 116.4378850  85.8897690  68.0018960 125.7891660  82.3581980  67.2274460
 125.1829820  82.3813580  66.4870210 125.4845770  81.6265020  67.7641710
 127.2192030  86.0862270  65.8383870 128.1713780  86.0020290  65.7884110
 127.0720250  86.7503980  66.5117660 130.1101230  85.4656480  51.3375780
 129.8242740  85.0521620  50.5229960 129.9120780  86.3944190  51.2176300
 114.6724840  78.7375570  66.2235100 115.1763860  78.1582850  66.7951330
 113.9332260  79.0215800  66.7611470 121.5748460  81.4589760  49.7781390
 121.4699100  80.8442110  50.5042770 121.4072680  80.9355650  48.9944400
 124.8151190  80.5209790  50.3823380 124.2661290  80.9679090  51.0266120
 125.4370450  80.0159040  50.9061050 128.8686130  81.8751890  66.3145640
 129.6095600  82.2127650  65.8113100 128.1058810  82.0443950  65.7615410
 120.4826310  79.4800710  52.2788680 120.9042730  79.3140580  53.1220070
 120.6077150  78.6700940  51.7843820 122.9953950  78.5038320  49.5265780
 123.5159610  77.7887340  49.1606930 123.6422350  79.1424190  49.8266290
 127.5431790  79.9266720  64.8500850 127.9572810  80.0811800  65.6991270
 126.6082790  80.0521940  65.0126630 128.0153960  77.2662880  66.8540000
 128.5974730  76.5115200  66.7660480 128.1915730  77.7970320  66.0771480
 119.1326030  72.4259630  65.1656950 119.0382900  71.8080380  64.4407820
 118.5523420  73.1525920  64.9386860 121.8987470  70.9832870  62.1984340
 121.4504770  71.0057130  61.3529890 121.2652670  70.5851890  62.7954640
 126.9798820  78.1640570  62.7797130 126.4534040  78.6883190  62.1762270
 127.3230160  78.7967960  63.4106860 120.1554440  86.1840210  63.9354510
 119.6175530  86.9086270  63.6163210 120.4088400  85.7070550  63.1451850
 123.0116650  87.4191420  64.1941160 122.9375350  88.3226560  64.5013530
 122.1095490  87.1003320  64.1663230 123.5601980  86.5849930  51.8167520
 124.4552770  86.9234900  51.8386280 123.5919610  85.8629340  51.1891800
 114.4143940  84.7466010  57.4974780 114.7446950  83.8787070  57.2653420
 114.8434940  84.9524530  58.3279740 114.9034150  85.6136600  60.2356410
 114.4665140  85.7937400  61.0680560 115.4711830  86.3711220  60.0938130
 130.5396330  85.1153600  64.5233720 129.9398320  85.1746160  63.7797640
 130.6690230  84.1758580  64.6530570 131.7797780  82.8571420  49.8603430
 130.9490740  82.9248070  50.3310660 131.9569610  83.7475540  49.5570290
 131.2354240  79.6018900  52.3637630 131.9973150  80.1715550  52.4697320
 131.2508610  79.0346100  53.1345940 114.7358580  78.1256830  56.5945290
 114.0807420  77.8568470  55.9504990 115.5736530  78.0161310  56.1447270
 129.2247970  81.8405580  62.6209880 128.4107810  82.2702740  62.8835670
 129.6322170  82.4523990  62.0078930 127.6849020  72.9198120  50.8163780
 128.1033900  72.7329100  49.9760440 127.3785080  72.0677170  51.1266710
 115.7734510  78.5109400  61.1348630 116.1407550  78.4236800  62.0144650
 115.2045330  77.7475950  61.0355490 130.5738370  76.9793780  64.1479100
 130.3424460  76.7506530  63.2477050 130.8342920  77.8993330  64.1023990
 116.1398030  70.4460630  49.4867650 116.8626160  70.9869570  49.8048870
 116.4122550  70.1724050  48.6109190 115.8290220  69.6966820  59.3890270
 116.4766410  69.1464200  58.9485430 116.2492060  69.9509970  60.2106080
 129.2824020  86.5924180  56.1478150 129.8783090  86.2708750  55.4712570
 129.5402170  86.1196000  56.9391420 115.5822220  69.8522490  62.1315590
 115.2337040  70.3086310  62.8973770 115.2509920  68.9579620  62.2138020
 117.1886590  83.0242090  66.2968780 117.1456220  82.6535000  67.1783240
 117.3197600  83.9619660  66.4370600 116.2542860  69.3798690  65.4066360
 116.8025850  69.1986740  64.6432470 116.3198170  68.5892800  65.9422670
 117.0274620  85.9704340  63.4166560 116.4334940  85.8389040  64.1556600
 117.0198460  85.1342480  62.9508660 129.8336230  87.2419480  59.9775880
 129.3739200  87.9935290  59.6033900 129.2048690  86.5225950  59.9190680
 116.6586850  83.3362720  62.3674600 115.9320910  82.7168010  62.3000550
 116.7196000  83.7303330  61.4972680 122.1058680  72.5993160  56.0705530
 121.2933190  72.2250050  55.7301410 122.6100320  71.8438240  56.3726720
 123.0699810  87.3632310  67.3461190 123.9967120  87.1276580  67.3897150
 123.0550240  88.1904310  66.8647220 131.3044870  86.9057880  54.3435440
 131.4797060  86.2195620  53.6996360 130.6066440  87.4304930  53.9512110
 120.2563420  70.0277060  67.1103070 119.9747690  70.5310660  66.3463890
 120.6383120  69.2298810  66.7445200 125.7637030  77.4623110  38.0518280
 125.6831080  76.5477720  37.7809990 125.3501450  77.9590180  37.3457990
 123.8955070  79.2402130  39.9327550 123.1197170  78.7602570  40.2226120
 124.5468000  78.5607780  39.7583710 127.9162500  83.6462320  38.7126680
 127.4544030  82.8749560  39.0413850 128.7288050  83.6728390  39.2179130
 117.8922160  83.5862030  41.0061330 118.1950200  82.6959770  40.8271550
 118.6365750  84.1432250  40.7783580 124.1425810  85.9320330  38.3330670
 123.5237250  86.3877830  37.7625110 124.9977590  86.0871790  37.9320370
 123.3364060  81.9159320  39.9397710 123.2672340  80.9749260  39.7786840
 124.0983920  82.0060730  40.5120280 115.5270730  72.5213840  42.2654330
 115.3473570  71.6239590  42.5457090 115.1250810  73.0685710  42.9401280
 124.3669230  74.7229700  40.1666640 124.7434050  73.8501580  40.0540310
 124.2688740  75.0588400  39.2757080 118.4974240  73.0955330  35.6284080
 118.6040990  73.9959060  35.9352840 117.5866600  73.0473300  35.3378730
 128.1493350  72.2180140  37.0994980 128.9702970  71.7276710  37.1420460
 128.1827430  72.8077800  37.8526820 120.3381970  76.0641700  39.9609260
 120.8460190  76.5622670  40.6014280 120.8695210  75.2876900  39.7848620
 132.4392900  74.2346890  43.6638610 131.7345070  74.6228600  43.1453720
 132.7050820  74.9297180  44.2659540 118.6218070  70.7040260  44.2272680
 118.6236510  71.2212650  43.4218580 117.7922380  70.2270440  44.2042610
 125.0089160  80.8159570  35.7262580 124.3906430  81.2809020  35.1625300
 125.5212410  81.5087050  36.1432090 118.3033400  72.4150220  42.2343130
 118.6450210  73.2592270  41.9397000 117.3649210  72.5633960  42.3508470
 130.0017610  83.7755650  42.1350000 129.3181130  84.4454760  42.1266670
 130.5411900  83.9736300  41.3694860 121.9861290  69.9032490  38.5587720
 122.2936270  69.3479380  37.8423220 121.0561990  70.0376950  38.3760710
 127.5376350  85.6199780  40.8495180 127.5503510  85.2162070  39.9817440
 126.9851570  86.3947070  40.7456610 128.8321770  82.3416000  35.9385350
 128.7218100  81.3990330  36.0634770 128.8290020  82.7031640  36.8248110
 126.9361790  80.5229620  42.1777790 127.3530580  80.3089730  41.3431250
 127.6601610  80.7802410  42.7486410 124.3742050  77.9681320  35.2947840
 123.4471330  77.9018700  35.5236310 124.5266870  78.9061450  35.1803080
 124.3611130  74.2398320  32.2915000 123.4214800  74.4012280  32.3767460
 124.6794390  74.9584000  31.7450990 130.8823890  78.9216840  42.2694030
 130.0542520  78.9909930  41.7944160 131.4774370  79.5071150  41.8009860
 128.4039340  79.5301620  35.7983090 127.7851760  79.1921170  35.1509390
 128.3863790  78.8861380  36.5062280 127.8465900  75.7086160  43.2148900
 127.4337080  76.5339870  43.4688890 127.1141850  75.1231200  43.0225260
 120.4480390  82.1813620  40.2406780 120.1508680  81.5759090  39.5614560
 121.3980210  82.2190930  40.1296140 128.5366000  85.7545490  43.9029880
 128.0596560  86.5617680  43.7102490 127.8527790  85.1023820  44.0556090
 119.5398820  81.9195310  46.8914580 118.6427350  82.1435280  47.1387980
 119.5651690  82.0430250  45.9425980 126.5804040  78.7688430  32.8055840
 127.0197320  77.9310860  32.6593660 127.2932460  79.4017830  32.8919980
 124.6899420  83.7084500  36.7737080 125.1295330  84.4508830  36.3592470
 124.6286310  83.9511070  37.6976040 120.1650390  84.7330330  47.6757100
 120.1365820  85.1373280  46.8085530 120.0015360  83.8040690  47.5128700
 130.1621180  70.0231240  31.1196880 129.8493840  70.1158070  32.0195950
 130.9233650  70.6012270  31.0694310 132.1165210  85.5157430  48.9721270
 132.5924930  85.9940320  49.6510350 132.7372370  85.4474920  48.2466770
 115.5636320  82.2606370  37.7949040 115.1564400  82.4020960  36.9402640
 116.4549330  81.9766530  37.5920250 131.5198460  82.7070280  46.1321280
 131.6461520  82.4682160  45.2138460 131.5619840  81.8754820  46.6043360
 125.3815200  86.4098280  44.7016090 125.8959870  86.3206290  45.5038520
 124.5384280  86.7557980  44.9944000 127.3569600  86.6953620  34.1300090
 127.1970740  86.4056560  35.0281920 127.1916310  85.9193750  33.5945320
 119.8357980  86.4752150  35.9071710 119.6600460  85.5587690  35.6939510
 118.9813720  86.8339440  36.1469510 127.0595730  84.2041180  32.6898090
 126.3660890  84.2018470  32.0300370 127.8018590  83.7800500  32.2592260
 126.6245660  85.8303890  36.7646580 127.0802610  85.0493270  37.0785200
 126.9638180  86.5410710  37.3087760 119.1466980  70.7326110  38.9597890
 118.7035130  71.5135650  38.6282410 119.7051970  71.0556000  39.6668830
 122.2625800  70.3536810  33.8403720 121.6379980  70.3496680  34.5657030
 122.1755920  69.4867770  33.4439690 121.1842880  71.2773440  40.8187490
 121.4815210  72.1836270  40.7379510 121.7328440  70.7892220  40.2047060
 126.1678960  75.8623050  35.2869790 125.5687850  76.5858850  35.1033410
 126.7158570  75.7999830  34.5046240 124.7743830  74.4986590  37.3173070
 125.1673400  74.8158790  36.5041760 125.1360680  73.6198470  37.4317590
 123.0836000  73.2493900  48.5769930 122.3934320  73.0566100  49.2116020
 123.8268300  73.5328540  49.1094230 113.8108000  71.0887390  39.5403270
 113.5221050  71.6590250  40.2528250 114.5553760  70.6091840  39.9034500
 113.9978230  75.0307510  30.7505990 113.9152900  75.9738270  30.8920980
 113.6461290  74.8882420  29.8718340 125.3598970  77.0892340  41.4123850
 124.6280090  77.5979150  41.7613950 124.9623310  76.2722320  41.1112630
 121.7976360  73.7646540  39.8176340 121.8012420  73.3236490  38.9680880
 122.6927480  74.0863870  39.9248160 117.6478740  73.6473030  38.7770550
 117.3078790  74.1248260  39.5337600 116.8856060  73.1938150  38.4171650
 121.8596510  74.7658620  32.8083100 121.9809330  74.7245100  33.7568920
 121.4745020  75.6282770  32.6529830 125.8224880  72.5426020  40.8246790
 125.8397620  72.9934670  41.6688640 125.5740460  71.6431660  41.0380230
 115.9487190  80.9771780  46.0833130 115.5641980  80.3365450  46.6816090
 116.2599380  81.6807900  46.6527860 118.4165490  81.0717950  34.4792810
 117.6427750  80.5315570  34.3191530 119.1460120  80.5524560  34.1410570
 129.1753470  80.0683310  40.2719200 129.8952590  80.5638600  39.8815310
 128.9735290  79.3901200  39.6273070 124.6363410  71.4621270  34.4148590
 123.8228020  70.9634440  34.3393900 124.4425360  72.3019520  33.9984940
 124.5572270  80.1392370  46.1588200 124.4909580  79.2188040  45.9045790
 123.9277410  80.2367810  46.8732840 127.3511800  75.8340920  32.7110750
 128.2391420  76.1458150  32.5362090 127.3216890  74.9613170  32.3191330
 123.3472390  82.0064610  33.3898920 123.6888090  82.7506840  32.8942240
 122.5185100  82.3195730  33.7523750 124.4889000  82.9612940  45.9092000
 124.5033540  82.0293900  45.6910910 123.7814100  83.0472700  46.5481770
 129.6226070  77.1452760  32.1790610 129.5389790  77.5766980  31.3287050
 130.3420260  77.6051110  32.6117430 130.6513320  83.9995020  34.9072740
 130.0089480  83.3450640  35.1816460 130.2643980  84.4050110  34.1313410
 126.2299800  81.3280450  38.7544430 126.5823620  80.7308580  38.0945800
 125.3462130  81.0024680  38.9252680 122.3163080  82.0878140  36.1614840
 123.0034210  82.6347350  36.5422430 121.5295500  82.6318870  36.1964450
 114.4555480  77.7050960  31.6531920 115.3250330  77.9875760  31.9367840
 113.9645800  78.5186830  31.5380730 121.6190290  79.0924170  35.7740200
 122.0753070  79.9029420  36.0000390 121.2678500  78.7747310  36.6058690
 123.9222900  84.6030510  43.0032500 124.5665120  84.8089890  43.6805920
 124.2852340  83.8418910  42.5503350 117.5202070  69.4361820  36.2462720
 117.3916700  69.4279720  37.1947640 116.6964090  69.7744910  35.8953730
 125.1954980  82.6062860  41.7209950 125.8377210  81.9056020  41.8342120
 125.7204330  83.3861300  41.5406840 129.0410700  82.8911480  31.4449090
 128.8148280  82.1741920  32.0373730 128.6506900  82.6423920  30.6070840
 126.9692600  83.4057760  44.9246010 127.3048840  83.9924450  45.6023930
 126.0492940  83.2750470  45.1543800 128.6226950  80.8083420  33.1063250
 128.3348650  81.2696110  33.8941130 129.4179120  80.3481190  33.3747470
 114.8068590  85.1833200  46.6935950 114.9159710  84.2427940  46.5531340
 114.1549150  85.4487950  46.0449680 122.7981180  83.4549090  48.0934070
 122.4778050  82.7358330  48.6379760 122.1239540  84.1304160  48.1670130
 120.8395350  84.3009540  33.0367220 120.8305450  85.0339230  32.4211730
 119.9193710  84.0541120  33.1294180 116.4401990  79.5224430  33.7813980
 115.8329940  80.2623330  33.7909280 116.9151340  79.6123790  32.9552180
 126.0134780  73.6875250  43.4570870 126.3815600  72.8670460  43.7850440
 125.1532980  73.7477140  43.8726520 129.3796810  72.6432190  34.2658430
 128.7509970  72.7477860  33.5516660 128.8848730  72.8628970  35.0552310
 123.8254950  84.3637780  31.6992410 123.9266930  84.1601770  30.7694390
 122.9256690  84.1096060  31.9040190 121.3480840  74.9218140  35.6816310
 120.6396990  75.3904480  36.1229920 121.6325320  74.2640150  36.3161500
 125.3796270  71.6468800  37.1212100 125.2564050  71.6654930  36.1721610
 126.3280830  71.6947740  37.2410500 122.4673060  86.8824100  36.3940080
 122.7214560  86.8445490  35.4719450 121.5185540  86.7557430  36.3868330
 119.5515860  73.2303220  33.0567020 120.4006390  73.6673370  32.9907210
 119.1847130  73.5423480  33.8839080 128.4725640  77.8015980  37.9698590
 127.5315780  77.8166210  38.1446280 128.7869710  77.0151940  38.4158890
 117.1454040  76.9160650  32.2135440 117.2257630  75.9688160  32.3252840
 118.0373790  77.2467530  32.3196100 130.4751220  84.9724830  39.6452850
 130.5998640  85.7956000  40.1176660 131.3416780  84.7615560  39.2977000
 117.9468750  87.0656040  39.3169980 118.6831230  86.5171500  39.5878550
 118.3309670  87.9312050  39.1775970 121.0571060  86.2386350  31.1395550
 121.8499670  86.5275180  30.6877340 120.5375410  85.8078520  30.4608030
 125.7891660  82.3581980  48.4530970 125.1829820  82.3813580  47.7126720
 125.4845770  81.6265020  48.9898220 127.2192030  86.0862270  47.0640380
 128.1713780  86.0020290  47.0140620 127.0720250  86.7503980  47.7374170
 130.1101230  85.4656480  32.5632290 129.8242740  85.0521620  31.7486470
 129.9120780  86.3944190  32.4432810 114.6724840  78.7375570  47.4491610
 115.1763860  78.1582850  48.0207840 113.9332260  79.0215800  47.9867980
 121.7262780  80.1446560  46.9827130 120.9608450  80.7131560  46.8981800
 121.9078740  79.8522770  46.0895360 124.8151190  80.5209790  31.6079890
 124.2661290  80.9679090  32.2522630 125.4370450  80.0159040  32.1317560
 128.8686130  81.8751890  47.5402150 129.6095600  82.2127650  47.0369610
 128.1058810  82.0443950  46.9871920 121.8987470  70.9832870  43.4240850
 121.4504770  71.0057130  42.5786400 121.2652670  70.5851890  44.0211150
 119.3785210  75.5533940  30.4503350 119.1774270  74.6901300  30.8116690
 119.2077260  75.4667300  29.5124950 120.1554440  86.1840210  45.1611020
 119.6175530  86.9086270  44.8419720 120.4088400  85.7070550  44.3708360
 126.2273120  73.7690540  46.9199970 125.5388640  73.1072080  46.8549960
 126.9479140  73.3228810  47.3648430 126.8573520  70.3642170  32.9790230
 127.1375810  69.5210070  33.3349650 126.0839250  70.5965280  33.4928980
 118.1768010  72.6534560  30.4381230 118.4793910  72.6601990  29.5300380
 118.9162600  72.3032420  30.9348890 123.0116650  87.4191420  45.4197670
 122.9375350  88.3226560  45.7270040 122.1095490  87.1003320  45.3919740
 121.3952940  71.5969180  31.4237430 121.0474940  70.9193170  30.8439880
 121.5965710  71.1358690  32.2380820 123.5601980  86.5849930  33.0424030
 124.4552770  86.9234900  33.0642790 123.5919610  85.8629340  32.4148310
 114.4143940  84.7466010  38.7231290 114.7446950  83.8787070  38.4909930
 114.8434940  84.9524530  39.5536250 119.0105860  83.0775020  36.3833260
 118.7101400  82.9539990  37.2837170 118.9043350  82.2183610  35.9748990
 114.9034150  85.6136600  41.4612920 114.4665140  85.7937400  42.2937070
 115.4711830  86.3711220  41.3194640 130.5396330  85.1153600  45.7490230
 129.9398320  85.1746160  45.0054150 130.6690230  84.1758580  45.8787080
 131.7797780  82.8571420  31.0859940 130.9490740  82.9248070  31.5567170
 131.9569610  83.7475540  30.7826800 131.2354240  79.6018900  33.5894140
 131.9973150  80.1715550  33.6953830 131.2508610  79.0346100  34.3602450
 132.2414210  80.4569000  38.4336070 132.6123040  79.6736320  38.0272040
 132.8816140  81.1458100  38.2553370 129.2247970  81.8405580  43.8466390
 128.4107810  82.2702740  44.1092180 129.6322170  82.4523990  43.2335440
 131.2873410  79.8953270  30.7466660 131.5622250  80.8032150  30.6185880
 131.0984150  79.8315800  31.6828650 127.6849020  72.9198120  32.0420290
 128.1033900  72.7329100  31.2016950 127.3785080  72.0677170  32.3523220
 131.1838750  77.8322260  35.7396090 130.8082350  77.0650190  35.3077380
 130.4541870  78.2144960  36.2271020 113.9496660  75.3355760  33.7627130
 113.0460740  75.5985960  33.5878790 114.4337280  75.6066930  32.9827090
 130.6379430  76.1419620  42.5622880 129.6882140  76.1083160  42.6767870
 130.8192440  77.0519730  42.3272650 116.4923870  74.3921300  31.6721510
 117.2015570  73.9704520  31.1868790 115.7763810  74.4596530  31.0404860
 116.1398030  70.4460630  30.7124160 116.8626160  70.9869570  31.0305380
 116.4122550  70.1724050  29.8365700 129.9489680  75.3153100  34.9795740
 130.4448800  75.0823970  35.7644620 129.7505750  74.4764940  34.5633380
 115.8290220  69.6966820  40.6146780 116.4766410  69.1464200  40.1741940
 116.2492060  69.9509970  41.4362590 132.2667110  71.7821970  30.7539560
 133.1916420  71.6503150  30.5457850 132.2442900  71.8614790  31.7076010
 132.3405600  72.5532630  33.3796270 131.5457100  72.4877750  33.9089180
 132.5448880  73.4883270  33.3681620 129.2824020  86.5924180  37.3734660
 129.8783090  86.2708750  36.6969080 129.5402170  86.1196000  38.1647930
 115.5822220  69.8522490  43.3572100 115.2337040  70.3086310  44.1230280
 115.2509920  68.9579620  43.4394530 120.8892620  84.5801680  43.1235010
 120.6483980  84.8476240  42.2365530 121.8295260  84.7507410  43.1785870
 123.0947040  71.0434370  46.8791520 123.0335930  71.6356200  47.6286930
 124.0347420  70.9360330  46.7341780 125.7321600  70.7004430  46.5183810
 126.3462010  71.0183720  45.8564890 126.2771160  70.2153020  47.1379670
 132.1496780  86.5996060  43.9245650 131.6555060  86.9964930  43.2072780
 131.5410070  85.9745270  44.3182930 116.2542860  69.3798690  46.6322870
 116.8025850  69.1986740  45.8688980 116.3198170  68.5892800  47.1679180
 117.0274620  85.9704340  44.6423070 116.4334940  85.8389040  45.3813110
 117.0198460  85.1342480  44.1765170 126.4729640  69.2636570  42.8453100
 125.5989480  69.5971680  42.6426030 126.3640390  68.7909750  43.6704970
 127.3801620  71.4707440  44.2294820 127.0514980  70.6559200  43.8496550
 128.3283920  71.4277250  44.1060510 129.8336230  87.2419480  41.2032390
 129.3739200  87.9935290  40.8290410 129.2048690  86.5225950  41.1447190
 116.6586850  83.3362720  43.5931110 115.9320910  82.7168010  43.5257060
 116.7196000  83.7303330  42.7229190 120.2631950  85.5507720  40.3780520
 120.7796970  84.9395080  39.8528780 120.9129330  86.0536500  40.8691530
 123.0027450  86.4416210  41.2049500 123.2905260  86.1870510  40.3282510
 123.5150670  85.8893570  41.7955070 124.2204460  70.1806410  41.7846010
 123.4376250  70.6551910  42.0642770 123.9267390  69.2761240  41.6759190
 130.6364100  70.5144750  37.8403920 130.5752500  69.5705970  37.6934940
 131.4156130  70.6224840  38.3857380 114.9416850  86.6537110  36.8027870
 114.7738890  86.0207790  37.5009760 114.0751360  86.8596510  36.4522060
 122.1058680  72.5993160  37.2962040 121.2933190  72.2250050  36.9557920
 122.6100320  71.8438240  37.5983230 126.6083660  69.2635610  38.5345110
 127.2113030  69.8355820  39.0093630 125.8676650  69.8275050  38.3119010
 129.7518260  69.6657170  33.8085390 129.9468890  70.5640620  34.0752820
 128.9648130  69.4344250  34.3018340 116.5479550  85.3470340  34.2478010
 116.0227170  85.7278370  33.5439970 116.4724130  85.9721110  34.9687720
 117.9370020  71.0117940  32.8461700 118.4662780  70.2247740  32.7169650
 118.5698340  71.6909130  33.0797230 120.1307860  70.7493080  35.9007090
 119.5010600  70.0480390  36.0677220 119.5913000  71.5097210  35.6840250
 123.0699810  87.3632310  48.5717700 123.9967120  87.1276580  48.6153660
 123.0550240  88.1904310  48.0903730 131.3044870  86.9057880  35.5691950
 131.4797060  86.2195620  34.9252870 130.6066440  87.4304930  35.1768620
 119.1472520  87.2952720  33.1227260 119.8791340  87.0112000  32.5751150
 119.4066190  87.0566000  34.0126640 118.3087310  83.4117450  33.1273590
 117.6796190  83.8802550  33.6759420 118.4235140  82.5666670  33.5619780
 126.8578880  69.4430640  48.9140050 126.7444330  69.7625250  49.8091570
 127.6748620  69.8443150  48.6177330 129.6377370  86.5902170  48.3958740
 130.4302690  86.0951400  48.1884700 129.9310520  87.2692310  49.0034350
 125.7637030  77.4623110  19.2774790 125.6831080  76.5477720  19.0066500
 125.3501450  77.9590180  18.5714500 123.8955070  79.2402130  21.1584060
 123.1197170  78.7602570  21.4482630 124.5468000  78.5607780  20.9840220
 117.9120900  79.5521940  22.0359820 117.0805780  79.2970650  22.4356330
 118.5201880  79.6232710  22.7717740 127.9162500  83.6462320  19.9383190
 127.4544030  82.8749560  20.2670360 128.7288050  83.6728390  20.4435640
 117.8922160  83.5862030  22.2317840 118.1950200  82.6959770  22.0528060
 118.6365750  84.1432250  22.0040090 116.3212850  74.5123830  15.8202210
 115.4329550  74.8539800  15.7182090 116.6054040  74.3124150  14.9283040
 114.2845860  77.1129480  21.7041910 114.8561970  76.3451680  21.7045550
 114.2847400  77.4118240  20.7948520 124.1425810  85.9320330  19.5587180
 123.5237250  86.3877830  18.9881620 124.9977590  86.0871790  19.1576880
 123.3364060  81.9159320  21.1654220 123.2672340  80.9749260  21.0043350
 124.0983920  82.0060730  21.7376790 124.3669230  74.7229700  21.3923150
 124.7434050  73.8501580  21.2796820 124.2688740  75.0588400  20.5013590
 118.4974240  73.0955330  16.8540590 118.6040990  73.9959060  17.1609350
 117.5866600  73.0473300  16.5635240 128.1493350  72.2180140  18.3251490
 128.9702970  71.7276710  18.3676970 128.1827430  72.8077800  19.0783330
 120.3381970  76.0641700  21.1865770 120.8460190  76.5622670  21.8270790
 120.8695210  75.2876900  21.0105130 132.4392900  74.2346890  24.8895120
 131.7345070  74.6228600  24.3710230 132.7050820  74.9297180  25.4916050
 125.0089160  80.8159570  16.9519090 124.3906430  81.2809020  16.3881810
 125.5212410  81.5087050  17.3688600 119.8720920  80.3435440  23.6302690
 119.5390300  80.9704360  24.2723760 120.0487600  80.8697320  22.8504360
 128.3854830  74.1580520  21.0979030 127.6810400  74.4465410  21.6782140
 128.7466990  74.9680630  20.7378590 114.3772360  81.5016100  14.3258720
 114.0000340  81.9903200  13.5943620 114.6345430  82.1741380  14.9565250
 130.0017610  83.7755650  23.3606510 129.3181130  84.4454760  23.3523180
 130.5411900  83.9736300  22.5951370 131.4541750  73.6035310  21.4888240
 130.5066660  73.6374290  21.6203670 131.7791740  74.4174260  21.8737600
 121.9861290  69.9032490  19.7844230 122.2936270  69.3479380  19.0679730
 121.0561990  70.0376950  19.6017220 127.5376350  85.6199780  22.0751690
 127.5503510  85.2162070  21.2073950 126.9851570  86.3947070  21.9713120
 128.8321770  82.3416000  17.1641860 128.7218100  81.3990330  17.2891280
 128.8290020  82.7031640  18.0504620 126.9361790  80.5229620  23.4034300
 127.3530580  80.3089730  22.5687760 127.6601610  80.7802410  23.9742920
 124.3742050  77.9681320  16.5204350 123.4471330  77.9018700  16.7492820
 124.5266870  78.9061450  16.4059590 124.3611130  74.2398320  13.5171510
 123.4214800  74.4012280  13.6023970 124.6794390  74.9584000  12.9707500
 130.8823890  78.9216840  23.4950540 130.0542520  78.9909930  23.0200670
 131.4774370  79.5071150  23.0266370 128.4039340  79.5301620  17.0239600
 127.7851760  79.1921170  16.3765900 128.3863790  78.8861380  17.7318790
 127.8465900  75.7086160  24.4405410 127.4337080  76.5339870  24.6945400
 127.1141850  75.1231200  24.2481770 119.9798690  78.4946060  19.3024080
 119.5755690  77.7823310  18.8069980 120.0661810  78.1499300  20.1912120
 120.4480390  82.1813620  21.4663290 120.1508680  81.5759090  20.7871070
 121.3980210  82.2190930  21.3552650 118.6927310  75.2689270  23.0823120
 119.2441900  75.3784610  22.3076370 119.2070820  75.6426870  23.7978350
 128.5366000  85.7545490  25.1286390 128.0596560  86.5617680  24.9359000
 127.8527790  85.1023820  25.2812600 126.5804040  78.7688430  14.0312350
 127.0197320  77.9310860  13.8850170 127.2932460  79.4017830  14.1176490
 124.6899420  83.7084500  17.9993590 125.1295330  84.4508830  17.5848980
 124.6286310  83.9511070  18.9232550 130.1621180  70.0231240  12.3453390
 129.8493840  70.1158070  13.2452460 130.9233650  70.6012270  12.2950820
 116.6803320  77.3891040  16.8030730 116.5600920  78.1153130  16.1912000
 116.3704210  76.6193950  16.3258640 132.1165210  85.5157430  30.1977780
 132.5924930  85.9940320  30.8766860 132.7372370  85.4474920  29.4723280
 114.3188690  80.5606180  22.6099370 114.3969110  80.6954950  21.6655090
 114.9330370  79.8522070  22.8027490 115.5636320  82.2606370  19.0205550
 115.1564400  82.4020960  18.1659150 116.4549330  81.9766530  18.8176760
 131.5198460  82.7070280  27.3577790 131.6461520  82.4682160  26.4394970
 131.5619840  81.8754820  27.8299870 125.3815200  86.4098280  25.9272600
 125.8959870  86.3206290  26.7295030 124.5384280  86.7557980  26.2200510
 127.3569600  86.6953620  15.3556600 127.1970740  86.4056560  16.2538430
 127.1916310  85.9193750  14.8201830 119.8357980  86.4752150  17.1328220
 119.6600460  85.5587690  16.9196020 118.9813720  86.8339440  17.3726020
 127.0595730  84.2041180  13.9154600 126.3660890  84.2018470  13.2556880
 127.8018590  83.7800500  13.4848770 126.6245660  85.8303890  17.9903090
 127.0802610  85.0493270  18.3041710 126.9638180  86.5410710  18.5344270
 131.3722470  74.7602740  28.3227530 130.7566740  75.2682410  27.7942990
 131.0518890  73.8601070  28.2653470 114.3748210  81.6020350  25.1493830
 114.5379250  81.1325710  24.3313200 114.8400660  81.0943910  25.8142670
 119.1466980  70.7326110  20.1854400 118.7035130  71.5135650  19.8538920
 119.7051970  71.0556000  20.8925340 123.4336790  73.5994630  25.7889720
 122.9716160  73.8077650  26.6009660 123.0314900  72.7853980  25.4860390
 128.4341300  74.8203580  26.9186380 127.5834890  74.5209330  27.2395450
 128.2743090  75.0645590  26.0070200 125.5291010  76.3205330  29.0185170
 125.8544420  75.4869080  28.6787400 126.3171340  76.8433850  29.1663500
 122.2625800  70.3536810  15.0660230 121.6379980  70.3496680  15.7913540
 122.1755920  69.4867770  14.6696200 121.1842880  71.2773440  22.0444000
 121.4815210  72.1836270  21.9636020 121.7328440  70.7892220  21.4303570
 118.9381200  75.8559680  17.9135650 118.7122120  75.6396850  18.8182270
 118.1573730  76.2888140  17.5681620 126.1678960  75.8623050  16.5126300
 125.5687850  76.5858850  16.3289920 126.7158570  75.7999830  15.7302750
 124.7743830  74.4986590  18.5429580 125.1673400  74.8158790  17.7298270
 125.1360680  73.6198470  18.6574100 123.0836000  73.2493900  29.8026440
 122.3934320  73.0566100  30.4372530 123.8268300  73.5328540  30.3350740
 113.9978230  75.0307510  11.9762500 113.9152900  75.9738270  12.1177490
 113.6461290  74.8882420  11.0974850 125.3598970  77.0892340  22.6380360
 124.6280090  77.5979150  22.9870460 124.9623310  76.2722320  22.3369140
 121.7976360  73.7646540  21.0432850 121.8012420  73.3236490  20.1937390
 122.6927480  74.0863870  21.1504670 117.6478740  73.6473030  20.0027060
 117.3078790  74.1248260  20.7594110 116.8856060  73.1938150  19.6428160
 121.8596510  74.7658620  14.0339610 121.9809330  74.7245100  14.9825430
 121.4745020  75.6282770  13.8786340 125.8224880  72.5426020  22.0503300
 125.8397620  72.9934670  22.8945150 125.5740460  71.6431660  22.2636740
 120.8718010  77.0759760  13.4322910 120.3034910  76.6278010  12.8058820
 121.5807010  77.4352540  12.8988060 129.2495630  69.9558200  27.8889680
 129.5741400  69.2247860  28.4147660 129.2852140  69.6371840  26.9870670
 122.0984330  77.8248320  22.7898260 122.4654460  77.3506890  23.5359600
 121.9089390  78.6989890  23.1306600 114.9624820  72.5692010  18.9191730
 114.6771740  72.2047680  19.7570350 114.9003680  71.8372470  18.3054870
 119.8883700  76.8656960  25.1082470 119.5840770  77.7448940  25.3332830
 120.8430160  76.9256750  25.1439910 118.4165490  81.0717950  15.7049320
 117.6427750  80.5315570  15.5448040 119.1460120  80.5524560  15.3667080
 129.1753470  80.0683310  21.4975710 129.8952590  80.5638600  21.1071820
 128.9735290  79.3901200  20.8529580 124.6363410  71.4621270  15.6405100
 123.8228020  70.9634440  15.5650410 124.4425360  72.3019520  15.2241450
 124.5572270  80.1392370  27.3844710 124.4909580  79.2188040  27.1302300
 123.9277410  80.2367810  28.0989350 127.3511800  75.8340920  13.9367260
 128.2391420  76.1458150  13.7618600 127.3216890  74.9613170  13.5447840
 118.4602890  80.7398330  19.3428130 118.9781560  79.9366590  19.2885020
 118.0086910  80.6777470  20.1844960 123.3472390  82.0064610  14.6155430
 123.6888090  82.7506840  14.1198750 122.5185100  82.3195730  14.9780260
 115.9447430  77.7059700  26.2553830 115.5862370  78.3713550  26.8427170
 115.6501990  76.8743250  26.6266450 124.4889000  82.9612940  27.1348510
 124.5033540  82.0293900  26.9167420 123.7814100  83.0472700  27.7738280
 129.6226070  77.1452760  13.4047120 129.5389790  77.5766980  12.5543560
 130.3420260  77.6051110  13.8373940 130.7000210  79.6020280  26.4817090
 129.9748400  80.1949060  26.2846480 131.2275670  79.5943820  25.6830460
 130.6513320  83.9995020  16.1329250 130.0089480  83.3450640  16.4072970
 130.2643980  84.4050110  15.3569920 126.2299800  81.3280450  19.9800940
 126.5823620  80.7308580  19.3202310 125.3462130  81.0024680  20.1509190
 122.3163080  82.0878140  17.3871350 123.0034210  82.6347350  17.7678940
 121.5295500  82.6318870  17.4220960 114.4555480  77.7050960  12.8788430
 115.3250330  77.9875760  13.1624350 113.9645800  78.5186830  12.7637240
 121.6190290  79.0924170  16.9996710 122.0753070  79.9029420  17.2256900
 121.2678500  78.7747310  17.8315200 123.9222900  84.6030510  24.2289010
 124.5665120  84.8089890  24.9062430 124.2852340  83.8418910  23.7759860
 117.5202070  69.4361820  17.4719230 117.3916700  69.4279720  18.4204150
 116.6964090  69.7744910  17.1210240 125.1954980  82.6062860  22.9466460
 125.8377210  81.9056020  23.0598630 125.7204330  83.3861300  22.7663350
 129.0410700  82.8911480  12.6705600 128.8148280  82.1741920  13.2630240
 128.6506900  82.6423920  11.8327350 126.9692600  83.4057760  26.1502520
 127.3048840  83.9924450  26.8280440 126.0492940  83.2750470  26.3800310
 114.8226730  86.9178340  13.4450060 115.1824370  87.5167680  12.7907330
 114.6819070  87.4638230  14.2185090 128.6226950  80.8083420  14.3319760
 128.3348650  81.2696110  15.1197640 129.4179120  80.3481190  14.6003980
 114.8068590  85.1833200  27.9192460 114.9159710  84.2427940  27.7787850
 114.1549150  85.4487950  27.2706190 120.8395350  84.3009540  14.2623730
 120.8305450  85.0339230  13.6468240 119.9193710  84.0541120  14.3550690
 116.4401990  79.5224430  15.0070490 115.8329940  80.2623330  15.0165790
 116.9151340  79.6123790  14.1808690 126.0134780  73.6875250  24.6827380
 126.3815600  72.8670460  25.0106950 125.1532980  73.7477140  25.0983030
 129.3796810  72.6432190  15.4914940 128.7509970  72.7477860  14.7773170
 128.8848730  72.8628970  16.2808820 123.8254950  84.3637780  12.9248920
 123.9266930  84.1601770  11.9950900 122.9256690  84.1096060  13.1296700
 121.3480840  74.9218140  16.9072820 120.6396990  75.3904480  17.3486430
 121.6325320  74.2640150  17.5418010 122.9736770  76.3414840  24.9065350
 123.4722020  76.8160660  25.5717200 123.1159720  75.4178360  25.1135380
 125.3796270  71.6468800  18.3468610 125.2564050  71.6654930  17.3978120
 126.3280830  71.6947740  18.4667010 122.4673060  86.8824100  17.6196590
 122.7214560  86.8445490  16.6975960 121.5185540  86.7557430  17.6124840
 119.5515860  73.2303220  14.2823530 120.4006390  73.6673370  14.2163720
 119.1847130  73.5423480  15.1095590 130.1803630  72.5582800  25.7493740
 129.6777230  73.2988200  26.0887550 130.9960290  72.9466800  25.4330530
 128.4725640  77.8015980  19.1955100 127.5315780  77.8166210  19.3702790
 128.7869710  77.0151940  19.6415400 118.4507280  79.4835580  12.7559060
 119.2170550  79.3716940  13.3184490 118.5281970  78.7873550  12.1035830
 117.1454040  76.9160650  13.4391950 117.2257630  75.9688160  13.5509350
 118.0373790  77.2467530  13.5452610 130.4751220  84.9724830  20.8709360
 130.5998640  85.7956000  21.3433170 131.3416780  84.7615560  20.5233510
 117.9468750  87.0656040  20.5426490 118.6831230  86.5171500  20.8135060
 118.3309670  87.9312050  20.4032480 114.8314230  83.1329610  16.4168000
 113.9054010  83.3750750  16.4073410 115.2970660  83.9603870  16.2952750
 116.9527030  86.2502110  29.7312070 117.7539760  86.5714160  30.1447470
 116.4378850  85.8897690  30.4531980 121.0571060  86.2386350  12.3652060
 121.8499670  86.5275180  11.9133850 120.5375410  85.8078520  11.6864540
 125.7891660  82.3581980  29.6787480 125.1829820  82.3813580  28.9383230
 125.4845770  81.6265020  30.2154730 127.2192030  86.0862270  28.2896890
 128.1713780  86.0020290  28.2397130 127.0720250  86.7503980  28.9630680
 130.1101230  85.4656480  13.7888800 129.8242740  85.0521620  12.9742980
 129.9120780  86.3944190  13.6689320 114.6724840  78.7375570  28.6748120
 115.1763860  78.1582850  29.2464350 113.9332260  79.0215800  29.2124490
 121.5748460  81.4589760  12.2294410 121.4699100  80.8442110  12.9555790
 121.4072680  80.9355650  11.4457420 124.8151190  80.5209790  12.8336400
 124.2661290  80.9679090  13.4779140 125.4370450  80.0159040  13.3574070
 128.8686130  81.8751890  28.7658660 129.6095600  82.2127650  28.2626120
 128.1058810  82.0443950  28.2128430 116.7047920  76.8805160  29.5698190
 116.7453260  76.5819030  30.4783420 117.5593420  77.2812770  29.4105710
 120.4826310  79.4800710  14.7301700 120.9042730  79.3140580  15.5733090
 120.6077150  78.6700940  14.2356840 118.6453730  75.4597260  27.5372680
 118.1150190  74.9688210  26.9096020 119.3141800  75.8881460  27.0030610
 122.9953950  78.5038320  11.9778800 123.5159610  77.7887340  11.6119950
 123.6422350  79.1424190  12.2779310 127.5431790  79.9266720  27.3013870
 127.9572810  80.0811800  28.1504290 126.6082790  80.0521940  27.4639650
 128.0153960  77.2662880  29.3053020 128.5974730  76.5115200  29.2173500
 128.1915730  77.7970320  28.5284500 121.8987470  70.9832870  24.6497360
 121.4504770  71.0057130  23.8042910 121.2652670  70.5851890  25.2467660
 122.3047020  79.8787200  25.2709800 122.7235130  80.7219930  25.0986040
 121.3855650  80.0159240  25.0416580 124.6410920  77.6103380  26.6547640
 124.7607130  77.0144520  27.3942480 125.5004920  77.6473070  26.2348940
 126.9798820  78.1640570  25.2310150 126.4534040  78.6883190  24.6275290
 127.3230160  78.7967960  25.8619880 119.3785210  75.5533940  11.6759860
 119.1774270  74.6901300  12.0373200 119.2077260  75.4667300  10.7381460
 120.1554440  86.1840210  26.3867530 119.6175530  86.9086270  26.0676230
 120.4088400  85.7070550  25.5964870 121.4079690  74.1524730  27.9123460
 121.9979380  73.8440580  28.6001280 120.5899930  73.6804480  28.0683360
 126.2273120  73.7690540  28.1456480 125.5388640  73.1072080  28.0806470
 126.9479140  73.3228810  28.5904940 126.8573520  70.3642170  14.2046740
 127.1375810  69.5210070  14.5606160 126.0839250  70.5965280  14.7185490
 118.1768010  72.6534560  11.6637740 118.4793910  72.6601990  10.7556890
 118.9162600  72.3032420  12.1605400 123.0116650  87.4191420  26.6454180
 122.9375350  88.3226560  26.9526550 122.1095490  87.1003320  26.6176250
 121.3952940  71.5969180  12.6493940 121.0474940  70.9193170  12.0696390
 121.5965710  71.1358690  13.4637330 123.5601980  86.5849930  14.2680540
 124.4552770  86.9234900  14.2899300 123.5919610  85.8629340  13.6404820
 117.1998140  81.9576980  12.4967540 117.6373010  82.5006650  13.1525120
 117.6845870  81.1323930  12.5063880 114.4143940  84.7466010  19.9487800
 114.7446950  83.8787070  19.7166440 114.8434940  84.9524530  20.7792760
 119.0105860  83.0775020  17.6089770 118.7101400  82.9539990  18.5093680
 118.9043350  82.2183610  17.2005500 114.9034150  85.6136600  22.6869430
 114.4665140  85.7937400  23.5193580 115.4711830  86.3711220  22.5451150
 130.5396330  85.1153600  26.9746740 129.9398320  85.1746160  26.2310660
 130.6690230  84.1758580  27.1043590 131.7797780  82.8571420  12.3116450
 130.9490740  82.9248070  12.7823680 131.9569610  83.7475540  12.0083310
 131.2354240  79.6018900  14.8150650 131.9973150  80.1715550  14.9210340
 131.2508610  79.0346100  15.5858960 114.7358580  78.1256830  19.0458310
 114.0807420  77.8568470  18.4018010 115.5736530  78.0161310  18.5960290
 132.2414210  80.4569000  19.6592580 132.6123040  79.6736320  19.2528550
 132.8816140  81.1458100  19.4809880 129.2247970  81.8405580  25.0722900
 128.4107810  82.2702740  25.3348690 129.6322170  82.4523990  24.4591950
 131.2873410  79.8953270  11.9723170 131.5622250  80.8032150  11.8442390
 131.0984150  79.8315800  12.9085160 127.6849020  72.9198120  13.2676800
 128.1033900  72.7329100  12.4273460 127.3785080  72.0677170  13.5779730
 131.1838750  77.8322260  16.9652600 130.8082350  77.0650190  16.5333890
 130.4541870  78.2144960  17.4527530 115.7734510  78.5109400  23.5861650
 116.1407550  78.4236800  24.4657670 115.2045330  77.7475950  23.4868510
 130.5738370  76.9793780  26.5992120 130.3424460  76.7506530  25.6990070
 130.8342920  77.8993330  26.5537010 129.0126440  72.2050210  29.3771820
 129.8896620  72.2133610  29.7605820 129.0247280  71.4681050  28.7664170
 113.9496660  75.3355760  14.9883640 113.0460740  75.5985960  14.8135300
 114.4337280  75.6066930  14.2083600 130.4589710  76.0579750  20.2659840
 130.9827190  75.5642400  19.6350010 131.0449130  76.1930110  21.0107410
 130.6379430  76.1419620  23.7879390 129.6882140  76.1083160  23.9024380
 130.8192440  77.0519730  23.5529160 116.4923870  74.3921300  12.8978020
 117.2015570  73.9704520  12.4125300 115.7763810  74.4596530  12.2661370
 116.1398030  70.4460630  11.9380670 116.8626160  70.9869570  12.2561890
 116.4122550  70.1724050  11.0622210 129.9489680  75.3153100  16.2052250
 130.4448800  75.0823970  16.9901130 129.7505750  74.4764940  15.7889890
 131.3776840  73.9514050  18.7389930 131.2676120  73.7970090  19.6772200
 132.1384430  73.4234990  18.4965340 129.7242560  69.8908180  25.1972930
 130.3614780  70.5042320  25.5632120 129.8717450  69.9268840  24.2522160
 132.2667110  71.7821970  11.9796070 133.1916420  71.6503150  11.7714360
 132.2442900  71.8614790  12.9332520 132.3405600  72.5532630  14.6052780
 131.5457100  72.4877750  15.1345690 132.5448880  73.4883270  14.5938130
 129.2824020  86.5924180  18.5991170 129.8783090  86.2708750  17.9225590
 129.5402170  86.1196000  19.3904440 120.8892620  84.5801680  24.3491520
 120.6483980  84.8476240  23.4622040 121.8295260  84.7507410  24.4042380
 123.0947040  71.0434370  28.1048030 123.0335930  71.6356200  28.8543440
 124.0347420  70.9360330  27.9598290 125.7321600  70.7004430  27.7440320
 126.3462010  71.0183720  27.0821400 126.2771160  70.2153020  28.3636180
 132.1496780  86.5996060  25.1502160 131.6555060  86.9964930  24.4329290
 131.5410070  85.9745270  25.5439440 117.0274620  85.9704340  25.8679580
 116.4334940  85.8389040  26.6069620 117.0198460  85.1342480  25.4021680
 126.4729640  69.2636570  24.0709610 125.5989480  69.5971680  23.8682540
 126.3640390  68.7909750  24.8961480 127.3801620  71.4707440  25.4551330
 127.0514980  70.6559200  25.0753060 128.3283920  71.4277250  25.3317020
 129.8336230  87.2419480  22.4288900 129.3739200  87.9935290  22.0546920
 129.2048690  86.5225950  22.3703700 116.6586850  83.3362720  24.8187620
 115.9320910  82.7168010  24.7513570 116.7196000  83.7303330  23.9485700
 120.2631950  85.5507720  21.6037030 120.7796970  84.9395080  21.0785290
 120.9129330  86.0536500  22.0948040 123.0027450  86.4416210  22.4306010
 123.2905260  86.1870510  21.5539020 123.5150670  85.8893570  23.0211580
 124.2204460  70.1806410  23.0102520 123.4376250  70.6551910  23.2899280
 123.9267390  69.2761240  22.9015700 128.7725530  70.8829510  21.0551610
 129.2133620  70.8274610  20.2073210 128.5033120  71.7987520  21.1261790
 130.6364100  70.5144750  19.0660430 130.5752500  69.5705970  18.9191450
 131.4156130  70.6224840  19.6113890 114.9416850  86.6537110  18.0284380
 114.7738890  86.0207790  18.7266270 114.0751360  86.8596510  17.6778570
 115.5644870  70.4853890  15.5316240 116.3224230  70.5982770  14.9580270
 115.1022040  71.3223090  15.4859670 122.1058680  72.5993160  18.5218550
 121.2933190  72.2250050  18.1814430 122.6100320  71.8438240  18.8239740
 126.6083660  69.2635610  19.7601620 127.2113030  69.8355820  20.2350140
 125.8676650  69.8275050  19.5375520 129.7518260  69.6657170  15.0341900
 129.9468890  70.5640620  15.3009330 128.9648130  69.4344250  15.5274850
 116.5479550  85.3470340  15.4734520 116.0227170  85.7278370  14.7696480
 116.4724130  85.9721110  16.1944230 117.9370020  71.0117940  14.0718210
 118.4662780  70.2247740  13.9426160 118.5698340  71.6909130  14.3053740
 120.1307860  70.7493080  17.1263600 119.5010600  70.0480390  17.2933730
 119.5913000  71.5097210  16.9096760 123.0699810  87.3632310  29.7974210
 123.9967120  87.1276580  29.8410170 123.0550240  88.1904310  29.3160240
 131.3044870  86.9057880  16.7948460 131.4797060  86.2195620  16.1509380
 130.6066440  87.4304930  16.4025130 120.2563420  70.0277060  29.5616090
 119.9747690  70.5310660  28.7976910 120.6383120  69.2298810  29.1958220
 119.1472520  87.2952720  14.3483770 119.8791340  87.0112000  13.8007660
 119.4066190  87.0566000  15.2383150 118.3087310  83.4117450  14.3530100
 117.6796190  83.8802550  14.9015930 118.4235140  82.5666670  14.7876290
 126.8578880  69.4430640  30.1396560 126.7444330  69.7625250  31.0348080
 127.6748620  69.8443150  29.8433840 129.6377370  86.5902170  29.6215250
 130.4302690  86.0951400  29.4141210 129.9310520  87.2692310  30.2290860
 123.8955070  79.2402130   2.3840570 123.1197170  78.7602570   2.6739140
 124.5468000  78.5607780   2.2096730 117.9120900  79.5521940   3.2616330
 117.0805780  79.2970650   3.6612840 118.5201880  79.6232710   3.9974250
 117.8922160  83.5862030   3.4574350 118.1950200  82.6959770   3.2784570
 118.6365750  84.1432250   3.2296600 114.2845860  77.1129480   2.9298420
 114.8561970  76.3451680   2.9302060 114.2847400  77.4118240   2.0205030
 123.3364060  81.9159320   2.3910730 123.2672340  80.9749260   2.2299860
 124.0983920  82.0060730   2.9633300 115.5270730  72.5213840   4.7167350
 115.3473570  71.6239590   4.9970110 115.1250810  73.0685710   5.3914300
 124.3669230  74.7229700   2.6179660 124.7434050  73.8501580   2.5053330
 124.2688740  75.0588400   1.7270100 116.1457400  75.0174340   3.3249690
 116.8267510  75.2812710   3.9437090 115.8305450  74.1775210   3.6587700
 120.3381970  76.0641700   2.4122280 120.8460190  76.5622670   3.0527300
 120.8695210  75.2876900   2.2361640 132.4392900  74.2346890   6.1151630
 131.7345070  74.6228600   5.5966740 132.7050820  74.9297180   6.7172560
 118.6218070  70.7040260   6.6785700 118.6236510  71.2212650   5.8731600
 117.7922380  70.2270440   6.6555630 119.8720920  80.3435440   4.8559200
 119.5390300  80.9704360   5.4980270 120.0487600  80.8697320   4.0760870
 128.3854830  74.1580520   2.3235540 127.6810400  74.4465410   2.9038650
 128.7466990  74.9680630   1.9635100 118.3033400  72.4150220   4.6856150
 118.6450210  73.2592270   4.3910020 117.3649210  72.5633960   4.8021490
 119.0840020  82.3116240   6.6708380 119.7014020  82.9867320   6.3892830
 118.2233140  82.7204220   6.5795880 130.0017610  83.7755650   4.5863020
 129.3181130  84.4454760   4.5779690 130.5411900  83.9736300   3.8207880
 131.4541750  73.6035310   2.7144750 130.5066660  73.6374290   2.8460180
 131.7791740  74.4174260   3.0994110 127.5376350  85.6199780   3.3008200
 127.5503510  85.2162070   2.4330460 126.9851570  86.3947070   3.1969630
 126.9361790  80.5229620   4.6290810 127.3530580  80.3089730   3.7944270
 127.6601610  80.7802410   5.1999430 130.8823890  78.9216840   4.7207050
 130.0542520  78.9909930   4.2457180 131.4774370  79.5071150   4.2522880
 127.8465900  75.7086160   5.6661920 127.4337080  76.5339870   5.9201910
 127.1141850  75.1231200   5.4738280 120.4480390  82.1813620   2.6919800
 120.1508680  81.5759090   2.0127580 121.3980210  82.2190930   2.5809160
 118.6927310  75.2689270   4.3079630 119.2441900  75.3784610   3.5332880
 119.2070820  75.6426870   5.0234860 128.5366000  85.7545490   6.3542900
 128.0596560  86.5617680   6.1615510 127.8527790  85.1023820   6.5069110
 119.5398820  81.9195310   9.3427600 118.6427350  82.1435280   9.5901000
 119.5651690  82.0430250   8.3939000 118.3670040  78.7908630   7.9184970
 118.2277810  79.6631430   8.2872370 117.4851400  78.4481440   7.7732910
 120.1650390  84.7330330  10.1270120 120.1365820  85.1373280   9.2598550
 120.0015360  83.8040690   9.9641720 132.1165210  85.5157430  11.4234290
 132.5924930  85.9940320  12.1023370 132.7372370  85.4474920  10.6979790
 114.3188690  80.5606180   3.8355880 114.3969110  80.6954950   2.8911600
 114.9330370  79.8522070   4.0284000 131.5198460  82.7070280   8.5834300
 131.6461520  82.4682160   7.6651480 131.5619840  81.8754820   9.0556380
 125.3815200  86.4098280   7.1529110 125.8959870  86.3206290   7.9551540
 124.5384280  86.7557980   7.4457020 131.3722470  74.7602740   9.5484040
 130.7566740  75.2682410   9.0199500 131.0518890  73.8601070   9.4909980
 114.3748210  81.6020350   6.3750340 114.5379250  81.1325710   5.5569710
 114.8400660  81.0943910   7.0399180 123.4336790  73.5994630   7.0146230
 122.9716160  73.8077650   7.8266170 123.0314900  72.7853980   6.7116900
 128.4341300  74.8203580   8.1442890 127.5834890  74.5209330   8.4651960
 128.2743090  75.0645590   7.2326710 125.5291010  76.3205330  10.2441680
 125.8544420  75.4869080   9.9043910 126.3171340  76.8433850  10.3920010
 121.1842880  71.2773440   3.2700510 121.4815210  72.1836270   3.1892530
 121.7328440  70.7892220   2.6560080 121.3780410  76.7545260   9.8052430
 121.2824010  75.8139990   9.6552830 122.2212390  76.9760330   9.4100500
 116.5090950  73.1658930   7.9586210 116.1154340  74.0134140   8.1658990
 115.8209350  72.5285300   8.1494850 123.0836000  73.2493900  11.0282950
 122.3934320  73.0566100  11.6629040 123.8268300  73.5328540  11.5607250
 113.8108000  71.0887390   1.9916290 113.5221050  71.6590250   2.7041270
 114.5553760  70.6091840   2.3547520 125.3598970  77.0892340   3.8636870
 124.6280090  77.5979150   4.2126970 124.9623310  76.2722320   3.5625650
 121.7976360  73.7646540   2.2689360 121.8012420  73.3236490   1.4193900
 122.6927480  74.0863870   2.3761180 125.8224880  72.5426020   3.2759810
 125.8397620  72.9934670   4.1201660 125.5740460  71.6431660   3.4893250
 129.2495630  69.9558200   9.1146190 129.5741400  69.2247860   9.6404170
 129.2852140  69.6371840   8.2127180 115.9487190  80.9771780   8.5346150
 115.5641980  80.3365450   9.1329110 116.2599380  81.6807900   9.1040880
 122.0984330  77.8248320   4.0154770 122.4654460  77.3506890   4.7616110
 121.9089390  78.6989890   4.3563110 119.8883700  76.8656960   6.3338980
 119.5840770  77.7448940   6.5589340 120.8430160  76.9256750   6.3696420
 129.1753470  80.0683310   2.7232220 129.8952590  80.5638600   2.3328330
 128.9735290  79.3901200   2.0786090 124.5572270  80.1392370   8.6101220
 124.4909580  79.2188040   8.3558810 123.9277410  80.2367810   9.3245860
 115.9447430  77.7059700   7.4810340 115.5862370  78.3713550   8.0683680
 115.6501990  76.8743250   7.8522960 119.1460550  78.1643940  10.3649890
 118.8460690  78.3101120   9.4677710 119.9171790  77.6049230  10.2723280
 124.4889000  82.9612940   8.3605020 124.5033540  82.0293900   8.1423930
 123.7814100  83.0472700   8.9994790 130.7000210  79.6020280   7.7073600
 129.9748400  80.1949060   7.5102990 131.2275670  79.5943820   6.9086970
 123.9222900  84.6030510   5.4545520 124.5665120  84.8089890   6.1318940
 124.2852340  83.8418910   5.0016370 125.1954980  82.6062860   4.1722970
 125.8377210  81.9056020   4.2855140 125.7204330  83.3861300   3.9919860
 126.9692600  83.4057760   7.3759030 127.3048840  83.9924450   8.0536950
 126.0492940  83.2750470   7.6056820 114.5196000  71.1952940   8.1582440
 113.8054520  71.3949860   8.7635050 114.9391040  70.4192510   8.5297240
 114.8068590  85.1833200   9.1448970 114.9159710  84.2427940   9.0044360
 114.1549150  85.4487950   8.4962700 122.7981180  83.4549090  10.5447090
 122.4778050  82.7358330  11.0892780 122.1239540  84.1304160  10.6183150
 126.0134780  73.6875250   5.9083890 126.3815600  72.8670460   6.2363460
 125.1532980  73.7477140   6.3239540 122.9736770  76.3414840   6.1321860
 123.4722020  76.8160660   6.7973710 123.1159720  75.4178360   6.3391890
 130.1803630  72.5582800   6.9750250 129.6777230  73.2988200   7.3144060
 130.9960290  72.9466800   6.6587040 130.4751220  84.9724830   2.0965870
 130.5998640  85.7956000   2.5689680 131.3416780  84.7615560   1.7490020
 117.9468750  87.0656040   1.7683000 118.6831230  86.5171500   2.0391570
 118.3309670  87.9312050   1.6288990 116.9527030  86.2502110  10.9568580
 117.7539760  86.5714160  11.3703980 116.4378850  85.8897690  11.6788490
 125.7891660  82.3581980  10.9043990 125.1829820  82.3813580  10.1639740
 125.4845770  81.6265020  11.4411240 127.2192030  86.0862270   9.5153400
 128.1713780  86.0020290   9.4653640 127.0720250  86.7503980  10.1887190
 114.6724840  78.7375570   9.9004630 115.1763860  78.1582850  10.4720860
 113.9332260  79.0215800  10.4381000 121.7262780  80.1446560   9.4340150
 120.9608450  80.7131560   9.3494820 121.9078740  79.8522770   8.5408380
 128.8686130  81.8751890   9.9915170 129.6095600  82.2127650   9.4882630
 128.1058810  82.0443950   9.4384940 116.7047920  76.8805160  10.7954700
 116.7453260  76.5819030  11.7039930 117.5593420  77.2812770  10.6362220
 118.6453730  75.4597260   8.7629190 118.1150190  74.9688210   8.1352530
 119.3141800  75.8881460   8.2287120 127.5431790  79.9266720   8.5270380
 127.9572810  80.0811800   9.3760800 126.6082790  80.0521940   8.6896160
 128.0153960  77.2662880  10.5309530 128.5974730  76.5115200  10.4430010
 128.1915730  77.7970320   9.7541010 119.1326030  72.4259630   8.8426480
 119.0382900  71.8080380   8.1177350 118.5523420  73.1525920   8.6156390
 121.8987470  70.9832870   5.8753870 121.4504770  71.0057130   5.0299420
 121.2652670  70.5851890   6.4724170 122.3047020  79.8787200   6.4966310
 122.7235130  80.7219930   6.3242550 121.3855650  80.0159240   6.2673090
 124.6410920  77.6103380   7.8804150 124.7607130  77.0144520   8.6198990
 125.5004920  77.6473070   7.4605450 126.9798820  78.1640570   6.4566660
 126.4534040  78.6883190   5.8531800 127.3230160  78.7967960   7.0876390
 120.1554440  86.1840210   7.6124040 119.6175530  86.9086270   7.2932740
 120.4088400  85.7070550   6.8221380 121.4079690  74.1524730   9.1379970
 121.9979380  73.8440580   9.8257790 120.5899930  73.6804480   9.2939870
 126.2273120  73.7690540   9.3712990 125.5388640  73.1072080   9.3062980
 126.9479140  73.3228810   9.8161450 123.0116650  87.4191420   7.8710690
 122.9375350  88.3226560   8.1783060 122.1095490  87.1003320   7.8432760
 114.9034150  85.6136600   3.9125940 114.4665140  85.7937400   4.7450090
 115.4711830  86.3711220   3.7707660 130.5396330  85.1153600   8.2003250
 129.9398320  85.1746160   7.4567170 130.6690230  84.1758580   8.3300100
 129.2247970  81.8405580   6.2979410 128.4107810  82.2702740   6.5605200
 129.6322170  82.4523990   5.6848460 115.7734510  78.5109400   4.8118160
 116.1407550  78.4236800   5.6914180 115.2045330  77.7475950   4.7125020
 130.5738370  76.9793780   7.8248630 130.3424460  76.7506530   6.9246580
 130.8342920  77.8993330   7.7793520 115.3250510  75.4218490   8.7176580
 114.4306560  75.3885250   9.0570290 115.8648060  75.6205280   9.4827830
 129.0126440  72.2050210  10.6028330 129.8896620  72.2133610  10.9862330
 129.0247280  71.4681050   9.9920680 130.6379430  76.1419620   5.0135900
 129.6882140  76.1083160   5.1280890 130.8192440  77.0519730   4.7785670
 115.8290220  69.6966820   3.0659800 116.4766410  69.1464200   2.6254960
 116.2492060  69.9509970   3.8875610 129.7242560  69.8908180   6.4229440
 130.3614780  70.5042320   6.7888630 129.8717450  69.9268840   5.4778670
 115.5822220  69.8522490   5.8085120 115.2337040  70.3086310   6.5743300
 115.2509920  68.9579620   5.8907550 117.1886590  83.0242090   9.9738310
 117.1456220  82.6535000  10.8552770 117.3197600  83.9619660  10.1140130
 120.8892620  84.5801680   5.5748030 120.6483980  84.8476240   4.6878550
 121.8295260  84.7507410   5.6298890 123.0947040  71.0434370   9.3304540
 123.0335930  71.6356200  10.0799950 124.0347420  70.9360330   9.1854800
 125.7321600  70.7004430   8.9696830 126.3462010  71.0183720   8.3077910
 126.2771160  70.2153020   9.5892690 132.1496780  86.5996060   6.3758670
 131.6555060  86.9964930   5.6585800 131.5410070  85.9745270   6.7695950
 116.2542860  69.3798690   9.0835890 116.8025850  69.1986740   8.3202000
 116.3198170  68.5892800   9.6192200 117.0274620  85.9704340   7.0936090
 116.4334940  85.8389040   7.8326130 117.0198460  85.1342480   6.6278190
 126.4729640  69.2636570   5.2966120 125.5989480  69.5971680   5.0939050
 126.3640390  68.7909750   6.1217990 127.3801620  71.4707440   6.6807840
 127.0514980  70.6559200   6.3009570 128.3283920  71.4277250   6.5573530
 129.8336230  87.2419480   3.6545410 129.3739200  87.9935290   3.2803430
 129.2048690  86.5225950   3.5960210 116.6586850  83.3362720   6.0444130
 115.9320910  82.7168010   5.9770080 116.7196000  83.7303330   5.1742210
 120.2631950  85.5507720   2.8293540 120.7796970  84.9395080   2.3041800
 120.9129330  86.0536500   3.3204550 123.0027450  86.4416210   3.6562520
 123.2905260  86.1870510   2.7795530 123.5150670  85.8893570   4.2468090
 124.2204460  70.1806410   4.2359030 123.4376250  70.6551910   4.5155790
 123.9267390  69.2761240   4.1272210 128.7725530  70.8829510   2.2808120
 129.2133620  70.8274610   1.4329720 128.5033120  71.7987520   2.3518300
 123.0699810  87.3632310  11.0230720 123.9967120  87.1276580  11.0666680
 123.0550240  88.1904310  10.5416750 120.2563420  70.0277060  10.7872600
 119.9747690  70.5310660  10.0233420 120.6383120  69.2298810  10.4214730
 126.8578880  69.4430640  11.3653070 126.7444330  69.7625250  12.2604590
 127.6748620  69.8443150  11.0690350 129.6377370  86.5902170  10.8471760
 130.4302690  86.0951400  10.6397720 129.9310520  87.2692310  11.4547370
 125.7637030  58.6879620 150.6979220 125.6831080  57.7734230 150.4270930
 125.3501450  59.1846690 149.9918930 123.8955070  60.4658640 152.5788490
 123.1197170  59.9859080 152.8687060 124.5468000  59.7864290 152.4044650
 127.9162500  64.8718830 151.3587620 127.4544030  64.1006070 151.6874790
 128.7288050  64.8984900 151.8640070 116.3212850  55.7380340 147.2406640
 115.4329550  56.0796310 147.1386520 116.6054040  55.5380660 146.3487470
 114.2845860  58.3385990 153.1246340 114.8561970  57.5708190 153.1249980
 114.2847400  58.6374750 152.2152950 124.1425810  67.1576840 150.9791610
 123.5237250  67.6134340 150.4086050 124.9977590  67.3128300 150.5781310
 123.3364060  63.1415830 152.5858650 123.2672340  62.2005770 152.4247780
 124.0983920  63.2317240 153.1581220 124.3669230  55.9486210 152.8127580
 124.7434050  55.0758090 152.7001250 124.2688740  56.2844910 151.9218020
 118.4974240  54.3211840 148.2745020 118.6040990  55.2215570 148.5813780
 117.5866600  54.2729810 147.9839670 128.1493350  53.4436650 149.7455920
 128.9702970  52.9533220 149.7881400 128.1827430  54.0334310 150.4987760
 125.0089160  62.0416080 148.3723520 124.3906430  62.5065530 147.8086240
 125.5212410  62.7343560 148.7893030 128.3854830  55.3837030 152.5183460
 127.6810400  55.6721920 153.0986570 128.7466990  56.1937140 152.1583020
 114.3772360  62.7272610 145.7463150 114.0000340  63.2159710 145.0148050
 114.6345430  63.3997890 146.3769680 121.9861290  51.1289000 151.2048660
 122.2936270  50.5735890 150.4884160 121.0561990  51.2633460 151.0221650
 128.8321770  63.5672510 148.5846290 128.7218100  62.6246840 148.7095710
 128.8290020  63.9288150 149.4709050 124.3742050  59.1937830 147.9408780
 123.4471330  59.1275210 148.1697250 124.5266870  60.1317960 147.8264020
 124.3611130  55.4654830 144.9375940 123.4214800  55.6268790 145.0228400
 124.6794390  56.1840510 144.3911930 128.4039340  60.7558130 148.4444030
 127.7851760  60.4177680 147.7970330 128.3863790  60.1117890 149.1523220
 119.9798690  59.7202570 150.7228510 119.5755690  59.0079820 150.2274410
 120.0661810  59.3755810 151.6116550 120.4480390  63.4070130 152.8867720
 120.1508680  62.8015600 152.2075500 121.3980210  63.4447440 152.7757080
 126.5804040  59.9944940 145.4516780 127.0197320  59.1567370 145.3054600
 127.2932460  60.6274340 145.5380920 124.6899420  64.9341010 149.4198020
 125.1295330  65.6765340 149.0053410 124.6286310  65.1767580 150.3436980
 130.1621180  51.2487750 143.7657820 129.8493840  51.3414580 144.6656890
 130.9233650  51.8268780 143.7155250 116.6803320  58.6147550 148.2235160
 116.5600920  59.3409640 147.6116430 116.3704210  57.8450460 147.7463070
 115.5636320  63.4862880 150.4409980 115.1564400  63.6277470 149.5863580
 116.4549330  63.2023040 150.2381190 127.3569600  67.9210130 146.7761030
 127.1970740  67.6313070 147.6742860 127.1916310  67.1450260 146.2406260
 119.8357980  67.7008660 148.5532650 119.6600460  66.7844200 148.3400450
 118.9813720  68.0595950 148.7930450 127.0595730  65.4297690 145.3359030
 126.3660890  65.4274980 144.6761310 127.8018590  65.0057010 144.9053200
 126.6245660  67.0560400 149.4107520 127.0802610  66.2749780 149.7246140
 126.9638180  67.7667220 149.9548700 119.1466980  51.9582620 151.6058830
 118.7035130  52.7392160 151.2743350 119.7051970  52.2812510 152.3129770
 122.2625800  51.5793320 146.4864660 121.6379980  51.5753190 147.2117970
 122.1755920  50.7124280 146.0900630 118.9381200  57.0816190 149.3340080
 118.7122120  56.8653360 150.2386700 118.1573730  57.5144650 148.9886050
 126.1678960  57.0879560 147.9330730 125.5687850  57.8115360 147.7494350
 126.7158570  57.0256340 147.1507180 124.7743830  55.7243100 149.9634010
 125.1673400  56.0415300 149.1502700 125.1360680  54.8454980 150.0778530
 113.8108000  52.3143900 152.1864210 113.5221050  52.8846760 152.8989190
 114.5553760  51.8348350 152.5495440 113.9978230  56.2564020 143.3966930
 113.9152900  57.1994780 143.5381920 113.6461290  56.1138930 142.5179280
 121.7976360  54.9903050 152.4637280 121.8012420  54.5493000 151.6141820
 122.6927480  55.3120380 152.5709100 117.6478740  54.8729540 151.4231490
 117.3078790  55.3504770 152.1798540 116.8856060  54.4194660 151.0632590
 121.8596510  55.9915130 145.4544040 121.9809330  55.9501610 146.4029860
 121.4745020  56.8539280 145.2990770 120.8718010  58.3016270 144.8527340
 120.3034910  57.8534520 144.2263250 121.5807010  58.6609050 144.3192490
 114.9624820  53.7948520 150.3396160 114.6771740  53.4304190 151.1774780
 114.9003680  53.0628980 149.7259300 118.4165490  62.2974460 147.1253750
 117.6427750  61.7572080 146.9652470 119.1460120  61.7781070 146.7871510
 129.1753470  61.2939820 152.9180140 129.8952590  61.7895110 152.5276250
 128.9735290  60.6157710 152.2734010 124.6363410  52.6877780 147.0609530
 123.8228020  52.1890950 146.9854840 124.4425360  53.5276030 146.6445880
 127.3511800  57.0597430 145.3571690 128.2391420  57.3714660 145.1823030
 127.3216890  56.1869680 144.9652270 118.4602890  61.9654840 150.7632560
 118.9781560  61.1623100 150.7089450 118.0086910  61.9033980 151.6049390
 123.3472390  63.2321120 146.0359860 123.6888090  63.9763350 145.5403180
 122.5185100  63.5452240 146.3984690 129.6226070  58.3709270 144.8251550
 129.5389790  58.8023490 143.9747990 130.3420260  58.8307620 145.2578370
 130.6513320  65.2251530 147.5533680 130.0089480  64.5707150 147.8277400
 130.2643980  65.6306620 146.7774350 126.2299800  62.5536960 151.4005370
 126.5823620  61.9565090 150.7406740 125.3462130  62.2281190 151.5713620
 122.3163080  63.3134650 148.8075780 123.0034210  63.8603860 149.1883370
 121.5295500  63.8575380 148.8425390 114.4555480  58.9307470 144.2992860
 115.3250330  59.2132270 144.5828780 113.9645800  59.7443340 144.1841670
 121.6190290  60.3180680 148.4201140 122.0753070  61.1285930 148.6461330
 121.2678500  60.0003820 149.2519630 117.5202070  50.6618330 148.8923660
 117.3916700  50.6536230 149.8408580 116.6964090  51.0001420 148.5414670
 129.0410700  64.1167990 144.0910030 128.8148280  63.3998430 144.6834670
 128.6506900  63.8680430 143.2531780 114.8226730  68.1434850 144.8654490
 115.1824370  68.7424190 144.2111760 114.6819070  68.6894740 145.6389520
 128.6226950  62.0339930 145.7524190 128.3348650  62.4952620 146.5402070
 129.4179120  61.5737700 146.0208410 120.8395350  65.5266050 145.6828160
 120.8305450  66.2595740 145.0672670 119.9193710  65.2797630 145.7755120
 116.4401990  60.7480940 146.4274920 115.8329940  61.4879840 146.4370220
 116.9151340  60.8380300 145.6013120 129.3796810  53.8688700 146.9119370
 128.7509970  53.9734370 146.1977600 128.8848730  54.0885480 147.7013250
 123.8254950  65.5894290 144.3453350 123.9266930  65.3858280 143.4155330
 122.9256690  65.3352570 144.5501130 121.3480840  56.1474650 148.3277250
 120.6396990  56.6160990 148.7690860 121.6325320  55.4896660 148.9622440
 125.3796270  52.8725310 149.7673040 125.2564050  52.8911440 148.8182550
 126.3280830  52.9204250 149.8871440 122.4673060  68.1080610 149.0401020
 122.7214560  68.0702000 148.1180390 121.5185540  67.9813940 149.0329270
 119.5515860  54.4559730 145.7027960 120.4006390  54.8929880 145.6368150
 119.1847130  54.7679990 146.5300020 128.4725640  59.0272490 150.6159530
 127.5315780  59.0422720 150.7907220 128.7869710  58.2408450 151.0619830
 118.4507280  60.7092090 144.1763490 119.2170550  60.5973450 144.7388920
 118.5281970  60.0130060 143.5240260 117.1454040  58.1417160 144.8596380
 117.2257630  57.1944670 144.9713780 118.0373790  58.4724040 144.9657040
 130.4751220  66.1981340 152.2913790 130.5998640  67.0212510 152.7637600
 131.3416780  65.9872070 151.9437940 117.9468750  68.2912550 151.9630920
 118.6831230  67.7428010 152.2339490 118.3309670  69.1568560 151.8236910
 114.8314230  64.3586120 147.8372430 113.9054010  64.6007260 147.8277840
 115.2970660  65.1860380 147.7157180 121.0571060  67.4642860 143.7856490
 121.8499670  67.7531690 143.3338280 120.5375410  67.0335030 143.1068970
 130.1101230  66.6912990 145.2093230 129.8242740  66.2778130 144.3947410
 129.9120780  67.6200700 145.0893750 121.5748460  62.6846270 143.6498840
 121.4699100  62.0698620 144.3760220 121.4072680  62.1612160 142.8661850
 124.8151190  61.7466300 144.2540830 124.2661290  62.1935600 144.8983570
 125.4370450  61.2415550 144.7778500 120.4826310  60.7057220 146.1506130
 120.9042730  60.5397090 146.9937520 120.6077150  59.8957450 145.6561270
 122.9953950  59.7294830 143.3983230 123.5159610  59.0143850 143.0324380
 123.6422350  60.3680700 143.6983740 119.3785210  56.7790450 143.0964290
 119.1774270  55.9157810 143.4577630 119.2077260  56.6923810 142.1585890
 126.8573520  51.5898680 145.6251170 127.1375810  50.7466580 145.9810590
 126.0839250  51.8221790 146.1389920 118.1768010  53.8791070 143.0842170
 118.4793910  53.8858500 142.1761320 118.9162600  53.5288930 143.5809830
 121.3952940  52.8225690 144.0698370 121.0474940  52.1449680 143.4900820
 121.5965710  52.3615200 144.8841760 123.5601980  67.8106440 145.6884970
 124.4552770  68.1491410 145.7103730 123.5919610  67.0885850 145.0609250
 117.1998140  63.1833490 143.9171970 117.6373010  63.7263160 144.5729550
 117.6845870  62.3580440 143.9268310 114.4143940  65.9722520 151.3692230
 114.7446950  65.1043580 151.1370870 114.8434940  66.1781040 152.1997190
 119.0105860  64.3031530 149.0294200 118.7101400  64.1796500 149.9298110
 118.9043350  63.4440120 148.6209930 131.7797780  64.0827930 143.7320880
 130.9490740  64.1504580 144.2028110 131.9569610  64.9732050 143.4287740
 131.2354240  60.8275410 146.2355080 131.9973150  61.3972060 146.3414770
 131.2508610  60.2602610 147.0063390 114.7358580  59.3513340 150.4662740
 114.0807420  59.0824980 149.8222440 115.5736530  59.2417820 150.0164720
 132.2414210  61.6825510 151.0797010 132.6123040  60.8992830 150.6732980
 132.8816140  62.3714610 150.9014310 131.2873410  61.1209780 143.3927600
 131.5622250  62.0288660 143.2646820 131.0984150  61.0572310 144.3289590
 127.6849020  54.1454630 144.6881230 128.1033900  53.9585610 143.8477890
 127.3785080  53.2933680 144.9984160 131.1838750  59.0578770 148.3857030
 130.8082350  58.2906700 147.9538320 130.4541870  59.4401470 148.8731960
 113.9496660  56.5612270 146.4088070 113.0460740  56.8242470 146.2339730
 114.4337280  56.8323440 145.6288030 130.4589710  57.2836260 151.6864270
 130.9827190  56.7898910 151.0554440 131.0449130  57.4186620 152.4311840
 116.4923870  55.6177810 144.3182450 117.2015570  55.1961030 143.8329730
 115.7763810  55.6853040 143.6865800 116.1398030  51.6717140 143.3585100
 116.8626160  52.2126080 143.6766320 116.4122550  51.3980560 142.4826640
 129.9489680  56.5409610 147.6256680 130.4448800  56.3080480 148.4105560
 129.7505750  55.7021450 147.2094320 131.3776840  55.1770560 150.1594360
 131.2676120  55.0226600 151.0976630 132.1384430  54.6491500 149.9169770
 132.2667110  53.0078480 143.4000500 133.1916420  52.8759660 143.1918790
 132.2442900  53.0871300 144.3536950 132.3405600  53.7789140 146.0257210
 131.5457100  53.7134260 146.5550120 132.5448880  54.7139780 146.0142560
 129.2824020  67.8180690 150.0195600 129.8783090  67.4965260 149.3430020
 129.5402170  67.3452510 150.8108870 128.7725530  52.1086020 152.4756040
 129.2133620  52.0531120 151.6277640 128.5033120  53.0244030 152.5466220
 130.6364100  51.7401260 150.4864860 130.5752500  50.7962480 150.3395880
 131.4156130  51.8481350 151.0318320 114.9416850  67.8793620 149.4488810
 114.7738890  67.2464300 150.1470700 114.0751360  68.0853020 149.0983000
 115.5644870  51.7110400 146.9520670 116.3224230  51.8239280 146.3784700
 115.1022040  52.5479600 146.9064100 122.1058680  53.8249670 149.9422980
 121.2933190  53.4506560 149.6018860 122.6100320  53.0694750 150.2444170
 126.6083660  50.4892120 151.1806050 127.2113030  51.0612330 151.6554570
 125.8676650  51.0531560 150.9579950 129.7518260  50.8913680 146.4546330
 129.9468890  51.7897130 146.7213760 128.9648130  50.6600760 146.9479280
 116.5479550  66.5726850 146.8938950 116.0227170  66.9534880 146.1900910
 116.4724130  67.1977620 147.6148660 117.9370020  52.2374450 145.4922640
 118.4662780  51.4504250 145.3630590 118.5698340  52.9165640 145.7258170
 120.1307860  51.9749590 148.5468030 119.5010600  51.2736900 148.7138160
 119.5913000  52.7353720 148.3301190 131.3044870  68.1314390 148.2152890
 131.4797060  67.4452130 147.5713810 130.6066440  68.6561440 147.8229560
 119.1472520  68.5209230 145.7688200 119.8791340  68.2368510 145.2212090
 119.4066190  68.2822510 146.6587580 118.3087310  64.6373960 145.7734530
 117.6796190  65.1059060 146.3220360 118.4235140  63.7923180 146.2080720
 125.7637030  58.6879620 131.9235730 125.6831080  57.7734230 131.6527440
 125.3501450  59.1846690 131.2175440 123.8955070  60.4658640 133.8045000
 123.1197170  59.9859080 134.0943570 124.5468000  59.7864290 133.6301160
 117.9120900  60.7778450 134.6820760 117.0805780  60.5227160 135.0817270
 118.5201880  60.8489220 135.4178680 127.9162500  64.8718830 132.5844130
 127.4544030  64.1006070 132.9131300 128.7288050  64.8984900 133.0896580
 117.8922160  64.8118540 134.8778780 118.1950200  63.9216280 134.6989000
 118.6365750  65.3688760 134.6501030 116.3212850  55.7380340 128.4663150
 115.4329550  56.0796310 128.3643030 116.6054040  55.5380660 127.5743980
 114.2845860  58.3385990 134.3502850 114.8561970  57.5708190 134.3506490
 114.2847400  58.6374750 133.4409460 124.1425810  67.1576840 132.2048120
 123.5237250  67.6134340 131.6342560 124.9977590  67.3128300 131.8037820
 123.3364060  63.1415830 133.8115160 123.2672340  62.2005770 133.6504290
 124.0983920  63.2317240 134.3837730 115.5270730  53.7470350 136.1371780
 115.3473570  52.8496100 136.4174540 115.1250810  54.2942220 136.8118730
 124.3669230  55.9486210 134.0384090 124.7434050  55.0758090 133.9257760
 124.2688740  56.2844910 133.1474530 118.4974240  54.3211840 129.5001530
 118.6040990  55.2215570 129.8070290 117.5866600  54.2729810 129.2096180
 128.1493350  53.4436650 130.9712430 128.9702970  52.9533220 131.0137910
 128.1827430  54.0334310 131.7244270 116.1457400  56.2430850 134.7454120
 116.8267510  56.5069220 135.3641520 115.8305450  55.4031720 135.0792130
 120.3381970  57.2898210 133.8326710 120.8460190  57.7879180 134.4731730
 120.8695210  56.5133410 133.6566070 132.4392900  55.4603400 137.5356060
 131.7345070  55.8485110 137.0171170 132.7050820  56.1553690 138.1376990
 118.6218070  51.9296770 138.0990130 118.6236510  52.4469160 137.2936030
 117.7922380  51.4526950 138.0760060 125.0089160  62.0416080 129.5980030
 124.3906430  62.5065530 129.0342750 125.5212410  62.7343560 130.0149540
 119.8720920  61.5691950 136.2763630 119.5390300  62.1960870 136.9184700
 120.0487600  62.0953830 135.4965300 128.3854830  55.3837030 133.7439970
 127.6810400  55.6721920 134.3243080 128.7466990  56.1937140 133.3839530
 118.3033400  53.6406730 136.1060580 118.6450210  54.4848780 135.8114450
 117.3649210  53.7890470 136.2225920 119.0840020  63.5372750 138.0912810
 119.7014020  64.2123830 137.8097260 118.2233140  63.9460730 138.0000310
 130.0017610  65.0012160 136.0067450 129.3181130  65.6711270 135.9984120
 130.5411900  65.1992810 135.2412310 131.4541750  54.8291820 134.1349180
 130.5066660  54.8630800 134.2664610 131.7791740  55.6430770 134.5198540
 121.9861290  51.1289000 132.4305170 122.2936270  50.5735890 131.7140670
 121.0561990  51.2633460 132.2478160 127.5376350  66.8456290 134.7212630
 127.5503510  66.4418580 133.8534890 126.9851570  67.6203580 134.6174060
 128.8321770  63.5672510 129.8102800 128.7218100  62.6246840 129.9352220
 128.8290020  63.9288150 130.6965560 126.9361790  61.7486130 136.0495240
 127.3530580  61.5346240 135.2148700 127.6601610  62.0058920 136.6203860
 124.3742050  59.1937830 129.1665290 123.4471330  59.1275210 129.3953760
 124.5266870  60.1317960 129.0520530 124.3611130  55.4654830 126.1632450
 123.4214800  55.6268790 126.2484910 124.6794390  56.1840510 125.6168440
 130.8823890  60.1473350 136.1411480 130.0542520  60.2166440 135.6661610
 131.4774370  60.7327660 135.6727310 128.4039340  60.7558130 129.6700540
 127.7851760  60.4177680 129.0226840 128.3863790  60.1117890 130.3779730
 127.8465900  56.9342670 137.0866350 127.4337080  57.7596380 137.3406340
 127.1141850  56.3487710 136.8942710 119.9798690  59.7202570 131.9485020
 119.5755690  59.0079820 131.4530920 120.0661810  59.3755810 132.8373060
 120.4480390  63.4070130 134.1124230 120.1508680  62.8015600 133.4332010
 121.3980210  63.4447440 134.0013590 118.6927310  56.4945780 135.7284060
 119.2441900  56.6041120 134.9537310 119.2070820  56.8683380 136.4439290
 128.5366000  66.9802000 137.7747330 128.0596560  67.7874190 137.5819940
 127.8527790  66.3280330 137.9273540 119.5398820  63.1451820 140.7632030
 118.6427350  63.3691790 141.0105430 119.5651690  63.2686760 139.8143430
 126.5804040  59.9944940 126.6773290 127.0197320  59.1567370 126.5311110
 127.2932460  60.6274340 126.7637430 118.3670040  60.0165140 139.3389400
 118.2277810  60.8887940 139.7076800 117.4851400  59.6737950 139.1937340
 124.6899420  64.9341010 130.6454530 125.1295330  65.6765340 130.2309920
 124.6286310  65.1767580 131.5693490 120.1650390  65.9586840 141.5474550
 120.1365820  66.3629790 140.6802980 120.0015360  65.0297200 141.3846150
 130.1621180  51.2487750 124.9914330 129.8493840  51.3414580 125.8913400
 130.9233650  51.8268780 124.9411760 116.6803320  58.6147550 129.4491670
 116.5600920  59.3409640 128.8372940 116.3704210  57.8450460 128.9719580
 132.1165210  66.7413940 142.8438720 132.5924930  67.2196830 143.5227800
 132.7372370  66.6731430 142.1184220 114.3188690  61.7862690 135.2560310
 114.3969110  61.9211460 134.3116030 114.9330370  61.0778580 135.4488430
 115.5636320  63.4862880 131.6666490 115.1564400  63.6277470 130.8120090
 116.4549330  63.2023040 131.4637700 131.5198460  63.9326790 140.0038730
 131.6461520  63.6938670 139.0855910 131.5619840  63.1011330 140.4760810
 125.3815200  67.6354790 138.5733540 125.8959870  67.5462800 139.3755970
 124.5384280  67.9814490 138.8661450 127.3569600  67.9210130 128.0017540
 127.1970740  67.6313070 128.8999370 127.1916310  67.1450260 127.4662770
 119.8357980  67.7008660 129.7789160 119.6600460  66.7844200 129.5656960
 118.9813720  68.0595950 130.0186960 127.0595730  65.4297690 126.5615540
 126.3660890  65.4274980 125.9017820 127.8018590  65.0057010 126.1309710
 126.6245660  67.0560400 130.6364030 127.0802610  66.2749780 130.9502650
 126.9638180  67.7667220 131.1805210 131.3722470  55.9859250 140.9688470
 130.7566740  56.4938920 140.4403930 131.0518890  55.0857580 140.9114410
 114.3748210  62.8276860 137.7954770 114.5379250  62.3582220 136.9774140
 114.8400660  62.3200420 138.4603610 119.1466980  51.9582620 132.8315340
 118.7035130  52.7392160 132.4999860 119.7051970  52.2812510 133.5386280
 123.4336790  54.8251140 138.4350660 122.9716160  55.0334160 139.2470600
 123.0314900  54.0110490 138.1321330 128.4341300  56.0460090 139.5647320
 127.5834890  55.7465840 139.8856390 128.2743090  56.2902100 138.6531140
 125.5291010  57.5461840 141.6646110 125.8544420  56.7125590 141.3248340
 126.3171340  58.0690360 141.8124440 122.2625800  51.5793320 127.7121170
 121.6379980  51.5753190 128.4374480 122.1755920  50.7124280 127.3157140
 121.1842880  52.5029950 134.6904940 121.4815210  53.4092780 134.6096960
 121.7328440  52.0148730 134.0764510 118.9381200  57.0816190 130.5596590
 118.7122120  56.8653360 131.4643210 118.1573730  57.5144650 130.2142560
 126.1678960  57.0879560 129.1587240 125.5687850  57.8115360 128.9750860
 126.7158570  57.0256340 128.3763690 121.3780410  57.9801770 141.2256860
 121.2824010  57.0396500 141.0757260 122.2212390  58.2016840 140.8304930
 124.7743830  55.7243100 131.1890520 125.1673400  56.0415300 130.3759210
 125.1360680  54.8454980 131.3035040 116.5090950  54.3915440 139.3790640
 116.1154340  55.2390650 139.5863420 115.8209350  53.7541810 139.5699280
 123.0836000  54.4750410 142.4487380 122.3934320  54.2822610 143.0833470
 123.8268300  54.7585050 142.9811680 113.8108000  52.3143900 133.4120720
 113.5221050  52.8846760 134.1245700 114.5553760  51.8348350 133.7751950
 113.9978230  56.2564020 124.6223440 113.9152900  57.1994780 124.7638430
 113.6461290  56.1138930 123.7435790 125.3598970  58.3148850 135.2841300
 124.6280090  58.8235660 135.6331400 124.9623310  57.4978830 134.9830080
 121.7976360  54.9903050 133.6893790 121.8012420  54.5493000 132.8398330
 122.6927480  55.3120380 133.7965610 117.6478740  54.8729540 132.6488000
 117.3078790  55.3504770 133.4055050 116.8856060  54.4194660 132.2889100
 121.8596510  55.9915130 126.6800550 121.9809330  55.9501610 127.6286370
 121.4745020  56.8539280 126.5247280 125.8224880  53.7682530 134.6964240
 125.8397620  54.2191180 135.5406090 125.5740460  52.8688170 134.9097680
 120.8718010  58.3016270 126.0783850 120.3034910  57.8534520 125.4519760
 121.5807010  58.6609050 125.5449000 129.2495630  51.1814710 140.5350620
 129.5741400  50.4504370 141.0608600 129.2852140  50.8628350 139.6331610
 115.9487190  62.2028290 139.9550580 115.5641980  61.5621960 140.5533540
 116.2599380  62.9064410 140.5245310 122.0984330  59.0504830 135.4359200
 122.4654460  58.5763400 136.1820540 121.9089390  59.9246400 135.7767540
 114.9624820  53.7948520 131.5652670 114.6771740  53.4304190 132.4031290
 114.9003680  53.0628980 130.9515810 119.8883700  58.0913470 137.7543410
 119.5840770  58.9705450 137.9793770 120.8430160  58.1513260 137.7900850
 118.4165490  62.2974460 128.3510260 117.6427750  61.7572080 128.1908980
 119.1460120  61.7781070 128.0128020 129.1753470  61.2939820 134.1436650
 129.8952590  61.7895110 133.7532760 128.9735290  60.6157710 133.4990520
 124.6363410  52.6877780 128.2866040 123.8228020  52.1890950 128.2111350
 124.4425360  53.5276030 127.8702390 124.5572270  61.3648880 140.0305650
 124.4909580  60.4444550 139.7763240 123.9277410  61.4624320 140.7450290
 127.3511800  57.0597430 126.5828200 128.2391420  57.3714660 126.4079540
 127.3216890  56.1869680 126.1908780 118.4602890  61.9654840 131.9889070
 118.9781560  61.1623100 131.9345960 118.0086910  61.9033980 132.8305900
 123.3472390  63.2321120 127.2616370 123.6888090  63.9763350 126.7659690
 122.5185100  63.5452240 127.6241200 115.9447430  58.9316210 138.9014770
 115.5862370  59.5970060 139.4888110 115.6501990  58.0999760 139.2727390
 119.1460550  59.3900450 141.7854320 118.8460690  59.5357630 140.8882140
 119.9171790  58.8305740 141.6927710 124.4889000  64.1869450 139.7809450
 124.5033540  63.2550410 139.5628360 123.7814100  64.2729210 140.4199220
 129.6226070  58.3709270 126.0508060 129.5389790  58.8023490 125.2004500
 130.3420260  58.8307620 126.4834880 130.7000210  60.8276790 139.1278030
 129.9748400  61.4205570 138.9307420 131.2275670  60.8200330 138.3291400
 130.6513320  65.2251530 128.7790190 130.0089480  64.5707150 129.0533910
 130.2643980  65.6306620 128.0030860 126.2299800  62.5536960 132.6261880
 126.5823620  61.9565090 131.9663250 125.3462130  62.2281190 132.7970130
 122.3163080  63.3134650 130.0332290 123.0034210  63.8603860 130.4139880
 121.5295500  63.8575380 130.0681900 114.4555480  58.9307470 125.5249370
 115.3250330  59.2132270 125.8085290 113.9645800  59.7443340 125.4098180
 121.6190290  60.3180680 129.6457650 122.0753070  61.1285930 129.8717840
 121.2678500  60.0003820 130.4776140 123.9222900  65.8287020 136.8749950
 124.5665120  66.0346400 137.5523370 124.2852340  65.0675420 136.4220800
 117.5202070  50.6618330 130.1180170 117.3916700  50.6536230 131.0665090
 116.6964090  51.0001420 129.7671180 125.1954980  63.8319370 135.5927400
 125.8377210  63.1312530 135.7059570 125.7204330  64.6117810 135.4124290
 129.0410700  64.1167990 125.3166540 128.8148280  63.3998430 125.9091180
 128.6506900  63.8680430 124.4788290 126.9692600  64.6314270 138.7963460
 127.3048840  65.2180960 139.4741380 126.0492940  64.5006980 139.0261250
 114.5196000  52.4209450 139.5786870 113.8054520  52.6206370 140.1839480
 114.9391040  51.6449020 139.9501670 128.6226950  62.0339930 126.9780700
 128.3348650  62.4952620 127.7658580 129.4179120  61.5737700 127.2464920
 114.8068590  66.4089710 140.5653400 114.9159710  65.4684450 140.4248790
 114.1549150  66.6744460 139.9167130 122.7981180  64.6805600 141.9651520
 122.4778050  63.9614840 142.5097210 122.1239540  65.3560670 142.0387580
 120.8395350  65.5266050 126.9084670 120.8305450  66.2595740 126.2929180
 119.9193710  65.2797630 127.0011630 116.4401990  60.7480940 127.6531430
 115.8329940  61.4879840 127.6626730 116.9151340  60.8380300 126.8269630
 126.0134780  54.9131760 137.3288320 126.3815600  54.0926970 137.6567890
 125.1532980  54.9733650 137.7443970 129.3796810  53.8688700 128.1375880
 128.7509970  53.9734370 127.4234110 128.8848730  54.0885480 128.9269760
 123.8254950  65.5894290 125.5709860 123.9266930  65.3858280 124.6411840
 122.9256690  65.3352570 125.7757640 121.3480840  56.1474650 129.5533760
 120.6396990  56.6160990 129.9947370 121.6325320  55.4896660 130.1878950
 122.9736770  57.5671350 137.5526290 123.4722020  58.0417170 138.2178140
 123.1159720  56.6434870 137.7596320 125.3796270  52.8725310 130.9929550
 125.2564050  52.8911440 130.0439060 126.3280830  52.9204250 131.1127950
 122.4673060  68.1080610 130.2657530 122.7214560  68.0702000 129.3436900
 121.5185540  67.9813940 130.2585780 119.5515860  54.4559730 126.9284470
 120.4006390  54.8929880 126.8624660 119.1847130  54.7679990 127.7556530
 130.1803630  53.7839310 138.3954680 129.6777230  54.5244710 138.7348490
 130.9960290  54.1723310 138.0791470 128.4725640  59.0272490 131.8416040
 127.5315780  59.0422720 132.0163730 128.7869710  58.2408450 132.2876340
 118.4507280  60.7092090 125.4020000 119.2170550  60.5973450 125.9645430
 118.5281970  60.0130060 124.7496770 117.1454040  58.1417160 126.0852890
 117.2257630  57.1944670 126.1970290 118.0373790  58.4724040 126.1913550
 130.4751220  66.1981340 133.5170300 130.5998640  67.0212510 133.9894110
 131.3416780  65.9872070 133.1694450 117.9468750  68.2912550 133.1887430
 118.6831230  67.7428010 133.4596000 118.3309670  69.1568560 133.0493420
 116.9527030  67.4758620 142.3773010 117.7539760  67.7970670 142.7908410
 116.4378850  67.1154200 143.0992920 121.0571060  67.4642860 125.0113000
 121.8499670  67.7531690 124.5594790 120.5375410  67.0335030 124.3325480
 125.7891660  63.5838490 142.3248420 125.1829820  63.6070090 141.5844170
 125.4845770  62.8521530 142.8615670 127.2192030  67.3118780 140.9357830
 128.1713780  67.2276800 140.8858070 127.0720250  67.9760490 141.6091620
 130.1101230  66.6912990 126.4349740 129.8242740  66.2778130 125.6203920
 129.9120780  67.6200700 126.3150260 114.6724840  59.9632080 141.3209060
 115.1763860  59.3839360 141.8925290 113.9332260  60.2472310 141.8585430
 121.5748460  62.6846270 124.8755350 121.4699100  62.0698620 125.6016730
 121.4072680  62.1612160 124.0918360 121.7262780  61.3703070 140.8544580
 120.9608450  61.9388070 140.7699250 121.9078740  61.0779280 139.9612810
 124.8151190  61.7466300 125.4797340 124.2661290  62.1935600 126.1240080
 125.4370450  61.2415550 126.0035010 128.8686130  63.1008400 141.4119600
 129.6095600  63.4384160 140.9087060 128.1058810  63.2700460 140.8589370
 116.7047920  58.1061670 142.2159130 116.7453260  57.8075540 143.1244360
 117.5593420  58.5069280 142.0566650 120.4826310  60.7057220 127.3762640
 120.9042730  60.5397090 128.2194030 120.6077150  59.8957450 126.8817780
 118.6453730  56.6853770 140.1833620 118.1150190  56.1944720 139.5556960
 119.3141800  57.1137970 139.6491550 122.9953950  59.7294830 124.6239740
 123.5159610  59.0143850 124.2580890 123.6422350  60.3680700 124.9240250
 127.5431790  61.1523230 139.9474810 127.9572810  61.3068310 140.7965230
 126.6082790  61.2778450 140.1100590 128.0153960  58.4919390 141.9513960
 128.5974730  57.7371710 141.8634440 128.1915730  59.0226830 141.1745440
 119.1326030  53.6516140 140.2630910 119.0382900  53.0336890 139.5381780
 118.5523420  54.3782430 140.0360820 121.8987470  52.2089380 137.2958300
 121.4504770  52.2313640 136.4503850 121.2652670  51.8108400 137.8928600
 122.3047020  61.1043710 137.9170740 122.7235130  61.9476440 137.7446980
 121.3855650  61.2415750 137.6877520 124.6410920  58.8359890 139.3008580
 124.7607130  58.2401030 140.0403420 125.5004920  58.8729580 138.8809880
 126.9798820  59.3897080 137.8771090 126.4534040  59.9139700 137.2736230
 127.3230160  60.0224470 138.5080820 119.3785210  56.7790450 124.3220800
 119.1774270  55.9157810 124.6834140 119.2077260  56.6923810 123.3842400
 120.1554440  67.4096720 139.0328470 119.6175530  68.1342780 138.7137170
 120.4088400  66.9327060 138.2425810 121.4079690  55.3781240 140.5584400
 121.9979380  55.0697090 141.2462220 120.5899930  54.9060990 140.7144300
 126.2273120  54.9947050 140.7917420 125.5388640  54.3328590 140.7267410
 126.9479140  54.5485320 141.2365880 126.8573520  51.5898680 126.8507680
 127.1375810  50.7466580 127.2067100 126.0839250  51.8221790 127.3646430
 118.1768010  53.8791070 124.3098680 118.4793910  53.8858500 123.4017830
 118.9162600  53.5288930 124.8066340 123.0116650  68.6447930 139.2915120
 122.9375350  69.5483070 139.5987490 122.1095490  68.3259830 139.2637190
 121.3952940  52.8225690 125.2954880 121.0474940  52.1449680 124.7157330
 121.5965710  52.3615200 126.1098270 123.5601980  67.8106440 126.9141480
 124.4552770  68.1491410 126.9360240 123.5919610  67.0885850 126.2865760
 117.1998140  63.1833490 125.1428480 117.6373010  63.7263160 125.7986060
 117.6845870  62.3580440 125.1524820 114.4143940  65.9722520 132.5948740
 114.7446950  65.1043580 132.3627380 114.8434940  66.1781040 133.4253700
 119.0105860  64.3031530 130.2550710 118.7101400  64.1796500 131.1554620
 118.9043350  63.4440120 129.8466440 114.9034150  66.8393110 135.3330370
 114.4665140  67.0193910 136.1654520 115.4711830  67.5967730 135.1912090
 130.5396330  66.3410110 139.6207680 129.9398320  66.4002670 138.8771600
 130.6690230  65.4015090 139.7504530 131.7797780  64.0827930 124.9577390
 130.9490740  64.1504580 125.4284620 131.9569610  64.9732050 124.6544250
 131.2354240  60.8275410 127.4611590 131.9973150  61.3972060 127.5671280
 131.2508610  60.2602610 128.2319900 114.7358580  59.3513340 131.6919250
 114.0807420  59.0824980 131.0478950 115.5736530  59.2417820 131.2421230
 132.2414210  61.6825510 132.3053520 132.6123040  60.8992830 131.8989490
 132.8816140  62.3714610 132.1270820 129.2247970  63.0662090 137.7183840
 128.4107810  63.4959250 137.9809630 129.6322170  63.6780500 137.1052890
 131.2873410  61.1209780 124.6184110 131.5622250  62.0288660 124.4903330
 131.0984150  61.0572310 125.5546100 127.6849020  54.1454630 125.9137740
 128.1033900  53.9585610 125.0734400 127.3785080  53.2933680 126.2240670
 131.1838750  59.0578770 129.6113540 130.8082350  58.2906700 129.1794830
 130.4541870  59.4401470 130.0988470 115.7734510  59.7365910 136.2322590
 116.1407550  59.6493310 137.1118610 115.2045330  58.9732460 136.1329450
 130.5738370  58.2050290 139.2453060 130.3424460  57.9763040 138.3451010
 130.8342920  59.1249840 139.1997950 115.3250510  56.6475000 140.1381010
 114.4306560  56.6141760 140.4774720 115.8648060  56.8461790 140.9032260
 129.0126440  53.4306720 142.0232760 129.8896620  53.4390120 142.4066760
 129.0247280  52.6937560 141.4125110 113.9496660  56.5612270 127.6344580
 113.0460740  56.8242470 127.4596240 114.4337280  56.8323440 126.8544540
 130.4589710  57.2836260 132.9120780 130.9827190  56.7898910 132.2810950
 131.0449130  57.4186620 133.6568350 130.6379430  57.3676130 136.4340330
 129.6882140  57.3339670 136.5485320 130.8192440  58.2776240 136.1990100
 116.4923870  55.6177810 125.5438960 117.2015570  55.1961030 125.0586240
 115.7763810  55.6853040 124.9122310 116.1398030  51.6717140 124.5841610
 116.8626160  52.2126080 124.9022830 116.4122550  51.3980560 123.7083150
 129.9489680  56.5409610 128.8513190 130.4448800  56.3080480 129.6362070
 129.7505750  55.7021450 128.4350830 115.8290220  50.9223330 134.4864230
 116.4766410  50.3720710 134.0459390 116.2492060  51.1766480 135.3080040
 131.3776840  55.1770560 131.3850870 131.2676120  55.0226600 132.3233140
 132.1384430  54.6491500 131.1426280 129.7242560  51.1164690 137.8433870
 130.3614780  51.7298830 138.2093060 129.8717450  51.1525350 136.8983100
 132.2667110  53.0078480 124.6257010 133.1916420  52.8759660 124.4175300
 132.2442900  53.0871300 125.5793460 132.3405600  53.7789140 127.2513720
 131.5457100  53.7134260 127.7806630 132.5448880  54.7139780 127.2399070
 129.2824020  67.8180690 131.2452110 129.8783090  67.4965260 130.5686530
 129.5402170  67.3452510 132.0365380 115.5822220  51.0779000 137.2289550
 115.2337040  51.5342820 137.9947730 115.2509920  50.1836130 137.3111980
 117.1886590  64.2498600 141.3942740 117.1456220  63.8791510 142.2757200
 117.3197600  65.1876170 141.5344560 120.8892620  65.8058190 136.9952460
 120.6483980  66.0732750 136.1082980 121.8295260  65.9763920 137.0503320
 123.0947040  52.2690880 140.7508970 123.0335930  52.8612710 141.5004380
 124.0347420  52.1616840 140.6059230 125.7321600  51.9260940 140.3901260
 126.3462010  52.2440230 139.7282340 126.2771160  51.4409530 141.0097120
 132.1496780  67.8252570 137.7963100 131.6555060  68.2221440 137.0790230
 131.5410070  67.2001780 138.1900380 116.2542860  50.6055200 140.5040320
 116.8025850  50.4243250 139.7406430 116.3198170  49.8149310 141.0396630
 117.0274620  67.1960850 138.5140520 116.4334940  67.0645550 139.2530560
 117.0198460  66.3598990 138.0482620 126.4729640  50.4893080 136.7170550
 125.5989480  50.8228190 136.5143480 126.3640390  50.0166260 137.5422420
 127.3801620  52.6963950 138.1012270 127.0514980  51.8815710 137.7214000
 128.3283920  52.6533760 137.9777960 129.8336230  68.4675990 135.0749840
 129.3739200  69.2191800 134.7007860 129.2048690  67.7482460 135.0164640
 116.6586850  64.5619230 137.4648560 115.9320910  63.9424520 137.3974510
 116.7196000  64.9559840 136.5946640 120.2631950  66.7764230 134.2497970
 120.7796970  66.1651590 133.7246230 120.9129330  67.2793010 134.7408980
 123.0027450  67.6672720 135.0766950 123.2905260  67.4127020 134.1999960
 123.5150670  67.1150080 135.6672520 124.2204460  51.4062920 135.6563460
 123.4376250  51.8808420 135.9360220 123.9267390  50.5017750 135.5476640
 128.7725530  52.1086020 133.7012550 129.2133620  52.0531120 132.8534150
 128.5033120  53.0244030 133.7722730 130.6364100  51.7401260 131.7121370
 130.5752500  50.7962480 131.5652390 131.4156130  51.8481350 132.2574830
 114.9416850  67.8793620 130.6745320 114.7738890  67.2464300 131.3727210
 114.0751360  68.0853020 130.3239510 115.5644870  51.7110400 128.1777180
 116.3224230  51.8239280 127.6041210 115.1022040  52.5479600 128.1320610
 122.1058680  53.8249670 131.1679490 121.2933190  53.4506560 130.8275370
 122.6100320  53.0694750 131.4700680 126.6083660  50.4892120 132.4062560
 127.2113030  51.0612330 132.8811080 125.8676650  51.0531560 132.1836460
 129.7518260  50.8913680 127.6802840 129.9468890  51.7897130 127.9470270
 128.9648130  50.6600760 128.1735790 117.9370020  52.2374450 126.7179150
 118.4662780  51.4504250 126.5887100 118.5698340  52.9165640 126.9514680
 120.1307860  51.9749590 129.7724540 119.5010600  51.2736900 129.9394670
 119.5913000  52.7353720 129.5557700 123.0699810  68.5888820 142.4435150
 123.9967120  68.3533090 142.4871110 123.0550240  69.4160820 141.9621180
 131.3044870  68.1314390 129.4409400 131.4797060  67.4452130 128.7970320
 130.6066440  68.6561440 129.0486070 120.2563420  51.2533570 142.2077030
 119.9747690  51.7567170 141.4437850 120.6383120  50.4555320 141.8419160
 119.1472520  68.5209230 126.9944710 119.8791340  68.2368510 126.4468600
 119.4066190  68.2822510 127.8844090 118.3087310  64.6373960 126.9991040
 117.6796190  65.1059060 127.5476870 118.4235140  63.7923180 127.4337230
 126.8578880  50.6687150 142.7857500 126.7444330  50.9881760 143.6809020
 127.6748620  51.0699660 142.4894780 129.6377370  67.8158680 142.2676190
 130.4302690  67.3207910 142.0602150 129.9310520  68.4948820 142.8751800
 125.7637030  58.6879620 113.1492240 125.6831080  57.7734230 112.8783950
 125.3501450  59.1846690 112.4431950 117.9120900  60.7778450 115.9077270
 117.0805780  60.5227160 116.3073780 118.5201880  60.8489220 116.6435190
 117.8922160  64.8118540 116.1035290 118.1950200  63.9216280 115.9245510
 118.6365750  65.3688760 115.8757540 114.2845860  58.3385990 115.5759360
 114.8561970  57.5708190 115.5763000 114.2847400  58.6374750 114.6665970
 124.3669230  55.9486210 115.2640600 124.7434050  55.0758090 115.1514270
 124.2688740  56.2844910 114.3731040 118.4974240  54.3211840 110.7258040
 118.6040990  55.2215570 111.0326800 117.5866600  54.2729810 110.4352690
 128.1493350  53.4436650 112.1968940 128.9702970  52.9533220 112.2394420
 128.1827430  54.0334310 112.9500780 116.1457400  56.2430850 115.9710630
 116.8267510  56.5069220 116.5898030 115.8305450  55.4031720 116.3048640
 120.3381970  57.2898210 115.0583220 120.8460190  57.7879180 115.6988240
 120.8695210  56.5133410 114.8822580 132.4392900  55.4603400 118.7612570
 131.7345070  55.8485110 118.2427680 132.7050820  56.1553690 119.3633500
 119.8720920  61.5691950 117.5020140 119.5390300  62.1960870 118.1441210
 120.0487600  62.0953830 116.7221810 128.3854830  55.3837030 114.9696480
 127.6810400  55.6721920 115.5499590 128.7466990  56.1937140 114.6096040
 119.0840020  63.5372750 119.3169320 119.7014020  64.2123830 119.0353770
 118.2233140  63.9460730 119.2256820 114.3772360  62.7272610 108.1976170
 114.0000340  63.2159710 107.4661070 114.6345430  63.3997890 108.8282700
 130.0017610  65.0012160 117.2323960 129.3181130  65.6711270 117.2240630
 130.5411900  65.1992810 116.4668820 131.4541750  54.8291820 115.3605690
 130.5066660  54.8630800 115.4921120 131.7791740  55.6430770 115.7455050
 126.9361790  61.7486130 117.2751750 127.3530580  61.5346240 116.4405210
 127.6601610  62.0058920 117.8460370 130.8823890  60.1473350 117.3667990
 130.0542520  60.2166440 116.8918120 131.4774370  60.7327660 116.8983820
 127.8465900  56.9342670 118.3122860 127.4337080  57.7596380 118.5662850
 127.1141850  56.3487710 118.1199220 119.9798690  59.7202570 113.1741530
 119.5755690  59.0079820 112.6787430 120.0661810  59.3755810 114.0629570
 118.6927310  56.4945780 116.9540570 119.2441900  56.6041120 116.1793820
 119.2070820  56.8683380 117.6695800 128.5366000  66.9802000 119.0003840
 128.0596560  67.7874190 118.8076450 127.8527790  66.3280330 119.1530050
 119.5398820  63.1451820 121.9888540 118.6427350  63.3691790 122.2361940
 119.5651690  63.2686760 121.0399940 118.3670040  60.0165140 120.5645910
 118.2277810  60.8887940 120.9333310 117.4851400  59.6737950 120.4193850
 120.1650390  65.9586840 122.7731060 120.1365820  66.3629790 121.9059490
 120.0015360  65.0297200 122.6102660 130.1621180  51.2487750 106.2170840
 129.8493840  51.3414580 107.1169910 130.9233650  51.8268780 106.1668270
 116.6803320  58.6147550 110.6748180 116.5600920  59.3409640 110.0629450
 116.3704210  57.8450460 110.1976090 132.1165210  66.7413940 124.0695230
 132.5924930  67.2196830 124.7484310 132.7372370  66.6731430 123.3440730
 114.3188690  61.7862690 116.4816820 114.3969110  61.9211460 115.5372540
 114.9330370  61.0778580 116.6744940 115.5636320  63.4862880 112.8923000
 115.1564400  63.6277470 112.0376600 116.4549330  63.2023040 112.6894210
 131.5198460  63.9326790 121.2295240 131.6461520  63.6938670 120.3112420
 131.5619840  63.1011330 121.7017320 127.3569600  67.9210130 109.2274050
 127.1970740  67.6313070 110.1255880 127.1916310  67.1450260 108.6919280
 127.0595730  65.4297690 107.7872050 126.3660890  65.4274980 107.1274330
 127.8018590  65.0057010 107.3566220 131.3722470  55.9859250 122.1944980
 130.7566740  56.4938920 121.6660440 131.0518890  55.0857580 122.1370920
 114.3748210  62.8276860 119.0211280 114.5379250  62.3582220 118.2030650
 114.8400660  62.3200420 119.6860120 123.4336790  54.8251140 119.6607170
 122.9716160  55.0334160 120.4727110 123.0314900  54.0110490 119.3577840
 128.4341300  56.0460090 120.7903830 127.5834890  55.7465840 121.1112900
 128.2743090  56.2902100 119.8787650 125.5291010  57.5461840 122.8902620
 125.8544420  56.7125590 122.5504850 126.3171340  58.0690360 123.0380950
 121.1842880  52.5029950 115.9161450 121.4815210  53.4092780 115.8353470
 121.7328440  52.0148730 115.3021020 118.9381200  57.0816190 111.7853100
 118.7122120  56.8653360 112.6899720 118.1573730  57.5144650 111.4399070
 121.3780410  57.9801770 122.4513370 121.2824010  57.0396500 122.3013770
 122.2212390  58.2016840 122.0561440 124.7743830  55.7243100 112.4147030
 125.1673400  56.0415300 111.6015720 125.1360680  54.8454980 112.5291550
 116.5090950  54.3915440 120.6047150 116.1154340  55.2390650 120.8119930
 115.8209350  53.7541810 120.7955790 123.0836000  54.4750410 123.6743890
 122.3934320  54.2822610 124.3089980 123.8268300  54.7585050 124.2068190
 113.9978230  56.2564020 105.8479950 113.9152900  57.1994780 105.9894940
 113.6461290  56.1138930 104.9692300 125.3598970  58.3148850 116.5097810
 124.6280090  58.8235660 116.8587910 124.9623310  57.4978830 116.2086590
 121.7976360  54.9903050 114.9150300 121.8012420  54.5493000 114.0654840
 122.6927480  55.3120380 115.0222120 117.6478740  54.8729540 113.8744510
 117.3078790  55.3504770 114.6311560 116.8856060  54.4194660 113.5145610
 121.8596510  55.9915130 107.9057060 121.9809330  55.9501610 108.8542880
 121.4745020  56.8539280 107.7503790 125.8224880  53.7682530 115.9220750
 125.8397620  54.2191180 116.7662600 125.5740460  52.8688170 116.1354190
 129.2495630  51.1814710 121.7607130 129.5741400  50.4504370 122.2865110
 129.2852140  50.8628350 120.8588120 115.9487190  62.2028290 121.1807090
 115.5641980  61.5621960 121.7790050 116.2599380  62.9064410 121.7501820
 122.0984330  59.0504830 116.6615710 122.4654460  58.5763400 117.4077050
 121.9089390  59.9246400 117.0024050 114.9624820  53.7948520 112.7909180
 114.6771740  53.4304190 113.6287800 114.9003680  53.0628980 112.1772320
 119.8883700  58.0913470 118.9799920 119.5840770  58.9705450 119.2050280
 120.8430160  58.1513260 119.0157360 118.4165490  62.2974460 109.5766770
 117.6427750  61.7572080 109.4165490 119.1460120  61.7781070 109.2384530
 129.1753470  61.2939820 115.3693160 129.8952590  61.7895110 114.9789270
 128.9735290  60.6157710 114.7247030 124.6363410  52.6877780 109.5122550
 123.8228020  52.1890950 109.4367860 124.4425360  53.5276030 109.0958900
 124.5572270  61.3648880 121.2562160 124.4909580  60.4444550 121.0019750
 123.9277410  61.4624320 121.9706800 118.4602890  61.9654840 113.2145580
 118.9781560  61.1623100 113.1602470 118.0086910  61.9033980 114.0562410
 119.1460550  59.3900450 123.0110830 118.8460690  59.5357630 122.1138650
 119.9171790  58.8305740 122.9184220 124.4889000  64.1869450 121.0065960
 124.5033540  63.2550410 120.7884870 123.7814100  64.2729210 121.6455730
 129.6226070  58.3709270 107.2764570 129.5389790  58.8023490 106.4261010
 130.3420260  58.8307620 107.7091390 130.7000210  60.8276790 120.3534540
 129.9748400  61.4205570 120.1563930 131.2275670  60.8200330 119.5547910
 114.4555480  58.9307470 106.7505880 115.3250330  59.2132270 107.0341800
 113.9645800  59.7443340 106.6354690 117.5202070  50.6618330 111.3436680
 117.3916700  50.6536230 112.2921600 116.6964090  51.0001420 110.9927690
 129.0410700  64.1167990 106.5423050 128.8148280  63.3998430 107.1347690
 128.6506900  63.8680430 105.7044800 126.9692600  64.6314270 120.0219970
 127.3048840  65.2180960 120.6997890 126.0492940  64.5006980 120.2517760
 122.7981180  64.6805600 123.1908030 122.4778050  63.9614840 123.7353720
 122.1239540  65.3560670 123.2644090 120.8395350  65.5266050 108.1341180
 120.8305450  66.2595740 107.5185690 119.9193710  65.2797630 108.2268140
 116.4401990  60.7480940 108.8787940 115.8329940  61.4879840 108.8883240
 116.9151340  60.8380300 108.0526140 126.0134780  54.9131760 118.5544830
 126.3815600  54.0926970 118.8824400 125.1532980  54.9733650 118.9700480
 129.3796810  53.8688700 109.3632390 128.7509970  53.9734370 108.6490620
 128.8848730  54.0885480 110.1526270 121.3480840  56.1474650 110.7790270
 120.6396990  56.6160990 111.2203880 121.6325320  55.4896660 111.4135460
 122.9736770  57.5671350 118.7782800 123.4722020  58.0417170 119.4434650
 123.1159720  56.6434870 118.9852830 125.3796270  52.8725310 112.2186060
 125.2564050  52.8911440 111.2695570 126.3280830  52.9204250 112.3384460
 130.1803630  53.7839310 119.6211190 129.6777230  54.5244710 119.9605000
 130.9960290  54.1723310 119.3047980 128.4725640  59.0272490 113.0672550
 127.5315780  59.0422720 113.2420240 128.7869710  58.2408450 113.5132850
 118.4507280  60.7092090 106.6276510 119.2170550  60.5973450 107.1901940
 118.5281970  60.0130060 105.9753280 130.4751220  66.1981340 114.7426810
 130.5998640  67.0212510 115.2150620 131.3416780  65.9872070 114.3950960
 114.8314230  64.3586120 110.2885450 113.9054010  64.6007260 110.2790860
 115.2970660  65.1860380 110.1670200 116.9527030  67.4758620 123.6029520
 117.7539760  67.7970670 124.0164920 116.4378850  67.1154200 124.3249430
 125.7891660  63.5838490 123.5504930 125.1829820  63.6070090 122.8100680
 125.4845770  62.8521530 124.0872180 127.2192030  67.3118780 122.1614340
 128.1713780  67.2276800 122.1114580 127.0720250  67.9760490 122.8348130
 130.1101230  66.6912990 107.6606250 129.8242740  66.2778130 106.8460430
 129.9120780  67.6200700 107.5406770 114.6724840  59.9632080 122.5465570
 115.1763860  59.3839360 123.1181800 113.9332260  60.2472310 123.0841940
 121.7262780  61.3703070 122.0801090 120.9608450  61.9388070 121.9955760
 121.9078740  61.0779280 121.1869320 128.8686130  63.1008400 122.6376110
 129.6095600  63.4384160 122.1343570 128.1058810  63.2700460 122.0845880
 116.7047920  58.1061670 123.4415640 116.7453260  57.8075540 124.3500870
 117.5593420  58.5069280 123.2823160 118.6453730  56.6853770 121.4090130
 118.1150190  56.1944720 120.7813470 119.3141800  57.1137970 120.8748060
 127.5431790  61.1523230 121.1731320 127.9572810  61.3068310 122.0221740
 126.6082790  61.2778450 121.3357100 128.0153960  58.4919390 123.1770470
 128.5974730  57.7371710 123.0890950 128.1915730  59.0226830 122.4001950
 119.1326030  53.6516140 121.4887420 119.0382900  53.0336890 120.7638290
 118.5523420  54.3782430 121.2617330 121.8987470  52.2089380 118.5214810
 121.4504770  52.2313640 117.6760360 121.2652670  51.8108400 119.1185110
 124.6410920  58.8359890 120.5265090 124.7607130  58.2401030 121.2659930
 125.5004920  58.8729580 120.1066390 126.9798820  59.3897080 119.1027600
 126.4534040  59.9139700 118.4992740 127.3230160  60.0224470 119.7337330
 119.3785210  56.7790450 105.5477310 119.1774270  55.9157810 105.9090650
 119.2077260  56.6923810 104.6098910 120.1554440  67.4096720 120.2584980
 119.6175530  68.1342780 119.9393680 120.4088400  66.9327060 119.4682320
 121.4079690  55.3781240 121.7840910 121.9979380  55.0697090 122.4718730
 120.5899930  54.9060990 121.9400810 126.2273120  54.9947050 122.0173930
 125.5388640  54.3328590 121.9523920 126.9479140  54.5485320 122.4622390
 117.1998140  63.1833490 106.3684990 117.6373010  63.7263160 107.0242570
 117.6845870  62.3580440 106.3781330 114.4143940  65.9722520 113.8205250
 114.7446950  65.1043580 113.5883890 114.8434940  66.1781040 114.6510210
 130.5396330  66.3410110 120.8464190 129.9398320  66.4002670 120.1028110
 130.6690230  65.4015090 120.9761040 131.7797780  64.0827930 106.1833900
 130.9490740  64.1504580 106.6541130 131.9569610  64.9732050 105.8800760
 131.2354240  60.8275410 108.6868100 131.9973150  61.3972060 108.7927790
 131.2508610  60.2602610 109.4576410 114.7358580  59.3513340 112.9175760
 114.0807420  59.0824980 112.2735460 115.5736530  59.2417820 112.4677740
 132.2414210  61.6825510 113.5310030 132.6123040  60.8992830 113.1246000
 132.8816140  62.3714610 113.3527330 129.2247970  63.0662090 118.9440350
 128.4107810  63.4959250 119.2066140 129.6322170  63.6780500 118.3309400
 131.2873410  61.1209780 105.8440620 131.5622250  62.0288660 105.7159840
 131.0984150  61.0572310 106.7802610 131.1838750  59.0578770 110.8370050
 130.8082350  58.2906700 110.4051340 130.4541870  59.4401470 111.3244980
 130.5738370  58.2050290 120.4709570 130.3424460  57.9763040 119.5707520
 130.8342920  59.1249840 120.4254460 115.3250510  56.6475000 121.3637520
 114.4306560  56.6141760 121.7031230 115.8648060  56.8461790 122.1288770
 129.0126440  53.4306720 123.2489270 129.8896620  53.4390120 123.6323270
 129.0247280  52.6937560 122.6381620 113.9496660  56.5612270 108.8601090
 113.0460740  56.8242470 108.6852750 114.4337280  56.8323440 108.0801050
 130.4589710  57.2836260 114.1377290 130.9827190  56.7898910 113.5067460
 131.0449130  57.4186620 114.8824860 130.6379430  57.3676130 117.6596840
 129.6882140  57.3339670 117.7741830 130.8192440  58.2776240 117.4246610
 129.9489680  56.5409610 110.0769700 130.4448800  56.3080480 110.8618580
 129.7505750  55.7021450 109.6607340 131.3776840  55.1770560 112.6107380
 131.2676120  55.0226600 113.5489650 132.1384430  54.6491500 112.3682790
 129.7242560  51.1164690 119.0690380 130.3614780  51.7298830 119.4349570
 129.8717450  51.1525350 118.1239610 132.2667110  53.0078480 105.8513520
 133.1916420  52.8759660 105.6431810 132.2442900  53.0871300 106.8049970
 132.3405600  53.7789140 108.4770230 131.5457100  53.7134260 109.0063140
 132.5448880  54.7139780 108.4655580 117.1886590  64.2498600 122.6199250
 117.1456220  63.8791510 123.5013710 117.3197600  65.1876170 122.7601070
 123.0947040  52.2690880 121.9765480 123.0335930  52.8612710 122.7260890
 124.0347420  52.1616840 121.8315740 125.7321600  51.9260940 121.6157770
 126.3462010  52.2440230 120.9538850 126.2771160  51.4409530 122.2353630
 132.1496780  67.8252570 119.0219610 131.6555060  68.2221440 118.3046740
 131.5410070  67.2001780 119.4156890 116.2542860  50.6055200 121.7296830
 116.8025850  50.4243250 120.9662940 116.3198170  49.8149310 122.2653140
 126.4729640  50.4893080 117.9427060 125.5989480  50.8228190 117.7399990
 126.3640390  50.0166260 118.7678930 127.3801620  52.6963950 119.3268780
 127.0514980  51.8815710 118.9470510 128.3283920  52.6533760 119.2034470
 129.8336230  68.4675990 116.3006350 129.3739200  69.2191800 115.9264370
 129.2048690  67.7482460 116.2421150 116.6586850  64.5619230 118.6905070
 115.9320910  63.9424520 118.6231020 116.7196000  64.9559840 117.8203150
 124.2204460  51.4062920 116.8819970 123.4376250  51.8808420 117.1616730
 123.9267390  50.5017750 116.7733150 128.7725530  52.1086020 114.9269060
 129.2133620  52.0531120 114.0790660 128.5033120  53.0244030 114.9979240
 130.6364100  51.7401260 112.9377880 130.5752500  50.7962480 112.7908900
 131.4156130  51.8481350 113.4831340 114.9416850  67.8793620 111.9001830
 114.7738890  67.2464300 112.5983720 114.0751360  68.0853020 111.5496020
 115.5644870  51.7110400 109.4033690 116.3224230  51.8239280 108.8297720
 115.1022040  52.5479600 109.3577120 126.6083660  50.4892120 113.6319070
 127.2113030  51.0612330 114.1067590 125.8676650  51.0531560 113.4092970
 129.7518260  50.8913680 108.9059350 129.9468890  51.7897130 109.1726780
 128.9648130  50.6600760 109.3992300 116.5479550  66.5726850 109.3451970
 116.0227170  66.9534880 108.6413930 116.4724130  67.1977620 110.0661680
 131.3044870  68.1314390 110.6665910 131.4797060  67.4452130 110.0226830
 130.6066440  68.6561440 110.2742580 120.2563420  51.2533570 123.4333540
 119.9747690  51.7567170 122.6694360 120.6383120  50.4555320 123.0675670
 118.3087310  64.6373960 108.2247550 117.6796190  65.1059060 108.7733380
 118.4235140  63.7923180 108.6593740 126.8578880  50.6687150 124.0114010
 126.7444330  50.9881760 124.9065530 127.6748620  51.0699660 123.7151290
 129.6377370  67.8158680 123.4932700 130.4302690  67.3207910 123.2858660
 129.9310520  68.4948820 124.1008310 125.7637030  58.6879620  94.3748750
 125.6831080  57.7734230  94.1040460 125.3501450  59.1846690  93.6688460
 123.8955070  60.4658640  96.2558020 123.1197170  59.9859080  96.5456590
 124.5468000  59.7864290  96.0814180 127.9162500  64.8718830  95.0357150
 127.4544030  64.1006070  95.3644320 128.7288050  64.8984900  95.5409600
 114.2845860  58.3385990  96.8015870 114.8561970  57.5708190  96.8019510
 114.2847400  58.6374750  95.8922480 124.1425810  67.1576840  94.6561140
 123.5237250  67.6134340  94.0855580 124.9977590  67.3128300  94.2550840
 123.3364060  63.1415830  96.2628180 123.2672340  62.2005770  96.1017310
 124.0983920  63.2317240  96.8350750 124.3669230  55.9486210  96.4897110
 124.7434050  55.0758090  96.3770780 124.2688740  56.2844910  95.5987550
 116.1457400  56.2430850  97.1967140 116.8267510  56.5069220  97.8154540
 115.8305450  55.4031720  97.5305150 132.4392900  55.4603400  99.9869080
 131.7345070  55.8485110  99.4684190 132.7050820  56.1553690 100.5890010
 118.6218070  51.9296770 100.5503150 118.6236510  52.4469160  99.7449050
 117.7922380  51.4526950 100.5273080 128.3854830  55.3837030  96.1952990
 127.6810400  55.6721920  96.7756100 128.7466990  56.1937140  95.8352550
 118.3033400  53.6406730  98.5573600 118.6450210  54.4848780  98.2627470
 117.3649210  53.7890470  98.6738940 114.3772360  62.7272610  89.4232680
 114.0000340  63.2159710  88.6917580 114.6345430  63.3997890  90.0539210
 130.0017610  65.0012160  98.4580470 129.3181130  65.6711270  98.4497140
 130.5411900  65.1992810  97.6925330 131.4541750  54.8291820  96.5862200
 130.5066660  54.8630800  96.7177630 131.7791740  55.6430770  96.9711560
 121.9861290  51.1289000  94.8818190 122.2936270  50.5735890  94.1653690
 121.0561990  51.2633460  94.6991180 127.5376350  66.8456290  97.1725650
 127.5503510  66.4418580  96.3047910 126.9851570  67.6203580  97.0687080
 128.8321770  63.5672510  92.2615820 128.7218100  62.6246840  92.3865240
 128.8290020  63.9288150  93.1478580 126.9361790  61.7486130  98.5008260
 127.3530580  61.5346240  97.6661720 127.6601610  62.0058920  99.0716880
 130.8823890  60.1473350  98.5924500 130.0542520  60.2166440  98.1174630
 131.4774370  60.7327660  98.1240330 120.4480390  63.4070130  96.5637250
 120.1508680  62.8015600  95.8845030 121.3980210  63.4447440  96.4526610
 118.6927310  56.4945780  98.1797080 119.2441900  56.6041120  97.4050330
 119.2070820  56.8683380  98.8952310 128.5366000  66.9802000 100.2260350
 128.0596560  67.7874190 100.0332960 127.8527790  66.3280330 100.3786560
 130.1621180  51.2487750  87.4427350 129.8493840  51.3414580  88.3426420
 130.9233650  51.8268780  87.3924780 116.6803320  58.6147550  91.9004690
 116.5600920  59.3409640  91.2885960 116.3704210  57.8450460  91.4232600
 132.1165210  66.7413940 105.2951740 132.5924930  67.2196830 105.9740820
 132.7372370  66.6731430 104.5697240 115.5636320  63.4862880  94.1179510
 115.1564400  63.6277470  93.2633110 116.4549330  63.2023040  93.9150720
 131.5198460  63.9326790 102.4551750 131.6461520  63.6938670 101.5368930
 131.5619840  63.1011330 102.9273830 127.3569600  67.9210130  90.4530560
 127.1970740  67.6313070  91.3512390 127.1916310  67.1450260  89.9175790
 126.6245660  67.0560400  93.0877050 127.0802610  66.2749780  93.4015670
 126.9638180  67.7667220  93.6318230 131.3722470  55.9859250 103.4201490
 130.7566740  56.4938920 102.8916950 131.0518890  55.0857580 103.3627430
 119.1466980  51.9582620  95.2828360 118.7035130  52.7392160  94.9512880
 119.7051970  52.2812510  95.9899300 123.4336790  54.8251140 100.8863680
 122.9716160  55.0334160 101.6983620 123.0314900  54.0110490 100.5834350
 121.1842880  52.5029950  97.1417960 121.4815210  53.4092780  97.0609980
 121.7328440  52.0148730  96.5277530 121.3780410  57.9801770 103.6769880
 121.2824010  57.0396500 103.5270280 122.2212390  58.2016840 103.2817950
 123.0836000  54.4750410 104.9000400 122.3934320  54.2822610 105.5346490
 123.8268300  54.7585050 105.4324700 113.8108000  52.3143900  95.8633740
 113.5221050  52.8846760  96.5758720 114.5553760  51.8348350  96.2264970
 125.3598970  58.3148850  97.7354320 124.6280090  58.8235660  98.0844420
 124.9623310  57.4978830  97.4343100 121.7976360  54.9903050  96.1406810
 121.8012420  54.5493000  95.2911350 122.6927480  55.3120380  96.2478630
 121.8596510  55.9915130  89.1313570 121.9809330  55.9501610  90.0799390
 121.4745020  56.8539280  88.9760300 125.8224880  53.7682530  97.1477260
 125.8397620  54.2191180  97.9919110 125.5740460  52.8688170  97.3610700
 129.2495630  51.1814710 102.9863640 129.5741400  50.4504370 103.5121620
 129.2852140  50.8628350 102.0844630 122.0984330  59.0504830  97.8872220
 122.4654460  58.5763400  98.6333560 121.9089390  59.9246400  98.2280560
 114.9624820  53.7948520  94.0165690 114.6771740  53.4304190  94.8544310
 114.9003680  53.0628980  93.4028830 129.1753470  61.2939820  96.5949670
 129.8952590  61.7895110  96.2045780 128.9735290  60.6157710  95.9503540
 124.4889000  64.1869450 102.2322470 124.5033540  63.2550410 102.0141380
 123.7814100  64.2729210 102.8712240 130.7000210  60.8276790 101.5791050
 129.9748400  61.4205570 101.3820440 131.2275670  60.8200330 100.7804420
 130.6513320  65.2251530  91.2303210 130.0089480  64.5707150  91.5046930
 130.2643980  65.6306620  90.4543880 126.2299800  62.5536960  95.0774900
 126.5823620  61.9565090  94.4176270 125.3462130  62.2281190  95.2483150
 114.4555480  58.9307470  87.9762390 115.3250330  59.2132270  88.2598310
 113.9645800  59.7443340  87.8611200 123.9222900  65.8287020  99.3262970
 124.5665120  66.0346400 100.0036390 124.2852340  65.0675420  98.8733820
 117.5202070  50.6618330  92.5693190 117.3916700  50.6536230  93.5178110
 116.6964090  51.0001420  92.2184200 125.1954980  63.8319370  98.0440420
 125.8377210  63.1312530  98.1572590 125.7204330  64.6117810  97.8637310
 129.0410700  64.1167990  87.7679560 128.8148280  63.3998430  88.3604200
 128.6506900  63.8680430  86.9301310 126.9692600  64.6314270 101.2476480
 127.3048840  65.2180960 101.9254400 126.0492940  64.5006980 101.4774270
 114.8226730  68.1434850  88.5424020 115.1824370  68.7424190  87.8881290
 114.6819070  68.6894740  89.3159050 128.6226950  62.0339930  89.4293720
 128.3348650  62.4952620  90.2171600 129.4179120  61.5737700  89.6977940
 116.4401990  60.7480940  90.1044450 115.8329940  61.4879840  90.1139750
 116.9151340  60.8380300  89.2782650 126.0134780  54.9131760  99.7801340
 126.3815600  54.0926970 100.1080910 125.1532980  54.9733650 100.1956990
 121.3480840  56.1474650  92.0046780 120.6396990  56.6160990  92.4460390
 121.6325320  55.4896660  92.6391970 122.9736770  57.5671350 100.0039310
 123.4722020  58.0417170 100.6691160 123.1159720  56.6434870 100.2109340
 119.5515860  54.4559730  89.3797490 120.4006390  54.8929880  89.3137680
 119.1847130  54.7679990  90.2069550 117.1454040  58.1417160  88.5365910
 117.2257630  57.1944670  88.6483310 118.0373790  58.4724040  88.6426570
 130.4751220  66.1981340  95.9683320 130.5998640  67.0212510  96.4407130
 131.3416780  65.9872070  95.6207470 117.9468750  68.2912550  95.6400450
 118.6831230  67.7428010  95.9109020 118.3309670  69.1568560  95.5006440
 114.8314230  64.3586120  91.5141960 113.9054010  64.6007260  91.5047370
 115.2970660  65.1860380  91.3926710 130.1101230  66.6912990  88.8862760
 129.8242740  66.2778130  88.0716940 129.9120780  67.6200700  88.7663280
 128.8686130  63.1008400 103.8632620 129.6095600  63.4384160 103.3600080
 128.1058810  63.2700460 103.3102390 116.7047920  58.1061670 104.6672150
 116.7453260  57.8075540 105.5757380 117.5593420  58.5069280 104.5079670
 118.6453730  56.6853770 102.6346640 118.1150190  56.1944720 102.0069980
 119.3141800  57.1137970 102.1004570 128.0153960  58.4919390 104.4026980
 128.5974730  57.7371710 104.3147460 128.1915730  59.0226830 103.6258460
 119.1326030  53.6516140 102.7143930 119.0382900  53.0336890 101.9894800
 118.5523420  54.3782430 102.4873840 121.8987470  52.2089380  99.7471320
 121.4504770  52.2313640  98.9016870 121.2652670  51.8108400 100.3441620
 122.3047020  61.1043710 100.3683760 122.7235130  61.9476440 100.1960000
 121.3855650  61.2415750 100.1390540 126.9798820  59.3897080 100.3284110
 126.4534040  59.9139700  99.7249250 127.3230160  60.0224470 100.9593840
 119.3785210  56.7790450  86.7733820 119.1774270  55.9157810  87.1347160
 119.2077260  56.6923810  85.8355420 121.4079690  55.3781240 103.0097420
 121.9979380  55.0697090 103.6975240 120.5899930  54.9060990 103.1657320
 118.1768010  53.8791070  86.7611700 118.4793910  53.8858500  85.8530850
 118.9162600  53.5288930  87.2579360 114.4143940  65.9722520  95.0461760
 114.7446950  65.1043580  94.8140400 114.8434940  66.1781040  95.8766720
 130.5396330  66.3410110 102.0720700 129.9398320  66.4002670 101.3284620
 130.6690230  65.4015090 102.2017550 131.7797780  64.0827930  87.4090410
 130.9490740  64.1504580  87.8797640 131.9569610  64.9732050  87.1057270
 114.7358580  59.3513340  94.1432270 114.0807420  59.0824980  93.4991970
 115.5736530  59.2417820  93.6934250 132.2414210  61.6825510  94.7566540
 132.6123040  60.8992830  94.3502510 132.8816140  62.3714610  94.5783840
 129.2247970  63.0662090 100.1696860 128.4107810  63.4959250 100.4322650
 129.6322170  63.6780500  99.5565910 131.2873410  61.1209780  87.0697130
 131.5622250  62.0288660  86.9416350 131.0984150  61.0572310  88.0059120
 130.5738370  58.2050290 101.6966080 130.3424460  57.9763040 100.7964030
 130.8342920  59.1249840 101.6510970 129.0126440  53.4306720 104.4745780
 129.8896620  53.4390120 104.8579780 129.0247280  52.6937560 103.8638130
 113.9496660  56.5612270  90.0857600 113.0460740  56.8242470  89.9109260
 114.4337280  56.8323440  89.3057560 130.6379430  57.3676130  98.8853350
 129.6882140  57.3339670  98.9998340 130.8192440  58.2776240  98.6503120
 116.4923870  55.6177810  87.9951980 117.2015570  55.1961030  87.5099260
 115.7763810  55.6853040  87.3635330 116.1398030  51.6717140  87.0354630
 116.8626160  52.2126080  87.3535850 116.4122550  51.3980560  86.1596170
 115.8290220  50.9223330  96.9377250 116.4766410  50.3720710  96.4972410
 116.2492060  51.1766480  97.7593060 129.7242560  51.1164690 100.2946890
 130.3614780  51.7298830 100.6606080 129.8717450  51.1525350  99.3496120
 129.2824020  67.8180690  93.6965130 129.8783090  67.4965260  93.0199550
 129.5402170  67.3452510  94.4878400 115.5822220  51.0779000  99.6802570
 115.2337040  51.5342820 100.4460750 115.2509920  50.1836130  99.7625000
 120.8892620  65.8058190  99.4465480 120.6483980  66.0732750  98.5596000
 121.8295260  65.9763920  99.5016340 123.0947040  52.2690880 103.2021990
 123.0335930  52.8612710 103.9517400 124.0347420  52.1616840 103.0572250
 125.7321600  51.9260940 102.8414280 126.3462010  52.2440230 102.1795360
 126.2771160  51.4409530 103.4610140 116.2542860  50.6055200 102.9553340
 116.8025850  50.4243250 102.1919450 116.3198170  49.8149310 103.4909650
 126.4729640  50.4893080  99.1683570 125.5989480  50.8228190  98.9656500
 126.3640390  50.0166260  99.9935440 129.8336230  68.4675990  97.5262860
 129.3739200  69.2191800  97.1520880 129.2048690  67.7482460  97.4677660
 120.2631950  66.7764230  96.7010990 120.7796970  66.1651590  96.1759250
 120.9129330  67.2793010  97.1922000 123.0027450  67.6672720  97.5279970
 123.2905260  67.4127020  96.6512980 123.5150670  67.1150080  98.1185540
 124.2204460  51.4062920  98.1076480 123.4376250  51.8808420  98.3873240
 123.9267390  50.5017750  97.9989660 128.7725530  52.1086020  96.1525570
 129.2133620  52.0531120  95.3047170 128.5033120  53.0244030  96.2235750
 130.6364100  51.7401260  94.1634390 130.5752500  50.7962480  94.0165410
 131.4156130  51.8481350  94.7087850 114.9416850  67.8793620  93.1258340
 114.7738890  67.2464300  93.8240230 114.0751360  68.0853020  92.7752530
 115.5644870  51.7110400  90.6290200 116.3224230  51.8239280  90.0554230
 115.1022040  52.5479600  90.5833630 122.1058680  53.8249670  93.6192510
 121.2933190  53.4506560  93.2788390 122.6100320  53.0694750  93.9213700
 126.6083660  50.4892120  94.8575580 127.2113030  51.0612330  95.3324100
 125.8676650  51.0531560  94.6349480 116.5479550  66.5726850  90.5708480
 116.0227170  66.9534880  89.8670440 116.4724130  67.1977620  91.2918190
 117.9370020  52.2374450  89.1692170 118.4662780  51.4504250  89.0400120
 118.5698340  52.9165640  89.4027700 120.1307860  51.9749590  92.2237560
 119.5010600  51.2736900  92.3907690 119.5913000  52.7353720  92.0070720
 131.3044870  68.1314390  91.8922420 131.4797060  67.4452130  91.2483340
 130.6066440  68.6561440  91.4999090 120.2563420  51.2533570 104.6590050
 119.9747690  51.7567170 103.8950870 120.6383120  50.4555320 104.2932180
 126.8578880  50.6687150 105.2370520 126.7444330  50.9881760 106.1322040
 127.6748620  51.0699660 104.9407800 129.6377370  67.8158680 104.7189210
 130.4302690  67.3207910 104.5115170 129.9310520  68.4948820 105.3264820
 125.7637030  58.6879620  75.6005260 125.6831080  57.7734230  75.3296970
 125.3501450  59.1846690  74.8944970 123.8955070  60.4658640  77.4814530
 123.1197170  59.9859080  77.7713100 124.5468000  59.7864290  77.3070690
 117.9120900  60.7778450  78.3590290 117.0805780  60.5227160  78.7586800
 118.5201880  60.8489220  79.0948210 127.9162500  64.8718830  76.2613660
 127.4544030  64.1006070  76.5900830 128.7288050  64.8984900  76.7666110
 116.3212850  55.7380340  72.1432680 115.4329550  56.0796310  72.0412560
 116.6054040  55.5380660  71.2513510 114.2845860  58.3385990  78.0272380
 114.8561970  57.5708190  78.0276020 114.2847400  58.6374750  77.1178990
 124.1425810  67.1576840  75.8817650 123.5237250  67.6134340  75.3112090
 124.9977590  67.3128300  75.4807350 123.3364060  63.1415830  77.4884690
 123.2672340  62.2005770  77.3273820 124.0983920  63.2317240  78.0607260
 115.5270730  53.7470350  79.8141310 115.3473570  52.8496100  80.0944070
 115.1250810  54.2942220  80.4888260 124.3669230  55.9486210  77.7153620
 124.7434050  55.0758090  77.6027290 124.2688740  56.2844910  76.8244060
 118.4974240  54.3211840  73.1771060 118.6040990  55.2215570  73.4839820
 117.5866600  54.2729810  72.8865710 128.1493350  53.4436650  74.6481960
 128.9702970  52.9533220  74.6907440 128.1827430  54.0334310  75.4013800
 116.1457400  56.2430850  78.4223650 116.8267510  56.5069220  79.0411050
 115.8305450  55.4031720  78.7561660 120.3381970  57.2898210  77.5096240
 120.8460190  57.7879180  78.1501260 120.8695210  56.5133410  77.3335600
 118.6218070  51.9296770  81.7759660 118.6236510  52.4469160  80.9705560
 117.7922380  51.4526950  81.7529590 125.0089160  62.0416080  73.2749560
 124.3906430  62.5065530  72.7112280 125.5212410  62.7343560  73.6919070
 119.8720920  61.5691950  79.9533160 119.5390300  62.1960870  80.5954230
 120.0487600  62.0953830  79.1734830 128.3854830  55.3837030  77.4209500
 127.6810400  55.6721920  78.0012610 128.7466990  56.1937140  77.0609060
 118.3033400  53.6406730  79.7830110 118.6450210  54.4848780  79.4883980
 117.3649210  53.7890470  79.8995450 130.0017610  65.0012160  79.6836980
 129.3181130  65.6711270  79.6753650 130.5411900  65.1992810  78.9181840
 127.5376350  66.8456290  78.3982160 127.5503510  66.4418580  77.5304420
 126.9851570  67.6203580  78.2943590 119.9798690  59.7202570  75.6254550
 119.5755690  59.0079820  75.1300450 120.0661810  59.3755810  76.5142590
 120.4480390  63.4070130  77.7893760 120.1508680  62.8015600  77.1101540
 121.3980210  63.4447440  77.6783120 118.6927310  56.4945780  79.4053590
 119.2441900  56.6041120  78.6306840 119.2070820  56.8683380  80.1208820
 128.5366000  66.9802000  81.4516860 128.0596560  67.7874190  81.2589470
 127.8527790  66.3280330  81.6043070 124.6899420  64.9341010  74.3224060
 125.1295330  65.6765340  73.9079450 124.6286310  65.1767580  75.2463020
 116.6803320  58.6147550  73.1261200 116.5600920  59.3409640  72.5142470
 116.3704210  57.8450460  72.6489110 127.3569600  67.9210130  71.6787070
 127.1970740  67.6313070  72.5768900 127.1916310  67.1450260  71.1432300
 127.0595730  65.4297690  70.2385070 126.3660890  65.4274980  69.5787350
 127.8018590  65.0057010  69.8079240 126.6245660  67.0560400  74.3133560
 127.0802610  66.2749780  74.6272180 126.9638180  67.7667220  74.8574740
 119.1466980  51.9582620  76.5084870 118.7035130  52.7392160  76.1769390
 119.7051970  52.2812510  77.2155810 123.4336790  54.8251140  82.1120190
 122.9716160  55.0334160  82.9240130 123.0314900  54.0110490  81.8090860
 128.4341300  56.0460090  83.2416850 127.5834890  55.7465840  83.5625920
 128.2743090  56.2902100  82.3300670 125.5291010  57.5461840  85.3415640
 125.8544420  56.7125590  85.0017870 126.3171340  58.0690360  85.4893970
 122.2625800  51.5793320  71.3890700 121.6379980  51.5753190  72.1144010
 122.1755920  50.7124280  70.9926670 121.1842880  52.5029950  78.3674470
 121.4815210  53.4092780  78.2866490 121.7328440  52.0148730  77.7534040
 118.9381200  57.0816190  74.2366120 118.7122120  56.8653360  75.1412740
 118.1573730  57.5144650  73.8912090 124.7743830  55.7243100  74.8660050
 125.1673400  56.0415300  74.0528740 125.1360680  54.8454980  74.9804570
 116.5090950  54.3915440  83.0560170 116.1154340  55.2390650  83.2632950
 115.8209350  53.7541810  83.2468810 123.0836000  54.4750410  86.1256910
 122.3934320  54.2822610  86.7603000 123.8268300  54.7585050  86.6581210
 121.7976360  54.9903050  77.3663320 121.8012420  54.5493000  76.5167860
 122.6927480  55.3120380  77.4735140 117.6478740  54.8729540  76.3257530
 117.3078790  55.3504770  77.0824580 116.8856060  54.4194660  75.9658630
 121.8596510  55.9915130  70.3570080 121.9809330  55.9501610  71.3055900
 121.4745020  56.8539280  70.2016810 129.2495630  51.1814710  84.2120150
 129.5741400  50.4504370  84.7378130 129.2852140  50.8628350  83.3101140
 122.0984330  59.0504830  79.1128730 122.4654460  58.5763400  79.8590070
 121.9089390  59.9246400  79.4537070 114.9624820  53.7948520  75.2422200
 114.6771740  53.4304190  76.0800820 114.9003680  53.0628980  74.6285340
 119.8883700  58.0913470  81.4312940 119.5840770  58.9705450  81.6563300
 120.8430160  58.1513260  81.4670380 124.6363410  52.6877780  71.9635570
 123.8228020  52.1890950  71.8880880 124.4425360  53.5276030  71.5471920
 118.4602890  61.9654840  75.6658600 118.9781560  61.1623100  75.6115490
 118.0086910  61.9033980  76.5075430 123.3472390  63.2321120  70.9385900
 123.6888090  63.9763350  70.4429220 122.5185100  63.5452240  71.3010730
 119.1460550  59.3900450  85.4623850 118.8460690  59.5357630  84.5651670
 119.9171790  58.8305740  85.3697240 130.6513320  65.2251530  72.4559720
 130.0089480  64.5707150  72.7303440 130.2643980  65.6306620  71.6800390
 126.2299800  62.5536960  76.3031410 126.5823620  61.9565090  75.6432780
 125.3462130  62.2281190  76.4739660 122.3163080  63.3134650  73.7101820
 123.0034210  63.8603860  74.0909410 121.5295500  63.8575380  73.7451430
 121.6190290  60.3180680  73.3227180 122.0753070  61.1285930  73.5487370
 121.2678500  60.0003820  74.1545670 129.0410700  64.1167990  68.9936070
 128.8148280  63.3998430  69.5860710 128.6506900  63.8680430  68.1557820
 114.5196000  52.4209450  83.2556400 113.8054520  52.6206370  83.8609010
 114.9391040  51.6449020  83.6271200 129.3796810  53.8688700  71.8145410
 128.7509970  53.9734370  71.1003640 128.8848730  54.0885480  72.6039290
 123.8254950  65.5894290  69.2479390 123.9266930  65.3858280  68.3181370
 122.9256690  65.3352570  69.4527170 121.3480840  56.1474650  73.2303290
 120.6396990  56.6160990  73.6716900 121.6325320  55.4896660  73.8648480
 122.9736770  57.5671350  81.2295820 123.4722020  58.0417170  81.8947670
 123.1159720  56.6434870  81.4365850 125.3796270  52.8725310  74.6699080
 125.2564050  52.8911440  73.7208590 126.3280830  52.9204250  74.7897480
 122.4673060  68.1080610  73.9427060 122.7214560  68.0702000  73.0206430
 121.5185540  67.9813940  73.9355310 119.5515860  54.4559730  70.6054000
 120.4006390  54.8929880  70.5394190 119.1847130  54.7679990  71.4326060
 130.1803630  53.7839310  82.0724210 129.6777230  54.5244710  82.4118020
 130.9960290  54.1723310  81.7561000 130.4751220  66.1981340  77.1939830
 130.5998640  67.0212510  77.6663640 131.3416780  65.9872070  76.8463980
 116.9527030  67.4758620  86.0542540 117.7539760  67.7970670  86.4677940
 116.4378850  67.1154200  86.7762450 116.7047920  58.1061670  85.8928660
 116.7453260  57.8075540  86.8013890 117.5593420  58.5069280  85.7336180
 118.6453730  56.6853770  83.8603150 118.1150190  56.1944720  83.2326490
 119.3141800  57.1137970  83.3261080 122.9953950  59.7294830  68.3009270
 123.5159610  59.0143850  67.9350420 123.6422350  60.3680700  68.6009780
 119.1326030  53.6516140  83.9400440 119.0382900  53.0336890  83.2151310
 118.5523420  54.3782430  83.7130350 121.8987470  52.2089380  80.9727830
 121.4504770  52.2313640  80.1273380 121.2652670  51.8108400  81.5698130
 122.3047020  61.1043710  81.5940270 122.7235130  61.9476440  81.4216510
 121.3855650  61.2415750  81.3647050 120.1554440  67.4096720  82.7098000
 119.6175530  68.1342780  82.3906700 120.4088400  66.9327060  81.9195340
 121.4079690  55.3781240  84.2353930 121.9979380  55.0697090  84.9231750
 120.5899930  54.9060990  84.3913830 126.2273120  54.9947050  84.4686950
 125.5388640  54.3328590  84.4036940 126.9479140  54.5485320  84.9135410
 126.8573520  51.5898680  70.5277210 127.1375810  50.7466580  70.8836630
 126.0839250  51.8221790  71.0415960 118.1768010  53.8791070  67.9868210
 118.4793910  53.8858500  67.0787360 118.9162600  53.5288930  68.4835870
 123.0116650  68.6447930  82.9684650 122.9375350  69.5483070  83.2757020
 122.1095490  68.3259830  82.9406720 121.3952940  52.8225690  68.9724410
 121.0474940  52.1449680  68.3926860 121.5965710  52.3615200  69.7867800
 119.0105860  64.3031530  73.9320240 118.7101400  64.1796500  74.8324150
 118.9043350  63.4440120  73.5235970 114.9034150  66.8393110  79.0099900
 114.4665140  67.0193910  79.8424050 115.4711830  67.5967730  78.8681620
 131.7797780  64.0827930  68.6346920 130.9490740  64.1504580  69.1054150
 131.9569610  64.9732050  68.3313780 114.7358580  59.3513340  75.3688780
 114.0807420  59.0824980  74.7248480 115.5736530  59.2417820  74.9190760
 131.2873410  61.1209780  68.2953640 131.5622250  62.0288660  68.1672860
 131.0984150  61.0572310  69.2315630 129.0126440  53.4306720  85.7002290
 129.8896620  53.4390120  86.0836290 129.0247280  52.6937560  85.0894640
 130.4589710  57.2836260  76.5890310 130.9827190  56.7898910  75.9580480
 131.0449130  57.4186620  77.3337880 130.6379430  57.3676130  80.1109860
 129.6882140  57.3339670  80.2254850 130.8192440  58.2776240  79.8759630
 116.4923870  55.6177810  69.2208490 117.2015570  55.1961030  68.7355770
 115.7763810  55.6853040  68.5891840 131.3776840  55.1770560  75.0620400
 131.2676120  55.0226600  76.0002670 132.1384430  54.6491500  74.8195810
 129.7242560  51.1164690  81.5203400 130.3614780  51.7298830  81.8862590
 129.8717450  51.1525350  80.5752630 129.2824020  67.8180690  74.9221640
 129.8783090  67.4965260  74.2456060 129.5402170  67.3452510  75.7134910
 120.8892620  65.8058190  80.6721990 120.6483980  66.0732750  79.7852510
 121.8295260  65.9763920  80.7272850 123.0947040  52.2690880  84.4278500
 123.0335930  52.8612710  85.1773910 124.0347420  52.1616840  84.2828760
 125.7321600  51.9260940  84.0670790 126.3462010  52.2440230  83.4051870
 126.2771160  51.4409530  84.6866650 116.2542860  50.6055200  84.1809850
 116.8025850  50.4243250  83.4175960 116.3198170  49.8149310  84.7166160
 126.4729640  50.4893080  80.3940080 125.5989480  50.8228190  80.1913010
 126.3640390  50.0166260  81.2191950 127.3801620  52.6963950  81.7781800
 127.0514980  51.8815710  81.3983530 128.3283920  52.6533760  81.6547490
 129.8336230  68.4675990  78.7519370 129.3739200  69.2191800  78.3777390
 129.2048690  67.7482460  78.6934170 123.0027450  67.6672720  78.7536480
 123.2905260  67.4127020  77.8769490 123.5150670  67.1150080  79.3442050
 124.2204460  51.4062920  79.3332990 123.4376250  51.8808420  79.6129750
 123.9267390  50.5017750  79.2246170 128.7725530  52.1086020  77.3782080
 129.2133620  52.0531120  76.5303680 128.5033120  53.0244030  77.4492260
 130.6364100  51.7401260  75.3890900 130.5752500  50.7962480  75.2421920
 131.4156130  51.8481350  75.9344360 115.5644870  51.7110400  71.8546710
 116.3224230  51.8239280  71.2810740 115.1022040  52.5479600  71.8090140
 122.1058680  53.8249670  74.8449020 121.2933190  53.4506560  74.5044900
 122.6100320  53.0694750  75.1470210 126.6083660  50.4892120  76.0832090
 127.2113030  51.0612330  76.5580610 125.8676650  51.0531560  75.8605990
 129.7518260  50.8913680  71.3572370 129.9468890  51.7897130  71.6239800
 128.9648130  50.6600760  71.8505320 117.9370020  52.2374450  70.3948680
 118.4662780  51.4504250  70.2656630 118.5698340  52.9165640  70.6284210
 120.2563420  51.2533570  85.8846560 119.9747690  51.7567170  85.1207380
 120.6383120  50.4555320  85.5188690 129.6377370  67.8158680  85.9445720
 130.4302690  67.3207910  85.7371680 129.9310520  68.4948820  86.5521330
 123.3364060  63.1415830  58.7141200 123.2672340  62.2005770  58.5530330
 124.0983920  63.2317240  59.2863770 115.5270730  53.7470350  61.0397820
 115.3473570  52.8496100  61.3200580 115.1250810  54.2942220  61.7144770
 116.1457400  56.2430850  59.6480160 116.8267510  56.5069220  60.2667560
 115.8305450  55.4031720  59.9818170 120.3381970  57.2898210  58.7352750
 120.8460190  57.7879180  59.3757770 120.8695210  56.5133410  58.5592110
 118.6218070  51.9296770  63.0016170 118.6236510  52.4469160  62.1962070
 117.7922380  51.4526950  62.9786100 125.0089160  62.0416080  54.5006070
 124.3906430  62.5065530  53.9368790 125.5212410  62.7343560  54.9175580
 119.8720920  61.5691950  61.1789670 119.5390300  62.1960870  61.8210740
 120.0487600  62.0953830  60.3991340 118.3033400  53.6406730  61.0086620
 118.6450210  54.4848780  60.7140490 117.3649210  53.7890470  61.1251960
 119.0840020  63.5372750  62.9938850 119.7014020  64.2123830  62.7123300
 118.2233140  63.9460730  62.9026350 121.9861290  51.1289000  57.3331210
 122.2936270  50.5735890  56.6166710 121.0561990  51.2633460  57.1504200
 124.3742050  59.1937830  54.0691330 123.4471330  59.1275210  54.2979800
 124.5266870  60.1317960  53.9546570 128.4039340  60.7558130  54.5726580
 127.7851760  60.4177680  53.9252880 128.3863790  60.1117890  55.2805770
 120.4480390  63.4070130  59.0150270 120.1508680  62.8015600  58.3358050
 121.3980210  63.4447440  58.9039630 118.6927310  56.4945780  60.6310100
 119.2441900  56.6041120  59.8563350 119.2070820  56.8683380  61.3465330
 124.6899420  64.9341010  55.5480570 125.1295330  65.6765340  55.1335960
 124.6286310  65.1767580  56.4719530 130.1621180  51.2487750  49.8940370
 129.8493840  51.3414580  50.7939440 130.9233650  51.8268780  49.8437800
 125.3815200  67.6354790  63.4759580 125.8959870  67.5462800  64.2782010
 124.5384280  67.9814490  63.7687490 123.4336790  54.8251140  63.3376700
 122.9716160  55.0334160  64.1496640 123.0314900  54.0110490  63.0347370
 128.4341300  56.0460090  64.4673360 127.5834890  55.7465840  64.7882430
 128.2743090  56.2902100  63.5557180 125.5291010  57.5461840  66.5672150
 125.8544420  56.7125590  66.2274380 126.3171340  58.0690360  66.7150480
 122.2625800  51.5793320  52.6147210 121.6379980  51.5753190  53.3400520
 122.1755920  50.7124280  52.2183180 121.1842880  52.5029950  59.5930980
 121.4815210  53.4092780  59.5123000 121.7328440  52.0148730  58.9790550
 121.3780410  57.9801770  66.1282900 121.2824010  57.0396500  65.9783300
 122.2212390  58.2016840  65.7330970 116.5090950  54.3915440  64.2816680
 116.1154340  55.2390650  64.4889460 115.8209350  53.7541810  64.4725320
 123.0836000  54.4750410  67.3513420 122.3934320  54.2822610  67.9859510
 123.8268300  54.7585050  67.8837720 121.7976360  54.9903050  58.5919830
 121.8012420  54.5493000  57.7424370 122.6927480  55.3120380  58.6991650
 120.8718010  58.3016270  50.9809890 120.3034910  57.8534520  50.3545800
 121.5807010  58.6609050  50.4475040 119.8883700  58.0913470  62.6569450
 119.5840770  58.9705450  62.8819810 120.8430160  58.1513260  62.6926890
 124.6363410  52.6877780  53.1892080 123.8228020  52.1890950  53.1137390
 124.4425360  53.5276030  52.7728430 124.5572270  61.3648880  64.9331690
 124.4909580  60.4444550  64.6789280 123.9277410  61.4624320  65.6476330
 123.3472390  63.2321120  52.1642410 123.6888090  63.9763350  51.6685730
 122.5185100  63.5452240  52.5267240 115.9447430  58.9316210  63.8040810
 115.5862370  59.5970060  64.3914150 115.6501990  58.0999760  64.1753430
 124.4889000  64.1869450  64.6835490 124.5033540  63.2550410  64.4654400
 123.7814100  64.2729210  65.3225260 130.7000210  60.8276790  64.0304070
 129.9748400  61.4205570  63.8333460 131.2275670  60.8200330  63.2317440
 126.2299800  62.5536960  57.5287920 126.5823620  61.9565090  56.8689290
 125.3462130  62.2281190  57.6996170 122.3163080  63.3134650  54.9358330
 123.0034210  63.8603860  55.3165920 121.5295500  63.8575380  54.9707940
 121.6190290  60.3180680  54.5483690 122.0753070  61.1285930  54.7743880
 121.2678500  60.0003820  55.3802180 123.9222900  65.8287020  61.7775990
 124.5665120  66.0346400  62.4549410 124.2852340  65.0675420  61.3246840
 126.9692600  64.6314270  63.6989500 127.3048840  65.2180960  64.3767420
 126.0492940  64.5006980  63.9287290 114.8068590  66.4089710  65.4679440
 114.9159710  65.4684450  65.3274830 114.1549150  66.6744460  64.8193170
 122.7981180  64.6805600  66.8677560 122.4778050  63.9614840  67.4123250
 122.1239540  65.3560670  66.9413620 126.0134780  54.9131760  62.2314360
 126.3815600  54.0926970  62.5593930 125.1532980  54.9733650  62.6470010
 123.8254950  65.5894290  50.4735900 123.9266930  65.3858280  49.5437880
 122.9256690  65.3352570  50.6783680 122.9736770  57.5671350  62.4552330
 123.4722020  58.0417170  63.1204180 123.1159720  56.6434870  62.6622360
 125.3796270  52.8725310  55.8955590 125.2564050  52.8911440  54.9465100
 126.3280830  52.9204250  56.0153990 119.5515860  54.4559730  51.8310510
 120.4006390  54.8929880  51.7650700 119.1847130  54.7679990  52.6582570
 130.1803630  53.7839310  63.2980720 129.6777230  54.5244710  63.6374530
 130.9960290  54.1723310  62.9817510 118.4507280  60.7092090  50.3046040
 119.2170550  60.5973450  50.8671470 118.5281970  60.0130060  49.6522810
 117.1454040  58.1417160  50.9878930 117.2257630  57.1944670  51.0996330
 118.0373790  58.4724040  51.0939590 117.9468750  68.2912550  58.0913470
 118.6831230  67.7428010  58.3622040 118.3309670  69.1568560  57.9519460
 125.7891660  63.5838490  67.2274460 125.1829820  63.6070090  66.4870210
 125.4845770  62.8521530  67.7641710 127.2192030  67.3118780  65.8383870
 128.1713780  67.2276800  65.7884110 127.0720250  67.9760490  66.5117660
 114.6724840  59.9632080  66.2235100 115.1763860  59.3839360  66.7951330
 113.9332260  60.2472310  66.7611470 121.5748460  62.6846270  49.7781390
 121.4699100  62.0698620  50.5042770 121.4072680  62.1612160  48.9944400
 121.7262780  61.3703070  65.7570620 120.9608450  61.9388070  65.6725290
 121.9078740  61.0779280  64.8638850 124.8151190  61.7466300  50.3823380
 124.2661290  62.1935600  51.0266120 125.4370450  61.2415550  50.9061050
 128.8686130  63.1008400  66.3145640 129.6095600  63.4384160  65.8113100
 128.1058810  63.2700460  65.7615410 120.4826310  60.7057220  52.2788680
 120.9042730  60.5397090  53.1220070 120.6077150  59.8957450  51.7843820
 118.6453730  56.6853770  65.0859660 118.1150190  56.1944720  64.4583000
 119.3141800  57.1137970  64.5517590 122.9953950  59.7294830  49.5265780
 123.5159610  59.0143850  49.1606930 123.6422350  60.3680700  49.8266290
 127.5431790  61.1523230  64.8500850 127.9572810  61.3068310  65.6991270
 126.6082790  61.2778450  65.0126630 128.0153960  58.4919390  66.8540000
 128.5974730  57.7371710  66.7660480 128.1915730  59.0226830  66.0771480
 119.1326030  53.6516140  65.1656950 119.0382900  53.0336890  64.4407820
 118.5523420  54.3782430  64.9386860 121.8987470  52.2089380  62.1984340
 121.4504770  52.2313640  61.3529890 121.2652670  51.8108400  62.7954640
 122.3047020  61.1043710  62.8196780 122.7235130  61.9476440  62.6473020
 121.3855650  61.2415750  62.5903560 124.6410920  58.8359890  64.2034620
 124.7607130  58.2401030  64.9429460 125.5004920  58.8729580  63.7835920
 120.1554440  67.4096720  63.9354510 119.6175530  68.1342780  63.6163210
 120.4088400  66.9327060  63.1451850 121.4079690  55.3781240  65.4610440
 121.9979380  55.0697090  66.1488260 120.5899930  54.9060990  65.6170340
 126.2273120  54.9947050  65.6943460 125.5388640  54.3328590  65.6293450
 126.9479140  54.5485320  66.1391920 130.5738370  58.2050290  64.1479100
 130.3424460  57.9763040  63.2477050 130.8342920  59.1249840  64.1023990
 115.3250510  56.6475000  65.0407050 114.4306560  56.6141760  65.3800760
 115.8648060  56.8461790  65.8058300 129.0126440  53.4306720  66.9258800
 129.8896620  53.4390120  67.3092800 129.0247280  52.6937560  66.3151150
 116.4923870  55.6177810  50.4465000 117.2015570  55.1961030  49.9612280
 115.7763810  55.6853040  49.8148350 116.1398030  51.6717140  49.4867650
 116.8626160  52.2126080  49.8048870 116.4122550  51.3980560  48.6109190
 115.8290220  50.9223330  59.3890270 116.4766410  50.3720710  58.9485430
 116.2492060  51.1766480  60.2106080 132.2667110  53.0078480  49.5283050
 133.1916420  52.8759660  49.3201340 132.2442900  53.0871300  50.4819500
 132.3405600  53.7789140  52.1539760 131.5457100  53.7134260  52.6832670
 132.5448880  54.7139780  52.1425110 115.5822220  51.0779000  62.1315590
 115.2337040  51.5342820  62.8973770 115.2509920  50.1836130  62.2138020
 120.8892620  65.8058190  61.8978500 120.6483980  66.0732750  61.0109020
 121.8295260  65.9763920  61.9529360 123.0947040  52.2690880  65.6535010
 123.0335930  52.8612710  66.4030420 124.0347420  52.1616840  65.5085270
 117.0274620  67.1960850  63.4166560 116.4334940  67.0645550  64.1556600
 117.0198460  66.3598990  62.9508660 120.2631950  66.7764230  59.1524010
 120.7796970  66.1651590  58.6272270 120.9129330  67.2793010  59.6435020
 124.2204460  51.4062920  60.5589500 123.4376250  51.8808420  60.8386260
 123.9267390  50.5017750  60.4502680 115.5644870  51.7110400  53.0803220
 116.3224230  51.8239280  52.5067250 115.1022040  52.5479600  53.0346650
 122.1058680  53.8249670  56.0705530 121.2933190  53.4506560  55.7301410
 122.6100320  53.0694750  56.3726720 117.9370020  52.2374450  51.6205190
 118.4662780  51.4504250  51.4913140 118.5698340  52.9165640  51.8540720
 120.2563420  51.2533570  67.1103070 119.9747690  51.7567170  66.3463890
 120.6383120  50.4555320  66.7445200 125.7637030  58.6879620  38.0518280
 125.6831080  57.7734230  37.7809990 125.3501450  59.1846690  37.3457990
 127.9162500  64.8718830  38.7126680 127.4544030  64.1006070  39.0413850
 128.7288050  64.8984900  39.2179130 117.8922160  64.8118540  41.0061330
 118.1950200  63.9216280  40.8271550 118.6365750  65.3688760  40.7783580
 116.3212850  55.7380340  34.5945700 115.4329550  56.0796310  34.4925580
 116.6054040  55.5380660  33.7026530 114.2845860  58.3385990  40.4785400
 114.8561970  57.5708190  40.4789040 114.2847400  58.6374750  39.5692010
 124.1425810  67.1576840  38.3330670 123.5237250  67.6134340  37.7625110
 124.9977590  67.3128300  37.9320370 124.3669230  55.9486210  40.1666640
 124.7434050  55.0758090  40.0540310 124.2688740  56.2844910  39.2757080
 118.4974240  54.3211840  35.6284080 118.6040990  55.2215570  35.9352840
 117.5866600  54.2729810  35.3378730 128.1493350  53.4436650  37.0994980
 128.9702970  52.9533220  37.1420460 128.1827430  54.0334310  37.8526820
 116.1457400  56.2430850  40.8736670 116.8267510  56.5069220  41.4924070
 115.8305450  55.4031720  41.2074680 120.3381970  57.2898210  39.9609260
 120.8460190  57.7879180  40.6014280 120.8695210  56.5133410  39.7848620
 132.4392900  55.4603400  43.6638610 131.7345070  55.8485110  43.1453720
 132.7050820  56.1553690  44.2659540 125.0089160  62.0416080  35.7262580
 124.3906430  62.5065530  35.1625300 125.5212410  62.7343560  36.1432090
 128.3854830  55.3837030  39.8722520 127.6810400  55.6721920  40.4525630
 128.7466990  56.1937140  39.5122080 119.0840020  63.5372750  44.2195360
 119.7014020  64.2123830  43.9379810 118.2233140  63.9460730  44.1282860
 130.0017610  65.0012160  42.1350000 129.3181130  65.6711270  42.1266670
 130.5411900  65.1992810  41.3694860 131.4541750  54.8291820  40.2631730
 130.5066660  54.8630800  40.3947160 131.7791740  55.6430770  40.6481090
 127.5376350  66.8456290  40.8495180 127.5503510  66.4418580  39.9817440
 126.9851570  67.6203580  40.7456610 128.8321770  63.5672510  35.9385350
 128.7218100  62.6246840  36.0634770 128.8290020  63.9288150  36.8248110
 126.9361790  61.7486130  42.1777790 127.3530580  61.5346240  41.3431250
 127.6601610  62.0058920  42.7486410 124.3742050  59.1937830  35.2947840
 123.4471330  59.1275210  35.5236310 124.5266870  60.1317960  35.1803080
 124.3611130  55.4654830  32.2915000 123.4214800  55.6268790  32.3767460
 124.6794390  56.1840510  31.7450990 130.8823890  60.1473350  42.2694030
 130.0542520  60.2166440  41.7944160 131.4774370  60.7327660  41.8009860
 128.4039340  60.7558130  35.7983090 127.7851760  60.4177680  35.1509390
 128.3863790  60.1117890  36.5062280 127.8465900  56.9342670  43.2148900
 127.4337080  57.7596380  43.4688890 127.1141850  56.3487710  43.0225260
 128.5366000  66.9802000  43.9029880 128.0596560  67.7874190  43.7102490
 127.8527790  66.3280330  44.0556090 119.5398820  63.1451820  46.8914580
 118.6427350  63.3691790  47.1387980 119.5651690  63.2686760  45.9425980
 126.5804040  59.9944940  32.8055840 127.0197320  59.1567370  32.6593660
 127.2932460  60.6274340  32.8919980 118.3670040  60.0165140  45.4671950
 118.2277810  60.8887940  45.8359350 117.4851400  59.6737950  45.3219890
 124.6899420  64.9341010  36.7737080 125.1295330  65.6765340  36.3592470
 124.6286310  65.1767580  37.6976040 120.1650390  65.9586840  47.6757100
 120.1365820  66.3629790  46.8085530 120.0015360  65.0297200  47.5128700
 130.1621180  51.2487750  31.1196880 129.8493840  51.3414580  32.0195950
 130.9233650  51.8268780  31.0694310 114.3188690  61.7862690  41.3842860
 114.3969110  61.9211460  40.4398580 114.9330370  61.0778580  41.5770980
 115.5636320  63.4862880  37.7949040 115.1564400  63.6277470  36.9402640
 116.4549330  63.2023040  37.5920250 131.5198460  63.9326790  46.1321280
 131.6461520  63.6938670  45.2138460 131.5619840  63.1011330  46.6043360
 125.3815200  67.6354790  44.7016090 125.8959870  67.5462800  45.5038520
 124.5384280  67.9814490  44.9944000 127.3569600  67.9210130  34.1300090
 127.1970740  67.6313070  35.0281920 127.1916310  67.1450260  33.5945320
 119.8357980  67.7008660  35.9071710 119.6600460  66.7844200  35.6939510
 118.9813720  68.0595950  36.1469510 127.0595730  65.4297690  32.6898090
 126.3660890  65.4274980  32.0300370 127.8018590  65.0057010  32.2592260
 126.6245660  67.0560400  36.7646580 127.0802610  66.2749780  37.0785200
 126.9638180  67.7667220  37.3087760 131.3722470  55.9859250  47.0971020
 130.7566740  56.4938920  46.5686480 131.0518890  55.0857580  47.0396960
 114.3748210  62.8276860  43.9237320 114.5379250  62.3582220  43.1056690
 114.8400660  62.3200420  44.5886160 119.1466980  51.9582620  38.9597890
 118.7035130  52.7392160  38.6282410 119.7051970  52.2812510  39.6668830
 128.4341300  56.0460090  45.6929870 127.5834890  55.7465840  46.0138940
 128.2743090  56.2902100  44.7813690 122.2625800  51.5793320  33.8403720
 121.6379980  51.5753190  34.5657030 122.1755920  50.7124280  33.4439690
 118.9381200  57.0816190  36.6879140 118.7122120  56.8653360  37.5925760
 118.1573730  57.5144650  36.3425110 126.1678960  57.0879560  35.2869790
 125.5687850  57.8115360  35.1033410 126.7158570  57.0256340  34.5046240
 121.3780410  57.9801770  47.3539410 121.2824010  57.0396500  47.2039810
 122.2212390  58.2016840  46.9587480 124.7743830  55.7243100  37.3173070
 125.1673400  56.0415300  36.5041760 125.1360680  54.8454980  37.4317590
 113.9978230  56.2564020  30.7505990 113.9152900  57.1994780  30.8920980
 113.6461290  56.1138930  29.8718340 125.3598970  58.3148850  41.4123850
 124.6280090  58.8235660  41.7613950 124.9623310  57.4978830  41.1112630
 121.7976360  54.9903050  39.8176340 121.8012420  54.5493000  38.9680880
 122.6927480  55.3120380  39.9248160 121.8596510  55.9915130  32.8083100
 121.9809330  55.9501610  33.7568920 121.4745020  56.8539280  32.6529830
 125.8224880  53.7682530  40.8246790 125.8397620  54.2191180  41.6688640
 125.5740460  52.8688170  41.0380230 120.8718010  58.3016270  32.2066400
 120.3034910  57.8534520  31.5802310 121.5807010  58.6609050  31.6731550
 129.2495630  51.1814710  46.6633170 129.5741400  50.4504370  47.1891150
 129.2852140  50.8628350  45.7614160 115.9487190  62.2028290  46.0833130
 115.5641980  61.5621960  46.6816090 116.2599380  62.9064410  46.6527860
 118.4165490  62.2974460  34.4792810 117.6427750  61.7572080  34.3191530
 119.1460120  61.7781070  34.1410570 129.1753470  61.2939820  40.2719200
 129.8952590  61.7895110  39.8815310 128.9735290  60.6157710  39.6273070
 124.6363410  52.6877780  34.4148590 123.8228020  52.1890950  34.3393900
 124.4425360  53.5276030  33.9984940 124.5572270  61.3648880  46.1588200
 124.4909580  60.4444550  45.9045790 123.9277410  61.4624320  46.8732840
 127.3511800  57.0597430  32.7110750 128.2391420  57.3714660  32.5362090
 127.3216890  56.1869680  32.3191330 123.3472390  63.2321120  33.3898920
 123.6888090  63.9763350  32.8942240 122.5185100  63.5452240  33.7523750
 115.9447430  58.9316210  45.0297320 115.5862370  59.5970060  45.6170660
 115.6501990  58.0999760  45.4009940 119.1460550  59.3900450  47.9136870
 118.8460690  59.5357630  47.0164690 119.9171790  58.8305740  47.8210260
 124.4889000  64.1869450  45.9092000 124.5033540  63.2550410  45.6910910
 123.7814100  64.2729210  46.5481770 129.6226070  58.3709270  32.1790610
 129.5389790  58.8023490  31.3287050 130.3420260  58.8307620  32.6117430
 130.7000210  60.8276790  45.2560580 129.9748400  61.4205570  45.0589970
 131.2275670  60.8200330  44.4573950 130.6513320  65.2251530  34.9072740
 130.0089480  64.5707150  35.1816460 130.2643980  65.6306620  34.1313410
 126.2299800  62.5536960  38.7544430 126.5823620  61.9565090  38.0945800
 125.3462130  62.2281190  38.9252680 123.9222900  65.8287020  43.0032500
 124.5665120  66.0346400  43.6805920 124.2852340  65.0675420  42.5503350
 117.5202070  50.6618330  36.2462720 117.3916700  50.6536230  37.1947640
 116.6964090  51.0001420  35.8953730 125.1954980  63.8319370  41.7209950
 125.8377210  63.1312530  41.8342120 125.7204330  64.6117810  41.5406840
 129.0410700  64.1167990  31.4449090 128.8148280  63.3998430  32.0373730
 128.6506900  63.8680430  30.6070840 126.9692600  64.6314270  44.9246010
 127.3048840  65.2180960  45.6023930 126.0492940  64.5006980  45.1543800
 114.8226730  68.1434850  32.2193550 115.1824370  68.7424190  31.5650820
 114.6819070  68.6894740  32.9928580 128.6226950  62.0339930  33.1063250
 128.3348650  62.4952620  33.8941130 129.4179120  61.5737700  33.3747470
 114.8068590  66.4089710  46.6935950 114.9159710  65.4684450  46.5531340
 114.1549150  66.6744460  46.0449680 122.7981180  64.6805600  48.0934070
 122.4778050  63.9614840  48.6379760 122.1239540  65.3560670  48.1670130
 120.8395350  65.5266050  33.0367220 120.8305450  66.2595740  32.4211730
 119.9193710  65.2797630  33.1294180 126.0134780  54.9131760  43.4570870
 126.3815600  54.0926970  43.7850440 125.1532980  54.9733650  43.8726520
 129.3796810  53.8688700  34.2658430 128.7509970  53.9734370  33.5516660
 128.8848730  54.0885480  35.0552310 123.8254950  65.5894290  31.6992410
 123.9266930  65.3858280  30.7694390 122.9256690  65.3352570  31.9040190
 121.3480840  56.1474650  35.6816310 120.6396990  56.6160990  36.1229920
 121.6325320  55.4896660  36.3161500 122.9736770  57.5671350  43.6808840
 123.4722020  58.0417170  44.3460690 123.1159720  56.6434870  43.8878870
 125.3796270  52.8725310  37.1212100 125.2564050  52.8911440  36.1721610
 126.3280830  52.9204250  37.2410500 122.4673060  68.1080610  36.3940080
 122.7214560  68.0702000  35.4719450 121.5185540  67.9813940  36.3868330
 119.5515860  54.4559730  33.0567020 120.4006390  54.8929880  32.9907210
 119.1847130  54.7679990  33.8839080 130.1803630  53.7839310  44.5237230
 129.6777230  54.5244710  44.8631040 130.9960290  54.1723310  44.2074020
 128.4725640  59.0272490  37.9698590 127.5315780  59.0422720  38.1446280
 128.7869710  58.2408450  38.4158890 130.4751220  66.1981340  39.6452850
 130.5998640  67.0212510  40.1176660 131.3416780  65.9872070  39.2977000
 117.9468750  68.2912550  39.3169980 118.6831230  67.7428010  39.5878550
 118.3309670  69.1568560  39.1775970 114.8314230  64.3586120  35.1911490
 113.9054010  64.6007260  35.1816900 115.2970660  65.1860380  35.0696240
 121.0571060  67.4642860  31.1395550 121.8499670  67.7531690  30.6877340
 120.5375410  67.0335030  30.4608030 125.7891660  63.5838490  48.4530970
 125.1829820  63.6070090  47.7126720 125.4845770  62.8521530  48.9898220
 127.2192030  67.3118780  47.0640380 128.1713780  67.2276800  47.0140620
 127.0720250  67.9760490  47.7374170 130.1101230  66.6912990  32.5632290
 129.8242740  66.2778130  31.7486470 129.9120780  67.6200700  32.4432810
 114.6724840  59.9632080  47.4491610 115.1763860  59.3839360  48.0207840
 113.9332260  60.2472310  47.9867980 121.5748460  62.6846270  31.0037900
 121.4699100  62.0698620  31.7299280 121.4072680  62.1612160  30.2200910
 121.7262780  61.3703070  46.9827130 120.9608450  61.9388070  46.8981800
 121.9078740  61.0779280  46.0895360 124.8151190  61.7466300  31.6079890
 124.2661290  62.1935600  32.2522630 125.4370450  61.2415550  32.1317560
 128.8686130  63.1008400  47.5402150 129.6095600  63.4384160  47.0369610
 128.1058810  63.2700460  46.9871920 116.7047920  58.1061670  48.3441680
 116.7453260  57.8075540  49.2526910 117.5593420  58.5069280  48.1849200
 122.9953950  59.7294830  30.7522290 123.5159610  59.0143850  30.3863440
 123.6422350  60.3680700  31.0522800 127.5431790  61.1523230  46.0757360
 127.9572810  61.3068310  46.9247780 126.6082790  61.2778450  46.2383140
 124.6410920  58.8359890  45.4291130 124.7607130  58.2401030  46.1685970
 125.5004920  58.8729580  45.0092430 126.9798820  59.3897080  44.0053640
 126.4534040  59.9139700  43.4018780 127.3230160  60.0224470  44.6363370
 119.3785210  56.7790450  30.4503350 119.1774270  55.9157810  30.8116690
 119.2077260  56.6923810  29.5124950 120.1554440  67.4096720  45.1611020
 119.6175530  68.1342780  44.8419720 120.4088400  66.9327060  44.3708360
 126.2273120  54.9947050  46.9199970 125.5388640  54.3328590  46.8549960
 126.9479140  54.5485320  47.3648430 126.8573520  51.5898680  32.9790230
 127.1375810  50.7466580  33.3349650 126.0839250  51.8221790  33.4928980
 118.1768010  53.8791070  30.4381230 118.4793910  53.8858500  29.5300380
 118.9162600  53.5288930  30.9348890 123.0116650  68.6447930  45.4197670
 122.9375350  69.5483070  45.7270040 122.1095490  68.3259830  45.3919740
 121.3952940  52.8225690  31.4237430 121.0474940  52.1449680  30.8439880
 121.5965710  52.3615200  32.2380820 123.5601980  67.8106440  33.0424030
 124.4552770  68.1491410  33.0642790 123.5919610  67.0885850  32.4148310
 114.4143940  65.9722520  38.7231290 114.7446950  65.1043580  38.4909930
 114.8434940  66.1781040  39.5536250 119.0105860  64.3031530  36.3833260
 118.7101400  64.1796500  37.2837170 118.9043350  63.4440120  35.9748990
 114.9034150  66.8393110  41.4612920 114.4665140  67.0193910  42.2937070
 115.4711830  67.5967730  41.3194640 130.5396330  66.3410110  45.7490230
 129.9398320  66.4002670  45.0054150 130.6690230  65.4015090  45.8787080
 131.7797780  64.0827930  31.0859940 130.9490740  64.1504580  31.5567170
 131.9569610  64.9732050  30.7826800 131.2354240  60.8275410  33.5894140
 131.9973150  61.3972060  33.6953830 131.2508610  60.2602610  34.3602450
 132.2414210  61.6825510  38.4336070 132.6123040  60.8992830  38.0272040
 132.8816140  62.3714610  38.2553370 129.2247970  63.0662090  43.8466390
 128.4107810  63.4959250  44.1092180 129.6322170  63.6780500  43.2335440
 131.2873410  61.1209780  30.7466660 131.5622250  62.0288660  30.6185880
 131.0984150  61.0572310  31.6828650 127.6849020  54.1454630  32.0420290
 128.1033900  53.9585610  31.2016950 127.3785080  53.2933680  32.3523220
 131.1838750  59.0578770  35.7396090 130.8082350  58.2906700  35.3077380
 130.4541870  59.4401470  36.2271020 115.7734510  59.7365910  42.3605140
 116.1407550  59.6493310  43.2401160 115.2045330  58.9732460  42.2612000
 130.5738370  58.2050290  45.3735610 130.3424460  57.9763040  44.4733560
 130.8342920  59.1249840  45.3280500 129.0126440  53.4306720  48.1515310
 129.8896620  53.4390120  48.5349310 129.0247280  52.6937560  47.5407660
 130.4589710  57.2836260  39.0403330 130.9827190  56.7898910  38.4093500
 131.0449130  57.4186620  39.7850900 130.6379430  57.3676130  42.5622880
 129.6882140  57.3339670  42.6767870 130.8192440  58.2776240  42.3272650
 116.4923870  55.6177810  31.6721510 117.2015570  55.1961030  31.1868790
 115.7763810  55.6853040  31.0404860 116.1398030  51.6717140  30.7124160
 116.8626160  52.2126080  31.0305380 116.4122550  51.3980560  29.8365700
 129.9489680  56.5409610  34.9795740 130.4448800  56.3080480  35.7644620
 129.7505750  55.7021450  34.5633380 115.8290220  50.9223330  40.6146780
 116.4766410  50.3720710  40.1741940 116.2492060  51.1766480  41.4362590
 131.3776840  55.1770560  37.5133420 131.2676120  55.0226600  38.4515690
 132.1384430  54.6491500  37.2708830 129.7242560  51.1164690  43.9716420
 130.3614780  51.7298830  44.3375610 129.8717450  51.1525350  43.0265650
 132.2667110  53.0078480  30.7539560 133.1916420  52.8759660  30.5457850
 132.2442900  53.0871300  31.7076010 132.3405600  53.7789140  33.3796270
 131.5457100  53.7134260  33.9089180 132.5448880  54.7139780  33.3681620
 129.2824020  67.8180690  37.3734660 129.8783090  67.4965260  36.6969080
 129.5402170  67.3452510  38.1647930 115.5822220  51.0779000  43.3572100
 115.2337040  51.5342820  44.1230280 115.2509920  50.1836130  43.4394530
 120.8892620  65.8058190  43.1235010 120.6483980  66.0732750  42.2365530
 121.8295260  65.9763920  43.1785870 117.0274620  67.1960850  44.6423070
 116.4334940  67.0645550  45.3813110 117.0198460  66.3598990  44.1765170
 127.3801620  52.6963950  44.2294820 127.0514980  51.8815710  43.8496550
 128.3283920  52.6533760  44.1060510 129.8336230  68.4675990  41.2032390
 129.3739200  69.2191800  40.8290410 129.2048690  67.7482460  41.1447190
 116.6586850  64.5619230  43.5931110 115.9320910  63.9424520  43.5257060
 116.7196000  64.9559840  42.7229190 123.0027450  67.6672720  41.2049500
 123.2905260  67.4127020  40.3282510 123.5150670  67.1150080  41.7955070
 128.7725530  52.1086020  39.8295100 129.2133620  52.0531120  38.9816700
 128.5033120  53.0244030  39.9005280 130.6364100  51.7401260  37.8403920
 130.5752500  50.7962480  37.6934940 131.4156130  51.8481350  38.3857380
 115.5644870  51.7110400  34.3059730 116.3224230  51.8239280  33.7323760
 115.1022040  52.5479600  34.2603160 122.1058680  53.8249670  37.2962040
 121.2933190  53.4506560  36.9557920 122.6100320  53.0694750  37.5983230
 126.6083660  50.4892120  38.5345110 127.2113030  51.0612330  39.0093630
 125.8676650  51.0531560  38.3119010 129.7518260  50.8913680  33.8085390
 129.9468890  51.7897130  34.0752820 128.9648130  50.6600760  34.3018340
 116.5479550  66.5726850  34.2478010 116.0227170  66.9534880  33.5439970
 116.4724130  67.1977620  34.9687720 117.9370020  52.2374450  32.8461700
 118.4662780  51.4504250  32.7169650 118.5698340  52.9165640  33.0797230
 120.1307860  51.9749590  35.9007090 119.5010600  51.2736900  36.0677220
 119.5913000  52.7353720  35.6840250 123.0699810  68.5888820  48.5717700
 123.9967120  68.3533090  48.6153660 123.0550240  69.4160820  48.0903730
 131.3044870  68.1314390  35.5691950 131.4797060  67.4452130  34.9252870
 130.6066440  68.6561440  35.1768620 119.1472520  68.5209230  33.1227260
 119.8791340  68.2368510  32.5751150 119.4066190  68.2822510  34.0126640
 125.7637030  58.6879620  19.2774790 125.6831080  57.7734230  19.0066500
 125.3501450  59.1846690  18.5714500 123.8955070  60.4658640  21.1584060
 123.1197170  59.9859080  21.4482630 124.5468000  59.7864290  20.9840220
 117.9120900  60.7778450  22.0359820 117.0805780  60.5227160  22.4356330
 118.5201880  60.8489220  22.7717740 127.9162500  64.8718830  19.9383190
 127.4544030  64.1006070  20.2670360 128.7288050  64.8984900  20.4435640
 117.8922160  64.8118540  22.2317840 118.1950200  63.9216280  22.0528060
 118.6365750  65.3688760  22.0040090 116.3212850  55.7380340  15.8202210
 115.4329550  56.0796310  15.7182090 116.6054040  55.5380660  14.9283040
 114.2845860  58.3385990  21.7041910 114.8561970  57.5708190  21.7045550
 114.2847400  58.6374750  20.7948520 124.1425810  67.1576840  19.5587180
 123.5237250  67.6134340  18.9881620 124.9977590  67.3128300  19.1576880
 123.3364060  63.1415830  21.1654220 123.2672340  62.2005770  21.0043350
 124.0983920  63.2317240  21.7376790 115.5270730  53.7470350  23.4910840
 115.3473570  52.8496100  23.7713600 115.1250810  54.2942220  24.1657790
 124.3669230  55.9486210  21.3923150 124.7434050  55.0758090  21.2796820
 124.2688740  56.2844910  20.5013590 118.4974240  54.3211840  16.8540590
 118.6040990  55.2215570  17.1609350 117.5866600  54.2729810  16.5635240
 128.1493350  53.4436650  18.3251490 128.9702970  52.9533220  18.3676970
 128.1827430  54.0334310  19.0783330 116.1457400  56.2430850  22.0993180
 116.8267510  56.5069220  22.7180580 115.8305450  55.4031720  22.4331190
 120.3381970  57.2898210  21.1865770 120.8460190  57.7879180  21.8270790
 120.8695210  56.5133410  21.0105130 132.4392900  55.4603400  24.8895120
 131.7345070  55.8485110  24.3710230 132.7050820  56.1553690  25.4916050
 118.6218070  51.9296770  25.4529190 118.6236510  52.4469160  24.6475090
 117.7922380  51.4526950  25.4299120 125.0089160  62.0416080  16.9519090
 124.3906430  62.5065530  16.3881810 125.5212410  62.7343560  17.3688600
 119.8720920  61.5691950  23.6302690 119.5390300  62.1960870  24.2723760
 120.0487600  62.0953830  22.8504360 128.3854830  55.3837030  21.0979030
 127.6810400  55.6721920  21.6782140 128.7466990  56.1937140  20.7378590
 118.3033400  53.6406730  23.4599640 118.6450210  54.4848780  23.1653510
 117.3649210  53.7890470  23.5764980 119.0840020  63.5372750  25.4451870
 119.7014020  64.2123830  25.1636320 118.2233140  63.9460730  25.3539370
 114.3772360  62.7272610  14.3258720 114.0000340  63.2159710  13.5943620
 114.6345430  63.3997890  14.9565250 130.0017610  65.0012160  23.3606510
 129.3181130  65.6711270  23.3523180 130.5411900  65.1992810  22.5951370
 131.4541750  54.8291820  21.4888240 130.5066660  54.8630800  21.6203670
 131.7791740  55.6430770  21.8737600 121.9861290  51.1289000  19.7844230
 122.2936270  50.5735890  19.0679730 121.0561990  51.2633460  19.6017220
 127.5376350  66.8456290  22.0751690 127.5503510  66.4418580  21.2073950
 126.9851570  67.6203580  21.9713120 128.8321770  63.5672510  17.1641860
 128.7218100  62.6246840  17.2891280 128.8290020  63.9288150  18.0504620
 126.9361790  61.7486130  23.4034300 127.3530580  61.5346240  22.5687760
 127.6601610  62.0058920  23.9742920 124.3742050  59.1937830  16.5204350
 123.4471330  59.1275210  16.7492820 124.5266870  60.1317960  16.4059590
 124.3611130  55.4654830  13.5171510 123.4214800  55.6268790  13.6023970
 124.6794390  56.1840510  12.9707500 130.8823890  60.1473350  23.4950540
 130.0542520  60.2166440  23.0200670 131.4774370  60.7327660  23.0266370
 128.4039340  60.7558130  17.0239600 127.7851760  60.4177680  16.3765900
 128.3863790  60.1117890  17.7318790 127.8465900  56.9342670  24.4405410
 127.4337080  57.7596380  24.6945400 127.1141850  56.3487710  24.2481770
 119.9798690  59.7202570  19.3024080 119.5755690  59.0079820  18.8069980
 120.0661810  59.3755810  20.1912120 120.4480390  63.4070130  21.4663290
 120.1508680  62.8015600  20.7871070 121.3980210  63.4447440  21.3552650
 118.6927310  56.4945780  23.0823120 119.2441900  56.6041120  22.3076370
 119.2070820  56.8683380  23.7978350 128.5366000  66.9802000  25.1286390
 128.0596560  67.7874190  24.9359000 127.8527790  66.3280330  25.2812600
 119.5398820  63.1451820  28.1171090 118.6427350  63.3691790  28.3644490
 119.5651690  63.2686760  27.1682490 126.5804040  59.9944940  14.0312350
 127.0197320  59.1567370  13.8850170 127.2932460  60.6274340  14.1176490
 118.3670040  60.0165140  26.6928460 118.2277810  60.8887940  27.0615860
 117.4851400  59.6737950  26.5476400 124.6899420  64.9341010  17.9993590
 125.1295330  65.6765340  17.5848980 124.6286310  65.1767580  18.9232550
 120.1650390  65.9586840  28.9013610 120.1365820  66.3629790  28.0342040
 120.0015360  65.0297200  28.7385210 130.1621180  51.2487750  12.3453390
 129.8493840  51.3414580  13.2452460 130.9233650  51.8268780  12.2950820
 116.6803320  58.6147550  16.8030730 116.5600920  59.3409640  16.1912000
 116.3704210  57.8450460  16.3258640 132.1165210  66.7413940  30.1977780
 132.5924930  67.2196830  30.8766860 132.7372370  66.6731430  29.4723280
 114.3188690  61.7862690  22.6099370 114.3969110  61.9211460  21.6655090
 114.9330370  61.0778580  22.8027490 115.5636320  63.4862880  19.0205550
 115.1564400  63.6277470  18.1659150 116.4549330  63.2023040  18.8176760
 131.5198460  63.9326790  27.3577790 131.6461520  63.6938670  26.4394970
 131.5619840  63.1011330  27.8299870 125.3815200  67.6354790  25.9272600
 125.8959870  67.5462800  26.7295030 124.5384280  67.9814490  26.2200510
 127.3569600  67.9210130  15.3556600 127.1970740  67.6313070  16.2538430
 127.1916310  67.1450260  14.8201830 119.8357980  67.7008660  17.1328220
 119.6600460  66.7844200  16.9196020 118.9813720  68.0595950  17.3726020
 127.0595730  65.4297690  13.9154600 126.3660890  65.4274980  13.2556880
 127.8018590  65.0057010  13.4848770 126.6245660  67.0560400  17.9903090
 127.0802610  66.2749780  18.3041710 126.9638180  67.7667220  18.5344270
 131.3722470  55.9859250  28.3227530 130.7566740  56.4938920  27.7942990
 131.0518890  55.0857580  28.2653470 114.3748210  62.8276860  25.1493830
 114.5379250  62.3582220  24.3313200 114.8400660  62.3200420  25.8142670
 119.1466980  51.9582620  20.1854400 118.7035130  52.7392160  19.8538920
 119.7051970  52.2812510  20.8925340 123.4336790  54.8251140  25.7889720
 122.9716160  55.0334160  26.6009660 123.0314900  54.0110490  25.4860390
 128.4341300  56.0460090  26.9186380 127.5834890  55.7465840  27.2395450
 128.2743090  56.2902100  26.0070200 125.5291010  57.5461840  29.0185170
 125.8544420  56.7125590  28.6787400 126.3171340  58.0690360  29.1663500
 122.2625800  51.5793320  15.0660230 121.6379980  51.5753190  15.7913540
 122.1755920  50.7124280  14.6696200 121.1842880  52.5029950  22.0444000
 121.4815210  53.4092780  21.9636020 121.7328440  52.0148730  21.4303570
 118.9381200  57.0816190  17.9135650 118.7122120  56.8653360  18.8182270
 118.1573730  57.5144650  17.5681620 126.1678960  57.0879560  16.5126300
 125.5687850  57.8115360  16.3289920 126.7158570  57.0256340  15.7302750
 121.3780410  57.9801770  28.5795920 121.2824010  57.0396500  28.4296320
 122.2212390  58.2016840  28.1843990 124.7743830  55.7243100  18.5429580
 125.1673400  56.0415300  17.7298270 125.1360680  54.8454980  18.6574100
 116.5090950  54.3915440  26.7329700 116.1154340  55.2390650  26.9402480
 115.8209350  53.7541810  26.9238340 123.0836000  54.4750410  29.8026440
 122.3934320  54.2822610  30.4372530 123.8268300  54.7585050  30.3350740
 113.8108000  52.3143900  20.7659780 113.5221050  52.8846760  21.4784760
 114.5553760  51.8348350  21.1291010 113.9978230  56.2564020  11.9762500
 113.9152900  57.1994780  12.1177490 113.6461290  56.1138930  11.0974850
 125.3598970  58.3148850  22.6380360 124.6280090  58.8235660  22.9870460
 124.9623310  57.4978830  22.3369140 121.7976360  54.9903050  21.0432850
 121.8012420  54.5493000  20.1937390 122.6927480  55.3120380  21.1504670
 117.6478740  54.8729540  20.0027060 117.3078790  55.3504770  20.7594110
 116.8856060  54.4194660  19.6428160 121.8596510  55.9915130  14.0339610
 121.9809330  55.9501610  14.9825430 121.4745020  56.8539280  13.8786340
 125.8224880  53.7682530  22.0503300 125.8397620  54.2191180  22.8945150
 125.5740460  52.8688170  22.2636740 120.8718010  58.3016270  13.4322910
 120.3034910  57.8534520  12.8058820 121.5807010  58.6609050  12.8988060
 129.2495630  51.1814710  27.8889680 129.5741400  50.4504370  28.4147660
 129.2852140  50.8628350  26.9870670 115.9487190  62.2028290  27.3089640
 115.5641980  61.5621960  27.9072600 116.2599380  62.9064410  27.8784370
 122.0984330  59.0504830  22.7898260 122.4654460  58.5763400  23.5359600
 121.9089390  59.9246400  23.1306600 114.9624820  53.7948520  18.9191730
 114.6771740  53.4304190  19.7570350 114.9003680  53.0628980  18.3054870
 119.8883700  58.0913470  25.1082470 119.5840770  58.9705450  25.3332830
 120.8430160  58.1513260  25.1439910 118.4165490  62.2974460  15.7049320
 117.6427750  61.7572080  15.5448040 119.1460120  61.7781070  15.3667080
 129.1753470  61.2939820  21.4975710 129.8952590  61.7895110  21.1071820
 128.9735290  60.6157710  20.8529580 124.6363410  52.6877780  15.6405100
 123.8228020  52.1890950  15.5650410 124.4425360  53.5276030  15.2241450
 124.5572270  61.3648880  27.3844710 124.4909580  60.4444550  27.1302300
 123.9277410  61.4624320  28.0989350 127.3511800  57.0597430  13.9367260
 128.2391420  57.3714660  13.7618600 127.3216890  56.1869680  13.5447840
 118.4602890  61.9654840  19.3428130 118.9781560  61.1623100  19.2885020
 118.0086910  61.9033980  20.1844960 123.3472390  63.2321120  14.6155430
 123.6888090  63.9763350  14.1198750 122.5185100  63.5452240  14.9780260
 115.9447430  58.9316210  26.2553830 115.5862370  59.5970060  26.8427170
 115.6501990  58.0999760  26.6266450 119.1460550  59.3900450  29.1393380
 118.8460690  59.5357630  28.2421200 119.9171790  58.8305740  29.0466770
 124.4889000  64.1869450  27.1348510 124.5033540  63.2550410  26.9167420
 123.7814100  64.2729210  27.7738280 129.6226070  58.3709270  13.4047120
 129.5389790  58.8023490  12.5543560 130.3420260  58.8307620  13.8373940
 130.7000210  60.8276790  26.4817090 129.9748400  61.4205570  26.2846480
 131.2275670  60.8200330  25.6830460 130.6513320  65.2251530  16.1329250
 130.0089480  64.5707150  16.4072970 130.2643980  65.6306620  15.3569920
 126.2299800  62.5536960  19.9800940 126.5823620  61.9565090  19.3202310
 125.3462130  62.2281190  20.1509190 122.3163080  63.3134650  17.3871350
 123.0034210  63.8603860  17.7678940 121.5295500  63.8575380  17.4220960
 114.4555480  58.9307470  12.8788430 115.3250330  59.2132270  13.1624350
 113.9645800  59.7443340  12.7637240 121.6190290  60.3180680  16.9996710
 122.0753070  61.1285930  17.2256900 121.2678500  60.0003820  17.8315200
 123.9222900  65.8287020  24.2289010 124.5665120  66.0346400  24.9062430
 124.2852340  65.0675420  23.7759860 117.5202070  50.6618330  17.4719230
 117.3916700  50.6536230  18.4204150 116.6964090  51.0001420  17.1210240
 125.1954980  63.8319370  22.9466460 125.8377210  63.1312530  23.0598630
 125.7204330  64.6117810  22.7663350 129.0410700  64.1167990  12.6705600
 128.8148280  63.3998430  13.2630240 128.6506900  63.8680430  11.8327350
 126.9692600  64.6314270  26.1502520 127.3048840  65.2180960  26.8280440
 126.0492940  64.5006980  26.3800310 114.8226730  68.1434850  13.4450060
 115.1824370  68.7424190  12.7907330 114.6819070  68.6894740  14.2185090
 114.5196000  52.4209450  26.9325930 113.8054520  52.6206370  27.5378540
 114.9391040  51.6449020  27.3040730 128.6226950  62.0339930  14.3319760
 128.3348650  62.4952620  15.1197640 129.4179120  61.5737700  14.6003980
 114.8068590  66.4089710  27.9192460 114.9159710  65.4684450  27.7787850
 114.1549150  66.6744460  27.2706190 122.7981180  64.6805600  29.3190580
 122.4778050  63.9614840  29.8636270 122.1239540  65.3560670  29.3926640
 120.8395350  65.5266050  14.2623730 120.8305450  66.2595740  13.6468240
 119.9193710  65.2797630  14.3550690 116.4401990  60.7480940  15.0070490
 115.8329940  61.4879840  15.0165790 116.9151340  60.8380300  14.1808690
 126.0134780  54.9131760  24.6827380 126.3815600  54.0926970  25.0106950
 125.1532980  54.9733650  25.0983030 129.3796810  53.8688700  15.4914940
 128.7509970  53.9734370  14.7773170 128.8848730  54.0885480  16.2808820
 123.8254950  65.5894290  12.9248920 123.9266930  65.3858280  11.9950900
 122.9256690  65.3352570  13.1296700 121.3480840  56.1474650  16.9072820
 120.6396990  56.6160990  17.3486430 121.6325320  55.4896660  17.5418010
 122.9736770  57.5671350  24.9065350 123.4722020  58.0417170  25.5717200
 123.1159720  56.6434870  25.1135380 125.3796270  52.8725310  18.3468610
 125.2564050  52.8911440  17.3978120 126.3280830  52.9204250  18.4667010
 122.4673060  68.1080610  17.6196590 122.7214560  68.0702000  16.6975960
 121.5185540  67.9813940  17.6124840 119.5515860  54.4559730  14.2823530
 120.4006390  54.8929880  14.2163720 119.1847130  54.7679990  15.1095590
 130.1803630  53.7839310  25.7493740 129.6777230  54.5244710  26.0887550
 130.9960290  54.1723310  25.4330530 128.4725640  59.0272490  19.1955100
 127.5315780  59.0422720  19.3702790 128.7869710  58.2408450  19.6415400
 118.4507280  60.7092090  12.7559060 119.2170550  60.5973450  13.3184490
 118.5281970  60.0130060  12.1035830 117.1454040  58.1417160  13.4391950
 117.2257630  57.1944670  13.5509350 118.0373790  58.4724040  13.5452610
 130.4751220  66.1981340  20.8709360 130.5998640  67.0212510  21.3433170
 131.3416780  65.9872070  20.5233510 117.9468750  68.2912550  20.5426490
 118.6831230  67.7428010  20.8135060 118.3309670  69.1568560  20.4032480
 114.8314230  64.3586120  16.4168000 113.9054010  64.6007260  16.4073410
 115.2970660  65.1860380  16.2952750 116.9527030  67.4758620  29.7312070
 117.7539760  67.7970670  30.1447470 116.4378850  67.1154200  30.4531980
 121.0571060  67.4642860  12.3652060 121.8499670  67.7531690  11.9133850
 120.5375410  67.0335030  11.6864540 125.7891660  63.5838490  29.6787480
 125.1829820  63.6070090  28.9383230 125.4845770  62.8521530  30.2154730
 127.2192030  67.3118780  28.2896890 128.1713780  67.2276800  28.2397130
 127.0720250  67.9760490  28.9630680 130.1101230  66.6912990  13.7888800
 129.8242740  66.2778130  12.9742980 129.9120780  67.6200700  13.6689320
 114.6724840  59.9632080  28.6748120 115.1763860  59.3839360  29.2464350
 113.9332260  60.2472310  29.2124490 121.5748460  62.6846270  12.2294410
 121.4699100  62.0698620  12.9555790 121.4072680  62.1612160  11.4457420
 121.7262780  61.3703070  28.2083640 120.9608450  61.9388070  28.1238310
 121.9078740  61.0779280  27.3151870 124.8151190  61.7466300  12.8336400
 124.2661290  62.1935600  13.4779140 125.4370450  61.2415550  13.3574070
 128.8686130  63.1008400  28.7658660 129.6095600  63.4384160  28.2626120
 128.1058810  63.2700460  28.2128430 116.7047920  58.1061670  29.5698190
 116.7453260  57.8075540  30.4783420 117.5593420  58.5069280  29.4105710
 120.4826310  60.7057220  14.7301700 120.9042730  60.5397090  15.5733090
 120.6077150  59.8957450  14.2356840 118.6453730  56.6853770  27.5372680
 118.1150190  56.1944720  26.9096020 119.3141800  57.1137970  27.0030610
 122.9953950  59.7294830  11.9778800 123.5159610  59.0143850  11.6119950
 123.6422350  60.3680700  12.2779310 127.5431790  61.1523230  27.3013870
 127.9572810  61.3068310  28.1504290 126.6082790  61.2778450  27.4639650
 128.0153960  58.4919390  29.3053020 128.5974730  57.7371710  29.2173500
 128.1915730  59.0226830  28.5284500 119.1326030  53.6516140  27.6169970
 119.0382900  53.0336890  26.8920840 118.5523420  54.3782430  27.3899880
 121.8987470  52.2089380  24.6497360 121.4504770  52.2313640  23.8042910
 121.2652670  51.8108400  25.2467660 122.3047020  61.1043710  25.2709800
 122.7235130  61.9476440  25.0986040 121.3855650  61.2415750  25.0416580
 124.6410920  58.8359890  26.6547640 124.7607130  58.2401030  27.3942480
 125.5004920  58.8729580  26.2348940 126.9798820  59.3897080  25.2310150
 126.4534040  59.9139700  24.6275290 127.3230160  60.0224470  25.8619880
 119.3785210  56.7790450  11.6759860 119.1774270  55.9157810  12.0373200
 119.2077260  56.6923810  10.7381460 120.1554440  67.4096720  26.3867530
 119.6175530  68.1342780  26.0676230 120.4088400  66.9327060  25.5964870
 121.4079690  55.3781240  27.9123460 121.9979380  55.0697090  28.6001280
 120.5899930  54.9060990  28.0683360 126.2273120  54.9947050  28.1456480
 125.5388640  54.3328590  28.0806470 126.9479140  54.5485320  28.5904940
 126.8573520  51.5898680  14.2046740 127.1375810  50.7466580  14.5606160
 126.0839250  51.8221790  14.7185490 118.1768010  53.8791070  11.6637740
 118.4793910  53.8858500  10.7556890 118.9162600  53.5288930  12.1605400
 123.0116650  68.6447930  26.6454180 122.9375350  69.5483070  26.9526550
 122.1095490  68.3259830  26.6176250 121.3952940  52.8225690  12.6493940
 121.0474940  52.1449680  12.0696390 121.5965710  52.3615200  13.4637330
 123.5601980  67.8106440  14.2680540 124.4552770  68.1491410  14.2899300
 123.5919610  67.0885850  13.6404820 117.1998140  63.1833490  12.4967540
 117.6373010  63.7263160  13.1525120 117.6845870  62.3580440  12.5063880
 114.4143940  65.9722520  19.9487800 114.7446950  65.1043580  19.7166440
 114.8434940  66.1781040  20.7792760 119.0105860  64.3031530  17.6089770
 118.7101400  64.1796500  18.5093680 118.9043350  63.4440120  17.2005500
 114.9034150  66.8393110  22.6869430 114.4665140  67.0193910  23.5193580
 115.4711830  67.5967730  22.5451150 130.5396330  66.3410110  26.9746740
 129.9398320  66.4002670  26.2310660 130.6690230  65.4015090  27.1043590
 131.7797780  64.0827930  12.3116450 130.9490740  64.1504580  12.7823680
 131.9569610  64.9732050  12.0083310 131.2354240  60.8275410  14.8150650
 131.9973150  61.3972060  14.9210340 131.2508610  60.2602610  15.5858960
 114.7358580  59.3513340  19.0458310 114.0807420  59.0824980  18.4018010
 115.5736530  59.2417820  18.5960290 132.2414210  61.6825510  19.6592580
 132.6123040  60.8992830  19.2528550 132.8816140  62.3714610  19.4809880
 129.2247970  63.0662090  25.0722900 128.4107810  63.4959250  25.3348690
 129.6322170  63.6780500  24.4591950 131.2873410  61.1209780  11.9723170
 131.5622250  62.0288660  11.8442390 131.0984150  61.0572310  12.9085160
 127.6849020  54.1454630  13.2676800 128.1033900  53.9585610  12.4273460
 127.3785080  53.2933680  13.5779730 131.1838750  59.0578770  16.9652600
 130.8082350  58.2906700  16.5333890 130.4541870  59.4401470  17.4527530
 115.7734510  59.7365910  23.5861650 116.1407550  59.6493310  24.4657670
 115.2045330  58.9732460  23.4868510 130.5738370  58.2050290  26.5992120
 130.3424460  57.9763040  25.6990070 130.8342920  59.1249840  26.5537010
 115.3250510  56.6475000  27.4920070 114.4306560  56.6141760  27.8313780
 115.8648060  56.8461790  28.2571320 129.0126440  53.4306720  29.3771820
 129.8896620  53.4390120  29.7605820 129.0247280  52.6937560  28.7664170
 113.9496660  56.5612270  14.9883640 113.0460740  56.8242470  14.8135300
 114.4337280  56.8323440  14.2083600 130.4589710  57.2836260  20.2659840
 130.9827190  56.7898910  19.6350010 131.0449130  57.4186620  21.0107410
 130.6379430  57.3676130  23.7879390 129.6882140  57.3339670  23.9024380
 130.8192440  58.2776240  23.5529160 116.4923870  55.6177810  12.8978020
 117.2015570  55.1961030  12.4125300 115.7763810  55.6853040  12.2661370
 116.1398030  51.6717140  11.9380670 116.8626160  52.2126080  12.2561890
 116.4122550  51.3980560  11.0622210 129.9489680  56.5409610  16.2052250
 130.4448800  56.3080480  16.9901130 129.7505750  55.7021450  15.7889890
 115.8290220  50.9223330  21.8403290 116.4766410  50.3720710  21.3998450
 116.2492060  51.1766480  22.6619100 131.3776840  55.1770560  18.7389930
 131.2676120  55.0226600  19.6772200 132.1384430  54.6491500  18.4965340
 129.7242560  51.1164690  25.1972930 130.3614780  51.7298830  25.5632120
 129.8717450  51.1525350  24.2522160 132.2667110  53.0078480  11.9796070
 133.1916420  52.8759660  11.7714360 132.2442900  53.0871300  12.9332520
 132.3405600  53.7789140  14.6052780 131.5457100  53.7134260  15.1345690
 132.5448880  54.7139780  14.5938130 129.2824020  67.8180690  18.5991170
 129.8783090  67.4965260  17.9225590 129.5402170  67.3452510  19.3904440
 115.5822220  51.0779000  24.5828610 115.2337040  51.5342820  25.3486790
 115.2509920  50.1836130  24.6651040 120.8892620  65.8058190  24.3491520
 120.6483980  66.0732750  23.4622040 121.8295260  65.9763920  24.4042380
 123.0947040  52.2690880  28.1048030 123.0335930  52.8612710  28.8543440
 124.0347420  52.1616840  27.9598290 125.7321600  51.9260940  27.7440320
 126.3462010  52.2440230  27.0821400 126.2771160  51.4409530  28.3636180
 132.1496780  67.8252570  25.1502160 131.6555060  68.2221440  24.4329290
 131.5410070  67.2001780  25.5439440 116.2542860  50.6055200  27.8579380
 116.8025850  50.4243250  27.0945490 116.3198170  49.8149310  28.3935690
 117.0274620  67.1960850  25.8679580 116.4334940  67.0645550  26.6069620
 117.0198460  66.3598990  25.4021680 126.4729640  50.4893080  24.0709610
 125.5989480  50.8228190  23.8682540 126.3640390  50.0166260  24.8961480
 127.3801620  52.6963950  25.4551330 127.0514980  51.8815710  25.0753060
 128.3283920  52.6533760  25.3317020 129.8336230  68.4675990  22.4288900
 129.3739200  69.2191800  22.0546920 129.2048690  67.7482460  22.3703700
 116.6586850  64.5619230  24.8187620 115.9320910  63.9424520  24.7513570
 116.7196000  64.9559840  23.9485700 120.2631950  66.7764230  21.6037030
 120.7796970  66.1651590  21.0785290 120.9129330  67.2793010  22.0948040
 123.0027450  67.6672720  22.4306010 123.2905260  67.4127020  21.5539020
 123.5150670  67.1150080  23.0211580 124.2204460  51.4062920  23.0102520
 123.4376250  51.8808420  23.2899280 123.9267390  50.5017750  22.9015700
 128.7725530  52.1086020  21.0551610 129.2133620  52.0531120  20.2073210
 128.5033120  53.0244030  21.1261790 130.6364100  51.7401260  19.0660430
 130.5752500  50.7962480  18.9191450 131.4156130  51.8481350  19.6113890
 114.9416850  67.8793620  18.0284380 114.7738890  67.2464300  18.7266270
 114.0751360  68.0853020  17.6778570 115.5644870  51.7110400  15.5316240
 116.3224230  51.8239280  14.9580270 115.1022040  52.5479600  15.4859670
 122.1058680  53.8249670  18.5218550 121.2933190  53.4506560  18.1814430
 122.6100320  53.0694750  18.8239740 126.6083660  50.4892120  19.7601620
 127.2113030  51.0612330  20.2350140 125.8676650  51.0531560  19.5375520
 129.7518260  50.8913680  15.0341900 129.9468890  51.7897130  15.3009330
 128.9648130  50.6600760  15.5274850 116.5479550  66.5726850  15.4734520
 116.0227170  66.9534880  14.7696480 116.4724130  67.1977620  16.1944230
 117.9370020  52.2374450  14.0718210 118.4662780  51.4504250  13.9426160
 118.5698340  52.9165640  14.3053740 120.1307860  51.9749590  17.1263600
 119.5010600  51.2736900  17.2933730 119.5913000  52.7353720  16.9096760
 123.0699810  68.5888820  29.7974210 123.9967120  68.3533090  29.8410170
 123.0550240  69.4160820  29.3160240 131.3044870  68.1314390  16.7948460
 131.4797060  67.4452130  16.1509380 130.6066440  68.6561440  16.4025130
 120.2563420  51.2533570  29.5616090 119.9747690  51.7567170  28.7976910
 120.6383120  50.4555320  29.1958220 119.1472520  68.5209230  14.3483770
 119.8791340  68.2368510  13.8007660 119.4066190  68.2822510  15.2383150
 118.3087310  64.6373960  14.3530100 117.6796190  65.1059060  14.9015930
 118.4235140  63.7923180  14.7876290 126.8578880  50.6687150  30.1396560
 126.7444330  50.9881760  31.0348080 127.6748620  51.0699660  29.8433840
 129.6377370  67.8158680  29.6215250 130.4302690  67.3207910  29.4141210
 129.9310520  68.4948820  30.2290860 123.8955070  60.4658640   2.3840570
 123.1197170  59.9859080   2.6739140 124.5468000  59.7864290   2.2096730
 117.9120900  60.7778450   3.2616330 117.0805780  60.5227160   3.6612840
 118.5201880  60.8489220   3.9974250 117.8922160  64.8118540   3.4574350
 118.1950200  63.9216280   3.2784570 118.6365750  65.3688760   3.2296600
 114.2845860  58.3385990   2.9298420 114.8561970  57.5708190   2.9302060
 114.2847400  58.6374750   2.0205030 123.3364060  63.1415830   2.3910730
 123.2672340  62.2005770   2.2299860 124.0983920  63.2317240   2.9633300
 115.5270730  53.7470350   4.7167350 115.3473570  52.8496100   4.9970110
 115.1250810  54.2942220   5.3914300 124.3669230  55.9486210   2.6179660
 124.7434050  55.0758090   2.5053330 124.2688740  56.2844910   1.7270100
 116.1457400  56.2430850   3.3249690 116.8267510  56.5069220   3.9437090
 115.8305450  55.4031720   3.6587700 120.3381970  57.2898210   2.4122280
 120.8460190  57.7879180   3.0527300 120.8695210  56.5133410   2.2361640
 132.4392900  55.4603400   6.1151630 131.7345070  55.8485110   5.5966740
 132.7050820  56.1553690   6.7172560 118.6218070  51.9296770   6.6785700
 118.6236510  52.4469160   5.8731600 117.7922380  51.4526950   6.6555630
 119.8720920  61.5691950   4.8559200 119.5390300  62.1960870   5.4980270
 120.0487600  62.0953830   4.0760870 128.3854830  55.3837030   2.3235540
 127.6810400  55.6721920   2.9038650 128.7466990  56.1937140   1.9635100
 118.3033400  53.6406730   4.6856150 118.6450210  54.4848780   4.3910020
 117.3649210  53.7890470   4.8021490 119.0840020  63.5372750   6.6708380
 119.7014020  64.2123830   6.3892830 118.2233140  63.9460730   6.5795880
 130.0017610  65.0012160   4.5863020 129.3181130  65.6711270   4.5779690
 130.5411900  65.1992810   3.8207880 131.4541750  54.8291820   2.7144750
 130.5066660  54.8630800   2.8460180 131.7791740  55.6430770   3.0994110
 127.5376350  66.8456290   3.3008200 127.5503510  66.4418580   2.4330460
 126.9851570  67.6203580   3.1969630 126.9361790  61.7486130   4.6290810
 127.3530580  61.5346240   3.7944270 127.6601610  62.0058920   5.1999430
 130.8823890  60.1473350   4.7207050 130.0542520  60.2166440   4.2457180
 131.4774370  60.7327660   4.2522880 127.8465900  56.9342670   5.6661920
 127.4337080  57.7596380   5.9201910 127.1141850  56.3487710   5.4738280
 120.4480390  63.4070130   2.6919800 120.1508680  62.8015600   2.0127580
 121.3980210  63.4447440   2.5809160 118.6927310  56.4945780   4.3079630
 119.2441900  56.6041120   3.5332880 119.2070820  56.8683380   5.0234860
 128.5366000  66.9802000   6.3542900 128.0596560  67.7874190   6.1615510
 127.8527790  66.3280330   6.5069110 119.5398820  63.1451820   9.3427600
 118.6427350  63.3691790   9.5901000 119.5651690  63.2686760   8.3939000
 118.3670040  60.0165140   7.9184970 118.2277810  60.8887940   8.2872370
 117.4851400  59.6737950   7.7732910 120.1650390  65.9586840  10.1270120
 120.1365820  66.3629790   9.2598550 120.0015360  65.0297200   9.9641720
 132.1165210  66.7413940  11.4234290 132.5924930  67.2196830  12.1023370
 132.7372370  66.6731430  10.6979790 114.3188690  61.7862690   3.8355880
 114.3969110  61.9211460   2.8911600 114.9330370  61.0778580   4.0284000
 131.5198460  63.9326790   8.5834300 131.6461520  63.6938670   7.6651480
 131.5619840  63.1011330   9.0556380 125.3815200  67.6354790   7.1529110
 125.8959870  67.5462800   7.9551540 124.5384280  67.9814490   7.4457020
 131.3722470  55.9859250   9.5484040 130.7566740  56.4938920   9.0199500
 131.0518890  55.0857580   9.4909980 114.3748210  62.8276860   6.3750340
 114.5379250  62.3582220   5.5569710 114.8400660  62.3200420   7.0399180
 123.4336790  54.8251140   7.0146230 122.9716160  55.0334160   7.8266170
 123.0314900  54.0110490   6.7116900 128.4341300  56.0460090   8.1442890
 127.5834890  55.7465840   8.4651960 128.2743090  56.2902100   7.2326710
 125.5291010  57.5461840  10.2441680 125.8544420  56.7125590   9.9043910
 126.3171340  58.0690360  10.3920010 121.1842880  52.5029950   3.2700510
 121.4815210  53.4092780   3.1892530 121.7328440  52.0148730   2.6560080
 121.3780410  57.9801770   9.8052430 121.2824010  57.0396500   9.6552830
 122.2212390  58.2016840   9.4100500 116.5090950  54.3915440   7.9586210
 116.1154340  55.2390650   8.1658990 115.8209350  53.7541810   8.1494850
 123.0836000  54.4750410  11.0282950 122.3934320  54.2822610  11.6629040
 123.8268300  54.7585050  11.5607250 113.8108000  52.3143900   1.9916290
 113.5221050  52.8846760   2.7041270 114.5553760  51.8348350   2.3547520
 125.3598970  58.3148850   3.8636870 124.6280090  58.8235660   4.2126970
 124.9623310  57.4978830   3.5625650 121.7976360  54.9903050   2.2689360
 121.8012420  54.5493000   1.4193900 122.6927480  55.3120380   2.3761180
 125.8224880  53.7682530   3.2759810 125.8397620  54.2191180   4.1201660
 125.5740460  52.8688170   3.4893250 129.2495630  51.1814710   9.1146190
 129.5741400  50.4504370   9.6404170 129.2852140  50.8628350   8.2127180
 115.9487190  62.2028290   8.5346150 115.5641980  61.5621960   9.1329110
 116.2599380  62.9064410   9.1040880 122.0984330  59.0504830   4.0154770
 122.4654460  58.5763400   4.7616110 121.9089390  59.9246400   4.3563110
 119.8883700  58.0913470   6.3338980 119.5840770  58.9705450   6.5589340
 120.8430160  58.1513260   6.3696420 129.1753470  61.2939820   2.7232220
 129.8952590  61.7895110   2.3328330 128.9735290  60.6157710   2.0786090
 124.5572270  61.3648880   8.6101220 124.4909580  60.4444550   8.3558810
 123.9277410  61.4624320   9.3245860 115.9447430  58.9316210   7.4810340
 115.5862370  59.5970060   8.0683680 115.6501990  58.0999760   7.8522960
 119.1460550  59.3900450  10.3649890 118.8460690  59.5357630   9.4677710
 119.9171790  58.8305740  10.2723280 124.4889000  64.1869450   8.3605020
 124.5033540  63.2550410   8.1423930 123.7814100  64.2729210   8.9994790
 130.7000210  60.8276790   7.7073600 129.9748400  61.4205570   7.5102990
 131.2275670  60.8200330   6.9086970 123.9222900  65.8287020   5.4545520
 124.5665120  66.0346400   6.1318940 124.2852340  65.0675420   5.0016370
 125.1954980  63.8319370   4.1722970 125.8377210  63.1312530   4.2855140
 125.7204330  64.6117810   3.9919860 126.9692600  64.6314270   7.3759030
 127.3048840  65.2180960   8.0536950 126.0492940  64.5006980   7.6056820
 114.5196000  52.4209450   8.1582440 113.8054520  52.6206370   8.7635050
 114.9391040  51.6449020   8.5297240 114.8068590  66.4089710   9.1448970
 114.9159710  65.4684450   9.0044360 114.1549150  66.6744460   8.4962700
 122.7981180  64.6805600  10.5447090 122.4778050  63.9614840  11.0892780
 122.1239540  65.3560670  10.6183150 126.0134780  54.9131760   5.9083890
 126.3815600  54.0926970   6.2363460 125.1532980  54.9733650   6.3239540
 122.9736770  57.5671350   6.1321860 123.4722020  58.0417170   6.7973710
 123.1159720  56.6434870   6.3391890 130.1803630  53.7839310   6.9750250
 129.6777230  54.5244710   7.3144060 130.9960290  54.1723310   6.6587040
 130.4751220  66.1981340   2.0965870 130.5998640  67.0212510   2.5689680
 131.3416780  65.9872070   1.7490020 117.9468750  68.2912550   1.7683000
 118.6831230  67.7428010   2.0391570 118.3309670  69.1568560   1.6288990
 116.9527030  67.4758620  10.9568580 117.7539760  67.7970670  11.3703980
 116.4378850  67.1154200  11.6788490 125.7891660  63.5838490  10.9043990
 125.1829820  63.6070090  10.1639740 125.4845770  62.8521530  11.4411240
 127.2192030  67.3118780   9.5153400 128.1713780  67.2276800   9.4653640
 127.0720250  67.9760490  10.1887190 114.6724840  59.9632080   9.9004630
 115.1763860  59.3839360  10.4720860 113.9332260  60.2472310  10.4381000
 121.7262780  61.3703070   9.4340150 120.9608450  61.9388070   9.3494820
 121.9078740  61.0779280   8.5408380 128.8686130  63.1008400   9.9915170
 129.6095600  63.4384160   9.4882630 128.1058810  63.2700460   9.4384940
 116.7047920  58.1061670  10.7954700 116.7453260  57.8075540  11.7039930
 117.5593420  58.5069280  10.6362220 118.6453730  56.6853770   8.7629190
 118.1150190  56.1944720   8.1352530 119.3141800  57.1137970   8.2287120
 127.5431790  61.1523230   8.5270380 127.9572810  61.3068310   9.3760800
 126.6082790  61.2778450   8.6896160 128.0153960  58.4919390  10.5309530
 128.5974730  57.7371710  10.4430010 128.1915730  59.0226830   9.7541010
 119.1326030  53.6516140   8.8426480 119.0382900  53.0336890   8.1177350
 118.5523420  54.3782430   8.6156390 121.8987470  52.2089380   5.8753870
 121.4504770  52.2313640   5.0299420 121.2652670  51.8108400   6.4724170
 122.3047020  61.1043710   6.4966310 122.7235130  61.9476440   6.3242550
 121.3855650  61.2415750   6.2673090 124.6410920  58.8359890   7.8804150
 124.7607130  58.2401030   8.6198990 125.5004920  58.8729580   7.4605450
 126.9798820  59.3897080   6.4566660 126.4534040  59.9139700   5.8531800
 127.3230160  60.0224470   7.0876390 120.1554440  67.4096720   7.6124040
 119.6175530  68.1342780   7.2932740 120.4088400  66.9327060   6.8221380
 121.4079690  55.3781240   9.1379970 121.9979380  55.0697090   9.8257790
 120.5899930  54.9060990   9.2939870 126.2273120  54.9947050   9.3712990
 125.5388640  54.3328590   9.3062980 126.9479140  54.5485320   9.8161450
 123.0116650  68.6447930   7.8710690 122.9375350  69.5483070   8.1783060
 122.1095490  68.3259830   7.8432760 114.9034150  66.8393110   3.9125940
 114.4665140  67.0193910   4.7450090 115.4711830  67.5967730   3.7707660
 130.5396330  66.3410110   8.2003250 129.9398320  66.4002670   7.4567170
 130.6690230  65.4015090   8.3300100 129.2247970  63.0662090   6.2979410
 128.4107810  63.4959250   6.5605200 129.6322170  63.6780500   5.6848460
 115.7734510  59.7365910   4.8118160 116.1407550  59.6493310   5.6914180
 115.2045330  58.9732460   4.7125020 130.5738370  58.2050290   7.8248630
 130.3424460  57.9763040   6.9246580 130.8342920  59.1249840   7.7793520
 115.3250510  56.6475000   8.7176580 114.4306560  56.6141760   9.0570290
 115.8648060  56.8461790   9.4827830 129.0126440  53.4306720  10.6028330
 129.8896620  53.4390120  10.9862330 129.0247280  52.6937560   9.9920680
 130.6379430  57.3676130   5.0135900 129.6882140  57.3339670   5.1280890
 130.8192440  58.2776240   4.7785670 115.8290220  50.9223330   3.0659800
 116.4766410  50.3720710   2.6254960 116.2492060  51.1766480   3.8875610
 129.7242560  51.1164690   6.4229440 130.3614780  51.7298830   6.7888630
 129.8717450  51.1525350   5.4778670 115.5822220  51.0779000   5.8085120
 115.2337040  51.5342820   6.5743300 115.2509920  50.1836130   5.8907550
 117.1886590  64.2498600   9.9738310 117.1456220  63.8791510  10.8552770
 117.3197600  65.1876170  10.1140130 120.8892620  65.8058190   5.5748030
 120.6483980  66.0732750   4.6878550 121.8295260  65.9763920   5.6298890
 123.0947040  52.2690880   9.3304540 123.0335930  52.8612710  10.0799950
 124.0347420  52.1616840   9.1854800 125.7321600  51.9260940   8.9696830
 126.3462010  52.2440230   8.3077910 126.2771160  51.4409530   9.5892690
 132.1496780  67.8252570   6.3758670 131.6555060  68.2221440   5.6585800
 131.5410070  67.2001780   6.7695950 116.2542860  50.6055200   9.0835890
 116.8025850  50.4243250   8.3202000 116.3198170  49.8149310   9.6192200
 117.0274620  67.1960850   7.0936090 116.4334940  67.0645550   7.8326130
 117.0198460  66.3598990   6.6278190 126.4729640  50.4893080   5.2966120
 125.5989480  50.8228190   5.0939050 126.3640390  50.0166260   6.1217990
 127.3801620  52.6963950   6.6807840 127.0514980  51.8815710   6.3009570
 128.3283920  52.6533760   6.5573530 129.8336230  68.4675990   3.6545410
 129.3739200  69.2191800   3.2803430 129.2048690  67.7482460   3.5960210
 116.6586850  64.5619230   6.0444130 115.9320910  63.9424520   5.9770080
 116.7196000  64.9559840   5.1742210 120.2631950  66.7764230   2.8293540
 120.7796970  66.1651590   2.3041800 120.9129330  67.2793010   3.3204550
 123.0027450  67.6672720   3.6562520 123.2905260  67.4127020   2.7795530
 123.5150670  67.1150080   4.2468090 124.2204460  51.4062920   4.2359030
 123.4376250  51.8808420   4.5155790 123.9267390  50.5017750   4.1272210
 128.7725530  52.1086020   2.2808120 129.2133620  52.0531120   1.4329720
 128.5033120  53.0244030   2.3518300 123.0699810  68.5888820  11.0230720
 123.9967120  68.3533090  11.0666680 123.0550240  69.4160820  10.5416750
 120.2563420  51.2533570  10.7872600 119.9747690  51.7567170  10.0233420
 120.6383120  50.4555320  10.4214730 126.8578880  50.6687150  11.3653070
 126.7444330  50.9881760  12.2604590 127.6748620  51.0699660  11.0690350
 129.6377370  67.8158680  10.8471760 130.4302690  67.3207910  10.6397720
 129.9310520  68.4948820  11.4547370 125.7637030  39.9136130 150.6979220
 125.6831080  38.9990740 150.4270930 125.3501450  40.4103200 149.9918930
 123.8955070  41.6915150 152.5788490 123.1197170  41.2115590 152.8687060
 124.5468000  41.0120800 152.4044650 127.9162500  46.0975340 151.3587620
 127.4544030  45.3262580 151.6874790 128.7288050  46.1241410 151.8640070
 116.3212850  36.9636850 147.2406640 115.4329550  37.3052820 147.1386520
 116.6054040  36.7637170 146.3487470 114.2845860  39.5642500 153.1246340
 114.8561970  38.7964700 153.1249980 114.2847400  39.8631260 152.2152950
 124.1425810  48.3833350 150.9791610 123.5237250  48.8390850 150.4086050
 124.9977590  48.5384810 150.5781310 123.3364060  44.3672340 152.5858650
 123.2672340  43.4262280 152.4247780 124.0983920  44.4573750 153.1581220
 124.3669230  37.1742720 152.8127580 124.7434050  36.3014600 152.7001250
 124.2688740  37.5101420 151.9218020 118.4974240  35.5468350 148.2745020
 118.6040990  36.4472080 148.5813780 117.5866600  35.4986320 147.9839670
 128.1493350  34.6693160 149.7455920 128.9702970  34.1789730 149.7881400
 128.1827430  35.2590820 150.4987760 125.0089160  43.2672590 148.3723520
 124.3906430  43.7322040 147.8086240 125.5212410  43.9600070 148.7893030
 128.3854830  36.6093540 152.5183460 127.6810400  36.8978430 153.0986570
 128.7466990  37.4193650 152.1583020 114.3772360  43.9529120 145.7463150
 114.0000340  44.4416220 145.0148050 114.6345430  44.6254400 146.3769680
 121.9861290  32.3545510 151.2048660 122.2936270  31.7992400 150.4884160
 121.0561990  32.4889970 151.0221650 128.8321770  44.7929020 148.5846290
 128.7218100  43.8503350 148.7095710 128.8290020  45.1544660 149.4709050
 124.3742050  40.4194340 147.9408780 123.4471330  40.3531720 148.1697250
 124.5266870  41.3574470 147.8264020 124.3611130  36.6911340 144.9375940
 123.4214800  36.8525300 145.0228400 124.6794390  37.4097020 144.3911930
 128.4039340  41.9814640 148.4444030 127.7851760  41.6434190 147.7970330
 128.3863790  41.3374400 149.1523220 119.9798690  40.9459080 150.7228510
 119.5755690  40.2336330 150.2274410 120.0661810  40.6012320 151.6116550
 120.4480390  44.6326640 152.8867720 120.1508680  44.0272110 152.2075500
 121.3980210  44.6703950 152.7757080 126.5804040  41.2201450 145.4516780
 127.0197320  40.3823880 145.3054600 127.2932460  41.8530850 145.5380920
 124.6899420  46.1597520 149.4198020 125.1295330  46.9021850 149.0053410
 124.6286310  46.4024090 150.3436980 130.1621180  32.4744260 143.7657820
 129.8493840  32.5671090 144.6656890 130.9233650  33.0525290 143.7155250
 116.6803320  39.8404060 148.2235160 116.5600920  40.5666150 147.6116430
 116.3704210  39.0706970 147.7463070 115.5636320  44.7119390 150.4409980
 115.1564400  44.8533980 149.5863580 116.4549330  44.4279550 150.2381190
 127.3569600  49.1466640 146.7761030 127.1970740  48.8569580 147.6742860
 127.1916310  48.3706770 146.2406260 119.8357980  48.9265170 148.5532650
 119.6600460  48.0100710 148.3400450 118.9813720  49.2852460 148.7930450
 127.0595730  46.6554200 145.3359030 126.3660890  46.6531490 144.6761310
 127.8018590  46.2313520 144.9053200 126.6245660  48.2816910 149.4107520
 127.0802610  47.5006290 149.7246140 126.9638180  48.9923730 149.9548700
 119.1466980  33.1839130 151.6058830 118.7035130  33.9648670 151.2743350
 119.7051970  33.5069020 152.3129770 122.2625800  32.8049830 146.4864660
 121.6379980  32.8009700 147.2117970 122.1755920  31.9380790 146.0900630
 118.9381200  38.3072700 149.3340080 118.7122120  38.0909870 150.2386700
 118.1573730  38.7401160 148.9886050 126.1678960  38.3136070 147.9330730
 125.5687850  39.0371870 147.7494350 126.7158570  38.2512850 147.1507180
 124.7743830  36.9499610 149.9634010 125.1673400  37.2671810 149.1502700
 125.1360680  36.0711490 150.0778530 113.8108000  33.5400410 152.1864210
 113.5221050  34.1103270 152.8989190 114.5553760  33.0604860 152.5495440
 113.9978230  37.4820530 143.3966930 113.9152900  38.4251290 143.5381920
 113.6461290  37.3395440 142.5179280 121.7976360  36.2159560 152.4637280
 121.8012420  35.7749510 151.6141820 122.6927480  36.5376890 152.5709100
 117.6478740  36.0986050 151.4231490 117.3078790  36.5761280 152.1798540
 116.8856060  35.6451170 151.0632590 121.8596510  37.2171640 145.4544040
 121.9809330  37.1758120 146.4029860 121.4745020  38.0795790 145.2990770
 120.8718010  39.5272780 144.8527340 120.3034910  39.0791030 144.2263250
 121.5807010  39.8865560 144.3192490 114.9624820  35.0205030 150.3396160
 114.6771740  34.6560700 151.1774780 114.9003680  34.2885490 149.7259300
 118.4165490  43.5230970 147.1253750 117.6427750  42.9828590 146.9652470
 119.1460120  43.0037580 146.7871510 129.1753470  42.5196330 152.9180140
 129.8952590  43.0151620 152.5276250 128.9735290  41.8414220 152.2734010
 124.6363410  33.9134290 147.0609530 123.8228020  33.4147460 146.9854840
 124.4425360  34.7532540 146.6445880 127.3511800  38.2853940 145.3571690
 128.2391420  38.5971170 145.1823030 127.3216890  37.4126190 144.9652270
 118.4602890  43.1911350 150.7632560 118.9781560  42.3879610 150.7089450
 118.0086910  43.1290490 151.6049390 123.3472390  44.4577630 146.0359860
 123.6888090  45.2019860 145.5403180 122.5185100  44.7708750 146.3984690
 129.6226070  39.5965780 144.8251550 129.5389790  40.0280000 143.9747990
 130.3420260  40.0564130 145.2578370 130.6513320  46.4508040 147.5533680
 130.0089480  45.7963660 147.8277400 130.2643980  46.8563130 146.7774350
 126.2299800  43.7793470 151.4005370 126.5823620  43.1821600 150.7406740
 125.3462130  43.4537700 151.5713620 122.3163080  44.5391160 148.8075780
 123.0034210  45.0860370 149.1883370 121.5295500  45.0831890 148.8425390
 114.4555480  40.1563980 144.2992860 115.3250330  40.4388780 144.5828780
 113.9645800  40.9699850 144.1841670 121.6190290  41.5437190 148.4201140
 122.0753070  42.3542440 148.6461330 121.2678500  41.2260330 149.2519630
 117.5202070  31.8874840 148.8923660 117.3916700  31.8792740 149.8408580
 116.6964090  32.2257930 148.5414670 129.0410700  45.3424500 144.0910030
 128.8148280  44.6254940 144.6834670 128.6506900  45.0936940 143.2531780
 114.8226730  49.3691360 144.8654490 115.1824370  49.9680700 144.2111760
 114.6819070  49.9151250 145.6389520 128.6226950  43.2596440 145.7524190
 128.3348650  43.7209130 146.5402070 129.4179120  42.7994210 146.0208410
 120.8395350  46.7522560 145.6828160 120.8305450  47.4852250 145.0672670
 119.9193710  46.5054140 145.7755120 116.4401990  41.9737450 146.4274920
 115.8329940  42.7136350 146.4370220 116.9151340  42.0636810 145.6013120
 129.3796810  35.0945210 146.9119370 128.7509970  35.1990880 146.1977600
 128.8848730  35.3141990 147.7013250 123.8254950  46.8150800 144.3453350
 123.9266930  46.6114790 143.4155330 122.9256690  46.5609080 144.5501130
 121.3480840  37.3731160 148.3277250 120.6396990  37.8417500 148.7690860
 121.6325320  36.7153170 148.9622440 125.3796270  34.0981820 149.7673040
 125.2564050  34.1167950 148.8182550 126.3280830  34.1460760 149.8871440
 122.4673060  49.3337120 149.0401020 122.7214560  49.2958510 148.1180390
 121.5185540  49.2070450 149.0329270 119.5515860  35.6816240 145.7027960
 120.4006390  36.1186390 145.6368150 119.1847130  35.9936500 146.5300020
 128.4725640  40.2529000 150.6159530 127.5315780  40.2679230 150.7907220
 128.7869710  39.4664960 151.0619830 118.4507280  41.9348600 144.1763490
 119.2170550  41.8229960 144.7388920 118.5281970  41.2386570 143.5240260
 117.1454040  39.3673670 144.8596380 117.2257630  38.4201180 144.9713780
 118.0373790  39.6980550 144.9657040 130.4751220  47.4237850 152.2913790
 130.5998640  48.2469020 152.7637600 131.3416780  47.2128580 151.9437940
 117.9468750  49.5169060 151.9630920 118.6831230  48.9684520 152.2339490
 118.3309670  50.3825070 151.8236910 114.8314230  45.5842630 147.8372430
 113.9054010  45.8263770 147.8277840 115.2970660  46.4116890 147.7157180
 121.0571060  48.6899370 143.7856490 121.8499670  48.9788200 143.3338280
 120.5375410  48.2591540 143.1068970 130.1101230  47.9169500 145.2093230
 129.8242740  47.5034640 144.3947410 129.9120780  48.8457210 145.0893750
 121.5748460  43.9102780 143.6498840 121.4699100  43.2955130 144.3760220
 121.4072680  43.3868670 142.8661850 124.8151190  42.9722810 144.2540830
 124.2661290  43.4192110 144.8983570 125.4370450  42.4672060 144.7778500
 120.4826310  41.9313730 146.1506130 120.9042730  41.7653600 146.9937520
 120.6077150  41.1213960 145.6561270 122.9953950  40.9551340 143.3983230
 123.5159610  40.2400360 143.0324380 123.6422350  41.5937210 143.6983740
 119.3785210  38.0046960 143.0964290 119.1774270  37.1414320 143.4577630
 119.2077260  37.9180320 142.1585890 126.8573520  32.8155190 145.6251170
 127.1375810  31.9723090 145.9810590 126.0839250  33.0478300 146.1389920
 118.1768010  35.1047580 143.0842170 118.4793910  35.1115010 142.1761320
 118.9162600  34.7545440 143.5809830 121.3952940  34.0482200 144.0698370
 121.0474940  33.3706190 143.4900820 121.5965710  33.5871710 144.8841760
 123.5601980  49.0362950 145.6884970 124.4552770  49.3747920 145.7103730
 123.5919610  48.3142360 145.0609250 117.1998140  44.4090000 143.9171970
 117.6373010  44.9519670 144.5729550 117.6845870  43.5836950 143.9268310
 114.4143940  47.1979030 151.3692230 114.7446950  46.3300090 151.1370870
 114.8434940  47.4037550 152.1997190 119.0105860  45.5288040 149.0294200
 118.7101400  45.4053010 149.9298110 118.9043350  44.6696630 148.6209930
 131.7797780  45.3084440 143.7320880 130.9490740  45.3761090 144.2028110
 131.9569610  46.1988560 143.4287740 131.2354240  42.0531920 146.2355080
 131.9973150  42.6228570 146.3414770 131.2508610  41.4859120 147.0063390
 114.7358580  40.5769850 150.4662740 114.0807420  40.3081490 149.8222440
 115.5736530  40.4674330 150.0164720 132.2414210  42.9082020 151.0797010
 132.6123040  42.1249340 150.6732980 132.8816140  43.5971120 150.9014310
 131.2873410  42.3466290 143.3927600 131.5622250  43.2545170 143.2646820
 131.0984150  42.2828820 144.3289590 127.6849020  35.3711140 144.6881230
 128.1033900  35.1842120 143.8477890 127.3785080  34.5190190 144.9984160
 131.1838750  40.2835280 148.3857030 130.8082350  39.5163210 147.9538320
 130.4541870  40.6657980 148.8731960 113.9496660  37.7868780 146.4088070
 113.0460740  38.0498980 146.2339730 114.4337280  38.0579950 145.6288030
 130.4589710  38.5092770 151.6864270 130.9827190  38.0155420 151.0554440
 131.0449130  38.6443130 152.4311840 116.4923870  36.8434320 144.3182450
 117.2015570  36.4217540 143.8329730 115.7763810  36.9109550 143.6865800
 116.1398030  32.8973650 143.3585100 116.8626160  33.4382590 143.6766320
 116.4122550  32.6237070 142.4826640 129.9489680  37.7666120 147.6256680
 130.4448800  37.5336990 148.4105560 129.7505750  36.9277960 147.2094320
 131.3776840  36.4027070 150.1594360 131.2676120  36.2483110 151.0976630
 132.1384430  35.8748010 149.9169770 132.2667110  34.2334990 143.4000500
 133.1916420  34.1016170 143.1918790 132.2442900  34.3127810 144.3536950
 132.3405600  35.0045650 146.0257210 131.5457100  34.9390770 146.5550120
 132.5448880  35.9396290 146.0142560 129.2824020  49.0437200 150.0195600
 129.8783090  48.7221770 149.3430020 129.5402170  48.5709020 150.8108870
 128.7725530  33.3342530 152.4756040 129.2133620  33.2787630 151.6277640
 128.5033120  34.2500540 152.5466220 130.6364100  32.9657770 150.4864860
 130.5752500  32.0218990 150.3395880 131.4156130  33.0737860 151.0318320
 114.9416850  49.1050130 149.4488810 114.7738890  48.4720810 150.1470700
 114.0751360  49.3109530 149.0983000 115.5644870  32.9366910 146.9520670
 116.3224230  33.0495790 146.3784700 115.1022040  33.7736110 146.9064100
 122.1058680  35.0506180 149.9422980 121.2933190  34.6763070 149.6018860
 122.6100320  34.2951260 150.2444170 126.6083660  31.7148630 151.1806050
 127.2113030  32.2868840 151.6554570 125.8676650  32.2788070 150.9579950
 129.7518260  32.1170190 146.4546330 129.9468890  33.0153640 146.7213760
 128.9648130  31.8857270 146.9479280 116.5479550  47.7983360 146.8938950
 116.0227170  48.1791390 146.1900910 116.4724130  48.4234130 147.6148660
 117.9370020  33.4630960 145.4922640 118.4662780  32.6760760 145.3630590
 118.5698340  34.1422150 145.7258170 120.1307860  33.2006100 148.5468030
 119.5010600  32.4993410 148.7138160 119.5913000  33.9610230 148.3301190
 131.3044870  49.3570900 148.2152890 131.4797060  48.6708640 147.5713810
 130.6066440  49.8817950 147.8229560 119.1472520  49.7465740 145.7688200
 119.8791340  49.4625020 145.2212090 119.4066190  49.5079020 146.6587580
 118.3087310  45.8630470 145.7734530 117.6796190  46.3315570 146.3220360
 118.4235140  45.0179690 146.2080720 125.7637030  39.9136130 131.9235730
 125.6831080  38.9990740 131.6527440 125.3501450  40.4103200 131.2175440
 123.8955070  41.6915150 133.8045000 123.1197170  41.2115590 134.0943570
 124.5468000  41.0120800 133.6301160 117.9120900  42.0034960 134.6820760
 117.0805780  41.7483670 135.0817270 118.5201880  42.0745730 135.4178680
 127.9162500  46.0975340 132.5844130 127.4544030  45.3262580 132.9131300
 128.7288050  46.1241410 133.0896580 117.8922160  46.0375050 134.8778780
 118.1950200  45.1472790 134.6989000 118.6365750  46.5945270 134.6501030
 116.3212850  36.9636850 128.4663150 115.4329550  37.3052820 128.3643030
 116.6054040  36.7637170 127.5743980 114.2845860  39.5642500 134.3502850
 114.8561970  38.7964700 134.3506490 114.2847400  39.8631260 133.4409460
 124.1425810  48.3833350 132.2048120 123.5237250  48.8390850 131.6342560
 124.9977590  48.5384810 131.8037820 123.3364060  44.3672340 133.8115160
 123.2672340  43.4262280 133.6504290 124.0983920  44.4573750 134.3837730
 115.5270730  34.9726860 136.1371780 115.3473570  34.0752610 136.4174540
 115.1250810  35.5198730 136.8118730 124.3669230  37.1742720 134.0384090
 124.7434050  36.3014600 133.9257760 124.2688740  37.5101420 133.1474530
 118.4974240  35.5468350 129.5001530 118.6040990  36.4472080 129.8070290
 117.5866600  35.4986320 129.2096180 128.1493350  34.6693160 130.9712430
 128.9702970  34.1789730 131.0137910 128.1827430  35.2590820 131.7244270
 116.1457400  37.4687360 134.7454120 116.8267510  37.7325730 135.3641520
 115.8305450  36.6288230 135.0792130 120.3381970  38.5154720 133.8326710
 120.8460190  39.0135690 134.4731730 120.8695210  37.7389920 133.6566070
 132.4392900  36.6859910 137.5356060 131.7345070  37.0741620 137.0171170
 132.7050820  37.3810200 138.1376990 118.6218070  33.1553280 138.0990130
 118.6236510  33.6725670 137.2936030 117.7922380  32.6783460 138.0760060
 125.0089160  43.2672590 129.5980030 124.3906430  43.7322040 129.0342750
 125.5212410  43.9600070 130.0149540 119.8720920  42.7948460 136.2763630
 119.5390300  43.4217380 136.9184700 120.0487600  43.3210340 135.4965300
 128.3854830  36.6093540 133.7439970 127.6810400  36.8978430 134.3243080
 128.7466990  37.4193650 133.3839530 118.3033400  34.8663240 136.1060580
 118.6450210  35.7105290 135.8114450 117.3649210  35.0146980 136.2225920
 119.0840020  44.7629260 138.0912810 119.7014020  45.4380340 137.8097260
 118.2233140  45.1717240 138.0000310 114.3772360  43.9529120 126.9719660
 114.0000340  44.4416220 126.2404560 114.6345430  44.6254400 127.6026190
 130.0017610  46.2268670 136.0067450 129.3181130  46.8967780 135.9984120
 130.5411900  46.4249320 135.2412310 131.4541750  36.0548330 134.1349180
 130.5066660  36.0887310 134.2664610 131.7791740  36.8687280 134.5198540
 121.9861290  32.3545510 132.4305170 122.2936270  31.7992400 131.7140670
 121.0561990  32.4889970 132.2478160 127.5376350  48.0712800 134.7212630
 127.5503510  47.6675090 133.8534890 126.9851570  48.8460090 134.6174060
 128.8321770  44.7929020 129.8102800 128.7218100  43.8503350 129.9352220
 128.8290020  45.1544660 130.6965560 126.9361790  42.9742640 136.0495240
 127.3530580  42.7602750 135.2148700 127.6601610  43.2315430 136.6203860
 124.3742050  40.4194340 129.1665290 123.4471330  40.3531720 129.3953760
 124.5266870  41.3574470 129.0520530 124.3611130  36.6911340 126.1632450
 123.4214800  36.8525300 126.2484910 124.6794390  37.4097020 125.6168440
 130.8823890  41.3729860 136.1411480 130.0542520  41.4422950 135.6661610
 131.4774370  41.9584170 135.6727310 128.4039340  41.9814640 129.6700540
 127.7851760  41.6434190 129.0226840 128.3863790  41.3374400 130.3779730
 127.8465900  38.1599180 137.0866350 127.4337080  38.9852890 137.3406340
 127.1141850  37.5744220 136.8942710 119.9798690  40.9459080 131.9485020
 119.5755690  40.2336330 131.4530920 120.0661810  40.6012320 132.8373060
 120.4480390  44.6326640 134.1124230 120.1508680  44.0272110 133.4332010
 121.3980210  44.6703950 134.0013590 118.6927310  37.7202290 135.7284060
 119.2441900  37.8297630 134.9537310 119.2070820  38.0939890 136.4439290
 128.5366000  48.2058510 137.7747330 128.0596560  49.0130700 137.5819940
 127.8527790  47.5536840 137.9273540 119.5398820  44.3708330 140.7632030
 118.6427350  44.5948300 141.0105430 119.5651690  44.4943270 139.8143430
 126.5804040  41.2201450 126.6773290 127.0197320  40.3823880 126.5311110
 127.2932460  41.8530850 126.7637430 118.3670040  41.2421650 139.3389400
 118.2277810  42.1144450 139.7076800 117.4851400  40.8994460 139.1937340
 124.6899420  46.1597520 130.6454530 125.1295330  46.9021850 130.2309920
 124.6286310  46.4024090 131.5693490 120.1650390  47.1843350 141.5474550
 120.1365820  47.5886300 140.6802980 120.0015360  46.2553710 141.3846150
 130.1621180  32.4744260 124.9914330 129.8493840  32.5671090 125.8913400
 130.9233650  33.0525290 124.9411760 116.6803320  39.8404060 129.4491670
 116.5600920  40.5666150 128.8372940 116.3704210  39.0706970 128.9719580
 132.1165210  47.9670450 142.8438720 132.5924930  48.4453340 143.5227800
 132.7372370  47.8987940 142.1184220 114.3188690  43.0119200 135.2560310
 114.3969110  43.1467970 134.3116030 114.9330370  42.3035090 135.4488430
 115.5636320  44.7119390 131.6666490 115.1564400  44.8533980 130.8120090
 116.4549330  44.4279550 131.4637700 131.5198460  45.1583300 140.0038730
 131.6461520  44.9195180 139.0855910 131.5619840  44.3267840 140.4760810
 125.3815200  48.8611300 138.5733540 125.8959870  48.7719310 139.3755970
 124.5384280  49.2071000 138.8661450 127.3569600  49.1466640 128.0017540
 127.1970740  48.8569580 128.8999370 127.1916310  48.3706770 127.4662770
 119.8357980  48.9265170 129.7789160 119.6600460  48.0100710 129.5656960
 118.9813720  49.2852460 130.0186960 127.0595730  46.6554200 126.5615540
 126.3660890  46.6531490 125.9017820 127.8018590  46.2313520 126.1309710
 126.6245660  48.2816910 130.6364030 127.0802610  47.5006290 130.9502650
 126.9638180  48.9923730 131.1805210 131.3722470  37.2115760 140.9688470
 130.7566740  37.7195430 140.4403930 131.0518890  36.3114090 140.9114410
 114.3748210  44.0533370 137.7954770 114.5379250  43.5838730 136.9774140
 114.8400660  43.5456930 138.4603610 119.1466980  33.1839130 132.8315340
 118.7035130  33.9648670 132.4999860 119.7051970  33.5069020 133.5386280
 123.4336790  36.0507650 138.4350660 122.9716160  36.2590670 139.2470600
 123.0314900  35.2367000 138.1321330 128.4341300  37.2716600 139.5647320
 127.5834890  36.9722350 139.8856390 128.2743090  37.5158610 138.6531140
 125.5291010  38.7718350 141.6646110 125.8544420  37.9382100 141.3248340
 126.3171340  39.2946870 141.8124440 122.2625800  32.8049830 127.7121170
 121.6379980  32.8009700 128.4374480 122.1755920  31.9380790 127.3157140
 121.1842880  33.7286460 134.6904940 121.4815210  34.6349290 134.6096960
 121.7328440  33.2405240 134.0764510 118.9381200  38.3072700 130.5596590
 118.7122120  38.0909870 131.4643210 118.1573730  38.7401160 130.2142560
 126.1678960  38.3136070 129.1587240 125.5687850  39.0371870 128.9750860
 126.7158570  38.2512850 128.3763690 121.3780410  39.2058280 141.2256860
 121.2824010  38.2653010 141.0757260 122.2212390  39.4273350 140.8304930
 124.7743830  36.9499610 131.1890520 125.1673400  37.2671810 130.3759210
 125.1360680  36.0711490 131.3035040 116.5090950  35.6171950 139.3790640
 116.1154340  36.4647160 139.5863420 115.8209350  34.9798320 139.5699280
 123.0836000  35.7006920 142.4487380 122.3934320  35.5079120 143.0833470
 123.8268300  35.9841560 142.9811680 113.8108000  33.5400410 133.4120720
 113.5221050  34.1103270 134.1245700 114.5553760  33.0604860 133.7751950
 113.9978230  37.4820530 124.6223440 113.9152900  38.4251290 124.7638430
 113.6461290  37.3395440 123.7435790 125.3598970  39.5405360 135.2841300
 124.6280090  40.0492170 135.6331400 124.9623310  38.7235340 134.9830080
 121.7976360  36.2159560 133.6893790 121.8012420  35.7749510 132.8398330
 122.6927480  36.5376890 133.7965610 117.6478740  36.0986050 132.6488000
 117.3078790  36.5761280 133.4055050 116.8856060  35.6451170 132.2889100
 121.8596510  37.2171640 126.6800550 121.9809330  37.1758120 127.6286370
 121.4745020  38.0795790 126.5247280 125.8224880  34.9939040 134.6964240
 125.8397620  35.4447690 135.5406090 125.5740460  34.0944680 134.9097680
 120.8718010  39.5272780 126.0783850 120.3034910  39.0791030 125.4519760
 121.5807010  39.8865560 125.5449000 129.2495630  32.4071220 140.5350620
 129.5741400  31.6760880 141.0608600 129.2852140  32.0884860 139.6331610
 115.9487190  43.4284800 139.9550580 115.5641980  42.7878470 140.5533540
 116.2599380  44.1320920 140.5245310 122.0984330  40.2761340 135.4359200
 122.4654460  39.8019910 136.1820540 121.9089390  41.1502910 135.7767540
 114.9624820  35.0205030 131.5652670 114.6771740  34.6560700 132.4031290
 114.9003680  34.2885490 130.9515810 119.8883700  39.3169980 137.7543410
 119.5840770  40.1961960 137.9793770 120.8430160  39.3769770 137.7900850
 118.4165490  43.5230970 128.3510260 117.6427750  42.9828590 128.1908980
 119.1460120  43.0037580 128.0128020 129.1753470  42.5196330 134.1436650
 129.8952590  43.0151620 133.7532760 128.9735290  41.8414220 133.4990520
 124.6363410  33.9134290 128.2866040 123.8228020  33.4147460 128.2111350
 124.4425360  34.7532540 127.8702390 124.5572270  42.5905390 140.0305650
 124.4909580  41.6701060 139.7763240 123.9277410  42.6880830 140.7450290
 127.3511800  38.2853940 126.5828200 128.2391420  38.5971170 126.4079540
 127.3216890  37.4126190 126.1908780 118.4602890  43.1911350 131.9889070
 118.9781560  42.3879610 131.9345960 118.0086910  43.1290490 132.8305900
 123.3472390  44.4577630 127.2616370 123.6888090  45.2019860 126.7659690
 122.5185100  44.7708750 127.6241200 115.9447430  40.1572720 138.9014770
 115.5862370  40.8226570 139.4888110 115.6501990  39.3256270 139.2727390
 119.1460550  40.6156960 141.7854320 118.8460690  40.7614140 140.8882140
 119.9171790  40.0562250 141.6927710 124.4889000  45.4125960 139.7809450
 124.5033540  44.4806920 139.5628360 123.7814100  45.4985720 140.4199220
 129.6226070  39.5965780 126.0508060 129.5389790  40.0280000 125.2004500
 130.3420260  40.0564130 126.4834880 130.7000210  42.0533300 139.1278030
 129.9748400  42.6462080 138.9307420 131.2275670  42.0456840 138.3291400
 130.6513320  46.4508040 128.7790190 130.0089480  45.7963660 129.0533910
 130.2643980  46.8563130 128.0030860 126.2299800  43.7793470 132.6261880
 126.5823620  43.1821600 131.9663250 125.3462130  43.4537700 132.7970130
 122.3163080  44.5391160 130.0332290 123.0034210  45.0860370 130.4139880
 121.5295500  45.0831890 130.0681900 114.4555480  40.1563980 125.5249370
 115.3250330  40.4388780 125.8085290 113.9645800  40.9699850 125.4098180
 121.6190290  41.5437190 129.6457650 122.0753070  42.3542440 129.8717840
 121.2678500  41.2260330 130.4776140 123.9222900  47.0543530 136.8749950
 124.5665120  47.2602910 137.5523370 124.2852340  46.2931930 136.4220800
 117.5202070  31.8874840 130.1180170 117.3916700  31.8792740 131.0665090
 116.6964090  32.2257930 129.7671180 125.1954980  45.0575880 135.5927400
 125.8377210  44.3569040 135.7059570 125.7204330  45.8374320 135.4124290
 129.0410700  45.3424500 125.3166540 128.8148280  44.6254940 125.9091180
 128.6506900  45.0936940 124.4788290 126.9692600  45.8570780 138.7963460
 127.3048840  46.4437470 139.4741380 126.0492940  45.7263490 139.0261250
 114.8226730  49.3691360 126.0911000 115.1824370  49.9680700 125.4368270
 114.6819070  49.9151250 126.8646030 114.5196000  33.6465960 139.5786870
 113.8054520  33.8462880 140.1839480 114.9391040  32.8705530 139.9501670
 128.6226950  43.2596440 126.9780700 128.3348650  43.7209130 127.7658580
 129.4179120  42.7994210 127.2464920 114.8068590  47.6346220 140.5653400
 114.9159710  46.6940960 140.4248790 114.1549150  47.9000970 139.9167130
 122.7981180  45.9062110 141.9651520 122.4778050  45.1871350 142.5097210
 122.1239540  46.5817180 142.0387580 120.8395350  46.7522560 126.9084670
 120.8305450  47.4852250 126.2929180 119.9193710  46.5054140 127.0011630
 116.4401990  41.9737450 127.6531430 115.8329940  42.7136350 127.6626730
 116.9151340  42.0636810 126.8269630 126.0134780  36.1388270 137.3288320
 126.3815600  35.3183480 137.6567890 125.1532980  36.1990160 137.7443970
 129.3796810  35.0945210 128.1375880 128.7509970  35.1990880 127.4234110
 128.8848730  35.3141990 128.9269760 123.8254950  46.8150800 125.5709860
 123.9266930  46.6114790 124.6411840 122.9256690  46.5609080 125.7757640
 121.3480840  37.3731160 129.5533760 120.6396990  37.8417500 129.9947370
 121.6325320  36.7153170 130.1878950 122.9736770  38.7927860 137.5526290
 123.4722020  39.2673680 138.2178140 123.1159720  37.8691380 137.7596320
 125.3796270  34.0981820 130.9929550 125.2564050  34.1167950 130.0439060
 126.3280830  34.1460760 131.1127950 122.4673060  49.3337120 130.2657530
 122.7214560  49.2958510 129.3436900 121.5185540  49.2070450 130.2585780
 119.5515860  35.6816240 126.9284470 120.4006390  36.1186390 126.8624660
 119.1847130  35.9936500 127.7556530 130.1803630  35.0095820 138.3954680
 129.6777230  35.7501220 138.7348490 130.9960290  35.3979820 138.0791470
 128.4725640  40.2529000 131.8416040 127.5315780  40.2679230 132.0163730
 128.7869710  39.4664960 132.2876340 118.4507280  41.9348600 125.4020000
 119.2170550  41.8229960 125.9645430 118.5281970  41.2386570 124.7496770
 117.1454040  39.3673670 126.0852890 117.2257630  38.4201180 126.1970290
 118.0373790  39.6980550 126.1913550 130.4751220  47.4237850 133.5170300
 130.5998640  48.2469020 133.9894110 131.3416780  47.2128580 133.1694450
 117.9468750  49.5169060 133.1887430 118.6831230  48.9684520 133.4596000
 118.3309670  50.3825070 133.0493420 114.8314230  45.5842630 129.0628940
 113.9054010  45.8263770 129.0534350 115.2970660  46.4116890 128.9413690
 116.9527030  48.7015130 142.3773010 117.7539760  49.0227180 142.7908410
 116.4378850  48.3410710 143.0992920 121.0571060  48.6899370 125.0113000
 121.8499670  48.9788200 124.5594790 120.5375410  48.2591540 124.3325480
 125.7891660  44.8095000 142.3248420 125.1829820  44.8326600 141.5844170
 125.4845770  44.0778040 142.8615670 127.2192030  48.5375290 140.9357830
 128.1713780  48.4533310 140.8858070 127.0720250  49.2017000 141.6091620
 130.1101230  47.9169500 126.4349740 129.8242740  47.5034640 125.6203920
 129.9120780  48.8457210 126.3150260 114.6724840  41.1888590 141.3209060
 115.1763860  40.6095870 141.8925290 113.9332260  41.4728820 141.8585430
 121.5748460  43.9102780 124.8755350 121.4699100  43.2955130 125.6016730
 121.4072680  43.3868670 124.0918360 121.7262780  42.5959580 140.8544580
 120.9608450  43.1644580 140.7699250 121.9078740  42.3035790 139.9612810
 124.8151190  42.9722810 125.4797340 124.2661290  43.4192110 126.1240080
 125.4370450  42.4672060 126.0035010 128.8686130  44.3264910 141.4119600
 129.6095600  44.6640670 140.9087060 128.1058810  44.4956970 140.8589370
 116.7047920  39.3318180 142.2159130 116.7453260  39.0332050 143.1244360
 117.5593420  39.7325790 142.0566650 120.4826310  41.9313730 127.3762640
 120.9042730  41.7653600 128.2194030 120.6077150  41.1213960 126.8817780
 118.6453730  37.9110280 140.1833620 118.1150190  37.4201230 139.5556960
 119.3141800  38.3394480 139.6491550 122.9953950  40.9551340 124.6239740
 123.5159610  40.2400360 124.2580890 123.6422350  41.5937210 124.9240250
 127.5431790  42.3779740 139.9474810 127.9572810  42.5324820 140.7965230
 126.6082790  42.5034960 140.1100590 128.0153960  39.7175900 141.9513960
 128.5974730  38.9628220 141.8634440 128.1915730  40.2483340 141.1745440
 119.1326030  34.8772650 140.2630910 119.0382900  34.2593400 139.5381780
 118.5523420  35.6038940 140.0360820 121.8987470  33.4345890 137.2958300
 121.4504770  33.4570150 136.4503850 121.2652670  33.0364910 137.8928600
 122.3047020  42.3300220 137.9170740 122.7235130  43.1732950 137.7446980
 121.3855650  42.4672260 137.6877520 124.6410920  40.0616400 139.3008580
 124.7607130  39.4657540 140.0403420 125.5004920  40.0986090 138.8809880
 126.9798820  40.6153590 137.8771090 126.4534040  41.1396210 137.2736230
 127.3230160  41.2480980 138.5080820 119.3785210  38.0046960 124.3220800
 119.1774270  37.1414320 124.6834140 119.2077260  37.9180320 123.3842400
 120.1554440  48.6353230 139.0328470 119.6175530  49.3599290 138.7137170
 120.4088400  48.1583570 138.2425810 121.4079690  36.6037750 140.5584400
 121.9979380  36.2953600 141.2462220 120.5899930  36.1317500 140.7144300
 126.2273120  36.2203560 140.7917420 125.5388640  35.5585100 140.7267410
 126.9479140  35.7741830 141.2365880 126.8573520  32.8155190 126.8507680
 127.1375810  31.9723090 127.2067100 126.0839250  33.0478300 127.3646430
 118.1768010  35.1047580 124.3098680 118.4793910  35.1115010 123.4017830
 118.9162600  34.7545440 124.8066340 123.0116650  49.8704440 139.2915120
 122.9375350  50.7739580 139.5987490 122.1095490  49.5516340 139.2637190
 121.3952940  34.0482200 125.2954880 121.0474940  33.3706190 124.7157330
 121.5965710  33.5871710 126.1098270 123.5601980  49.0362950 126.9141480
 124.4552770  49.3747920 126.9360240 123.5919610  48.3142360 126.2865760
 117.1998140  44.4090000 125.1428480 117.6373010  44.9519670 125.7986060
 117.6845870  43.5836950 125.1524820 114.4143940  47.1979030 132.5948740
 114.7446950  46.3300090 132.3627380 114.8434940  47.4037550 133.4253700
 119.0105860  45.5288040 130.2550710 118.7101400  45.4053010 131.1554620
 118.9043350  44.6696630 129.8466440 114.9034150  48.0649620 135.3330370
 114.4665140  48.2450420 136.1654520 115.4711830  48.8224240 135.1912090
 130.5396330  47.5666620 139.6207680 129.9398320  47.6259180 138.8771600
 130.6690230  46.6271600 139.7504530 131.7797780  45.3084440 124.9577390
 130.9490740  45.3761090 125.4284620 131.9569610  46.1988560 124.6544250
 131.2354240  42.0531920 127.4611590 131.9973150  42.6228570 127.5671280
 131.2508610  41.4859120 128.2319900 114.7358580  40.5769850 131.6919250
 114.0807420  40.3081490 131.0478950 115.5736530  40.4674330 131.2421230
 132.2414210  42.9082020 132.3053520 132.6123040  42.1249340 131.8989490
 132.8816140  43.5971120 132.1270820 129.2247970  44.2918600 137.7183840
 128.4107810  44.7215760 137.9809630 129.6322170  44.9037010 137.1052890
 131.2873410  42.3466290 124.6184110 131.5622250  43.2545170 124.4903330
 131.0984150  42.2828820 125.5546100 127.6849020  35.3711140 125.9137740
 128.1033900  35.1842120 125.0734400 127.3785080  34.5190190 126.2240670
 131.1838750  40.2835280 129.6113540 130.8082350  39.5163210 129.1794830
 130.4541870  40.6657980 130.0988470 115.7734510  40.9622420 136.2322590
 116.1407550  40.8749820 137.1118610 115.2045330  40.1988970 136.1329450
 130.5738370  39.4306800 139.2453060 130.3424460  39.2019550 138.3451010
 130.8342920  40.3506350 139.1997950 115.3250510  37.8731510 140.1381010
 114.4306560  37.8398270 140.4774720 115.8648060  38.0718300 140.9032260
 129.0126440  34.6563230 142.0232760 129.8896620  34.6646630 142.4066760
 129.0247280  33.9194070 141.4125110 113.9496660  37.7868780 127.6344580
 113.0460740  38.0498980 127.4596240 114.4337280  38.0579950 126.8544540
 130.4589710  38.5092770 132.9120780 130.9827190  38.0155420 132.2810950
 131.0449130  38.6443130 133.6568350 130.6379430  38.5932640 136.4340330
 129.6882140  38.5596180 136.5485320 130.8192440  39.5032750 136.1990100
 116.4923870  36.8434320 125.5438960 117.2015570  36.4217540 125.0586240
 115.7763810  36.9109550 124.9122310 116.1398030  32.8973650 124.5841610
 116.8626160  33.4382590 124.9022830 116.4122550  32.6237070 123.7083150
 129.9489680  37.7666120 128.8513190 130.4448800  37.5336990 129.6362070
 129.7505750  36.9277960 128.4350830 115.8290220  32.1479840 134.4864230
 116.4766410  31.5977220 134.0459390 116.2492060  32.4022990 135.3080040
 131.3776840  36.4027070 131.3850870 131.2676120  36.2483110 132.3233140
 132.1384430  35.8748010 131.1426280 129.7242560  32.3421200 137.8433870
 130.3614780  32.9555340 138.2093060 129.8717450  32.3781860 136.8983100
 132.2667110  34.2334990 124.6257010 133.1916420  34.1016170 124.4175300
 132.2442900  34.3127810 125.5793460 132.3405600  35.0045650 127.2513720
 131.5457100  34.9390770 127.7806630 132.5448880  35.9396290 127.2399070
 129.2824020  49.0437200 131.2452110 129.8783090  48.7221770 130.5686530
 129.5402170  48.5709020 132.0365380 115.5822220  32.3035510 137.2289550
 115.2337040  32.7599330 137.9947730 115.2509920  31.4092640 137.3111980
 117.1886590  45.4755110 141.3942740 117.1456220  45.1048020 142.2757200
 117.3197600  46.4132680 141.5344560 120.8892620  47.0314700 136.9952460
 120.6483980  47.2989260 136.1082980 121.8295260  47.2020430 137.0503320
 123.0947040  33.4947390 140.7508970 123.0335930  34.0869220 141.5004380
 124.0347420  33.3873350 140.6059230 125.7321600  33.1517450 140.3901260
 126.3462010  33.4696740 139.7282340 126.2771160  32.6666040 141.0097120
 132.1496780  49.0509080 137.7963100 131.6555060  49.4477950 137.0790230
 131.5410070  48.4258290 138.1900380 116.2542860  31.8311710 140.5040320
 116.8025850  31.6499760 139.7406430 116.3198170  31.0405820 141.0396630
 117.0274620  48.4217360 138.5140520 116.4334940  48.2902060 139.2530560
 117.0198460  47.5855500 138.0482620 126.4729640  31.7149590 136.7170550
 125.5989480  32.0484700 136.5143480 126.3640390  31.2422770 137.5422420
 127.3801620  33.9220460 138.1012270 127.0514980  33.1072220 137.7214000
 128.3283920  33.8790270 137.9777960 129.8336230  49.6932500 135.0749840
 129.3739200  50.4448310 134.7007860 129.2048690  48.9738970 135.0164640
 116.6586850  45.7875740 137.4648560 115.9320910  45.1681030 137.3974510
 116.7196000  46.1816350 136.5946640 120.2631950  48.0020740 134.2497970
 120.7796970  47.3908100 133.7246230 120.9129330  48.5049520 134.7408980
 123.0027450  48.8929230 135.0766950 123.2905260  48.6383530 134.1999960
 123.5150670  48.3406590 135.6672520 124.2204460  32.6319430 135.6563460
 123.4376250  33.1064930 135.9360220 123.9267390  31.7274260 135.5476640
 128.7725530  33.3342530 133.7012550 129.2133620  33.2787630 132.8534150
 128.5033120  34.2500540 133.7722730 130.6364100  32.9657770 131.7121370
 130.5752500  32.0218990 131.5652390 131.4156130  33.0737860 132.2574830
 114.9416850  49.1050130 130.6745320 114.7738890  48.4720810 131.3727210
 114.0751360  49.3109530 130.3239510 115.5644870  32.9366910 128.1777180
 116.3224230  33.0495790 127.6041210 115.1022040  33.7736110 128.1320610
 122.1058680  35.0506180 131.1679490 121.2933190  34.6763070 130.8275370
 122.6100320  34.2951260 131.4700680 126.6083660  31.7148630 132.4062560
 127.2113030  32.2868840 132.8811080 125.8676650  32.2788070 132.1836460
 129.7518260  32.1170190 127.6802840 129.9468890  33.0153640 127.9470270
 128.9648130  31.8857270 128.1735790 116.5479550  47.7983360 128.1195460
 116.0227170  48.1791390 127.4157420 116.4724130  48.4234130 128.8405170
 117.9370020  33.4630960 126.7179150 118.4662780  32.6760760 126.5887100
 118.5698340  34.1422150 126.9514680 120.1307860  33.2006100 129.7724540
 119.5010600  32.4993410 129.9394670 119.5913000  33.9610230 129.5557700
 123.0699810  49.8145330 142.4435150 123.9967120  49.5789600 142.4871110
 123.0550240  50.6417330 141.9621180 131.3044870  49.3570900 129.4409400
 131.4797060  48.6708640 128.7970320 130.6066440  49.8817950 129.0486070
 120.2563420  32.4790080 142.2077030 119.9747690  32.9823680 141.4437850
 120.6383120  31.6811830 141.8419160 119.1472520  49.7465740 126.9944710
 119.8791340  49.4625020 126.4468600 119.4066190  49.5079020 127.8844090
 118.3087310  45.8630470 126.9991040 117.6796190  46.3315570 127.5476870
 118.4235140  45.0179690 127.4337230 126.8578880  31.8943660 142.7857500
 126.7444330  32.2138270 143.6809020 127.6748620  32.2956170 142.4894780
 129.6377370  49.0415190 142.2676190 130.4302690  48.5464420 142.0602150
 129.9310520  49.7205330 142.8751800 125.7637030  39.9136130 113.1492240
 125.6831080  38.9990740 112.8783950 125.3501450  40.4103200 112.4431950
 123.8955070  41.6915150 115.0301510 123.1197170  41.2115590 115.3200080
 124.5468000  41.0120800 114.8557670 117.9120900  42.0034960 115.9077270
 117.0805780  41.7483670 116.3073780 118.5201880  42.0745730 116.6435190
 127.9162500  46.0975340 113.8100640 127.4544030  45.3262580 114.1387810
 128.7288050  46.1241410 114.3153090 116.3212850  36.9636850 109.6919660
 115.4329550  37.3052820 109.5899540 116.6054040  36.7637170 108.8000490
 114.2845860  39.5642500 115.5759360 114.8561970  38.7964700 115.5763000
 114.2847400  39.8631260 114.6665970 124.1425810  48.3833350 113.4304630
 123.5237250  48.8390850 112.8599070 124.9977590  48.5384810 113.0294330
 123.3364060  44.3672340 115.0371670 123.2672340  43.4262280 114.8760800
 124.0983920  44.4573750 115.6094240 115.5270730  34.9726860 117.3628290
 115.3473570  34.0752610 117.6431050 115.1250810  35.5198730 118.0375240
 124.3669230  37.1742720 115.2640600 124.7434050  36.3014600 115.1514270
 124.2688740  37.5101420 114.3731040 118.4974240  35.5468350 110.7258040
 118.6040990  36.4472080 111.0326800 117.5866600  35.4986320 110.4352690
 128.1493350  34.6693160 112.1968940 128.9702970  34.1789730 112.2394420
 128.1827430  35.2590820 112.9500780 116.1457400  37.4687360 115.9710630
 116.8267510  37.7325730 116.5898030 115.8305450  36.6288230 116.3048640
 120.3381970  38.5154720 115.0583220 120.8460190  39.0135690 115.6988240
 120.8695210  37.7389920 114.8822580 132.4392900  36.6859910 118.7612570
 131.7345070  37.0741620 118.2427680 132.7050820  37.3810200 119.3633500
 118.6218070  33.1553280 119.3246640 118.6236510  33.6725670 118.5192540
 117.7922380  32.6783460 119.3016570 125.0089160  43.2672590 110.8236540
 124.3906430  43.7322040 110.2599260 125.5212410  43.9600070 111.2406050
 119.8720920  42.7948460 117.5020140 119.5390300  43.4217380 118.1441210
 120.0487600  43.3210340 116.7221810 128.3854830  36.6093540 114.9696480
 127.6810400  36.8978430 115.5499590 128.7466990  37.4193650 114.6096040
 118.3033400  34.8663240 117.3317090 118.6450210  35.7105290 117.0370960
 117.3649210  35.0146980 117.4482430 119.0840020  44.7629260 119.3169320
 119.7014020  45.4380340 119.0353770 118.2233140  45.1717240 119.2256820
 114.3772360  43.9529120 108.1976170 114.0000340  44.4416220 107.4661070
 114.6345430  44.6254400 108.8282700 130.0017610  46.2268670 117.2323960
 129.3181130  46.8967780 117.2240630 130.5411900  46.4249320 116.4668820
 131.4541750  36.0548330 115.3605690 130.5066660  36.0887310 115.4921120
 131.7791740  36.8687280 115.7455050 121.9861290  32.3545510 113.6561680
 122.2936270  31.7992400 112.9397180 121.0561990  32.4889970 113.4734670
 127.5376350  48.0712800 115.9469140 127.5503510  47.6675090 115.0791400
 126.9851570  48.8460090 115.8430570 128.8321770  44.7929020 111.0359310
 128.7218100  43.8503350 111.1608730 128.8290020  45.1544660 111.9222070
 126.9361790  42.9742640 117.2751750 127.3530580  42.7602750 116.4405210
 127.6601610  43.2315430 117.8460370 124.3742050  40.4194340 110.3921800
 123.4471330  40.3531720 110.6210270 124.5266870  41.3574470 110.2777040
 124.3611130  36.6911340 107.3888960 123.4214800  36.8525300 107.4741420
 124.6794390  37.4097020 106.8424950 130.8823890  41.3729860 117.3667990
 130.0542520  41.4422950 116.8918120 131.4774370  41.9584170 116.8983820
 128.4039340  41.9814640 110.8957050 127.7851760  41.6434190 110.2483350
 128.3863790  41.3374400 111.6036240 127.8465900  38.1599180 118.3122860
 127.4337080  38.9852890 118.5662850 127.1141850  37.5744220 118.1199220
 119.9798690  40.9459080 113.1741530 119.5755690  40.2336330 112.6787430
 120.0661810  40.6012320 114.0629570 120.4480390  44.6326640 115.3380740
 120.1508680  44.0272110 114.6588520 121.3980210  44.6703950 115.2270100
 118.6927310  37.7202290 116.9540570 119.2441900  37.8297630 116.1793820
 119.2070820  38.0939890 117.6695800 128.5366000  48.2058510 119.0003840
 128.0596560  49.0130700 118.8076450 127.8527790  47.5536840 119.1530050
 119.5398820  44.3708330 121.9888540 118.6427350  44.5948300 122.2361940
 119.5651690  44.4943270 121.0399940 126.5804040  41.2201450 107.9029800
 127.0197320  40.3823880 107.7567620 127.2932460  41.8530850 107.9893940
 118.3670040  41.2421650 120.5645910 118.2277810  42.1144450 120.9333310
 117.4851400  40.8994460 120.4193850 124.6899420  46.1597520 111.8711040
 125.1295330  46.9021850 111.4566430 124.6286310  46.4024090 112.7950000
 120.1650390  47.1843350 122.7731060 120.1365820  47.5886300 121.9059490
 120.0015360  46.2553710 122.6102660 130.1621180  32.4744260 106.2170840
 129.8493840  32.5671090 107.1169910 130.9233650  33.0525290 106.1668270
 116.6803320  39.8404060 110.6748180 116.5600920  40.5666150 110.0629450
 116.3704210  39.0706970 110.1976090 132.1165210  47.9670450 124.0695230
 132.5924930  48.4453340 124.7484310 132.7372370  47.8987940 123.3440730
 114.3188690  43.0119200 116.4816820 114.3969110  43.1467970 115.5372540
 114.9330370  42.3035090 116.6744940 115.5636320  44.7119390 112.8923000
 115.1564400  44.8533980 112.0376600 116.4549330  44.4279550 112.6894210
 131.5198460  45.1583300 121.2295240 131.6461520  44.9195180 120.3112420
 131.5619840  44.3267840 121.7017320 125.3815200  48.8611300 119.7990050
 125.8959870  48.7719310 120.6012480 124.5384280  49.2071000 120.0917960
 127.3569600  49.1466640 109.2274050 127.1970740  48.8569580 110.1255880
 127.1916310  48.3706770 108.6919280 119.8357980  48.9265170 111.0045670
 119.6600460  48.0100710 110.7913470 118.9813720  49.2852460 111.2443470
 127.0595730  46.6554200 107.7872050 126.3660890  46.6531490 107.1274330
 127.8018590  46.2313520 107.3566220 126.6245660  48.2816910 111.8620540
 127.0802610  47.5006290 112.1759160 126.9638180  48.9923730 112.4061720
 131.3722470  37.2115760 122.1944980 130.7566740  37.7195430 121.6660440
 131.0518890  36.3114090 122.1370920 114.3748210  44.0533370 119.0211280
 114.5379250  43.5838730 118.2030650 114.8400660  43.5456930 119.6860120
 119.1466980  33.1839130 114.0571850 118.7035130  33.9648670 113.7256370
 119.7051970  33.5069020 114.7642790 123.4336790  36.0507650 119.6607170
 122.9716160  36.2590670 120.4727110 123.0314900  35.2367000 119.3577840
 128.4341300  37.2716600 120.7903830 127.5834890  36.9722350 121.1112900
 128.2743090  37.5158610 119.8787650 125.5291010  38.7718350 122.8902620
 125.8544420  37.9382100 122.5504850 126.3171340  39.2946870 123.0380950
 122.2625800  32.8049830 108.9377680 121.6379980  32.8009700 109.6630990
 122.1755920  31.9380790 108.5413650 121.1842880  33.7286460 115.9161450
 121.4815210  34.6349290 115.8353470 121.7328440  33.2405240 115.3021020
 118.9381200  38.3072700 111.7853100 118.7122120  38.0909870 112.6899720
 118.1573730  38.7401160 111.4399070 126.1678960  38.3136070 110.3843750
 125.5687850  39.0371870 110.2007370 126.7158570  38.2512850 109.6020200
 121.3780410  39.2058280 122.4513370 121.2824010  38.2653010 122.3013770
 122.2212390  39.4273350 122.0561440 124.7743830  36.9499610 112.4147030
 125.1673400  37.2671810 111.6015720 125.1360680  36.0711490 112.5291550
 116.5090950  35.6171950 120.6047150 116.1154340  36.4647160 120.8119930
 115.8209350  34.9798320 120.7955790 123.0836000  35.7006920 123.6743890
 122.3934320  35.5079120 124.3089980 123.8268300  35.9841560 124.2068190
 113.8108000  33.5400410 114.6377230 113.5221050  34.1103270 115.3502210
 114.5553760  33.0604860 115.0008460 125.3598970  39.5405360 116.5097810
 124.6280090  40.0492170 116.8587910 124.9623310  38.7235340 116.2086590
 121.7976360  36.2159560 114.9150300 121.8012420  35.7749510 114.0654840
 122.6927480  36.5376890 115.0222120 117.6478740  36.0986050 113.8744510
 117.3078790  36.5761280 114.6311560 116.8856060  35.6451170 113.5145610
 121.8596510  37.2171640 107.9057060 121.9809330  37.1758120 108.8542880
 121.4745020  38.0795790 107.7503790 125.8224880  34.9939040 115.9220750
 125.8397620  35.4447690 116.7662600 125.5740460  34.0944680 116.1354190
 120.8718010  39.5272780 107.3040360 120.3034910  39.0791030 106.6776270
 121.5807010  39.8865560 106.7705510 129.2495630  32.4071220 121.7607130
 129.5741400  31.6760880 122.2865110 129.2852140  32.0884860 120.8588120
 115.9487190  43.4284800 121.1807090 115.5641980  42.7878470 121.7790050
 116.2599380  44.1320920 121.7501820 122.0984330  40.2761340 116.6615710
 122.4654460  39.8019910 117.4077050 121.9089390  41.1502910 117.0024050
 114.9624820  35.0205030 112.7909180 114.6771740  34.6560700 113.6287800
 114.9003680  34.2885490 112.1772320 119.8883700  39.3169980 118.9799920
 119.5840770  40.1961960 119.2050280 120.8430160  39.3769770 119.0157360
 118.4165490  43.5230970 109.5766770 117.6427750  42.9828590 109.4165490
 119.1460120  43.0037580 109.2384530 129.1753470  42.5196330 115.3693160
 129.8952590  43.0151620 114.9789270 128.9735290  41.8414220 114.7247030
 124.6363410  33.9134290 109.5122550 123.8228020  33.4147460 109.4367860
 124.4425360  34.7532540 109.0958900 124.5572270  42.5905390 121.2562160
 124.4909580  41.6701060 121.0019750 123.9277410  42.6880830 121.9706800
 127.3511800  38.2853940 107.8084710 128.2391420  38.5971170 107.6336050
 127.3216890  37.4126190 107.4165290 118.4602890  43.1911350 113.2145580
 118.9781560  42.3879610 113.1602470 118.0086910  43.1290490 114.0562410
 123.3472390  44.4577630 108.4872880 123.6888090  45.2019860 107.9916200
 122.5185100  44.7708750 108.8497710 115.9447430  40.1572720 120.1271280
 115.5862370  40.8226570 120.7144620 115.6501990  39.3256270 120.4983900
 119.1460550  40.6156960 123.0110830 118.8460690  40.7614140 122.1138650
 119.9171790  40.0562250 122.9184220 124.4889000  45.4125960 121.0065960
 124.5033540  44.4806920 120.7884870 123.7814100  45.4985720 121.6455730
 129.6226070  39.5965780 107.2764570 129.5389790  40.0280000 106.4261010
 130.3420260  40.0564130 107.7091390 130.7000210  42.0533300 120.3534540
 129.9748400  42.6462080 120.1563930 131.2275670  42.0456840 119.5547910
 130.6513320  46.4508040 110.0046700 130.0089480  45.7963660 110.2790420
 130.2643980  46.8563130 109.2287370 126.2299800  43.7793470 113.8518390
 126.5823620  43.1821600 113.1919760 125.3462130  43.4537700 114.0226640
 122.3163080  44.5391160 111.2588800 123.0034210  45.0860370 111.6396390
 121.5295500  45.0831890 111.2938410 121.6190290  41.5437190 110.8714160
 122.0753070  42.3542440 111.0974350 121.2678500  41.2260330 111.7032650
 123.9222900  47.0543530 118.1006460 124.5665120  47.2602910 118.7779880
 124.2852340  46.2931930 117.6477310 117.5202070  31.8874840 111.3436680
 117.3916700  31.8792740 112.2921600 116.6964090  32.2257930 110.9927690
 125.1954980  45.0575880 116.8183910 125.8377210  44.3569040 116.9316080
 125.7204330  45.8374320 116.6380800 129.0410700  45.3424500 106.5423050
 128.8148280  44.6254940 107.1347690 128.6506900  45.0936940 105.7044800
 126.9692600  45.8570780 120.0219970 127.3048840  46.4437470 120.6997890
 126.0492940  45.7263490 120.2517760 114.8226730  49.3691360 107.3167510
 115.1824370  49.9680700 106.6624780 114.6819070  49.9151250 108.0902540
 114.5196000  33.6465960 120.8043380 113.8054520  33.8462880 121.4095990
 114.9391040  32.8705530 121.1758180 128.6226950  43.2596440 108.2037210
 128.3348650  43.7209130 108.9915090 129.4179120  42.7994210 108.4721430
 114.8068590  47.6346220 121.7909910 114.9159710  46.6940960 121.6505300
 114.1549150  47.9000970 121.1423640 122.7981180  45.9062110 123.1908030
 122.4778050  45.1871350 123.7353720 122.1239540  46.5817180 123.2644090
 120.8395350  46.7522560 108.1341180 120.8305450  47.4852250 107.5185690
 119.9193710  46.5054140 108.2268140 116.4401990  41.9737450 108.8787940
 115.8329940  42.7136350 108.8883240 116.9151340  42.0636810 108.0526140
 126.0134780  36.1388270 118.5544830 126.3815600  35.3183480 118.8824400
 125.1532980  36.1990160 118.9700480 129.3796810  35.0945210 109.3632390
 128.7509970  35.1990880 108.6490620 128.8848730  35.3141990 110.1526270
 121.3480840  37.3731160 110.7790270 120.6396990  37.8417500 111.2203880
 121.6325320  36.7153170 111.4135460 122.9736770  38.7927860 118.7782800
 123.4722020  39.2673680 119.4434650 123.1159720  37.8691380 118.9852830
 125.3796270  34.0981820 112.2186060 125.2564050  34.1167950 111.2695570
 126.3280830  34.1460760 112.3384460 122.4673060  49.3337120 111.4914040
 122.7214560  49.2958510 110.5693410 121.5185540  49.2070450 111.4842290
 119.5515860  35.6816240 108.1540980 120.4006390  36.1186390 108.0881170
 119.1847130  35.9936500 108.9813040 130.1803630  35.0095820 119.6211190
 129.6777230  35.7501220 119.9605000 130.9960290  35.3979820 119.3047980
 128.4725640  40.2529000 113.0672550 127.5315780  40.2679230 113.2420240
 128.7869710  39.4664960 113.5132850 118.4507280  41.9348600 106.6276510
 119.2170550  41.8229960 107.1901940 118.5281970  41.2386570 105.9753280
 130.4751220  47.4237850 114.7426810 130.5998640  48.2469020 115.2150620
 131.3416780  47.2128580 114.3950960 114.8314230  45.5842630 110.2885450
 113.9054010  45.8263770 110.2790860 115.2970660  46.4116890 110.1670200
 116.9527030  48.7015130 123.6029520 117.7539760  49.0227180 124.0164920
 116.4378850  48.3410710 124.3249430 125.7891660  44.8095000 123.5504930
 125.1829820  44.8326600 122.8100680 125.4845770  44.0778040 124.0872180
 127.2192030  48.5375290 122.1614340 128.1713780  48.4533310 122.1114580
 127.0720250  49.2017000 122.8348130 130.1101230  47.9169500 107.6606250
 129.8242740  47.5034640 106.8460430 129.9120780  48.8457210 107.5406770
 114.6724840  41.1888590 122.5465570 115.1763860  40.6095870 123.1181800
 113.9332260  41.4728820 123.0841940 121.7262780  42.5959580 122.0801090
 120.9608450  43.1644580 121.9955760 121.9078740  42.3035790 121.1869320
 124.8151190  42.9722810 106.7053850 124.2661290  43.4192110 107.3496590
 125.4370450  42.4672060 107.2291520 128.8686130  44.3264910 122.6376110
 129.6095600  44.6640670 122.1343570 128.1058810  44.4956970 122.0845880
 116.7047920  39.3318180 123.4415640 116.7453260  39.0332050 124.3500870
 117.5593420  39.7325790 123.2823160 120.4826310  41.9313730 108.6019150
 120.9042730  41.7653600 109.4450540 120.6077150  41.1213960 108.1074290
 118.6453730  37.9110280 121.4090130 118.1150190  37.4201230 120.7813470
 119.3141800  38.3394480 120.8748060 127.5431790  42.3779740 121.1731320
 127.9572810  42.5324820 122.0221740 126.6082790  42.5034960 121.3357100
 128.0153960  39.7175900 123.1770470 128.5974730  38.9628220 123.0890950
 128.1915730  40.2483340 122.4001950 119.1326030  34.8772650 121.4887420
 119.0382900  34.2593400 120.7638290 118.5523420  35.6038940 121.2617330
 121.8987470  33.4345890 118.5214810 121.4504770  33.4570150 117.6760360
 121.2652670  33.0364910 119.1185110 122.3047020  42.3300220 119.1427250
 122.7235130  43.1732950 118.9703490 121.3855650  42.4672260 118.9134030
 124.6410920  40.0616400 120.5265090 124.7607130  39.4657540 121.2659930
 125.5004920  40.0986090 120.1066390 126.9798820  40.6153590 119.1027600
 126.4534040  41.1396210 118.4992740 127.3230160  41.2480980 119.7337330
 119.3785210  38.0046960 105.5477310 119.1774270  37.1414320 105.9090650
 119.2077260  37.9180320 104.6098910 121.4079690  36.6037750 121.7840910
 121.9979380  36.2953600 122.4718730 120.5899930  36.1317500 121.9400810
 126.2273120  36.2203560 122.0173930 125.5388640  35.5585100 121.9523920
 126.9479140  35.7741830 122.4622390 126.8573520  32.8155190 108.0764190
 127.1375810  31.9723090 108.4323610 126.0839250  33.0478300 108.5902940
 118.1768010  35.1047580 105.5355190 118.4793910  35.1115010 104.6274340
 118.9162600  34.7545440 106.0322850 123.0116650  49.8704440 120.5171630
 122.9375350  50.7739580 120.8244000 122.1095490  49.5516340 120.4893700
 121.3952940  34.0482200 106.5211390 121.0474940  33.3706190 105.9413840
 121.5965710  33.5871710 107.3354780 119.0105860  45.5288040 111.4807220
 118.7101400  45.4053010 112.3811130 118.9043350  44.6696630 111.0722950
 130.5396330  47.5666620 120.8464190 129.9398320  47.6259180 120.1028110
 130.6690230  46.6271600 120.9761040 131.7797780  45.3084440 106.1833900
 130.9490740  45.3761090 106.6541130 131.9569610  46.1988560 105.8800760
 131.2354240  42.0531920 108.6868100 131.9973150  42.6228570 108.7927790
 131.2508610  41.4859120 109.4576410 114.7358580  40.5769850 112.9175760
 114.0807420  40.3081490 112.2735460 115.5736530  40.4674330 112.4677740
 132.2414210  42.9082020 113.5310030 132.6123040  42.1249340 113.1246000
 132.8816140  43.5971120 113.3527330 129.2247970  44.2918600 118.9440350
 128.4107810  44.7215760 119.2066140 129.6322170  44.9037010 118.3309400
 131.2873410  42.3466290 105.8440620 131.5622250  43.2545170 105.7159840
 131.0984150  42.2828820 106.7802610 127.6849020  35.3711140 107.1394250
 128.1033900  35.1842120 106.2990910 127.3785080  34.5190190 107.4497180
 131.1838750  40.2835280 110.8370050 130.8082350  39.5163210 110.4051340
 130.4541870  40.6657980 111.3244980 115.7734510  40.9622420 117.4579100
 116.1407550  40.8749820 118.3375120 115.2045330  40.1988970 117.3585960
 130.5738370  39.4306800 120.4709570 130.3424460  39.2019550 119.5707520
 130.8342920  40.3506350 120.4254460 115.3250510  37.8731510 121.3637520
 114.4306560  37.8398270 121.7031230 115.8648060  38.0718300 122.1288770
 129.0126440  34.6563230 123.2489270 129.8896620  34.6646630 123.6323270
 129.0247280  33.9194070 122.6381620 130.4589710  38.5092770 114.1377290
 130.9827190  38.0155420 113.5067460 131.0449130  38.6443130 114.8824860
 130.6379430  38.5932640 117.6596840 129.6882140  38.5596180 117.7741830
 130.8192440  39.5032750 117.4246610 116.1398030  32.8973650 105.8098120
 116.8626160  33.4382590 106.1279340 116.4122550  32.6237070 104.9339660
 129.9489680  37.7666120 110.0769700 130.4448800  37.5336990 110.8618580
 129.7505750  36.9277960 109.6607340 115.8290220  32.1479840 115.7120740
 116.4766410  31.5977220 115.2715900 116.2492060  32.4022990 116.5336550
 131.3776840  36.4027070 112.6107380 131.2676120  36.2483110 113.5489650
 132.1384430  35.8748010 112.3682790 129.7242560  32.3421200 119.0690380
 130.3614780  32.9555340 119.4349570 129.8717450  32.3781860 118.1239610
 132.2667110  34.2334990 105.8513520 133.1916420  34.1016170 105.6431810
 132.2442900  34.3127810 106.8049970 132.3405600  35.0045650 108.4770230
 131.5457100  34.9390770 109.0063140 132.5448880  35.9396290 108.4655580
 129.2824020  49.0437200 112.4708620 129.8783090  48.7221770 111.7943040
 129.5402170  48.5709020 113.2621890 115.5822220  32.3035510 118.4546060
 115.2337040  32.7599330 119.2204240 115.2509920  31.4092640 118.5368490
 117.1886590  45.4755110 122.6199250 117.1456220  45.1048020 123.5013710
 117.3197600  46.4132680 122.7601070 120.8892620  47.0314700 118.2208970
 120.6483980  47.2989260 117.3339490 121.8295260  47.2020430 118.2759830
 123.0947040  33.4947390 121.9765480 123.0335930  34.0869220 122.7260890
 124.0347420  33.3873350 121.8315740 125.7321600  33.1517450 121.6157770
 126.3462010  33.4696740 120.9538850 126.2771160  32.6666040 122.2353630
 132.1496780  49.0509080 119.0219610 131.6555060  49.4477950 118.3046740
 131.5410070  48.4258290 119.4156890 116.2542860  31.8311710 121.7296830
 116.8025850  31.6499760 120.9662940 116.3198170  31.0405820 122.2653140
 126.4729640  31.7149590 117.9427060 125.5989480  32.0484700 117.7399990
 126.3640390  31.2422770 118.7678930 127.3801620  33.9220460 119.3268780
 127.0514980  33.1072220 118.9470510 128.3283920  33.8790270 119.2034470
 129.8336230  49.6932500 116.3006350 129.3739200  50.4448310 115.9264370
 129.2048690  48.9738970 116.2421150 123.0027450  48.8929230 116.3023460
 123.2905260  48.6383530 115.4256470 123.5150670  48.3406590 116.8929030
 124.2204460  32.6319430 116.8819970 123.4376250  33.1064930 117.1616730
 123.9267390  31.7274260 116.7733150 128.7725530  33.3342530 114.9269060
 129.2133620  33.2787630 114.0790660 128.5033120  34.2500540 114.9979240
 130.6364100  32.9657770 112.9377880 130.5752500  32.0218990 112.7908900
 131.4156130  33.0737860 113.4831340 114.9416850  49.1050130 111.9001830
 114.7738890  48.4720810 112.5983720 114.0751360  49.3109530 111.5496020
 115.5644870  32.9366910 109.4033690 116.3224230  33.0495790 108.8297720
 115.1022040  33.7736110 109.3577120 122.1058680  35.0506180 112.3936000
 121.2933190  34.6763070 112.0531880 122.6100320  34.2951260 112.6957190
 126.6083660  31.7148630 113.6319070 127.2113030  32.2868840 114.1067590
 125.8676650  32.2788070 113.4092970 129.7518260  32.1170190 108.9059350
 129.9468890  33.0153640 109.1726780 128.9648130  31.8857270 109.3992300
 116.5479550  47.7983360 109.3451970 116.0227170  48.1791390 108.6413930
 116.4724130  48.4234130 110.0661680 117.9370020  33.4630960 107.9435660
 118.4662780  32.6760760 107.8143610 118.5698340  34.1422150 108.1771190
 120.1307860  33.2006100 110.9981050 119.5010600  32.4993410 111.1651180
 119.5913000  33.9610230 110.7814210 123.0699810  49.8145330 123.6691660
 123.9967120  49.5789600 123.7127620 123.0550240  50.6417330 123.1877690
 131.3044870  49.3570900 110.6665910 131.4797060  48.6708640 110.0226830
 130.6066440  49.8817950 110.2742580 120.2563420  32.4790080 123.4333540
 119.9747690  32.9823680 122.6694360 120.6383120  31.6811830 123.0675670
 118.3087310  45.8630470 108.2247550 117.6796190  46.3315570 108.7733380
 118.4235140  45.0179690 108.6593740 126.8578880  31.8943660 124.0114010
 126.7444330  32.2138270 124.9065530 127.6748620  32.2956170 123.7151290
 129.6377370  49.0415190 123.4932700 130.4302690  48.5464420 123.2858660
 129.9310520  49.7205330 124.1008310 125.7637030  39.9136130  94.3748750
 125.6831080  38.9990740  94.1040460 125.3501450  40.4103200  93.6688460
 117.9120900  42.0034960  97.1333780 117.0805780  41.7483670  97.5330290
 118.5201880  42.0745730  97.8691700 127.9162500  46.0975340  95.0357150
 127.4544030  45.3262580  95.3644320 128.7288050  46.1241410  95.5409600
 117.8922160  46.0375050  97.3291800 118.1950200  45.1472790  97.1502020
 118.6365750  46.5945270  97.1014050 116.3212850  36.9636850  90.9176170
 115.4329550  37.3052820  90.8156050 116.6054040  36.7637170  90.0257000
 114.2845860  39.5642500  96.8015870 114.8561970  38.7964700  96.8019510
 114.2847400  39.8631260  95.8922480 124.1425810  48.3833350  94.6561140
 123.5237250  48.8390850  94.0855580 124.9977590  48.5384810  94.2550840
 115.5270730  34.9726860  98.5884800 115.3473570  34.0752610  98.8687560
 115.1250810  35.5198730  99.2631750 124.3669230  37.1742720  96.4897110
 124.7434050  36.3014600  96.3770780 124.2688740  37.5101420  95.5987550
 118.4974240  35.5468350  91.9514550 118.6040990  36.4472080  92.2583310
 117.5866600  35.4986320  91.6609200 128.1493350  34.6693160  93.4225450
 128.9702970  34.1789730  93.4650930 128.1827430  35.2590820  94.1757290
 116.1457400  37.4687360  97.1967140 116.8267510  37.7325730  97.8154540
 115.8305450  36.6288230  97.5305150 132.4392900  36.6859910  99.9869080
 131.7345070  37.0741620  99.4684190 132.7050820  37.3810200 100.5890010
 118.6218070  33.1553280 100.5503150 118.6236510  33.6725670  99.7449050
 117.7922380  32.6783460 100.5273080 119.8720920  42.7948460  98.7276650
 119.5390300  43.4217380  99.3697720 120.0487600  43.3210340  97.9478320
 128.3854830  36.6093540  96.1952990 127.6810400  36.8978430  96.7756100
 128.7466990  37.4193650  95.8352550 118.3033400  34.8663240  98.5573600
 118.6450210  35.7105290  98.2627470 117.3649210  35.0146980  98.6738940
 119.0840020  44.7629260 100.5425830 119.7014020  45.4380340 100.2610280
 118.2233140  45.1717240 100.4513330 130.0017610  46.2268670  98.4580470
 129.3181130  46.8967780  98.4497140 130.5411900  46.4249320  97.6925330
 131.4541750  36.0548330  96.5862200 130.5066660  36.0887310  96.7177630
 131.7791740  36.8687280  96.9711560 121.9861290  32.3545510  94.8818190
 122.2936270  31.7992400  94.1653690 121.0561990  32.4889970  94.6991180
 128.8321770  44.7929020  92.2615820 128.7218100  43.8503350  92.3865240
 128.8290020  45.1544660  93.1478580 124.3742050  40.4194340  91.6178310
 123.4471330  40.3531720  91.8466780 124.5266870  41.3574470  91.5033550
 124.3611130  36.6911340  88.6145470 123.4214800  36.8525300  88.6997930
 124.6794390  37.4097020  88.0681460 130.8823890  41.3729860  98.5924500
 130.0542520  41.4422950  98.1174630 131.4774370  41.9584170  98.1240330
 128.4039340  41.9814640  92.1213560 127.7851760  41.6434190  91.4739860
 128.3863790  41.3374400  92.8292750 127.8465900  38.1599180  99.5379370
 127.4337080  38.9852890  99.7919360 127.1141850  37.5744220  99.3455730
 118.6927310  37.7202290  98.1797080 119.2441900  37.8297630  97.4050330
 119.2070820  38.0939890  98.8952310 126.5804040  41.2201450  89.1286310
 127.0197320  40.3823880  88.9824130 127.2932460  41.8530850  89.2150450
 118.3670040  41.2421650 101.7902420 118.2277810  42.1144450 102.1589820
 117.4851400  40.8994460 101.6450360 120.1650390  47.1843350 103.9987570
 120.1365820  47.5886300 103.1316000 120.0015360  46.2553710 103.8359170
 130.1621180  32.4744260  87.4427350 129.8493840  32.5671090  88.3426420
 130.9233650  33.0525290  87.3924780 116.6803320  39.8404060  91.9004690
 116.5600920  40.5666150  91.2885960 116.3704210  39.0706970  91.4232600
 132.1165210  47.9670450 105.2951740 132.5924930  48.4453340 105.9740820
 132.7372370  47.8987940 104.5697240 114.3188690  43.0119200  97.7073330
 114.3969110  43.1467970  96.7629050 114.9330370  42.3035090  97.9001450
 131.5198460  45.1583300 102.4551750 131.6461520  44.9195180 101.5368930
 131.5619840  44.3267840 102.9273830 127.3569600  49.1466640  90.4530560
 127.1970740  48.8569580  91.3512390 127.1916310  48.3706770  89.9175790
 119.8357980  48.9265170  92.2302180 119.6600460  48.0100710  92.0169980
 118.9813720  49.2852460  92.4699980 126.6245660  48.2816910  93.0877050
 127.0802610  47.5006290  93.4015670 126.9638180  48.9923730  93.6318230
 131.3722470  37.2115760 103.4201490 130.7566740  37.7195430 102.8916950
 131.0518890  36.3114090 103.3627430 114.3748210  44.0533370 100.2467790
 114.5379250  43.5838730  99.4287160 114.8400660  43.5456930 100.9116630
 119.1466980  33.1839130  95.2828360 118.7035130  33.9648670  94.9512880
 119.7051970  33.5069020  95.9899300 123.4336790  36.0507650 100.8863680
 122.9716160  36.2590670 101.6983620 123.0314900  35.2367000 100.5834350
 128.4341300  37.2716600 102.0160340 127.5834890  36.9722350 102.3369410
 128.2743090  37.5158610 101.1044160 125.5291010  38.7718350 104.1159130
 125.8544420  37.9382100 103.7761360 126.3171340  39.2946870 104.2637460
 122.2625800  32.8049830  90.1634190 121.6379980  32.8009700  90.8887500
 122.1755920  31.9380790  89.7670160 121.1842880  33.7286460  97.1417960
 121.4815210  34.6349290  97.0609980 121.7328440  33.2405240  96.5277530
 118.9381200  38.3072700  93.0109610 118.7122120  38.0909870  93.9156230
 118.1573730  38.7401160  92.6655580 126.1678960  38.3136070  91.6100260
 125.5687850  39.0371870  91.4263880 126.7158570  38.2512850  90.8276710
 121.3780410  39.2058280 103.6769880 121.2824010  38.2653010 103.5270280
 122.2212390  39.4273350 103.2817950 124.7743830  36.9499610  93.6403540
 125.1673400  37.2671810  92.8272230 125.1360680  36.0711490  93.7548060
 116.5090950  35.6171950 101.8303660 116.1154340  36.4647160 102.0376440
 115.8209350  34.9798320 102.0212300 123.0836000  35.7006920 104.9000400
 122.3934320  35.5079120 105.5346490 123.8268300  35.9841560 105.4324700
 113.9978230  37.4820530  87.0736460 113.9152900  38.4251290  87.2151450
 113.6461290  37.3395440  86.1948810 125.3598970  39.5405360  97.7354320
 124.6280090  40.0492170  98.0844420 124.9623310  38.7235340  97.4343100
 121.7976360  36.2159560  96.1406810 121.8012420  35.7749510  95.2911350
 122.6927480  36.5376890  96.2478630 117.6478740  36.0986050  95.1001020
 117.3078790  36.5761280  95.8568070 116.8856060  35.6451170  94.7402120
 121.8596510  37.2171640  89.1313570 121.9809330  37.1758120  90.0799390
 121.4745020  38.0795790  88.9760300 125.8224880  34.9939040  97.1477260
 125.8397620  35.4447690  97.9919110 125.5740460  34.0944680  97.3610700
 120.8718010  39.5272780  88.5296870 120.3034910  39.0791030  87.9032780
 121.5807010  39.8865560  87.9962020 129.2495630  32.4071220 102.9863640
 129.5741400  31.6760880 103.5121620 129.2852140  32.0884860 102.0844630
 119.8883700  39.3169980 100.2056430 119.5840770  40.1961960 100.4306790
 120.8430160  39.3769770 100.2413870 118.4165490  43.5230970  90.8023280
 117.6427750  42.9828590  90.6422000 119.1460120  43.0037580  90.4641040
 129.1753470  42.5196330  96.5949670 129.8952590  43.0151620  96.2045780
 128.9735290  41.8414220  95.9503540 124.6363410  33.9134290  90.7379060
 123.8228020  33.4147460  90.6624370 124.4425360  34.7532540  90.3215410
 127.3511800  38.2853940  89.0341220 128.2391420  38.5971170  88.8592560
 127.3216890  37.4126190  88.6421800 123.3472390  44.4577630  89.7129390
 123.6888090  45.2019860  89.2172710 122.5185100  44.7708750  90.0754220
 119.1460550  40.6156960 104.2367340 118.8460690  40.7614140 103.3395160
 119.9171790  40.0562250 104.1440730 129.6226070  39.5965780  88.5021080
 129.5389790  40.0280000  87.6517520 130.3420260  40.0564130  88.9347900
 130.7000210  42.0533300 101.5791050 129.9748400  42.6462080 101.3820440
 131.2275670  42.0456840 100.7804420 130.6513320  46.4508040  91.2303210
 130.0089480  45.7963660  91.5046930 130.2643980  46.8563130  90.4543880
 114.4555480  40.1563980  87.9762390 115.3250330  40.4388780  88.2598310
 113.9645800  40.9699850  87.8611200 114.8226730  49.3691360  88.5424020
 115.1824370  49.9680700  87.8881290 114.6819070  49.9151250  89.3159050
 114.5196000  33.6465960 102.0299890 113.8054520  33.8462880 102.6352500
 114.9391040  32.8705530 102.4014690 128.6226950  43.2596440  89.4293720
 128.3348650  43.7209130  90.2171600 129.4179120  42.7994210  89.6977940
 114.8068590  47.6346220 103.0166420 114.9159710  46.6940960 102.8761810
 114.1549150  47.9000970 102.3680150 120.8395350  46.7522560  89.3597690
 120.8305450  47.4852250  88.7442200 119.9193710  46.5054140  89.4524650
 126.0134780  36.1388270  99.7801340 126.3815600  35.3183480 100.1080910
 125.1532980  36.1990160 100.1956990 129.3796810  35.0945210  90.5888900
 128.7509970  35.1990880  89.8747130 128.8848730  35.3141990  91.3782780
 121.3480840  37.3731160  92.0046780 120.6396990  37.8417500  92.4460390
 121.6325320  36.7153170  92.6391970 122.9736770  38.7927860 100.0039310
 123.4722020  39.2673680 100.6691160 123.1159720  37.8691380 100.2109340
 125.3796270  34.0981820  93.4442570 125.2564050  34.1167950  92.4952080
 126.3280830  34.1460760  93.5640970 122.4673060  49.3337120  92.7170550
 122.7214560  49.2958510  91.7949920 121.5185540  49.2070450  92.7098800
 119.5515860  35.6816240  89.3797490 120.4006390  36.1186390  89.3137680
 119.1847130  35.9936500  90.2069550 130.1803630  35.0095820 100.8467700
 129.6777230  35.7501220 101.1861510 130.9960290  35.3979820 100.5304490
 128.4725640  40.2529000  94.2929060 127.5315780  40.2679230  94.4676750
 128.7869710  39.4664960  94.7389360 118.4507280  41.9348600  87.8533020
 119.2170550  41.8229960  88.4158450 118.5281970  41.2386570  87.2009790
 117.1454040  39.3673670  88.5365910 117.2257630  38.4201180  88.6483310
 118.0373790  39.6980550  88.6426570 130.4751220  47.4237850  95.9683320
 130.5998640  48.2469020  96.4407130 131.3416780  47.2128580  95.6207470
 117.9468750  49.5169060  95.6400450 118.6831230  48.9684520  95.9109020
 118.3309670  50.3825070  95.5006440 116.9527030  48.7015130 104.8286030
 117.7539760  49.0227180 105.2421430 116.4378850  48.3410710 105.5505940
 121.0571060  48.6899370  87.4626020 121.8499670  48.9788200  87.0107810
 120.5375410  48.2591540  86.7838500 121.5748460  43.9102780  87.3268370
 121.4699100  43.2955130  88.0529750 121.4072680  43.3868670  86.5431380
 124.8151190  42.9722810  87.9310360 124.2661290  43.4192110  88.5753100
 125.4370450  42.4672060  88.4548030 128.8686130  44.3264910 103.8632620
 129.6095600  44.6640670 103.3600080 128.1058810  44.4956970 103.3102390
 120.4826310  41.9313730  89.8275660 120.9042730  41.7653600  90.6707050
 120.6077150  41.1213960  89.3330800 118.6453730  37.9110280 102.6346640
 118.1150190  37.4201230 102.0069980 119.3141800  38.3394480 102.1004570
 122.9953950  40.9551340  87.0752760 123.5159610  40.2400360  86.7093910
 123.6422350  41.5937210  87.3753270 127.5431790  42.3779740 102.3987830
 127.9572810  42.5324820 103.2478250 126.6082790  42.5034960 102.5613610
 128.0153960  39.7175900 104.4026980 128.5974730  38.9628220 104.3147460
 128.1915730  40.2483340 103.6258460 119.1326030  34.8772650 102.7143930
 119.0382900  34.2593400 101.9894800 118.5523420  35.6038940 102.4873840
 121.8987470  33.4345890  99.7471320 121.4504770  33.4570150  98.9016870
 121.2652670  33.0364910 100.3441620 122.3047020  42.3300220 100.3683760
 122.7235130  43.1732950 100.1960000 121.3855650  42.4672260 100.1390540
 124.6410920  40.0616400 101.7521600 124.7607130  39.4657540 102.4916440
 125.5004920  40.0986090 101.3322900 119.3785210  38.0046960  86.7733820
 119.1774270  37.1414320  87.1347160 119.2077260  37.9180320  85.8355420
 120.1554440  48.6353230 101.4841490 119.6175530  49.3599290 101.1650190
 120.4088400  48.1583570 100.6938830 121.4079690  36.6037750 103.0097420
 121.9979380  36.2953600 103.6975240 120.5899930  36.1317500 103.1657320
 126.2273120  36.2203560 103.2430440 125.5388640  35.5585100 103.1780430
 126.9479140  35.7741830 103.6878900 126.8573520  32.8155190  89.3020700
 127.1375810  31.9723090  89.6580120 126.0839250  33.0478300  89.8159450
 118.1768010  35.1047580  86.7611700 118.4793910  35.1115010  85.8530850
 118.9162600  34.7545440  87.2579360 123.0116650  49.8704440 101.7428140
 122.9375350  50.7739580 102.0500510 122.1095490  49.5516340 101.7150210
 121.3952940  34.0482200  87.7467900 121.0474940  33.3706190  87.1670350
 121.5965710  33.5871710  88.5611290 117.1998140  44.4090000  87.5941500
 117.6373010  44.9519670  88.2499080 117.6845870  43.5836950  87.6037840
 114.4143940  47.1979030  95.0461760 114.7446950  46.3300090  94.8140400
 114.8434940  47.4037550  95.8766720 114.9034150  48.0649620  97.7843390
 114.4665140  48.2450420  98.6167540 115.4711830  48.8224240  97.6425110
 130.5396330  47.5666620 102.0720700 129.9398320  47.6259180 101.3284620
 130.6690230  46.6271600 102.2017550 131.2354240  42.0531920  89.9124610
 131.9973150  42.6228570  90.0184300 131.2508610  41.4859120  90.6832920
 114.7358580  40.5769850  94.1432270 114.0807420  40.3081490  93.4991970
 115.5736530  40.4674330  93.6934250 132.2414210  42.9082020  94.7566540
 132.6123040  42.1249340  94.3502510 132.8816140  43.5971120  94.5783840
 131.2873410  42.3466290  87.0697130 131.5622250  43.2545170  86.9416350
 131.0984150  42.2828820  88.0059120 127.6849020  35.3711140  88.3650760
 128.1033900  35.1842120  87.5247420 127.3785080  34.5190190  88.6753690
 131.1838750  40.2835280  92.0626560 130.8082350  39.5163210  91.6307850
 130.4541870  40.6657980  92.5501490 115.7734510  40.9622420  98.6835610
 116.1407550  40.8749820  99.5631630 115.2045330  40.1988970  98.5842470
 130.5738370  39.4306800 101.6966080 130.3424460  39.2019550 100.7964030
 130.8342920  40.3506350 101.6510970 129.0126440  34.6563230 104.4745780
 129.8896620  34.6646630 104.8579780 129.0247280  33.9194070 103.8638130
 113.9496660  37.7868780  90.0857600 113.0460740  38.0498980  89.9109260
 114.4337280  38.0579950  89.3057560 130.4589710  38.5092770  95.3633800
 130.9827190  38.0155420  94.7323970 131.0449130  38.6443130  96.1081370
 130.6379430  38.5932640  98.8853350 129.6882140  38.5596180  98.9998340
 130.8192440  39.5032750  98.6503120 116.4923870  36.8434320  87.9951980
 117.2015570  36.4217540  87.5099260 115.7763810  36.9109550  87.3635330
 116.1398030  32.8973650  87.0354630 116.8626160  33.4382590  87.3535850
 116.4122550  32.6237070  86.1596170 129.9489680  37.7666120  91.3026210
 130.4448800  37.5336990  92.0875090 129.7505750  36.9277960  90.8863850
 115.8290220  32.1479840  96.9377250 116.4766410  31.5977220  96.4972410
 116.2492060  32.4022990  97.7593060 131.3776840  36.4027070  93.8363890
 131.2676120  36.2483110  94.7746160 132.1384430  35.8748010  93.5939300
 129.7242560  32.3421200 100.2946890 130.3614780  32.9555340 100.6606080
 129.8717450  32.3781860  99.3496120 132.2667110  34.2334990  87.0770030
 133.1916420  34.1016170  86.8688320 132.2442900  34.3127810  88.0306480
 132.3405600  35.0045650  89.7026740 131.5457100  34.9390770  90.2319650
 132.5448880  35.9396290  89.6912090 129.2824020  49.0437200  93.6965130
 129.8783090  48.7221770  93.0199550 129.5402170  48.5709020  94.4878400
 115.5822220  32.3035510  99.6802570 115.2337040  32.7599330 100.4460750
 115.2509920  31.4092640  99.7625000 120.8892620  47.0314700  99.4465480
 120.6483980  47.2989260  98.5596000 121.8295260  47.2020430  99.5016340
 123.0947040  33.4947390 103.2021990 123.0335930  34.0869220 103.9517400
 124.0347420  33.3873350 103.0572250 125.7321600  33.1517450 102.8414280
 126.3462010  33.4696740 102.1795360 126.2771160  32.6666040 103.4610140
 132.1496780  49.0509080 100.2476120 131.6555060  49.4477950  99.5303250
 131.5410070  48.4258290 100.6413400 116.2542860  31.8311710 102.9553340
 116.8025850  31.6499760 102.1919450 116.3198170  31.0405820 103.4909650
 117.0274620  48.4217360 100.9653540 116.4334940  48.2902060 101.7043580
 117.0198460  47.5855500 100.4995640 126.4729640  31.7149590  99.1683570
 125.5989480  32.0484700  98.9656500 126.3640390  31.2422770  99.9935440
 127.3801620  33.9220460 100.5525290 127.0514980  33.1072220 100.1727020
 128.3283920  33.8790270 100.4290980 129.8336230  49.6932500  97.5262860
 129.3739200  50.4448310  97.1520880 129.2048690  48.9738970  97.4677660
 116.6586850  45.7875740  99.9161580 115.9320910  45.1681030  99.8487530
 116.7196000  46.1816350  99.0459660 120.2631950  48.0020740  96.7010990
 120.7796970  47.3908100  96.1759250 120.9129330  48.5049520  97.1922000
 123.0027450  48.8929230  97.5279970 123.2905260  48.6383530  96.6512980
 123.5150670  48.3406590  98.1185540 124.2204460  32.6319430  98.1076480
 123.4376250  33.1064930  98.3873240 123.9267390  31.7274260  97.9989660
 128.7725530  33.3342530  96.1525570 129.2133620  33.2787630  95.3047170
 128.5033120  34.2500540  96.2235750 130.6364100  32.9657770  94.1634390
 130.5752500  32.0218990  94.0165410 131.4156130  33.0737860  94.7087850
 114.9416850  49.1050130  93.1258340 114.7738890  48.4720810  93.8240230
 114.0751360  49.3109530  92.7752530 122.1058680  35.0506180  93.6192510
 121.2933190  34.6763070  93.2788390 122.6100320  34.2951260  93.9213700
 126.6083660  31.7148630  94.8575580 127.2113030  32.2868840  95.3324100
 125.8676650  32.2788070  94.6349480 129.7518260  32.1170190  90.1315860
 129.9468890  33.0153640  90.3983290 128.9648130  31.8857270  90.6248810
 116.5479550  47.7983360  90.5708480 116.0227170  48.1791390  89.8670440
 116.4724130  48.4234130  91.2918190 117.9370020  33.4630960  89.1692170
 118.4662780  32.6760760  89.0400120 118.5698340  34.1422150  89.4027700
 120.1307860  33.2006100  92.2237560 119.5010600  32.4993410  92.3907690
 119.5913000  33.9610230  92.0070720 123.0699810  49.8145330 104.8948170
 123.9967120  49.5789600 104.9384130 123.0550240  50.6417330 104.4134200
 131.3044870  49.3570900  91.8922420 131.4797060  48.6708640  91.2483340
 130.6066440  49.8817950  91.4999090 120.2563420  32.4790080 104.6590050
 119.9747690  32.9823680 103.8950870 120.6383120  31.6811830 104.2932180
 119.1472520  49.7465740  89.4457730 119.8791340  49.4625020  88.8981620
 119.4066190  49.5079020  90.3357110 118.3087310  45.8630470  89.4504060
 117.6796190  46.3315570  89.9989890 118.4235140  45.0179690  89.8850250
 126.8578880  31.8943660 105.2370520 126.7444330  32.2138270 106.1322040
 127.6748620  32.2956170 104.9407800 129.6377370  49.0415190 104.7189210
 130.4302690  48.5464420 104.5115170 129.9310520  49.7205330 105.3264820
 123.8955070  41.6915150  77.4814530 123.1197170  41.2115590  77.7713100
 124.5468000  41.0120800  77.3070690 117.9120900  42.0034960  78.3590290
 117.0805780  41.7483670  78.7586800 118.5201880  42.0745730  79.0948210
 117.8922160  46.0375050  78.5548310 118.1950200  45.1472790  78.3758530
 118.6365750  46.5945270  78.3270560 124.1425810  48.3833350  75.8817650
 123.5237250  48.8390850  75.3112090 124.9977590  48.5384810  75.4807350
 123.3364060  44.3672340  77.4884690 123.2672340  43.4262280  77.3273820
 124.0983920  44.4573750  78.0607260 115.5270730  34.9726860  79.8141310
 115.3473570  34.0752610  80.0944070 115.1250810  35.5198730  80.4888260
 118.4974240  35.5468350  73.1771060 118.6040990  36.4472080  73.4839820
 117.5866600  35.4986320  72.8865710 128.1493350  34.6693160  74.6481960
 128.9702970  34.1789730  74.6907440 128.1827430  35.2590820  75.4013800
 116.1457400  37.4687360  78.4223650 116.8267510  37.7325730  79.0411050
 115.8305450  36.6288230  78.7561660 120.3381970  38.5154720  77.5096240
 120.8460190  39.0135690  78.1501260 120.8695210  37.7389920  77.3335600
 132.4392900  36.6859910  81.2125590 131.7345070  37.0741620  80.6940700
 132.7050820  37.3810200  81.8146520 118.6218070  33.1553280  81.7759660
 118.6236510  33.6725670  80.9705560 117.7922380  32.6783460  81.7529590
 125.0089160  43.2672590  73.2749560 124.3906430  43.7322040  72.7112280
 125.5212410  43.9600070  73.6919070 119.8720920  42.7948460  79.9533160
 119.5390300  43.4217380  80.5954230 120.0487600  43.3210340  79.1734830
 128.3854830  36.6093540  77.4209500 127.6810400  36.8978430  78.0012610
 128.7466990  37.4193650  77.0609060 118.3033400  34.8663240  79.7830110
 118.6450210  35.7105290  79.4883980 117.3649210  35.0146980  79.8995450
 119.0840020  44.7629260  81.7682340 119.7014020  45.4380340  81.4866790
 118.2233140  45.1717240  81.6769840 130.0017610  46.2268670  79.6836980
 129.3181130  46.8967780  79.6753650 130.5411900  46.4249320  78.9181840
 131.4541750  36.0548330  77.8118710 130.5066660  36.0887310  77.9434140
 131.7791740  36.8687280  78.1968070 121.9861290  32.3545510  76.1074700
 122.2936270  31.7992400  75.3910200 121.0561990  32.4889970  75.9247690
 127.5376350  48.0712800  78.3982160 127.5503510  47.6675090  77.5304420
 126.9851570  48.8460090  78.2943590 126.9361790  42.9742640  79.7264770
 127.3530580  42.7602750  78.8918230 127.6601610  43.2315430  80.2973390
 124.3742050  40.4194340  72.8434820 123.4471330  40.3531720  73.0723290
 124.5266870  41.3574470  72.7290060 124.3611130  36.6911340  69.8401980
 123.4214800  36.8525300  69.9254440 124.6794390  37.4097020  69.2937970
 130.8823890  41.3729860  79.8181010 130.0542520  41.4422950  79.3431140
 131.4774370  41.9584170  79.3496840 127.8465900  38.1599180  80.7635880
 127.4337080  38.9852890  81.0175870 127.1141850  37.5744220  80.5712240
 118.6927310  37.7202290  79.4053590 119.2441900  37.8297630  78.6306840
 119.2070820  38.0939890  80.1208820 128.5366000  48.2058510  81.4516860
 128.0596560  49.0130700  81.2589470 127.8527790  47.5536840  81.6043070
 119.5398820  44.3708330  84.4401560 118.6427350  44.5948300  84.6874960
 119.5651690  44.4943270  83.4912960 126.5804040  41.2201450  70.3542820
 127.0197320  40.3823880  70.2080640 127.2932460  41.8530850  70.4406960
 124.6899420  46.1597520  74.3224060 125.1295330  46.9021850  73.9079450
 124.6286310  46.4024090  75.2463020 130.1621180  32.4744260  68.6683860
 129.8493840  32.5671090  69.5682930 130.9233650  33.0525290  68.6181290
 132.1165210  47.9670450  86.5208250 132.5924930  48.4453340  87.1997330
 132.7372370  47.8987940  85.7953750 131.5198460  45.1583300  83.6808260
 131.6461520  44.9195180  82.7625440 131.5619840  44.3267840  84.1530340
 125.3815200  48.8611300  82.2503070 125.8959870  48.7719310  83.0525500
 124.5384280  49.2071000  82.5430980 131.3722470  37.2115760  84.6458000
 130.7566740  37.7195430  84.1173460 131.0518890  36.3114090  84.5883940
 114.3748210  44.0533370  81.4724300 114.5379250  43.5838730  80.6543670
 114.8400660  43.5456930  82.1373140 123.4336790  36.0507650  82.1120190
 122.9716160  36.2590670  82.9240130 123.0314900  35.2367000  81.8090860
 128.4341300  37.2716600  83.2416850 127.5834890  36.9722350  83.5625920
 128.2743090  37.5158610  82.3300670 125.5291010  38.7718350  85.3415640
 125.8544420  37.9382100  85.0017870 126.3171340  39.2946870  85.4893970
 122.2625800  32.8049830  71.3890700 121.6379980  32.8009700  72.1144010
 122.1755920  31.9380790  70.9926670 121.1842880  33.7286460  78.3674470
 121.4815210  34.6349290  78.2866490 121.7328440  33.2405240  77.7534040
 126.1678960  38.3136070  72.8356770 125.5687850  39.0371870  72.6520390
 126.7158570  38.2512850  72.0533220 121.3780410  39.2058280  84.9026390
 121.2824010  38.2653010  84.7526790 122.2212390  39.4273350  84.5074460
 116.5090950  35.6171950  83.0560170 116.1154340  36.4647160  83.2632950
 115.8209350  34.9798320  83.2468810 123.0836000  35.7006920  86.1256910
 122.3934320  35.5079120  86.7603000 123.8268300  35.9841560  86.6581210
 113.8108000  33.5400410  77.0890250 113.5221050  34.1103270  77.8015230
 114.5553760  33.0604860  77.4521480 121.7976360  36.2159560  77.3663320
 121.8012420  35.7749510  76.5167860 122.6927480  36.5376890  77.4735140
 117.6478740  36.0986050  76.3257530 117.3078790  36.5761280  77.0824580
 116.8856060  35.6451170  75.9658630 121.8596510  37.2171640  70.3570080
 121.9809330  37.1758120  71.3055900 121.4745020  38.0795790  70.2016810
 125.8224880  34.9939040  78.3733770 125.8397620  35.4447690  79.2175620
 125.5740460  34.0944680  78.5867210 120.8718010  39.5272780  69.7553380
 120.3034910  39.0791030  69.1289290 121.5807010  39.8865560  69.2218530
 129.2495630  32.4071220  84.2120150 129.5741400  31.6760880  84.7378130
 129.2852140  32.0884860  83.3101140 122.0984330  40.2761340  79.1128730
 122.4654460  39.8019910  79.8590070 121.9089390  41.1502910  79.4537070
 114.9624820  35.0205030  75.2422200 114.6771740  34.6560700  76.0800820
 114.9003680  34.2885490  74.6285340 119.8883700  39.3169980  81.4312940
 119.5840770  40.1961960  81.6563300 120.8430160  39.3769770  81.4670380
 129.1753470  42.5196330  77.8206180 129.8952590  43.0151620  77.4302290
 128.9735290  41.8414220  77.1760050 124.6363410  33.9134290  71.9635570
 123.8228020  33.4147460  71.8880880 124.4425360  34.7532540  71.5471920
 124.5572270  42.5905390  83.7075180 124.4909580  41.6701060  83.4532770
 123.9277410  42.6880830  84.4219820 127.3511800  38.2853940  70.2597730
 128.2391420  38.5971170  70.0849070 127.3216890  37.4126190  69.8678310
 123.3472390  44.4577630  70.9385900 123.6888090  45.2019860  70.4429220
 122.5185100  44.7708750  71.3010730 129.6226070  39.5965780  69.7277590
 129.5389790  40.0280000  68.8774030 130.3420260  40.0564130  70.1604410
 130.7000210  42.0533300  82.8047560 129.9748400  42.6462080  82.6076950
 131.2275670  42.0456840  82.0060930 130.6513320  46.4508040  72.4559720
 130.0089480  45.7963660  72.7303440 130.2643980  46.8563130  71.6800390
 126.2299800  43.7793470  76.3031410 126.5823620  43.1821600  75.6432780
 125.3462130  43.4537700  76.4739660 114.4555480  40.1563980  69.2018900
 115.3250330  40.4388780  69.4854820 113.9645800  40.9699850  69.0867710
 123.9222900  47.0543530  80.5519480 124.5665120  47.2602910  81.2292900
 124.2852340  46.2931930  80.0990330 117.5202070  31.8874840  73.7949700
 117.3916700  31.8792740  74.7434620 116.6964090  32.2257930  73.4440710
 125.1954980  45.0575880  79.2696930 125.8377210  44.3569040  79.3829100
 125.7204330  45.8374320  79.0893820 126.9692600  45.8570780  82.4732990
 127.3048840  46.4437470  83.1510910 126.0492940  45.7263490  82.7030780
 114.8226730  49.3691360  69.7680530 115.1824370  49.9680700  69.1137800
 114.6819070  49.9151250  70.5415560 114.5196000  33.6465960  83.2556400
 113.8054520  33.8462880  83.8609010 114.9391040  32.8705530  83.6271200
 114.8068590  47.6346220  84.2422930 114.9159710  46.6940960  84.1018320
 114.1549150  47.9000970  83.5936660 120.8395350  46.7522560  70.5854200
 120.8305450  47.4852250  69.9698710 119.9193710  46.5054140  70.6781160
 126.0134780  36.1388270  81.0057850 126.3815600  35.3183480  81.3337420
 125.1532980  36.1990160  81.4213500 129.3796810  35.0945210  71.8145410
 128.7509970  35.1990880  71.1003640 128.8848730  35.3141990  72.6039290
 121.3480840  37.3731160  73.2303290 120.6396990  37.8417500  73.6716900
 121.6325320  36.7153170  73.8648480 122.9736770  38.7927860  81.2295820
 123.4722020  39.2673680  81.8947670 123.1159720  37.8691380  81.4365850
 125.3796270  34.0981820  74.6699080 125.2564050  34.1167950  73.7208590
 126.3280830  34.1460760  74.7897480 119.5515860  35.6816240  70.6054000
 120.4006390  36.1186390  70.5394190 119.1847130  35.9936500  71.4326060
 130.1803630  35.0095820  82.0724210 129.6777230  35.7501220  82.4118020
 130.9960290  35.3979820  81.7561000 128.4725640  40.2529000  75.5185570
 127.5315780  40.2679230  75.6933260 128.7869710  39.4664960  75.9645870
 118.4507280  41.9348600  69.0789530 119.2170550  41.8229960  69.6414960
 118.5281970  41.2386570  68.4266300 130.4751220  47.4237850  77.1939830
 130.5998640  48.2469020  77.6663640 131.3416780  47.2128580  76.8463980
 116.9527030  48.7015130  86.0542540 117.7539760  49.0227180  86.4677940
 116.4378850  48.3410710  86.7762450 121.5748460  43.9102780  68.5524880
 121.4699100  43.2955130  69.2786260 121.4072680  43.3868670  67.7687890
 121.7262780  42.5959580  84.5314110 120.9608450  43.1644580  84.4468780
 121.9078740  42.3035790  83.6382340 116.7047920  39.3318180  85.8928660
 116.7453260  39.0332050  86.8013890 117.5593420  39.7325790  85.7336180
 118.6453730  37.9110280  83.8603150 118.1150190  37.4201230  83.2326490
 119.3141800  38.3394480  83.3261080 122.9953950  40.9551340  68.3009270
 123.5159610  40.2400360  67.9350420 123.6422350  41.5937210  68.6009780
 127.5431790  42.3779740  83.6244340 127.9572810  42.5324820  84.4734760
 126.6082790  42.5034960  83.7870120 128.0153960  39.7175900  85.6283490
 128.5974730  38.9628220  85.5403970 128.1915730  40.2483340  84.8514970
 119.1326030  34.8772650  83.9400440 119.0382900  34.2593400  83.2151310
 118.5523420  35.6038940  83.7130350 121.8987470  33.4345890  80.9727830
 121.4504770  33.4570150  80.1273380 121.2652670  33.0364910  81.5698130
 122.3047020  42.3300220  81.5940270 122.7235130  43.1732950  81.4216510
 121.3855650  42.4672260  81.3647050 124.6410920  40.0616400  82.9778110
 124.7607130  39.4657540  83.7172950 125.5004920  40.0986090  82.5579410
 126.9798820  40.6153590  81.5540620 126.4534040  41.1396210  80.9505760
 127.3230160  41.2480980  82.1850350 119.3785210  38.0046960  67.9990330
 119.1774270  37.1414320  68.3603670 119.2077260  37.9180320  67.0611930
 121.4079690  36.6037750  84.2353930 121.9979380  36.2953600  84.9231750
 120.5899930  36.1317500  84.3913830 126.2273120  36.2203560  84.4686950
 125.5388640  35.5585100  84.4036940 126.9479140  35.7741830  84.9135410
 126.8573520  32.8155190  70.5277210 127.1375810  31.9723090  70.8836630
 126.0839250  33.0478300  71.0415960 118.1768010  35.1047580  67.9868210
 118.4793910  35.1115010  67.0787360 118.9162600  34.7545440  68.4835870
 121.3952940  34.0482200  68.9724410 121.0474940  33.3706190  68.3926860
 121.5965710  33.5871710  69.7867800 130.5396330  47.5666620  83.2977210
 129.9398320  47.6259180  82.5541130 130.6690230  46.6271600  83.4274060
 131.2354240  42.0531920  71.1381120 131.9973150  42.6228570  71.2440810
 131.2508610  41.4859120  71.9089430 132.2414210  42.9082020  75.9823050
 132.6123040  42.1249340  75.5759020 132.8816140  43.5971120  75.8040350
 129.2247970  44.2918600  81.3953370 128.4107810  44.7215760  81.6579160
 129.6322170  44.9037010  80.7822420 131.2873410  42.3466290  68.2953640
 131.5622250  43.2545170  68.1672860 131.0984150  42.2828820  69.2315630
 127.6849020  35.3711140  69.5907270 128.1033900  35.1842120  68.7503930
 127.3785080  34.5190190  69.9010200 131.1838750  40.2835280  73.2883070
 130.8082350  39.5163210  72.8564360 130.4541870  40.6657980  73.7758000
 130.5738370  39.4306800  82.9222590 130.3424460  39.2019550  82.0220540
 130.8342920  40.3506350  82.8767480 115.3250510  37.8731510  83.8150540
 114.4306560  37.8398270  84.1544250 115.8648060  38.0718300  84.5801790
 129.0126440  34.6563230  85.7002290 129.8896620  34.6646630  86.0836290
 129.0247280  33.9194070  85.0894640 113.9496660  37.7868780  71.3114110
 113.0460740  38.0498980  71.1365770 114.4337280  38.0579950  70.5314070
 130.4589710  38.5092770  76.5890310 130.9827190  38.0155420  75.9580480
 131.0449130  38.6443130  77.3337880 130.6379430  38.5932640  80.1109860
 129.6882140  38.5596180  80.2254850 130.8192440  39.5032750  79.8759630
 116.4923870  36.8434320  69.2208490 117.2015570  36.4217540  68.7355770
 115.7763810  36.9109550  68.5891840 116.1398030  32.8973650  68.2611140
 116.8626160  33.4382590  68.5792360 116.4122550  32.6237070  67.3852680
 129.9489680  37.7666120  72.5282720 130.4448800  37.5336990  73.3131600
 129.7505750  36.9277960  72.1120360 131.3776840  36.4027070  75.0620400
 131.2676120  36.2483110  76.0002670 132.1384430  35.8748010  74.8195810
 129.7242560  32.3421200  81.5203400 130.3614780  32.9555340  81.8862590
 129.8717450  32.3781860  80.5752630 132.2667110  34.2334990  68.3026540
 133.1916420  34.1016170  68.0944830 132.2442900  34.3127810  69.2562990
 132.3405600  35.0045650  70.9283250 131.5457100  34.9390770  71.4576160
 132.5448880  35.9396290  70.9168600 117.1886590  45.4755110  85.0712270
 117.1456220  45.1048020  85.9526730 117.3197600  46.4132680  85.2114090
 123.0947040  33.4947390  84.4278500 123.0335930  34.0869220  85.1773910
 124.0347420  33.3873350  84.2828760 125.7321600  33.1517450  84.0670790
 126.3462010  33.4696740  83.4051870 126.2771160  32.6666040  84.6866650
 132.1496780  49.0509080  81.4732630 131.6555060  49.4477950  80.7559760
 131.5410070  48.4258290  81.8669910 116.2542860  31.8311710  84.1809850
 116.8025850  31.6499760  83.4175960 116.3198170  31.0405820  84.7166160
 117.0274620  48.4217360  82.1910050 116.4334940  48.2902060  82.9300090
 117.0198460  47.5855500  81.7252150 126.4729640  31.7149590  80.3940080
 125.5989480  32.0484700  80.1913010 126.3640390  31.2422770  81.2191950
 127.3801620  33.9220460  81.7781800 127.0514980  33.1072220  81.3983530
 128.3283920  33.8790270  81.6547490 129.8336230  49.6932500  78.7519370
 129.3739200  50.4448310  78.3777390 129.2048690  48.9738970  78.6934170
 116.6586850  45.7875740  81.1418090 115.9320910  45.1681030  81.0744040
 116.7196000  46.1816350  80.2716170 123.0027450  48.8929230  78.7536480
 123.2905260  48.6383530  77.8769490 123.5150670  48.3406590  79.3442050
 124.2204460  32.6319430  79.3332990 123.4376250  33.1064930  79.6129750
 123.9267390  31.7274260  79.2246170 128.7725530  33.3342530  77.3782080
 129.2133620  33.2787630  76.5303680 128.5033120  34.2500540  77.4492260
 130.6364100  32.9657770  75.3890900 130.5752500  32.0218990  75.2421920
 131.4156130  33.0737860  75.9344360 115.5644870  32.9366910  71.8546710
 116.3224230  33.0495790  71.2810740 115.1022040  33.7736110  71.8090140
 122.1058680  35.0506180  74.8449020 121.2933190  34.6763070  74.5044900
 122.6100320  34.2951260  75.1470210 126.6083660  31.7148630  76.0832090
 127.2113030  32.2868840  76.5580610 125.8676650  32.2788070  75.8605990
 129.7518260  32.1170190  71.3572370 129.9468890  33.0153640  71.6239800
 128.9648130  31.8857270  71.8505320 117.9370020  33.4630960  70.3948680
 118.4662780  32.6760760  70.2656630 118.5698340  34.1422150  70.6284210
 120.1307860  33.2006100  73.4494070 119.5010600  32.4993410  73.6164200
 119.5913000  33.9610230  73.2327230 123.0699810  49.8145330  86.1204680
 123.9967120  49.5789600  86.1640640 123.0550240  50.6417330  85.6390710
 131.3044870  49.3570900  73.1178930 131.4797060  48.6708640  72.4739850
 130.6066440  49.8817950  72.7255600 120.2563420  32.4790080  85.8846560
 119.9747690  32.9823680  85.1207380 120.6383120  31.6811830  85.5188690
 126.8578880  31.8943660  86.4627030 126.7444330  32.2138270  87.3578550
 127.6748620  32.2956170  86.1664310 129.6377370  49.0415190  85.9445720
 130.4302690  48.5464420  85.7371680 129.9310520  49.7205330  86.5521330
 125.7637030  39.9136130  56.8261770 125.6831080  38.9990740  56.5553480
 125.3501450  40.4103200  56.1201480 123.8955070  41.6915150  58.7071040
 123.1197170  41.2115590  58.9969610 124.5468000  41.0120800  58.5327200
 117.9120900  42.0034960  59.5846800 117.0805780  41.7483670  59.9843310
 118.5201880  42.0745730  60.3204720 127.9162500  46.0975340  57.4870170
 127.4544030  45.3262580  57.8157340 128.7288050  46.1241410  57.9922620
 117.8922160  46.0375050  59.7804820 118.1950200  45.1472790  59.6015040
 118.6365750  46.5945270  59.5527070 116.3212850  36.9636850  53.3689190
 115.4329550  37.3052820  53.2669070 116.6054040  36.7637170  52.4770020
 124.1425810  48.3833350  57.1074160 123.5237250  48.8390850  56.5368600
 124.9977590  48.5384810  56.7063860 115.5270730  34.9726860  61.0397820
 115.3473570  34.0752610  61.3200580 115.1250810  35.5198730  61.7144770
 124.3669230  37.1742720  58.9410130 124.7434050  36.3014600  58.8283800
 124.2688740  37.5101420  58.0500570 118.4974240  35.5468350  54.4027570
 118.6040990  36.4472080  54.7096330 117.5866600  35.4986320  54.1122220
 128.1493350  34.6693160  55.8738470 128.9702970  34.1789730  55.9163950
 128.1827430  35.2590820  56.6270310 120.3381970  38.5154720  58.7352750
 120.8460190  39.0135690  59.3757770 120.8695210  37.7389920  58.5592110
 132.4392900  36.6859910  62.4382100 131.7345070  37.0741620  61.9197210
 132.7050820  37.3810200  63.0403030 118.6218070  33.1553280  63.0016170
 118.6236510  33.6725670  62.1962070 117.7922380  32.6783460  62.9786100
 119.8720920  42.7948460  61.1789670 119.5390300  43.4217380  61.8210740
 120.0487600  43.3210340  60.3991340 128.3854830  36.6093540  58.6466010
 127.6810400  36.8978430  59.2269120 128.7466990  37.4193650  58.2865570
 118.3033400  34.8663240  61.0086620 118.6450210  35.7105290  60.7140490
 117.3649210  35.0146980  61.1251960 119.0840020  44.7629260  62.9938850
 119.7014020  45.4380340  62.7123300 118.2233140  45.1717240  62.9026350
 130.0017610  46.2268670  60.9093490 129.3181130  46.8967780  60.9010160
 130.5411900  46.4249320  60.1438350 131.4541750  36.0548330  59.0375220
 130.5066660  36.0887310  59.1690650 131.7791740  36.8687280  59.4224580
 121.9861290  32.3545510  57.3331210 122.2936270  31.7992400  56.6166710
 121.0561990  32.4889970  57.1504200 128.8321770  44.7929020  54.7128840
 128.7218100  43.8503350  54.8378260 128.8290020  45.1544660  55.5991600
 126.9361790  42.9742640  60.9521280 127.3530580  42.7602750  60.1174740
 127.6601610  43.2315430  61.5229900 124.3611130  36.6911340  51.0658490
 123.4214800  36.8525300  51.1510950 124.6794390  37.4097020  50.5194480
 130.8823890  41.3729860  61.0437520 130.0542520  41.4422950  60.5687650
 131.4774370  41.9584170  60.5753350 128.4039340  41.9814640  54.5726580
 127.7851760  41.6434190  53.9252880 128.3863790  41.3374400  55.2805770
 127.8465900  38.1599180  61.9892390 127.4337080  38.9852890  62.2432380
 127.1141850  37.5744220  61.7968750 120.4480390  44.6326640  59.0150270
 120.1508680  44.0272110  58.3358050 121.3980210  44.6703950  58.9039630
 118.6927310  37.7202290  60.6310100 119.2441900  37.8297630  59.8563350
 119.2070820  38.0939890  61.3465330 119.5398820  44.3708330  65.6658070
 118.6427350  44.5948300  65.9131470 119.5651690  44.4943270  64.7169470
 126.5804040  41.2201450  51.5799330 127.0197320  40.3823880  51.4337150
 127.2932460  41.8530850  51.6663470 118.3670040  41.2421650  64.2415440
 118.2277810  42.1144450  64.6102840 117.4851400  40.8994460  64.0963380
 130.1621180  32.4744260  49.8940370 129.8493840  32.5671090  50.7939440
 130.9233650  33.0525290  49.8437800 114.3188690  43.0119200  60.1586350
 114.3969110  43.1467970  59.2142070 114.9330370  42.3035090  60.3514470
 115.5636320  44.7119390  56.5692530 115.1564400  44.8533980  55.7146130
 116.4549330  44.4279550  56.3663740 131.5198460  45.1583300  64.9064770
 131.6461520  44.9195180  63.9881950 131.5619840  44.3267840  65.3786850
 119.8357980  48.9265170  54.6815200 119.6600460  48.0100710  54.4683000
 118.9813720  49.2852460  54.9213000 126.6245660  48.2816910  55.5390070
 127.0802610  47.5006290  55.8528690 126.9638180  48.9923730  56.0831250
 131.3722470  37.2115760  65.8714510 130.7566740  37.7195430  65.3429970
 131.0518890  36.3114090  65.8140450 114.3748210  44.0533370  62.6980810
 114.5379250  43.5838730  61.8800180 114.8400660  43.5456930  63.3629650
 119.1466980  33.1839130  57.7341380 118.7035130  33.9648670  57.4025900
 119.7051970  33.5069020  58.4412320 123.4336790  36.0507650  63.3376700
 122.9716160  36.2590670  64.1496640 123.0314900  35.2367000  63.0347370
 128.4341300  37.2716600  64.4673360 127.5834890  36.9722350  64.7882430
 128.2743090  37.5158610  63.5557180 122.2625800  32.8049830  52.6147210
 121.6379980  32.8009700  53.3400520 122.1755920  31.9380790  52.2183180
 121.1842880  33.7286460  59.5930980 121.4815210  34.6349290  59.5123000
 121.7328440  33.2405240  58.9790550 118.9381200  38.3072700  55.4622630
 118.7122120  38.0909870  56.3669250 118.1573730  38.7401160  55.1168600
 126.1678960  38.3136070  54.0613280 125.5687850  39.0371870  53.8776900
 126.7158570  38.2512850  53.2789730 121.3780410  39.2058280  66.1282900
 121.2824010  38.2653010  65.9783300 122.2212390  39.4273350  65.7330970
 124.7743830  36.9499610  56.0916560 125.1673400  37.2671810  55.2785250
 125.1360680  36.0711490  56.2061080 113.8108000  33.5400410  58.3146760
 113.5221050  34.1103270  59.0271740 114.5553760  33.0604860  58.6777990
 125.3598970  39.5405360  60.1867340 124.6280090  40.0492170  60.5357440
 124.9623310  38.7235340  59.8856120 121.7976360  36.2159560  58.5919830
 121.8012420  35.7749510  57.7424370 122.6927480  36.5376890  58.6991650
 117.6478740  36.0986050  57.5514040 117.3078790  36.5761280  58.3081090
 116.8856060  35.6451170  57.1915140 125.8224880  34.9939040  59.5990280
 125.8397620  35.4447690  60.4432130 125.5740460  34.0944680  59.8123720
 129.2495630  32.4071220  65.4376660 129.5741400  31.6760880  65.9634640
 129.2852140  32.0884860  64.5357650 115.9487190  43.4284800  64.8576620
 115.5641980  42.7878470  65.4559580 116.2599380  44.1320920  65.4271350
 122.0984330  40.2761340  60.3385240 122.4654460  39.8019910  61.0846580
 121.9089390  41.1502910  60.6793580 114.9624820  35.0205030  56.4678710
 114.6771740  34.6560700  57.3057330 114.9003680  34.2885490  55.8541850
 119.8883700  39.3169980  62.6569450 119.5840770  40.1961960  62.8819810
 120.8430160  39.3769770  62.6926890 129.1753470  42.5196330  59.0462690
 129.8952590  43.0151620  58.6558800 128.9735290  41.8414220  58.4016560
 124.6363410  33.9134290  53.1892080 123.8228020  33.4147460  53.1137390
 124.4425360  34.7532540  52.7728430 124.5572270  42.5905390  64.9331690
 124.4909580  41.6701060  64.6789280 123.9277410  42.6880830  65.6476330
 127.3511800  38.2853940  51.4854240 128.2391420  38.5971170  51.3105580
 127.3216890  37.4126190  51.0934820 118.4602890  43.1911350  56.8915110
 118.9781560  42.3879610  56.8372000 118.0086910  43.1290490  57.7331940
 123.3472390  44.4577630  52.1642410 123.6888090  45.2019860  51.6685730
 122.5185100  44.7708750  52.5267240 115.9447430  40.1572720  63.8040810
 115.5862370  40.8226570  64.3914150 115.6501990  39.3256270  64.1753430
 119.1460550  40.6156960  66.6880360 118.8460690  40.7614140  65.7908180
 119.9171790  40.0562250  66.5953750 129.6226070  39.5965780  50.9534100
 129.5389790  40.0280000  50.1030540 130.3420260  40.0564130  51.3860920
 130.7000210  42.0533300  64.0304070 129.9748400  42.6462080  63.8333460
 131.2275670  42.0456840  63.2317440 130.6513320  46.4508040  53.6816230
 130.0089480  45.7963660  53.9559950 130.2643980  46.8563130  52.9056900
 114.4555480  40.1563980  50.4275410 115.3250330  40.4388780  50.7111330
 113.9645800  40.9699850  50.3124220 123.9222900  47.0543530  61.7775990
 124.5665120  47.2602910  62.4549410 124.2852340  46.2931930  61.3246840
 117.5202070  31.8874840  55.0206210 117.3916700  31.8792740  55.9691130
 116.6964090  32.2257930  54.6697220 125.1954980  45.0575880  60.4953440
 125.8377210  44.3569040  60.6085610 125.7204330  45.8374320  60.3150330
 126.9692600  45.8570780  63.6989500 127.3048840  46.4437470  64.3767420
 126.0492940  45.7263490  63.9287290 128.6226950  43.2596440  51.8806740
 128.3348650  43.7209130  52.6684620 129.4179120  42.7994210  52.1490960
 114.8068590  47.6346220  65.4679440 114.9159710  46.6940960  65.3274830
 114.1549150  47.9000970  64.8193170 120.8395350  46.7522560  51.8110710
 120.8305450  47.4852250  51.1955220 119.9193710  46.5054140  51.9037670
 126.0134780  36.1388270  62.2314360 126.3815600  35.3183480  62.5593930
 125.1532980  36.1990160  62.6470010 129.3796810  35.0945210  53.0401920
 128.7509970  35.1990880  52.3260150 128.8848730  35.3141990  53.8295800
 121.3480840  37.3731160  54.4559800 120.6396990  37.8417500  54.8973410
 121.6325320  36.7153170  55.0904990 122.9736770  38.7927860  62.4552330
 123.4722020  39.2673680  63.1204180 123.1159720  37.8691380  62.6622360
 125.3796270  34.0981820  55.8955590 125.2564050  34.1167950  54.9465100
 126.3280830  34.1460760  56.0153990 122.4673060  49.3337120  55.1683570
 122.7214560  49.2958510  54.2462940 121.5185540  49.2070450  55.1611820
 119.5515860  35.6816240  51.8310510 120.4006390  36.1186390  51.7650700
 119.1847130  35.9936500  52.6582570 130.1803630  35.0095820  63.2980720
 129.6777230  35.7501220  63.6374530 130.9960290  35.3979820  62.9817510
 128.4725640  40.2529000  56.7442080 127.5315780  40.2679230  56.9189770
 128.7869710  39.4664960  57.1902380 130.4751220  47.4237850  58.4196340
 130.5998640  48.2469020  58.8920150 131.3416780  47.2128580  58.0720490
 117.9468750  49.5169060  58.0913470 118.6831230  48.9684520  58.3622040
 118.3309670  50.3825070  57.9519460 116.9527030  48.7015130  67.2799050
 117.7539760  49.0227180  67.6934450 116.4378850  48.3410710  68.0018960
 121.0571060  48.6899370  49.9139040 121.8499670  48.9788200  49.4620830
 120.5375410  48.2591540  49.2351520 130.1101230  47.9169500  51.3375780
 129.8242740  47.5034640  50.5229960 129.9120780  48.8457210  51.2176300
 114.6724840  41.1888590  66.2235100 115.1763860  40.6095870  66.7951330
 113.9332260  41.4728820  66.7611470 121.7262780  42.5959580  65.7570620
 120.9608450  43.1644580  65.6725290 121.9078740  42.3035790  64.8638850
 124.8151190  42.9722810  50.3823380 124.2661290  43.4192110  51.0266120
 125.4370450  42.4672060  50.9061050 116.7047920  39.3318180  67.1185170
 116.7453260  39.0332050  68.0270400 117.5593420  39.7325790  66.9592690
 127.5431790  42.3779740  64.8500850 127.9572810  42.5324820  65.6991270
 126.6082790  42.5034960  65.0126630 128.0153960  39.7175900  66.8540000
 128.5974730  38.9628220  66.7660480 128.1915730  40.2483340  66.0771480
 121.8987470  33.4345890  62.1984340 121.4504770  33.4570150  61.3529890
 121.2652670  33.0364910  62.7954640 122.3047020  42.3300220  62.8196780
 122.7235130  43.1732950  62.6473020 121.3855650  42.4672260  62.5903560
 124.6410920  40.0616400  64.2034620 124.7607130  39.4657540  64.9429460
 125.5004920  40.0986090  63.7835920 126.9798820  40.6153590  62.7797130
 126.4534040  41.1396210  62.1762270 127.3230160  41.2480980  63.4106860
 121.4079690  36.6037750  65.4610440 121.9979380  36.2953600  66.1488260
 120.5899930  36.1317500  65.6170340 126.8573520  32.8155190  51.7533720
 127.1375810  31.9723090  52.1093140 126.0839250  33.0478300  52.2672470
 118.1768010  35.1047580  49.2124720 118.4793910  35.1115010  48.3043870
 118.9162600  34.7545440  49.7092380 123.0116650  49.8704440  64.1941160
 122.9375350  50.7739580  64.5013530 122.1095490  49.5516340  64.1663230
 121.3952940  34.0482200  50.1980920 121.0474940  33.3706190  49.6183370
 121.5965710  33.5871710  51.0124310 123.5601980  49.0362950  51.8167520
 124.4552770  49.3747920  51.8386280 123.5919610  48.3142360  51.1891800
 117.1998140  44.4090000  50.0454520 117.6373010  44.9519670  50.7012100
 117.6845870  43.5836950  50.0550860 114.4143940  47.1979030  57.4974780
 114.7446950  46.3300090  57.2653420 114.8434940  47.4037550  58.3279740
 119.0105860  45.5288040  55.1576750 118.7101400  45.4053010  56.0580660
 118.9043350  44.6696630  54.7492480 114.9034150  48.0649620  60.2356410
 114.4665140  48.2450420  61.0680560 115.4711830  48.8224240  60.0938130
 131.7797780  45.3084440  49.8603430 130.9490740  45.3761090  50.3310660
 131.9569610  46.1988560  49.5570290 131.2354240  42.0531920  52.3637630
 131.9973150  42.6228570  52.4697320 131.2508610  41.4859120  53.1345940
 132.2414210  42.9082020  57.2079560 132.6123040  42.1249340  56.8015530
 132.8816140  43.5971120  57.0296860 129.2247970  44.2918600  62.6209880
 128.4107810  44.7215760  62.8835670 129.6322170  44.9037010  62.0078930
 131.2873410  42.3466290  49.5210150 131.5622250  43.2545170  49.3929370
 131.0984150  42.2828820  50.4572140 127.6849020  35.3711140  50.8163780
 128.1033900  35.1842120  49.9760440 127.3785080  34.5190190  51.1266710
 131.1838750  40.2835280  54.5139580 130.8082350  39.5163210  54.0820870
 130.4541870  40.6657980  55.0014510 115.7734510  40.9622420  61.1348630
 116.1407550  40.8749820  62.0144650 115.2045330  40.1988970  61.0355490
 130.5738370  39.4306800  64.1479100 130.3424460  39.2019550  63.2477050
 130.8342920  40.3506350  64.1023990 129.0126440  34.6563230  66.9258800
 129.8896620  34.6646630  67.3092800 129.0247280  33.9194070  66.3151150
 113.9496660  37.7868780  52.5370620 113.0460740  38.0498980  52.3622280
 114.4337280  38.0579950  51.7570580 130.4589710  38.5092770  57.8146820
 130.9827190  38.0155420  57.1836990 131.0449130  38.6443130  58.5594390
 130.6379430  38.5932640  61.3366370 129.6882140  38.5596180  61.4511360
 130.8192440  39.5032750  61.1016140 116.4923870  36.8434320  50.4465000
 117.2015570  36.4217540  49.9612280 115.7763810  36.9109550  49.8148350
 116.1398030  32.8973650  49.4867650 116.8626160  33.4382590  49.8048870
 116.4122550  32.6237070  48.6109190 129.9489680  37.7666120  53.7539230
 130.4448800  37.5336990  54.5388110 129.7505750  36.9277960  53.3376870
 131.3776840  36.4027070  56.2876910 131.2676120  36.2483110  57.2259180
 132.1384430  35.8748010  56.0452320 129.7242560  32.3421200  62.7459910
 130.3614780  32.9555340  63.1119100 129.8717450  32.3781860  61.8009140
 132.2667110  34.2334990  49.5283050 133.1916420  34.1016170  49.3201340
 132.2442900  34.3127810  50.4819500 132.3405600  35.0045650  52.1539760
 131.5457100  34.9390770  52.6832670 132.5448880  35.9396290  52.1425110
 129.2824020  49.0437200  56.1478150 129.8783090  48.7221770  55.4712570
 129.5402170  48.5709020  56.9391420 117.1886590  45.4755110  66.2968780
 117.1456220  45.1048020  67.1783240 117.3197600  46.4132680  66.4370600
 120.8892620  47.0314700  61.8978500 120.6483980  47.2989260  61.0109020
 121.8295260  47.2020430  61.9529360 123.0947040  33.4947390  65.6535010
 123.0335930  34.0869220  66.4030420 124.0347420  33.3873350  65.5085270
 125.7321600  33.1517450  65.2927300 126.3462010  33.4696740  64.6308380
 126.2771160  32.6666040  65.9123160 116.2542860  31.8311710  65.4066360
 116.8025850  31.6499760  64.6432470 116.3198170  31.0405820  65.9422670
 117.0274620  48.4217360  63.4166560 116.4334940  48.2902060  64.1556600
 117.0198460  47.5855500  62.9508660 126.4729640  31.7149590  61.6196590
 125.5989480  32.0484700  61.4169520 126.3640390  31.2422770  62.4448460
 127.3801620  33.9220460  63.0038310 127.0514980  33.1072220  62.6240040
 128.3283920  33.8790270  62.8804000 116.6586850  45.7875740  62.3674600
 115.9320910  45.1681030  62.3000550 116.7196000  46.1816350  61.4972680
 120.2631950  48.0020740  59.1524010 120.7796970  47.3908100  58.6272270
 120.9129330  48.5049520  59.6435020 123.0027450  48.8929230  59.9792990
 123.2905260  48.6383530  59.1026000 123.5150670  48.3406590  60.5698560
 124.2204460  32.6319430  60.5589500 123.4376250  33.1064930  60.8386260
 123.9267390  31.7274260  60.4502680 128.7725530  33.3342530  58.6038590
 129.2133620  33.2787630  57.7560190 128.5033120  34.2500540  58.6748770
 130.6364100  32.9657770  56.6147410 130.5752500  32.0218990  56.4678430
 131.4156130  33.0737860  57.1600870 115.5644870  32.9366910  53.0803220
 116.3224230  33.0495790  52.5067250 115.1022040  33.7736110  53.0346650
 122.1058680  35.0506180  56.0705530 121.2933190  34.6763070  55.7301410
 122.6100320  34.2951260  56.3726720 126.6083660  31.7148630  57.3088600
 127.2113030  32.2868840  57.7837120 125.8676650  32.2788070  57.0862500
 129.7518260  32.1170190  52.5828880 129.9468890  33.0153640  52.8496310
 128.9648130  31.8857270  53.0761830 117.9370020  33.4630960  51.6205190
 118.4662780  32.6760760  51.4913140 118.5698340  34.1422150  51.8540720
 120.1307860  33.2006100  54.6750580 119.5010600  32.4993410  54.8420710
 119.5913000  33.9610230  54.4583740 131.3044870  49.3570900  54.3435440
 131.4797060  48.6708640  53.6996360 130.6066440  49.8817950  53.9512110
 120.2563420  32.4790080  67.1103070 119.9747690  32.9823680  66.3463890
 120.6383120  31.6811830  66.7445200 119.1472520  49.7465740  51.8970750
 119.8791340  49.4625020  51.3494640 119.4066190  49.5079020  52.7870130
 118.3087310  45.8630470  51.9017080 117.6796190  46.3315570  52.4502910
 118.4235140  45.0179690  52.3363270 126.8578880  31.8943660  67.6883540
 126.7444330  32.2138270  68.5835060 127.6748620  32.2956170  67.3920820
 125.7637030  39.9136130  38.0518280 125.6831080  38.9990740  37.7809990
 125.3501450  40.4103200  37.3457990 123.8955070  41.6915150  39.9327550
 123.1197170  41.2115590  40.2226120 124.5468000  41.0120800  39.7583710
 117.9120900  42.0034960  40.8103310 117.0805780  41.7483670  41.2099820
 118.5201880  42.0745730  41.5461230 127.9162500  46.0975340  38.7126680
 127.4544030  45.3262580  39.0413850 128.7288050  46.1241410  39.2179130
 117.8922160  46.0375050  41.0061330 118.1950200  45.1472790  40.8271550
 118.6365750  46.5945270  40.7783580 116.3212850  36.9636850  34.5945700
 115.4329550  37.3052820  34.4925580 116.6054040  36.7637170  33.7026530
 114.2845860  39.5642500  40.4785400 114.8561970  38.7964700  40.4789040
 114.2847400  39.8631260  39.5692010 124.1425810  48.3833350  38.3330670
 123.5237250  48.8390850  37.7625110 124.9977590  48.5384810  37.9320370
 123.3364060  44.3672340  39.9397710 123.2672340  43.4262280  39.7786840
 124.0983920  44.4573750  40.5120280 115.5270730  34.9726860  42.2654330
 115.3473570  34.0752610  42.5457090 115.1250810  35.5198730  42.9401280
 124.3669230  37.1742720  40.1666640 124.7434050  36.3014600  40.0540310
 124.2688740  37.5101420  39.2757080 118.4974240  35.5468350  35.6284080
 118.6040990  36.4472080  35.9352840 117.5866600  35.4986320  35.3378730
 128.1493350  34.6693160  37.0994980 128.9702970  34.1789730  37.1420460
 128.1827430  35.2590820  37.8526820 116.1457400  37.4687360  40.8736670
 116.8267510  37.7325730  41.4924070 115.8305450  36.6288230  41.2074680
 120.3381970  38.5154720  39.9609260 120.8460190  39.0135690  40.6014280
 120.8695210  37.7389920  39.7848620 132.4392900  36.6859910  43.6638610
 131.7345070  37.0741620  43.1453720 132.7050820  37.3810200  44.2659540
 118.6218070  33.1553280  44.2272680 118.6236510  33.6725670  43.4218580
 117.7922380  32.6783460  44.2042610 125.0089160  43.2672590  35.7262580
 124.3906430  43.7322040  35.1625300 125.5212410  43.9600070  36.1432090
 119.8720920  42.7948460  42.4046180 119.5390300  43.4217380  43.0467250
 120.0487600  43.3210340  41.6247850 128.3854830  36.6093540  39.8722520
 127.6810400  36.8978430  40.4525630 128.7466990  37.4193650  39.5122080
 118.3033400  34.8663240  42.2343130 118.6450210  35.7105290  41.9397000
 117.3649210  35.0146980  42.3508470 119.0840020  44.7629260  44.2195360
 119.7014020  45.4380340  43.9379810 118.2233140  45.1717240  44.1282860
 114.3772360  43.9529120  33.1002210 114.0000340  44.4416220  32.3687110
 114.6345430  44.6254400  33.7308740 130.0017610  46.2268670  42.1350000
 129.3181130  46.8967780  42.1266670 130.5411900  46.4249320  41.3694860
 131.4541750  36.0548330  40.2631730 130.5066660  36.0887310  40.3947160
 131.7791740  36.8687280  40.6481090 121.9861290  32.3545510  38.5587720
 122.2936270  31.7992400  37.8423220 121.0561990  32.4889970  38.3760710
 127.5376350  48.0712800  40.8495180 127.5503510  47.6675090  39.9817440
 126.9851570  48.8460090  40.7456610 128.8321770  44.7929020  35.9385350
 128.7218100  43.8503350  36.0634770 128.8290020  45.1544660  36.8248110
 126.9361790  42.9742640  42.1777790 127.3530580  42.7602750  41.3431250
 127.6601610  43.2315430  42.7486410 124.3742050  40.4194340  35.2947840
 123.4471330  40.3531720  35.5236310 124.5266870  41.3574470  35.1803080
 124.3611130  36.6911340  32.2915000 123.4214800  36.8525300  32.3767460
 124.6794390  37.4097020  31.7450990 130.8823890  41.3729860  42.2694030
 130.0542520  41.4422950  41.7944160 131.4774370  41.9584170  41.8009860
 128.4039340  41.9814640  35.7983090 127.7851760  41.6434190  35.1509390
 128.3863790  41.3374400  36.5062280 127.8465900  38.1599180  43.2148900
 127.4337080  38.9852890  43.4688890 127.1141850  37.5744220  43.0225260
 119.9798690  40.9459080  38.0767570 119.5755690  40.2336330  37.5813470
 120.0661810  40.6012320  38.9655610 120.4480390  44.6326640  40.2406780
 120.1508680  44.0272110  39.5614560 121.3980210  44.6703950  40.1296140
 118.6927310  37.7202290  41.8566610 119.2441900  37.8297630  41.0819860
 119.2070820  38.0939890  42.5721840 128.5366000  48.2058510  43.9029880
 128.0596560  49.0130700  43.7102490 127.8527790  47.5536840  44.0556090
 119.5398820  44.3708330  46.8914580 118.6427350  44.5948300  47.1387980
 119.5651690  44.4943270  45.9425980 126.5804040  41.2201450  32.8055840
 127.0197320  40.3823880  32.6593660 127.2932460  41.8530850  32.8919980
 118.3670040  41.2421650  45.4671950 118.2277810  42.1144450  45.8359350
 117.4851400  40.8994460  45.3219890 124.6899420  46.1597520  36.7737080
 125.1295330  46.9021850  36.3592470 124.6286310  46.4024090  37.6976040
 120.1650390  47.1843350  47.6757100 120.1365820  47.5886300  46.8085530
 120.0015360  46.2553710  47.5128700 130.1621180  32.4744260  31.1196880
 129.8493840  32.5671090  32.0195950 130.9233650  33.0525290  31.0694310
 116.6803320  39.8404060  35.5774220 116.5600920  40.5666150  34.9655490
 116.3704210  39.0706970  35.1002130 132.1165210  47.9670450  48.9721270
 132.5924930  48.4453340  49.6510350 132.7372370  47.8987940  48.2466770
 114.3188690  43.0119200  41.3842860 114.3969110  43.1467970  40.4398580
 114.9330370  42.3035090  41.5770980 115.5636320  44.7119390  37.7949040
 115.1564400  44.8533980  36.9402640 116.4549330  44.4279550  37.5920250
 131.5198460  45.1583300  46.1321280 131.6461520  44.9195180  45.2138460
 131.5619840  44.3267840  46.6043360 127.3569600  49.1466640  34.1300090
 127.1970740  48.8569580  35.0281920 127.1916310  48.3706770  33.5945320
 119.8357980  48.9265170  35.9071710 119.6600460  48.0100710  35.6939510
 118.9813720  49.2852460  36.1469510 127.0595730  46.6554200  32.6898090
 126.3660890  46.6531490  32.0300370 127.8018590  46.2313520  32.2592260
 126.6245660  48.2816910  36.7646580 127.0802610  47.5006290  37.0785200
 126.9638180  48.9923730  37.3087760 131.3722470  37.2115760  47.0971020
 130.7566740  37.7195430  46.5686480 131.0518890  36.3114090  47.0396960
 114.3748210  44.0533370  43.9237320 114.5379250  43.5838730  43.1056690
 114.8400660  43.5456930  44.5886160 119.1466980  33.1839130  38.9597890
 118.7035130  33.9648670  38.6282410 119.7051970  33.5069020  39.6668830
 123.4336790  36.0507650  44.5633210 122.9716160  36.2590670  45.3753150
 123.0314900  35.2367000  44.2603880 128.4341300  37.2716600  45.6929870
 127.5834890  36.9722350  46.0138940 128.2743090  37.5158610  44.7813690
 125.5291010  38.7718350  47.7928660 125.8544420  37.9382100  47.4530890
 126.3171340  39.2946870  47.9406990 122.2625800  32.8049830  33.8403720
 121.6379980  32.8009700  34.5657030 122.1755920  31.9380790  33.4439690
 121.1842880  33.7286460  40.8187490 121.4815210  34.6349290  40.7379510
 121.7328440  33.2405240  40.2047060 118.9381200  38.3072700  36.6879140
 118.7122120  38.0909870  37.5925760 118.1573730  38.7401160  36.3425110
 126.1678960  38.3136070  35.2869790 125.5687850  39.0371870  35.1033410
 126.7158570  38.2512850  34.5046240 124.7743830  36.9499610  37.3173070
 125.1673400  37.2671810  36.5041760 125.1360680  36.0711490  37.4317590
 116.5090950  35.6171950  45.5073190 116.1154340  36.4647160  45.7145970
 115.8209350  34.9798320  45.6981830 123.0836000  35.7006920  48.5769930
 122.3934320  35.5079120  49.2116020 123.8268300  35.9841560  49.1094230
 113.8108000  33.5400410  39.5403270 113.5221050  34.1103270  40.2528250
 114.5553760  33.0604860  39.9034500 113.9978230  37.4820530  30.7505990
 113.9152900  38.4251290  30.8920980 113.6461290  37.3395440  29.8718340
 125.3598970  39.5405360  41.4123850 124.6280090  40.0492170  41.7613950
 124.9623310  38.7235340  41.1112630 121.7976360  36.2159560  39.8176340
 121.8012420  35.7749510  38.9680880 122.6927480  36.5376890  39.9248160
 117.6478740  36.0986050  38.7770550 117.3078790  36.5761280  39.5337600
 116.8856060  35.6451170  38.4171650 121.8596510  37.2171640  32.8083100
 121.9809330  37.1758120  33.7568920 121.4745020  38.0795790  32.6529830
 125.8224880  34.9939040  40.8246790 125.8397620  35.4447690  41.6688640
 125.5740460  34.0944680  41.0380230 120.8718010  39.5272780  32.2066400
 120.3034910  39.0791030  31.5802310 121.5807010  39.8865560  31.6731550
 129.2495630  32.4071220  46.6633170 129.5741400  31.6760880  47.1891150
 129.2852140  32.0884860  45.7614160 122.0984330  40.2761340  41.5641750
 122.4654460  39.8019910  42.3103090 121.9089390  41.1502910  41.9050090
 114.9624820  35.0205030  37.6935220 114.6771740  34.6560700  38.5313840
 114.9003680  34.2885490  37.0798360 119.8883700  39.3169980  43.8825960
 119.5840770  40.1961960  44.1076320 120.8430160  39.3769770  43.9183400
 118.4165490  43.5230970  34.4792810 117.6427750  42.9828590  34.3191530
 119.1460120  43.0037580  34.1410570 129.1753470  42.5196330  40.2719200
 129.8952590  43.0151620  39.8815310 128.9735290  41.8414220  39.6273070
 124.6363410  33.9134290  34.4148590 123.8228020  33.4147460  34.3393900
 124.4425360  34.7532540  33.9984940 124.5572270  42.5905390  46.1588200
 124.4909580  41.6701060  45.9045790 123.9277410  42.6880830  46.8732840
 127.3511800  38.2853940  32.7110750 128.2391420  38.5971170  32.5362090
 127.3216890  37.4126190  32.3191330 118.4602890  43.1911350  38.1171620
 118.9781560  42.3879610  38.0628510 118.0086910  43.1290490  38.9588450
 123.3472390  44.4577630  33.3898920 123.6888090  45.2019860  32.8942240
 122.5185100  44.7708750  33.7523750 115.9447430  40.1572720  45.0297320
 115.5862370  40.8226570  45.6170660 115.6501990  39.3256270  45.4009940
 129.6226070  39.5965780  32.1790610 129.5389790  40.0280000  31.3287050
 130.3420260  40.0564130  32.6117430 130.7000210  42.0533300  45.2560580
 129.9748400  42.6462080  45.0589970 131.2275670  42.0456840  44.4573950
 130.6513320  46.4508040  34.9072740 130.0089480  45.7963660  35.1816460
 130.2643980  46.8563130  34.1313410 126.2299800  43.7793470  38.7544430
 126.5823620  43.1821600  38.0945800 125.3462130  43.4537700  38.9252680
 122.3163080  44.5391160  36.1614840 123.0034210  45.0860370  36.5422430
 121.5295500  45.0831890  36.1964450 114.4555480  40.1563980  31.6531920
 115.3250330  40.4388780  31.9367840 113.9645800  40.9699850  31.5380730
 121.6190290  41.5437190  35.7740200 122.0753070  42.3542440  36.0000390
 121.2678500  41.2260330  36.6058690 123.9222900  47.0543530  43.0032500
 124.5665120  47.2602910  43.6805920 124.2852340  46.2931930  42.5503350
 117.5202070  31.8874840  36.2462720 117.3916700  31.8792740  37.1947640
 116.6964090  32.2257930  35.8953730 125.1954980  45.0575880  41.7209950
 125.8377210  44.3569040  41.8342120 125.7204330  45.8374320  41.5406840
 129.0410700  45.3424500  31.4449090 128.8148280  44.6254940  32.0373730
 128.6506900  45.0936940  30.6070840 126.9692600  45.8570780  44.9246010
 127.3048840  46.4437470  45.6023930 126.0492940  45.7263490  45.1543800
 114.8226730  49.3691360  32.2193550 115.1824370  49.9680700  31.5650820
 114.6819070  49.9151250  32.9928580 114.5196000  33.6465960  45.7069420
 113.8054520  33.8462880  46.3122030 114.9391040  32.8705530  46.0784220
 128.6226950  43.2596440  33.1063250 128.3348650  43.7209130  33.8941130
 129.4179120  42.7994210  33.3747470 120.8395350  46.7522560  33.0367220
 120.8305450  47.4852250  32.4211730 119.9193710  46.5054140  33.1294180
 116.4401990  41.9737450  33.7813980 115.8329940  42.7136350  33.7909280
 116.9151340  42.0636810  32.9552180 126.0134780  36.1388270  43.4570870
 126.3815600  35.3183480  43.7850440 125.1532980  36.1990160  43.8726520
 129.3796810  35.0945210  34.2658430 128.7509970  35.1990880  33.5516660
 128.8848730  35.3141990  35.0552310 123.8254950  46.8150800  31.6992410
 123.9266930  46.6114790  30.7694390 122.9256690  46.5609080  31.9040190
 121.3480840  37.3731160  35.6816310 120.6396990  37.8417500  36.1229920
 121.6325320  36.7153170  36.3161500 122.9736770  38.7927860  43.6808840
 123.4722020  39.2673680  44.3460690 123.1159720  37.8691380  43.8878870
 125.3796270  34.0981820  37.1212100 125.2564050  34.1167950  36.1721610
 126.3280830  34.1460760  37.2410500 122.4673060  49.3337120  36.3940080
 122.7214560  49.2958510  35.4719450 121.5185540  49.2070450  36.3868330
 119.5515860  35.6816240  33.0567020 120.4006390  36.1186390  32.9907210
 119.1847130  35.9936500  33.8839080 130.1803630  35.0095820  44.5237230
 129.6777230  35.7501220  44.8631040 130.9960290  35.3979820  44.2074020
 128.4725640  40.2529000  37.9698590 127.5315780  40.2679230  38.1446280
 128.7869710  39.4664960  38.4158890 118.4507280  41.9348600  31.5302550
 119.2170550  41.8229960  32.0927980 118.5281970  41.2386570  30.8779320
 117.1454040  39.3673670  32.2135440 117.2257630  38.4201180  32.3252840
 118.0373790  39.6980550  32.3196100 130.4751220  47.4237850  39.6452850
 130.5998640  48.2469020  40.1176660 131.3416780  47.2128580  39.2977000
 117.9468750  49.5169060  39.3169980 118.6831230  48.9684520  39.5878550
 118.3309670  50.3825070  39.1775970 114.8314230  45.5842630  35.1911490
 113.9054010  45.8263770  35.1816900 115.2970660  46.4116890  35.0696240
 121.0571060  48.6899370  31.1395550 121.8499670  48.9788200  30.6877340
 120.5375410  48.2591540  30.4608030 130.1101230  47.9169500  32.5632290
 129.8242740  47.5034640  31.7486470 129.9120780  48.8457210  32.4432810
 114.6724840  41.1888590  47.4491610 115.1763860  40.6095870  48.0207840
 113.9332260  41.4728820  47.9867980 121.5748460  43.9102780  31.0037900
 121.4699100  43.2955130  31.7299280 121.4072680  43.3868670  30.2200910
 121.7262780  42.5959580  46.9827130 120.9608450  43.1644580  46.8981800
 121.9078740  42.3035790  46.0895360 124.8151190  42.9722810  31.6079890
 124.2661290  43.4192110  32.2522630 125.4370450  42.4672060  32.1317560
 128.8686130  44.3264910  47.5402150 129.6095600  44.6640670  47.0369610
 128.1058810  44.4956970  46.9871920 116.7047920  39.3318180  48.3441680
 116.7453260  39.0332050  49.2526910 117.5593420  39.7325790  48.1849200
 120.4826310  41.9313730  33.5045190 120.9042730  41.7653600  34.3476580
 120.6077150  41.1213960  33.0100330 118.6453730  37.9110280  46.3116170
 118.1150190  37.4201230  45.6839510 119.3141800  38.3394480  45.7774100
 122.9953950  40.9551340  30.7522290 123.5159610  40.2400360  30.3863440
 123.6422350  41.5937210  31.0522800 127.5431790  42.3779740  46.0757360
 127.9572810  42.5324820  46.9247780 126.6082790  42.5034960  46.2383140
 128.0153960  39.7175900  48.0796510 128.5974730  38.9628220  47.9916990
 128.1915730  40.2483340  47.3027990 119.1326030  34.8772650  46.3913460
 119.0382900  34.2593400  45.6664330 118.5523420  35.6038940  46.1643370
 121.8987470  33.4345890  43.4240850 121.4504770  33.4570150  42.5786400
 121.2652670  33.0364910  44.0211150 122.3047020  42.3300220  44.0453290
 122.7235130  43.1732950  43.8729530 121.3855650  42.4672260  43.8160070
 124.6410920  40.0616400  45.4291130 124.7607130  39.4657540  46.1685970
 125.5004920  40.0986090  45.0092430 126.9798820  40.6153590  44.0053640
 126.4534040  41.1396210  43.4018780 127.3230160  41.2480980  44.6363370
 119.3785210  38.0046960  30.4503350 119.1774270  37.1414320  30.8116690
 119.2077260  37.9180320  29.5124950 120.1554440  48.6353230  45.1611020
 119.6175530  49.3599290  44.8419720 120.4088400  48.1583570  44.3708360
 121.4079690  36.6037750  46.6866950 121.9979380  36.2953600  47.3744770
 120.5899930  36.1317500  46.8426850 126.2273120  36.2203560  46.9199970
 125.5388640  35.5585100  46.8549960 126.9479140  35.7741830  47.3648430
 126.8573520  32.8155190  32.9790230 127.1375810  31.9723090  33.3349650
 126.0839250  33.0478300  33.4928980 118.1768010  35.1047580  30.4381230
 118.4793910  35.1115010  29.5300380 118.9162600  34.7545440  30.9348890
 121.3952940  34.0482200  31.4237430 121.0474940  33.3706190  30.8439880
 121.5965710  33.5871710  32.2380820 123.5601980  49.0362950  33.0424030
 124.4552770  49.3747920  33.0642790 123.5919610  48.3142360  32.4148310
 117.1998140  44.4090000  31.2711030 117.6373010  44.9519670  31.9268610
 117.6845870  43.5836950  31.2807370 114.4143940  47.1979030  38.7231290
 114.7446950  46.3300090  38.4909930 114.8434940  47.4037550  39.5536250
 119.0105860  45.5288040  36.3833260 118.7101400  45.4053010  37.2837170
 118.9043350  44.6696630  35.9748990 114.9034150  48.0649620  41.4612920
 114.4665140  48.2450420  42.2937070 115.4711830  48.8224240  41.3194640
 130.5396330  47.5666620  45.7490230 129.9398320  47.6259180  45.0054150
 130.6690230  46.6271600  45.8787080 131.7797780  45.3084440  31.0859940
 130.9490740  45.3761090  31.5567170 131.9569610  46.1988560  30.7826800
 131.2354240  42.0531920  33.5894140 131.9973150  42.6228570  33.6953830
 131.2508610  41.4859120  34.3602450 114.7358580  40.5769850  37.8201800
 114.0807420  40.3081490  37.1761500 115.5736530  40.4674330  37.3703780
 132.2414210  42.9082020  38.4336070 132.6123040  42.1249340  38.0272040
 132.8816140  43.5971120  38.2553370 129.2247970  44.2918600  43.8466390
 128.4107810  44.7215760  44.1092180 129.6322170  44.9037010  43.2335440
 131.2873410  42.3466290  30.7466660 131.5622250  43.2545170  30.6185880
 131.0984150  42.2828820  31.6828650 127.6849020  35.3711140  32.0420290
 128.1033900  35.1842120  31.2016950 127.3785080  34.5190190  32.3523220
 131.1838750  40.2835280  35.7396090 130.8082350  39.5163210  35.3077380
 130.4541870  40.6657980  36.2271020 115.7734510  40.9622420  42.3605140
 116.1407550  40.8749820  43.2401160 115.2045330  40.1988970  42.2612000
 130.5738370  39.4306800  45.3735610 130.3424460  39.2019550  44.4733560
 130.8342920  40.3506350  45.3280500 129.0126440  34.6563230  48.1515310
 129.8896620  34.6646630  48.5349310 129.0247280  33.9194070  47.5407660
 113.9496660  37.7868780  33.7627130 113.0460740  38.0498980  33.5878790
 114.4337280  38.0579950  32.9827090 130.4589710  38.5092770  39.0403330
 130.9827190  38.0155420  38.4093500 131.0449130  38.6443130  39.7850900
 130.6379430  38.5932640  42.5622880 129.6882140  38.5596180  42.6767870
 130.8192440  39.5032750  42.3272650 116.4923870  36.8434320  31.6721510
 117.2015570  36.4217540  31.1868790 115.7763810  36.9109550  31.0404860
 116.1398030  32.8973650  30.7124160 116.8626160  33.4382590  31.0305380
 116.4122550  32.6237070  29.8365700 129.9489680  37.7666120  34.9795740
 130.4448800  37.5336990  35.7644620 129.7505750  36.9277960  34.5633380
 115.8290220  32.1479840  40.6146780 116.4766410  31.5977220  40.1741940
 116.2492060  32.4022990  41.4362590 131.3776840  36.4027070  37.5133420
 131.2676120  36.2483110  38.4515690 132.1384430  35.8748010  37.2708830
 129.7242560  32.3421200  43.9716420 130.3614780  32.9555340  44.3375610
 129.8717450  32.3781860  43.0265650 132.2667110  34.2334990  30.7539560
 133.1916420  34.1016170  30.5457850 132.2442900  34.3127810  31.7076010
 132.3405600  35.0045650  33.3796270 131.5457100  34.9390770  33.9089180
 132.5448880  35.9396290  33.3681620 129.2824020  49.0437200  37.3734660
 129.8783090  48.7221770  36.6969080 129.5402170  48.5709020  38.1647930
 115.5822220  32.3035510  43.3572100 115.2337040  32.7599330  44.1230280
 115.2509920  31.4092640  43.4394530 120.8892620  47.0314700  43.1235010
 120.6483980  47.2989260  42.2365530 121.8295260  47.2020430  43.1785870
 123.0947040  33.4947390  46.8791520 123.0335930  34.0869220  47.6286930
 124.0347420  33.3873350  46.7341780 125.7321600  33.1517450  46.5183810
 126.3462010  33.4696740  45.8564890 126.2771160  32.6666040  47.1379670
 132.1496780  49.0509080  43.9245650 131.6555060  49.4477950  43.2072780
 131.5410070  48.4258290  44.3182930 116.2542860  31.8311710  46.6322870
 116.8025850  31.6499760  45.8688980 116.3198170  31.0405820  47.1679180
 117.0274620  48.4217360  44.6423070 116.4334940  48.2902060  45.3813110
 117.0198460  47.5855500  44.1765170 126.4729640  31.7149590  42.8453100
 125.5989480  32.0484700  42.6426030 126.3640390  31.2422770  43.6704970
 127.3801620  33.9220460  44.2294820 127.0514980  33.1072220  43.8496550
 128.3283920  33.8790270  44.1060510 129.8336230  49.6932500  41.2032390
 129.3739200  50.4448310  40.8290410 129.2048690  48.9738970  41.1447190
 116.6586850  45.7875740  43.5931110 115.9320910  45.1681030  43.5257060
 116.7196000  46.1816350  42.7229190 120.2631950  48.0020740  40.3780520
 120.7796970  47.3908100  39.8528780 120.9129330  48.5049520  40.8691530
 124.2204460  32.6319430  41.7846010 123.4376250  33.1064930  42.0642770
 123.9267390  31.7274260  41.6759190 128.7725530  33.3342530  39.8295100
 129.2133620  33.2787630  38.9816700 128.5033120  34.2500540  39.9005280
 130.6364100  32.9657770  37.8403920 130.5752500  32.0218990  37.6934940
 131.4156130  33.0737860  38.3857380 114.9416850  49.1050130  36.8027870
 114.7738890  48.4720810  37.5009760 114.0751360  49.3109530  36.4522060
 115.5644870  32.9366910  34.3059730 116.3224230  33.0495790  33.7323760
 115.1022040  33.7736110  34.2603160 122.1058680  35.0506180  37.2962040
 121.2933190  34.6763070  36.9557920 122.6100320  34.2951260  37.5983230
 126.6083660  31.7148630  38.5345110 127.2113030  32.2868840  39.0093630
 125.8676650  32.2788070  38.3119010 129.7518260  32.1170190  33.8085390
 129.9468890  33.0153640  34.0752820 128.9648130  31.8857270  34.3018340
 116.5479550  47.7983360  34.2478010 116.0227170  48.1791390  33.5439970
 116.4724130  48.4234130  34.9687720 117.9370020  33.4630960  32.8461700
 118.4662780  32.6760760  32.7169650 118.5698340  34.1422150  33.0797230
 120.1307860  33.2006100  35.9007090 119.5010600  32.4993410  36.0677220
 119.5913000  33.9610230  35.6840250 131.3044870  49.3570900  35.5691950
 131.4797060  48.6708640  34.9252870 130.6066440  49.8817950  35.1768620
 120.2563420  32.4790080  48.3359580 119.9747690  32.9823680  47.5720400
 120.6383120  31.6811830  47.9701710 119.1472520  49.7465740  33.1227260
 119.8791340  49.4625020  32.5751150 119.4066190  49.5079020  34.0126640
 118.3087310  45.8630470  33.1273590 117.6796190  46.3315570  33.6759420
 118.4235140  45.0179690  33.5619780 126.8578880  31.8943660  48.9140050
 126.7444330  32.2138270  49.8091570 127.6748620  32.2956170  48.6177330
 125.7637030  39.9136130  19.2774790 125.6831080  38.9990740  19.0066500
 125.3501450  40.4103200  18.5714500 123.8955070  41.6915150  21.1584060
 123.1197170  41.2115590  21.4482630 124.5468000  41.0120800  20.9840220
 117.9120900  42.0034960  22.0359820 117.0805780  41.7483670  22.4356330
 118.5201880  42.0745730  22.7717740 127.9162500  46.0975340  19.9383190
 127.4544030  45.3262580  20.2670360 128.7288050  46.1241410  20.4435640
 117.8922160  46.0375050  22.2317840 118.1950200  45.1472790  22.0528060
 118.6365750  46.5945270  22.0040090 116.3212850  36.9636850  15.8202210
 115.4329550  37.3052820  15.7182090 116.6054040  36.7637170  14.9283040
 114.2845860  39.5642500  21.7041910 114.8561970  38.7964700  21.7045550
 114.2847400  39.8631260  20.7948520 124.1425810  48.3833350  19.5587180
 123.5237250  48.8390850  18.9881620 124.9977590  48.5384810  19.1576880
 123.3364060  44.3672340  21.1654220 123.2672340  43.4262280  21.0043350
 124.0983920  44.4573750  21.7376790 115.5270730  34.9726860  23.4910840
 115.3473570  34.0752610  23.7713600 115.1250810  35.5198730  24.1657790
 124.3669230  37.1742720  21.3923150 124.7434050  36.3014600  21.2796820
 124.2688740  37.5101420  20.5013590 118.4974240  35.5468350  16.8540590
 118.6040990  36.4472080  17.1609350 117.5866600  35.4986320  16.5635240
 128.1493350  34.6693160  18.3251490 128.9702970  34.1789730  18.3676970
 128.1827430  35.2590820  19.0783330 116.1457400  37.4687360  22.0993180
 116.8267510  37.7325730  22.7180580 115.8305450  36.6288230  22.4331190
 120.3381970  38.5154720  21.1865770 120.8460190  39.0135690  21.8270790
 120.8695210  37.7389920  21.0105130 132.4392900  36.6859910  24.8895120
 131.7345070  37.0741620  24.3710230 132.7050820  37.3810200  25.4916050
 118.6218070  33.1553280  25.4529190 118.6236510  33.6725670  24.6475090
 117.7922380  32.6783460  25.4299120 125.0089160  43.2672590  16.9519090
 124.3906430  43.7322040  16.3881810 125.5212410  43.9600070  17.3688600
 119.8720920  42.7948460  23.6302690 119.5390300  43.4217380  24.2723760
 120.0487600  43.3210340  22.8504360 128.3854830  36.6093540  21.0979030
 127.6810400  36.8978430  21.6782140 128.7466990  37.4193650  20.7378590
 118.3033400  34.8663240  23.4599640 118.6450210  35.7105290  23.1653510
 117.3649210  35.0146980  23.5764980 119.0840020  44.7629260  25.4451870
 119.7014020  45.4380340  25.1636320 118.2233140  45.1717240  25.3539370
 114.3772360  43.9529120  14.3258720 114.0000340  44.4416220  13.5943620
 114.6345430  44.6254400  14.9565250 130.0017610  46.2268670  23.3606510
 129.3181130  46.8967780  23.3523180 130.5411900  46.4249320  22.5951370
 131.4541750  36.0548330  21.4888240 130.5066660  36.0887310  21.6203670
 131.7791740  36.8687280  21.8737600 121.9861290  32.3545510  19.7844230
 122.2936270  31.7992400  19.0679730 121.0561990  32.4889970  19.6017220
 127.5376350  48.0712800  22.0751690 127.5503510  47.6675090  21.2073950
 126.9851570  48.8460090  21.9713120 128.8321770  44.7929020  17.1641860
 128.7218100  43.8503350  17.2891280 128.8290020  45.1544660  18.0504620
 126.9361790  42.9742640  23.4034300 127.3530580  42.7602750  22.5687760
 127.6601610  43.2315430  23.9742920 124.3742050  40.4194340  16.5204350
 123.4471330  40.3531720  16.7492820 124.5266870  41.3574470  16.4059590
 124.3611130  36.6911340  13.5171510 123.4214800  36.8525300  13.6023970
 124.6794390  37.4097020  12.9707500 130.8823890  41.3729860  23.4950540
 130.0542520  41.4422950  23.0200670 131.4774370  41.9584170  23.0266370
 128.4039340  41.9814640  17.0239600 127.7851760  41.6434190  16.3765900
 128.3863790  41.3374400  17.7318790 127.8465900  38.1599180  24.4405410
 127.4337080  38.9852890  24.6945400 127.1141850  37.5744220  24.2481770
 119.9798690  40.9459080  19.3024080 119.5755690  40.2336330  18.8069980
 120.0661810  40.6012320  20.1912120 120.4480390  44.6326640  21.4663290
 120.1508680  44.0272110  20.7871070 121.3980210  44.6703950  21.3552650
 118.6927310  37.7202290  23.0823120 119.2441900  37.8297630  22.3076370
 119.2070820  38.0939890  23.7978350 128.5366000  48.2058510  25.1286390
 128.0596560  49.0130700  24.9359000 127.8527790  47.5536840  25.2812600
 119.5398820  44.3708330  28.1171090 118.6427350  44.5948300  28.3644490
 119.5651690  44.4943270  27.1682490 126.5804040  41.2201450  14.0312350
 127.0197320  40.3823880  13.8850170 127.2932460  41.8530850  14.1176490
 118.3670040  41.2421650  26.6928460 118.2277810  42.1144450  27.0615860
 117.4851400  40.8994460  26.5476400 124.6899420  46.1597520  17.9993590
 125.1295330  46.9021850  17.5848980 124.6286310  46.4024090  18.9232550
 120.1650390  47.1843350  28.9013610 120.1365820  47.5886300  28.0342040
 120.0015360  46.2553710  28.7385210 130.1621180  32.4744260  12.3453390
 129.8493840  32.5671090  13.2452460 130.9233650  33.0525290  12.2950820
 116.6803320  39.8404060  16.8030730 116.5600920  40.5666150  16.1912000
 116.3704210  39.0706970  16.3258640 132.1165210  47.9670450  30.1977780
 132.5924930  48.4453340  30.8766860 132.7372370  47.8987940  29.4723280
 114.3188690  43.0119200  22.6099370 114.3969110  43.1467970  21.6655090
 114.9330370  42.3035090  22.8027490 115.5636320  44.7119390  19.0205550
 115.1564400  44.8533980  18.1659150 116.4549330  44.4279550  18.8176760
 131.5198460  45.1583300  27.3577790 131.6461520  44.9195180  26.4394970
 131.5619840  44.3267840  27.8299870 125.3815200  48.8611300  25.9272600
 125.8959870  48.7719310  26.7295030 124.5384280  49.2071000  26.2200510
 127.3569600  49.1466640  15.3556600 127.1970740  48.8569580  16.2538430
 127.1916310  48.3706770  14.8201830 119.8357980  48.9265170  17.1328220
 119.6600460  48.0100710  16.9196020 118.9813720  49.2852460  17.3726020
 127.0595730  46.6554200  13.9154600 126.3660890  46.6531490  13.2556880
 127.8018590  46.2313520  13.4848770 126.6245660  48.2816910  17.9903090
 127.0802610  47.5006290  18.3041710 126.9638180  48.9923730  18.5344270
 131.3722470  37.2115760  28.3227530 130.7566740  37.7195430  27.7942990
 131.0518890  36.3114090  28.2653470 114.3748210  44.0533370  25.1493830
 114.5379250  43.5838730  24.3313200 114.8400660  43.5456930  25.8142670
 119.1466980  33.1839130  20.1854400 118.7035130  33.9648670  19.8538920
 119.7051970  33.5069020  20.8925340 123.4336790  36.0507650  25.7889720
 122.9716160  36.2590670  26.6009660 123.0314900  35.2367000  25.4860390
 128.4341300  37.2716600  26.9186380 127.5834890  36.9722350  27.2395450
 128.2743090  37.5158610  26.0070200 125.5291010  38.7718350  29.0185170
 125.8544420  37.9382100  28.6787400 126.3171340  39.2946870  29.1663500
 122.2625800  32.8049830  15.0660230 121.6379980  32.8009700  15.7913540
 122.1755920  31.9380790  14.6696200 121.1842880  33.7286460  22.0444000
 121.4815210  34.6349290  21.9636020 121.7328440  33.2405240  21.4303570
 118.9381200  38.3072700  17.9135650 118.7122120  38.0909870  18.8182270
 118.1573730  38.7401160  17.5681620 126.1678960  38.3136070  16.5126300
 125.5687850  39.0371870  16.3289920 126.7158570  38.2512850  15.7302750
 121.3780410  39.2058280  28.5795920 121.2824010  38.2653010  28.4296320
 122.2212390  39.4273350  28.1843990 124.7743830  36.9499610  18.5429580
 125.1673400  37.2671810  17.7298270 125.1360680  36.0711490  18.6574100
 116.5090950  35.6171950  26.7329700 116.1154340  36.4647160  26.9402480
 115.8209350  34.9798320  26.9238340 123.0836000  35.7006920  29.8026440
 122.3934320  35.5079120  30.4372530 123.8268300  35.9841560  30.3350740
 113.8108000  33.5400410  20.7659780 113.5221050  34.1103270  21.4784760
 114.5553760  33.0604860  21.1291010 113.9978230  37.4820530  11.9762500
 113.9152900  38.4251290  12.1177490 113.6461290  37.3395440  11.0974850
 125.3598970  39.5405360  22.6380360 124.6280090  40.0492170  22.9870460
 124.9623310  38.7235340  22.3369140 121.7976360  36.2159560  21.0432850
 121.8012420  35.7749510  20.1937390 122.6927480  36.5376890  21.1504670
 117.6478740  36.0986050  20.0027060 117.3078790  36.5761280  20.7594110
 116.8856060  35.6451170  19.6428160 121.8596510  37.2171640  14.0339610
 121.9809330  37.1758120  14.9825430 121.4745020  38.0795790  13.8786340
 125.8224880  34.9939040  22.0503300 125.8397620  35.4447690  22.8945150
 125.5740460  34.0944680  22.2636740 120.8718010  39.5272780  13.4322910
 120.3034910  39.0791030  12.8058820 121.5807010  39.8865560  12.8988060
 129.2495630  32.4071220  27.8889680 129.5741400  31.6760880  28.4147660
 129.2852140  32.0884860  26.9870670 115.9487190  43.4284800  27.3089640
 115.5641980  42.7878470  27.9072600 116.2599380  44.1320920  27.8784370
 122.0984330  40.2761340  22.7898260 122.4654460  39.8019910  23.5359600
 121.9089390  41.1502910  23.1306600 114.9624820  35.0205030  18.9191730
 114.6771740  34.6560700  19.7570350 114.9003680  34.2885490  18.3054870
 119.8883700  39.3169980  25.1082470 119.5840770  40.1961960  25.3332830
 120.8430160  39.3769770  25.1439910 118.4165490  43.5230970  15.7049320
 117.6427750  42.9828590  15.5448040 119.1460120  43.0037580  15.3667080
 129.1753470  42.5196330  21.4975710 129.8952590  43.0151620  21.1071820
 128.9735290  41.8414220  20.8529580 124.6363410  33.9134290  15.6405100
 123.8228020  33.4147460  15.5650410 124.4425360  34.7532540  15.2241450
 124.5572270  42.5905390  27.3844710 124.4909580  41.6701060  27.1302300
 123.9277410  42.6880830  28.0989350 127.3511800  38.2853940  13.9367260
 128.2391420  38.5971170  13.7618600 127.3216890  37.4126190  13.5447840
 118.4602890  43.1911350  19.3428130 118.9781560  42.3879610  19.2885020
 118.0086910  43.1290490  20.1844960 123.3472390  44.4577630  14.6155430
 123.6888090  45.2019860  14.1198750 122.5185100  44.7708750  14.9780260
 115.9447430  40.1572720  26.2553830 115.5862370  40.8226570  26.8427170
 115.6501990  39.3256270  26.6266450 119.1460550  40.6156960  29.1393380
 118.8460690  40.7614140  28.2421200 119.9171790  40.0562250  29.0466770
 124.4889000  45.4125960  27.1348510 124.5033540  44.4806920  26.9167420
 123.7814100  45.4985720  27.7738280 129.6226070  39.5965780  13.4047120
 129.5389790  40.0280000  12.5543560 130.3420260  40.0564130  13.8373940
 130.7000210  42.0533300  26.4817090 129.9748400  42.6462080  26.2846480
 131.2275670  42.0456840  25.6830460 130.6513320  46.4508040  16.1329250
 130.0089480  45.7963660  16.4072970 130.2643980  46.8563130  15.3569920
 126.2299800  43.7793470  19.9800940 126.5823620  43.1821600  19.3202310
 125.3462130  43.4537700  20.1509190 122.3163080  44.5391160  17.3871350
 123.0034210  45.0860370  17.7678940 121.5295500  45.0831890  17.4220960
 114.4555480  40.1563980  12.8788430 115.3250330  40.4388780  13.1624350
 113.9645800  40.9699850  12.7637240 121.6190290  41.5437190  16.9996710
 122.0753070  42.3542440  17.2256900 121.2678500  41.2260330  17.8315200
 123.9222900  47.0543530  24.2289010 124.5665120  47.2602910  24.9062430
 124.2852340  46.2931930  23.7759860 117.5202070  31.8874840  17.4719230
 117.3916700  31.8792740  18.4204150 116.6964090  32.2257930  17.1210240
 125.1954980  45.0575880  22.9466460 125.8377210  44.3569040  23.0598630
 125.7204330  45.8374320  22.7663350 129.0410700  45.3424500  12.6705600
 128.8148280  44.6254940  13.2630240 128.6506900  45.0936940  11.8327350
 126.9692600  45.8570780  26.1502520 127.3048840  46.4437470  26.8280440
 126.0492940  45.7263490  26.3800310 114.8226730  49.3691360  13.4450060
 115.1824370  49.9680700  12.7907330 114.6819070  49.9151250  14.2185090
 114.5196000  33.6465960  26.9325930 113.8054520  33.8462880  27.5378540
 114.9391040  32.8705530  27.3040730 128.6226950  43.2596440  14.3319760
 128.3348650  43.7209130  15.1197640 129.4179120  42.7994210  14.6003980
 114.8068590  47.6346220  27.9192460 114.9159710  46.6940960  27.7787850
 114.1549150  47.9000970  27.2706190 122.7981180  45.9062110  29.3190580
 122.4778050  45.1871350  29.8636270 122.1239540  46.5817180  29.3926640
 120.8395350  46.7522560  14.2623730 120.8305450  47.4852250  13.6468240
 119.9193710  46.5054140  14.3550690 116.4401990  41.9737450  15.0070490
 115.8329940  42.7136350  15.0165790 116.9151340  42.0636810  14.1808690
 126.0134780  36.1388270  24.6827380 126.3815600  35.3183480  25.0106950
 125.1532980  36.1990160  25.0983030 129.3796810  35.0945210  15.4914940
 128.7509970  35.1990880  14.7773170 128.8848730  35.3141990  16.2808820
 123.8254950  46.8150800  12.9248920 123.9266930  46.6114790  11.9950900
 122.9256690  46.5609080  13.1296700 121.3480840  37.3731160  16.9072820
 120.6396990  37.8417500  17.3486430 121.6325320  36.7153170  17.5418010
 122.9736770  38.7927860  24.9065350 123.4722020  39.2673680  25.5717200
 123.1159720  37.8691380  25.1135380 125.3796270  34.0981820  18.3468610
 125.2564050  34.1167950  17.3978120 126.3280830  34.1460760  18.4667010
 122.4673060  49.3337120  17.6196590 122.7214560  49.2958510  16.6975960
 121.5185540  49.2070450  17.6124840 119.5515860  35.6816240  14.2823530
 120.4006390  36.1186390  14.2163720 119.1847130  35.9936500  15.1095590
 130.1803630  35.0095820  25.7493740 129.6777230  35.7501220  26.0887550
 130.9960290  35.3979820  25.4330530 128.4725640  40.2529000  19.1955100
 127.5315780  40.2679230  19.3702790 128.7869710  39.4664960  19.6415400
 118.4507280  41.9348600  12.7559060 119.2170550  41.8229960  13.3184490
 118.5281970  41.2386570  12.1035830 117.1454040  39.3673670  13.4391950
 117.2257630  38.4201180  13.5509350 118.0373790  39.6980550  13.5452610
 130.4751220  47.4237850  20.8709360 130.5998640  48.2469020  21.3433170
 131.3416780  47.2128580  20.5233510 117.9468750  49.5169060  20.5426490
 118.6831230  48.9684520  20.8135060 118.3309670  50.3825070  20.4032480
 114.8314230  45.5842630  16.4168000 113.9054010  45.8263770  16.4073410
 115.2970660  46.4116890  16.2952750 116.9527030  48.7015130  29.7312070
 117.7539760  49.0227180  30.1447470 116.4378850  48.3410710  30.4531980
 121.0571060  48.6899370  12.3652060 121.8499670  48.9788200  11.9133850
 120.5375410  48.2591540  11.6864540 125.7891660  44.8095000  29.6787480
 125.1829820  44.8326600  28.9383230 125.4845770  44.0778040  30.2154730
 127.2192030  48.5375290  28.2896890 128.1713780  48.4533310  28.2397130
 127.0720250  49.2017000  28.9630680 130.1101230  47.9169500  13.7888800
 129.8242740  47.5034640  12.9742980 129.9120780  48.8457210  13.6689320
 114.6724840  41.1888590  28.6748120 115.1763860  40.6095870  29.2464350
 113.9332260  41.4728820  29.2124490 121.5748460  43.9102780  12.2294410
 121.4699100  43.2955130  12.9555790 121.4072680  43.3868670  11.4457420
 121.7262780  42.5959580  28.2083640 120.9608450  43.1644580  28.1238310
 121.9078740  42.3035790  27.3151870 124.8151190  42.9722810  12.8336400
 124.2661290  43.4192110  13.4779140 125.4370450  42.4672060  13.3574070
 128.8686130  44.3264910  28.7658660 129.6095600  44.6640670  28.2626120
 128.1058810  44.4956970  28.2128430 116.7047920  39.3318180  29.5698190
 116.7453260  39.0332050  30.4783420 117.5593420  39.7325790  29.4105710
 120.4826310  41.9313730  14.7301700 120.9042730  41.7653600  15.5733090
 120.6077150  41.1213960  14.2356840 118.6453730  37.9110280  27.5372680
 118.1150190  37.4201230  26.9096020 119.3141800  38.3394480  27.0030610
 122.9953950  40.9551340  11.9778800 123.5159610  40.2400360  11.6119950
 123.6422350  41.5937210  12.2779310 127.5431790  42.3779740  27.3013870
 127.9572810  42.5324820  28.1504290 126.6082790  42.5034960  27.4639650
 128.0153960  39.7175900  29.3053020 128.5974730  38.9628220  29.2173500
 128.1915730  40.2483340  28.5284500 119.1326030  34.8772650  27.6169970
 119.0382900  34.2593400  26.8920840 118.5523420  35.6038940  27.3899880
 121.8987470  33.4345890  24.6497360 121.4504770  33.4570150  23.8042910
 121.2652670  33.0364910  25.2467660 122.3047020  42.3300220  25.2709800
 122.7235130  43.1732950  25.0986040 121.3855650  42.4672260  25.0416580
 124.6410920  40.0616400  26.6547640 124.7607130  39.4657540  27.3942480
 125.5004920  40.0986090  26.2348940 126.9798820  40.6153590  25.2310150
 126.4534040  41.1396210  24.6275290 127.3230160  41.2480980  25.8619880
 119.3785210  38.0046960  11.6759860 119.1774270  37.1414320  12.0373200
 119.2077260  37.9180320  10.7381460 120.1554440  48.6353230  26.3867530
 119.6175530  49.3599290  26.0676230 120.4088400  48.1583570  25.5964870
 121.4079690  36.6037750  27.9123460 121.9979380  36.2953600  28.6001280
 120.5899930  36.1317500  28.0683360 126.2273120  36.2203560  28.1456480
 125.5388640  35.5585100  28.0806470 126.9479140  35.7741830  28.5904940
 126.8573520  32.8155190  14.2046740 127.1375810  31.9723090  14.5606160
 126.0839250  33.0478300  14.7185490 118.1768010  35.1047580  11.6637740
 118.4793910  35.1115010  10.7556890 118.9162600  34.7545440  12.1605400
 123.0116650  49.8704440  26.6454180 122.9375350  50.7739580  26.9526550
 122.1095490  49.5516340  26.6176250 121.3952940  34.0482200  12.6493940
 121.0474940  33.3706190  12.0696390 121.5965710  33.5871710  13.4637330
 123.5601980  49.0362950  14.2680540 124.4552770  49.3747920  14.2899300
 123.5919610  48.3142360  13.6404820 117.1998140  44.4090000  12.4967540
 117.6373010  44.9519670  13.1525120 117.6845870  43.5836950  12.5063880
 114.4143940  47.1979030  19.9487800 114.7446950  46.3300090  19.7166440
 114.8434940  47.4037550  20.7792760 119.0105860  45.5288040  17.6089770
 118.7101400  45.4053010  18.5093680 118.9043350  44.6696630  17.2005500
 114.9034150  48.0649620  22.6869430 114.4665140  48.2450420  23.5193580
 115.4711830  48.8224240  22.5451150 130.5396330  47.5666620  26.9746740
 129.9398320  47.6259180  26.2310660 130.6690230  46.6271600  27.1043590
 131.7797780  45.3084440  12.3116450 130.9490740  45.3761090  12.7823680
 131.9569610  46.1988560  12.0083310 131.2354240  42.0531920  14.8150650
 131.9973150  42.6228570  14.9210340 131.2508610  41.4859120  15.5858960
 114.7358580  40.5769850  19.0458310 114.0807420  40.3081490  18.4018010
 115.5736530  40.4674330  18.5960290 132.2414210  42.9082020  19.6592580
 132.6123040  42.1249340  19.2528550 132.8816140  43.5971120  19.4809880
 129.2247970  44.2918600  25.0722900 128.4107810  44.7215760  25.3348690
 129.6322170  44.9037010  24.4591950 131.2873410  42.3466290  11.9723170
 131.5622250  43.2545170  11.8442390 131.0984150  42.2828820  12.9085160
 127.6849020  35.3711140  13.2676800 128.1033900  35.1842120  12.4273460
 127.3785080  34.5190190  13.5779730 131.1838750  40.2835280  16.9652600
 130.8082350  39.5163210  16.5333890 130.4541870  40.6657980  17.4527530
 115.7734510  40.9622420  23.5861650 116.1407550  40.8749820  24.4657670
 115.2045330  40.1988970  23.4868510 130.5738370  39.4306800  26.5992120
 130.3424460  39.2019550  25.6990070 130.8342920  40.3506350  26.5537010
 115.3250510  37.8731510  27.4920070 114.4306560  37.8398270  27.8313780
 115.8648060  38.0718300  28.2571320 129.0126440  34.6563230  29.3771820
 129.8896620  34.6646630  29.7605820 129.0247280  33.9194070  28.7664170
 113.9496660  37.7868780  14.9883640 113.0460740  38.0498980  14.8135300
 114.4337280  38.0579950  14.2083600 130.4589710  38.5092770  20.2659840
 130.9827190  38.0155420  19.6350010 131.0449130  38.6443130  21.0107410
 130.6379430  38.5932640  23.7879390 129.6882140  38.5596180  23.9024380
 130.8192440  39.5032750  23.5529160 116.4923870  36.8434320  12.8978020
 117.2015570  36.4217540  12.4125300 115.7763810  36.9109550  12.2661370
 116.1398030  32.8973650  11.9380670 116.8626160  33.4382590  12.2561890
 116.4122550  32.6237070  11.0622210 129.9489680  37.7666120  16.2052250
 130.4448800  37.5336990  16.9901130 129.7505750  36.9277960  15.7889890
 115.8290220  32.1479840  21.8403290 116.4766410  31.5977220  21.3998450
 116.2492060  32.4022990  22.6619100 131.3776840  36.4027070  18.7389930
 131.2676120  36.2483110  19.6772200 132.1384430  35.8748010  18.4965340
 129.7242560  32.3421200  25.1972930 130.3614780  32.9555340  25.5632120
 129.8717450  32.3781860  24.2522160 132.2667110  34.2334990  11.9796070
 133.1916420  34.1016170  11.7714360 132.2442900  34.3127810  12.9332520
 132.3405600  35.0045650  14.6052780 131.5457100  34.9390770  15.1345690
 132.5448880  35.9396290  14.5938130 129.2824020  49.0437200  18.5991170
 129.8783090  48.7221770  17.9225590 129.5402170  48.5709020  19.3904440
 115.5822220  32.3035510  24.5828610 115.2337040  32.7599330  25.3486790
 115.2509920  31.4092640  24.6651040 117.1886590  45.4755110  28.7481800
 117.1456220  45.1048020  29.6296260 117.3197600  46.4132680  28.8883620
 120.8892620  47.0314700  24.3491520 120.6483980  47.2989260  23.4622040
 121.8295260  47.2020430  24.4042380 123.0947040  33.4947390  28.1048030
 123.0335930  34.0869220  28.8543440 124.0347420  33.3873350  27.9598290
 125.7321600  33.1517450  27.7440320 126.3462010  33.4696740  27.0821400
 126.2771160  32.6666040  28.3636180 132.1496780  49.0509080  25.1502160
 131.6555060  49.4477950  24.4329290 131.5410070  48.4258290  25.5439440
 116.2542860  31.8311710  27.8579380 116.8025850  31.6499760  27.0945490
 116.3198170  31.0405820  28.3935690 117.0274620  48.4217360  25.8679580
 116.4334940  48.2902060  26.6069620 117.0198460  47.5855500  25.4021680
 126.4729640  31.7149590  24.0709610 125.5989480  32.0484700  23.8682540
 126.3640390  31.2422770  24.8961480 127.3801620  33.9220460  25.4551330
 127.0514980  33.1072220  25.0753060 128.3283920  33.8790270  25.3317020
 129.8336230  49.6932500  22.4288900 129.3739200  50.4448310  22.0546920
 129.2048690  48.9738970  22.3703700 116.6586850  45.7875740  24.8187620
 115.9320910  45.1681030  24.7513570 116.7196000  46.1816350  23.9485700
 120.2631950  48.0020740  21.6037030 120.7796970  47.3908100  21.0785290
 120.9129330  48.5049520  22.0948040 123.0027450  48.8929230  22.4306010
 123.2905260  48.6383530  21.5539020 123.5150670  48.3406590  23.0211580
 124.2204460  32.6319430  23.0102520 123.4376250  33.1064930  23.2899280
 123.9267390  31.7274260  22.9015700 128.7725530  33.3342530  21.0551610
 129.2133620  33.2787630  20.2073210 128.5033120  34.2500540  21.1261790
 130.6364100  32.9657770  19.0660430 130.5752500  32.0218990  18.9191450
 131.4156130  33.0737860  19.6113890 114.9416850  49.1050130  18.0284380
 114.7738890  48.4720810  18.7266270 114.0751360  49.3109530  17.6778570
 115.5644870  32.9366910  15.5316240 116.3224230  33.0495790  14.9580270
 115.1022040  33.7736110  15.4859670 122.1058680  35.0506180  18.5218550
 121.2933190  34.6763070  18.1814430 122.6100320  34.2951260  18.8239740
 126.6083660  31.7148630  19.7601620 127.2113030  32.2868840  20.2350140
 125.8676650  32.2788070  19.5375520 129.7518260  32.1170190  15.0341900
 129.9468890  33.0153640  15.3009330 128.9648130  31.8857270  15.5274850
 116.5479550  47.7983360  15.4734520 116.0227170  48.1791390  14.7696480
 116.4724130  48.4234130  16.1944230 117.9370020  33.4630960  14.0718210
 118.4662780  32.6760760  13.9426160 118.5698340  34.1422150  14.3053740
 120.1307860  33.2006100  17.1263600 119.5010600  32.4993410  17.2933730
 119.5913000  33.9610230  16.9096760 123.0699810  49.8145330  29.7974210
 123.9967120  49.5789600  29.8410170 123.0550240  50.6417330  29.3160240
 131.3044870  49.3570900  16.7948460 131.4797060  48.6708640  16.1509380
 130.6066440  49.8817950  16.4025130 120.2563420  32.4790080  29.5616090
 119.9747690  32.9823680  28.7976910 120.6383120  31.6811830  29.1958220
 119.1472520  49.7465740  14.3483770 119.8791340  49.4625020  13.8007660
 119.4066190  49.5079020  15.2383150 118.3087310  45.8630470  14.3530100
 117.6796190  46.3315570  14.9015930 118.4235140  45.0179690  14.7876290
 126.8578880  31.8943660  30.1396560 126.7444330  32.2138270  31.0348080
 127.6748620  32.2956170  29.8433840 129.6377370  49.0415190  29.6215250
 130.4302690  48.5464420  29.4141210 129.9310520  49.7205330  30.2290860
 123.8955070  41.6915150   2.3840570 123.1197170  41.2115590   2.6739140
 124.5468000  41.0120800   2.2096730 117.9120900  42.0034960   3.2616330
 117.0805780  41.7483670   3.6612840 118.5201880  42.0745730   3.9974250
 117.8922160  46.0375050   3.4574350 118.1950200  45.1472790   3.2784570
 118.6365750  46.5945270   3.2296600 114.2845860  39.5642500   2.9298420
 114.8561970  38.7964700   2.9302060 114.2847400  39.8631260   2.0205030
 123.3364060  44.3672340   2.3910730 123.2672340  43.4262280   2.2299860
 124.0983920  44.4573750   2.9633300 115.5270730  34.9726860   4.7167350
 115.3473570  34.0752610   4.9970110 115.1250810  35.5198730   5.3914300
 124.3669230  37.1742720   2.6179660 124.7434050  36.3014600   2.5053330
 124.2688740  37.5101420   1.7270100 116.1457400  37.4687360   3.3249690
 116.8267510  37.7325730   3.9437090 115.8305450  36.6288230   3.6587700
 120.3381970  38.5154720   2.4122280 120.8460190  39.0135690   3.0527300
 120.8695210  37.7389920   2.2361640 132.4392900  36.6859910   6.1151630
 131.7345070  37.0741620   5.5966740 132.7050820  37.3810200   6.7172560
 118.6218070  33.1553280   6.6785700 118.6236510  33.6725670   5.8731600
 117.7922380  32.6783460   6.6555630 119.8720920  42.7948460   4.8559200
 119.5390300  43.4217380   5.4980270 120.0487600  43.3210340   4.0760870
 128.3854830  36.6093540   2.3235540 127.6810400  36.8978430   2.9038650
 128.7466990  37.4193650   1.9635100 118.3033400  34.8663240   4.6856150
 118.6450210  35.7105290   4.3910020 117.3649210  35.0146980   4.8021490
 119.0840020  44.7629260   6.6708380 119.7014020  45.4380340   6.3892830
 118.2233140  45.1717240   6.5795880 130.0017610  46.2268670   4.5863020
 129.3181130  46.8967780   4.5779690 130.5411900  46.4249320   3.8207880
 131.4541750  36.0548330   2.7144750 130.5066660  36.0887310   2.8460180
 131.7791740  36.8687280   3.0994110 127.5376350  48.0712800   3.3008200
 127.5503510  47.6675090   2.4330460 126.9851570  48.8460090   3.1969630
 126.9361790  42.9742640   4.6290810 127.3530580  42.7602750   3.7944270
 127.6601610  43.2315430   5.1999430 130.8823890  41.3729860   4.7207050
 130.0542520  41.4422950   4.2457180 131.4774370  41.9584170   4.2522880
 127.8465900  38.1599180   5.6661920 127.4337080  38.9852890   5.9201910
 127.1141850  37.5744220   5.4738280 120.4480390  44.6326640   2.6919800
 120.1508680  44.0272110   2.0127580 121.3980210  44.6703950   2.5809160
 118.6927310  37.7202290   4.3079630 119.2441900  37.8297630   3.5332880
 119.2070820  38.0939890   5.0234860 128.5366000  48.2058510   6.3542900
 128.0596560  49.0130700   6.1615510 127.8527790  47.5536840   6.5069110
 119.5398820  44.3708330   9.3427600 118.6427350  44.5948300   9.5901000
 119.5651690  44.4943270   8.3939000 118.3670040  41.2421650   7.9184970
 118.2277810  42.1144450   8.2872370 117.4851400  40.8994460   7.7732910
 120.1650390  47.1843350  10.1270120 120.1365820  47.5886300   9.2598550
 120.0015360  46.2553710   9.9641720 132.1165210  47.9670450  11.4234290
 132.5924930  48.4453340  12.1023370 132.7372370  47.8987940  10.6979790
 114.3188690  43.0119200   3.8355880 114.3969110  43.1467970   2.8911600
 114.9330370  42.3035090   4.0284000 131.5198460  45.1583300   8.5834300
 131.6461520  44.9195180   7.6651480 131.5619840  44.3267840   9.0556380
 125.3815200  48.8611300   7.1529110 125.8959870  48.7719310   7.9551540
 124.5384280  49.2071000   7.4457020 131.3722470  37.2115760   9.5484040
 130.7566740  37.7195430   9.0199500 131.0518890  36.3114090   9.4909980
 114.3748210  44.0533370   6.3750340 114.5379250  43.5838730   5.5569710
 114.8400660  43.5456930   7.0399180 123.4336790  36.0507650   7.0146230
 122.9716160  36.2590670   7.8266170 123.0314900  35.2367000   6.7116900
 128.4341300  37.2716600   8.1442890 127.5834890  36.9722350   8.4651960
 128.2743090  37.5158610   7.2326710 125.5291010  38.7718350  10.2441680
 125.8544420  37.9382100   9.9043910 126.3171340  39.2946870  10.3920010
 121.1842880  33.7286460   3.2700510 121.4815210  34.6349290   3.1892530
 121.7328440  33.2405240   2.6560080 121.3780410  39.2058280   9.8052430
 121.2824010  38.2653010   9.6552830 122.2212390  39.4273350   9.4100500
 116.5090950  35.6171950   7.9586210 116.1154340  36.4647160   8.1658990
 115.8209350  34.9798320   8.1494850 123.0836000  35.7006920  11.0282950
 122.3934320  35.5079120  11.6629040 123.8268300  35.9841560  11.5607250
 113.8108000  33.5400410   1.9916290 113.5221050  34.1103270   2.7041270
 114.5553760  33.0604860   2.3547520 125.3598970  39.5405360   3.8636870
 124.6280090  40.0492170   4.2126970 124.9623310  38.7235340   3.5625650
 121.7976360  36.2159560   2.2689360 121.8012420  35.7749510   1.4193900
 122.6927480  36.5376890   2.3761180 125.8224880  34.9939040   3.2759810
 125.8397620  35.4447690   4.1201660 125.5740460  34.0944680   3.4893250
 129.2495630  32.4071220   9.1146190 129.5741400  31.6760880   9.6404170
 129.2852140  32.0884860   8.2127180 115.9487190  43.4284800   8.5346150
 115.5641980  42.7878470   9.1329110 116.2599380  44.1320920   9.1040880
 122.0984330  40.2761340   4.0154770 122.4654460  39.8019910   4.7616110
 121.9089390  41.1502910   4.3563110 119.8883700  39.3169980   6.3338980
 119.5840770  40.1961960   6.5589340 120.8430160  39.3769770   6.3696420
 129.1753470  42.5196330   2.7232220 129.8952590  43.0151620   2.3328330
 128.9735290  41.8414220   2.0786090 124.5572270  42.5905390   8.6101220
 124.4909580  41.6701060   8.3558810 123.9277410  42.6880830   9.3245860
 115.9447430  40.1572720   7.4810340 115.5862370  40.8226570   8.0683680
 115.6501990  39.3256270   7.8522960 119.1460550  40.6156960  10.3649890
 118.8460690  40.7614140   9.4677710 119.9171790  40.0562250  10.2723280
 124.4889000  45.4125960   8.3605020 124.5033540  44.4806920   8.1423930
 123.7814100  45.4985720   8.9994790 130.7000210  42.0533300   7.7073600
 129.9748400  42.6462080   7.5102990 131.2275670  42.0456840   6.9086970
 123.9222900  47.0543530   5.4545520 124.5665120  47.2602910   6.1318940
 124.2852340  46.2931930   5.0016370 125.1954980  45.0575880   4.1722970
 125.8377210  44.3569040   4.2855140 125.7204330  45.8374320   3.9919860
 126.9692600  45.8570780   7.3759030 127.3048840  46.4437470   8.0536950
 126.0492940  45.7263490   7.6056820 114.5196000  33.6465960   8.1582440
 113.8054520  33.8462880   8.7635050 114.9391040  32.8705530   8.5297240
 114.8068590  47.6346220   9.1448970 114.9159710  46.6940960   9.0044360
 114.1549150  47.9000970   8.4962700 122.7981180  45.9062110  10.5447090
 122.4778050  45.1871350  11.0892780 122.1239540  46.5817180  10.6183150
 126.0134780  36.1388270   5.9083890 126.3815600  35.3183480   6.2363460
 125.1532980  36.1990160   6.3239540 122.9736770  38.7927860   6.1321860
 123.4722020  39.2673680   6.7973710 123.1159720  37.8691380   6.3391890
 130.1803630  35.0095820   6.9750250 129.6777230  35.7501220   7.3144060
 130.9960290  35.3979820   6.6587040 130.4751220  47.4237850   2.0965870
 130.5998640  48.2469020   2.5689680 131.3416780  47.2128580   1.7490020
 117.9468750  49.5169060   1.7683000 118.6831230  48.9684520   2.0391570
 118.3309670  50.3825070   1.6288990 116.9527030  48.7015130  10.9568580
 117.7539760  49.0227180  11.3703980 116.4378850  48.3410710  11.6788490
 125.7891660  44.8095000  10.9043990 125.1829820  44.8326600  10.1639740
 125.4845770  44.0778040  11.4411240 127.2192030  48.5375290   9.5153400
 128.1713780  48.4533310   9.4653640 127.0720250  49.2017000  10.1887190
 114.6724840  41.1888590   9.9004630 115.1763860  40.6095870  10.4720860
 113.9332260  41.4728820  10.4381000 121.7262780  42.5959580   9.4340150
 120.9608450  43.1644580   9.3494820 121.9078740  42.3035790   8.5408380
 128.8686130  44.3264910   9.9915170 129.6095600  44.6640670   9.4882630
 128.1058810  44.4956970   9.4384940 116.7047920  39.3318180  10.7954700
 116.7453260  39.0332050  11.7039930 117.5593420  39.7325790  10.6362220
 118.6453730  37.9110280   8.7629190 118.1150190  37.4201230   8.1352530
 119.3141800  38.3394480   8.2287120 127.5431790  42.3779740   8.5270380
 127.9572810  42.5324820   9.3760800 126.6082790  42.5034960   8.6896160
 128.0153960  39.7175900  10.5309530 128.5974730  38.9628220  10.4430010
 128.1915730  40.2483340   9.7541010 119.1326030  34.8772650   8.8426480
 119.0382900  34.2593400   8.1177350 118.5523420  35.6038940   8.6156390
 121.8987470  33.4345890   5.8753870 121.4504770  33.4570150   5.0299420
 121.2652670  33.0364910   6.4724170 122.3047020  42.3300220   6.4966310
 122.7235130  43.1732950   6.3242550 121.3855650  42.4672260   6.2673090
 124.6410920  40.0616400   7.8804150 124.7607130  39.4657540   8.6198990
 125.5004920  40.0986090   7.4605450 126.9798820  40.6153590   6.4566660
 126.4534040  41.1396210   5.8531800 127.3230160  41.2480980   7.0876390
 120.1554440  48.6353230   7.6124040 119.6175530  49.3599290   7.2932740
 120.4088400  48.1583570   6.8221380 121.4079690  36.6037750   9.1379970
 121.9979380  36.2953600   9.8257790 120.5899930  36.1317500   9.2939870
 126.2273120  36.2203560   9.3712990 125.5388640  35.5585100   9.3062980
 126.9479140  35.7741830   9.8161450 123.0116650  49.8704440   7.8710690
 122.9375350  50.7739580   8.1783060 122.1095490  49.5516340   7.8432760
 114.9034150  48.0649620   3.9125940 114.4665140  48.2450420   4.7450090
 115.4711830  48.8224240   3.7707660 130.5396330  47.5666620   8.2003250
 129.9398320  47.6259180   7.4567170 130.6690230  46.6271600   8.3300100
 129.2247970  44.2918600   6.2979410 128.4107810  44.7215760   6.5605200
 129.6322170  44.9037010   5.6848460 115.7734510  40.9622420   4.8118160
 116.1407550  40.8749820   5.6914180 115.2045330  40.1988970   4.7125020
 130.5738370  39.4306800   7.8248630 130.3424460  39.2019550   6.9246580
 130.8342920  40.3506350   7.7793520 115.3250510  37.8731510   8.7176580
 114.4306560  37.8398270   9.0570290 115.8648060  38.0718300   9.4827830
 129.0126440  34.6563230  10.6028330 129.8896620  34.6646630  10.9862330
 129.0247280  33.9194070   9.9920680 130.6379430  38.5932640   5.0135900
 129.6882140  38.5596180   5.1280890 130.8192440  39.5032750   4.7785670
 115.8290220  32.1479840   3.0659800 116.4766410  31.5977220   2.6254960
 116.2492060  32.4022990   3.8875610 129.7242560  32.3421200   6.4229440
 130.3614780  32.9555340   6.7888630 129.8717450  32.3781860   5.4778670
 115.5822220  32.3035510   5.8085120 115.2337040  32.7599330   6.5743300
 115.2509920  31.4092640   5.8907550 117.1886590  45.4755110   9.9738310
 117.1456220  45.1048020  10.8552770 117.3197600  46.4132680  10.1140130
 120.8892620  47.0314700   5.5748030 120.6483980  47.2989260   4.6878550
 121.8295260  47.2020430   5.6298890 123.0947040  33.4947390   9.3304540
 123.0335930  34.0869220  10.0799950 124.0347420  33.3873350   9.1854800
 125.7321600  33.1517450   8.9696830 126.3462010  33.4696740   8.3077910
 126.2771160  32.6666040   9.5892690 132.1496780  49.0509080   6.3758670
 131.6555060  49.4477950   5.6585800 131.5410070  48.4258290   6.7695950
 116.2542860  31.8311710   9.0835890 116.8025850  31.6499760   8.3202000
 116.3198170  31.0405820   9.6192200 117.0274620  48.4217360   7.0936090
 116.4334940  48.2902060   7.8326130 117.0198460  47.5855500   6.6278190
 126.4729640  31.7149590   5.2966120 125.5989480  32.0484700   5.0939050
 126.3640390  31.2422770   6.1217990 127.3801620  33.9220460   6.6807840
 127.0514980  33.1072220   6.3009570 128.3283920  33.8790270   6.5573530
 129.8336230  49.6932500   3.6545410 129.3739200  50.4448310   3.2803430
 129.2048690  48.9738970   3.5960210 116.6586850  45.7875740   6.0444130
 115.9320910  45.1681030   5.9770080 116.7196000  46.1816350   5.1742210
 120.2631950  48.0020740   2.8293540 120.7796970  47.3908100   2.3041800
 120.9129330  48.5049520   3.3204550 123.0027450  48.8929230   3.6562520
 123.2905260  48.6383530   2.7795530 123.5150670  48.3406590   4.2468090
 124.2204460  32.6319430   4.2359030 123.4376250  33.1064930   4.5155790
 123.9267390  31.7274260   4.1272210 128.7725530  33.3342530   2.2808120
 129.2133620  33.2787630   1.4329720 128.5033120  34.2500540   2.3518300
 123.0699810  49.8145330  11.0230720 123.9967120  49.5789600  11.0666680
 123.0550240  50.6417330  10.5416750 120.2563420  32.4790080  10.7872600
 119.9747690  32.9823680  10.0233420 120.6383120  31.6811830  10.4214730
 126.8578880  31.8943660  11.3653070 126.7444330  32.2138270  12.2604590
 127.6748620  32.2956170  11.0690350 129.6377370  49.0415190  10.8471760
 130.4302690  48.5464420  10.6397720 129.9310520  49.7205330  11.4547370
 125.7637030  21.1392640 150.6979220 125.6831080  20.2247250 150.4270930
 125.3501450  21.6359710 149.9918930 123.8955070  22.9171660 152.5788490
 123.1197170  22.4372100 152.8687060 124.5468000  22.2377310 152.4044650
 127.9162500  27.3231850 151.3587620 127.4544030  26.5519090 151.6874790
 128.7288050  27.3497920 151.8640070 116.3212850  18.1893360 147.2406640
 115.4329550  18.5309330 147.1386520 116.6054040  17.9893680 146.3487470
 114.2845860  20.7899010 153.1246340 114.8561970  20.0221210 153.1249980
 114.2847400  21.0887770 152.2152950 124.1425810  29.6089860 150.9791610
 123.5237250  30.0647360 150.4086050 124.9977590  29.7641320 150.5781310
 123.3364060  25.5928850 152.5858650 123.2672340  24.6518790 152.4247780
 124.0983920  25.6830260 153.1581220 124.3669230  18.3999230 152.8127580
 124.7434050  17.5271110 152.7001250 124.2688740  18.7357930 151.9218020
 118.4974240  16.7724860 148.2745020 118.6040990  17.6728590 148.5813780
 117.5866600  16.7242830 147.9839670 128.1493350  15.8949670 149.7455920
 128.9702970  15.4046240 149.7881400 128.1827430  16.4847330 150.4987760
 125.0089160  24.4929100 148.3723520 124.3906430  24.9578550 147.8086240
 125.5212410  25.1856580 148.7893030 128.3854830  17.8350050 152.5183460
 127.6810400  18.1234940 153.0986570 128.7466990  18.6450160 152.1583020
 114.3772360  25.1785630 145.7463150 114.0000340  25.6672730 145.0148050
 114.6345430  25.8510910 146.3769680 121.9861290  13.5802020 151.2048660
 122.2936270  13.0248910 150.4884160 121.0561990  13.7146480 151.0221650
 128.8321770  26.0185530 148.5846290 128.7218100  25.0759860 148.7095710
 128.8290020  26.3801170 149.4709050 124.3742050  21.6450850 147.9408780
 123.4471330  21.5788230 148.1697250 124.5266870  22.5830980 147.8264020
 124.3611130  17.9167850 144.9375940 123.4214800  18.0781810 145.0228400
 124.6794390  18.6353530 144.3911930 128.4039340  23.2071150 148.4444030
 127.7851760  22.8690700 147.7970330 128.3863790  22.5630910 149.1523220
 119.9798690  22.1715590 150.7228510 119.5755690  21.4592840 150.2274410
 120.0661810  21.8268830 151.6116550 120.4480390  25.8583150 152.8867720
 120.1508680  25.2528620 152.2075500 121.3980210  25.8960460 152.7757080
 126.5804040  22.4457960 145.4516780 127.0197320  21.6080390 145.3054600
 127.2932460  23.0787360 145.5380920 124.6899420  27.3854030 149.4198020
 125.1295330  28.1278360 149.0053410 124.6286310  27.6280600 150.3436980
 130.1621180  13.7000770 143.7657820 129.8493840  13.7927600 144.6656890
 130.9233650  14.2781800 143.7155250 116.6803320  21.0660570 148.2235160
 116.5600920  21.7922660 147.6116430 116.3704210  20.2963480 147.7463070
 115.5636320  25.9375900 150.4409980 115.1564400  26.0790490 149.5863580
 116.4549330  25.6536060 150.2381190 127.3569600  30.3723150 146.7761030
 127.1970740  30.0826090 147.6742860 127.1916310  29.5963280 146.2406260
 119.8357980  30.1521680 148.5532650 119.6600460  29.2357220 148.3400450
 118.9813720  30.5108970 148.7930450 127.0595730  27.8810710 145.3359030
 126.3660890  27.8788000 144.6761310 127.8018590  27.4570030 144.9053200
 126.6245660  29.5073420 149.4107520 127.0802610  28.7262800 149.7246140
 126.9638180  30.2180240 149.9548700 119.1466980  14.4095640 151.6058830
 118.7035130  15.1905180 151.2743350 119.7051970  14.7325530 152.3129770
 122.2625800  14.0306340 146.4864660 121.6379980  14.0266210 147.2117970
 122.1755920  13.1637300 146.0900630 118.9381200  19.5329210 149.3340080
 118.7122120  19.3166380 150.2386700 118.1573730  19.9657670 148.9886050
 126.1678960  19.5392580 147.9330730 125.5687850  20.2628380 147.7494350
 126.7158570  19.4769360 147.1507180 124.7743830  18.1756120 149.9634010
 125.1673400  18.4928320 149.1502700 125.1360680  17.2968000 150.0778530
 113.8108000  14.7656920 152.1864210 113.5221050  15.3359780 152.8989190
 114.5553760  14.2861370 152.5495440 113.9978230  18.7077040 143.3966930
 113.9152900  19.6507800 143.5381920 113.6461290  18.5651950 142.5179280
 121.7976360  17.4416070 152.4637280 121.8012420  17.0006020 151.6141820
 122.6927480  17.7633400 152.5709100 117.6478740  17.3242560 151.4231490
 117.3078790  17.8017790 152.1798540 116.8856060  16.8707680 151.0632590
 121.8596510  18.4428150 145.4544040 121.9809330  18.4014630 146.4029860
 121.4745020  19.3052300 145.2990770 120.8718010  20.7529290 144.8527340
 120.3034910  20.3047540 144.2263250 121.5807010  21.1122070 144.3192490
 114.9624820  16.2461540 150.3396160 114.6771740  15.8817210 151.1774780
 114.9003680  15.5142000 149.7259300 118.4165490  24.7487480 147.1253750
 117.6427750  24.2085100 146.9652470 119.1460120  24.2294090 146.7871510
 129.1753470  23.7452840 152.9180140 129.8952590  24.2408130 152.5276250
 128.9735290  23.0670730 152.2734010 124.6363410  15.1390800 147.0609530
 123.8228020  14.6403970 146.9854840 124.4425360  15.9789050 146.6445880
 127.3511800  19.5110450 145.3571690 128.2391420  19.8227680 145.1823030
 127.3216890  18.6382700 144.9652270 118.4602890  24.4167860 150.7632560
 118.9781560  23.6136120 150.7089450 118.0086910  24.3547000 151.6049390
 123.3472390  25.6834140 146.0359860 123.6888090  26.4276370 145.5403180
 122.5185100  25.9965260 146.3984690 129.6226070  20.8222290 144.8251550
 129.5389790  21.2536510 143.9747990 130.3420260  21.2820640 145.2578370
 130.6513320  27.6764550 147.5533680 130.0089480  27.0220170 147.8277400
 130.2643980  28.0819640 146.7774350 126.2299800  25.0049980 151.4005370
 126.5823620  24.4078110 150.7406740 125.3462130  24.6794210 151.5713620
 122.3163080  25.7647670 148.8075780 123.0034210  26.3116880 149.1883370
 121.5295500  26.3088400 148.8425390 114.4555480  21.3820490 144.2992860
 115.3250330  21.6645290 144.5828780 113.9645800  22.1956360 144.1841670
 121.6190290  22.7693700 148.4201140 122.0753070  23.5798950 148.6461330
 121.2678500  22.4516840 149.2519630 117.5202070  13.1131350 148.8923660
 117.3916700  13.1049250 149.8408580 116.6964090  13.4514440 148.5414670
 129.0410700  26.5681010 144.0910030 128.8148280  25.8511450 144.6834670
 128.6506900  26.3193450 143.2531780 114.8226730  30.5947870 144.8654490
 115.1824370  31.1937210 144.2111760 114.6819070  31.1407760 145.6389520
 128.6226950  24.4852950 145.7524190 128.3348650  24.9465640 146.5402070
 129.4179120  24.0250720 146.0208410 120.8395350  27.9779070 145.6828160
 120.8305450  28.7108760 145.0672670 119.9193710  27.7310650 145.7755120
 116.4401990  23.1993960 146.4274920 115.8329940  23.9392860 146.4370220
 116.9151340  23.2893320 145.6013120 129.3796810  16.3201720 146.9119370
 128.7509970  16.4247390 146.1977600 128.8848730  16.5398500 147.7013250
 123.8254950  28.0407310 144.3453350 123.9266930  27.8371300 143.4155330
 122.9256690  27.7865590 144.5501130 121.3480840  18.5987670 148.3277250
 120.6396990  19.0674010 148.7690860 121.6325320  17.9409680 148.9622440
 125.3796270  15.3238330 149.7673040 125.2564050  15.3424460 148.8182550
 126.3280830  15.3717270 149.8871440 122.4673060  30.5593630 149.0401020
 122.7214560  30.5215020 148.1180390 121.5185540  30.4326960 149.0329270
 119.5515860  16.9072750 145.7027960 120.4006390  17.3442900 145.6368150
 119.1847130  17.2193010 146.5300020 128.4725640  21.4785510 150.6159530
 127.5315780  21.4935740 150.7907220 128.7869710  20.6921470 151.0619830
 118.4507280  23.1605110 144.1763490 119.2170550  23.0486470 144.7388920
 118.5281970  22.4643080 143.5240260 117.1454040  20.5930180 144.8596380
 117.2257630  19.6457690 144.9713780 118.0373790  20.9237060 144.9657040
 130.4751220  28.6494360 152.2913790 130.5998640  29.4725530 152.7637600
 131.3416780  28.4385090 151.9437940 117.9468750  30.7425570 151.9630920
 118.6831230  30.1941030 152.2339490 118.3309670  31.6081580 151.8236910
 114.8314230  26.8099140 147.8372430 113.9054010  27.0520280 147.8277840
 115.2970660  27.6373400 147.7157180 121.0571060  29.9155880 143.7856490
 121.8499670  30.2044710 143.3338280 120.5375410  29.4848050 143.1068970
 130.1101230  29.1426010 145.2093230 129.8242740  28.7291150 144.3947410
 129.9120780  30.0713720 145.0893750 121.5748460  25.1359290 143.6498840
 121.4699100  24.5211640 144.3760220 121.4072680  24.6125180 142.8661850
 124.8151190  24.1979320 144.2540830 124.2661290  24.6448620 144.8983570
 125.4370450  23.6928570 144.7778500 120.4826310  23.1570240 146.1506130
 120.9042730  22.9910110 146.9937520 120.6077150  22.3470470 145.6561270
 122.9953950  22.1807850 143.3983230 123.5159610  21.4656870 143.0324380
 123.6422350  22.8193720 143.6983740 119.3785210  19.2303470 143.0964290
 119.1774270  18.3670830 143.4577630 119.2077260  19.1436830 142.1585890
 126.8573520  14.0411700 145.6251170 127.1375810  13.1979600 145.9810590
 126.0839250  14.2734810 146.1389920 118.1768010  16.3304090 143.0842170
 118.4793910  16.3371520 142.1761320 118.9162600  15.9801950 143.5809830
 121.3952940  15.2738710 144.0698370 121.0474940  14.5962700 143.4900820
 121.5965710  14.8128220 144.8841760 123.5601980  30.2619460 145.6884970
 124.4552770  30.6004430 145.7103730 123.5919610  29.5398870 145.0609250
 117.1998140  25.6346510 143.9171970 117.6373010  26.1776180 144.5729550
 117.6845870  24.8093460 143.9268310 114.4143940  28.4235540 151.3692230
 114.7446950  27.5556600 151.1370870 114.8434940  28.6294060 152.1997190
 119.0105860  26.7544550 149.0294200 118.7101400  26.6309520 149.9298110
 118.9043350  25.8953140 148.6209930 131.7797780  26.5340950 143.7320880
 130.9490740  26.6017600 144.2028110 131.9569610  27.4245070 143.4287740
 131.2354240  23.2788430 146.2355080 131.9973150  23.8485080 146.3414770
 131.2508610  22.7115630 147.0063390 114.7358580  21.8026360 150.4662740
 114.0807420  21.5338000 149.8222440 115.5736530  21.6930840 150.0164720
 132.2414210  24.1338530 151.0797010 132.6123040  23.3505850 150.6732980
 132.8816140  24.8227630 150.9014310 131.2873410  23.5722800 143.3927600
 131.5622250  24.4801680 143.2646820 131.0984150  23.5085330 144.3289590
 127.6849020  16.5967650 144.6881230 128.1033900  16.4098630 143.8477890
 127.3785080  15.7446700 144.9984160 131.1838750  21.5091790 148.3857030
 130.8082350  20.7419720 147.9538320 130.4541870  21.8914490 148.8731960
 113.9496660  19.0125290 146.4088070 113.0460740  19.2755490 146.2339730
 114.4337280  19.2836460 145.6288030 130.4589710  19.7349280 151.6864270
 130.9827190  19.2411930 151.0554440 131.0449130  19.8699640 152.4311840
 116.4923870  18.0690830 144.3182450 117.2015570  17.6474050 143.8329730
 115.7763810  18.1366060 143.6865800 116.1398030  14.1230160 143.3585100
 116.8626160  14.6639100 143.6766320 116.4122550  13.8493580 142.4826640
 129.9489680  18.9922630 147.6256680 130.4448800  18.7593500 148.4105560
 129.7505750  18.1534470 147.2094320 131.3776840  17.6283580 150.1594360
 131.2676120  17.4739620 151.0976630 132.1384430  17.1004520 149.9169770
 132.2667110  15.4591500 143.4000500 133.1916420  15.3272680 143.1918790
 132.2442900  15.5384320 144.3536950 132.3405600  16.2302160 146.0257210
 131.5457100  16.1647280 146.5550120 132.5448880  17.1652800 146.0142560
 129.2824020  30.2693710 150.0195600 129.8783090  29.9478280 149.3430020
 129.5402170  29.7965530 150.8108870 128.7725530  14.5599040 152.4756040
 129.2133620  14.5044140 151.6277640 128.5033120  15.4757050 152.5466220
 130.6364100  14.1914280 150.4864860 130.5752500  13.2475500 150.3395880
 131.4156130  14.2994370 151.0318320 114.9416850  30.3306640 149.4488810
 114.7738890  29.6977320 150.1470700 114.0751360  30.5366040 149.0983000
 115.5644870  14.1623420 146.9520670 116.3224230  14.2752300 146.3784700
 115.1022040  14.9992620 146.9064100 122.1058680  16.2762690 149.9422980
 121.2933190  15.9019580 149.6018860 122.6100320  15.5207770 150.2444170
 126.6083660  12.9405140 151.1806050 127.2113030  13.5125350 151.6554570
 125.8676650  13.5044580 150.9579950 129.7518260  13.3426700 146.4546330
 129.9468890  14.2410150 146.7213760 128.9648130  13.1113780 146.9479280
 116.5479550  29.0239870 146.8938950 116.0227170  29.4047900 146.1900910
 116.4724130  29.6490640 147.6148660 117.9370020  14.6887470 145.4922640
 118.4662780  13.9017270 145.3630590 118.5698340  15.3678660 145.7258170
 120.1307860  14.4262610 148.5468030 119.5010600  13.7249920 148.7138160
 119.5913000  15.1866740 148.3301190 131.3044870  30.5827410 148.2152890
 131.4797060  29.8965150 147.5713810 130.6066440  31.1074460 147.8229560
 119.1472520  30.9722250 145.7688200 119.8791340  30.6881530 145.2212090
 119.4066190  30.7335530 146.6587580 118.3087310  27.0886980 145.7734530
 117.6796190  27.5572080 146.3220360 118.4235140  26.2436200 146.2080720
 125.7637030  21.1392640 131.9235730 125.6831080  20.2247250 131.6527440
 125.3501450  21.6359710 131.2175440 123.8955070  22.9171660 133.8045000
 123.1197170  22.4372100 134.0943570 124.5468000  22.2377310 133.6301160
 117.9120900  23.2291470 134.6820760 117.0805780  22.9740180 135.0817270
 118.5201880  23.3002240 135.4178680 127.9162500  27.3231850 132.5844130
 127.4544030  26.5519090 132.9131300 128.7288050  27.3497920 133.0896580
 117.8922160  27.2631560 134.8778780 118.1950200  26.3729300 134.6989000
 118.6365750  27.8201780 134.6501030 116.3212850  18.1893360 128.4663150
 115.4329550  18.5309330 128.3643030 116.6054040  17.9893680 127.5743980
 114.2845860  20.7899010 134.3502850 114.8561970  20.0221210 134.3506490
 114.2847400  21.0887770 133.4409460 124.1425810  29.6089860 132.2048120
 123.5237250  30.0647360 131.6342560 124.9977590  29.7641320 131.8037820
 123.3364060  25.5928850 133.8115160 123.2672340  24.6518790 133.6504290
 124.0983920  25.6830260 134.3837730 115.5270730  16.1983370 136.1371780
 115.3473570  15.3009120 136.4174540 115.1250810  16.7455240 136.8118730
 124.3669230  18.3999230 134.0384090 124.7434050  17.5271110 133.9257760
 124.2688740  18.7357930 133.1474530 118.4974240  16.7724860 129.5001530
 118.6040990  17.6728590 129.8070290 117.5866600  16.7242830 129.2096180
 128.1493350  15.8949670 130.9712430 128.9702970  15.4046240 131.0137910
 128.1827430  16.4847330 131.7244270 116.1457400  18.6943870 134.7454120
 116.8267510  18.9582240 135.3641520 115.8305450  17.8544740 135.0792130
 120.3381970  19.7411230 133.8326710 120.8460190  20.2392200 134.4731730
 120.8695210  18.9646430 133.6566070 132.4392900  17.9116420 137.5356060
 131.7345070  18.2998130 137.0171170 132.7050820  18.6066710 138.1376990
 118.6218070  14.3809790 138.0990130 118.6236510  14.8982180 137.2936030
 117.7922380  13.9039970 138.0760060 125.0089160  24.4929100 129.5980030
 124.3906430  24.9578550 129.0342750 125.5212410  25.1856580 130.0149540
 119.8720920  24.0204970 136.2763630 119.5390300  24.6473890 136.9184700
 120.0487600  24.5466850 135.4965300 128.3854830  17.8350050 133.7439970
 127.6810400  18.1234940 134.3243080 128.7466990  18.6450160 133.3839530
 118.3033400  16.0919750 136.1060580 118.6450210  16.9361800 135.8114450
 117.3649210  16.2403490 136.2225920 119.0840020  25.9885770 138.0912810
 119.7014020  26.6636850 137.8097260 118.2233140  26.3973750 138.0000310
 114.3772360  25.1785630 126.9719660 114.0000340  25.6672730 126.2404560
 114.6345430  25.8510910 127.6026190 130.0017610  27.4525180 136.0067450
 129.3181130  28.1224290 135.9984120 130.5411900  27.6505830 135.2412310
 131.4541750  17.2804840 134.1349180 130.5066660  17.3143820 134.2664610
 131.7791740  18.0943790 134.5198540 121.9861290  13.5802020 132.4305170
 122.2936270  13.0248910 131.7140670 121.0561990  13.7146480 132.2478160
 127.5376350  29.2969310 134.7212630 127.5503510  28.8931600 133.8534890
 126.9851570  30.0716600 134.6174060 128.8321770  26.0185530 129.8102800
 128.7218100  25.0759860 129.9352220 128.8290020  26.3801170 130.6965560
 126.9361790  24.1999150 136.0495240 127.3530580  23.9859260 135.2148700
 127.6601610  24.4571940 136.6203860 124.3742050  21.6450850 129.1665290
 123.4471330  21.5788230 129.3953760 124.5266870  22.5830980 129.0520530
 124.3611130  17.9167850 126.1632450 123.4214800  18.0781810 126.2484910
 124.6794390  18.6353530 125.6168440 130.8823890  22.5986370 136.1411480
 130.0542520  22.6679460 135.6661610 131.4774370  23.1840680 135.6727310
 128.4039340  23.2071150 129.6700540 127.7851760  22.8690700 129.0226840
 128.3863790  22.5630910 130.3779730 127.8465900  19.3855690 137.0866350
 127.4337080  20.2109400 137.3406340 127.1141850  18.8000730 136.8942710
 119.9798690  22.1715590 131.9485020 119.5755690  21.4592840 131.4530920
 120.0661810  21.8268830 132.8373060 120.4480390  25.8583150 134.1124230
 120.1508680  25.2528620 133.4332010 121.3980210  25.8960460 134.0013590
 118.6927310  18.9458800 135.7284060 119.2441900  19.0554140 134.9537310
 119.2070820  19.3196400 136.4439290 128.5366000  29.4315020 137.7747330
 128.0596560  30.2387210 137.5819940 127.8527790  28.7793350 137.9273540
 119.5398820  25.5964840 140.7632030 118.6427350  25.8204810 141.0105430
 119.5651690  25.7199780 139.8143430 126.5804040  22.4457960 126.6773290
 127.0197320  21.6080390 126.5311110 127.2932460  23.0787360 126.7637430
 118.3670040  22.4678160 139.3389400 118.2277810  23.3400960 139.7076800
 117.4851400  22.1250970 139.1937340 124.6899420  27.3854030 130.6454530
 125.1295330  28.1278360 130.2309920 124.6286310  27.6280600 131.5693490
 120.1650390  28.4099860 141.5474550 120.1365820  28.8142810 140.6802980
 120.0015360  27.4810220 141.3846150 130.1621180  13.7000770 124.9914330
 129.8493840  13.7927600 125.8913400 130.9233650  14.2781800 124.9411760
 116.6803320  21.0660570 129.4491670 116.5600920  21.7922660 128.8372940
 116.3704210  20.2963480 128.9719580 132.1165210  29.1926960 142.8438720
 132.5924930  29.6709850 143.5227800 132.7372370  29.1244450 142.1184220
 114.3188690  24.2375710 135.2560310 114.3969110  24.3724480 134.3116030
 114.9330370  23.5291600 135.4488430 115.5636320  25.9375900 131.6666490
 115.1564400  26.0790490 130.8120090 116.4549330  25.6536060 131.4637700
 131.5198460  26.3839810 140.0038730 131.6461520  26.1451690 139.0855910
 131.5619840  25.5524350 140.4760810 125.3815200  30.0867810 138.5733540
 125.8959870  29.9975820 139.3755970 124.5384280  30.4327510 138.8661450
 127.3569600  30.3723150 128.0017540 127.1970740  30.0826090 128.8999370
 127.1916310  29.5963280 127.4662770 119.8357980  30.1521680 129.7789160
 119.6600460  29.2357220 129.5656960 118.9813720  30.5108970 130.0186960
 127.0595730  27.8810710 126.5615540 126.3660890  27.8788000 125.9017820
 127.8018590  27.4570030 126.1309710 126.6245660  29.5073420 130.6364030
 127.0802610  28.7262800 130.9502650 126.9638180  30.2180240 131.1805210
 131.3722470  18.4372270 140.9688470 130.7566740  18.9451940 140.4403930
 131.0518890  17.5370600 140.9114410 114.3748210  25.2789880 137.7954770
 114.5379250  24.8095240 136.9774140 114.8400660  24.7713440 138.4603610
 119.1466980  14.4095640 132.8315340 118.7035130  15.1905180 132.4999860
 119.7051970  14.7325530 133.5386280 123.4336790  17.2764160 138.4350660
 122.9716160  17.4847180 139.2470600 123.0314900  16.4623510 138.1321330
 128.4341300  18.4973110 139.5647320 127.5834890  18.1978860 139.8856390
 128.2743090  18.7415120 138.6531140 125.5291010  19.9974860 141.6646110
 125.8544420  19.1638610 141.3248340 126.3171340  20.5203380 141.8124440
 122.2625800  14.0306340 127.7121170 121.6379980  14.0266210 128.4374480
 122.1755920  13.1637300 127.3157140 121.1842880  14.9542970 134.6904940
 121.4815210  15.8605800 134.6096960 121.7328440  14.4661750 134.0764510
 118.9381200  19.5329210 130.5596590 118.7122120  19.3166380 131.4643210
 118.1573730  19.9657670 130.2142560 126.1678960  19.5392580 129.1587240
 125.5687850  20.2628380 128.9750860 126.7158570  19.4769360 128.3763690
 121.3780410  20.4314790 141.2256860 121.2824010  19.4909520 141.0757260
 122.2212390  20.6529860 140.8304930 124.7743830  18.1756120 131.1890520
 125.1673400  18.4928320 130.3759210 125.1360680  17.2968000 131.3035040
 116.5090950  16.8428460 139.3790640 116.1154340  17.6903670 139.5863420
 115.8209350  16.2054830 139.5699280 123.0836000  16.9263430 142.4487380
 122.3934320  16.7335630 143.0833470 123.8268300  17.2098070 142.9811680
 113.8108000  14.7656920 133.4120720 113.5221050  15.3359780 134.1245700
 114.5553760  14.2861370 133.7751950 113.9978230  18.7077040 124.6223440
 113.9152900  19.6507800 124.7638430 113.6461290  18.5651950 123.7435790
 125.3598970  20.7661870 135.2841300 124.6280090  21.2748680 135.6331400
 124.9623310  19.9491850 134.9830080 121.7976360  17.4416070 133.6893790
 121.8012420  17.0006020 132.8398330 122.6927480  17.7633400 133.7965610
 117.6478740  17.3242560 132.6488000 117.3078790  17.8017790 133.4055050
 116.8856060  16.8707680 132.2889100 121.8596510  18.4428150 126.6800550
 121.9809330  18.4014630 127.6286370 121.4745020  19.3052300 126.5247280
 125.8224880  16.2195550 134.6964240 125.8397620  16.6704200 135.5406090
 125.5740460  15.3201190 134.9097680 120.8718010  20.7529290 126.0783850
 120.3034910  20.3047540 125.4519760 121.5807010  21.1122070 125.5449000
 129.2495630  13.6327730 140.5350620 129.5741400  12.9017390 141.0608600
 129.2852140  13.3141370 139.6331610 115.9487190  24.6541310 139.9550580
 115.5641980  24.0134980 140.5533540 116.2599380  25.3577430 140.5245310
 122.0984330  21.5017850 135.4359200 122.4654460  21.0276420 136.1820540
 121.9089390  22.3759420 135.7767540 114.9624820  16.2461540 131.5652670
 114.6771740  15.8817210 132.4031290 114.9003680  15.5142000 130.9515810
 119.8883700  20.5426490 137.7543410 119.5840770  21.4218470 137.9793770
 120.8430160  20.6026280 137.7900850 118.4165490  24.7487480 128.3510260
 117.6427750  24.2085100 128.1908980 119.1460120  24.2294090 128.0128020
 129.1753470  23.7452840 134.1436650 129.8952590  24.2408130 133.7532760
 128.9735290  23.0670730 133.4990520 124.6363410  15.1390800 128.2866040
 123.8228020  14.6403970 128.2111350 124.4425360  15.9789050 127.8702390
 124.5572270  23.8161900 140.0305650 124.4909580  22.8957570 139.7763240
 123.9277410  23.9137340 140.7450290 127.3511800  19.5110450 126.5828200
 128.2391420  19.8227680 126.4079540 127.3216890  18.6382700 126.1908780
 118.4602890  24.4167860 131.9889070 118.9781560  23.6136120 131.9345960
 118.0086910  24.3547000 132.8305900 123.3472390  25.6834140 127.2616370
 123.6888090  26.4276370 126.7659690 122.5185100  25.9965260 127.6241200
 115.9447430  21.3829230 138.9014770 115.5862370  22.0483080 139.4888110
 115.6501990  20.5512780 139.2727390 119.1460550  21.8413470 141.7854320
 118.8460690  21.9870650 140.8882140 119.9171790  21.2818760 141.6927710
 124.4889000  26.6382470 139.7809450 124.5033540  25.7063430 139.5628360
 123.7814100  26.7242230 140.4199220 129.6226070  20.8222290 126.0508060
 129.5389790  21.2536510 125.2004500 130.3420260  21.2820640 126.4834880
 130.7000210  23.2789810 139.1278030 129.9748400  23.8718590 138.9307420
 131.2275670  23.2713350 138.3291400 130.6513320  27.6764550 128.7790190
 130.0089480  27.0220170 129.0533910 130.2643980  28.0819640 128.0030860
 126.2299800  25.0049980 132.6261880 126.5823620  24.4078110 131.9663250
 125.3462130  24.6794210 132.7970130 122.3163080  25.7647670 130.0332290
 123.0034210  26.3116880 130.4139880 121.5295500  26.3088400 130.0681900
 114.4555480  21.3820490 125.5249370 115.3250330  21.6645290 125.8085290
 113.9645800  22.1956360 125.4098180 121.6190290  22.7693700 129.6457650
 122.0753070  23.5798950 129.8717840 121.2678500  22.4516840 130.4776140
 123.9222900  28.2800040 136.8749950 124.5665120  28.4859420 137.5523370
 124.2852340  27.5188440 136.4220800 117.5202070  13.1131350 130.1180170
 117.3916700  13.1049250 131.0665090 116.6964090  13.4514440 129.7671180
 125.1954980  26.2832390 135.5927400 125.8377210  25.5825550 135.7059570
 125.7204330  27.0630830 135.4124290 129.0410700  26.5681010 125.3166540
 128.8148280  25.8511450 125.9091180 128.6506900  26.3193450 124.4788290
 126.9692600  27.0827290 138.7963460 127.3048840  27.6693980 139.4741380
 126.0492940  26.9520000 139.0261250 114.8226730  30.5947870 126.0911000
 115.1824370  31.1937210 125.4368270 114.6819070  31.1407760 126.8646030
 114.5196000  14.8722470 139.5786870 113.8054520  15.0719390 140.1839480
 114.9391040  14.0962040 139.9501670 128.6226950  24.4852950 126.9780700
 128.3348650  24.9465640 127.7658580 129.4179120  24.0250720 127.2464920
 114.8068590  28.8602730 140.5653400 114.9159710  27.9197470 140.4248790
 114.1549150  29.1257480 139.9167130 122.7981180  27.1318620 141.9651520
 122.4778050  26.4127860 142.5097210 122.1239540  27.8073690 142.0387580
 120.8395350  27.9779070 126.9084670 120.8305450  28.7108760 126.2929180
 119.9193710  27.7310650 127.0011630 116.4401990  23.1993960 127.6531430
 115.8329940  23.9392860 127.6626730 116.9151340  23.2893320 126.8269630
 126.0134780  17.3644780 137.3288320 126.3815600  16.5439990 137.6567890
 125.1532980  17.4246670 137.7443970 129.3796810  16.3201720 128.1375880
 128.7509970  16.4247390 127.4234110 128.8848730  16.5398500 128.9269760
 123.8254950  28.0407310 125.5709860 123.9266930  27.8371300 124.6411840
 122.9256690  27.7865590 125.7757640 121.3480840  18.5987670 129.5533760
 120.6396990  19.0674010 129.9947370 121.6325320  17.9409680 130.1878950
 122.9736770  20.0184370 137.5526290 123.4722020  20.4930190 138.2178140
 123.1159720  19.0947890 137.7596320 125.3796270  15.3238330 130.9929550
 125.2564050  15.3424460 130.0439060 126.3280830  15.3717270 131.1127950
 122.4673060  30.5593630 130.2657530 122.7214560  30.5215020 129.3436900
 121.5185540  30.4326960 130.2585780 119.5515860  16.9072750 126.9284470
 120.4006390  17.3442900 126.8624660 119.1847130  17.2193010 127.7556530
 130.1803630  16.2352330 138.3954680 129.6777230  16.9757730 138.7348490
 130.9960290  16.6236330 138.0791470 128.4725640  21.4785510 131.8416040
 127.5315780  21.4935740 132.0163730 128.7869710  20.6921470 132.2876340
 118.4507280  23.1605110 125.4020000 119.2170550  23.0486470 125.9645430
 118.5281970  22.4643080 124.7496770 117.1454040  20.5930180 126.0852890
 117.2257630  19.6457690 126.1970290 118.0373790  20.9237060 126.1913550
 130.4751220  28.6494360 133.5170300 130.5998640  29.4725530 133.9894110
 131.3416780  28.4385090 133.1694450 117.9468750  30.7425570 133.1887430
 118.6831230  30.1941030 133.4596000 118.3309670  31.6081580 133.0493420
 114.8314230  26.8099140 129.0628940 113.9054010  27.0520280 129.0534350
 115.2970660  27.6373400 128.9413690 116.9527030  29.9271640 142.3773010
 117.7539760  30.2483690 142.7908410 116.4378850  29.5667220 143.0992920
 121.0571060  29.9155880 125.0113000 121.8499670  30.2044710 124.5594790
 120.5375410  29.4848050 124.3325480 125.7891660  26.0351510 142.3248420
 125.1829820  26.0583110 141.5844170 125.4845770  25.3034550 142.8615670
 127.2192030  29.7631800 140.9357830 128.1713780  29.6789820 140.8858070
 127.0720250  30.4273510 141.6091620 130.1101230  29.1426010 126.4349740
 129.8242740  28.7291150 125.6203920 129.9120780  30.0713720 126.3150260
 114.6724840  22.4145100 141.3209060 115.1763860  21.8352380 141.8925290
 113.9332260  22.6985330 141.8585430 121.5748460  25.1359290 124.8755350
 121.4699100  24.5211640 125.6016730 121.4072680  24.6125180 124.0918360
 121.7262780  23.8216090 140.8544580 120.9608450  24.3901090 140.7699250
 121.9078740  23.5292300 139.9612810 124.8151190  24.1979320 125.4797340
 124.2661290  24.6448620 126.1240080 125.4370450  23.6928570 126.0035010
 128.8686130  25.5521420 141.4119600 129.6095600  25.8897180 140.9087060
 128.1058810  25.7213480 140.8589370 116.7047920  20.5574690 142.2159130
 116.7453260  20.2588560 143.1244360 117.5593420  20.9582300 142.0566650
 120.4826310  23.1570240 127.3762640 120.9042730  22.9910110 128.2194030
 120.6077150  22.3470470 126.8817780 118.6453730  19.1366790 140.1833620
 118.1150190  18.6457740 139.5556960 119.3141800  19.5650990 139.6491550
 122.9953950  22.1807850 124.6239740 123.5159610  21.4656870 124.2580890
 123.6422350  22.8193720 124.9240250 127.5431790  23.6036250 139.9474810
 127.9572810  23.7581330 140.7965230 126.6082790  23.7291470 140.1100590
 128.0153960  20.9432410 141.9513960 128.5974730  20.1884730 141.8634440
 128.1915730  21.4739850 141.1745440 119.1326030  16.1029160 140.2630910
 119.0382900  15.4849910 139.5381780 118.5523420  16.8295450 140.0360820
 121.8987470  14.6602400 137.2958300 121.4504770  14.6826660 136.4503850
 121.2652670  14.2621420 137.8928600 122.3047020  23.5556730 137.9170740
 122.7235130  24.3989460 137.7446980 121.3855650  23.6928770 137.6877520
 124.6410920  21.2872910 139.3008580 124.7607130  20.6914050 140.0403420
 125.5004920  21.3242600 138.8809880 126.9798820  21.8410100 137.8771090
 126.4534040  22.3652720 137.2736230 127.3230160  22.4737490 138.5080820
 119.3785210  19.2303470 124.3220800 119.1774270  18.3670830 124.6834140
 119.2077260  19.1436830 123.3842400 120.1554440  29.8609740 139.0328470
 119.6175530  30.5855800 138.7137170 120.4088400  29.3840080 138.2425810
 121.4079690  17.8294260 140.5584400 121.9979380  17.5210110 141.2462220
 120.5899930  17.3574010 140.7144300 126.2273120  17.4460070 140.7917420
 125.5388640  16.7841610 140.7267410 126.9479140  16.9998340 141.2365880
 126.8573520  14.0411700 126.8507680 127.1375810  13.1979600 127.2067100
 126.0839250  14.2734810 127.3646430 118.1768010  16.3304090 124.3098680
 118.4793910  16.3371520 123.4017830 118.9162600  15.9801950 124.8066340
 123.0116650  31.0960950 139.2915120 122.9375350  31.9996090 139.5987490
 122.1095490  30.7772850 139.2637190 121.3952940  15.2738710 125.2954880
 121.0474940  14.5962700 124.7157330 121.5965710  14.8128220 126.1098270
 123.5601980  30.2619460 126.9141480 124.4552770  30.6004430 126.9360240
 123.5919610  29.5398870 126.2865760 117.1998140  25.6346510 125.1428480
 117.6373010  26.1776180 125.7986060 117.6845870  24.8093460 125.1524820
 114.4143940  28.4235540 132.5948740 114.7446950  27.5556600 132.3627380
 114.8434940  28.6294060 133.4253700 119.0105860  26.7544550 130.2550710
 118.7101400  26.6309520 131.1554620 118.9043350  25.8953140 129.8466440
 114.9034150  29.2906130 135.3330370 114.4665140  29.4706930 136.1654520
 115.4711830  30.0480750 135.1912090 130.5396330  28.7923130 139.6207680
 129.9398320  28.8515690 138.8771600 130.6690230  27.8528110 139.7504530
 131.7797780  26.5340950 124.9577390 130.9490740  26.6017600 125.4284620
 131.9569610  27.4245070 124.6544250 131.2354240  23.2788430 127.4611590
 131.9973150  23.8485080 127.5671280 131.2508610  22.7115630 128.2319900
 114.7358580  21.8026360 131.6919250 114.0807420  21.5338000 131.0478950
 115.5736530  21.6930840 131.2421230 132.2414210  24.1338530 132.3053520
 132.6123040  23.3505850 131.8989490 132.8816140  24.8227630 132.1270820
 129.2247970  25.5175110 137.7183840 128.4107810  25.9472270 137.9809630
 129.6322170  26.1293520 137.1052890 131.2873410  23.5722800 124.6184110
 131.5622250  24.4801680 124.4903330 131.0984150  23.5085330 125.5546100
 127.6849020  16.5967650 125.9137740 128.1033900  16.4098630 125.0734400
 127.3785080  15.7446700 126.2240670 131.1838750  21.5091790 129.6113540
 130.8082350  20.7419720 129.1794830 130.4541870  21.8914490 130.0988470
 115.7734510  22.1878930 136.2322590 116.1407550  22.1006330 137.1118610
 115.2045330  21.4245480 136.1329450 130.5738370  20.6563310 139.2453060
 130.3424460  20.4276060 138.3451010 130.8342920  21.5762860 139.1997950
 115.3250510  19.0988020 140.1381010 114.4306560  19.0654780 140.4774720
 115.8648060  19.2974810 140.9032260 129.0126440  15.8819740 142.0232760
 129.8896620  15.8903140 142.4066760 129.0247280  15.1450580 141.4125110
 113.9496660  19.0125290 127.6344580 113.0460740  19.2755490 127.4596240
 114.4337280  19.2836460 126.8544540 130.4589710  19.7349280 132.9120780
 130.9827190  19.2411930 132.2810950 131.0449130  19.8699640 133.6568350
 130.6379430  19.8189150 136.4340330 129.6882140  19.7852690 136.5485320
 130.8192440  20.7289260 136.1990100 116.4923870  18.0690830 125.5438960
 117.2015570  17.6474050 125.0586240 115.7763810  18.1366060 124.9122310
 116.1398030  14.1230160 124.5841610 116.8626160  14.6639100 124.9022830
 116.4122550  13.8493580 123.7083150 129.9489680  18.9922630 128.8513190
 130.4448800  18.7593500 129.6362070 129.7505750  18.1534470 128.4350830
 115.8290220  13.3736350 134.4864230 116.4766410  12.8233730 134.0459390
 116.2492060  13.6279500 135.3080040 131.3776840  17.6283580 131.3850870
 131.2676120  17.4739620 132.3233140 132.1384430  17.1004520 131.1426280
 129.7242560  13.5677710 137.8433870 130.3614780  14.1811850 138.2093060
 129.8717450  13.6038370 136.8983100 132.2667110  15.4591500 124.6257010
 133.1916420  15.3272680 124.4175300 132.2442900  15.5384320 125.5793460
 132.3405600  16.2302160 127.2513720 131.5457100  16.1647280 127.7806630
 132.5448880  17.1652800 127.2399070 129.2824020  30.2693710 131.2452110
 129.8783090  29.9478280 130.5686530 129.5402170  29.7965530 132.0365380
 115.5822220  13.5292020 137.2289550 115.2337040  13.9855840 137.9947730
 115.2509920  12.6349150 137.3111980 117.1886590  26.7011620 141.3942740
 117.1456220  26.3304530 142.2757200 117.3197600  27.6389190 141.5344560
 120.8892620  28.2571210 136.9952460 120.6483980  28.5245770 136.1082980
 121.8295260  28.4276940 137.0503320 123.0947040  14.7203900 140.7508970
 123.0335930  15.3125730 141.5004380 124.0347420  14.6129860 140.6059230
 125.7321600  14.3773960 140.3901260 126.3462010  14.6953250 139.7282340
 126.2771160  13.8922550 141.0097120 132.1496780  30.2765590 137.7963100
 131.6555060  30.6734460 137.0790230 131.5410070  29.6514800 138.1900380
 116.2542860  13.0568220 140.5040320 116.8025850  12.8756270 139.7406430
 116.3198170  12.2662330 141.0396630 117.0274620  29.6473870 138.5140520
 116.4334940  29.5158570 139.2530560 117.0198460  28.8112010 138.0482620
 126.4729640  12.9406100 136.7170550 125.5989480  13.2741210 136.5143480
 126.3640390  12.4679280 137.5422420 127.3801620  15.1476970 138.1012270
 127.0514980  14.3328730 137.7214000 128.3283920  15.1046780 137.9777960
 129.8336230  30.9189010 135.0749840 129.3739200  31.6704820 134.7007860
 129.2048690  30.1995480 135.0164640 116.6586850  27.0132250 137.4648560
 115.9320910  26.3937540 137.3974510 116.7196000  27.4072860 136.5946640
 120.2631950  29.2277250 134.2497970 120.7796970  28.6164610 133.7246230
 120.9129330  29.7306030 134.7408980 123.0027450  30.1185740 135.0766950
 123.2905260  29.8640040 134.1999960 123.5150670  29.5663100 135.6672520
 124.2204460  13.8575940 135.6563460 123.4376250  14.3321440 135.9360220
 123.9267390  12.9530770 135.5476640 128.7725530  14.5599040 133.7012550
 129.2133620  14.5044140 132.8534150 128.5033120  15.4757050 133.7722730
 130.6364100  14.1914280 131.7121370 130.5752500  13.2475500 131.5652390
 131.4156130  14.2994370 132.2574830 114.9416850  30.3306640 130.6745320
 114.7738890  29.6977320 131.3727210 114.0751360  30.5366040 130.3239510
 115.5644870  14.1623420 128.1777180 116.3224230  14.2752300 127.6041210
 115.1022040  14.9992620 128.1320610 122.1058680  16.2762690 131.1679490
 121.2933190  15.9019580 130.8275370 122.6100320  15.5207770 131.4700680
 126.6083660  12.9405140 132.4062560 127.2113030  13.5125350 132.8811080
 125.8676650  13.5044580 132.1836460 129.7518260  13.3426700 127.6802840
 129.9468890  14.2410150 127.9470270 128.9648130  13.1113780 128.1735790
 116.5479550  29.0239870 128.1195460 116.0227170  29.4047900 127.4157420
 116.4724130  29.6490640 128.8405170 117.9370020  14.6887470 126.7179150
 118.4662780  13.9017270 126.5887100 118.5698340  15.3678660 126.9514680
 120.1307860  14.4262610 129.7724540 119.5010600  13.7249920 129.9394670
 119.5913000  15.1866740 129.5557700 123.0699810  31.0401840 142.4435150
 123.9967120  30.8046110 142.4871110 123.0550240  31.8673840 141.9621180
 131.3044870  30.5827410 129.4409400 131.4797060  29.8965150 128.7970320
 130.6066440  31.1074460 129.0486070 120.2563420  13.7046590 142.2077030
 119.9747690  14.2080190 141.4437850 120.6383120  12.9068340 141.8419160
 119.1472520  30.9722250 126.9944710 119.8791340  30.6881530 126.4468600
 119.4066190  30.7335530 127.8844090 118.3087310  27.0886980 126.9991040
 117.6796190  27.5572080 127.5476870 118.4235140  26.2436200 127.4337230
 126.8578880  13.1200170 142.7857500 126.7444330  13.4394780 143.6809020
 127.6748620  13.5212680 142.4894780 129.6377370  30.2671700 142.2676190
 130.4302690  29.7720930 142.0602150 129.9310520  30.9461840 142.8751800
 125.7637030  21.1392640 113.1492240 125.6831080  20.2247250 112.8783950
 125.3501450  21.6359710 112.4431950 123.8955070  22.9171660 115.0301510
 123.1197170  22.4372100 115.3200080 124.5468000  22.2377310 114.8557670
 117.9120900  23.2291470 115.9077270 117.0805780  22.9740180 116.3073780
 118.5201880  23.3002240 116.6435190 127.9162500  27.3231850 113.8100640
 127.4544030  26.5519090 114.1387810 128.7288050  27.3497920 114.3153090
 117.8922160  27.2631560 116.1035290 118.1950200  26.3729300 115.9245510
 118.6365750  27.8201780 115.8757540 116.3212850  18.1893360 109.6919660
 115.4329550  18.5309330 109.5899540 116.6054040  17.9893680 108.8000490
 114.2845860  20.7899010 115.5759360 114.8561970  20.0221210 115.5763000
 114.2847400  21.0887770 114.6665970 124.1425810  29.6089860 113.4304630
 123.5237250  30.0647360 112.8599070 124.9977590  29.7641320 113.0294330
 123.3364060  25.5928850 115.0371670 123.2672340  24.6518790 114.8760800
 124.0983920  25.6830260 115.6094240 115.5270730  16.1983370 117.3628290
 115.3473570  15.3009120 117.6431050 115.1250810  16.7455240 118.0375240
 124.3669230  18.3999230 115.2640600 124.7434050  17.5271110 115.1514270
 124.2688740  18.7357930 114.3731040 118.4974240  16.7724860 110.7258040
 118.6040990  17.6728590 111.0326800 117.5866600  16.7242830 110.4352690
 128.1493350  15.8949670 112.1968940 128.9702970  15.4046240 112.2394420
 128.1827430  16.4847330 112.9500780 116.1457400  18.6943870 115.9710630
 116.8267510  18.9582240 116.5898030 115.8305450  17.8544740 116.3048640
 120.3381970  19.7411230 115.0583220 120.8460190  20.2392200 115.6988240
 120.8695210  18.9646430 114.8822580 132.4392900  17.9116420 118.7612570
 131.7345070  18.2998130 118.2427680 132.7050820  18.6066710 119.3633500
 118.6218070  14.3809790 119.3246640 118.6236510  14.8982180 118.5192540
 117.7922380  13.9039970 119.3016570 125.0089160  24.4929100 110.8236540
 124.3906430  24.9578550 110.2599260 125.5212410  25.1856580 111.2406050
 119.8720920  24.0204970 117.5020140 119.5390300  24.6473890 118.1441210
 120.0487600  24.5466850 116.7221810 128.3854830  17.8350050 114.9696480
 127.6810400  18.1234940 115.5499590 128.7466990  18.6450160 114.6096040
 118.3033400  16.0919750 117.3317090 118.6450210  16.9361800 117.0370960
 117.3649210  16.2403490 117.4482430 119.0840020  25.9885770 119.3169320
 119.7014020  26.6636850 119.0353770 118.2233140  26.3973750 119.2256820
 114.3772360  25.1785630 108.1976170 114.0000340  25.6672730 107.4661070
 114.6345430  25.8510910 108.8282700 130.0017610  27.4525180 117.2323960
 129.3181130  28.1224290 117.2240630 130.5411900  27.6505830 116.4668820
 131.4541750  17.2804840 115.3605690 130.5066660  17.3143820 115.4921120
 131.7791740  18.0943790 115.7455050 121.9861290  13.5802020 113.6561680
 122.2936270  13.0248910 112.9397180 121.0561990  13.7146480 113.4734670
 127.5376350  29.2969310 115.9469140 127.5503510  28.8931600 115.0791400
 126.9851570  30.0716600 115.8430570 128.8321770  26.0185530 111.0359310
 128.7218100  25.0759860 111.1608730 128.8290020  26.3801170 111.9222070
 126.9361790  24.1999150 117.2751750 127.3530580  23.9859260 116.4405210
 127.6601610  24.4571940 117.8460370 124.3742050  21.6450850 110.3921800
 123.4471330  21.5788230 110.6210270 124.5266870  22.5830980 110.2777040
 124.3611130  17.9167850 107.3888960 123.4214800  18.0781810 107.4741420
 124.6794390  18.6353530 106.8424950 130.8823890  22.5986370 117.3667990
 130.0542520  22.6679460 116.8918120 131.4774370  23.1840680 116.8983820
 128.4039340  23.2071150 110.8957050 127.7851760  22.8690700 110.2483350
 128.3863790  22.5630910 111.6036240 127.8465900  19.3855690 118.3122860
 127.4337080  20.2109400 118.5662850 127.1141850  18.8000730 118.1199220
 119.9798690  22.1715590 113.1741530 119.5755690  21.4592840 112.6787430
 120.0661810  21.8268830 114.0629570 120.4480390  25.8583150 115.3380740
 120.1508680  25.2528620 114.6588520 121.3980210  25.8960460 115.2270100
 118.6927310  18.9458800 116.9540570 119.2441900  19.0554140 116.1793820
 119.2070820  19.3196400 117.6695800 128.5366000  29.4315020 119.0003840
 128.0596560  30.2387210 118.8076450 127.8527790  28.7793350 119.1530050
 119.5398820  25.5964840 121.9888540 118.6427350  25.8204810 122.2361940
 119.5651690  25.7199780 121.0399940 126.5804040  22.4457960 107.9029800
 127.0197320  21.6080390 107.7567620 127.2932460  23.0787360 107.9893940
 118.3670040  22.4678160 120.5645910 118.2277810  23.3400960 120.9333310
 117.4851400  22.1250970 120.4193850 124.6899420  27.3854030 111.8711040
 125.1295330  28.1278360 111.4566430 124.6286310  27.6280600 112.7950000
 120.1650390  28.4099860 122.7731060 120.1365820  28.8142810 121.9059490
 120.0015360  27.4810220 122.6102660 130.1621180  13.7000770 106.2170840
 129.8493840  13.7927600 107.1169910 130.9233650  14.2781800 106.1668270
 116.6803320  21.0660570 110.6748180 116.5600920  21.7922660 110.0629450
 116.3704210  20.2963480 110.1976090 132.1165210  29.1926960 124.0695230
 132.5924930  29.6709850 124.7484310 132.7372370  29.1244450 123.3440730
 114.3188690  24.2375710 116.4816820 114.3969110  24.3724480 115.5372540
 114.9330370  23.5291600 116.6744940 115.5636320  25.9375900 112.8923000
 115.1564400  26.0790490 112.0376600 116.4549330  25.6536060 112.6894210
 131.5198460  26.3839810 121.2295240 131.6461520  26.1451690 120.3112420
 131.5619840  25.5524350 121.7017320 125.3815200  30.0867810 119.7990050
 125.8959870  29.9975820 120.6012480 124.5384280  30.4327510 120.0917960
 127.3569600  30.3723150 109.2274050 127.1970740  30.0826090 110.1255880
 127.1916310  29.5963280 108.6919280 119.8357980  30.1521680 111.0045670
 119.6600460  29.2357220 110.7913470 118.9813720  30.5108970 111.2443470
 127.0595730  27.8810710 107.7872050 126.3660890  27.8788000 107.1274330
 127.8018590  27.4570030 107.3566220 126.6245660  29.5073420 111.8620540
 127.0802610  28.7262800 112.1759160 126.9638180  30.2180240 112.4061720
 131.3722470  18.4372270 122.1944980 130.7566740  18.9451940 121.6660440
 131.0518890  17.5370600 122.1370920 114.3748210  25.2789880 119.0211280
 114.5379250  24.8095240 118.2030650 114.8400660  24.7713440 119.6860120
 119.1466980  14.4095640 114.0571850 118.7035130  15.1905180 113.7256370
 119.7051970  14.7325530 114.7642790 123.4336790  17.2764160 119.6607170
 122.9716160  17.4847180 120.4727110 123.0314900  16.4623510 119.3577840
 128.4341300  18.4973110 120.7903830 127.5834890  18.1978860 121.1112900
 128.2743090  18.7415120 119.8787650 125.5291010  19.9974860 122.8902620
 125.8544420  19.1638610 122.5504850 126.3171340  20.5203380 123.0380950
 122.2625800  14.0306340 108.9377680 121.6379980  14.0266210 109.6630990
 122.1755920  13.1637300 108.5413650 121.1842880  14.9542970 115.9161450
 121.4815210  15.8605800 115.8353470 121.7328440  14.4661750 115.3021020
 118.9381200  19.5329210 111.7853100 118.7122120  19.3166380 112.6899720
 118.1573730  19.9657670 111.4399070 126.1678960  19.5392580 110.3843750
 125.5687850  20.2628380 110.2007370 126.7158570  19.4769360 109.6020200
 121.3780410  20.4314790 122.4513370 121.2824010  19.4909520 122.3013770
 122.2212390  20.6529860 122.0561440 124.7743830  18.1756120 112.4147030
 125.1673400  18.4928320 111.6015720 125.1360680  17.2968000 112.5291550
 116.5090950  16.8428460 120.6047150 116.1154340  17.6903670 120.8119930
 115.8209350  16.2054830 120.7955790 123.0836000  16.9263430 123.6743890
 122.3934320  16.7335630 124.3089980 123.8268300  17.2098070 124.2068190
 113.8108000  14.7656920 114.6377230 113.5221050  15.3359780 115.3502210
 114.5553760  14.2861370 115.0008460 113.9978230  18.7077040 105.8479950
 113.9152900  19.6507800 105.9894940 113.6461290  18.5651950 104.9692300
 125.3598970  20.7661870 116.5097810 124.6280090  21.2748680 116.8587910
 124.9623310  19.9491850 116.2086590 121.7976360  17.4416070 114.9150300
 121.8012420  17.0006020 114.0654840 122.6927480  17.7633400 115.0222120
 117.6478740  17.3242560 113.8744510 117.3078790  17.8017790 114.6311560
 116.8856060  16.8707680 113.5145610 121.8596510  18.4428150 107.9057060
 121.9809330  18.4014630 108.8542880 121.4745020  19.3052300 107.7503790
 125.8224880  16.2195550 115.9220750 125.8397620  16.6704200 116.7662600
 125.5740460  15.3201190 116.1354190 120.8718010  20.7529290 107.3040360
 120.3034910  20.3047540 106.6776270 121.5807010  21.1122070 106.7705510
 129.2495630  13.6327730 121.7607130 129.5741400  12.9017390 122.2865110
 129.2852140  13.3141370 120.8588120 115.9487190  24.6541310 121.1807090
 115.5641980  24.0134980 121.7790050 116.2599380  25.3577430 121.7501820
 122.0984330  21.5017850 116.6615710 122.4654460  21.0276420 117.4077050
 121.9089390  22.3759420 117.0024050 114.9624820  16.2461540 112.7909180
 114.6771740  15.8817210 113.6287800 114.9003680  15.5142000 112.1772320
 119.8883700  20.5426490 118.9799920 119.5840770  21.4218470 119.2050280
 120.8430160  20.6026280 119.0157360 118.4165490  24.7487480 109.5766770
 117.6427750  24.2085100 109.4165490 119.1460120  24.2294090 109.2384530
 129.1753470  23.7452840 115.3693160 129.8952590  24.2408130 114.9789270
 128.9735290  23.0670730 114.7247030 124.6363410  15.1390800 109.5122550
 123.8228020  14.6403970 109.4367860 124.4425360  15.9789050 109.0958900
 124.5572270  23.8161900 121.2562160 124.4909580  22.8957570 121.0019750
 123.9277410  23.9137340 121.9706800 127.3511800  19.5110450 107.8084710
 128.2391420  19.8227680 107.6336050 127.3216890  18.6382700 107.4165290
 118.4602890  24.4167860 113.2145580 118.9781560  23.6136120 113.1602470
 118.0086910  24.3547000 114.0562410 123.3472390  25.6834140 108.4872880
 123.6888090  26.4276370 107.9916200 122.5185100  25.9965260 108.8497710
 115.9447430  21.3829230 120.1271280 115.5862370  22.0483080 120.7144620
 115.6501990  20.5512780 120.4983900 119.1460550  21.8413470 123.0110830
 118.8460690  21.9870650 122.1138650 119.9171790  21.2818760 122.9184220
 124.4889000  26.6382470 121.0065960 124.5033540  25.7063430 120.7884870
 123.7814100  26.7242230 121.6455730 129.6226070  20.8222290 107.2764570
 129.5389790  21.2536510 106.4261010 130.3420260  21.2820640 107.7091390
 130.7000210  23.2789810 120.3534540 129.9748400  23.8718590 120.1563930
 131.2275670  23.2713350 119.5547910 130.6513320  27.6764550 110.0046700
 130.0089480  27.0220170 110.2790420 130.2643980  28.0819640 109.2287370
 126.2299800  25.0049980 113.8518390 126.5823620  24.4078110 113.1919760
 125.3462130  24.6794210 114.0226640 122.3163080  25.7647670 111.2588800
 123.0034210  26.3116880 111.6396390 121.5295500  26.3088400 111.2938410
 114.4555480  21.3820490 106.7505880 115.3250330  21.6645290 107.0341800
 113.9645800  22.1956360 106.6354690 121.6190290  22.7693700 110.8714160
 122.0753070  23.5798950 111.0974350 121.2678500  22.4516840 111.7032650
 123.9222900  28.2800040 118.1006460 124.5665120  28.4859420 118.7779880
 124.2852340  27.5188440 117.6477310 117.5202070  13.1131350 111.3436680
 117.3916700  13.1049250 112.2921600 116.6964090  13.4514440 110.9927690
 125.1954980  26.2832390 116.8183910 125.8377210  25.5825550 116.9316080
 125.7204330  27.0630830 116.6380800 129.0410700  26.5681010 106.5423050
 128.8148280  25.8511450 107.1347690 128.6506900  26.3193450 105.7044800
 126.9692600  27.0827290 120.0219970 127.3048840  27.6693980 120.6997890
 126.0492940  26.9520000 120.2517760 114.8226730  30.5947870 107.3167510
 115.1824370  31.1937210 106.6624780 114.6819070  31.1407760 108.0902540
 114.5196000  14.8722470 120.8043380 113.8054520  15.0719390 121.4095990
 114.9391040  14.0962040 121.1758180 128.6226950  24.4852950 108.2037210
 128.3348650  24.9465640 108.9915090 129.4179120  24.0250720 108.4721430
 114.8068590  28.8602730 121.7909910 114.9159710  27.9197470 121.6505300
 114.1549150  29.1257480 121.1423640 122.7981180  27.1318620 123.1908030
 122.4778050  26.4127860 123.7353720 122.1239540  27.8073690 123.2644090
 120.8395350  27.9779070 108.1341180 120.8305450  28.7108760 107.5185690
 119.9193710  27.7310650 108.2268140 116.4401990  23.1993960 108.8787940
 115.8329940  23.9392860 108.8883240 116.9151340  23.2893320 108.0526140
 126.0134780  17.3644780 118.5544830 126.3815600  16.5439990 118.8824400
 125.1532980  17.4246670 118.9700480 129.3796810  16.3201720 109.3632390
 128.7509970  16.4247390 108.6490620 128.8848730  16.5398500 110.1526270
 123.8254950  28.0407310 106.7966370 123.9266930  27.8371300 105.8668350
 122.9256690  27.7865590 107.0014150 121.3480840  18.5987670 110.7790270
 120.6396990  19.0674010 111.2203880 121.6325320  17.9409680 111.4135460
 122.9736770  20.0184370 118.7782800 123.4722020  20.4930190 119.4434650
 123.1159720  19.0947890 118.9852830 125.3796270  15.3238330 112.2186060
 125.2564050  15.3424460 111.2695570 126.3280830  15.3717270 112.3384460
 122.4673060  30.5593630 111.4914040 122.7214560  30.5215020 110.5693410
 121.5185540  30.4326960 111.4842290 119.5515860  16.9072750 108.1540980
 120.4006390  17.3442900 108.0881170 119.1847130  17.2193010 108.9813040
 130.1803630  16.2352330 119.6211190 129.6777230  16.9757730 119.9605000
 130.9960290  16.6236330 119.3047980 128.4725640  21.4785510 113.0672550
 127.5315780  21.4935740 113.2420240 128.7869710  20.6921470 113.5132850
 118.4507280  23.1605110 106.6276510 119.2170550  23.0486470 107.1901940
 118.5281970  22.4643080 105.9753280 117.1454040  20.5930180 107.3109400
 117.2257630  19.6457690 107.4226800 118.0373790  20.9237060 107.4170060
 130.4751220  28.6494360 114.7426810 130.5998640  29.4725530 115.2150620
 131.3416780  28.4385090 114.3950960 117.9468750  30.7425570 114.4143940
 118.6831230  30.1941030 114.6852510 118.3309670  31.6081580 114.2749930
 114.8314230  26.8099140 110.2885450 113.9054010  27.0520280 110.2790860
 115.2970660  27.6373400 110.1670200 116.9527030  29.9271640 123.6029520
 117.7539760  30.2483690 124.0164920 116.4378850  29.5667220 124.3249430
 121.0571060  29.9155880 106.2369510 121.8499670  30.2044710 105.7851300
 120.5375410  29.4848050 105.5581990 125.7891660  26.0351510 123.5504930
 125.1829820  26.0583110 122.8100680 125.4845770  25.3034550 124.0872180
 127.2192030  29.7631800 122.1614340 128.1713780  29.6789820 122.1114580
 127.0720250  30.4273510 122.8348130 130.1101230  29.1426010 107.6606250
 129.8242740  28.7291150 106.8460430 129.9120780  30.0713720 107.5406770
 114.6724840  22.4145100 122.5465570 115.1763860  21.8352380 123.1181800
 113.9332260  22.6985330 123.0841940 121.5748460  25.1359290 106.1011860
 121.4699100  24.5211640 106.8273240 121.4072680  24.6125180 105.3174870
 121.7262780  23.8216090 122.0801090 120.9608450  24.3901090 121.9955760
 121.9078740  23.5292300 121.1869320 124.8151190  24.1979320 106.7053850
 124.2661290  24.6448620 107.3496590 125.4370450  23.6928570 107.2291520
 128.8686130  25.5521420 122.6376110 129.6095600  25.8897180 122.1343570
 128.1058810  25.7213480 122.0845880 116.7047920  20.5574690 123.4415640
 116.7453260  20.2588560 124.3500870 117.5593420  20.9582300 123.2823160
 120.4826310  23.1570240 108.6019150 120.9042730  22.9910110 109.4450540
 120.6077150  22.3470470 108.1074290 118.6453730  19.1366790 121.4090130
 118.1150190  18.6457740 120.7813470 119.3141800  19.5650990 120.8748060
 122.9953950  22.1807850 105.8496250 123.5159610  21.4656870 105.4837400
 123.6422350  22.8193720 106.1496760 127.5431790  23.6036250 121.1731320
 127.9572810  23.7581330 122.0221740 126.6082790  23.7291470 121.3357100
 128.0153960  20.9432410 123.1770470 128.5974730  20.1884730 123.0890950
 128.1915730  21.4739850 122.4001950 119.1326030  16.1029160 121.4887420
 119.0382900  15.4849910 120.7638290 118.5523420  16.8295450 121.2617330
 121.8987470  14.6602400 118.5214810 121.4504770  14.6826660 117.6760360
 121.2652670  14.2621420 119.1185110 122.3047020  23.5556730 119.1427250
 122.7235130  24.3989460 118.9703490 121.3855650  23.6928770 118.9134030
 124.6410920  21.2872910 120.5265090 124.7607130  20.6914050 121.2659930
 125.5004920  21.3242600 120.1066390 126.9798820  21.8410100 119.1027600
 126.4534040  22.3652720 118.4992740 127.3230160  22.4737490 119.7337330
 119.3785210  19.2303470 105.5477310 119.1774270  18.3670830 105.9090650
 119.2077260  19.1436830 104.6098910 120.1554440  29.8609740 120.2584980
 119.6175530  30.5855800 119.9393680 120.4088400  29.3840080 119.4682320
 121.4079690  17.8294260 121.7840910 121.9979380  17.5210110 122.4718730
 120.5899930  17.3574010 121.9400810 126.2273120  17.4460070 122.0173930
 125.5388640  16.7841610 121.9523920 126.9479140  16.9998340 122.4622390
 126.8573520  14.0411700 108.0764190 127.1375810  13.1979600 108.4323610
 126.0839250  14.2734810 108.5902940 118.1768010  16.3304090 105.5355190
 118.4793910  16.3371520 104.6274340 118.9162600  15.9801950 106.0322850
 123.0116650  31.0960950 120.5171630 122.9375350  31.9996090 120.8244000
 122.1095490  30.7772850 120.4893700 121.3952940  15.2738710 106.5211390
 121.0474940  14.5962700 105.9413840 121.5965710  14.8128220 107.3354780
 123.5601980  30.2619460 108.1397990 124.4552770  30.6004430 108.1616750
 123.5919610  29.5398870 107.5122270 117.1998140  25.6346510 106.3684990
 117.6373010  26.1776180 107.0242570 117.6845870  24.8093460 106.3781330
 114.4143940  28.4235540 113.8205250 114.7446950  27.5556600 113.5883890
 114.8434940  28.6294060 114.6510210 119.0105860  26.7544550 111.4807220
 118.7101400  26.6309520 112.3811130 118.9043350  25.8953140 111.0722950
 114.9034150  29.2906130 116.5586880 114.4665140  29.4706930 117.3911030
 115.4711830  30.0480750 116.4168600 130.5396330  28.7923130 120.8464190
 129.9398320  28.8515690 120.1028110 130.6690230  27.8528110 120.9761040
 131.7797780  26.5340950 106.1833900 130.9490740  26.6017600 106.6541130
 131.9569610  27.4245070 105.8800760 131.2354240  23.2788430 108.6868100
 131.9973150  23.8485080 108.7927790 131.2508610  22.7115630 109.4576410
 114.7358580  21.8026360 112.9175760 114.0807420  21.5338000 112.2735460
 115.5736530  21.6930840 112.4677740 132.2414210  24.1338530 113.5310030
 132.6123040  23.3505850 113.1246000 132.8816140  24.8227630 113.3527330
 129.2247970  25.5175110 118.9440350 128.4107810  25.9472270 119.2066140
 129.6322170  26.1293520 118.3309400 131.2873410  23.5722800 105.8440620
 131.5622250  24.4801680 105.7159840 131.0984150  23.5085330 106.7802610
 127.6849020  16.5967650 107.1394250 128.1033900  16.4098630 106.2990910
 127.3785080  15.7446700 107.4497180 131.1838750  21.5091790 110.8370050
 130.8082350  20.7419720 110.4051340 130.4541870  21.8914490 111.3244980
 115.7734510  22.1878930 117.4579100 116.1407550  22.1006330 118.3375120
 115.2045330  21.4245480 117.3585960 130.5738370  20.6563310 120.4709570
 130.3424460  20.4276060 119.5707520 130.8342920  21.5762860 120.4254460
 115.3250510  19.0988020 121.3637520 114.4306560  19.0654780 121.7031230
 115.8648060  19.2974810 122.1288770 129.0126440  15.8819740 123.2489270
 129.8896620  15.8903140 123.6323270 129.0247280  15.1450580 122.6381620
 113.9496660  19.0125290 108.8601090 113.0460740  19.2755490 108.6852750
 114.4337280  19.2836460 108.0801050 130.4589710  19.7349280 114.1377290
 130.9827190  19.2411930 113.5067460 131.0449130  19.8699640 114.8824860
 130.6379430  19.8189150 117.6596840 129.6882140  19.7852690 117.7741830
 130.8192440  20.7289260 117.4246610 116.4923870  18.0690830 106.7695470
 117.2015570  17.6474050 106.2842750 115.7763810  18.1366060 106.1378820
 116.1398030  14.1230160 105.8098120 116.8626160  14.6639100 106.1279340
 116.4122550  13.8493580 104.9339660 129.9489680  18.9922630 110.0769700
 130.4448800  18.7593500 110.8618580 129.7505750  18.1534470 109.6607340
 115.8290220  13.3736350 115.7120740 116.4766410  12.8233730 115.2715900
 116.2492060  13.6279500 116.5336550 131.3776840  17.6283580 112.6107380
 131.2676120  17.4739620 113.5489650 132.1384430  17.1004520 112.3682790
 129.7242560  13.5677710 119.0690380 130.3614780  14.1811850 119.4349570
 129.8717450  13.6038370 118.1239610 132.2667110  15.4591500 105.8513520
 133.1916420  15.3272680 105.6431810 132.2442900  15.5384320 106.8049970
 132.3405600  16.2302160 108.4770230 131.5457100  16.1647280 109.0063140
 132.5448880  17.1652800 108.4655580 129.2824020  30.2693710 112.4708620
 129.8783090  29.9478280 111.7943040 129.5402170  29.7965530 113.2621890
 115.5822220  13.5292020 118.4546060 115.2337040  13.9855840 119.2204240
 115.2509920  12.6349150 118.5368490 117.1886590  26.7011620 122.6199250
 117.1456220  26.3304530 123.5013710 117.3197600  27.6389190 122.7601070
 120.8892620  28.2571210 118.2208970 120.6483980  28.5245770 117.3339490
 121.8295260  28.4276940 118.2759830 123.0947040  14.7203900 121.9765480
 123.0335930  15.3125730 122.7260890 124.0347420  14.6129860 121.8315740
 125.7321600  14.3773960 121.6157770 126.3462010  14.6953250 120.9538850
 126.2771160  13.8922550 122.2353630 132.1496780  30.2765590 119.0219610
 131.6555060  30.6734460 118.3046740 131.5410070  29.6514800 119.4156890
 116.2542860  13.0568220 121.7296830 116.8025850  12.8756270 120.9662940
 116.3198170  12.2662330 122.2653140 117.0274620  29.6473870 119.7397030
 116.4334940  29.5158570 120.4787070 117.0198460  28.8112010 119.2739130
 126.4729640  12.9406100 117.9427060 125.5989480  13.2741210 117.7399990
 126.3640390  12.4679280 118.7678930 127.3801620  15.1476970 119.3268780
 127.0514980  14.3328730 118.9470510 128.3283920  15.1046780 119.2034470
 129.8336230  30.9189010 116.3006350 129.3739200  31.6704820 115.9264370
 129.2048690  30.1995480 116.2421150 116.6586850  27.0132250 118.6905070
 115.9320910  26.3937540 118.6231020 116.7196000  27.4072860 117.8203150
 120.2631950  29.2277250 115.4754480 120.7796970  28.6164610 114.9502740
 120.9129330  29.7306030 115.9665490 123.0027450  30.1185740 116.3023460
 123.2905260  29.8640040 115.4256470 123.5150670  29.5663100 116.8929030
 124.2204460  13.8575940 116.8819970 123.4376250  14.3321440 117.1616730
 123.9267390  12.9530770 116.7733150 128.7725530  14.5599040 114.9269060
 129.2133620  14.5044140 114.0790660 128.5033120  15.4757050 114.9979240
 130.6364100  14.1914280 112.9377880 130.5752500  13.2475500 112.7908900
 131.4156130  14.2994370 113.4831340 114.9416850  30.3306640 111.9001830
 114.7738890  29.6977320 112.5983720 114.0751360  30.5366040 111.5496020
 115.5644870  14.1623420 109.4033690 116.3224230  14.2752300 108.8297720
 115.1022040  14.9992620 109.3577120 122.1058680  16.2762690 112.3936000
 121.2933190  15.9019580 112.0531880 122.6100320  15.5207770 112.6957190
 126.6083660  12.9405140 113.6319070 127.2113030  13.5125350 114.1067590
 125.8676650  13.5044580 113.4092970 129.7518260  13.3426700 108.9059350
 129.9468890  14.2410150 109.1726780 128.9648130  13.1113780 109.3992300
 116.5479550  29.0239870 109.3451970 116.0227170  29.4047900 108.6413930
 116.4724130  29.6490640 110.0661680 117.9370020  14.6887470 107.9435660
 118.4662780  13.9017270 107.8143610 118.5698340  15.3678660 108.1771190
 120.1307860  14.4262610 110.9981050 119.5010600  13.7249920 111.1651180
 119.5913000  15.1866740 110.7814210 123.0699810  31.0401840 123.6691660
 123.9967120  30.8046110 123.7127620 123.0550240  31.8673840 123.1877690
 131.3044870  30.5827410 110.6665910 131.4797060  29.8965150 110.0226830
 130.6066440  31.1074460 110.2742580 120.2563420  13.7046590 123.4333540
 119.9747690  14.2080190 122.6694360 120.6383120  12.9068340 123.0675670
 119.1472520  30.9722250 108.2201220 119.8791340  30.6881530 107.6725110
 119.4066190  30.7335530 109.1100600 118.3087310  27.0886980 108.2247550
 117.6796190  27.5572080 108.7733380 118.4235140  26.2436200 108.6593740
 126.8578880  13.1200170 124.0114010 126.7444330  13.4394780 124.9065530
 127.6748620  13.5212680 123.7151290 129.6377370  30.2671700 123.4932700
 130.4302690  29.7720930 123.2858660 129.9310520  30.9461840 124.1008310
 125.7637030  21.1392640  94.3748750 125.6831080  20.2247250  94.1040460
 125.3501450  21.6359710  93.6688460 123.8955070  22.9171660  96.2558020
 123.1197170  22.4372100  96.5456590 124.5468000  22.2377310  96.0814180
 117.9120900  23.2291470  97.1333780 117.0805780  22.9740180  97.5330290
 118.5201880  23.3002240  97.8691700 127.9162500  27.3231850  95.0357150
 127.4544030  26.5519090  95.3644320 128.7288050  27.3497920  95.5409600
 117.8922160  27.2631560  97.3291800 118.1950200  26.3729300  97.1502020
 118.6365750  27.8201780  97.1014050 116.3212850  18.1893360  90.9176170
 115.4329550  18.5309330  90.8156050 116.6054040  17.9893680  90.0257000
 114.2845860  20.7899010  96.8015870 114.8561970  20.0221210  96.8019510
 114.2847400  21.0887770  95.8922480 124.1425810  29.6089860  94.6561140
 123.5237250  30.0647360  94.0855580 124.9977590  29.7641320  94.2550840
 123.3364060  25.5928850  96.2628180 123.2672340  24.6518790  96.1017310
 124.0983920  25.6830260  96.8350750 115.5270730  16.1983370  98.5884800
 115.3473570  15.3009120  98.8687560 115.1250810  16.7455240  99.2631750
 124.3669230  18.3999230  96.4897110 124.7434050  17.5271110  96.3770780
 124.2688740  18.7357930  95.5987550 118.4974240  16.7724860  91.9514550
 118.6040990  17.6728590  92.2583310 117.5866600  16.7242830  91.6609200
 128.1493350  15.8949670  93.4225450 128.9702970  15.4046240  93.4650930
 128.1827430  16.4847330  94.1757290 116.1457400  18.6943870  97.1967140
 116.8267510  18.9582240  97.8154540 115.8305450  17.8544740  97.5305150
 120.3381970  19.7411230  96.2839730 120.8460190  20.2392200  96.9244750
 120.8695210  18.9646430  96.1079090 132.4392900  17.9116420  99.9869080
 131.7345070  18.2998130  99.4684190 132.7050820  18.6066710 100.5890010
 118.6218070  14.3809790 100.5503150 118.6236510  14.8982180  99.7449050
 117.7922380  13.9039970 100.5273080 125.0089160  24.4929100  92.0493050
 124.3906430  24.9578550  91.4855770 125.5212410  25.1856580  92.4662560
 119.8720920  24.0204970  98.7276650 119.5390300  24.6473890  99.3697720
 120.0487600  24.5466850  97.9478320 128.3854830  17.8350050  96.1952990
 127.6810400  18.1234940  96.7756100 128.7466990  18.6450160  95.8352550
 118.3033400  16.0919750  98.5573600 118.6450210  16.9361800  98.2627470
 117.3649210  16.2403490  98.6738940 119.0840020  25.9885770 100.5425830
 119.7014020  26.6636850 100.2610280 118.2233140  26.3973750 100.4513330
 114.3772360  25.1785630  89.4232680 114.0000340  25.6672730  88.6917580
 114.6345430  25.8510910  90.0539210 130.0017610  27.4525180  98.4580470
 129.3181130  28.1224290  98.4497140 130.5411900  27.6505830  97.6925330
 131.4541750  17.2804840  96.5862200 130.5066660  17.3143820  96.7177630
 131.7791740  18.0943790  96.9711560 121.9861290  13.5802020  94.8818190
 122.2936270  13.0248910  94.1653690 121.0561990  13.7146480  94.6991180
 127.5376350  29.2969310  97.1725650 127.5503510  28.8931600  96.3047910
 126.9851570  30.0716600  97.0687080 128.8321770  26.0185530  92.2615820
 128.7218100  25.0759860  92.3865240 128.8290020  26.3801170  93.1478580
 126.9361790  24.1999150  98.5008260 127.3530580  23.9859260  97.6661720
 127.6601610  24.4571940  99.0716880 124.3742050  21.6450850  91.6178310
 123.4471330  21.5788230  91.8466780 124.5266870  22.5830980  91.5033550
 124.3611130  17.9167850  88.6145470 123.4214800  18.0781810  88.6997930
 124.6794390  18.6353530  88.0681460 130.8823890  22.5986370  98.5924500
 130.0542520  22.6679460  98.1174630 131.4774370  23.1840680  98.1240330
 128.4039340  23.2071150  92.1213560 127.7851760  22.8690700  91.4739860
 128.3863790  22.5630910  92.8292750 127.8465900  19.3855690  99.5379370
 127.4337080  20.2109400  99.7919360 127.1141850  18.8000730  99.3455730
 119.9798690  22.1715590  94.3998040 119.5755690  21.4592840  93.9043940
 120.0661810  21.8268830  95.2886080 120.4480390  25.8583150  96.5637250
 120.1508680  25.2528620  95.8845030 121.3980210  25.8960460  96.4526610
 118.6927310  18.9458800  98.1797080 119.2441900  19.0554140  97.4050330
 119.2070820  19.3196400  98.8952310 128.5366000  29.4315020 100.2260350
 128.0596560  30.2387210 100.0332960 127.8527790  28.7793350 100.3786560
 119.5398820  25.5964840 103.2145050 118.6427350  25.8204810 103.4618450
 119.5651690  25.7199780 102.2656450 126.5804040  22.4457960  89.1286310
 127.0197320  21.6080390  88.9824130 127.2932460  23.0787360  89.2150450
 118.3670040  22.4678160 101.7902420 118.2277810  23.3400960 102.1589820
 117.4851400  22.1250970 101.6450360 124.6899420  27.3854030  93.0967550
 125.1295330  28.1278360  92.6822940 124.6286310  27.6280600  94.0206510
 120.1650390  28.4099860 103.9987570 120.1365820  28.8142810 103.1316000
 120.0015360  27.4810220 103.8359170 130.1621180  13.7000770  87.4427350
 129.8493840  13.7927600  88.3426420 130.9233650  14.2781800  87.3924780
 116.6803320  21.0660570  91.9004690 116.5600920  21.7922660  91.2885960
 116.3704210  20.2963480  91.4232600 132.1165210  29.1926960 105.2951740
 132.5924930  29.6709850 105.9740820 132.7372370  29.1244450 104.5697240
 114.3188690  24.2375710  97.7073330 114.3969110  24.3724480  96.7629050
 114.9330370  23.5291600  97.9001450 115.5636320  25.9375900  94.1179510
 115.1564400  26.0790490  93.2633110 116.4549330  25.6536060  93.9150720
 131.5198460  26.3839810 102.4551750 131.6461520  26.1451690 101.5368930
 131.5619840  25.5524350 102.9273830 125.3815200  30.0867810 101.0246560
 125.8959870  29.9975820 101.8268990 124.5384280  30.4327510 101.3174470
 127.3569600  30.3723150  90.4530560 127.1970740  30.0826090  91.3512390
 127.1916310  29.5963280  89.9175790 119.8357980  30.1521680  92.2302180
 119.6600460  29.2357220  92.0169980 118.9813720  30.5108970  92.4699980
 127.0595730  27.8810710  89.0128560 126.3660890  27.8788000  88.3530840
 127.8018590  27.4570030  88.5822730 126.6245660  29.5073420  93.0877050
 127.0802610  28.7262800  93.4015670 126.9638180  30.2180240  93.6318230
 131.3722470  18.4372270 103.4201490 130.7566740  18.9451940 102.8916950
 131.0518890  17.5370600 103.3627430 114.3748210  25.2789880 100.2467790
 114.5379250  24.8095240  99.4287160 114.8400660  24.7713440 100.9116630
 119.1466980  14.4095640  95.2828360 118.7035130  15.1905180  94.9512880
 119.7051970  14.7325530  95.9899300 123.4336790  17.2764160 100.8863680
 122.9716160  17.4847180 101.6983620 123.0314900  16.4623510 100.5834350
 128.4341300  18.4973110 102.0160340 127.5834890  18.1978860 102.3369410
 128.2743090  18.7415120 101.1044160 125.5291010  19.9974860 104.1159130
 125.8544420  19.1638610 103.7761360 126.3171340  20.5203380 104.2637460
 122.2625800  14.0306340  90.1634190 121.6379980  14.0266210  90.8887500
 122.1755920  13.1637300  89.7670160 121.1842880  14.9542970  97.1417960
 121.4815210  15.8605800  97.0609980 121.7328440  14.4661750  96.5277530
 118.9381200  19.5329210  93.0109610 118.7122120  19.3166380  93.9156230
 118.1573730  19.9657670  92.6655580 126.1678960  19.5392580  91.6100260
 125.5687850  20.2628380  91.4263880 126.7158570  19.4769360  90.8276710
 121.3780410  20.4314790 103.6769880 121.2824010  19.4909520 103.5270280
 122.2212390  20.6529860 103.2817950 124.7743830  18.1756120  93.6403540
 125.1673400  18.4928320  92.8272230 125.1360680  17.2968000  93.7548060
 116.5090950  16.8428460 101.8303660 116.1154340  17.6903670 102.0376440
 115.8209350  16.2054830 102.0212300 123.0836000  16.9263430 104.9000400
 122.3934320  16.7335630 105.5346490 123.8268300  17.2098070 105.4324700
 113.8108000  14.7656920  95.8633740 113.5221050  15.3359780  96.5758720
 114.5553760  14.2861370  96.2264970 113.9978230  18.7077040  87.0736460
 113.9152900  19.6507800  87.2151450 113.6461290  18.5651950  86.1948810
 125.3598970  20.7661870  97.7354320 124.6280090  21.2748680  98.0844420
 124.9623310  19.9491850  97.4343100 121.7976360  17.4416070  96.1406810
 121.8012420  17.0006020  95.2911350 122.6927480  17.7633400  96.2478630
 117.6478740  17.3242560  95.1001020 117.3078790  17.8017790  95.8568070
 116.8856060  16.8707680  94.7402120 121.8596510  18.4428150  89.1313570
 121.9809330  18.4014630  90.0799390 121.4745020  19.3052300  88.9760300
 125.8224880  16.2195550  97.1477260 125.8397620  16.6704200  97.9919110
 125.5740460  15.3201190  97.3610700 120.8718010  20.7529290  88.5296870
 120.3034910  20.3047540  87.9032780 121.5807010  21.1122070  87.9962020
 129.2495630  13.6327730 102.9863640 129.5741400  12.9017390 103.5121620
 129.2852140  13.3141370 102.0844630 115.9487190  24.6541310 102.4063600
 115.5641980  24.0134980 103.0046560 116.2599380  25.3577430 102.9758330
 122.0984330  21.5017850  97.8872220 122.4654460  21.0276420  98.6333560
 121.9089390  22.3759420  98.2280560 114.9624820  16.2461540  94.0165690
 114.6771740  15.8817210  94.8544310 114.9003680  15.5142000  93.4028830
 119.8883700  20.5426490 100.2056430 119.5840770  21.4218470 100.4306790
 120.8430160  20.6026280 100.2413870 118.4165490  24.7487480  90.8023280
 117.6427750  24.2085100  90.6422000 119.1460120  24.2294090  90.4641040
 129.1753470  23.7452840  96.5949670 129.8952590  24.2408130  96.2045780
 128.9735290  23.0670730  95.9503540 124.6363410  15.1390800  90.7379060
 123.8228020  14.6403970  90.6624370 124.4425360  15.9789050  90.3215410
 124.5572270  23.8161900 102.4818670 124.4909580  22.8957570 102.2276260
 123.9277410  23.9137340 103.1963310 127.3511800  19.5110450  89.0341220
 128.2391420  19.8227680  88.8592560 127.3216890  18.6382700  88.6421800
 118.4602890  24.4167860  94.4402090 118.9781560  23.6136120  94.3858980
 118.0086910  24.3547000  95.2818920 123.3472390  25.6834140  89.7129390
 123.6888090  26.4276370  89.2172710 122.5185100  25.9965260  90.0754220
 115.9447430  21.3829230 101.3527790 115.5862370  22.0483080 101.9401130
 115.6501990  20.5512780 101.7240410 119.1460550  21.8413470 104.2367340
 118.8460690  21.9870650 103.3395160 119.9171790  21.2818760 104.1440730
 124.4889000  26.6382470 102.2322470 124.5033540  25.7063430 102.0141380
 123.7814100  26.7242230 102.8712240 129.6226070  20.8222290  88.5021080
 129.5389790  21.2536510  87.6517520 130.3420260  21.2820640  88.9347900
 130.7000210  23.2789810 101.5791050 129.9748400  23.8718590 101.3820440
 131.2275670  23.2713350 100.7804420 130.6513320  27.6764550  91.2303210
 130.0089480  27.0220170  91.5046930 130.2643980  28.0819640  90.4543880
 126.2299800  25.0049980  95.0774900 126.5823620  24.4078110  94.4176270
 125.3462130  24.6794210  95.2483150 122.3163080  25.7647670  92.4845310
 123.0034210  26.3116880  92.8652900 121.5295500  26.3088400  92.5194920
 114.4555480  21.3820490  87.9762390 115.3250330  21.6645290  88.2598310
 113.9645800  22.1956360  87.8611200 121.6190290  22.7693700  92.0970670
 122.0753070  23.5798950  92.3230860 121.2678500  22.4516840  92.9289160
 123.9222900  28.2800040  99.3262970 124.5665120  28.4859420 100.0036390
 124.2852340  27.5188440  98.8733820 117.5202070  13.1131350  92.5693190
 117.3916700  13.1049250  93.5178110 116.6964090  13.4514440  92.2184200
 125.1954980  26.2832390  98.0440420 125.8377210  25.5825550  98.1572590
 125.7204330  27.0630830  97.8637310 129.0410700  26.5681010  87.7679560
 128.8148280  25.8511450  88.3604200 128.6506900  26.3193450  86.9301310
 126.9692600  27.0827290 101.2476480 127.3048840  27.6693980 101.9254400
 126.0492940  26.9520000 101.4774270 114.5196000  14.8722470 102.0299890
 113.8054520  15.0719390 102.6352500 114.9391040  14.0962040 102.4014690
 128.6226950  24.4852950  89.4293720 128.3348650  24.9465640  90.2171600
 129.4179120  24.0250720  89.6977940 114.8068590  28.8602730 103.0166420
 114.9159710  27.9197470 102.8761810 114.1549150  29.1257480 102.3680150
 122.7981180  27.1318620 104.4164540 122.4778050  26.4127860 104.9610230
 122.1239540  27.8073690 104.4900600 120.8395350  27.9779070  89.3597690
 120.8305450  28.7108760  88.7442200 119.9193710  27.7310650  89.4524650
 116.4401990  23.1993960  90.1044450 115.8329940  23.9392860  90.1139750
 116.9151340  23.2893320  89.2782650 126.0134780  17.3644780  99.7801340
 126.3815600  16.5439990 100.1080910 125.1532980  17.4246670 100.1956990
 129.3796810  16.3201720  90.5888900 128.7509970  16.4247390  89.8747130
 128.8848730  16.5398500  91.3782780 123.8254950  28.0407310  88.0222880
 123.9266930  27.8371300  87.0924860 122.9256690  27.7865590  88.2270660
 121.3480840  18.5987670  92.0046780 120.6396990  19.0674010  92.4460390
 121.6325320  17.9409680  92.6391970 122.9736770  20.0184370 100.0039310
 123.4722020  20.4930190 100.6691160 123.1159720  19.0947890 100.2109340
 125.3796270  15.3238330  93.4442570 125.2564050  15.3424460  92.4952080
 126.3280830  15.3717270  93.5640970 122.4673060  30.5593630  92.7170550
 122.7214560  30.5215020  91.7949920 121.5185540  30.4326960  92.7098800
 119.5515860  16.9072750  89.3797490 120.4006390  17.3442900  89.3137680
 119.1847130  17.2193010  90.2069550 130.1803630  16.2352330 100.8467700
 129.6777230  16.9757730 101.1861510 130.9960290  16.6236330 100.5304490
 128.4725640  21.4785510  94.2929060 127.5315780  21.4935740  94.4676750
 128.7869710  20.6921470  94.7389360 118.4507280  23.1605110  87.8533020
 119.2170550  23.0486470  88.4158450 118.5281970  22.4643080  87.2009790
 117.1454040  20.5930180  88.5365910 117.2257630  19.6457690  88.6483310
 118.0373790  20.9237060  88.6426570 130.4751220  28.6494360  95.9683320
 130.5998640  29.4725530  96.4407130 131.3416780  28.4385090  95.6207470
 117.9468750  30.7425570  95.6400450 118.6831230  30.1941030  95.9109020
 118.3309670  31.6081580  95.5006440 116.9527030  29.9271640 104.8286030
 117.7539760  30.2483690 105.2421430 116.4378850  29.5667220 105.5505940
 121.0571060  29.9155880  87.4626020 121.8499670  30.2044710  87.0107810
 120.5375410  29.4848050  86.7838500 125.7891660  26.0351510 104.7761440
 125.1829820  26.0583110 104.0357190 125.4845770  25.3034550 105.3128690
 127.2192030  29.7631800 103.3870850 128.1713780  29.6789820 103.3371090
 127.0720250  30.4273510 104.0604640 130.1101230  29.1426010  88.8862760
 129.8242740  28.7291150  88.0716940 129.9120780  30.0713720  88.7663280
 114.6724840  22.4145100 103.7722080 115.1763860  21.8352380 104.3438310
 113.9332260  22.6985330 104.3098450 121.5748460  25.1359290  87.3268370
 121.4699100  24.5211640  88.0529750 121.4072680  24.6125180  86.5431380
 121.7262780  23.8216090 103.3057600 120.9608450  24.3901090 103.2212270
 121.9078740  23.5292300 102.4125830 124.8151190  24.1979320  87.9310360
 124.2661290  24.6448620  88.5753100 125.4370450  23.6928570  88.4548030
 128.8686130  25.5521420 103.8632620 129.6095600  25.8897180 103.3600080
 128.1058810  25.7213480 103.3102390 116.7047920  20.5574690 104.6672150
 116.7453260  20.2588560 105.5757380 117.5593420  20.9582300 104.5079670
 120.4826310  23.1570240  89.8275660 120.9042730  22.9910110  90.6707050
 120.6077150  22.3470470  89.3330800 118.6453730  19.1366790 102.6346640
 118.1150190  18.6457740 102.0069980 119.3141800  19.5650990 102.1004570
 122.9953950  22.1807850  87.0752760 123.5159610  21.4656870  86.7093910
 123.6422350  22.8193720  87.3753270 127.5431790  23.6036250 102.3987830
 127.9572810  23.7581330 103.2478250 126.6082790  23.7291470 102.5613610
 128.0153960  20.9432410 104.4026980 128.5974730  20.1884730 104.3147460
 128.1915730  21.4739850 103.6258460 119.1326030  16.1029160 102.7143930
 119.0382900  15.4849910 101.9894800 118.5523420  16.8295450 102.4873840
 121.8987470  14.6602400  99.7471320 121.4504770  14.6826660  98.9016870
 121.2652670  14.2621420 100.3441620 122.3047020  23.5556730 100.3683760
 122.7235130  24.3989460 100.1960000 121.3855650  23.6928770 100.1390540
 124.6410920  21.2872910 101.7521600 124.7607130  20.6914050 102.4916440
 125.5004920  21.3242600 101.3322900 126.9798820  21.8410100 100.3284110
 126.4534040  22.3652720  99.7249250 127.3230160  22.4737490 100.9593840
 119.3785210  19.2303470  86.7733820 119.1774270  18.3670830  87.1347160
 119.2077260  19.1436830  85.8355420 120.1554440  29.8609740 101.4841490
 119.6175530  30.5855800 101.1650190 120.4088400  29.3840080 100.6938830
 121.4079690  17.8294260 103.0097420 121.9979380  17.5210110 103.6975240
 120.5899930  17.3574010 103.1657320 126.2273120  17.4460070 103.2430440
 125.5388640  16.7841610 103.1780430 126.9479140  16.9998340 103.6878900
 126.8573520  14.0411700  89.3020700 127.1375810  13.1979600  89.6580120
 126.0839250  14.2734810  89.8159450 118.1768010  16.3304090  86.7611700
 118.4793910  16.3371520  85.8530850 118.9162600  15.9801950  87.2579360
 123.0116650  31.0960950 101.7428140 122.9375350  31.9996090 102.0500510
 122.1095490  30.7772850 101.7150210 121.3952940  15.2738710  87.7467900
 121.0474940  14.5962700  87.1670350 121.5965710  14.8128220  88.5611290
 123.5601980  30.2619460  89.3654500 124.4552770  30.6004430  89.3873260
 123.5919610  29.5398870  88.7378780 117.1998140  25.6346510  87.5941500
 117.6373010  26.1776180  88.2499080 117.6845870  24.8093460  87.6037840
 119.0105860  26.7544550  92.7063730 118.7101400  26.6309520  93.6067640
 118.9043350  25.8953140  92.2979460 114.9034150  29.2906130  97.7843390
 114.4665140  29.4706930  98.6167540 115.4711830  30.0480750  97.6425110
 130.5396330  28.7923130 102.0720700 129.9398320  28.8515690 101.3284620
 130.6690230  27.8528110 102.2017550 131.7797780  26.5340950  87.4090410
 130.9490740  26.6017600  87.8797640 131.9569610  27.4245070  87.1057270
 131.2354240  23.2788430  89.9124610 131.9973150  23.8485080  90.0184300
 131.2508610  22.7115630  90.6832920 114.7358580  21.8026360  94.1432270
 114.0807420  21.5338000  93.4991970 115.5736530  21.6930840  93.6934250
 132.2414210  24.1338530  94.7566540 132.6123040  23.3505850  94.3502510
 132.8816140  24.8227630  94.5783840 129.2247970  25.5175110 100.1696860
 128.4107810  25.9472270 100.4322650 129.6322170  26.1293520  99.5565910
 131.2873410  23.5722800  87.0697130 131.5622250  24.4801680  86.9416350
 131.0984150  23.5085330  88.0059120 127.6849020  16.5967650  88.3650760
 128.1033900  16.4098630  87.5247420 127.3785080  15.7446700  88.6753690
 131.1838750  21.5091790  92.0626560 130.8082350  20.7419720  91.6307850
 130.4541870  21.8914490  92.5501490 115.7734510  22.1878930  98.6835610
 116.1407550  22.1006330  99.5631630 115.2045330  21.4245480  98.5842470
 130.5738370  20.6563310 101.6966080 130.3424460  20.4276060 100.7964030
 130.8342920  21.5762860 101.6510970 115.3250510  19.0988020 102.5894030
 114.4306560  19.0654780 102.9287740 115.8648060  19.2974810 103.3545280
 129.0126440  15.8819740 104.4745780 129.8896620  15.8903140 104.8579780
 129.0247280  15.1450580 103.8638130 113.9496660  19.0125290  90.0857600
 113.0460740  19.2755490  89.9109260 114.4337280  19.2836460  89.3057560
 130.4589710  19.7349280  95.3633800 130.9827190  19.2411930  94.7323970
 131.0449130  19.8699640  96.1081370 130.6379430  19.8189150  98.8853350
 129.6882140  19.7852690  98.9998340 130.8192440  20.7289260  98.6503120
 116.4923870  18.0690830  87.9951980 117.2015570  17.6474050  87.5099260
 115.7763810  18.1366060  87.3635330 116.1398030  14.1230160  87.0354630
 116.8626160  14.6639100  87.3535850 116.4122550  13.8493580  86.1596170
 129.9489680  18.9922630  91.3026210 130.4448800  18.7593500  92.0875090
 129.7505750  18.1534470  90.8863850 115.8290220  13.3736350  96.9377250
 116.4766410  12.8233730  96.4972410 116.2492060  13.6279500  97.7593060
 131.3776840  17.6283580  93.8363890 131.2676120  17.4739620  94.7746160
 132.1384430  17.1004520  93.5939300 129.7242560  13.5677710 100.2946890
 130.3614780  14.1811850 100.6606080 129.8717450  13.6038370  99.3496120
 132.2667110  15.4591500  87.0770030 133.1916420  15.3272680  86.8688320
 132.2442900  15.5384320  88.0306480 132.3405600  16.2302160  89.7026740
 131.5457100  16.1647280  90.2319650 132.5448880  17.1652800  89.6912090
 129.2824020  30.2693710  93.6965130 129.8783090  29.9478280  93.0199550
 129.5402170  29.7965530  94.4878400 115.5822220  13.5292020  99.6802570
 115.2337040  13.9855840 100.4460750 115.2509920  12.6349150  99.7625000
 117.1886590  26.7011620 103.8455760 117.1456220  26.3304530 104.7270220
 117.3197600  27.6389190 103.9857580 120.8892620  28.2571210  99.4465480
 120.6483980  28.5245770  98.5596000 121.8295260  28.4276940  99.5016340
 123.0947040  14.7203900 103.2021990 123.0335930  15.3125730 103.9517400
 124.0347420  14.6129860 103.0572250 125.7321600  14.3773960 102.8414280
 126.3462010  14.6953250 102.1795360 126.2771160  13.8922550 103.4610140
 132.1496780  30.2765590 100.2476120 131.6555060  30.6734460  99.5303250
 131.5410070  29.6514800 100.6413400 116.2542860  13.0568220 102.9553340
 116.8025850  12.8756270 102.1919450 116.3198170  12.2662330 103.4909650
 117.0274620  29.6473870 100.9653540 116.4334940  29.5158570 101.7043580
 117.0198460  28.8112010 100.4995640 126.4729640  12.9406100  99.1683570
 125.5989480  13.2741210  98.9656500 126.3640390  12.4679280  99.9935440
 127.3801620  15.1476970 100.5525290 127.0514980  14.3328730 100.1727020
 128.3283920  15.1046780 100.4290980 129.8336230  30.9189010  97.5262860
 129.3739200  31.6704820  97.1520880 129.2048690  30.1995480  97.4677660
 116.6586850  27.0132250  99.9161580 115.9320910  26.3937540  99.8487530
 116.7196000  27.4072860  99.0459660 120.2631950  29.2277250  96.7010990
 120.7796970  28.6164610  96.1759250 120.9129330  29.7306030  97.1922000
 123.0027450  30.1185740  97.5279970 123.2905260  29.8640040  96.6512980
 123.5150670  29.5663100  98.1185540 124.2204460  13.8575940  98.1076480
 123.4376250  14.3321440  98.3873240 123.9267390  12.9530770  97.9989660
 128.7725530  14.5599040  96.1525570 129.2133620  14.5044140  95.3047170
 128.5033120  15.4757050  96.2235750 130.6364100  14.1914280  94.1634390
 130.5752500  13.2475500  94.0165410 131.4156130  14.2994370  94.7087850
 115.5644870  14.1623420  90.6290200 116.3224230  14.2752300  90.0554230
 115.1022040  14.9992620  90.5833630 122.1058680  16.2762690  93.6192510
 121.2933190  15.9019580  93.2788390 122.6100320  15.5207770  93.9213700
 126.6083660  12.9405140  94.8575580 127.2113030  13.5125350  95.3324100
 125.8676650  13.5044580  94.6349480 129.7518260  13.3426700  90.1315860
 129.9468890  14.2410150  90.3983290 128.9648130  13.1113780  90.6248810
 117.9370020  14.6887470  89.1692170 118.4662780  13.9017270  89.0400120
 118.5698340  15.3678660  89.4027700 120.1307860  14.4262610  92.2237560
 119.5010600  13.7249920  92.3907690 119.5913000  15.1866740  92.0070720
 123.0699810  31.0401840 104.8948170 123.9967120  30.8046110 104.9384130
 123.0550240  31.8673840 104.4134200 131.3044870  30.5827410  91.8922420
 131.4797060  29.8965150  91.2483340 130.6066440  31.1074460  91.4999090
 120.2563420  13.7046590 104.6590050 119.9747690  14.2080190 103.8950870
 120.6383120  12.9068340 104.2932180 119.1472520  30.9722250  89.4457730
 119.8791340  30.6881530  88.8981620 119.4066190  30.7335530  90.3357110
 118.3087310  27.0886980  89.4504060 117.6796190  27.5572080  89.9989890
 118.4235140  26.2436200  89.8850250 126.8578880  13.1200170 105.2370520
 126.7444330  13.4394780 106.1322040 127.6748620  13.5212680 104.9407800
 129.6377370  30.2671700 104.7189210 130.4302690  29.7720930 104.5115170
 129.9310520  30.9461840 105.3264820 125.7637030  21.1392640  75.6005260
 125.6831080  20.2247250  75.3296970 125.3501450  21.6359710  74.8944970
 123.8955070  22.9171660  77.4814530 123.1197170  22.4372100  77.7713100
 124.5468000  22.2377310  77.3070690 117.9120900  23.2291470  78.3590290
 117.0805780  22.9740180  78.7586800 118.5201880  23.3002240  79.0948210
 127.9162500  27.3231850  76.2613660 127.4544030  26.5519090  76.5900830
 128.7288050  27.3497920  76.7666110 116.3212850  18.1893360  72.1432680
 115.4329550  18.5309330  72.0412560 116.6054040  17.9893680  71.2513510
 114.2845860  20.7899010  78.0272380 114.8561970  20.0221210  78.0276020
 114.2847400  21.0887770  77.1178990 124.1425810  29.6089860  75.8817650
 123.5237250  30.0647360  75.3112090 124.9977590  29.7641320  75.4807350
 123.3364060  25.5928850  77.4884690 123.2672340  24.6518790  77.3273820
 124.0983920  25.6830260  78.0607260 115.5270730  16.1983370  79.8141310
 115.3473570  15.3009120  80.0944070 115.1250810  16.7455240  80.4888260
 124.3669230  18.3999230  77.7153620 124.7434050  17.5271110  77.6027290
 124.2688740  18.7357930  76.8244060 118.4974240  16.7724860  73.1771060
 118.6040990  17.6728590  73.4839820 117.5866600  16.7242830  72.8865710
 128.1493350  15.8949670  74.6481960 128.9702970  15.4046240  74.6907440
 128.1827430  16.4847330  75.4013800 116.1457400  18.6943870  78.4223650
 116.8267510  18.9582240  79.0411050 115.8305450  17.8544740  78.7561660
 120.3381970  19.7411230  77.5096240 120.8460190  20.2392200  78.1501260
 120.8695210  18.9646430  77.3335600 132.4392900  17.9116420  81.2125590
 131.7345070  18.2998130  80.6940700 132.7050820  18.6066710  81.8146520
 118.6218070  14.3809790  81.7759660 118.6236510  14.8982180  80.9705560
 117.7922380  13.9039970  81.7529590 125.0089160  24.4929100  73.2749560
 124.3906430  24.9578550  72.7112280 125.5212410  25.1856580  73.6919070
 119.8720920  24.0204970  79.9533160 119.5390300  24.6473890  80.5954230
 120.0487600  24.5466850  79.1734830 128.3854830  17.8350050  77.4209500
 127.6810400  18.1234940  78.0012610 128.7466990  18.6450160  77.0609060
 118.3033400  16.0919750  79.7830110 118.6450210  16.9361800  79.4883980
 117.3649210  16.2403490  79.8995450 119.0840020  25.9885770  81.7682340
 119.7014020  26.6636850  81.4866790 118.2233140  26.3973750  81.6769840
 114.3772360  25.1785630  70.6489190 114.0000340  25.6672730  69.9174090
 114.6345430  25.8510910  71.2795720 130.0017610  27.4525180  79.6836980
 129.3181130  28.1224290  79.6753650 130.5411900  27.6505830  78.9181840
 131.4541750  17.2804840  77.8118710 130.5066660  17.3143820  77.9434140
 131.7791740  18.0943790  78.1968070 121.9861290  13.5802020  76.1074700
 122.2936270  13.0248910  75.3910200 121.0561990  13.7146480  75.9247690
 127.5376350  29.2969310  78.3982160 127.5503510  28.8931600  77.5304420
 126.9851570  30.0716600  78.2943590 128.8321770  26.0185530  73.4872330
 128.7218100  25.0759860  73.6121750 128.8290020  26.3801170  74.3735090
 126.9361790  24.1999150  79.7264770 127.3530580  23.9859260  78.8918230
 127.6601610  24.4571940  80.2973390 124.3742050  21.6450850  72.8434820
 123.4471330  21.5788230  73.0723290 124.5266870  22.5830980  72.7290060
 124.3611130  17.9167850  69.8401980 123.4214800  18.0781810  69.9254440
 124.6794390  18.6353530  69.2937970 130.8823890  22.5986370  79.8181010
 130.0542520  22.6679460  79.3431140 131.4774370  23.1840680  79.3496840
 128.4039340  23.2071150  73.3470070 127.7851760  22.8690700  72.6996370
 128.3863790  22.5630910  74.0549260 127.8465900  19.3855690  80.7635880
 127.4337080  20.2109400  81.0175870 127.1141850  18.8000730  80.5712240
 119.9798690  22.1715590  75.6254550 119.5755690  21.4592840  75.1300450
 120.0661810  21.8268830  76.5142590 120.4480390  25.8583150  77.7893760
 120.1508680  25.2528620  77.1101540 121.3980210  25.8960460  77.6783120
 118.6927310  18.9458800  79.4053590 119.2441900  19.0554140  78.6306840
 119.2070820  19.3196400  80.1208820 128.5366000  29.4315020  81.4516860
 128.0596560  30.2387210  81.2589470 127.8527790  28.7793350  81.6043070
 119.5398820  25.5964840  84.4401560 118.6427350  25.8204810  84.6874960
 119.5651690  25.7199780  83.4912960 126.5804040  22.4457960  70.3542820
 127.0197320  21.6080390  70.2080640 127.2932460  23.0787360  70.4406960
 118.3670040  22.4678160  83.0158930 118.2277810  23.3400960  83.3846330
 117.4851400  22.1250970  82.8706870 124.6899420  27.3854030  74.3224060
 125.1295330  28.1278360  73.9079450 124.6286310  27.6280600  75.2463020
 120.1650390  28.4099860  85.2244080 120.1365820  28.8142810  84.3572510
 120.0015360  27.4810220  85.0615680 130.1621180  13.7000770  68.6683860
 129.8493840  13.7927600  69.5682930 130.9233650  14.2781800  68.6181290
 116.6803320  21.0660570  73.1261200 116.5600920  21.7922660  72.5142470
 116.3704210  20.2963480  72.6489110 132.1165210  29.1926960  86.5208250
 132.5924930  29.6709850  87.1997330 132.7372370  29.1244450  85.7953750
 131.5198460  26.3839810  83.6808260 131.6461520  26.1451690  82.7625440
 131.5619840  25.5524350  84.1530340 125.3815200  30.0867810  82.2503070
 125.8959870  29.9975820  83.0525500 124.5384280  30.4327510  82.5430980
 127.3569600  30.3723150  71.6787070 127.1970740  30.0826090  72.5768900
 127.1916310  29.5963280  71.1432300 119.8357980  30.1521680  73.4558690
 119.6600460  29.2357220  73.2426490 118.9813720  30.5108970  73.6956490
 127.0595730  27.8810710  70.2385070 126.3660890  27.8788000  69.5787350
 127.8018590  27.4570030  69.8079240 126.6245660  29.5073420  74.3133560
 127.0802610  28.7262800  74.6272180 126.9638180  30.2180240  74.8574740
 131.3722470  18.4372270  84.6458000 130.7566740  18.9451940  84.1173460
 131.0518890  17.5370600  84.5883940 114.3748210  25.2789880  81.4724300
 114.5379250  24.8095240  80.6543670 114.8400660  24.7713440  82.1373140
 119.1466980  14.4095640  76.5084870 118.7035130  15.1905180  76.1769390
 119.7051970  14.7325530  77.2155810 123.4336790  17.2764160  82.1120190
 122.9716160  17.4847180  82.9240130 123.0314900  16.4623510  81.8090860
 128.4341300  18.4973110  83.2416850 127.5834890  18.1978860  83.5625920
 128.2743090  18.7415120  82.3300670 125.5291010  19.9974860  85.3415640
 125.8544420  19.1638610  85.0017870 126.3171340  20.5203380  85.4893970
 122.2625800  14.0306340  71.3890700 121.6379980  14.0266210  72.1144010
 122.1755920  13.1637300  70.9926670 121.1842880  14.9542970  78.3674470
 121.4815210  15.8605800  78.2866490 121.7328440  14.4661750  77.7534040
 118.9381200  19.5329210  74.2366120 118.7122120  19.3166380  75.1412740
 118.1573730  19.9657670  73.8912090 126.1678960  19.5392580  72.8356770
 125.5687850  20.2628380  72.6520390 126.7158570  19.4769360  72.0533220
 121.3780410  20.4314790  84.9026390 121.2824010  19.4909520  84.7526790
 122.2212390  20.6529860  84.5074460 124.7743830  18.1756120  74.8660050
 125.1673400  18.4928320  74.0528740 125.1360680  17.2968000  74.9804570
 116.5090950  16.8428460  83.0560170 116.1154340  17.6903670  83.2632950
 115.8209350  16.2054830  83.2468810 123.0836000  16.9263430  86.1256910
 122.3934320  16.7335630  86.7603000 123.8268300  17.2098070  86.6581210
 113.8108000  14.7656920  77.0890250 113.5221050  15.3359780  77.8015230
 114.5553760  14.2861370  77.4521480 113.9978230  18.7077040  68.2992970
 113.9152900  19.6507800  68.4407960 113.6461290  18.5651950  67.4205320
 125.3598970  20.7661870  78.9610830 124.6280090  21.2748680  79.3100930
 124.9623310  19.9491850  78.6599610 121.7976360  17.4416070  77.3663320
 121.8012420  17.0006020  76.5167860 122.6927480  17.7633400  77.4735140
 117.6478740  17.3242560  76.3257530 117.3078790  17.8017790  77.0824580
 116.8856060  16.8707680  75.9658630 121.8596510  18.4428150  70.3570080
 121.9809330  18.4014630  71.3055900 121.4745020  19.3052300  70.2016810
 125.8224880  16.2195550  78.3733770 125.8397620  16.6704200  79.2175620
 125.5740460  15.3201190  78.5867210 120.8718010  20.7529290  69.7553380
 120.3034910  20.3047540  69.1289290 121.5807010  21.1122070  69.2218530
 129.2495630  13.6327730  84.2120150 129.5741400  12.9017390  84.7378130
 129.2852140  13.3141370  83.3101140 115.9487190  24.6541310  83.6320110
 115.5641980  24.0134980  84.2303070 116.2599380  25.3577430  84.2014840
 122.0984330  21.5017850  79.1128730 122.4654460  21.0276420  79.8590070
 121.9089390  22.3759420  79.4537070 114.9624820  16.2461540  75.2422200
 114.6771740  15.8817210  76.0800820 114.9003680  15.5142000  74.6285340
 119.8883700  20.5426490  81.4312940 119.5840770  21.4218470  81.6563300
 120.8430160  20.6026280  81.4670380 118.4165490  24.7487480  72.0279790
 117.6427750  24.2085100  71.8678510 119.1460120  24.2294090  71.6897550
 129.1753470  23.7452840  77.8206180 129.8952590  24.2408130  77.4302290
 128.9735290  23.0670730  77.1760050 124.6363410  15.1390800  71.9635570
 123.8228020  14.6403970  71.8880880 124.4425360  15.9789050  71.5471920
 124.5572270  23.8161900  83.7075180 124.4909580  22.8957570  83.4532770
 123.9277410  23.9137340  84.4219820 127.3511800  19.5110450  70.2597730
 128.2391420  19.8227680  70.0849070 127.3216890  18.6382700  69.8678310
 118.4602890  24.4167860  75.6658600 118.9781560  23.6136120  75.6115490
 118.0086910  24.3547000  76.5075430 123.3472390  25.6834140  70.9385900
 123.6888090  26.4276370  70.4429220 122.5185100  25.9965260  71.3010730
 115.9447430  21.3829230  82.5784300 115.5862370  22.0483080  83.1657640
 115.6501990  20.5512780  82.9496920 119.1460550  21.8413470  85.4623850
 118.8460690  21.9870650  84.5651670 119.9171790  21.2818760  85.3697240
 124.4889000  26.6382470  83.4578980 124.5033540  25.7063430  83.2397890
 123.7814100  26.7242230  84.0968750 129.6226070  20.8222290  69.7277590
 129.5389790  21.2536510  68.8774030 130.3420260  21.2820640  70.1604410
 130.7000210  23.2789810  82.8047560 129.9748400  23.8718590  82.6076950
 131.2275670  23.2713350  82.0060930 130.6513320  27.6764550  72.4559720
 130.0089480  27.0220170  72.7303440 130.2643980  28.0819640  71.6800390
 126.2299800  25.0049980  76.3031410 126.5823620  24.4078110  75.6432780
 125.3462130  24.6794210  76.4739660 122.3163080  25.7647670  73.7101820
 123.0034210  26.3116880  74.0909410 121.5295500  26.3088400  73.7451430
 114.4555480  21.3820490  69.2018900 115.3250330  21.6645290  69.4854820
 113.9645800  22.1956360  69.0867710 121.6190290  22.7693700  73.3227180
 122.0753070  23.5798950  73.5487370 121.2678500  22.4516840  74.1545670
 123.9222900  28.2800040  80.5519480 124.5665120  28.4859420  81.2292900
 124.2852340  27.5188440  80.0990330 117.5202070  13.1131350  73.7949700
 117.3916700  13.1049250  74.7434620 116.6964090  13.4514440  73.4440710
 125.1954980  26.2832390  79.2696930 125.8377210  25.5825550  79.3829100
 125.7204330  27.0630830  79.0893820 129.0410700  26.5681010  68.9936070
 128.8148280  25.8511450  69.5860710 128.6506900  26.3193450  68.1557820
 126.9692600  27.0827290  82.4732990 127.3048840  27.6693980  83.1510910
 126.0492940  26.9520000  82.7030780 114.8226730  30.5947870  69.7680530
 115.1824370  31.1937210  69.1137800 114.6819070  31.1407760  70.5415560
 114.5196000  14.8722470  83.2556400 113.8054520  15.0719390  83.8609010
 114.9391040  14.0962040  83.6271200 128.6226950  24.4852950  70.6550230
 128.3348650  24.9465640  71.4428110 129.4179120  24.0250720  70.9234450
 114.8068590  28.8602730  84.2422930 114.9159710  27.9197470  84.1018320
 114.1549150  29.1257480  83.5936660 122.7981180  27.1318620  85.6421050
 122.4778050  26.4127860  86.1866740 122.1239540  27.8073690  85.7157110
 120.8395350  27.9779070  70.5854200 120.8305450  28.7108760  69.9698710
 119.9193710  27.7310650  70.6781160 116.4401990  23.1993960  71.3300960
 115.8329940  23.9392860  71.3396260 116.9151340  23.2893320  70.5039160
 126.0134780  17.3644780  81.0057850 126.3815600  16.5439990  81.3337420
 125.1532980  17.4246670  81.4213500 129.3796810  16.3201720  71.8145410
 128.7509970  16.4247390  71.1003640 128.8848730  16.5398500  72.6039290
 123.8254950  28.0407310  69.2479390 123.9266930  27.8371300  68.3181370
 122.9256690  27.7865590  69.4527170 121.3480840  18.5987670  73.2303290
 120.6396990  19.0674010  73.6716900 121.6325320  17.9409680  73.8648480
 122.9736770  20.0184370  81.2295820 123.4722020  20.4930190  81.8947670
 123.1159720  19.0947890  81.4365850 125.3796270  15.3238330  74.6699080
 125.2564050  15.3424460  73.7208590 126.3280830  15.3717270  74.7897480
 122.4673060  30.5593630  73.9427060 122.7214560  30.5215020  73.0206430
 121.5185540  30.4326960  73.9355310 119.5515860  16.9072750  70.6054000
 120.4006390  17.3442900  70.5394190 119.1847130  17.2193010  71.4326060
 130.1803630  16.2352330  82.0724210 129.6777230  16.9757730  82.4118020
 130.9960290  16.6236330  81.7561000 128.4725640  21.4785510  75.5185570
 127.5315780  21.4935740  75.6933260 128.7869710  20.6921470  75.9645870
 118.4507280  23.1605110  69.0789530 119.2170550  23.0486470  69.6414960
 118.5281970  22.4643080  68.4266300 117.1454040  20.5930180  69.7622420
 117.2257630  19.6457690  69.8739820 118.0373790  20.9237060  69.8683080
 130.4751220  28.6494360  77.1939830 130.5998640  29.4725530  77.6663640
 131.3416780  28.4385090  76.8463980 116.9527030  29.9271640  86.0542540
 117.7539760  30.2483690  86.4677940 116.4378850  29.5667220  86.7762450
 121.0571060  29.9155880  68.6882530 121.8499670  30.2044710  68.2364320
 120.5375410  29.4848050  68.0095010 125.7891660  26.0351510  86.0017950
 125.1829820  26.0583110  85.2613700 125.4845770  25.3034550  86.5385200
 127.2192030  29.7631800  84.6127360 128.1713780  29.6789820  84.5627600
 127.0720250  30.4273510  85.2861150 130.1101230  29.1426010  70.1119270
 129.8242740  28.7291150  69.2973450 129.9120780  30.0713720  69.9919790
 114.6724840  22.4145100  84.9978590 115.1763860  21.8352380  85.5694820
 113.9332260  22.6985330  85.5354960 121.5748460  25.1359290  68.5524880
 121.4699100  24.5211640  69.2786260 121.4072680  24.6125180  67.7687890
 121.7262780  23.8216090  84.5314110 120.9608450  24.3901090  84.4468780
 121.9078740  23.5292300  83.6382340 124.8151190  24.1979320  69.1566870
 124.2661290  24.6448620  69.8009610 125.4370450  23.6928570  69.6804540
 128.8686130  25.5521420  85.0889130 129.6095600  25.8897180  84.5856590
 128.1058810  25.7213480  84.5358900 116.7047920  20.5574690  85.8928660
 116.7453260  20.2588560  86.8013890 117.5593420  20.9582300  85.7336180
 120.4826310  23.1570240  71.0532170 120.9042730  22.9910110  71.8963560
 120.6077150  22.3470470  70.5587310 118.6453730  19.1366790  83.8603150
 118.1150190  18.6457740  83.2326490 119.3141800  19.5650990  83.3261080
 122.9953950  22.1807850  68.3009270 123.5159610  21.4656870  67.9350420
 123.6422350  22.8193720  68.6009780 127.5431790  23.6036250  83.6244340
 127.9572810  23.7581330  84.4734760 126.6082790  23.7291470  83.7870120
 128.0153960  20.9432410  85.6283490 128.5974730  20.1884730  85.5403970
 128.1915730  21.4739850  84.8514970 119.1326030  16.1029160  83.9400440
 119.0382900  15.4849910  83.2151310 118.5523420  16.8295450  83.7130350
 121.8987470  14.6602400  80.9727830 121.4504770  14.6826660  80.1273380
 121.2652670  14.2621420  81.5698130 122.3047020  23.5556730  81.5940270
 122.7235130  24.3989460  81.4216510 121.3855650  23.6928770  81.3647050
 124.6410920  21.2872910  82.9778110 124.7607130  20.6914050  83.7172950
 125.5004920  21.3242600  82.5579410 126.9798820  21.8410100  81.5540620
 126.4534040  22.3652720  80.9505760 127.3230160  22.4737490  82.1850350
 119.3785210  19.2303470  67.9990330 119.1774270  18.3670830  68.3603670
 119.2077260  19.1436830  67.0611930 120.1554440  29.8609740  82.7098000
 119.6175530  30.5855800  82.3906700 120.4088400  29.3840080  81.9195340
 121.4079690  17.8294260  84.2353930 121.9979380  17.5210110  84.9231750
 120.5899930  17.3574010  84.3913830 126.2273120  17.4460070  84.4686950
 125.5388640  16.7841610  84.4036940 126.9479140  16.9998340  84.9135410
 126.8573520  14.0411700  70.5277210 127.1375810  13.1979600  70.8836630
 126.0839250  14.2734810  71.0415960 118.1768010  16.3304090  67.9868210
 118.4793910  16.3371520  67.0787360 118.9162600  15.9801950  68.4835870
 123.0116650  31.0960950  82.9684650 122.9375350  31.9996090  83.2757020
 122.1095490  30.7772850  82.9406720 121.3952940  15.2738710  68.9724410
 121.0474940  14.5962700  68.3926860 121.5965710  14.8128220  69.7867800
 123.5601980  30.2619460  70.5911010 124.4552770  30.6004430  70.6129770
 123.5919610  29.5398870  69.9635290 117.1998140  25.6346510  68.8198010
 117.6373010  26.1776180  69.4755590 117.6845870  24.8093460  68.8294350
 119.0105860  26.7544550  73.9320240 118.7101400  26.6309520  74.8324150
 118.9043350  25.8953140  73.5235970 130.5396330  28.7923130  83.2977210
 129.9398320  28.8515690  82.5541130 130.6690230  27.8528110  83.4274060
 131.7797780  26.5340950  68.6346920 130.9490740  26.6017600  69.1054150
 131.9569610  27.4245070  68.3313780 131.2354240  23.2788430  71.1381120
 131.9973150  23.8485080  71.2440810 131.2508610  22.7115630  71.9089430
 114.7358580  21.8026360  75.3688780 114.0807420  21.5338000  74.7248480
 115.5736530  21.6930840  74.9190760 132.2414210  24.1338530  75.9823050
 132.6123040  23.3505850  75.5759020 132.8816140  24.8227630  75.8040350
 129.2247970  25.5175110  81.3953370 128.4107810  25.9472270  81.6579160
 129.6322170  26.1293520  80.7822420 131.2873410  23.5722800  68.2953640
 131.5622250  24.4801680  68.1672860 131.0984150  23.5085330  69.2315630
 127.6849020  16.5967650  69.5907270 128.1033900  16.4098630  68.7503930
 127.3785080  15.7446700  69.9010200 131.1838750  21.5091790  73.2883070
 130.8082350  20.7419720  72.8564360 130.4541870  21.8914490  73.7758000
 115.7734510  22.1878930  79.9092120 116.1407550  22.1006330  80.7888140
 115.2045330  21.4245480  79.8098980 130.5738370  20.6563310  82.9222590
 130.3424460  20.4276060  82.0220540 130.8342920  21.5762860  82.8767480
 115.3250510  19.0988020  83.8150540 114.4306560  19.0654780  84.1544250
 115.8648060  19.2974810  84.5801790 129.0126440  15.8819740  85.7002290
 129.8896620  15.8903140  86.0836290 129.0247280  15.1450580  85.0894640
 113.9496660  19.0125290  71.3114110 113.0460740  19.2755490  71.1365770
 114.4337280  19.2836460  70.5314070 130.4589710  19.7349280  76.5890310
 130.9827190  19.2411930  75.9580480 131.0449130  19.8699640  77.3337880
 130.6379430  19.8189150  80.1109860 129.6882140  19.7852690  80.2254850
 130.8192440  20.7289260  79.8759630 116.4923870  18.0690830  69.2208490
 117.2015570  17.6474050  68.7355770 115.7763810  18.1366060  68.5891840
 116.1398030  14.1230160  68.2611140 116.8626160  14.6639100  68.5792360
 116.4122550  13.8493580  67.3852680 129.9489680  18.9922630  72.5282720
 130.4448800  18.7593500  73.3131600 129.7505750  18.1534470  72.1120360
 115.8290220  13.3736350  78.1633760 116.4766410  12.8233730  77.7228920
 116.2492060  13.6279500  78.9849570 131.3776840  17.6283580  75.0620400
 131.2676120  17.4739620  76.0002670 132.1384430  17.1004520  74.8195810
 129.7242560  13.5677710  81.5203400 130.3614780  14.1811850  81.8862590
 129.8717450  13.6038370  80.5752630 132.2667110  15.4591500  68.3026540
 133.1916420  15.3272680  68.0944830 132.2442900  15.5384320  69.2562990
 132.3405600  16.2302160  70.9283250 131.5457100  16.1647280  71.4576160
 132.5448880  17.1652800  70.9168600 129.2824020  30.2693710  74.9221640
 129.8783090  29.9478280  74.2456060 129.5402170  29.7965530  75.7134910
 115.5822220  13.5292020  80.9059080 115.2337040  13.9855840  81.6717260
 115.2509920  12.6349150  80.9881510 117.1886590  26.7011620  85.0712270
 117.1456220  26.3304530  85.9526730 117.3197600  27.6389190  85.2114090
 120.8892620  28.2571210  80.6721990 120.6483980  28.5245770  79.7852510
 121.8295260  28.4276940  80.7272850 123.0947040  14.7203900  84.4278500
 123.0335930  15.3125730  85.1773910 124.0347420  14.6129860  84.2828760
 125.7321600  14.3773960  84.0670790 126.3462010  14.6953250  83.4051870
 126.2771160  13.8922550  84.6866650 132.1496780  30.2765590  81.4732630
 131.6555060  30.6734460  80.7559760 131.5410070  29.6514800  81.8669910
 116.2542860  13.0568220  84.1809850 116.8025850  12.8756270  83.4175960
 116.3198170  12.2662330  84.7166160 126.4729640  12.9406100  80.3940080
 125.5989480  13.2741210  80.1913010 126.3640390  12.4679280  81.2191950
 127.3801620  15.1476970  81.7781800 127.0514980  14.3328730  81.3983530
 128.3283920  15.1046780  81.6547490 129.8336230  30.9189010  78.7519370
 129.3739200  31.6704820  78.3777390 129.2048690  30.1995480  78.6934170
 123.0027450  30.1185740  78.7536480 123.2905260  29.8640040  77.8769490
 123.5150670  29.5663100  79.3442050 124.2204460  13.8575940  79.3332990
 123.4376250  14.3321440  79.6129750 123.9267390  12.9530770  79.2246170
 128.7725530  14.5599040  77.3782080 129.2133620  14.5044140  76.5303680
 128.5033120  15.4757050  77.4492260 130.6364100  14.1914280  75.3890900
 130.5752500  13.2475500  75.2421920 131.4156130  14.2994370  75.9344360
 115.5644870  14.1623420  71.8546710 116.3224230  14.2752300  71.2810740
 115.1022040  14.9992620  71.8090140 122.1058680  16.2762690  74.8449020
 121.2933190  15.9019580  74.5044900 122.6100320  15.5207770  75.1470210
 126.6083660  12.9405140  76.0832090 127.2113030  13.5125350  76.5580610
 125.8676650  13.5044580  75.8605990 129.7518260  13.3426700  71.3572370
 129.9468890  14.2410150  71.6239800 128.9648130  13.1113780  71.8505320
 116.5479550  29.0239870  71.7964990 116.0227170  29.4047900  71.0926950
 116.4724130  29.6490640  72.5174700 117.9370020  14.6887470  70.3948680
 118.4662780  13.9017270  70.2656630 118.5698340  15.3678660  70.6284210
 120.1307860  14.4262610  73.4494070 119.5010600  13.7249920  73.6164200
 119.5913000  15.1866740  73.2327230 123.0699810  31.0401840  86.1204680
 123.9967120  30.8046110  86.1640640 123.0550240  31.8673840  85.6390710
 131.3044870  30.5827410  73.1178930 131.4797060  29.8965150  72.4739850
 130.6066440  31.1074460  72.7255600 120.2563420  13.7046590  85.8846560
 119.9747690  14.2080190  85.1207380 120.6383120  12.9068340  85.5188690
 119.1472520  30.9722250  70.6714240 119.8791340  30.6881530  70.1238130
 119.4066190  30.7335530  71.5613620 118.3087310  27.0886980  70.6760570
 117.6796190  27.5572080  71.2246400 118.4235140  26.2436200  71.1106760
 126.8578880  13.1200170  86.4627030 126.7444330  13.4394780  87.3578550
 127.6748620  13.5212680  86.1664310 129.6377370  30.2671700  85.9445720
 130.4302690  29.7720930  85.7371680 129.9310520  30.9461840  86.5521330
 125.7637030  21.1392640  56.8261770 125.6831080  20.2247250  56.5553480
 125.3501450  21.6359710  56.1201480 123.8955070  22.9171660  58.7071040
 123.1197170  22.4372100  58.9969610 124.5468000  22.2377310  58.5327200
 117.9120900  23.2291470  59.5846800 117.0805780  22.9740180  59.9843310
 118.5201880  23.3002240  60.3204720 127.9162500  27.3231850  57.4870170
 127.4544030  26.5519090  57.8157340 128.7288050  27.3497920  57.9922620
 117.8922160  27.2631560  59.7804820 118.1950200  26.3729300  59.6015040
 118.6365750  27.8201780  59.5527070 116.3212850  18.1893360  53.3689190
 115.4329550  18.5309330  53.2669070 116.6054040  17.9893680  52.4770020
 114.2845860  20.7899010  59.2528890 114.8561970  20.0221210  59.2532530
 114.2847400  21.0887770  58.3435500 124.1425810  29.6089860  57.1074160
 123.5237250  30.0647360  56.5368600 124.9977590  29.7641320  56.7063860
 123.3364060  25.5928850  58.7141200 123.2672340  24.6518790  58.5530330
 124.0983920  25.6830260  59.2863770 115.5270730  16.1983370  61.0397820
 115.3473570  15.3009120  61.3200580 115.1250810  16.7455240  61.7144770
 124.3669230  18.3999230  58.9410130 124.7434050  17.5271110  58.8283800
 124.2688740  18.7357930  58.0500570 118.4974240  16.7724860  54.4027570
 118.6040990  17.6728590  54.7096330 117.5866600  16.7242830  54.1122220
 128.1493350  15.8949670  55.8738470 128.9702970  15.4046240  55.9163950
 128.1827430  16.4847330  56.6270310 116.1457400  18.6943870  59.6480160
 116.8267510  18.9582240  60.2667560 115.8305450  17.8544740  59.9818170
 120.3381970  19.7411230  58.7352750 120.8460190  20.2392200  59.3757770
 120.8695210  18.9646430  58.5592110 132.4392900  17.9116420  62.4382100
 131.7345070  18.2998130  61.9197210 132.7050820  18.6066710  63.0403030
 118.6218070  14.3809790  63.0016170 118.6236510  14.8982180  62.1962070
 117.7922380  13.9039970  62.9786100 125.0089160  24.4929100  54.5006070
 124.3906430  24.9578550  53.9368790 125.5212410  25.1856580  54.9175580
 119.8720920  24.0204970  61.1789670 119.5390300  24.6473890  61.8210740
 120.0487600  24.5466850  60.3991340 128.3854830  17.8350050  58.6466010
 127.6810400  18.1234940  59.2269120 128.7466990  18.6450160  58.2865570
 118.3033400  16.0919750  61.0086620 118.6450210  16.9361800  60.7140490
 117.3649210  16.2403490  61.1251960 119.0840020  25.9885770  62.9938850
 119.7014020  26.6636850  62.7123300 118.2233140  26.3973750  62.9026350
 114.3772360  25.1785630  51.8745700 114.0000340  25.6672730  51.1430600
 114.6345430  25.8510910  52.5052230 130.0017610  27.4525180  60.9093490
 129.3181130  28.1224290  60.9010160 130.5411900  27.6505830  60.1438350
 131.4541750  17.2804840  59.0375220 130.5066660  17.3143820  59.1690650
 131.7791740  18.0943790  59.4224580 121.9861290  13.5802020  57.3331210
 122.2936270  13.0248910  56.6166710 121.0561990  13.7146480  57.1504200
 127.5376350  29.2969310  59.6238670 127.5503510  28.8931600  58.7560930
 126.9851570  30.0716600  59.5200100 128.8321770  26.0185530  54.7128840
 128.7218100  25.0759860  54.8378260 128.8290020  26.3801170  55.5991600
 126.9361790  24.1999150  60.9521280 127.3530580  23.9859260  60.1174740
 127.6601610  24.4571940  61.5229900 124.3742050  21.6450850  54.0691330
 123.4471330  21.5788230  54.2979800 124.5266870  22.5830980  53.9546570
 124.3611130  17.9167850  51.0658490 123.4214800  18.0781810  51.1510950
 124.6794390  18.6353530  50.5194480 130.8823890  22.5986370  61.0437520
 130.0542520  22.6679460  60.5687650 131.4774370  23.1840680  60.5753350
 128.4039340  23.2071150  54.5726580 127.7851760  22.8690700  53.9252880
 128.3863790  22.5630910  55.2805770 127.8465900  19.3855690  61.9892390
 127.4337080  20.2109400  62.2432380 127.1141850  18.8000730  61.7968750
 119.9798690  22.1715590  56.8511060 119.5755690  21.4592840  56.3556960
 120.0661810  21.8268830  57.7399100 120.4480390  25.8583150  59.0150270
 120.1508680  25.2528620  58.3358050 121.3980210  25.8960460  58.9039630
 118.6927310  18.9458800  60.6310100 119.2441900  19.0554140  59.8563350
 119.2070820  19.3196400  61.3465330 128.5366000  29.4315020  62.6773370
 128.0596560  30.2387210  62.4845980 127.8527790  28.7793350  62.8299580
 119.5398820  25.5964840  65.6658070 118.6427350  25.8204810  65.9131470
 119.5651690  25.7199780  64.7169470 126.5804040  22.4457960  51.5799330
 127.0197320  21.6080390  51.4337150 127.2932460  23.0787360  51.6663470
 118.3670040  22.4678160  64.2415440 118.2277810  23.3400960  64.6102840
 117.4851400  22.1250970  64.0963380 124.6899420  27.3854030  55.5480570
 125.1295330  28.1278360  55.1335960 124.6286310  27.6280600  56.4719530
 120.1650390  28.4099860  66.4500590 120.1365820  28.8142810  65.5829020
 120.0015360  27.4810220  66.2872190 130.1621180  13.7000770  49.8940370
 129.8493840  13.7927600  50.7939440 130.9233650  14.2781800  49.8437800
 116.6803320  21.0660570  54.3517710 116.5600920  21.7922660  53.7398980
 116.3704210  20.2963480  53.8745620 132.1165210  29.1926960  67.7464760
 132.5924930  29.6709850  68.4253840 132.7372370  29.1244450  67.0210260
 114.3188690  24.2375710  60.1586350 114.3969110  24.3724480  59.2142070
 114.9330370  23.5291600  60.3514470 115.5636320  25.9375900  56.5692530
 115.1564400  26.0790490  55.7146130 116.4549330  25.6536060  56.3663740
 131.5198460  26.3839810  64.9064770 131.6461520  26.1451690  63.9881950
 131.5619840  25.5524350  65.3786850 125.3815200  30.0867810  63.4759580
 125.8959870  29.9975820  64.2782010 124.5384280  30.4327510  63.7687490
 127.3569600  30.3723150  52.9043580 127.1970740  30.0826090  53.8025410
 127.1916310  29.5963280  52.3688810 119.8357980  30.1521680  54.6815200
 119.6600460  29.2357220  54.4683000 118.9813720  30.5108970  54.9213000
 127.0595730  27.8810710  51.4641580 126.3660890  27.8788000  50.8043860
 127.8018590  27.4570030  51.0335750 126.6245660  29.5073420  55.5390070
 127.0802610  28.7262800  55.8528690 126.9638180  30.2180240  56.0831250
 131.3722470  18.4372270  65.8714510 130.7566740  18.9451940  65.3429970
 131.0518890  17.5370600  65.8140450 119.1466980  14.4095640  57.7341380
 118.7035130  15.1905180  57.4025900 119.7051970  14.7325530  58.4412320
 123.4336790  17.2764160  63.3376700 122.9716160  17.4847180  64.1496640
 123.0314900  16.4623510  63.0347370 128.4341300  18.4973110  64.4673360
 127.5834890  18.1978860  64.7882430 128.2743090  18.7415120  63.5557180
 125.5291010  19.9974860  66.5672150 125.8544420  19.1638610  66.2274380
 126.3171340  20.5203380  66.7150480 122.2625800  14.0306340  52.6147210
 121.6379980  14.0266210  53.3400520 122.1755920  13.1637300  52.2183180
 121.1842880  14.9542970  59.5930980 121.4815210  15.8605800  59.5123000
 121.7328440  14.4661750  58.9790550 118.9381200  19.5329210  55.4622630
 118.7122120  19.3166380  56.3669250 118.1573730  19.9657670  55.1168600
 126.1678960  19.5392580  54.0613280 125.5687850  20.2628380  53.8776900
 126.7158570  19.4769360  53.2789730 121.3780410  20.4314790  66.1282900
 121.2824010  19.4909520  65.9783300 122.2212390  20.6529860  65.7330970
 124.7743830  18.1756120  56.0916560 125.1673400  18.4928320  55.2785250
 125.1360680  17.2968000  56.2061080 116.5090950  16.8428460  64.2816680
 116.1154340  17.6903670  64.4889460 115.8209350  16.2054830  64.4725320
 123.0836000  16.9263430  67.3513420 122.3934320  16.7335630  67.9859510
 123.8268300  17.2098070  67.8837720 113.8108000  14.7656920  58.3146760
 113.5221050  15.3359780  59.0271740 114.5553760  14.2861370  58.6777990
 113.9978230  18.7077040  49.5249480 113.9152900  19.6507800  49.6664470
 113.6461290  18.5651950  48.6461830 125.3598970  20.7661870  60.1867340
 124.6280090  21.2748680  60.5357440 124.9623310  19.9491850  59.8856120
 121.7976360  17.4416070  58.5919830 121.8012420  17.0006020  57.7424370
 122.6927480  17.7633400  58.6991650 117.6478740  17.3242560  57.5514040
 117.3078790  17.8017790  58.3081090 116.8856060  16.8707680  57.1915140
 121.8596510  18.4428150  51.5826590 121.9809330  18.4014630  52.5312410
 121.4745020  19.3052300  51.4273320 125.8224880  16.2195550  59.5990280
 125.8397620  16.6704200  60.4432130 125.5740460  15.3201190  59.8123720
 120.8718010  20.7529290  50.9809890 120.3034910  20.3047540  50.3545800
 121.5807010  21.1122070  50.4475040 129.2495630  13.6327730  65.4376660
 129.5741400  12.9017390  65.9634640 129.2852140  13.3141370  64.5357650
 115.9487190  24.6541310  64.8576620 115.5641980  24.0134980  65.4559580
 116.2599380  25.3577430  65.4271350 122.0984330  21.5017850  60.3385240
 122.4654460  21.0276420  61.0846580 121.9089390  22.3759420  60.6793580
 114.9624820  16.2461540  56.4678710 114.6771740  15.8817210  57.3057330
 114.9003680  15.5142000  55.8541850 119.8883700  20.5426490  62.6569450
 119.5840770  21.4218470  62.8819810 120.8430160  20.6026280  62.6926890
 118.4165490  24.7487480  53.2536300 117.6427750  24.2085100  53.0935020
 119.1460120  24.2294090  52.9154060 129.1753470  23.7452840  59.0462690
 129.8952590  24.2408130  58.6558800 128.9735290  23.0670730  58.4016560
 124.6363410  15.1390800  53.1892080 123.8228020  14.6403970  53.1137390
 124.4425360  15.9789050  52.7728430 124.5572270  23.8161900  64.9331690
 124.4909580  22.8957570  64.6789280 123.9277410  23.9137340  65.6476330
 127.3511800  19.5110450  51.4854240 128.2391420  19.8227680  51.3105580
 127.3216890  18.6382700  51.0934820 118.4602890  24.4167860  56.8915110
 118.9781560  23.6136120  56.8372000 118.0086910  24.3547000  57.7331940
 123.3472390  25.6834140  52.1642410 123.6888090  26.4276370  51.6685730
 122.5185100  25.9965260  52.5267240 115.9447430  21.3829230  63.8040810
 115.5862370  22.0483080  64.3914150 115.6501990  20.5512780  64.1753430
 119.1460550  21.8413470  66.6880360 118.8460690  21.9870650  65.7908180
 119.9171790  21.2818760  66.5953750 124.4889000  26.6382470  64.6835490
 124.5033540  25.7063430  64.4654400 123.7814100  26.7242230  65.3225260
 129.6226070  20.8222290  50.9534100 129.5389790  21.2536510  50.1030540
 130.3420260  21.2820640  51.3860920 130.7000210  23.2789810  64.0304070
 129.9748400  23.8718590  63.8333460 131.2275670  23.2713350  63.2317440
 130.6513320  27.6764550  53.6816230 130.0089480  27.0220170  53.9559950
 130.2643980  28.0819640  52.9056900 126.2299800  25.0049980  57.5287920
 126.5823620  24.4078110  56.8689290 125.3462130  24.6794210  57.6996170
 122.3163080  25.7647670  54.9358330 123.0034210  26.3116880  55.3165920
 121.5295500  26.3088400  54.9707940 114.4555480  21.3820490  50.4275410
 115.3250330  21.6645290  50.7111330 113.9645800  22.1956360  50.3124220
 121.6190290  22.7693700  54.5483690 122.0753070  23.5798950  54.7743880
 121.2678500  22.4516840  55.3802180 123.9222900  28.2800040  61.7775990
 124.5665120  28.4859420  62.4549410 124.2852340  27.5188440  61.3246840
 117.5202070  13.1131350  55.0206210 117.3916700  13.1049250  55.9691130
 116.6964090  13.4514440  54.6697220 125.1954980  26.2832390  60.4953440
 125.8377210  25.5825550  60.6085610 125.7204330  27.0630830  60.3150330
 129.0410700  26.5681010  50.2192580 128.8148280  25.8511450  50.8117220
 128.6506900  26.3193450  49.3814330 126.9692600  27.0827290  63.6989500
 127.3048840  27.6693980  64.3767420 126.0492940  26.9520000  63.9287290
 114.8226730  30.5947870  50.9937040 115.1824370  31.1937210  50.3394310
 114.6819070  31.1407760  51.7672070 114.5196000  14.8722470  64.4812910
 113.8054520  15.0719390  65.0865520 114.9391040  14.0962040  64.8527710
 128.6226950  24.4852950  51.8806740 128.3348650  24.9465640  52.6684620
 129.4179120  24.0250720  52.1490960 114.8068590  28.8602730  65.4679440
 114.9159710  27.9197470  65.3274830 114.1549150  29.1257480  64.8193170
 122.7981180  27.1318620  66.8677560 122.4778050  26.4127860  67.4123250
 122.1239540  27.8073690  66.9413620 120.8395350  27.9779070  51.8110710
 120.8305450  28.7108760  51.1955220 119.9193710  27.7310650  51.9037670
 116.4401990  23.1993960  52.5557470 115.8329940  23.9392860  52.5652770
 116.9151340  23.2893320  51.7295670 126.0134780  17.3644780  62.2314360
 126.3815600  16.5439990  62.5593930 125.1532980  17.4246670  62.6470010
 129.3796810  16.3201720  53.0401920 128.7509970  16.4247390  52.3260150
 128.8848730  16.5398500  53.8295800 123.8254950  28.0407310  50.4735900
 123.9266930  27.8371300  49.5437880 122.9256690  27.7865590  50.6783680
 121.3480840  18.5987670  54.4559800 120.6396990  19.0674010  54.8973410
 121.6325320  17.9409680  55.0904990 122.9736770  20.0184370  62.4552330
 123.4722020  20.4930190  63.1204180 123.1159720  19.0947890  62.6622360
 125.3796270  15.3238330  55.8955590 125.2564050  15.3424460  54.9465100
 126.3280830  15.3717270  56.0153990 122.4673060  30.5593630  55.1683570
 122.7214560  30.5215020  54.2462940 121.5185540  30.4326960  55.1611820
 119.5515860  16.9072750  51.8310510 120.4006390  17.3442900  51.7650700
 119.1847130  17.2193010  52.6582570 130.1803630  16.2352330  63.2980720
 129.6777230  16.9757730  63.6374530 130.9960290  16.6236330  62.9817510
 128.4725640  21.4785510  56.7442080 127.5315780  21.4935740  56.9189770
 128.7869710  20.6921470  57.1902380 118.4507280  23.1605110  50.3046040
 119.2170550  23.0486470  50.8671470 118.5281970  22.4643080  49.6522810
 117.1454040  20.5930180  50.9878930 117.2257630  19.6457690  51.0996330
 118.0373790  20.9237060  51.0939590 130.4751220  28.6494360  58.4196340
 130.5998640  29.4725530  58.8920150 131.3416780  28.4385090  58.0720490
 117.9468750  30.7425570  58.0913470 118.6831230  30.1941030  58.3622040
 118.3309670  31.6081580  57.9519460 114.8314230  26.8099140  53.9654980
 113.9054010  27.0520280  53.9560390 115.2970660  27.6373400  53.8439730
 116.9527030  29.9271640  67.2799050 117.7539760  30.2483690  67.6934450
 116.4378850  29.5667220  68.0018960 121.0571060  29.9155880  49.9139040
 121.8499670  30.2044710  49.4620830 120.5375410  29.4848050  49.2351520
 125.7891660  26.0351510  67.2274460 125.1829820  26.0583110  66.4870210
 125.4845770  25.3034550  67.7641710 127.2192030  29.7631800  65.8383870
 128.1713780  29.6789820  65.7884110 127.0720250  30.4273510  66.5117660
 130.1101230  29.1426010  51.3375780 129.8242740  28.7291150  50.5229960
 129.9120780  30.0713720  51.2176300 114.6724840  22.4145100  66.2235100
 115.1763860  21.8352380  66.7951330 113.9332260  22.6985330  66.7611470
 121.5748460  25.1359290  49.7781390 121.4699100  24.5211640  50.5042770
 121.4072680  24.6125180  48.9944400 121.7262780  23.8216090  65.7570620
 120.9608450  24.3901090  65.6725290 121.9078740  23.5292300  64.8638850
 124.8151190  24.1979320  50.3823380 124.2661290  24.6448620  51.0266120
 125.4370450  23.6928570  50.9061050 128.8686130  25.5521420  66.3145640
 129.6095600  25.8897180  65.8113100 128.1058810  25.7213480  65.7615410
 116.7047920  20.5574690  67.1185170 116.7453260  20.2588560  68.0270400
 117.5593420  20.9582300  66.9592690 120.4826310  23.1570240  52.2788680
 120.9042730  22.9910110  53.1220070 120.6077150  22.3470470  51.7843820
 118.6453730  19.1366790  65.0859660 118.1150190  18.6457740  64.4583000
 119.3141800  19.5650990  64.5517590 122.9953950  22.1807850  49.5265780
 123.5159610  21.4656870  49.1606930 123.6422350  22.8193720  49.8266290
 127.5431790  23.6036250  64.8500850 127.9572810  23.7581330  65.6991270
 126.6082790  23.7291470  65.0126630 128.0153960  20.9432410  66.8540000
 128.5974730  20.1884730  66.7660480 128.1915730  21.4739850  66.0771480
 119.1326030  16.1029160  65.1656950 119.0382900  15.4849910  64.4407820
 118.5523420  16.8295450  64.9386860 121.8987470  14.6602400  62.1984340
 121.4504770  14.6826660  61.3529890 121.2652670  14.2621420  62.7954640
 122.3047020  23.5556730  62.8196780 122.7235130  24.3989460  62.6473020
 121.3855650  23.6928770  62.5903560 124.6410920  21.2872910  64.2034620
 124.7607130  20.6914050  64.9429460 125.5004920  21.3242600  63.7835920
 126.9798820  21.8410100  62.7797130 126.4534040  22.3652720  62.1762270
 127.3230160  22.4737490  63.4106860 119.3785210  19.2303470  49.2246840
 119.1774270  18.3670830  49.5860180 119.2077260  19.1436830  48.2868440
 120.1554440  29.8609740  63.9354510 119.6175530  30.5855800  63.6163210
 120.4088400  29.3840080  63.1451850 121.4079690  17.8294260  65.4610440
 121.9979380  17.5210110  66.1488260 120.5899930  17.3574010  65.6170340
 126.2273120  17.4460070  65.6943460 125.5388640  16.7841610  65.6293450
 126.9479140  16.9998340  66.1391920 126.8573520  14.0411700  51.7533720
 127.1375810  13.1979600  52.1093140 126.0839250  14.2734810  52.2672470
 118.1768010  16.3304090  49.2124720 118.4793910  16.3371520  48.3043870
 118.9162600  15.9801950  49.7092380 123.0116650  31.0960950  64.1941160
 122.9375350  31.9996090  64.5013530 122.1095490  30.7772850  64.1663230
 121.3952940  15.2738710  50.1980920 121.0474940  14.5962700  49.6183370
 121.5965710  14.8128220  51.0124310 123.5601980  30.2619460  51.8167520
 124.4552770  30.6004430  51.8386280 123.5919610  29.5398870  51.1891800
 117.1998140  25.6346510  50.0454520 117.6373010  26.1776180  50.7012100
 117.6845870  24.8093460  50.0550860 114.4143940  28.4235540  57.4974780
 114.7446950  27.5556600  57.2653420 114.8434940  28.6294060  58.3279740
 119.0105860  26.7544550  55.1576750 118.7101400  26.6309520  56.0580660
 118.9043350  25.8953140  54.7492480 130.5396330  28.7923130  64.5233720
 129.9398320  28.8515690  63.7797640 130.6690230  27.8528110  64.6530570
 131.7797780  26.5340950  49.8603430 130.9490740  26.6017600  50.3310660
 131.9569610  27.4245070  49.5570290 131.2354240  23.2788430  52.3637630
 131.9973150  23.8485080  52.4697320 131.2508610  22.7115630  53.1345940
 114.7358580  21.8026360  56.5945290 114.0807420  21.5338000  55.9504990
 115.5736530  21.6930840  56.1447270 132.2414210  24.1338530  57.2079560
 132.6123040  23.3505850  56.8015530 132.8816140  24.8227630  57.0296860
 129.2247970  25.5175110  62.6209880 128.4107810  25.9472270  62.8835670
 129.6322170  26.1293520  62.0078930 131.2873410  23.5722800  49.5210150
 131.5622250  24.4801680  49.3929370 131.0984150  23.5085330  50.4572140
 127.6849020  16.5967650  50.8163780 128.1033900  16.4098630  49.9760440
 127.3785080  15.7446700  51.1266710 131.1838750  21.5091790  54.5139580
 130.8082350  20.7419720  54.0820870 130.4541870  21.8914490  55.0014510
 115.7734510  22.1878930  61.1348630 116.1407550  22.1006330  62.0144650
 115.2045330  21.4245480  61.0355490 130.5738370  20.6563310  64.1479100
 130.3424460  20.4276060  63.2477050 130.8342920  21.5762860  64.1023990
 115.3250510  19.0988020  65.0407050 114.4306560  19.0654780  65.3800760
 115.8648060  19.2974810  65.8058300 129.0126440  15.8819740  66.9258800
 129.8896620  15.8903140  67.3092800 129.0247280  15.1450580  66.3151150
 113.9496660  19.0125290  52.5370620 113.0460740  19.2755490  52.3622280
 114.4337280  19.2836460  51.7570580 130.4589710  19.7349280  57.8146820
 130.9827190  19.2411930  57.1836990 131.0449130  19.8699640  58.5594390
 130.6379430  19.8189150  61.3366370 129.6882140  19.7852690  61.4511360
 130.8192440  20.7289260  61.1016140 116.4923870  18.0690830  50.4465000
 117.2015570  17.6474050  49.9612280 115.7763810  18.1366060  49.8148350
 116.1398030  14.1230160  49.4867650 116.8626160  14.6639100  49.8048870
 116.4122550  13.8493580  48.6109190 129.9489680  18.9922630  53.7539230
 130.4448800  18.7593500  54.5388110 129.7505750  18.1534470  53.3376870
 115.8290220  13.3736350  59.3890270 116.4766410  12.8233730  58.9485430
 116.2492060  13.6279500  60.2106080 131.3776840  17.6283580  56.2876910
 131.2676120  17.4739620  57.2259180 132.1384430  17.1004520  56.0452320
 129.7242560  13.5677710  62.7459910 130.3614780  14.1811850  63.1119100
 129.8717450  13.6038370  61.8009140 132.2667110  15.4591500  49.5283050
 133.1916420  15.3272680  49.3201340 132.2442900  15.5384320  50.4819500
 132.3405600  16.2302160  52.1539760 131.5457100  16.1647280  52.6832670
 132.5448880  17.1652800  52.1425110 129.2824020  30.2693710  56.1478150
 129.8783090  29.9478280  55.4712570 129.5402170  29.7965530  56.9391420
 115.5822220  13.5292020  62.1315590 115.2337040  13.9855840  62.8973770
 115.2509920  12.6349150  62.2138020 117.1886590  26.7011620  66.2968780
 117.1456220  26.3304530  67.1783240 117.3197600  27.6389190  66.4370600
 120.8892620  28.2571210  61.8978500 120.6483980  28.5245770  61.0109020
 121.8295260  28.4276940  61.9529360 123.0947040  14.7203900  65.6535010
 123.0335930  15.3125730  66.4030420 124.0347420  14.6129860  65.5085270
 125.7321600  14.3773960  65.2927300 126.3462010  14.6953250  64.6308380
 126.2771160  13.8922550  65.9123160 132.1496780  30.2765590  62.6989140
 131.6555060  30.6734460  61.9816270 131.5410070  29.6514800  63.0926420
 116.2542860  13.0568220  65.4066360 116.8025850  12.8756270  64.6432470
 116.3198170  12.2662330  65.9422670 126.4729640  12.9406100  61.6196590
 125.5989480  13.2741210  61.4169520 126.3640390  12.4679280  62.4448460
 127.3801620  15.1476970  63.0038310 127.0514980  14.3328730  62.6240040
 128.3283920  15.1046780  62.8804000 129.8336230  30.9189010  59.9775880
 129.3739200  31.6704820  59.6033900 129.2048690  30.1995480  59.9190680
 120.2631950  29.2277250  59.1524010 120.7796970  28.6164610  58.6272270
 120.9129330  29.7306030  59.6435020 123.0027450  30.1185740  59.9792990
 123.2905260  29.8640040  59.1026000 123.5150670  29.5663100  60.5698560
 124.2204460  13.8575940  60.5589500 123.4376250  14.3321440  60.8386260
 123.9267390  12.9530770  60.4502680 128.7725530  14.5599040  58.6038590
 129.2133620  14.5044140  57.7560190 128.5033120  15.4757050  58.6748770
 130.6364100  14.1914280  56.6147410 130.5752500  13.2475500  56.4678430
 131.4156130  14.2994370  57.1600870 114.9416850  30.3306640  55.5771360
 114.7738890  29.6977320  56.2753250 114.0751360  30.5366040  55.2265550
 115.5644870  14.1623420  53.0803220 116.3224230  14.2752300  52.5067250
 115.1022040  14.9992620  53.0346650 122.1058680  16.2762690  56.0705530
 121.2933190  15.9019580  55.7301410 122.6100320  15.5207770  56.3726720
 126.6083660  12.9405140  57.3088600 127.2113030  13.5125350  57.7837120
 125.8676650  13.5044580  57.0862500 129.7518260  13.3426700  52.5828880
 129.9468890  14.2410150  52.8496310 128.9648130  13.1113780  53.0761830
 116.5479550  29.0239870  53.0221500 116.0227170  29.4047900  52.3183460
 116.4724130  29.6490640  53.7431210 117.9370020  14.6887470  51.6205190
 118.4662780  13.9017270  51.4913140 118.5698340  15.3678660  51.8540720
 120.1307860  14.4262610  54.6750580 119.5010600  13.7249920  54.8420710
 119.5913000  15.1866740  54.4583740 123.0699810  31.0401840  67.3461190
 123.9967120  30.8046110  67.3897150 123.0550240  31.8673840  66.8647220
 131.3044870  30.5827410  54.3435440 131.4797060  29.8965150  53.6996360
 130.6066440  31.1074460  53.9512110 120.2563420  13.7046590  67.1103070
 119.9747690  14.2080190  66.3463890 120.6383120  12.9068340  66.7445200
 119.1472520  30.9722250  51.8970750 119.8791340  30.6881530  51.3494640
 119.4066190  30.7335530  52.7870130 118.3087310  27.0886980  51.9017080
 117.6796190  27.5572080  52.4502910 118.4235140  26.2436200  52.3363270
 126.8578880  13.1200170  67.6883540 126.7444330  13.4394780  68.5835060
 127.6748620  13.5212680  67.3920820 129.6377370  30.2671700  67.1702230
 130.4302690  29.7720930  66.9628190 129.9310520  30.9461840  67.7777840
 125.7637030  21.1392640  38.0518280 125.6831080  20.2247250  37.7809990
 125.3501450  21.6359710  37.3457990 123.8955070  22.9171660  39.9327550
 123.1197170  22.4372100  40.2226120 124.5468000  22.2377310  39.7583710
 117.9120900  23.2291470  40.8103310 117.0805780  22.9740180  41.2099820
 118.5201880  23.3002240  41.5461230 127.9162500  27.3231850  38.7126680
 127.4544030  26.5519090  39.0413850 128.7288050  27.3497920  39.2179130
 117.8922160  27.2631560  41.0061330 118.1950200  26.3729300  40.8271550
 118.6365750  27.8201780  40.7783580 116.3212850  18.1893360  34.5945700
 115.4329550  18.5309330  34.4925580 116.6054040  17.9893680  33.7026530
 114.2845860  20.7899010  40.4785400 114.8561970  20.0221210  40.4789040
 114.2847400  21.0887770  39.5692010 124.1425810  29.6089860  38.3330670
 123.5237250  30.0647360  37.7625110 124.9977590  29.7641320  37.9320370
 123.3364060  25.5928850  39.9397710 123.2672340  24.6518790  39.7786840
 124.0983920  25.6830260  40.5120280 115.5270730  16.1983370  42.2654330
 115.3473570  15.3009120  42.5457090 115.1250810  16.7455240  42.9401280
 124.3669230  18.3999230  40.1666640 124.7434050  17.5271110  40.0540310
 124.2688740  18.7357930  39.2757080 118.4974240  16.7724860  35.6284080
 118.6040990  17.6728590  35.9352840 117.5866600  16.7242830  35.3378730
 128.1493350  15.8949670  37.0994980 128.9702970  15.4046240  37.1420460
 128.1827430  16.4847330  37.8526820 116.1457400  18.6943870  40.8736670
 116.8267510  18.9582240  41.4924070 115.8305450  17.8544740  41.2074680
 120.3381970  19.7411230  39.9609260 120.8460190  20.2392200  40.6014280
 120.8695210  18.9646430  39.7848620 132.4392900  17.9116420  43.6638610
 131.7345070  18.2998130  43.1453720 132.7050820  18.6066710  44.2659540
 118.6218070  14.3809790  44.2272680 118.6236510  14.8982180  43.4218580
 117.7922380  13.9039970  44.2042610 125.0089160  24.4929100  35.7262580
 124.3906430  24.9578550  35.1625300 125.5212410  25.1856580  36.1432090
 119.8720920  24.0204970  42.4046180 119.5390300  24.6473890  43.0467250
 120.0487600  24.5466850  41.6247850 128.3854830  17.8350050  39.8722520
 127.6810400  18.1234940  40.4525630 128.7466990  18.6450160  39.5122080
 118.3033400  16.0919750  42.2343130 118.6450210  16.9361800  41.9397000
 117.3649210  16.2403490  42.3508470 119.0840020  25.9885770  44.2195360
 119.7014020  26.6636850  43.9379810 118.2233140  26.3973750  44.1282860
 114.3772360  25.1785630  33.1002210 114.0000340  25.6672730  32.3687110
 114.6345430  25.8510910  33.7308740 130.0017610  27.4525180  42.1350000
 129.3181130  28.1224290  42.1266670 130.5411900  27.6505830  41.3694860
 131.4541750  17.2804840  40.2631730 130.5066660  17.3143820  40.3947160
 131.7791740  18.0943790  40.6481090 121.9861290  13.5802020  38.5587720
 122.2936270  13.0248910  37.8423220 121.0561990  13.7146480  38.3760710
 127.5376350  29.2969310  40.8495180 127.5503510  28.8931600  39.9817440
 126.9851570  30.0716600  40.7456610 128.8321770  26.0185530  35.9385350
 128.7218100  25.0759860  36.0634770 128.8290020  26.3801170  36.8248110
 126.9361790  24.1999150  42.1777790 127.3530580  23.9859260  41.3431250
 127.6601610  24.4571940  42.7486410 124.3742050  21.6450850  35.2947840
 123.4471330  21.5788230  35.5236310 124.5266870  22.5830980  35.1803080
 124.3611130  17.9167850  32.2915000 123.4214800  18.0781810  32.3767460
 124.6794390  18.6353530  31.7450990 130.8823890  22.5986370  42.2694030
 130.0542520  22.6679460  41.7944160 131.4774370  23.1840680  41.8009860
 128.4039340  23.2071150  35.7983090 127.7851760  22.8690700  35.1509390
 128.3863790  22.5630910  36.5062280 127.8465900  19.3855690  43.2148900
 127.4337080  20.2109400  43.4688890 127.1141850  18.8000730  43.0225260
 119.9798690  22.1715590  38.0767570 119.5755690  21.4592840  37.5813470
 120.0661810  21.8268830  38.9655610 120.4480390  25.8583150  40.2406780
 120.1508680  25.2528620  39.5614560 121.3980210  25.8960460  40.1296140
 118.6927310  18.9458800  41.8566610 119.2441900  19.0554140  41.0819860
 119.2070820  19.3196400  42.5721840 128.5366000  29.4315020  43.9029880
 128.0596560  30.2387210  43.7102490 127.8527790  28.7793350  44.0556090
 119.5398820  25.5964840  46.8914580 118.6427350  25.8204810  47.1387980
 119.5651690  25.7199780  45.9425980 126.5804040  22.4457960  32.8055840
 127.0197320  21.6080390  32.6593660 127.2932460  23.0787360  32.8919980
 118.3670040  22.4678160  45.4671950 118.2277810  23.3400960  45.8359350
 117.4851400  22.1250970  45.3219890 124.6899420  27.3854030  36.7737080
 125.1295330  28.1278360  36.3592470 124.6286310  27.6280600  37.6976040
 120.1650390  28.4099860  47.6757100 120.1365820  28.8142810  46.8085530
 120.0015360  27.4810220  47.5128700 130.1621180  13.7000770  31.1196880
 129.8493840  13.7927600  32.0195950 130.9233650  14.2781800  31.0694310
 116.6803320  21.0660570  35.5774220 116.5600920  21.7922660  34.9655490
 116.3704210  20.2963480  35.1002130 132.1165210  29.1926960  48.9721270
 132.5924930  29.6709850  49.6510350 132.7372370  29.1244450  48.2466770
 114.3188690  24.2375710  41.3842860 114.3969110  24.3724480  40.4398580
 114.9330370  23.5291600  41.5770980 115.5636320  25.9375900  37.7949040
 115.1564400  26.0790490  36.9402640 116.4549330  25.6536060  37.5920250
 131.5198460  26.3839810  46.1321280 131.6461520  26.1451690  45.2138460
 131.5619840  25.5524350  46.6043360 125.3815200  30.0867810  44.7016090
 125.8959870  29.9975820  45.5038520 124.5384280  30.4327510  44.9944000
 127.3569600  30.3723150  34.1300090 127.1970740  30.0826090  35.0281920
 127.1916310  29.5963280  33.5945320 119.8357980  30.1521680  35.9071710
 119.6600460  29.2357220  35.6939510 118.9813720  30.5108970  36.1469510
 127.0595730  27.8810710  32.6898090 126.3660890  27.8788000  32.0300370
 127.8018590  27.4570030  32.2592260 126.6245660  29.5073420  36.7646580
 127.0802610  28.7262800  37.0785200 126.9638180  30.2180240  37.3087760
 131.3722470  18.4372270  47.0971020 130.7566740  18.9451940  46.5686480
 131.0518890  17.5370600  47.0396960 114.3748210  25.2789880  43.9237320
 114.5379250  24.8095240  43.1056690 114.8400660  24.7713440  44.5886160
 119.1466980  14.4095640  38.9597890 118.7035130  15.1905180  38.6282410
 119.7051970  14.7325530  39.6668830 123.4336790  17.2764160  44.5633210
 122.9716160  17.4847180  45.3753150 123.0314900  16.4623510  44.2603880
 128.4341300  18.4973110  45.6929870 127.5834890  18.1978860  46.0138940
 128.2743090  18.7415120  44.7813690 125.5291010  19.9974860  47.7928660
 125.8544420  19.1638610  47.4530890 126.3171340  20.5203380  47.9406990
 122.2625800  14.0306340  33.8403720 121.6379980  14.0266210  34.5657030
 122.1755920  13.1637300  33.4439690 121.1842880  14.9542970  40.8187490
 121.4815210  15.8605800  40.7379510 121.7328440  14.4661750  40.2047060
 118.9381200  19.5329210  36.6879140 118.7122120  19.3166380  37.5925760
 118.1573730  19.9657670  36.3425110 126.1678960  19.5392580  35.2869790
 125.5687850  20.2628380  35.1033410 126.7158570  19.4769360  34.5046240
 121.3780410  20.4314790  47.3539410 121.2824010  19.4909520  47.2039810
 122.2212390  20.6529860  46.9587480 124.7743830  18.1756120  37.3173070
 125.1673400  18.4928320  36.5041760 125.1360680  17.2968000  37.4317590
 116.5090950  16.8428460  45.5073190 116.1154340  17.6903670  45.7145970
 115.8209350  16.2054830  45.6981830 123.0836000  16.9263430  48.5769930
 122.3934320  16.7335630  49.2116020 123.8268300  17.2098070  49.1094230
 113.8108000  14.7656920  39.5403270 113.5221050  15.3359780  40.2528250
 114.5553760  14.2861370  39.9034500 113.9978230  18.7077040  30.7505990
 113.9152900  19.6507800  30.8920980 113.6461290  18.5651950  29.8718340
 125.3598970  20.7661870  41.4123850 124.6280090  21.2748680  41.7613950
 124.9623310  19.9491850  41.1112630 121.7976360  17.4416070  39.8176340
 121.8012420  17.0006020  38.9680880 122.6927480  17.7633400  39.9248160
 117.6478740  17.3242560  38.7770550 117.3078790  17.8017790  39.5337600
 116.8856060  16.8707680  38.4171650 121.8596510  18.4428150  32.8083100
 121.9809330  18.4014630  33.7568920 121.4745020  19.3052300  32.6529830
 125.8224880  16.2195550  40.8246790 125.8397620  16.6704200  41.6688640
 125.5740460  15.3201190  41.0380230 120.8718010  20.7529290  32.2066400
 120.3034910  20.3047540  31.5802310 121.5807010  21.1122070  31.6731550
 129.2495630  13.6327730  46.6633170 129.5741400  12.9017390  47.1891150
 129.2852140  13.3141370  45.7614160 115.9487190  24.6541310  46.0833130
 115.5641980  24.0134980  46.6816090 116.2599380  25.3577430  46.6527860
 122.0984330  21.5017850  41.5641750 122.4654460  21.0276420  42.3103090
 121.9089390  22.3759420  41.9050090 114.9624820  16.2461540  37.6935220
 114.6771740  15.8817210  38.5313840 114.9003680  15.5142000  37.0798360
 119.8883700  20.5426490  43.8825960 119.5840770  21.4218470  44.1076320
 120.8430160  20.6026280  43.9183400 118.4165490  24.7487480  34.4792810
 117.6427750  24.2085100  34.3191530 119.1460120  24.2294090  34.1410570
 129.1753470  23.7452840  40.2719200 129.8952590  24.2408130  39.8815310
 128.9735290  23.0670730  39.6273070 124.6363410  15.1390800  34.4148590
 123.8228020  14.6403970  34.3393900 124.4425360  15.9789050  33.9984940
 124.5572270  23.8161900  46.1588200 124.4909580  22.8957570  45.9045790
 123.9277410  23.9137340  46.8732840 127.3511800  19.5110450  32.7110750
 128.2391420  19.8227680  32.5362090 127.3216890  18.6382700  32.3191330
 118.4602890  24.4167860  38.1171620 118.9781560  23.6136120  38.0628510
 118.0086910  24.3547000  38.9588450 123.3472390  25.6834140  33.3898920
 123.6888090  26.4276370  32.8942240 122.5185100  25.9965260  33.7523750
 115.9447430  21.3829230  45.0297320 115.5862370  22.0483080  45.6170660
 115.6501990  20.5512780  45.4009940 119.1460550  21.8413470  47.9136870
 118.8460690  21.9870650  47.0164690 119.9171790  21.2818760  47.8210260
 124.4889000  26.6382470  45.9092000 124.5033540  25.7063430  45.6910910
 123.7814100  26.7242230  46.5481770 129.6226070  20.8222290  32.1790610
 129.5389790  21.2536510  31.3287050 130.3420260  21.2820640  32.6117430
 130.7000210  23.2789810  45.2560580 129.9748400  23.8718590  45.0589970
 131.2275670  23.2713350  44.4573950 130.6513320  27.6764550  34.9072740
 130.0089480  27.0220170  35.1816460 130.2643980  28.0819640  34.1313410
 126.2299800  25.0049980  38.7544430 126.5823620  24.4078110  38.0945800
 125.3462130  24.6794210  38.9252680 122.3163080  25.7647670  36.1614840
 123.0034210  26.3116880  36.5422430 121.5295500  26.3088400  36.1964450
 114.4555480  21.3820490  31.6531920 115.3250330  21.6645290  31.9367840
 113.9645800  22.1956360  31.5380730 121.6190290  22.7693700  35.7740200
 122.0753070  23.5798950  36.0000390 121.2678500  22.4516840  36.6058690
 123.9222900  28.2800040  43.0032500 124.5665120  28.4859420  43.6805920
 124.2852340  27.5188440  42.5503350 117.5202070  13.1131350  36.2462720
 117.3916700  13.1049250  37.1947640 116.6964090  13.4514440  35.8953730
 125.1954980  26.2832390  41.7209950 125.8377210  25.5825550  41.8342120
 125.7204330  27.0630830  41.5406840 129.0410700  26.5681010  31.4449090
 128.8148280  25.8511450  32.0373730 128.6506900  26.3193450  30.6070840
 126.9692600  27.0827290  44.9246010 127.3048840  27.6693980  45.6023930
 126.0492940  26.9520000  45.1543800 114.8226730  30.5947870  32.2193550
 115.1824370  31.1937210  31.5650820 114.6819070  31.1407760  32.9928580
 114.5196000  14.8722470  45.7069420 113.8054520  15.0719390  46.3122030
 114.9391040  14.0962040  46.0784220 128.6226950  24.4852950  33.1063250
 128.3348650  24.9465640  33.8941130 129.4179120  24.0250720  33.3747470
 114.8068590  28.8602730  46.6935950 114.9159710  27.9197470  46.5531340
 114.1549150  29.1257480  46.0449680 122.7981180  27.1318620  48.0934070
 122.4778050  26.4127860  48.6379760 122.1239540  27.8073690  48.1670130
 120.8395350  27.9779070  33.0367220 120.8305450  28.7108760  32.4211730
 119.9193710  27.7310650  33.1294180 116.4401990  23.1993960  33.7813980
 115.8329940  23.9392860  33.7909280 116.9151340  23.2893320  32.9552180
 126.0134780  17.3644780  43.4570870 126.3815600  16.5439990  43.7850440
 125.1532980  17.4246670  43.8726520 129.3796810  16.3201720  34.2658430
 128.7509970  16.4247390  33.5516660 128.8848730  16.5398500  35.0552310
 123.8254950  28.0407310  31.6992410 123.9266930  27.8371300  30.7694390
 122.9256690  27.7865590  31.9040190 121.3480840  18.5987670  35.6816310
 120.6396990  19.0674010  36.1229920 121.6325320  17.9409680  36.3161500
 122.9736770  20.0184370  43.6808840 123.4722020  20.4930190  44.3460690
 123.1159720  19.0947890  43.8878870 125.3796270  15.3238330  37.1212100
 125.2564050  15.3424460  36.1721610 126.3280830  15.3717270  37.2410500
 122.4673060  30.5593630  36.3940080 122.7214560  30.5215020  35.4719450
 121.5185540  30.4326960  36.3868330 119.5515860  16.9072750  33.0567020
 120.4006390  17.3442900  32.9907210 119.1847130  17.2193010  33.8839080
 130.1803630  16.2352330  44.5237230 129.6777230  16.9757730  44.8631040
 130.9960290  16.6236330  44.2074020 128.4725640  21.4785510  37.9698590
 127.5315780  21.4935740  38.1446280 128.7869710  20.6921470  38.4158890
 118.4507280  23.1605110  31.5302550 119.2170550  23.0486470  32.0927980
 118.5281970  22.4643080  30.8779320 117.1454040  20.5930180  32.2135440
 117.2257630  19.6457690  32.3252840 118.0373790  20.9237060  32.3196100
 130.4751220  28.6494360  39.6452850 130.5998640  29.4725530  40.1176660
 131.3416780  28.4385090  39.2977000 117.9468750  30.7425570  39.3169980
 118.6831230  30.1941030  39.5878550 118.3309670  31.6081580  39.1775970
 114.8314230  26.8099140  35.1911490 113.9054010  27.0520280  35.1816900
 115.2970660  27.6373400  35.0696240 116.9527030  29.9271640  48.5055560
 117.7539760  30.2483690  48.9190960 116.4378850  29.5667220  49.2275470
 121.0571060  29.9155880  31.1395550 121.8499670  30.2044710  30.6877340
 120.5375410  29.4848050  30.4608030 125.7891660  26.0351510  48.4530970
 125.1829820  26.0583110  47.7126720 125.4845770  25.3034550  48.9898220
 127.2192030  29.7631800  47.0640380 128.1713780  29.6789820  47.0140620
 127.0720250  30.4273510  47.7374170 130.1101230  29.1426010  32.5632290
 129.8242740  28.7291150  31.7486470 129.9120780  30.0713720  32.4432810
 114.6724840  22.4145100  47.4491610 115.1763860  21.8352380  48.0207840
 113.9332260  22.6985330  47.9867980 121.5748460  25.1359290  31.0037900
 121.4699100  24.5211640  31.7299280 121.4072680  24.6125180  30.2200910
 121.7262780  23.8216090  46.9827130 120.9608450  24.3901090  46.8981800
 121.9078740  23.5292300  46.0895360 124.8151190  24.1979320  31.6079890
 124.2661290  24.6448620  32.2522630 125.4370450  23.6928570  32.1317560
 128.8686130  25.5521420  47.5402150 129.6095600  25.8897180  47.0369610
 128.1058810  25.7213480  46.9871920 116.7047920  20.5574690  48.3441680
 116.7453260  20.2588560  49.2526910 117.5593420  20.9582300  48.1849200
 120.4826310  23.1570240  33.5045190 120.9042730  22.9910110  34.3476580
 120.6077150  22.3470470  33.0100330 118.6453730  19.1366790  46.3116170
 118.1150190  18.6457740  45.6839510 119.3141800  19.5650990  45.7774100
 122.9953950  22.1807850  30.7522290 123.5159610  21.4656870  30.3863440
 123.6422350  22.8193720  31.0522800 127.5431790  23.6036250  46.0757360
 127.9572810  23.7581330  46.9247780 126.6082790  23.7291470  46.2383140
 128.0153960  20.9432410  48.0796510 128.5974730  20.1884730  47.9916990
 128.1915730  21.4739850  47.3027990 119.1326030  16.1029160  46.3913460
 119.0382900  15.4849910  45.6664330 118.5523420  16.8295450  46.1643370
 121.8987470  14.6602400  43.4240850 121.4504770  14.6826660  42.5786400
 121.2652670  14.2621420  44.0211150 122.3047020  23.5556730  44.0453290
 122.7235130  24.3989460  43.8729530 121.3855650  23.6928770  43.8160070
 124.6410920  21.2872910  45.4291130 124.7607130  20.6914050  46.1685970
 125.5004920  21.3242600  45.0092430 126.9798820  21.8410100  44.0053640
 126.4534040  22.3652720  43.4018780 127.3230160  22.4737490  44.6363370
 119.3785210  19.2303470  30.4503350 119.1774270  18.3670830  30.8116690
 119.2077260  19.1436830  29.5124950 120.1554440  29.8609740  45.1611020
 119.6175530  30.5855800  44.8419720 120.4088400  29.3840080  44.3708360
 121.4079690  17.8294260  46.6866950 121.9979380  17.5210110  47.3744770
 120.5899930  17.3574010  46.8426850 126.2273120  17.4460070  46.9199970
 125.5388640  16.7841610  46.8549960 126.9479140  16.9998340  47.3648430
 126.8573520  14.0411700  32.9790230 127.1375810  13.1979600  33.3349650
 126.0839250  14.2734810  33.4928980 118.1768010  16.3304090  30.4381230
 118.4793910  16.3371520  29.5300380 118.9162600  15.9801950  30.9348890
 123.0116650  31.0960950  45.4197670 122.9375350  31.9996090  45.7270040
 122.1095490  30.7772850  45.3919740 121.3952940  15.2738710  31.4237430
 121.0474940  14.5962700  30.8439880 121.5965710  14.8128220  32.2380820
 123.5601980  30.2619460  33.0424030 124.4552770  30.6004430  33.0642790
 123.5919610  29.5398870  32.4148310 117.1998140  25.6346510  31.2711030
 117.6373010  26.1776180  31.9268610 117.6845870  24.8093460  31.2807370
 114.4143940  28.4235540  38.7231290 114.7446950  27.5556600  38.4909930
 114.8434940  28.6294060  39.5536250 119.0105860  26.7544550  36.3833260
 118.7101400  26.6309520  37.2837170 118.9043350  25.8953140  35.9748990
 114.9034150  29.2906130  41.4612920 114.4665140  29.4706930  42.2937070
 115.4711830  30.0480750  41.3194640 130.5396330  28.7923130  45.7490230
 129.9398320  28.8515690  45.0054150 130.6690230  27.8528110  45.8787080
 131.7797780  26.5340950  31.0859940 130.9490740  26.6017600  31.5567170
 131.9569610  27.4245070  30.7826800 131.2354240  23.2788430  33.5894140
 131.9973150  23.8485080  33.6953830 131.2508610  22.7115630  34.3602450
 114.7358580  21.8026360  37.8201800 114.0807420  21.5338000  37.1761500
 115.5736530  21.6930840  37.3703780 132.2414210  24.1338530  38.4336070
 132.6123040  23.3505850  38.0272040 132.8816140  24.8227630  38.2553370
 129.2247970  25.5175110  43.8466390 128.4107810  25.9472270  44.1092180
 129.6322170  26.1293520  43.2335440 131.2873410  23.5722800  30.7466660
 131.5622250  24.4801680  30.6185880 131.0984150  23.5085330  31.6828650
 127.6849020  16.5967650  32.0420290 128.1033900  16.4098630  31.2016950
 127.3785080  15.7446700  32.3523220 131.1838750  21.5091790  35.7396090
 130.8082350  20.7419720  35.3077380 130.4541870  21.8914490  36.2271020
 115.7734510  22.1878930  42.3605140 116.1407550  22.1006330  43.2401160
 115.2045330  21.4245480  42.2612000 130.5738370  20.6563310  45.3735610
 130.3424460  20.4276060  44.4733560 130.8342920  21.5762860  45.3280500
 115.3250510  19.0988020  46.2663560 114.4306560  19.0654780  46.6057270
 115.8648060  19.2974810  47.0314810 129.0126440  15.8819740  48.1515310
 129.8896620  15.8903140  48.5349310 129.0247280  15.1450580  47.5407660
 113.9496660  19.0125290  33.7627130 113.0460740  19.2755490  33.5878790
 114.4337280  19.2836460  32.9827090 130.4589710  19.7349280  39.0403330
 130.9827190  19.2411930  38.4093500 131.0449130  19.8699640  39.7850900
 130.6379430  19.8189150  42.5622880 129.6882140  19.7852690  42.6767870
 130.8192440  20.7289260  42.3272650 116.4923870  18.0690830  31.6721510
 117.2015570  17.6474050  31.1868790 115.7763810  18.1366060  31.0404860
 116.1398030  14.1230160  30.7124160 116.8626160  14.6639100  31.0305380
 116.4122550  13.8493580  29.8365700 129.9489680  18.9922630  34.9795740
 130.4448800  18.7593500  35.7644620 129.7505750  18.1534470  34.5633380
 115.8290220  13.3736350  40.6146780 116.4766410  12.8233730  40.1741940
 116.2492060  13.6279500  41.4362590 131.3776840  17.6283580  37.5133420
 131.2676120  17.4739620  38.4515690 132.1384430  17.1004520  37.2708830
 129.7242560  13.5677710  43.9716420 130.3614780  14.1811850  44.3375610
 129.8717450  13.6038370  43.0265650 132.2667110  15.4591500  30.7539560
 133.1916420  15.3272680  30.5457850 132.2442900  15.5384320  31.7076010
 132.3405600  16.2302160  33.3796270 131.5457100  16.1647280  33.9089180
 132.5448880  17.1652800  33.3681620 129.2824020  30.2693710  37.3734660
 129.8783090  29.9478280  36.6969080 129.5402170  29.7965530  38.1647930
 115.5822220  13.5292020  43.3572100 115.2337040  13.9855840  44.1230280
 115.2509920  12.6349150  43.4394530 117.1886590  26.7011620  47.5225290
 117.1456220  26.3304530  48.4039750 117.3197600  27.6389190  47.6627110
 120.8892620  28.2571210  43.1235010 120.6483980  28.5245770  42.2365530
 121.8295260  28.4276940  43.1785870 123.0947040  14.7203900  46.8791520
 123.0335930  15.3125730  47.6286930 124.0347420  14.6129860  46.7341780
 125.7321600  14.3773960  46.5183810 126.3462010  14.6953250  45.8564890
 126.2771160  13.8922550  47.1379670 132.1496780  30.2765590  43.9245650
 131.6555060  30.6734460  43.2072780 131.5410070  29.6514800  44.3182930
 116.2542860  13.0568220  46.6322870 116.8025850  12.8756270  45.8688980
 116.3198170  12.2662330  47.1679180 117.0274620  29.6473870  44.6423070
 116.4334940  29.5158570  45.3813110 117.0198460  28.8112010  44.1765170
 126.4729640  12.9406100  42.8453100 125.5989480  13.2741210  42.6426030
 126.3640390  12.4679280  43.6704970 127.3801620  15.1476970  44.2294820
 127.0514980  14.3328730  43.8496550 128.3283920  15.1046780  44.1060510
 129.8336230  30.9189010  41.2032390 129.3739200  31.6704820  40.8290410
 129.2048690  30.1995480  41.1447190 116.6586850  27.0132250  43.5931110
 115.9320910  26.3937540  43.5257060 116.7196000  27.4072860  42.7229190
 120.2631950  29.2277250  40.3780520 120.7796970  28.6164610  39.8528780
 120.9129330  29.7306030  40.8691530 123.0027450  30.1185740  41.2049500
 123.2905260  29.8640040  40.3282510 123.5150670  29.5663100  41.7955070
 124.2204460  13.8575940  41.7846010 123.4376250  14.3321440  42.0642770
 123.9267390  12.9530770  41.6759190 128.7725530  14.5599040  39.8295100
 129.2133620  14.5044140  38.9816700 128.5033120  15.4757050  39.9005280
 130.6364100  14.1914280  37.8403920 130.5752500  13.2475500  37.6934940
 131.4156130  14.2994370  38.3857380 114.9416850  30.3306640  36.8027870
 114.7738890  29.6977320  37.5009760 114.0751360  30.5366040  36.4522060
 115.5644870  14.1623420  34.3059730 116.3224230  14.2752300  33.7323760
 115.1022040  14.9992620  34.2603160 122.1058680  16.2762690  37.2962040
 121.2933190  15.9019580  36.9557920 122.6100320  15.5207770  37.5983230
 126.6083660  12.9405140  38.5345110 127.2113030  13.5125350  39.0093630
 125.8676650  13.5044580  38.3119010 129.7518260  13.3426700  33.8085390
 129.9468890  14.2410150  34.0752820 128.9648130  13.1113780  34.3018340
 116.5479550  29.0239870  34.2478010 116.0227170  29.4047900  33.5439970
 116.4724130  29.6490640  34.9687720 117.9370020  14.6887470  32.8461700
 118.4662780  13.9017270  32.7169650 118.5698340  15.3678660  33.0797230
 120.1307860  14.4262610  35.9007090 119.5010600  13.7249920  36.0677220
 119.5913000  15.1866740  35.6840250 123.0699810  31.0401840  48.5717700
 123.9967120  30.8046110  48.6153660 123.0550240  31.8673840  48.0903730
 131.3044870  30.5827410  35.5691950 131.4797060  29.8965150  34.9252870
 130.6066440  31.1074460  35.1768620 120.2563420  13.7046590  48.3359580
 119.9747690  14.2080190  47.5720400 120.6383120  12.9068340  47.9701710
 119.1472520  30.9722250  33.1227260 119.8791340  30.6881530  32.5751150
 119.4066190  30.7335530  34.0126640 118.3087310  27.0886980  33.1273590
 117.6796190  27.5572080  33.6759420 118.4235140  26.2436200  33.5619780
 126.8578880  13.1200170  48.9140050 126.7444330  13.4394780  49.8091570
 127.6748620  13.5212680  48.6177330 129.6377370  30.2671700  48.3958740
 130.4302690  29.7720930  48.1884700 129.9310520  30.9461840  49.0034350
 125.7637030  21.1392640  19.2774790 125.6831080  20.2247250  19.0066500
 125.3501450  21.6359710  18.5714500 123.8955070  22.9171660  21.1584060
 123.1197170  22.4372100  21.4482630 124.5468000  22.2377310  20.9840220
 117.9120900  23.2291470  22.0359820 117.0805780  22.9740180  22.4356330
 118.5201880  23.3002240  22.7717740 127.9162500  27.3231850  19.9383190
 127.4544030  26.5519090  20.2670360 128.7288050  27.3497920  20.4435640
 117.8922160  27.2631560  22.2317840 118.1950200  26.3729300  22.0528060
 118.6365750  27.8201780  22.0040090 116.3212850  18.1893360  15.8202210
 115.4329550  18.5309330  15.7182090 116.6054040  17.9893680  14.9283040
 114.2845860  20.7899010  21.7041910 114.8561970  20.0221210  21.7045550
 114.2847400  21.0887770  20.7948520 124.1425810  29.6089860  19.5587180
 123.5237250  30.0647360  18.9881620 124.9977590  29.7641320  19.1576880
 123.3364060  25.5928850  21.1654220 123.2672340  24.6518790  21.0043350
 124.0983920  25.6830260  21.7376790 115.5270730  16.1983370  23.4910840
 115.3473570  15.3009120  23.7713600 115.1250810  16.7455240  24.1657790
 124.3669230  18.3999230  21.3923150 124.7434050  17.5271110  21.2796820
 124.2688740  18.7357930  20.5013590 118.4974240  16.7724860  16.8540590
 118.6040990  17.6728590  17.1609350 117.5866600  16.7242830  16.5635240
 128.1493350  15.8949670  18.3251490 128.9702970  15.4046240  18.3676970
 128.1827430  16.4847330  19.0783330 116.1457400  18.6943870  22.0993180
 116.8267510  18.9582240  22.7180580 115.8305450  17.8544740  22.4331190
 120.3381970  19.7411230  21.1865770 120.8460190  20.2392200  21.8270790
 120.8695210  18.9646430  21.0105130 132.4392900  17.9116420  24.8895120
 131.7345070  18.2998130  24.3710230 132.7050820  18.6066710  25.4916050
 118.6218070  14.3809790  25.4529190 118.6236510  14.8982180  24.6475090
 117.7922380  13.9039970  25.4299120 125.0089160  24.4929100  16.9519090
 124.3906430  24.9578550  16.3881810 125.5212410  25.1856580  17.3688600
 119.8720920  24.0204970  23.6302690 119.5390300  24.6473890  24.2723760
 120.0487600  24.5466850  22.8504360 128.3854830  17.8350050  21.0979030
 127.6810400  18.1234940  21.6782140 128.7466990  18.6450160  20.7378590
 118.3033400  16.0919750  23.4599640 118.6450210  16.9361800  23.1653510
 117.3649210  16.2403490  23.5764980 119.0840020  25.9885770  25.4451870
 119.7014020  26.6636850  25.1636320 118.2233140  26.3973750  25.3539370
 114.3772360  25.1785630  14.3258720 114.0000340  25.6672730  13.5943620
 114.6345430  25.8510910  14.9565250 130.0017610  27.4525180  23.3606510
 129.3181130  28.1224290  23.3523180 130.5411900  27.6505830  22.5951370
 131.4541750  17.2804840  21.4888240 130.5066660  17.3143820  21.6203670
 131.7791740  18.0943790  21.8737600 121.9861290  13.5802020  19.7844230
 122.2936270  13.0248910  19.0679730 121.0561990  13.7146480  19.6017220
 127.5376350  29.2969310  22.0751690 127.5503510  28.8931600  21.2073950
 126.9851570  30.0716600  21.9713120 128.8321770  26.0185530  17.1641860
 128.7218100  25.0759860  17.2891280 128.8290020  26.3801170  18.0504620
 126.9361790  24.1999150  23.4034300 127.3530580  23.9859260  22.5687760
 127.6601610  24.4571940  23.9742920 124.3742050  21.6450850  16.5204350
 123.4471330  21.5788230  16.7492820 124.5266870  22.5830980  16.4059590
 124.3611130  17.9167850  13.5171510 123.4214800  18.0781810  13.6023970
 124.6794390  18.6353530  12.9707500 130.8823890  22.5986370  23.4950540
 130.0542520  22.6679460  23.0200670 131.4774370  23.1840680  23.0266370
 128.4039340  23.2071150  17.0239600 127.7851760  22.8690700  16.3765900
 128.3863790  22.5630910  17.7318790 127.8465900  19.3855690  24.4405410
 127.4337080  20.2109400  24.6945400 127.1141850  18.8000730  24.2481770
 119.9798690  22.1715590  19.3024080 119.5755690  21.4592840  18.8069980
 120.0661810  21.8268830  20.1912120 120.4480390  25.8583150  21.4663290
 120.1508680  25.2528620  20.7871070 121.3980210  25.8960460  21.3552650
 118.6927310  18.9458800  23.0823120 119.2441900  19.0554140  22.3076370
 119.2070820  19.3196400  23.7978350 128.5366000  29.4315020  25.1286390
 128.0596560  30.2387210  24.9359000 127.8527790  28.7793350  25.2812600
 119.5398820  25.5964840  28.1171090 118.6427350  25.8204810  28.3644490
 119.5651690  25.7199780  27.1682490 126.5804040  22.4457960  14.0312350
 127.0197320  21.6080390  13.8850170 127.2932460  23.0787360  14.1176490
 118.3670040  22.4678160  26.6928460 118.2277810  23.3400960  27.0615860
 117.4851400  22.1250970  26.5476400 124.6899420  27.3854030  17.9993590
 125.1295330  28.1278360  17.5848980 124.6286310  27.6280600  18.9232550
 120.1650390  28.4099860  28.9013610 120.1365820  28.8142810  28.0342040
 120.0015360  27.4810220  28.7385210 130.1621180  13.7000770  12.3453390
 129.8493840  13.7927600  13.2452460 130.9233650  14.2781800  12.2950820
 116.6803320  21.0660570  16.8030730 116.5600920  21.7922660  16.1912000
 116.3704210  20.2963480  16.3258640 132.1165210  29.1926960  30.1977780
 132.5924930  29.6709850  30.8766860 132.7372370  29.1244450  29.4723280
 114.3188690  24.2375710  22.6099370 114.3969110  24.3724480  21.6655090
 114.9330370  23.5291600  22.8027490 115.5636320  25.9375900  19.0205550
 115.1564400  26.0790490  18.1659150 116.4549330  25.6536060  18.8176760
 131.5198460  26.3839810  27.3577790 131.6461520  26.1451690  26.4394970
 131.5619840  25.5524350  27.8299870 125.3815200  30.0867810  25.9272600
 125.8959870  29.9975820  26.7295030 124.5384280  30.4327510  26.2200510
 127.3569600  30.3723150  15.3556600 127.1970740  30.0826090  16.2538430
 127.1916310  29.5963280  14.8201830 119.8357980  30.1521680  17.1328220
 119.6600460  29.2357220  16.9196020 118.9813720  30.5108970  17.3726020
 127.0595730  27.8810710  13.9154600 126.3660890  27.8788000  13.2556880
 127.8018590  27.4570030  13.4848770 126.6245660  29.5073420  17.9903090
 127.0802610  28.7262800  18.3041710 126.9638180  30.2180240  18.5344270
 131.3722470  18.4372270  28.3227530 130.7566740  18.9451940  27.7942990
 131.0518890  17.5370600  28.2653470 114.3748210  25.2789880  25.1493830
 114.5379250  24.8095240  24.3313200 114.8400660  24.7713440  25.8142670
 119.1466980  14.4095640  20.1854400 118.7035130  15.1905180  19.8538920
 119.7051970  14.7325530  20.8925340 123.4336790  17.2764160  25.7889720
 122.9716160  17.4847180  26.6009660 123.0314900  16.4623510  25.4860390
 128.4341300  18.4973110  26.9186380 127.5834890  18.1978860  27.2395450
 128.2743090  18.7415120  26.0070200 125.5291010  19.9974860  29.0185170
 125.8544420  19.1638610  28.6787400 126.3171340  20.5203380  29.1663500
 122.2625800  14.0306340  15.0660230 121.6379980  14.0266210  15.7913540
 122.1755920  13.1637300  14.6696200 121.1842880  14.9542970  22.0444000
 121.4815210  15.8605800  21.9636020 121.7328440  14.4661750  21.4303570
 118.9381200  19.5329210  17.9135650 118.7122120  19.3166380  18.8182270
 118.1573730  19.9657670  17.5681620 126.1678960  19.5392580  16.5126300
 125.5687850  20.2628380  16.3289920 126.7158570  19.4769360  15.7302750
 121.3780410  20.4314790  28.5795920 121.2824010  19.4909520  28.4296320
 122.2212390  20.6529860  28.1843990 124.7743830  18.1756120  18.5429580
 125.1673400  18.4928320  17.7298270 125.1360680  17.2968000  18.6574100
 116.5090950  16.8428460  26.7329700 116.1154340  17.6903670  26.9402480
 115.8209350  16.2054830  26.9238340 123.0836000  16.9263430  29.8026440
 122.3934320  16.7335630  30.4372530 123.8268300  17.2098070  30.3350740
 113.8108000  14.7656920  20.7659780 113.5221050  15.3359780  21.4784760
 114.5553760  14.2861370  21.1291010 113.9978230  18.7077040  11.9762500
 113.9152900  19.6507800  12.1177490 113.6461290  18.5651950  11.0974850
 125.3598970  20.7661870  22.6380360 124.6280090  21.2748680  22.9870460
 124.9623310  19.9491850  22.3369140 121.7976360  17.4416070  21.0432850
 121.8012420  17.0006020  20.1937390 122.6927480  17.7633400  21.1504670
 117.6478740  17.3242560  20.0027060 117.3078790  17.8017790  20.7594110
 116.8856060  16.8707680  19.6428160 121.8596510  18.4428150  14.0339610
 121.9809330  18.4014630  14.9825430 121.4745020  19.3052300  13.8786340
 125.8224880  16.2195550  22.0503300 125.8397620  16.6704200  22.8945150
 125.5740460  15.3201190  22.2636740 120.8718010  20.7529290  13.4322910
 120.3034910  20.3047540  12.8058820 121.5807010  21.1122070  12.8988060
 129.2495630  13.6327730  27.8889680 129.5741400  12.9017390  28.4147660
 129.2852140  13.3141370  26.9870670 115.9487190  24.6541310  27.3089640
 115.5641980  24.0134980  27.9072600 116.2599380  25.3577430  27.8784370
 122.0984330  21.5017850  22.7898260 122.4654460  21.0276420  23.5359600
 121.9089390  22.3759420  23.1306600 114.9624820  16.2461540  18.9191730
 114.6771740  15.8817210  19.7570350 114.9003680  15.5142000  18.3054870
 119.8883700  20.5426490  25.1082470 119.5840770  21.4218470  25.3332830
 120.8430160  20.6026280  25.1439910 118.4165490  24.7487480  15.7049320
 117.6427750  24.2085100  15.5448040 119.1460120  24.2294090  15.3667080
 129.1753470  23.7452840  21.4975710 129.8952590  24.2408130  21.1071820
 128.9735290  23.0670730  20.8529580 124.6363410  15.1390800  15.6405100
 123.8228020  14.6403970  15.5650410 124.4425360  15.9789050  15.2241450
 124.5572270  23.8161900  27.3844710 124.4909580  22.8957570  27.1302300
 123.9277410  23.9137340  28.0989350 127.3511800  19.5110450  13.9367260
 128.2391420  19.8227680  13.7618600 127.3216890  18.6382700  13.5447840
 118.4602890  24.4167860  19.3428130 118.9781560  23.6136120  19.2885020
 118.0086910  24.3547000  20.1844960 123.3472390  25.6834140  14.6155430
 123.6888090  26.4276370  14.1198750 122.5185100  25.9965260  14.9780260
 115.9447430  21.3829230  26.2553830 115.5862370  22.0483080  26.8427170
 115.6501990  20.5512780  26.6266450 119.1460550  21.8413470  29.1393380
 118.8460690  21.9870650  28.2421200 119.9171790  21.2818760  29.0466770
 124.4889000  26.6382470  27.1348510 124.5033540  25.7063430  26.9167420
 123.7814100  26.7242230  27.7738280 129.6226070  20.8222290  13.4047120
 129.5389790  21.2536510  12.5543560 130.3420260  21.2820640  13.8373940
 130.7000210  23.2789810  26.4817090 129.9748400  23.8718590  26.2846480
 131.2275670  23.2713350  25.6830460 130.6513320  27.6764550  16.1329250
 130.0089480  27.0220170  16.4072970 130.2643980  28.0819640  15.3569920
 126.2299800  25.0049980  19.9800940 126.5823620  24.4078110  19.3202310
 125.3462130  24.6794210  20.1509190 122.3163080  25.7647670  17.3871350
 123.0034210  26.3116880  17.7678940 121.5295500  26.3088400  17.4220960
 114.4555480  21.3820490  12.8788430 115.3250330  21.6645290  13.1624350
 113.9645800  22.1956360  12.7637240 121.6190290  22.7693700  16.9996710
 122.0753070  23.5798950  17.2256900 121.2678500  22.4516840  17.8315200
 123.9222900  28.2800040  24.2289010 124.5665120  28.4859420  24.9062430
 124.2852340  27.5188440  23.7759860 117.5202070  13.1131350  17.4719230
 117.3916700  13.1049250  18.4204150 116.6964090  13.4514440  17.1210240
 125.1954980  26.2832390  22.9466460 125.8377210  25.5825550  23.0598630
 125.7204330  27.0630830  22.7663350 129.0410700  26.5681010  12.6705600
 128.8148280  25.8511450  13.2630240 128.6506900  26.3193450  11.8327350
 126.9692600  27.0827290  26.1502520 127.3048840  27.6693980  26.8280440
 126.0492940  26.9520000  26.3800310 114.8226730  30.5947870  13.4450060
 115.1824370  31.1937210  12.7907330 114.6819070  31.1407760  14.2185090
 114.5196000  14.8722470  26.9325930 113.8054520  15.0719390  27.5378540
 114.9391040  14.0962040  27.3040730 128.6226950  24.4852950  14.3319760
 128.3348650  24.9465640  15.1197640 129.4179120  24.0250720  14.6003980
 114.8068590  28.8602730  27.9192460 114.9159710  27.9197470  27.7787850
 114.1549150  29.1257480  27.2706190 122.7981180  27.1318620  29.3190580
 122.4778050  26.4127860  29.8636270 122.1239540  27.8073690  29.3926640
 120.8395350  27.9779070  14.2623730 120.8305450  28.7108760  13.6468240
 119.9193710  27.7310650  14.3550690 116.4401990  23.1993960  15.0070490
 115.8329940  23.9392860  15.0165790 116.9151340  23.2893320  14.1808690
 126.0134780  17.3644780  24.6827380 126.3815600  16.5439990  25.0106950
 125.1532980  17.4246670  25.0983030 129.3796810  16.3201720  15.4914940
 128.7509970  16.4247390  14.7773170 128.8848730  16.5398500  16.2808820
 123.8254950  28.0407310  12.9248920 123.9266930  27.8371300  11.9950900
 122.9256690  27.7865590  13.1296700 121.3480840  18.5987670  16.9072820
 120.6396990  19.0674010  17.3486430 121.6325320  17.9409680  17.5418010
 122.9736770  20.0184370  24.9065350 123.4722020  20.4930190  25.5717200
 123.1159720  19.0947890  25.1135380 125.3796270  15.3238330  18.3468610
 125.2564050  15.3424460  17.3978120 126.3280830  15.3717270  18.4667010
 122.4673060  30.5593630  17.6196590 122.7214560  30.5215020  16.6975960
 121.5185540  30.4326960  17.6124840 119.5515860  16.9072750  14.2823530
 120.4006390  17.3442900  14.2163720 119.1847130  17.2193010  15.1095590
 130.1803630  16.2352330  25.7493740 129.6777230  16.9757730  26.0887550
 130.9960290  16.6236330  25.4330530 128.4725640  21.4785510  19.1955100
 127.5315780  21.4935740  19.3702790 128.7869710  20.6921470  19.6415400
 118.4507280  23.1605110  12.7559060 119.2170550  23.0486470  13.3184490
 118.5281970  22.4643080  12.1035830 117.1454040  20.5930180  13.4391950
 117.2257630  19.6457690  13.5509350 118.0373790  20.9237060  13.5452610
 130.4751220  28.6494360  20.8709360 130.5998640  29.4725530  21.3433170
 131.3416780  28.4385090  20.5233510 117.9468750  30.7425570  20.5426490
 118.6831230  30.1941030  20.8135060 118.3309670  31.6081580  20.4032480
 114.8314230  26.8099140  16.4168000 113.9054010  27.0520280  16.4073410
 115.2970660  27.6373400  16.2952750 116.9527030  29.9271640  29.7312070
 117.7539760  30.2483690  30.1447470 116.4378850  29.5667220  30.4531980
 121.0571060  29.9155880  12.3652060 121.8499670  30.2044710  11.9133850
 120.5375410  29.4848050  11.6864540 125.7891660  26.0351510  29.6787480
 125.1829820  26.0583110  28.9383230 125.4845770  25.3034550  30.2154730
 127.2192030  29.7631800  28.2896890 128.1713780  29.6789820  28.2397130
 127.0720250  30.4273510  28.9630680 130.1101230  29.1426010  13.7888800
 129.8242740  28.7291150  12.9742980 129.9120780  30.0713720  13.6689320
 114.6724840  22.4145100  28.6748120 115.1763860  21.8352380  29.2464350
 113.9332260  22.6985330  29.2124490 121.5748460  25.1359290  12.2294410
 121.4699100  24.5211640  12.9555790 121.4072680  24.6125180  11.4457420
 121.7262780  23.8216090  28.2083640 120.9608450  24.3901090  28.1238310
 121.9078740  23.5292300  27.3151870 124.8151190  24.1979320  12.8336400
 124.2661290  24.6448620  13.4779140 125.4370450  23.6928570  13.3574070
 128.8686130  25.5521420  28.7658660 129.6095600  25.8897180  28.2626120
 128.1058810  25.7213480  28.2128430 116.7047920  20.5574690  29.5698190
 116.7453260  20.2588560  30.4783420 117.5593420  20.9582300  29.4105710
 120.4826310  23.1570240  14.7301700 120.9042730  22.9910110  15.5733090
 120.6077150  22.3470470  14.2356840 118.6453730  19.1366790  27.5372680
 118.1150190  18.6457740  26.9096020 119.3141800  19.5650990  27.0030610
 122.9953950  22.1807850  11.9778800 123.5159610  21.4656870  11.6119950
 123.6422350  22.8193720  12.2779310 127.5431790  23.6036250  27.3013870
 127.9572810  23.7581330  28.1504290 126.6082790  23.7291470  27.4639650
 128.0153960  20.9432410  29.3053020 128.5974730  20.1884730  29.2173500
 128.1915730  21.4739850  28.5284500 119.1326030  16.1029160  27.6169970
 119.0382900  15.4849910  26.8920840 118.5523420  16.8295450  27.3899880
 121.8987470  14.6602400  24.6497360 121.4504770  14.6826660  23.8042910
 121.2652670  14.2621420  25.2467660 122.3047020  23.5556730  25.2709800
 122.7235130  24.3989460  25.0986040 121.3855650  23.6928770  25.0416580
 124.6410920  21.2872910  26.6547640 124.7607130  20.6914050  27.3942480
 125.5004920  21.3242600  26.2348940 126.9798820  21.8410100  25.2310150
 126.4534040  22.3652720  24.6275290 127.3230160  22.4737490  25.8619880
 119.3785210  19.2303470  11.6759860 119.1774270  18.3670830  12.0373200
 119.2077260  19.1436830  10.7381460 120.1554440  29.8609740  26.3867530
 119.6175530  30.5855800  26.0676230 120.4088400  29.3840080  25.5964870
 121.4079690  17.8294260  27.9123460 121.9979380  17.5210110  28.6001280
 120.5899930  17.3574010  28.0683360 126.2273120  17.4460070  28.1456480
 125.5388640  16.7841610  28.0806470 126.9479140  16.9998340  28.5904940
 126.8573520  14.0411700  14.2046740 127.1375810  13.1979600  14.5606160
 126.0839250  14.2734810  14.7185490 118.1768010  16.3304090  11.6637740
 118.4793910  16.3371520  10.7556890 118.9162600  15.9801950  12.1605400
 123.0116650  31.0960950  26.6454180 122.9375350  31.9996090  26.9526550
 122.1095490  30.7772850  26.6176250 121.3952940  15.2738710  12.6493940
 121.0474940  14.5962700  12.0696390 121.5965710  14.8128220  13.4637330
 123.5601980  30.2619460  14.2680540 124.4552770  30.6004430  14.2899300
 123.5919610  29.5398870  13.6404820 117.1998140  25.6346510  12.4967540
 117.6373010  26.1776180  13.1525120 117.6845870  24.8093460  12.5063880
 114.4143940  28.4235540  19.9487800 114.7446950  27.5556600  19.7166440
 114.8434940  28.6294060  20.7792760 119.0105860  26.7544550  17.6089770
 118.7101400  26.6309520  18.5093680 118.9043350  25.8953140  17.2005500
 114.9034150  29.2906130  22.6869430 114.4665140  29.4706930  23.5193580
 115.4711830  30.0480750  22.5451150 130.5396330  28.7923130  26.9746740
 129.9398320  28.8515690  26.2310660 130.6690230  27.8528110  27.1043590
 131.7797780  26.5340950  12.3116450 130.9490740  26.6017600  12.7823680
 131.9569610  27.4245070  12.0083310 131.2354240  23.2788430  14.8150650
 131.9973150  23.8485080  14.9210340 131.2508610  22.7115630  15.5858960
 114.7358580  21.8026360  19.0458310 114.0807420  21.5338000  18.4018010
 115.5736530  21.6930840  18.5960290 132.2414210  24.1338530  19.6592580
 132.6123040  23.3505850  19.2528550 132.8816140  24.8227630  19.4809880
 129.2247970  25.5175110  25.0722900 128.4107810  25.9472270  25.3348690
 129.6322170  26.1293520  24.4591950 131.2873410  23.5722800  11.9723170
 131.5622250  24.4801680  11.8442390 131.0984150  23.5085330  12.9085160
 127.6849020  16.5967650  13.2676800 128.1033900  16.4098630  12.4273460
 127.3785080  15.7446700  13.5779730 131.1838750  21.5091790  16.9652600
 130.8082350  20.7419720  16.5333890 130.4541870  21.8914490  17.4527530
 115.7734510  22.1878930  23.5861650 116.1407550  22.1006330  24.4657670
 115.2045330  21.4245480  23.4868510 130.5738370  20.6563310  26.5992120
 130.3424460  20.4276060  25.6990070 130.8342920  21.5762860  26.5537010
 115.3250510  19.0988020  27.4920070 114.4306560  19.0654780  27.8313780
 115.8648060  19.2974810  28.2571320 129.0126440  15.8819740  29.3771820
 129.8896620  15.8903140  29.7605820 129.0247280  15.1450580  28.7664170
 113.9496660  19.0125290  14.9883640 113.0460740  19.2755490  14.8135300
 114.4337280  19.2836460  14.2083600 130.4589710  19.7349280  20.2659840
 130.9827190  19.2411930  19.6350010 131.0449130  19.8699640  21.0107410
 130.6379430  19.8189150  23.7879390 129.6882140  19.7852690  23.9024380
 130.8192440  20.7289260  23.5529160 116.4923870  18.0690830  12.8978020
 117.2015570  17.6474050  12.4125300 115.7763810  18.1366060  12.2661370
 116.1398030  14.1230160  11.9380670 116.8626160  14.6639100  12.2561890
 116.4122550  13.8493580  11.0622210 129.9489680  18.9922630  16.2052250
 130.4448800  18.7593500  16.9901130 129.7505750  18.1534470  15.7889890
 115.8290220  13.3736350  21.8403290 116.4766410  12.8233730  21.3998450
 116.2492060  13.6279500  22.6619100 131.3776840  17.6283580  18.7389930
 131.2676120  17.4739620  19.6772200 132.1384430  17.1004520  18.4965340
 129.7242560  13.5677710  25.1972930 130.3614780  14.1811850  25.5632120
 129.8717450  13.6038370  24.2522160 132.2667110  15.4591500  11.9796070
 133.1916420  15.3272680  11.7714360 132.2442900  15.5384320  12.9332520
 132.3405600  16.2302160  14.6052780 131.5457100  16.1647280  15.1345690
 132.5448880  17.1652800  14.5938130 129.2824020  30.2693710  18.5991170
 129.8783090  29.9478280  17.9225590 129.5402170  29.7965530  19.3904440
 115.5822220  13.5292020  24.5828610 115.2337040  13.9855840  25.3486790
 115.2509920  12.6349150  24.6651040 117.1886590  26.7011620  28.7481800
 117.1456220  26.3304530  29.6296260 117.3197600  27.6389190  28.8883620
 120.8892620  28.2571210  24.3491520 120.6483980  28.5245770  23.4622040
 121.8295260  28.4276940  24.4042380 123.0947040  14.7203900  28.1048030
 123.0335930  15.3125730  28.8543440 124.0347420  14.6129860  27.9598290
 125.7321600  14.3773960  27.7440320 126.3462010  14.6953250  27.0821400
 126.2771160  13.8922550  28.3636180 132.1496780  30.2765590  25.1502160
 131.6555060  30.6734460  24.4329290 131.5410070  29.6514800  25.5439440
 116.2542860  13.0568220  27.8579380 116.8025850  12.8756270  27.0945490
 116.3198170  12.2662330  28.3935690 117.0274620  29.6473870  25.8679580
 116.4334940  29.5158570  26.6069620 117.0198460  28.8112010  25.4021680
 126.4729640  12.9406100  24.0709610 125.5989480  13.2741210  23.8682540
 126.3640390  12.4679280  24.8961480 127.3801620  15.1476970  25.4551330
 127.0514980  14.3328730  25.0753060 128.3283920  15.1046780  25.3317020
 129.8336230  30.9189010  22.4288900 129.3739200  31.6704820  22.0546920
 129.2048690  30.1995480  22.3703700 116.6586850  27.0132250  24.8187620
 115.9320910  26.3937540  24.7513570 116.7196000  27.4072860  23.9485700
 120.2631950  29.2277250  21.6037030 120.7796970  28.6164610  21.0785290
 120.9129330  29.7306030  22.0948040 123.0027450  30.1185740  22.4306010
 123.2905260  29.8640040  21.5539020 123.5150670  29.5663100  23.0211580
 124.2204460  13.8575940  23.0102520 123.4376250  14.3321440  23.2899280
 123.9267390  12.9530770  22.9015700 128.7725530  14.5599040  21.0551610
 129.2133620  14.5044140  20.2073210 128.5033120  15.4757050  21.1261790
 130.6364100  14.1914280  19.0660430 130.5752500  13.2475500  18.9191450
 131.4156130  14.2994370  19.6113890 114.9416850  30.3306640  18.0284380
 114.7738890  29.6977320  18.7266270 114.0751360  30.5366040  17.6778570
 115.5644870  14.1623420  15.5316240 116.3224230  14.2752300  14.9580270
 115.1022040  14.9992620  15.4859670 122.1058680  16.2762690  18.5218550
 121.2933190  15.9019580  18.1814430 122.6100320  15.5207770  18.8239740
 126.6083660  12.9405140  19.7601620 127.2113030  13.5125350  20.2350140
 125.8676650  13.5044580  19.5375520 129.7518260  13.3426700  15.0341900
 129.9468890  14.2410150  15.3009330 128.9648130  13.1113780  15.5274850
 116.5479550  29.0239870  15.4734520 116.0227170  29.4047900  14.7696480
 116.4724130  29.6490640  16.1944230 117.9370020  14.6887470  14.0718210
 118.4662780  13.9017270  13.9426160 118.5698340  15.3678660  14.3053740
 120.1307860  14.4262610  17.1263600 119.5010600  13.7249920  17.2933730
 119.5913000  15.1866740  16.9096760 123.0699810  31.0401840  29.7974210
 123.9967120  30.8046110  29.8410170 123.0550240  31.8673840  29.3160240
 131.3044870  30.5827410  16.7948460 131.4797060  29.8965150  16.1509380
 130.6066440  31.1074460  16.4025130 120.2563420  13.7046590  29.5616090
 119.9747690  14.2080190  28.7976910 120.6383120  12.9068340  29.1958220
 119.1472520  30.9722250  14.3483770 119.8791340  30.6881530  13.8007660
 119.4066190  30.7335530  15.2383150 118.3087310  27.0886980  14.3530100
 117.6796190  27.5572080  14.9015930 118.4235140  26.2436200  14.7876290
 126.8578880  13.1200170  30.1396560 126.7444330  13.4394780  31.0348080
 127.6748620  13.5212680  29.8433840 129.6377370  30.2671700  29.6215250
 130.4302690  29.7720930  29.4141210 129.9310520  30.9461840  30.2290860
 123.8955070  22.9171660   2.3840570 123.1197170  22.4372100   2.6739140
 124.5468000  22.2377310   2.2096730 117.9120900  23.2291470   3.2616330
 117.0805780  22.9740180   3.6612840 118.5201880  23.3002240   3.9974250
 117.8922160  27.2631560   3.4574350 118.1950200  26.3729300   3.2784570
 118.6365750  27.8201780   3.2296600 114.2845860  20.7899010   2.9298420
 114.8561970  20.0221210   2.9302060 114.2847400  21.0887770   2.0205030
 123.3364060  25.5928850   2.3910730 123.2672340  24.6518790   2.2299860
 124.0983920  25.6830260   2.9633300 115.5270730  16.1983370   4.7167350
 115.3473570  15.3009120   4.9970110 115.1250810  16.7455240   5.3914300
 124.3669230  18.3999230   2.6179660 124.7434050  17.5271110   2.5053330
 124.2688740  18.7357930   1.7270100 116.1457400  18.6943870   3.3249690
 116.8267510  18.9582240   3.9437090 115.8305450  17.8544740   3.6587700
 120.3381970  19.7411230   2.4122280 120.8460190  20.2392200   3.0527300
 120.8695210  18.9646430   2.2361640 132.4392900  17.9116420   6.1151630
 131.7345070  18.2998130   5.5966740 132.7050820  18.6066710   6.7172560
 118.6218070  14.3809790   6.6785700 118.6236510  14.8982180   5.8731600
 117.7922380  13.9039970   6.6555630 119.8720920  24.0204970   4.8559200
 119.5390300  24.6473890   5.4980270 120.0487600  24.5466850   4.0760870
 128.3854830  17.8350050   2.3235540 127.6810400  18.1234940   2.9038650
 128.7466990  18.6450160   1.9635100 118.3033400  16.0919750   4.6856150
 118.6450210  16.9361800   4.3910020 117.3649210  16.2403490   4.8021490
 119.0840020  25.9885770   6.6708380 119.7014020  26.6636850   6.3892830
 118.2233140  26.3973750   6.5795880 130.0017610  27.4525180   4.5863020
 129.3181130  28.1224290   4.5779690 130.5411900  27.6505830   3.8207880
 131.4541750  17.2804840   2.7144750 130.5066660  17.3143820   2.8460180
 131.7791740  18.0943790   3.0994110 127.5376350  29.2969310   3.3008200
 127.5503510  28.8931600   2.4330460 126.9851570  30.0716600   3.1969630
 126.9361790  24.1999150   4.6290810 127.3530580  23.9859260   3.7944270
 127.6601610  24.4571940   5.1999430 130.8823890  22.5986370   4.7207050
 130.0542520  22.6679460   4.2457180 131.4774370  23.1840680   4.2522880
 127.8465900  19.3855690   5.6661920 127.4337080  20.2109400   5.9201910
 127.1141850  18.8000730   5.4738280 120.4480390  25.8583150   2.6919800
 120.1508680  25.2528620   2.0127580 121.3980210  25.8960460   2.5809160
 118.6927310  18.9458800   4.3079630 119.2441900  19.0554140   3.5332880
 119.2070820  19.3196400   5.0234860 128.5366000  29.4315020   6.3542900
 128.0596560  30.2387210   6.1615510 127.8527790  28.7793350   6.5069110
 119.5398820  25.5964840   9.3427600 118.6427350  25.8204810   9.5901000
 119.5651690  25.7199780   8.3939000 118.3670040  22.4678160   7.9184970
 118.2277810  23.3400960   8.2872370 117.4851400  22.1250970   7.7732910
 120.1650390  28.4099860  10.1270120 120.1365820  28.8142810   9.2598550
 120.0015360  27.4810220   9.9641720 132.1165210  29.1926960  11.4234290
 132.5924930  29.6709850  12.1023370 132.7372370  29.1244450  10.6979790
 114.3188690  24.2375710   3.8355880 114.3969110  24.3724480   2.8911600
 114.9330370  23.5291600   4.0284000 131.5198460  26.3839810   8.5834300
 131.6461520  26.1451690   7.6651480 131.5619840  25.5524350   9.0556380
 125.3815200  30.0867810   7.1529110 125.8959870  29.9975820   7.9551540
 124.5384280  30.4327510   7.4457020 131.3722470  18.4372270   9.5484040
 130.7566740  18.9451940   9.0199500 131.0518890  17.5370600   9.4909980
 114.3748210  25.2789880   6.3750340 114.5379250  24.8095240   5.5569710
 114.8400660  24.7713440   7.0399180 123.4336790  17.2764160   7.0146230
 122.9716160  17.4847180   7.8266170 123.0314900  16.4623510   6.7116900
 128.4341300  18.4973110   8.1442890 127.5834890  18.1978860   8.4651960
 128.2743090  18.7415120   7.2326710 125.5291010  19.9974860  10.2441680
 125.8544420  19.1638610   9.9043910 126.3171340  20.5203380  10.3920010
 121.1842880  14.9542970   3.2700510 121.4815210  15.8605800   3.1892530
 121.7328440  14.4661750   2.6560080 121.3780410  20.4314790   9.8052430
 121.2824010  19.4909520   9.6552830 122.2212390  20.6529860   9.4100500
 116.5090950  16.8428460   7.9586210 116.1154340  17.6903670   8.1658990
 115.8209350  16.2054830   8.1494850 123.0836000  16.9263430  11.0282950
 122.3934320  16.7335630  11.6629040 123.8268300  17.2098070  11.5607250
 113.8108000  14.7656920   1.9916290 113.5221050  15.3359780   2.7041270
 114.5553760  14.2861370   2.3547520 125.3598970  20.7661870   3.8636870
 124.6280090  21.2748680   4.2126970 124.9623310  19.9491850   3.5625650
 121.7976360  17.4416070   2.2689360 121.8012420  17.0006020   1.4193900
 122.6927480  17.7633400   2.3761180 125.8224880  16.2195550   3.2759810
 125.8397620  16.6704200   4.1201660 125.5740460  15.3201190   3.4893250
 129.2495630  13.6327730   9.1146190 129.5741400  12.9017390   9.6404170
 129.2852140  13.3141370   8.2127180 115.9487190  24.6541310   8.5346150
 115.5641980  24.0134980   9.1329110 116.2599380  25.3577430   9.1040880
 122.0984330  21.5017850   4.0154770 122.4654460  21.0276420   4.7616110
 121.9089390  22.3759420   4.3563110 119.8883700  20.5426490   6.3338980
 119.5840770  21.4218470   6.5589340 120.8430160  20.6026280   6.3696420
 129.1753470  23.7452840   2.7232220 129.8952590  24.2408130   2.3328330
 128.9735290  23.0670730   2.0786090 124.5572270  23.8161900   8.6101220
 124.4909580  22.8957570   8.3558810 123.9277410  23.9137340   9.3245860
 115.9447430  21.3829230   7.4810340 115.5862370  22.0483080   8.0683680
 115.6501990  20.5512780   7.8522960 119.1460550  21.8413470  10.3649890
 118.8460690  21.9870650   9.4677710 119.9171790  21.2818760  10.2723280
 124.4889000  26.6382470   8.3605020 124.5033540  25.7063430   8.1423930
 123.7814100  26.7242230   8.9994790 130.7000210  23.2789810   7.7073600
 129.9748400  23.8718590   7.5102990 131.2275670  23.2713350   6.9086970
 123.9222900  28.2800040   5.4545520 124.5665120  28.4859420   6.1318940
 124.2852340  27.5188440   5.0016370 125.1954980  26.2832390   4.1722970
 125.8377210  25.5825550   4.2855140 125.7204330  27.0630830   3.9919860
 126.9692600  27.0827290   7.3759030 127.3048840  27.6693980   8.0536950
 126.0492940  26.9520000   7.6056820 114.5196000  14.8722470   8.1582440
 113.8054520  15.0719390   8.7635050 114.9391040  14.0962040   8.5297240
 114.8068590  28.8602730   9.1448970 114.9159710  27.9197470   9.0044360
 114.1549150  29.1257480   8.4962700 122.7981180  27.1318620  10.5447090
 122.4778050  26.4127860  11.0892780 122.1239540  27.8073690  10.6183150
 126.0134780  17.3644780   5.9083890 126.3815600  16.5439990   6.2363460
 125.1532980  17.4246670   6.3239540 122.9736770  20.0184370   6.1321860
 123.4722020  20.4930190   6.7973710 123.1159720  19.0947890   6.3391890
 130.1803630  16.2352330   6.9750250 129.6777230  16.9757730   7.3144060
 130.9960290  16.6236330   6.6587040 130.4751220  28.6494360   2.0965870
 130.5998640  29.4725530   2.5689680 131.3416780  28.4385090   1.7490020
 117.9468750  30.7425570   1.7683000 118.6831230  30.1941030   2.0391570
 118.3309670  31.6081580   1.6288990 116.9527030  29.9271640  10.9568580
 117.7539760  30.2483690  11.3703980 116.4378850  29.5667220  11.6788490
 125.7891660  26.0351510  10.9043990 125.1829820  26.0583110  10.1639740
 125.4845770  25.3034550  11.4411240 127.2192030  29.7631800   9.5153400
 128.1713780  29.6789820   9.4653640 127.0720250  30.4273510  10.1887190
 114.6724840  22.4145100   9.9004630 115.1763860  21.8352380  10.4720860
 113.9332260  22.6985330  10.4381000 121.7262780  23.8216090   9.4340150
 120.9608450  24.3901090   9.3494820 121.9078740  23.5292300   8.5408380
 128.8686130  25.5521420   9.9915170 129.6095600  25.8897180   9.4882630
 128.1058810  25.7213480   9.4384940 116.7047920  20.5574690  10.7954700
 116.7453260  20.2588560  11.7039930 117.5593420  20.9582300  10.6362220
 118.6453730  19.1366790   8.7629190 118.1150190  18.6457740   8.1352530
 119.3141800  19.5650990   8.2287120 127.5431790  23.6036250   8.5270380
 127.9572810  23.7581330   9.3760800 126.6082790  23.7291470   8.6896160
 128.0153960  20.9432410  10.5309530 128.5974730  20.1884730  10.4430010
 128.1915730  21.4739850   9.7541010 119.1326030  16.1029160   8.8426480
 119.0382900  15.4849910   8.1177350 118.5523420  16.8295450   8.6156390
 121.8987470  14.6602400   5.8753870 121.4504770  14.6826660   5.0299420
 121.2652670  14.2621420   6.4724170 122.3047020  23.5556730   6.4966310
 122.7235130  24.3989460   6.3242550 121.3855650  23.6928770   6.2673090
 124.6410920  21.2872910   7.8804150 124.7607130  20.6914050   8.6198990
 125.5004920  21.3242600   7.4605450 126.9798820  21.8410100   6.4566660
 126.4534040  22.3652720   5.8531800 127.3230160  22.4737490   7.0876390
 120.1554440  29.8609740   7.6124040 119.6175530  30.5855800   7.2932740
 120.4088400  29.3840080   6.8221380 121.4079690  17.8294260   9.1379970
 121.9979380  17.5210110   9.8257790 120.5899930  17.3574010   9.2939870
 126.2273120  17.4460070   9.3712990 125.5388640  16.7841610   9.3062980
 126.9479140  16.9998340   9.8161450 123.0116650  31.0960950   7.8710690
 122.9375350  31.9996090   8.1783060 122.1095490  30.7772850   7.8432760
 114.9034150  29.2906130   3.9125940 114.4665140  29.4706930   4.7450090
 115.4711830  30.0480750   3.7707660 130.5396330  28.7923130   8.2003250
 129.9398320  28.8515690   7.4567170 130.6690230  27.8528110   8.3300100
 129.2247970  25.5175110   6.2979410 128.4107810  25.9472270   6.5605200
 129.6322170  26.1293520   5.6848460 115.7734510  22.1878930   4.8118160
 116.1407550  22.1006330   5.6914180 115.2045330  21.4245480   4.7125020
 130.5738370  20.6563310   7.8248630 130.3424460  20.4276060   6.9246580
 130.8342920  21.5762860   7.7793520 115.3250510  19.0988020   8.7176580
 114.4306560  19.0654780   9.0570290 115.8648060  19.2974810   9.4827830
 129.0126440  15.8819740  10.6028330 129.8896620  15.8903140  10.9862330
 129.0247280  15.1450580   9.9920680 130.6379430  19.8189150   5.0135900
 129.6882140  19.7852690   5.1280890 130.8192440  20.7289260   4.7785670
 115.8290220  13.3736350   3.0659800 116.4766410  12.8233730   2.6254960
 116.2492060  13.6279500   3.8875610 129.7242560  13.5677710   6.4229440
 130.3614780  14.1811850   6.7888630 129.8717450  13.6038370   5.4778670
 115.5822220  13.5292020   5.8085120 115.2337040  13.9855840   6.5743300
 115.2509920  12.6349150   5.8907550 117.1886590  26.7011620   9.9738310
 117.1456220  26.3304530  10.8552770 117.3197600  27.6389190  10.1140130
 120.8892620  28.2571210   5.5748030 120.6483980  28.5245770   4.6878550
 121.8295260  28.4276940   5.6298890 123.0947040  14.7203900   9.3304540
 123.0335930  15.3125730  10.0799950 124.0347420  14.6129860   9.1854800
 125.7321600  14.3773960   8.9696830 126.3462010  14.6953250   8.3077910
 126.2771160  13.8922550   9.5892690 132.1496780  30.2765590   6.3758670
 131.6555060  30.6734460   5.6585800 131.5410070  29.6514800   6.7695950
 116.2542860  13.0568220   9.0835890 116.8025850  12.8756270   8.3202000
 116.3198170  12.2662330   9.6192200 117.0274620  29.6473870   7.0936090
 116.4334940  29.5158570   7.8326130 117.0198460  28.8112010   6.6278190
 126.4729640  12.9406100   5.2966120 125.5989480  13.2741210   5.0939050
 126.3640390  12.4679280   6.1217990 127.3801620  15.1476970   6.6807840
 127.0514980  14.3328730   6.3009570 128.3283920  15.1046780   6.5573530
 129.8336230  30.9189010   3.6545410 129.3739200  31.6704820   3.2803430
 129.2048690  30.1995480   3.5960210 116.6586850  27.0132250   6.0444130
 115.9320910  26.3937540   5.9770080 116.7196000  27.4072860   5.1742210
 120.2631950  29.2277250   2.8293540 120.7796970  28.6164610   2.3041800
 120.9129330  29.7306030   3.3204550 123.0027450  30.1185740   3.6562520
 123.2905260  29.8640040   2.7795530 123.5150670  29.5663100   4.2468090
 124.2204460  13.8575940   4.2359030 123.4376250  14.3321440   4.5155790
 123.9267390  12.9530770   4.1272210 128.7725530  14.5599040   2.2808120
 129.2133620  14.5044140   1.4329720 128.5033120  15.4757050   2.3518300
 123.0699810  31.0401840  11.0230720 123.9967120  30.8046110  11.0666680
 123.0550240  31.8673840  10.5416750 120.2563420  13.7046590  10.7872600
 119.9747690  14.2080190  10.0233420 120.6383120  12.9068340  10.4214730
 126.8578880  13.1200170  11.3653070 126.7444330  13.4394780  12.2604590
 127.6748620  13.5212680  11.0690350 129.6377370  30.2671700  10.8471760
 130.4302690  29.7720930  10.6397720 129.9310520  30.9461840  11.4547370
 125.7637030   2.3649150 150.6979220 125.6831080   1.4503760 150.4270930
 125.3501450   2.8616220 149.9918930 123.8955070   4.1428170 152.5788490
 123.1197170   3.6628610 152.8687060 124.5468000   3.4633820 152.4044650
 127.9162500   8.5488360 151.3587620 127.4544030   7.7775600 151.6874790
 128.7288050   8.5754430 151.8640070 124.1425810  10.8346370 150.9791610
 123.5237250  11.2903870 150.4086050 124.9977590  10.9897830 150.5781310
 123.3364060   6.8185360 152.5858650 123.2672340   5.8775300 152.4247780
 124.0983920   6.9086770 153.1581220 125.0089160   5.7185610 148.3723520
 124.3906430   6.1835060 147.8086240 125.5212410   6.4113090 148.7893030
 114.3772360   6.4042140 145.7463150 114.0000340   6.8929240 145.0148050
 114.6345430   7.0767420 146.3769680 128.8321770   7.2442040 148.5846290
 128.7218100   6.3016370 148.7095710 128.8290020   7.6057680 149.4709050
 124.3742050   2.8707360 147.9408780 123.4471330   2.8044740 148.1697250
 124.5266870   3.8087490 147.8264020 128.4039340   4.4327660 148.4444030
 127.7851760   4.0947210 147.7970330 128.3863790   3.7887420 149.1523220
 119.9798690   3.3972100 150.7228510 119.5755690   2.6849350 150.2274410
 120.0661810   3.0525340 151.6116550 120.4480390   7.0839660 152.8867720
 120.1508680   6.4785130 152.2075500 121.3980210   7.1216970 152.7757080
 126.5804040   3.6714470 145.4516780 127.0197320   2.8336900 145.3054600
 127.2932460   4.3043870 145.5380920 124.6899420   8.6110540 149.4198020
 125.1295330   9.3534870 149.0053410 124.6286310   8.8537110 150.3436980
 116.6803320   2.2917080 148.2235160 116.5600920   3.0179170 147.6116430
 116.3704210   1.5219990 147.7463070 115.5636320   7.1632410 150.4409980
 115.1564400   7.3047000 149.5863580 116.4549330   6.8792570 150.2381190
 127.3569600  11.5979660 146.7761030 127.1970740  11.3082600 147.6742860
 127.1916310  10.8219790 146.2406260 119.8357980  11.3778190 148.5532650
 119.6600460  10.4613730 148.3400450 118.9813720  11.7365480 148.7930450
 127.0595730   9.1067220 145.3359030 126.3660890   9.1044510 144.6761310
 127.8018590   8.6826540 144.9053200 126.6245660  10.7329930 149.4107520
 127.0802610   9.9519310 149.7246140 126.9638180  11.4436750 149.9548700
 120.8718010   1.9785800 144.8527340 120.3034910   1.5304050 144.2263250
 121.5807010   2.3378580 144.3192490 118.4165490   5.9743990 147.1253750
 117.6427750   5.4341610 146.9652470 119.1460120   5.4550600 146.7871510
 129.1753470   4.9709350 152.9180140 129.8952590   5.4664640 152.5276250
 128.9735290   4.2927240 152.2734010 118.4602890   5.6424370 150.7632560
 118.9781560   4.8392630 150.7089450 118.0086910   5.5803510 151.6049390
 123.3472390   6.9090650 146.0359860 123.6888090   7.6532880 145.5403180
 122.5185100   7.2221770 146.3984690 129.6226070   2.0478800 144.8251550
 129.5389790   2.4793020 143.9747990 130.3420260   2.5077150 145.2578370
 130.6513320   8.9021060 147.5533680 130.0089480   8.2476680 147.8277400
 130.2643980   9.3076150 146.7774350 126.2299800   6.2306490 151.4005370
 126.5823620   5.6334620 150.7406740 125.3462130   5.9050720 151.5713620
 122.3163080   6.9904180 148.8075780 123.0034210   7.5373390 149.1883370
 121.5295500   7.5344910 148.8425390 114.4555480   2.6077000 144.2992860
 115.3250330   2.8901800 144.5828780 113.9645800   3.4212870 144.1841670
 121.6190290   3.9950210 148.4201140 122.0753070   4.8055460 148.6461330
 121.2678500   3.6773350 149.2519630 129.0410700   7.7937520 144.0910030
 128.8148280   7.0767960 144.6834670 128.6506900   7.5449960 143.2531780
 114.8226730  11.8204380 144.8654490 115.1824370  12.4193720 144.2111760
 114.6819070  12.3664270 145.6389520 128.6226950   5.7109460 145.7524190
 128.3348650   6.1722150 146.5402070 129.4179120   5.2507230 146.0208410
 120.8395350   9.2035580 145.6828160 120.8305450   9.9365270 145.0672670
 119.9193710   8.9567160 145.7755120 116.4401990   4.4250470 146.4274920
 115.8329940   5.1649370 146.4370220 116.9151340   4.5149830 145.6013120
 123.8254950   9.2663820 144.3453350 123.9266930   9.0627810 143.4155330
 122.9256690   9.0122100 144.5501130 122.4673060  11.7850140 149.0401020
 122.7214560  11.7471530 148.1180390 121.5185540  11.6583470 149.0329270
 128.4725640   2.7042020 150.6159530 127.5315780   2.7192250 150.7907220
 128.7869710   1.9177980 151.0619830 118.4507280   4.3861620 144.1763490
 119.2170550   4.2742980 144.7388920 118.5281970   3.6899590 143.5240260
 130.4751220   9.8750870 152.2913790 130.5998640  10.6982040 152.7637600
 131.3416780   9.6641600 151.9437940 117.9468750  11.9682080 151.9630920
 118.6831230  11.4197540 152.2339490 118.3309670  12.8338090 151.8236910
 114.8314230   8.0355650 147.8372430 113.9054010   8.2776790 147.8277840
 115.2970660   8.8629910 147.7157180 121.0571060  11.1412390 143.7856490
 121.8499670  11.4301220 143.3338280 120.5375410  10.7104560 143.1068970
 130.1101230  10.3682520 145.2093230 129.8242740   9.9547660 144.3947410
 129.9120780  11.2970230 145.0893750 121.5748460   6.3615800 143.6498840
 121.4699100   5.7468150 144.3760220 121.4072680   5.8381690 142.8661850
 124.8151190   5.4235830 144.2540830 124.2661290   5.8705130 144.8983570
 125.4370450   4.9185080 144.7778500 120.4826310   4.3826750 146.1506130
 120.9042730   4.2166620 146.9937520 120.6077150   3.5726980 145.6561270
 122.9953950   3.4064360 143.3983230 123.5159610   2.6913380 143.0324380
 123.6422350   4.0450230 143.6983740 123.5601980  11.4875970 145.6884970
 124.4552770  11.8260940 145.7103730 123.5919610  10.7655380 145.0609250
 117.1998140   6.8603020 143.9171970 117.6373010   7.4032690 144.5729550
 117.6845870   6.0349970 143.9268310 114.4143940   9.6492050 151.3692230
 114.7446950   8.7813110 151.1370870 114.8434940   9.8550570 152.1997190
 119.0105860   7.9801060 149.0294200 118.7101400   7.8566030 149.9298110
 118.9043350   7.1209650 148.6209930 131.7797780   7.7597460 143.7320880
 130.9490740   7.8274110 144.2028110 131.9569610   8.6501580 143.4287740
 131.2354240   4.5044940 146.2355080 131.9973150   5.0741590 146.3414770
 131.2508610   3.9372140 147.0063390 114.7358580   3.0282870 150.4662740
 114.0807420   2.7594510 149.8222440 115.5736530   2.9187350 150.0164720
 132.2414210   5.3595040 151.0797010 132.6123040   4.5762360 150.6732980
 132.8816140   6.0484140 150.9014310 131.2873410   4.7979310 143.3927600
 131.5622250   5.7058190 143.2646820 131.0984150   4.7341840 144.3289590
 131.1838750   2.7348300 148.3857030 130.8082350   1.9676230 147.9538320
 130.4541870   3.1171000 148.8731960 129.2824020  11.4950220 150.0195600
 129.8783090  11.1734790 149.3430020 129.5402170  11.0222040 150.8108870
 114.9416850  11.5563150 149.4488810 114.7738890  10.9233830 150.1470700
 114.0751360  11.7622550 149.0983000 116.5479550  10.2496380 146.8938950
 116.0227170  10.6304410 146.1900910 116.4724130  10.8747150 147.6148660
 131.3044870  11.8083920 148.2152890 131.4797060  11.1221660 147.5713810
 130.6066440  12.3330970 147.8229560 119.1472520  12.1978760 145.7688200
 119.8791340  11.9138040 145.2212090 119.4066190  11.9592040 146.6587580
 118.3087310   8.3143490 145.7734530 117.6796190   8.7828590 146.3220360
 118.4235140   7.4692710 146.2080720 125.7637030   2.3649150 131.9235730
 125.6831080   1.4503760 131.6527440 125.3501450   2.8616220 131.2175440
 123.8955070   4.1428170 133.8045000 123.1197170   3.6628610 134.0943570
 124.5468000   3.4633820 133.6301160 117.9120900   4.4547980 134.6820760
 117.0805780   4.1996690 135.0817270 118.5201880   4.5258750 135.4178680
 127.9162500   8.5488360 132.5844130 127.4544030   7.7775600 132.9131300
 128.7288050   8.5754430 133.0896580 117.8922160   8.4888070 134.8778780
 118.1950200   7.5985810 134.6989000 118.6365750   9.0458290 134.6501030
 124.1425810  10.8346370 132.2048120 123.5237250  11.2903870 131.6342560
 124.9977590  10.9897830 131.8037820 123.3364060   6.8185360 133.8115160
 123.2672340   5.8775300 133.6504290 124.0983920   6.9086770 134.3837730
 125.0089160   5.7185610 129.5980030 124.3906430   6.1835060 129.0342750
 125.5212410   6.4113090 130.0149540 119.8720920   5.2461480 136.2763630
 119.5390300   5.8730400 136.9184700 120.0487600   5.7723360 135.4965300
 119.0840020   7.2142280 138.0912810 119.7014020   7.8893360 137.8097260
 118.2233140   7.6230260 138.0000310 114.3772360   6.4042140 126.9719660
 114.0000340   6.8929240 126.2404560 114.6345430   7.0767420 127.6026190
 130.0017610   8.6781690 136.0067450 129.3181130   9.3480800 135.9984120
 130.5411900   8.8762340 135.2412310 127.5376350  10.5225820 134.7212630
 127.5503510  10.1188110 133.8534890 126.9851570  11.2973110 134.6174060
 128.8321770   7.2442040 129.8102800 128.7218100   6.3016370 129.9352220
 128.8290020   7.6057680 130.6965560 126.9361790   5.4255660 136.0495240
 127.3530580   5.2115770 135.2148700 127.6601610   5.6828450 136.6203860
 124.3742050   2.8707360 129.1665290 123.4471330   2.8044740 129.3953760
 124.5266870   3.8087490 129.0520530 130.8823890   3.8242880 136.1411480
 130.0542520   3.8935970 135.6661610 131.4774370   4.4097190 135.6727310
 128.4039340   4.4327660 129.6700540 127.7851760   4.0947210 129.0226840
 128.3863790   3.7887420 130.3779730 119.9798690   3.3972100 131.9485020
 119.5755690   2.6849350 131.4530920 120.0661810   3.0525340 132.8373060
 120.4480390   7.0839660 134.1124230 120.1508680   6.4785130 133.4332010
 121.3980210   7.1216970 134.0013590 128.5366000  10.6571530 137.7747330
 128.0596560  11.4643720 137.5819940 127.8527790  10.0049860 137.9273540
 119.5398820   6.8221350 140.7632030 118.6427350   7.0461320 141.0105430
 119.5651690   6.9456290 139.8143430 126.5804040   3.6714470 126.6773290
 127.0197320   2.8336900 126.5311110 127.2932460   4.3043870 126.7637430
 118.3670040   3.6934670 139.3389400 118.2277810   4.5657470 139.7076800
 117.4851400   3.3507480 139.1937340 124.6899420   8.6110540 130.6454530
 125.1295330   9.3534870 130.2309920 124.6286310   8.8537110 131.5693490
 120.1650390   9.6356370 141.5474550 120.1365820  10.0399320 140.6802980
 120.0015360   8.7066730 141.3846150 116.6803320   2.2917080 129.4491670
 116.5600920   3.0179170 128.8372940 116.3704210   1.5219990 128.9719580
 132.1165210  10.4183470 142.8438720 132.5924930  10.8966360 143.5227800
 132.7372370  10.3500960 142.1184220 114.3188690   5.4632220 135.2560310
 114.3969110   5.5980990 134.3116030 114.9330370   4.7548110 135.4488430
 115.5636320   7.1632410 131.6666490 115.1564400   7.3047000 130.8120090
 116.4549330   6.8792570 131.4637700 131.5198460   7.6096320 140.0038730
 131.6461520   7.3708200 139.0855910 131.5619840   6.7780860 140.4760810
 125.3815200  11.3124320 138.5733540 125.8959870  11.2232330 139.3755970
 124.5384280  11.6584020 138.8661450 127.3569600  11.5979660 128.0017540
 127.1970740  11.3082600 128.8999370 127.1916310  10.8219790 127.4662770
 119.8357980  11.3778190 129.7789160 119.6600460  10.4613730 129.5656960
 118.9813720  11.7365480 130.0186960 127.0595730   9.1067220 126.5615540
 126.3660890   9.1044510 125.9017820 127.8018590   8.6826540 126.1309710
 126.6245660  10.7329930 130.6364030 127.0802610   9.9519310 130.9502650
 126.9638180  11.4436750 131.1805210 114.3748210   6.5046390 137.7954770
 114.5379250   6.0351750 136.9774140 114.8400660   5.9969950 138.4603610
 120.8718010   1.9785800 126.0783850 120.3034910   1.5304050 125.4519760
 121.5807010   2.3378580 125.5449000 115.9487190   5.8797820 139.9550580
 115.5641980   5.2391490 140.5533540 116.2599380   6.5833940 140.5245310
 122.0984330   2.7274360 135.4359200 122.4654460   2.2532930 136.1820540
 121.9089390   3.6015930 135.7767540 119.8883700   1.7683000 137.7543410
 119.5840770   2.6474980 137.9793770 120.8430160   1.8282790 137.7900850
 118.4165490   5.9743990 128.3510260 117.6427750   5.4341610 128.1908980
 119.1460120   5.4550600 128.0128020 129.1753470   4.9709350 134.1436650
 129.8952590   5.4664640 133.7532760 128.9735290   4.2927240 133.4990520
 124.5572270   5.0418410 140.0305650 124.4909580   4.1214080 139.7763240
 123.9277410   5.1393850 140.7450290 118.4602890   5.6424370 131.9889070
 118.9781560   4.8392630 131.9345960 118.0086910   5.5803510 132.8305900
 123.3472390   6.9090650 127.2616370 123.6888090   7.6532880 126.7659690
 122.5185100   7.2221770 127.6241200 115.9447430   2.6085740 138.9014770
 115.5862370   3.2739590 139.4888110 115.6501990   1.7769290 139.2727390
 119.1460550   3.0669980 141.7854320 118.8460690   3.2127160 140.8882140
 119.9171790   2.5075270 141.6927710 124.4889000   7.8638980 139.7809450
 124.5033540   6.9319940 139.5628360 123.7814100   7.9498740 140.4199220
 129.6226070   2.0478800 126.0508060 129.5389790   2.4793020 125.2004500
 130.3420260   2.5077150 126.4834880 130.7000210   4.5046320 139.1278030
 129.9748400   5.0975100 138.9307420 131.2275670   4.4969860 138.3291400
 130.6513320   8.9021060 128.7790190 130.0089480   8.2476680 129.0533910
 130.2643980   9.3076150 128.0030860 126.2299800   6.2306490 132.6261880
 126.5823620   5.6334620 131.9663250 125.3462130   5.9050720 132.7970130
 122.3163080   6.9904180 130.0332290 123.0034210   7.5373390 130.4139880
 121.5295500   7.5344910 130.0681900 114.4555480   2.6077000 125.5249370
 115.3250330   2.8901800 125.8085290 113.9645800   3.4212870 125.4098180
 121.6190290   3.9950210 129.6457650 122.0753070   4.8055460 129.8717840
 121.2678500   3.6773350 130.4776140 123.9222900   9.5056550 136.8749950
 124.5665120   9.7115930 137.5523370 124.2852340   8.7444950 136.4220800
 125.1954980   7.5088900 135.5927400 125.8377210   6.8082060 135.7059570
 125.7204330   8.2887340 135.4124290 129.0410700   7.7937520 125.3166540
 128.8148280   7.0767960 125.9091180 128.6506900   7.5449960 124.4788290
 126.9692600   8.3083800 138.7963460 127.3048840   8.8950490 139.4741380
 126.0492940   8.1776510 139.0261250 114.8226730  11.8204380 126.0911000
 115.1824370  12.4193720 125.4368270 114.6819070  12.3664270 126.8646030
 128.6226950   5.7109460 126.9780700 128.3348650   6.1722150 127.7658580
 129.4179120   5.2507230 127.2464920 114.8068590  10.0859240 140.5653400
 114.9159710   9.1453980 140.4248790 114.1549150  10.3513990 139.9167130
 122.7981180   8.3575130 141.9651520 122.4778050   7.6384370 142.5097210
 122.1239540   9.0330200 142.0387580 120.8395350   9.2035580 126.9084670
 120.8305450   9.9365270 126.2929180 119.9193710   8.9567160 127.0011630
 116.4401990   4.4250470 127.6531430 115.8329940   5.1649370 127.6626730
 116.9151340   4.5149830 126.8269630 123.8254950   9.2663820 125.5709860
 123.9266930   9.0627810 124.6411840 122.9256690   9.0122100 125.7757640
 122.4673060  11.7850140 130.2657530 122.7214560  11.7471530 129.3436900
 121.5185540  11.6583470 130.2585780 128.4725640   2.7042020 131.8416040
 127.5315780   2.7192250 132.0163730 128.7869710   1.9177980 132.2876340
 118.4507280   4.3861620 125.4020000 119.2170550   4.2742980 125.9645430
 118.5281970   3.6899590 124.7496770 130.4751220   9.8750870 133.5170300
 130.5998640  10.6982040 133.9894110 131.3416780   9.6641600 133.1694450
 117.9468750  11.9682080 133.1887430 118.6831230  11.4197540 133.4596000
 118.3309670  12.8338090 133.0493420 114.8314230   8.0355650 129.0628940
 113.9054010   8.2776790 129.0534350 115.2970660   8.8629910 128.9413690
 116.9527030  11.1528150 142.3773010 117.7539760  11.4740200 142.7908410
 116.4378850  10.7923730 143.0992920 121.0571060  11.1412390 125.0113000
 121.8499670  11.4301220 124.5594790 120.5375410  10.7104560 124.3325480
 125.7891660   7.2608020 142.3248420 125.1829820   7.2839620 141.5844170
 125.4845770   6.5291060 142.8615670 127.2192030  10.9888310 140.9357830
 128.1713780  10.9046330 140.8858070 127.0720250  11.6530020 141.6091620
 130.1101230  10.3682520 126.4349740 129.8242740   9.9547660 125.6203920
 129.9120780  11.2970230 126.3150260 114.6724840   3.6401610 141.3209060
 115.1763860   3.0608890 141.8925290 113.9332260   3.9241840 141.8585430
 121.5748460   6.3615800 124.8755350 121.4699100   5.7468150 125.6016730
 121.4072680   5.8381690 124.0918360 121.7262780   5.0472600 140.8544580
 120.9608450   5.6157600 140.7699250 121.9078740   4.7548810 139.9612810
 124.8151190   5.4235830 125.4797340 124.2661290   5.8705130 126.1240080
 125.4370450   4.9185080 126.0035010 128.8686130   6.7777930 141.4119600
 129.6095600   7.1153690 140.9087060 128.1058810   6.9469990 140.8589370
 116.7047920   1.7831200 142.2159130 116.7453260   1.4845070 143.1244360
 117.5593420   2.1838810 142.0566650 120.4826310   4.3826750 127.3762640
 120.9042730   4.2166620 128.2194030 120.6077150   3.5726980 126.8817780
 122.9953950   3.4064360 124.6239740 123.5159610   2.6913380 124.2580890
 123.6422350   4.0450230 124.9240250 127.5431790   4.8292760 139.9474810
 127.9572810   4.9837840 140.7965230 126.6082790   4.9547980 140.1100590
 128.0153960   2.1688920 141.9513960 128.5974730   1.4141240 141.8634440
 128.1915730   2.6996360 141.1745440 122.3047020   4.7813240 137.9170740
 122.7235130   5.6245970 137.7446980 121.3855650   4.9185280 137.6877520
 124.6410920   2.5129420 139.3008580 124.7607130   1.9170560 140.0403420
 125.5004920   2.5499110 138.8809880 126.9798820   3.0666610 137.8771090
 126.4534040   3.5909230 137.2736230 127.3230160   3.6994000 138.5080820
 120.1554440  11.0866250 139.0328470 119.6175530  11.8112310 138.7137170
 120.4088400  10.6096590 138.2425810 123.0116650  12.3217460 139.2915120
 122.9375350  13.2252600 139.5987490 122.1095490  12.0029360 139.2637190
 123.5601980  11.4875970 126.9141480 124.4552770  11.8260940 126.9360240
 123.5919610  10.7655380 126.2865760 117.1998140   6.8603020 125.1428480
 117.6373010   7.4032690 125.7986060 117.6845870   6.0349970 125.1524820
 114.4143940   9.6492050 132.5948740 114.7446950   8.7813110 132.3627380
 114.8434940   9.8550570 133.4253700 119.0105860   7.9801060 130.2550710
 118.7101400   7.8566030 131.1554620 118.9043350   7.1209650 129.8466440
 114.9034150  10.5162640 135.3330370 114.4665140  10.6963440 136.1654520
 115.4711830  11.2737260 135.1912090 130.5396330  10.0179640 139.6207680
 129.9398320  10.0772200 138.8771600 130.6690230   9.0784620 139.7504530
 131.7797780   7.7597460 124.9577390 130.9490740   7.8274110 125.4284620
 131.9569610   8.6501580 124.6544250 131.2354240   4.5044940 127.4611590
 131.9973150   5.0741590 127.5671280 131.2508610   3.9372140 128.2319900
 114.7358580   3.0282870 131.6919250 114.0807420   2.7594510 131.0478950
 115.5736530   2.9187350 131.2421230 132.2414210   5.3595040 132.3053520
 132.6123040   4.5762360 131.8989490 132.8816140   6.0484140 132.1270820
 129.2247970   6.7431620 137.7183840 128.4107810   7.1728780 137.9809630
 129.6322170   7.3550030 137.1052890 131.2873410   4.7979310 124.6184110
 131.5622250   5.7058190 124.4903330 131.0984150   4.7341840 125.5546100
 131.1838750   2.7348300 129.6113540 130.8082350   1.9676230 129.1794830
 130.4541870   3.1171000 130.0988470 115.7734510   3.4135440 136.2322590
 116.1407550   3.3262840 137.1118610 115.2045330   2.6501990 136.1329450
 130.5738370   1.8819820 139.2453060 130.3424460   1.6532570 138.3451010
 130.8342920   2.8019370 139.1997950 129.2824020  11.4950220 131.2452110
 129.8783090  11.1734790 130.5686530 129.5402170  11.0222040 132.0365380
 117.1886590   7.9268130 141.3942740 117.1456220   7.5561040 142.2757200
 117.3197600   8.8645700 141.5344560 120.8892620   9.4827720 136.9952460
 120.6483980   9.7502280 136.1082980 121.8295260   9.6533450 137.0503320
 132.1496780  11.5022100 137.7963100 131.6555060  11.8990970 137.0790230
 131.5410070  10.8771310 138.1900380 117.0274620  10.8730380 138.5140520
 116.4334940  10.7415080 139.2530560 117.0198460  10.0368520 138.0482620
 129.8336230  12.1445520 135.0749840 129.3739200  12.8961330 134.7007860
 129.2048690  11.4251990 135.0164640 116.6586850   8.2388760 137.4648560
 115.9320910   7.6194050 137.3974510 116.7196000   8.6329370 136.5946640
 120.2631950  10.4533760 134.2497970 120.7796970   9.8421120 133.7246230
 120.9129330  10.9562540 134.7408980 123.0027450  11.3442250 135.0766950
 123.2905260  11.0896550 134.1999960 123.5150670  10.7919610 135.6672520
 114.9416850  11.5563150 130.6745320 114.7738890  10.9233830 131.3727210
 114.0751360  11.7622550 130.3239510 116.5479550  10.2496380 128.1195460
 116.0227170  10.6304410 127.4157420 116.4724130  10.8747150 128.8405170
 123.0699810  12.2658350 142.4435150 123.9967120  12.0302620 142.4871110
 123.0550240  13.0930350 141.9621180 131.3044870  11.8083920 129.4409400
 131.4797060  11.1221660 128.7970320 130.6066440  12.3330970 129.0486070
 119.1472520  12.1978760 126.9944710 119.8791340  11.9138040 126.4468600
 119.4066190  11.9592040 127.8844090 118.3087310   8.3143490 126.9991040
 117.6796190   8.7828590 127.5476870 118.4235140   7.4692710 127.4337230
 129.6377370  11.4928210 142.2676190 130.4302690  10.9977440 142.0602150
 129.9310520  12.1718350 142.8751800 125.7637030   2.3649150 113.1492240
 125.6831080   1.4503760 112.8783950 125.3501450   2.8616220 112.4431950
 123.8955070   4.1428170 115.0301510 123.1197170   3.6628610 115.3200080
 124.5468000   3.4633820 114.8557670 117.9120900   4.4547980 115.9077270
 117.0805780   4.1996690 116.3073780 118.5201880   4.5258750 116.6435190
 127.9162500   8.5488360 113.8100640 127.4544030   7.7775600 114.1387810
 128.7288050   8.5754430 114.3153090 117.8922160   8.4888070 116.1035290
 118.1950200   7.5985810 115.9245510 118.6365750   9.0458290 115.8757540
 124.1425810  10.8346370 113.4304630 123.5237250  11.2903870 112.8599070
 124.9977590  10.9897830 113.0294330 123.3364060   6.8185360 115.0371670
 123.2672340   5.8775300 114.8760800 124.0983920   6.9086770 115.6094240
 125.0089160   5.7185610 110.8236540 124.3906430   6.1835060 110.2599260
 125.5212410   6.4113090 111.2406050 119.8720920   5.2461480 117.5020140
 119.5390300   5.8730400 118.1441210 120.0487600   5.7723360 116.7221810
 119.0840020   7.2142280 119.3169320 119.7014020   7.8893360 119.0353770
 118.2233140   7.6230260 119.2256820 114.3772360   6.4042140 108.1976170
 114.0000340   6.8929240 107.4661070 114.6345430   7.0767420 108.8282700
 130.0017610   8.6781690 117.2323960 129.3181130   9.3480800 117.2240630
 130.5411900   8.8762340 116.4668820 127.5376350  10.5225820 115.9469140
 127.5503510  10.1188110 115.0791400 126.9851570  11.2973110 115.8430570
 128.8321770   7.2442040 111.0359310 128.7218100   6.3016370 111.1608730
 128.8290020   7.6057680 111.9222070 126.9361790   5.4255660 117.2751750
 127.3530580   5.2115770 116.4405210 127.6601610   5.6828450 117.8460370
 124.3742050   2.8707360 110.3921800 123.4471330   2.8044740 110.6210270
 124.5266870   3.8087490 110.2777040 130.8823890   3.8242880 117.3667990
 130.0542520   3.8935970 116.8918120 131.4774370   4.4097190 116.8983820
 128.4039340   4.4327660 110.8957050 127.7851760   4.0947210 110.2483350
 128.3863790   3.7887420 111.6036240 119.9798690   3.3972100 113.1741530
 119.5755690   2.6849350 112.6787430 120.0661810   3.0525340 114.0629570
 120.4480390   7.0839660 115.3380740 120.1508680   6.4785130 114.6588520
 121.3980210   7.1216970 115.2270100 128.5366000  10.6571530 119.0003840
 128.0596560  11.4643720 118.8076450 127.8527790  10.0049860 119.1530050
 119.5398820   6.8221350 121.9888540 118.6427350   7.0461320 122.2361940
 119.5651690   6.9456290 121.0399940 126.5804040   3.6714470 107.9029800
 127.0197320   2.8336900 107.7567620 127.2932460   4.3043870 107.9893940
 118.3670040   3.6934670 120.5645910 118.2277810   4.5657470 120.9333310
 117.4851400   3.3507480 120.4193850 124.6899420   8.6110540 111.8711040
 125.1295330   9.3534870 111.4566430 124.6286310   8.8537110 112.7950000
 120.1650390   9.6356370 122.7731060 120.1365820  10.0399320 121.9059490
 120.0015360   8.7066730 122.6102660 116.6803320   2.2917080 110.6748180
 116.5600920   3.0179170 110.0629450 116.3704210   1.5219990 110.1976090
 132.1165210  10.4183470 124.0695230 132.5924930  10.8966360 124.7484310
 132.7372370  10.3500960 123.3440730 114.3188690   5.4632220 116.4816820
 114.3969110   5.5980990 115.5372540 114.9330370   4.7548110 116.6744940
 115.5636320   7.1632410 112.8923000 115.1564400   7.3047000 112.0376600
 116.4549330   6.8792570 112.6894210 131.5198460   7.6096320 121.2295240
 131.6461520   7.3708200 120.3112420 131.5619840   6.7780860 121.7017320
 125.3815200  11.3124320 119.7990050 125.8959870  11.2232330 120.6012480
 124.5384280  11.6584020 120.0917960 127.3569600  11.5979660 109.2274050
 127.1970740  11.3082600 110.1255880 127.1916310  10.8219790 108.6919280
 119.8357980  11.3778190 111.0045670 119.6600460  10.4613730 110.7913470
 118.9813720  11.7365480 111.2443470 127.0595730   9.1067220 107.7872050
 126.3660890   9.1044510 107.1274330 127.8018590   8.6826540 107.3566220
 126.6245660  10.7329930 111.8620540 127.0802610   9.9519310 112.1759160
 126.9638180  11.4436750 112.4061720 114.3748210   6.5046390 119.0211280
 114.5379250   6.0351750 118.2030650 114.8400660   5.9969950 119.6860120
 120.8718010   1.9785800 107.3040360 120.3034910   1.5304050 106.6776270
 121.5807010   2.3378580 106.7705510 115.9487190   5.8797820 121.1807090
 115.5641980   5.2391490 121.7790050 116.2599380   6.5833940 121.7501820
 122.0984330   2.7274360 116.6615710 122.4654460   2.2532930 117.4077050
 121.9089390   3.6015930 117.0024050 119.8883700   1.7683000 118.9799920
 119.5840770   2.6474980 119.2050280 120.8430160   1.8282790 119.0157360
 118.4165490   5.9743990 109.5766770 117.6427750   5.4341610 109.4165490
 119.1460120   5.4550600 109.2384530 129.1753470   4.9709350 115.3693160
 129.8952590   5.4664640 114.9789270 128.9735290   4.2927240 114.7247030
 124.5572270   5.0418410 121.2562160 124.4909580   4.1214080 121.0019750
 123.9277410   5.1393850 121.9706800 118.4602890   5.6424370 113.2145580
 118.9781560   4.8392630 113.1602470 118.0086910   5.5803510 114.0562410
 123.3472390   6.9090650 108.4872880 123.6888090   7.6532880 107.9916200
 122.5185100   7.2221770 108.8497710 115.9447430   2.6085740 120.1271280
 115.5862370   3.2739590 120.7144620 115.6501990   1.7769290 120.4983900
 119.1460550   3.0669980 123.0110830 118.8460690   3.2127160 122.1138650
 119.9171790   2.5075270 122.9184220 124.4889000   7.8638980 121.0065960
 124.5033540   6.9319940 120.7884870 123.7814100   7.9498740 121.6455730
 129.6226070   2.0478800 107.2764570 129.5389790   2.4793020 106.4261010
 130.3420260   2.5077150 107.7091390 130.7000210   4.5046320 120.3534540
 129.9748400   5.0975100 120.1563930 131.2275670   4.4969860 119.5547910
 130.6513320   8.9021060 110.0046700 130.0089480   8.2476680 110.2790420
 130.2643980   9.3076150 109.2287370 126.2299800   6.2306490 113.8518390
 126.5823620   5.6334620 113.1919760 125.3462130   5.9050720 114.0226640
 122.3163080   6.9904180 111.2588800 123.0034210   7.5373390 111.6396390
 121.5295500   7.5344910 111.2938410 114.4555480   2.6077000 106.7505880
 115.3250330   2.8901800 107.0341800 113.9645800   3.4212870 106.6354690
 121.6190290   3.9950210 110.8714160 122.0753070   4.8055460 111.0974350
 121.2678500   3.6773350 111.7032650 123.9222900   9.5056550 118.1006460
 124.5665120   9.7115930 118.7779880 124.2852340   8.7444950 117.6477310
 125.1954980   7.5088900 116.8183910 125.8377210   6.8082060 116.9316080
 125.7204330   8.2887340 116.6380800 129.0410700   7.7937520 106.5423050
 128.8148280   7.0767960 107.1347690 128.6506900   7.5449960 105.7044800
 126.9692600   8.3083800 120.0219970 127.3048840   8.8950490 120.6997890
 126.0492940   8.1776510 120.2517760 114.8226730  11.8204380 107.3167510
 115.1824370  12.4193720 106.6624780 114.6819070  12.3664270 108.0902540
 128.6226950   5.7109460 108.2037210 128.3348650   6.1722150 108.9915090
 129.4179120   5.2507230 108.4721430 114.8068590  10.0859240 121.7909910
 114.9159710   9.1453980 121.6505300 114.1549150  10.3513990 121.1423640
 122.7981180   8.3575130 123.1908030 122.4778050   7.6384370 123.7353720
 122.1239540   9.0330200 123.2644090 120.8395350   9.2035580 108.1341180
 120.8305450   9.9365270 107.5185690 119.9193710   8.9567160 108.2268140
 116.4401990   4.4250470 108.8787940 115.8329940   5.1649370 108.8883240
 116.9151340   4.5149830 108.0526140 123.8254950   9.2663820 106.7966370
 123.9266930   9.0627810 105.8668350 122.9256690   9.0122100 107.0014150
 122.4673060  11.7850140 111.4914040 122.7214560  11.7471530 110.5693410
 121.5185540  11.6583470 111.4842290 128.4725640   2.7042020 113.0672550
 127.5315780   2.7192250 113.2420240 128.7869710   1.9177980 113.5132850
 118.4507280   4.3861620 106.6276510 119.2170550   4.2742980 107.1901940
 118.5281970   3.6899590 105.9753280 130.4751220   9.8750870 114.7426810
 130.5998640  10.6982040 115.2150620 131.3416780   9.6641600 114.3950960
 117.9468750  11.9682080 114.4143940 118.6831230  11.4197540 114.6852510
 118.3309670  12.8338090 114.2749930 114.8314230   8.0355650 110.2885450
 113.9054010   8.2776790 110.2790860 115.2970660   8.8629910 110.1670200
 116.9527030  11.1528150 123.6029520 117.7539760  11.4740200 124.0164920
 116.4378850  10.7923730 124.3249430 121.0571060  11.1412390 106.2369510
 121.8499670  11.4301220 105.7851300 120.5375410  10.7104560 105.5581990
 125.7891660   7.2608020 123.5504930 125.1829820   7.2839620 122.8100680
 125.4845770   6.5291060 124.0872180 127.2192030  10.9888310 122.1614340
 128.1713780  10.9046330 122.1114580 127.0720250  11.6530020 122.8348130
 130.1101230  10.3682520 107.6606250 129.8242740   9.9547660 106.8460430
 129.9120780  11.2970230 107.5406770 114.6724840   3.6401610 122.5465570
 115.1763860   3.0608890 123.1181800 113.9332260   3.9241840 123.0841940
 121.5748460   6.3615800 106.1011860 121.4699100   5.7468150 106.8273240
 121.4072680   5.8381690 105.3174870 121.7262780   5.0472600 122.0801090
 120.9608450   5.6157600 121.9955760 121.9078740   4.7548810 121.1869320
 124.8151190   5.4235830 106.7053850 124.2661290   5.8705130 107.3496590
 125.4370450   4.9185080 107.2291520 128.8686130   6.7777930 122.6376110
 129.6095600   7.1153690 122.1343570 128.1058810   6.9469990 122.0845880
 116.7047920   1.7831200 123.4415640 116.7453260   1.4845070 124.3500870
 117.5593420   2.1838810 123.2823160 120.4826310   4.3826750 108.6019150
 120.9042730   4.2166620 109.4450540 120.6077150   3.5726980 108.1074290
 122.9953950   3.4064360 105.8496250 123.5159610   2.6913380 105.4837400
 123.6422350   4.0450230 106.1496760 127.5431790   4.8292760 121.1731320
 127.9572810   4.9837840 122.0221740 126.6082790   4.9547980 121.3357100
 128.0153960   2.1688920 123.1770470 128.5974730   1.4141240 123.0890950
 128.1915730   2.6996360 122.4001950 122.3047020   4.7813240 119.1427250
 122.7235130   5.6245970 118.9703490 121.3855650   4.9185280 118.9134030
 124.6410920   2.5129420 120.5265090 124.7607130   1.9170560 121.2659930
 125.5004920   2.5499110 120.1066390 126.9798820   3.0666610 119.1027600
 126.4534040   3.5909230 118.4992740 127.3230160   3.6994000 119.7337330
 120.1554440  11.0866250 120.2584980 119.6175530  11.8112310 119.9393680
 120.4088400  10.6096590 119.4682320 123.0116650  12.3217460 120.5171630
 122.9375350  13.2252600 120.8244000 122.1095490  12.0029360 120.4893700
 123.5601980  11.4875970 108.1397990 124.4552770  11.8260940 108.1616750
 123.5919610  10.7655380 107.5122270 117.1998140   6.8603020 106.3684990
 117.6373010   7.4032690 107.0242570 117.6845870   6.0349970 106.3781330
 114.4143940   9.6492050 113.8205250 114.7446950   8.7813110 113.5883890
 114.8434940   9.8550570 114.6510210 119.0105860   7.9801060 111.4807220
 118.7101400   7.8566030 112.3811130 118.9043350   7.1209650 111.0722950
 114.9034150  10.5162640 116.5586880 114.4665140  10.6963440 117.3911030
 115.4711830  11.2737260 116.4168600 130.5396330  10.0179640 120.8464190
 129.9398320  10.0772200 120.1028110 130.6690230   9.0784620 120.9761040
 131.7797780   7.7597460 106.1833900 130.9490740   7.8274110 106.6541130
 131.9569610   8.6501580 105.8800760 131.2354240   4.5044940 108.6868100
 131.9973150   5.0741590 108.7927790 131.2508610   3.9372140 109.4576410
 114.7358580   3.0282870 112.9175760 114.0807420   2.7594510 112.2735460
 115.5736530   2.9187350 112.4677740 132.2414210   5.3595040 113.5310030
 132.6123040   4.5762360 113.1246000 132.8816140   6.0484140 113.3527330
 129.2247970   6.7431620 118.9440350 128.4107810   7.1728780 119.2066140
 129.6322170   7.3550030 118.3309400 131.2873410   4.7979310 105.8440620
 131.5622250   5.7058190 105.7159840 131.0984150   4.7341840 106.7802610
 131.1838750   2.7348300 110.8370050 130.8082350   1.9676230 110.4051340
 130.4541870   3.1171000 111.3244980 115.7734510   3.4135440 117.4579100
 116.1407550   3.3262840 118.3375120 115.2045330   2.6501990 117.3585960
 130.5738370   1.8819820 120.4709570 130.3424460   1.6532570 119.5707520
 130.8342920   2.8019370 120.4254460 129.2824020  11.4950220 112.4708620
 129.8783090  11.1734790 111.7943040 129.5402170  11.0222040 113.2621890
 117.1886590   7.9268130 122.6199250 117.1456220   7.5561040 123.5013710
 117.3197600   8.8645700 122.7601070 120.8892620   9.4827720 118.2208970
 120.6483980   9.7502280 117.3339490 121.8295260   9.6533450 118.2759830
 132.1496780  11.5022100 119.0219610 131.6555060  11.8990970 118.3046740
 131.5410070  10.8771310 119.4156890 117.0274620  10.8730380 119.7397030
 116.4334940  10.7415080 120.4787070 117.0198460  10.0368520 119.2739130
 129.8336230  12.1445520 116.3006350 129.3739200  12.8961330 115.9264370
 129.2048690  11.4251990 116.2421150 116.6586850   8.2388760 118.6905070
 115.9320910   7.6194050 118.6231020 116.7196000   8.6329370 117.8203150
 120.2631950  10.4533760 115.4754480 120.7796970   9.8421120 114.9502740
 120.9129330  10.9562540 115.9665490 123.0027450  11.3442250 116.3023460
 123.2905260  11.0896550 115.4256470 123.5150670  10.7919610 116.8929030
 114.9416850  11.5563150 111.9001830 114.7738890  10.9233830 112.5983720
 114.0751360  11.7622550 111.5496020 116.5479550  10.2496380 109.3451970
 116.0227170  10.6304410 108.6413930 116.4724130  10.8747150 110.0661680
 123.0699810  12.2658350 123.6691660 123.9967120  12.0302620 123.7127620
 123.0550240  13.0930350 123.1877690 131.3044870  11.8083920 110.6665910
 131.4797060  11.1221660 110.0226830 130.6066440  12.3330970 110.2742580
 119.1472520  12.1978760 108.2201220 119.8791340  11.9138040 107.6725110
 119.4066190  11.9592040 109.1100600 118.3087310   8.3143490 108.2247550
 117.6796190   8.7828590 108.7733380 118.4235140   7.4692710 108.6593740
 129.6377370  11.4928210 123.4932700 130.4302690  10.9977440 123.2858660
 129.9310520  12.1718350 124.1008310 125.7637030   2.3649150  94.3748750
 125.6831080   1.4503760  94.1040460 125.3501450   2.8616220  93.6688460
 123.8955070   4.1428170  96.2558020 123.1197170   3.6628610  96.5456590
 124.5468000   3.4633820  96.0814180 117.9120900   4.4547980  97.1333780
 117.0805780   4.1996690  97.5330290 118.5201880   4.5258750  97.8691700
 127.9162500   8.5488360  95.0357150 127.4544030   7.7775600  95.3644320
 128.7288050   8.5754430  95.5409600 117.8922160   8.4888070  97.3291800
 118.1950200   7.5985810  97.1502020 118.6365750   9.0458290  97.1014050
 124.1425810  10.8346370  94.6561140 123.5237250  11.2903870  94.0855580
 124.9977590  10.9897830  94.2550840 123.3364060   6.8185360  96.2628180
 123.2672340   5.8775300  96.1017310 124.0983920   6.9086770  96.8350750
 125.0089160   5.7185610  92.0493050 124.3906430   6.1835060  91.4855770
 125.5212410   6.4113090  92.4662560 119.8720920   5.2461480  98.7276650
 119.5390300   5.8730400  99.3697720 120.0487600   5.7723360  97.9478320
 119.0840020   7.2142280 100.5425830 119.7014020   7.8893360 100.2610280
 118.2233140   7.6230260 100.4513330 114.3772360   6.4042140  89.4232680
 114.0000340   6.8929240  88.6917580 114.6345430   7.0767420  90.0539210
 130.0017610   8.6781690  98.4580470 129.3181130   9.3480800  98.4497140
 130.5411900   8.8762340  97.6925330 127.5376350  10.5225820  97.1725650
 127.5503510  10.1188110  96.3047910 126.9851570  11.2973110  97.0687080
 128.8321770   7.2442040  92.2615820 128.7218100   6.3016370  92.3865240
 128.8290020   7.6057680  93.1478580 126.9361790   5.4255660  98.5008260
 127.3530580   5.2115770  97.6661720 127.6601610   5.6828450  99.0716880
 124.3742050   2.8707360  91.6178310 123.4471330   2.8044740  91.8466780
 124.5266870   3.8087490  91.5033550 130.8823890   3.8242880  98.5924500
 130.0542520   3.8935970  98.1174630 131.4774370   4.4097190  98.1240330
 128.4039340   4.4327660  92.1213560 127.7851760   4.0947210  91.4739860
 128.3863790   3.7887420  92.8292750 119.9798690   3.3972100  94.3998040
 119.5755690   2.6849350  93.9043940 120.0661810   3.0525340  95.2886080
 120.4480390   7.0839660  96.5637250 120.1508680   6.4785130  95.8845030
 121.3980210   7.1216970  96.4526610 128.5366000  10.6571530 100.2260350
 128.0596560  11.4643720 100.0332960 127.8527790  10.0049860 100.3786560
 119.5398820   6.8221350 103.2145050 118.6427350   7.0461320 103.4618450
 119.5651690   6.9456290 102.2656450 126.5804040   3.6714470  89.1286310
 127.0197320   2.8336900  88.9824130 127.2932460   4.3043870  89.2150450
 118.3670040   3.6934670 101.7902420 118.2277810   4.5657470 102.1589820
 117.4851400   3.3507480 101.6450360 124.6899420   8.6110540  93.0967550
 125.1295330   9.3534870  92.6822940 124.6286310   8.8537110  94.0206510
 120.1650390   9.6356370 103.9987570 120.1365820  10.0399320 103.1316000
 120.0015360   8.7066730 103.8359170 116.6803320   2.2917080  91.9004690
 116.5600920   3.0179170  91.2885960 116.3704210   1.5219990  91.4232600
 132.1165210  10.4183470 105.2951740 132.5924930  10.8966360 105.9740820
 132.7372370  10.3500960 104.5697240 114.3188690   5.4632220  97.7073330
 114.3969110   5.5980990  96.7629050 114.9330370   4.7548110  97.9001450
 115.5636320   7.1632410  94.1179510 115.1564400   7.3047000  93.2633110
 116.4549330   6.8792570  93.9150720 131.5198460   7.6096320 102.4551750
 131.6461520   7.3708200 101.5368930 131.5619840   6.7780860 102.9273830
 125.3815200  11.3124320 101.0246560 125.8959870  11.2232330 101.8268990
 124.5384280  11.6584020 101.3174470 127.3569600  11.5979660  90.4530560
 127.1970740  11.3082600  91.3512390 127.1916310  10.8219790  89.9175790
 119.8357980  11.3778190  92.2302180 119.6600460  10.4613730  92.0169980
 118.9813720  11.7365480  92.4699980 127.0595730   9.1067220  89.0128560
 126.3660890   9.1044510  88.3530840 127.8018590   8.6826540  88.5822730
 126.6245660  10.7329930  93.0877050 127.0802610   9.9519310  93.4015670
 126.9638180  11.4436750  93.6318230 114.3748210   6.5046390 100.2467790
 114.5379250   6.0351750  99.4287160 114.8400660   5.9969950 100.9116630
 120.8718010   1.9785800  88.5296870 120.3034910   1.5304050  87.9032780
 121.5807010   2.3378580  87.9962020 115.9487190   5.8797820 102.4063600
 115.5641980   5.2391490 103.0046560 116.2599380   6.5833940 102.9758330
 122.0984330   2.7274360  97.8872220 122.4654460   2.2532930  98.6333560
 121.9089390   3.6015930  98.2280560 119.8883700   1.7683000 100.2056430
 119.5840770   2.6474980 100.4306790 120.8430160   1.8282790 100.2413870
 118.4165490   5.9743990  90.8023280 117.6427750   5.4341610  90.6422000
 119.1460120   5.4550600  90.4641040 129.1753470   4.9709350  96.5949670
 129.8952590   5.4664640  96.2045780 128.9735290   4.2927240  95.9503540
 124.5572270   5.0418410 102.4818670 124.4909580   4.1214080 102.2276260
 123.9277410   5.1393850 103.1963310 118.4602890   5.6424370  94.4402090
 118.9781560   4.8392630  94.3858980 118.0086910   5.5803510  95.2818920
 123.3472390   6.9090650  89.7129390 123.6888090   7.6532880  89.2172710
 122.5185100   7.2221770  90.0754220 115.9447430   2.6085740 101.3527790
 115.5862370   3.2739590 101.9401130 115.6501990   1.7769290 101.7240410
 119.1460550   3.0669980 104.2367340 118.8460690   3.2127160 103.3395160
 119.9171790   2.5075270 104.1440730 124.4889000   7.8638980 102.2322470
 124.5033540   6.9319940 102.0141380 123.7814100   7.9498740 102.8712240
 129.6226070   2.0478800  88.5021080 129.5389790   2.4793020  87.6517520
 130.3420260   2.5077150  88.9347900 130.7000210   4.5046320 101.5791050
 129.9748400   5.0975100 101.3820440 131.2275670   4.4969860 100.7804420
 130.6513320   8.9021060  91.2303210 130.0089480   8.2476680  91.5046930
 130.2643980   9.3076150  90.4543880 126.2299800   6.2306490  95.0774900
 126.5823620   5.6334620  94.4176270 125.3462130   5.9050720  95.2483150
 122.3163080   6.9904180  92.4845310 123.0034210   7.5373390  92.8652900
 121.5295500   7.5344910  92.5194920 114.4555480   2.6077000  87.9762390
 115.3250330   2.8901800  88.2598310 113.9645800   3.4212870  87.8611200
 121.6190290   3.9950210  92.0970670 122.0753070   4.8055460  92.3230860
 121.2678500   3.6773350  92.9289160 123.9222900   9.5056550  99.3262970
 124.5665120   9.7115930 100.0036390 124.2852340   8.7444950  98.8733820
 125.1954980   7.5088900  98.0440420 125.8377210   6.8082060  98.1572590
 125.7204330   8.2887340  97.8637310 129.0410700   7.7937520  87.7679560
 128.8148280   7.0767960  88.3604200 128.6506900   7.5449960  86.9301310
 126.9692600   8.3083800 101.2476480 127.3048840   8.8950490 101.9254400
 126.0492940   8.1776510 101.4774270 114.8226730  11.8204380  88.5424020
 115.1824370  12.4193720  87.8881290 114.6819070  12.3664270  89.3159050
 128.6226950   5.7109460  89.4293720 128.3348650   6.1722150  90.2171600
 129.4179120   5.2507230  89.6977940 114.8068590  10.0859240 103.0166420
 114.9159710   9.1453980 102.8761810 114.1549150  10.3513990 102.3680150
 122.7981180   8.3575130 104.4164540 122.4778050   7.6384370 104.9610230
 122.1239540   9.0330200 104.4900600 120.8395350   9.2035580  89.3597690
 120.8305450   9.9365270  88.7442200 119.9193710   8.9567160  89.4524650
 116.4401990   4.4250470  90.1044450 115.8329940   5.1649370  90.1139750
 116.9151340   4.5149830  89.2782650 123.8254950   9.2663820  88.0222880
 123.9266930   9.0627810  87.0924860 122.9256690   9.0122100  88.2270660
 122.4673060  11.7850140  92.7170550 122.7214560  11.7471530  91.7949920
 121.5185540  11.6583470  92.7098800 128.4725640   2.7042020  94.2929060
 127.5315780   2.7192250  94.4676750 128.7869710   1.9177980  94.7389360
 118.4507280   4.3861620  87.8533020 119.2170550   4.2742980  88.4158450
 118.5281970   3.6899590  87.2009790 130.4751220   9.8750870  95.9683320
 130.5998640  10.6982040  96.4407130 131.3416780   9.6641600  95.6207470
 117.9468750  11.9682080  95.6400450 118.6831230  11.4197540  95.9109020
 118.3309670  12.8338090  95.5006440 114.8314230   8.0355650  91.5141960
 113.9054010   8.2776790  91.5047370 115.2970660   8.8629910  91.3926710
 116.9527030  11.1528150 104.8286030 117.7539760  11.4740200 105.2421430
 116.4378850  10.7923730 105.5505940 121.0571060  11.1412390  87.4626020
 121.8499670  11.4301220  87.0107810 120.5375410  10.7104560  86.7838500
 125.7891660   7.2608020 104.7761440 125.1829820   7.2839620 104.0357190
 125.4845770   6.5291060 105.3128690 127.2192030  10.9888310 103.3870850
 128.1713780  10.9046330 103.3371090 127.0720250  11.6530020 104.0604640
 130.1101230  10.3682520  88.8862760 129.8242740   9.9547660  88.0716940
 129.9120780  11.2970230  88.7663280 114.6724840   3.6401610 103.7722080
 115.1763860   3.0608890 104.3438310 113.9332260   3.9241840 104.3098450
 121.5748460   6.3615800  87.3268370 121.4699100   5.7468150  88.0529750
 121.4072680   5.8381690  86.5431380 121.7262780   5.0472600 103.3057600
 120.9608450   5.6157600 103.2212270 121.9078740   4.7548810 102.4125830
 124.8151190   5.4235830  87.9310360 124.2661290   5.8705130  88.5753100
 125.4370450   4.9185080  88.4548030 128.8686130   6.7777930 103.8632620
 129.6095600   7.1153690 103.3600080 128.1058810   6.9469990 103.3102390
 116.7047920   1.7831200 104.6672150 116.7453260   1.4845070 105.5757380
 117.5593420   2.1838810 104.5079670 120.4826310   4.3826750  89.8275660
 120.9042730   4.2166620  90.6707050 120.6077150   3.5726980  89.3330800
 122.9953950   3.4064360  87.0752760 123.5159610   2.6913380  86.7093910
 123.6422350   4.0450230  87.3753270 127.5431790   4.8292760 102.3987830
 127.9572810   4.9837840 103.2478250 126.6082790   4.9547980 102.5613610
 128.0153960   2.1688920 104.4026980 128.5974730   1.4141240 104.3147460
 128.1915730   2.6996360 103.6258460 122.3047020   4.7813240 100.3683760
 122.7235130   5.6245970 100.1960000 121.3855650   4.9185280 100.1390540
 124.6410920   2.5129420 101.7521600 124.7607130   1.9170560 102.4916440
 125.5004920   2.5499110 101.3322900 126.9798820   3.0666610 100.3284110
 126.4534040   3.5909230  99.7249250 127.3230160   3.6994000 100.9593840
 120.1554440  11.0866250 101.4841490 119.6175530  11.8112310 101.1650190
 120.4088400  10.6096590 100.6938830 123.0116650  12.3217460 101.7428140
 122.9375350  13.2252600 102.0500510 122.1095490  12.0029360 101.7150210
 123.5601980  11.4875970  89.3654500 124.4552770  11.8260940  89.3873260
 123.5919610  10.7655380  88.7378780 117.1998140   6.8603020  87.5941500
 117.6373010   7.4032690  88.2499080 117.6845870   6.0349970  87.6037840
 114.4143940   9.6492050  95.0461760 114.7446950   8.7813110  94.8140400
 114.8434940   9.8550570  95.8766720 119.0105860   7.9801060  92.7063730
 118.7101400   7.8566030  93.6067640 118.9043350   7.1209650  92.2979460
 114.9034150  10.5162640  97.7843390 114.4665140  10.6963440  98.6167540
 115.4711830  11.2737260  97.6425110 130.5396330  10.0179640 102.0720700
 129.9398320  10.0772200 101.3284620 130.6690230   9.0784620 102.2017550
 131.7797780   7.7597460  87.4090410 130.9490740   7.8274110  87.8797640
 131.9569610   8.6501580  87.1057270 131.2354240   4.5044940  89.9124610
 131.9973150   5.0741590  90.0184300 131.2508610   3.9372140  90.6832920
 114.7358580   3.0282870  94.1432270 114.0807420   2.7594510  93.4991970
 115.5736530   2.9187350  93.6934250 132.2414210   5.3595040  94.7566540
 132.6123040   4.5762360  94.3502510 132.8816140   6.0484140  94.5783840
 129.2247970   6.7431620 100.1696860 128.4107810   7.1728780 100.4322650
 129.6322170   7.3550030  99.5565910 131.2873410   4.7979310  87.0697130
 131.5622250   5.7058190  86.9416350 131.0984150   4.7341840  88.0059120
 131.1838750   2.7348300  92.0626560 130.8082350   1.9676230  91.6307850
 130.4541870   3.1171000  92.5501490 115.7734510   3.4135440  98.6835610
 116.1407550   3.3262840  99.5631630 115.2045330   2.6501990  98.5842470
 130.5738370   1.8819820 101.6966080 130.3424460   1.6532570 100.7964030
 130.8342920   2.8019370 101.6510970 129.2824020  11.4950220  93.6965130
 129.8783090  11.1734790  93.0199550 129.5402170  11.0222040  94.4878400
 117.1886590   7.9268130 103.8455760 117.1456220   7.5561040 104.7270220
 117.3197600   8.8645700 103.9857580 120.8892620   9.4827720  99.4465480
 120.6483980   9.7502280  98.5596000 121.8295260   9.6533450  99.5016340
 132.1496780  11.5022100 100.2476120 131.6555060  11.8990970  99.5303250
 131.5410070  10.8771310 100.6413400 117.0274620  10.8730380 100.9653540
 116.4334940  10.7415080 101.7043580 117.0198460  10.0368520 100.4995640
 129.8336230  12.1445520  97.5262860 129.3739200  12.8961330  97.1520880
 129.2048690  11.4251990  97.4677660 116.6586850   8.2388760  99.9161580
 115.9320910   7.6194050  99.8487530 116.7196000   8.6329370  99.0459660
 120.2631950  10.4533760  96.7010990 120.7796970   9.8421120  96.1759250
 120.9129330  10.9562540  97.1922000 123.0027450  11.3442250  97.5279970
 123.2905260  11.0896550  96.6512980 123.5150670  10.7919610  98.1185540
 114.9416850  11.5563150  93.1258340 114.7738890  10.9233830  93.8240230
 114.0751360  11.7622550  92.7752530 116.5479550  10.2496380  90.5708480
 116.0227170  10.6304410  89.8670440 116.4724130  10.8747150  91.2918190
 123.0699810  12.2658350 104.8948170 123.9967120  12.0302620 104.9384130
 123.0550240  13.0930350 104.4134200 131.3044870  11.8083920  91.8922420
 131.4797060  11.1221660  91.2483340 130.6066440  12.3330970  91.4999090
 119.1472520  12.1978760  89.4457730 119.8791340  11.9138040  88.8981620
 119.4066190  11.9592040  90.3357110 118.3087310   8.3143490  89.4504060
 117.6796190   8.7828590  89.9989890 118.4235140   7.4692710  89.8850250
 129.6377370  11.4928210 104.7189210 130.4302690  10.9977440 104.5115170
 129.9310520  12.1718350 105.3264820 125.7637030   2.3649150  75.6005260
 125.6831080   1.4503760  75.3296970 125.3501450   2.8616220  74.8944970
 123.8955070   4.1428170  77.4814530 123.1197170   3.6628610  77.7713100
 124.5468000   3.4633820  77.3070690 117.9120900   4.4547980  78.3590290
 117.0805780   4.1996690  78.7586800 118.5201880   4.5258750  79.0948210
 127.9162500   8.5488360  76.2613660 127.4544030   7.7775600  76.5900830
 128.7288050   8.5754430  76.7666110 117.8922160   8.4888070  78.5548310
 118.1950200   7.5985810  78.3758530 118.6365750   9.0458290  78.3270560
 124.1425810  10.8346370  75.8817650 123.5237250  11.2903870  75.3112090
 124.9977590  10.9897830  75.4807350 123.3364060   6.8185360  77.4884690
 123.2672340   5.8775300  77.3273820 124.0983920   6.9086770  78.0607260
 125.0089160   5.7185610  73.2749560 124.3906430   6.1835060  72.7112280
 125.5212410   6.4113090  73.6919070 119.8720920   5.2461480  79.9533160
 119.5390300   5.8730400  80.5954230 120.0487600   5.7723360  79.1734830
 119.0840020   7.2142280  81.7682340 119.7014020   7.8893360  81.4866790
 118.2233140   7.6230260  81.6769840 114.3772360   6.4042140  70.6489190
 114.0000340   6.8929240  69.9174090 114.6345430   7.0767420  71.2795720
 130.0017610   8.6781690  79.6836980 129.3181130   9.3480800  79.6753650
 130.5411900   8.8762340  78.9181840 127.5376350  10.5225820  78.3982160
 127.5503510  10.1188110  77.5304420 126.9851570  11.2973110  78.2943590
 128.8321770   7.2442040  73.4872330 128.7218100   6.3016370  73.6121750
 128.8290020   7.6057680  74.3735090 126.9361790   5.4255660  79.7264770
 127.3530580   5.2115770  78.8918230 127.6601610   5.6828450  80.2973390
 124.3742050   2.8707360  72.8434820 123.4471330   2.8044740  73.0723290
 124.5266870   3.8087490  72.7290060 130.8823890   3.8242880  79.8181010
 130.0542520   3.8935970  79.3431140 131.4774370   4.4097190  79.3496840
 128.4039340   4.4327660  73.3470070 127.7851760   4.0947210  72.6996370
 128.3863790   3.7887420  74.0549260 119.9798690   3.3972100  75.6254550
 119.5755690   2.6849350  75.1300450 120.0661810   3.0525340  76.5142590
 120.4480390   7.0839660  77.7893760 120.1508680   6.4785130  77.1101540
 121.3980210   7.1216970  77.6783120 128.5366000  10.6571530  81.4516860
 128.0596560  11.4643720  81.2589470 127.8527790  10.0049860  81.6043070
 119.5398820   6.8221350  84.4401560 118.6427350   7.0461320  84.6874960
 119.5651690   6.9456290  83.4912960 126.5804040   3.6714470  70.3542820
 127.0197320   2.8336900  70.2080640 127.2932460   4.3043870  70.4406960
 118.3670040   3.6934670  83.0158930 118.2277810   4.5657470  83.3846330
 117.4851400   3.3507480  82.8706870 124.6899420   8.6110540  74.3224060
 125.1295330   9.3534870  73.9079450 124.6286310   8.8537110  75.2463020
 120.1650390   9.6356370  85.2244080 120.1365820  10.0399320  84.3572510
 120.0015360   8.7066730  85.0615680 116.6803320   2.2917080  73.1261200
 116.5600920   3.0179170  72.5142470 116.3704210   1.5219990  72.6489110
 132.1165210  10.4183470  86.5208250 132.5924930  10.8966360  87.1997330
 132.7372370  10.3500960  85.7953750 114.3188690   5.4632220  78.9329840
 114.3969110   5.5980990  77.9885560 114.9330370   4.7548110  79.1257960
 115.5636320   7.1632410  75.3436020 115.1564400   7.3047000  74.4889620
 116.4549330   6.8792570  75.1407230 131.5198460   7.6096320  83.6808260
 131.6461520   7.3708200  82.7625440 131.5619840   6.7780860  84.1530340
 125.3815200  11.3124320  82.2503070 125.8959870  11.2232330  83.0525500
 124.5384280  11.6584020  82.5430980 127.3569600  11.5979660  71.6787070
 127.1970740  11.3082600  72.5768900 127.1916310  10.8219790  71.1432300
 119.8357980  11.3778190  73.4558690 119.6600460  10.4613730  73.2426490
 118.9813720  11.7365480  73.6956490 127.0595730   9.1067220  70.2385070
 126.3660890   9.1044510  69.5787350 127.8018590   8.6826540  69.8079240
 126.6245660  10.7329930  74.3133560 127.0802610   9.9519310  74.6272180
 126.9638180  11.4436750  74.8574740 114.3748210   6.5046390  81.4724300
 114.5379250   6.0351750  80.6543670 114.8400660   5.9969950  82.1373140
 120.8718010   1.9785800  69.7553380 120.3034910   1.5304050  69.1289290
 121.5807010   2.3378580  69.2218530 115.9487190   5.8797820  83.6320110
 115.5641980   5.2391490  84.2303070 116.2599380   6.5833940  84.2014840
 122.0984330   2.7274360  79.1128730 122.4654460   2.2532930  79.8590070
 121.9089390   3.6015930  79.4537070 119.8883700   1.7683000  81.4312940
 119.5840770   2.6474980  81.6563300 120.8430160   1.8282790  81.4670380
 118.4165490   5.9743990  72.0279790 117.6427750   5.4341610  71.8678510
 119.1460120   5.4550600  71.6897550 129.1753470   4.9709350  77.8206180
 129.8952590   5.4664640  77.4302290 128.9735290   4.2927240  77.1760050
 124.5572270   5.0418410  83.7075180 124.4909580   4.1214080  83.4532770
 123.9277410   5.1393850  84.4219820 118.4602890   5.6424370  75.6658600
 118.9781560   4.8392630  75.6115490 118.0086910   5.5803510  76.5075430
 123.3472390   6.9090650  70.9385900 123.6888090   7.6532880  70.4429220
 122.5185100   7.2221770  71.3010730 115.9447430   2.6085740  82.5784300
 115.5862370   3.2739590  83.1657640 115.6501990   1.7769290  82.9496920
 119.1460550   3.0669980  85.4623850 118.8460690   3.2127160  84.5651670
 119.9171790   2.5075270  85.3697240 124.4889000   7.8638980  83.4578980
 124.5033540   6.9319940  83.2397890 123.7814100   7.9498740  84.0968750
 129.6226070   2.0478800  69.7277590 129.5389790   2.4793020  68.8774030
 130.3420260   2.5077150  70.1604410 130.7000210   4.5046320  82.8047560
 129.9748400   5.0975100  82.6076950 131.2275670   4.4969860  82.0060930
 130.6513320   8.9021060  72.4559720 130.0089480   8.2476680  72.7303440
 130.2643980   9.3076150  71.6800390 126.2299800   6.2306490  76.3031410
 126.5823620   5.6334620  75.6432780 125.3462130   5.9050720  76.4739660
 122.3163080   6.9904180  73.7101820 123.0034210   7.5373390  74.0909410
 121.5295500   7.5344910  73.7451430 114.4555480   2.6077000  69.2018900
 115.3250330   2.8901800  69.4854820 113.9645800   3.4212870  69.0867710
 121.6190290   3.9950210  73.3227180 122.0753070   4.8055460  73.5487370
 121.2678500   3.6773350  74.1545670 123.9222900   9.5056550  80.5519480
 124.5665120   9.7115930  81.2292900 124.2852340   8.7444950  80.0990330
 125.1954980   7.5088900  79.2696930 125.8377210   6.8082060  79.3829100
 125.7204330   8.2887340  79.0893820 129.0410700   7.7937520  68.9936070
 128.8148280   7.0767960  69.5860710 128.6506900   7.5449960  68.1557820
 126.9692600   8.3083800  82.4732990 127.3048840   8.8950490  83.1510910
 126.0492940   8.1776510  82.7030780 114.8226730  11.8204380  69.7680530
 115.1824370  12.4193720  69.1137800 114.6819070  12.3664270  70.5415560
 128.6226950   5.7109460  70.6550230 128.3348650   6.1722150  71.4428110
 129.4179120   5.2507230  70.9234450 114.8068590  10.0859240  84.2422930
 114.9159710   9.1453980  84.1018320 114.1549150  10.3513990  83.5936660
 122.7981180   8.3575130  85.6421050 122.4778050   7.6384370  86.1866740
 122.1239540   9.0330200  85.7157110 120.8395350   9.2035580  70.5854200
 120.8305450   9.9365270  69.9698710 119.9193710   8.9567160  70.6781160
 116.4401990   4.4250470  71.3300960 115.8329940   5.1649370  71.3396260
 116.9151340   4.5149830  70.5039160 123.8254950   9.2663820  69.2479390
 123.9266930   9.0627810  68.3181370 122.9256690   9.0122100  69.4527170
 122.4673060  11.7850140  73.9427060 122.7214560  11.7471530  73.0206430
 121.5185540  11.6583470  73.9355310 128.4725640   2.7042020  75.5185570
 127.5315780   2.7192250  75.6933260 128.7869710   1.9177980  75.9645870
 118.4507280   4.3861620  69.0789530 119.2170550   4.2742980  69.6414960
 118.5281970   3.6899590  68.4266300 130.4751220   9.8750870  77.1939830
 130.5998640  10.6982040  77.6663640 131.3416780   9.6641600  76.8463980
 117.9468750  11.9682080  76.8656960 118.6831230  11.4197540  77.1365530
 118.3309670  12.8338090  76.7262950 114.8314230   8.0355650  72.7398470
 113.9054010   8.2776790  72.7303880 115.2970660   8.8629910  72.6183220
 116.9527030  11.1528150  86.0542540 117.7539760  11.4740200  86.4677940
 116.4378850  10.7923730  86.7762450 121.0571060  11.1412390  68.6882530
 121.8499670  11.4301220  68.2364320 120.5375410  10.7104560  68.0095010
 125.7891660   7.2608020  86.0017950 125.1829820   7.2839620  85.2613700
 125.4845770   6.5291060  86.5385200 127.2192030  10.9888310  84.6127360
 128.1713780  10.9046330  84.5627600 127.0720250  11.6530020  85.2861150
 130.1101230  10.3682520  70.1119270 129.8242740   9.9547660  69.2973450
 129.9120780  11.2970230  69.9919790 114.6724840   3.6401610  84.9978590
 115.1763860   3.0608890  85.5694820 113.9332260   3.9241840  85.5354960
 121.5748460   6.3615800  68.5524880 121.4699100   5.7468150  69.2786260
 121.4072680   5.8381690  67.7687890 121.7262780   5.0472600  84.5314110
 120.9608450   5.6157600  84.4468780 121.9078740   4.7548810  83.6382340
 124.8151190   5.4235830  69.1566870 124.2661290   5.8705130  69.8009610
 125.4370450   4.9185080  69.6804540 128.8686130   6.7777930  85.0889130
 129.6095600   7.1153690  84.5856590 128.1058810   6.9469990  84.5358900
 116.7047920   1.7831200  85.8928660 116.7453260   1.4845070  86.8013890
 117.5593420   2.1838810  85.7336180 120.4826310   4.3826750  71.0532170
 120.9042730   4.2166620  71.8963560 120.6077150   3.5726980  70.5587310
 122.9953950   3.4064360  68.3009270 123.5159610   2.6913380  67.9350420
 123.6422350   4.0450230  68.6009780 127.5431790   4.8292760  83.6244340
 127.9572810   4.9837840  84.4734760 126.6082790   4.9547980  83.7870120
 128.0153960   2.1688920  85.6283490 128.5974730   1.4141240  85.5403970
 128.1915730   2.6996360  84.8514970 122.3047020   4.7813240  81.5940270
 122.7235130   5.6245970  81.4216510 121.3855650   4.9185280  81.3647050
 124.6410920   2.5129420  82.9778110 124.7607130   1.9170560  83.7172950
 125.5004920   2.5499110  82.5579410 126.9798820   3.0666610  81.5540620
 126.4534040   3.5909230  80.9505760 127.3230160   3.6994000  82.1850350
 120.1554440  11.0866250  82.7098000 119.6175530  11.8112310  82.3906700
 120.4088400  10.6096590  81.9195340 123.0116650  12.3217460  82.9684650
 122.9375350  13.2252600  83.2757020 122.1095490  12.0029360  82.9406720
 123.5601980  11.4875970  70.5911010 124.4552770  11.8260940  70.6129770
 123.5919610  10.7655380  69.9635290 117.1998140   6.8603020  68.8198010
 117.6373010   7.4032690  69.4755590 117.6845870   6.0349970  68.8294350
 114.4143940   9.6492050  76.2718270 114.7446950   8.7813110  76.0396910
 114.8434940   9.8550570  77.1023230 119.0105860   7.9801060  73.9320240
 118.7101400   7.8566030  74.8324150 118.9043350   7.1209650  73.5235970
 114.9034150  10.5162640  79.0099900 114.4665140  10.6963440  79.8424050
 115.4711830  11.2737260  78.8681620 130.5396330  10.0179640  83.2977210
 129.9398320  10.0772200  82.5541130 130.6690230   9.0784620  83.4274060
 131.7797780   7.7597460  68.6346920 130.9490740   7.8274110  69.1054150
 131.9569610   8.6501580  68.3313780 131.2354240   4.5044940  71.1381120
 131.9973150   5.0741590  71.2440810 131.2508610   3.9372140  71.9089430
 114.7358580   3.0282870  75.3688780 114.0807420   2.7594510  74.7248480
 115.5736530   2.9187350  74.9190760 132.2414210   5.3595040  75.9823050
 132.6123040   4.5762360  75.5759020 132.8816140   6.0484140  75.8040350
 129.2247970   6.7431620  81.3953370 128.4107810   7.1728780  81.6579160
 129.6322170   7.3550030  80.7822420 131.2873410   4.7979310  68.2953640
 131.5622250   5.7058190  68.1672860 131.0984150   4.7341840  69.2315630
 131.1838750   2.7348300  73.2883070 130.8082350   1.9676230  72.8564360
 130.4541870   3.1171000  73.7758000 115.7734510   3.4135440  79.9092120
 116.1407550   3.3262840  80.7888140 115.2045330   2.6501990  79.8098980
 130.5738370   1.8819820  82.9222590 130.3424460   1.6532570  82.0220540
 130.8342920   2.8019370  82.8767480 129.2824020  11.4950220  74.9221640
 129.8783090  11.1734790  74.2456060 129.5402170  11.0222040  75.7134910
 117.1886590   7.9268130  85.0712270 117.1456220   7.5561040  85.9526730
 117.3197600   8.8645700  85.2114090 120.8892620   9.4827720  80.6721990
 120.6483980   9.7502280  79.7852510 121.8295260   9.6533450  80.7272850
 132.1496780  11.5022100  81.4732630 131.6555060  11.8990970  80.7559760
 131.5410070  10.8771310  81.8669910 117.0274620  10.8730380  82.1910050
 116.4334940  10.7415080  82.9300090 117.0198460  10.0368520  81.7252150
 129.8336230  12.1445520  78.7519370 129.3739200  12.8961330  78.3777390
 129.2048690  11.4251990  78.6934170 116.6586850   8.2388760  81.1418090
 115.9320910   7.6194050  81.0744040 116.7196000   8.6329370  80.2716170
 120.2631950  10.4533760  77.9267500 120.7796970   9.8421120  77.4015760
 120.9129330  10.9562540  78.4178510 123.0027450  11.3442250  78.7536480
 123.2905260  11.0896550  77.8769490 123.5150670  10.7919610  79.3442050
 114.9416850  11.5563150  74.3514850 114.7738890  10.9233830  75.0496740
 114.0751360  11.7622550  74.0009040 116.5479550  10.2496380  71.7964990
 116.0227170  10.6304410  71.0926950 116.4724130  10.8747150  72.5174700
 123.0699810  12.2658350  86.1204680 123.9967120  12.0302620  86.1640640
 123.0550240  13.0930350  85.6390710 131.3044870  11.8083920  73.1178930
 131.4797060  11.1221660  72.4739850 130.6066440  12.3330970  72.7255600
 119.1472520  12.1978760  70.6714240 119.8791340  11.9138040  70.1238130
 119.4066190  11.9592040  71.5613620 118.3087310   8.3143490  70.6760570
 117.6796190   8.7828590  71.2246400 118.4235140   7.4692710  71.1106760
 129.6377370  11.4928210  85.9445720 130.4302690  10.9977440  85.7371680
 129.9310520  12.1718350  86.5521330 125.7637030   2.3649150  56.8261770
 125.6831080   1.4503760  56.5553480 125.3501450   2.8616220  56.1201480
 123.8955070   4.1428170  58.7071040 123.1197170   3.6628610  58.9969610
 124.5468000   3.4633820  58.5327200 117.9120900   4.4547980  59.5846800
 117.0805780   4.1996690  59.9843310 118.5201880   4.5258750  60.3204720
 127.9162500   8.5488360  57.4870170 127.4544030   7.7775600  57.8157340
 128.7288050   8.5754430  57.9922620 117.8922160   8.4888070  59.7804820
 118.1950200   7.5985810  59.6015040 118.6365750   9.0458290  59.5527070
 124.1425810  10.8346370  57.1074160 123.5237250  11.2903870  56.5368600
 124.9977590  10.9897830  56.7063860 123.3364060   6.8185360  58.7141200
 123.2672340   5.8775300  58.5530330 124.0983920   6.9086770  59.2863770
 125.0089160   5.7185610  54.5006070 124.3906430   6.1835060  53.9368790
 125.5212410   6.4113090  54.9175580 119.8720920   5.2461480  61.1789670
 119.5390300   5.8730400  61.8210740 120.0487600   5.7723360  60.3991340
 119.0840020   7.2142280  62.9938850 119.7014020   7.8893360  62.7123300
 118.2233140   7.6230260  62.9026350 114.3772360   6.4042140  51.8745700
 114.0000340   6.8929240  51.1430600 114.6345430   7.0767420  52.5052230
 130.0017610   8.6781690  60.9093490 129.3181130   9.3480800  60.9010160
 130.5411900   8.8762340  60.1438350 127.5376350  10.5225820  59.6238670
 127.5503510  10.1188110  58.7560930 126.9851570  11.2973110  59.5200100
 128.8321770   7.2442040  54.7128840 128.7218100   6.3016370  54.8378260
 128.8290020   7.6057680  55.5991600 126.9361790   5.4255660  60.9521280
 127.3530580   5.2115770  60.1174740 127.6601610   5.6828450  61.5229900
 124.3742050   2.8707360  54.0691330 123.4471330   2.8044740  54.2979800
 124.5266870   3.8087490  53.9546570 130.8823890   3.8242880  61.0437520
 130.0542520   3.8935970  60.5687650 131.4774370   4.4097190  60.5753350
 128.4039340   4.4327660  54.5726580 127.7851760   4.0947210  53.9252880
 128.3863790   3.7887420  55.2805770 119.9798690   3.3972100  56.8511060
 119.5755690   2.6849350  56.3556960 120.0661810   3.0525340  57.7399100
 120.4480390   7.0839660  59.0150270 120.1508680   6.4785130  58.3358050
 121.3980210   7.1216970  58.9039630 128.5366000  10.6571530  62.6773370
 128.0596560  11.4643720  62.4845980 127.8527790  10.0049860  62.8299580
 119.5398820   6.8221350  65.6658070 118.6427350   7.0461320  65.9131470
 119.5651690   6.9456290  64.7169470 126.5804040   3.6714470  51.5799330
 127.0197320   2.8336900  51.4337150 127.2932460   4.3043870  51.6663470
 118.3670040   3.6934670  64.2415440 118.2277810   4.5657470  64.6102840
 117.4851400   3.3507480  64.0963380 124.6899420   8.6110540  55.5480570
 125.1295330   9.3534870  55.1335960 124.6286310   8.8537110  56.4719530
 120.1650390   9.6356370  66.4500590 120.1365820  10.0399320  65.5829020
 120.0015360   8.7066730  66.2872190 116.6803320   2.2917080  54.3517710
 116.5600920   3.0179170  53.7398980 116.3704210   1.5219990  53.8745620
 132.1165210  10.4183470  67.7464760 132.5924930  10.8966360  68.4253840
 132.7372370  10.3500960  67.0210260 114.3188690   5.4632220  60.1586350
 114.3969110   5.5980990  59.2142070 114.9330370   4.7548110  60.3514470
 115.5636320   7.1632410  56.5692530 115.1564400   7.3047000  55.7146130
 116.4549330   6.8792570  56.3663740 131.5198460   7.6096320  64.9064770
 131.6461520   7.3708200  63.9881950 131.5619840   6.7780860  65.3786850
 125.3815200  11.3124320  63.4759580 125.8959870  11.2232330  64.2782010
 124.5384280  11.6584020  63.7687490 127.3569600  11.5979660  52.9043580
 127.1970740  11.3082600  53.8025410 127.1916310  10.8219790  52.3688810
 119.8357980  11.3778190  54.6815200 119.6600460  10.4613730  54.4683000
 118.9813720  11.7365480  54.9213000 127.0595730   9.1067220  51.4641580
 126.3660890   9.1044510  50.8043860 127.8018590   8.6826540  51.0335750
 126.6245660  10.7329930  55.5390070 127.0802610   9.9519310  55.8528690
 126.9638180  11.4436750  56.0831250 114.3748210   6.5046390  62.6980810
 114.5379250   6.0351750  61.8800180 114.8400660   5.9969950  63.3629650
 120.8718010   1.9785800  50.9809890 120.3034910   1.5304050  50.3545800
 121.5807010   2.3378580  50.4475040 115.9487190   5.8797820  64.8576620
 115.5641980   5.2391490  65.4559580 116.2599380   6.5833940  65.4271350
 122.0984330   2.7274360  60.3385240 122.4654460   2.2532930  61.0846580
 121.9089390   3.6015930  60.6793580 119.8883700   1.7683000  62.6569450
 119.5840770   2.6474980  62.8819810 120.8430160   1.8282790  62.6926890
 118.4165490   5.9743990  53.2536300 117.6427750   5.4341610  53.0935020
 119.1460120   5.4550600  52.9154060 129.1753470   4.9709350  59.0462690
 129.8952590   5.4664640  58.6558800 128.9735290   4.2927240  58.4016560
 124.5572270   5.0418410  64.9331690 124.4909580   4.1214080  64.6789280
 123.9277410   5.1393850  65.6476330 118.4602890   5.6424370  56.8915110
 118.9781560   4.8392630  56.8372000 118.0086910   5.5803510  57.7331940
 123.3472390   6.9090650  52.1642410 123.6888090   7.6532880  51.6685730
 122.5185100   7.2221770  52.5267240 115.9447430   2.6085740  63.8040810
 115.5862370   3.2739590  64.3914150 115.6501990   1.7769290  64.1753430
 119.1460550   3.0669980  66.6880360 118.8460690   3.2127160  65.7908180
 119.9171790   2.5075270  66.5953750 124.4889000   7.8638980  64.6835490
 124.5033540   6.9319940  64.4654400 123.7814100   7.9498740  65.3225260
 129.6226070   2.0478800  50.9534100 129.5389790   2.4793020  50.1030540
 130.3420260   2.5077150  51.3860920 130.7000210   4.5046320  64.0304070
 129.9748400   5.0975100  63.8333460 131.2275670   4.4969860  63.2317440
 130.6513320   8.9021060  53.6816230 130.0089480   8.2476680  53.9559950
 130.2643980   9.3076150  52.9056900 126.2299800   6.2306490  57.5287920
 126.5823620   5.6334620  56.8689290 125.3462130   5.9050720  57.6996170
 122.3163080   6.9904180  54.9358330 123.0034210   7.5373390  55.3165920
 121.5295500   7.5344910  54.9707940 114.4555480   2.6077000  50.4275410
 115.3250330   2.8901800  50.7111330 113.9645800   3.4212870  50.3124220
 121.6190290   3.9950210  54.5483690 122.0753070   4.8055460  54.7743880
 121.2678500   3.6773350  55.3802180 123.9222900   9.5056550  61.7775990
 124.5665120   9.7115930  62.4549410 124.2852340   8.7444950  61.3246840
 125.1954980   7.5088900  60.4953440 125.8377210   6.8082060  60.6085610
 125.7204330   8.2887340  60.3150330 129.0410700   7.7937520  50.2192580
 128.8148280   7.0767960  50.8117220 128.6506900   7.5449960  49.3814330
 126.9692600   8.3083800  63.6989500 127.3048840   8.8950490  64.3767420
 126.0492940   8.1776510  63.9287290 114.8226730  11.8204380  50.9937040
 115.1824370  12.4193720  50.3394310 114.6819070  12.3664270  51.7672070
 128.6226950   5.7109460  51.8806740 128.3348650   6.1722150  52.6684620
 129.4179120   5.2507230  52.1490960 114.8068590  10.0859240  65.4679440
 114.9159710   9.1453980  65.3274830 114.1549150  10.3513990  64.8193170
 122.7981180   8.3575130  66.8677560 122.4778050   7.6384370  67.4123250
 122.1239540   9.0330200  66.9413620 120.8395350   9.2035580  51.8110710
 120.8305450   9.9365270  51.1955220 119.9193710   8.9567160  51.9037670
 116.4401990   4.4250470  52.5557470 115.8329940   5.1649370  52.5652770
 116.9151340   4.5149830  51.7295670 123.8254950   9.2663820  50.4735900
 123.9266930   9.0627810  49.5437880 122.9256690   9.0122100  50.6783680
 122.4673060  11.7850140  55.1683570 122.7214560  11.7471530  54.2462940
 121.5185540  11.6583470  55.1611820 128.4725640   2.7042020  56.7442080
 127.5315780   2.7192250  56.9189770 128.7869710   1.9177980  57.1902380
 118.4507280   4.3861620  50.3046040 119.2170550   4.2742980  50.8671470
 118.5281970   3.6899590  49.6522810 130.4751220   9.8750870  58.4196340
 130.5998640  10.6982040  58.8920150 131.3416780   9.6641600  58.0720490
 117.9468750  11.9682080  58.0913470 118.6831230  11.4197540  58.3622040
 118.3309670  12.8338090  57.9519460 114.8314230   8.0355650  53.9654980
 113.9054010   8.2776790  53.9560390 115.2970660   8.8629910  53.8439730
 116.9527030  11.1528150  67.2799050 117.7539760  11.4740200  67.6934450
 116.4378850  10.7923730  68.0018960 121.0571060  11.1412390  49.9139040
 121.8499670  11.4301220  49.4620830 120.5375410  10.7104560  49.2351520
 125.7891660   7.2608020  67.2274460 125.1829820   7.2839620  66.4870210
 125.4845770   6.5291060  67.7641710 127.2192030  10.9888310  65.8383870
 128.1713780  10.9046330  65.7884110 127.0720250  11.6530020  66.5117660
 130.1101230  10.3682520  51.3375780 129.8242740   9.9547660  50.5229960
 129.9120780  11.2970230  51.2176300 114.6724840   3.6401610  66.2235100
 115.1763860   3.0608890  66.7951330 113.9332260   3.9241840  66.7611470
 121.5748460   6.3615800  49.7781390 121.4699100   5.7468150  50.5042770
 121.4072680   5.8381690  48.9944400 121.7262780   5.0472600  65.7570620
 120.9608450   5.6157600  65.6725290 121.9078740   4.7548810  64.8638850
 124.8151190   5.4235830  50.3823380 124.2661290   5.8705130  51.0266120
 125.4370450   4.9185080  50.9061050 128.8686130   6.7777930  66.3145640
 129.6095600   7.1153690  65.8113100 128.1058810   6.9469990  65.7615410
 116.7047920   1.7831200  67.1185170 116.7453260   1.4845070  68.0270400
 117.5593420   2.1838810  66.9592690 120.4826310   4.3826750  52.2788680
 120.9042730   4.2166620  53.1220070 120.6077150   3.5726980  51.7843820
 122.9953950   3.4064360  49.5265780 123.5159610   2.6913380  49.1606930
 123.6422350   4.0450230  49.8266290 127.5431790   4.8292760  64.8500850
 127.9572810   4.9837840  65.6991270 126.6082790   4.9547980  65.0126630
 128.0153960   2.1688920  66.8540000 128.5974730   1.4141240  66.7660480
 128.1915730   2.6996360  66.0771480 122.3047020   4.7813240  62.8196780
 122.7235130   5.6245970  62.6473020 121.3855650   4.9185280  62.5903560
 124.6410920   2.5129420  64.2034620 124.7607130   1.9170560  64.9429460
 125.5004920   2.5499110  63.7835920 126.9798820   3.0666610  62.7797130
 126.4534040   3.5909230  62.1762270 127.3230160   3.6994000  63.4106860
 120.1554440  11.0866250  63.9354510 119.6175530  11.8112310  63.6163210
 120.4088400  10.6096590  63.1451850 123.0116650  12.3217460  64.1941160
 122.9375350  13.2252600  64.5013530 122.1095490  12.0029360  64.1663230
 123.5601980  11.4875970  51.8167520 124.4552770  11.8260940  51.8386280
 123.5919610  10.7655380  51.1891800 117.1998140   6.8603020  50.0454520
 117.6373010   7.4032690  50.7012100 117.6845870   6.0349970  50.0550860
 114.4143940   9.6492050  57.4974780 114.7446950   8.7813110  57.2653420
 114.8434940   9.8550570  58.3279740 119.0105860   7.9801060  55.1576750
 118.7101400   7.8566030  56.0580660 118.9043350   7.1209650  54.7492480
 114.9034150  10.5162640  60.2356410 114.4665140  10.6963440  61.0680560
 115.4711830  11.2737260  60.0938130 130.5396330  10.0179640  64.5233720
 129.9398320  10.0772200  63.7797640 130.6690230   9.0784620  64.6530570
 131.7797780   7.7597460  49.8603430 130.9490740   7.8274110  50.3310660
 131.9569610   8.6501580  49.5570290 131.2354240   4.5044940  52.3637630
 131.9973150   5.0741590  52.4697320 131.2508610   3.9372140  53.1345940
 114.7358580   3.0282870  56.5945290 114.0807420   2.7594510  55.9504990
 115.5736530   2.9187350  56.1447270 132.2414210   5.3595040  57.2079560
 132.6123040   4.5762360  56.8015530 132.8816140   6.0484140  57.0296860
 129.2247970   6.7431620  62.6209880 128.4107810   7.1728780  62.8835670
 129.6322170   7.3550030  62.0078930 131.2873410   4.7979310  49.5210150
 131.5622250   5.7058190  49.3929370 131.0984150   4.7341840  50.4572140
 131.1838750   2.7348300  54.5139580 130.8082350   1.9676230  54.0820870
 130.4541870   3.1171000  55.0014510 115.7734510   3.4135440  61.1348630
 116.1407550   3.3262840  62.0144650 115.2045330   2.6501990  61.0355490
 130.5738370   1.8819820  64.1479100 130.3424460   1.6532570  63.2477050
 130.8342920   2.8019370  64.1023990 129.2824020  11.4950220  56.1478150
 129.8783090  11.1734790  55.4712570 129.5402170  11.0222040  56.9391420
 117.1886590   7.9268130  66.2968780 117.1456220   7.5561040  67.1783240
 117.3197600   8.8645700  66.4370600 120.8892620   9.4827720  61.8978500
 120.6483980   9.7502280  61.0109020 121.8295260   9.6533450  61.9529360
 132.1496780  11.5022100  62.6989140 131.6555060  11.8990970  61.9816270
 131.5410070  10.8771310  63.0926420 117.0274620  10.8730380  63.4166560
 116.4334940  10.7415080  64.1556600 117.0198460  10.0368520  62.9508660
 129.8336230  12.1445520  59.9775880 129.3739200  12.8961330  59.6033900
 129.2048690  11.4251990  59.9190680 116.6586850   8.2388760  62.3674600
 115.9320910   7.6194050  62.3000550 116.7196000   8.6329370  61.4972680
 120.2631950  10.4533760  59.1524010 120.7796970   9.8421120  58.6272270
 120.9129330  10.9562540  59.6435020 123.0027450  11.3442250  59.9792990
 123.2905260  11.0896550  59.1026000 123.5150670  10.7919610  60.5698560
 114.9416850  11.5563150  55.5771360 114.7738890  10.9233830  56.2753250
 114.0751360  11.7622550  55.2265550 116.5479550  10.2496380  53.0221500
 116.0227170  10.6304410  52.3183460 116.4724130  10.8747150  53.7431210
 123.0699810  12.2658350  67.3461190 123.9967120  12.0302620  67.3897150
 123.0550240  13.0930350  66.8647220 131.3044870  11.8083920  54.3435440
 131.4797060  11.1221660  53.6996360 130.6066440  12.3330970  53.9512110
 119.1472520  12.1978760  51.8970750 119.8791340  11.9138040  51.3494640
 119.4066190  11.9592040  52.7870130 118.3087310   8.3143490  51.9017080
 117.6796190   8.7828590  52.4502910 118.4235140   7.4692710  52.3363270
 129.6377370  11.4928210  67.1702230 130.4302690  10.9977440  66.9628190
 129.9310520  12.1718350  67.7777840 125.7637030   2.3649150  38.0518280
 125.6831080   1.4503760  37.7809990 125.3501450   2.8616220  37.3457990
 123.8955070   4.1428170  39.9327550 123.1197170   3.6628610  40.2226120
 124.5468000   3.4633820  39.7583710 117.9120900   4.4547980  40.8103310
 117.0805780   4.1996690  41.2099820 118.5201880   4.5258750  41.5461230
 127.9162500   8.5488360  38.7126680 127.4544030   7.7775600  39.0413850
 128.7288050   8.5754430  39.2179130 117.8922160   8.4888070  41.0061330
 118.1950200   7.5985810  40.8271550 118.6365750   9.0458290  40.7783580
 124.1425810  10.8346370  38.3330670 123.5237250  11.2903870  37.7625110
 124.9977590  10.9897830  37.9320370 123.3364060   6.8185360  39.9397710
 123.2672340   5.8775300  39.7786840 124.0983920   6.9086770  40.5120280
 125.0089160   5.7185610  35.7262580 124.3906430   6.1835060  35.1625300
 125.5212410   6.4113090  36.1432090 119.8720920   5.2461480  42.4046180
 119.5390300   5.8730400  43.0467250 120.0487600   5.7723360  41.6247850
 119.0840020   7.2142280  44.2195360 119.7014020   7.8893360  43.9379810
 118.2233140   7.6230260  44.1282860 114.3772360   6.4042140  33.1002210
 114.0000340   6.8929240  32.3687110 114.6345430   7.0767420  33.7308740
 130.0017610   8.6781690  42.1350000 129.3181130   9.3480800  42.1266670
 130.5411900   8.8762340  41.3694860 127.5376350  10.5225820  40.8495180
 127.5503510  10.1188110  39.9817440 126.9851570  11.2973110  40.7456610
 128.8321770   7.2442040  35.9385350 128.7218100   6.3016370  36.0634770
 128.8290020   7.6057680  36.8248110 126.9361790   5.4255660  42.1777790
 127.3530580   5.2115770  41.3431250 127.6601610   5.6828450  42.7486410
 124.3742050   2.8707360  35.2947840 123.4471330   2.8044740  35.5236310
 124.5266870   3.8087490  35.1803080 130.8823890   3.8242880  42.2694030
 130.0542520   3.8935970  41.7944160 131.4774370   4.4097190  41.8009860
 128.4039340   4.4327660  35.7983090 127.7851760   4.0947210  35.1509390
 128.3863790   3.7887420  36.5062280 119.9798690   3.3972100  38.0767570
 119.5755690   2.6849350  37.5813470 120.0661810   3.0525340  38.9655610
 120.4480390   7.0839660  40.2406780 120.1508680   6.4785130  39.5614560
 121.3980210   7.1216970  40.1296140 128.5366000  10.6571530  43.9029880
 128.0596560  11.4643720  43.7102490 127.8527790  10.0049860  44.0556090
 119.5398820   6.8221350  46.8914580 118.6427350   7.0461320  47.1387980
 119.5651690   6.9456290  45.9425980 126.5804040   3.6714470  32.8055840
 127.0197320   2.8336900  32.6593660 127.2932460   4.3043870  32.8919980
 118.3670040   3.6934670  45.4671950 118.2277810   4.5657470  45.8359350
 117.4851400   3.3507480  45.3219890 124.6899420   8.6110540  36.7737080
 125.1295330   9.3534870  36.3592470 124.6286310   8.8537110  37.6976040
 120.1650390   9.6356370  47.6757100 120.1365820  10.0399320  46.8085530
 120.0015360   8.7066730  47.5128700 116.6803320   2.2917080  35.5774220
 116.5600920   3.0179170  34.9655490 116.3704210   1.5219990  35.1002130
 132.1165210  10.4183470  48.9721270 132.5924930  10.8966360  49.6510350
 132.7372370  10.3500960  48.2466770 114.3188690   5.4632220  41.3842860
 114.3969110   5.5980990  40.4398580 114.9330370   4.7548110  41.5770980
 115.5636320   7.1632410  37.7949040 115.1564400   7.3047000  36.9402640
 116.4549330   6.8792570  37.5920250 131.5198460   7.6096320  46.1321280
 131.6461520   7.3708200  45.2138460 131.5619840   6.7780860  46.6043360
 125.3815200  11.3124320  44.7016090 125.8959870  11.2232330  45.5038520
 124.5384280  11.6584020  44.9944000 127.3569600  11.5979660  34.1300090
 127.1970740  11.3082600  35.0281920 127.1916310  10.8219790  33.5945320
 119.8357980  11.3778190  35.9071710 119.6600460  10.4613730  35.6939510
 118.9813720  11.7365480  36.1469510 127.0595730   9.1067220  32.6898090
 126.3660890   9.1044510  32.0300370 127.8018590   8.6826540  32.2592260
 126.6245660  10.7329930  36.7646580 127.0802610   9.9519310  37.0785200
 126.9638180  11.4436750  37.3087760 114.3748210   6.5046390  43.9237320
 114.5379250   6.0351750  43.1056690 114.8400660   5.9969950  44.5886160
 120.8718010   1.9785800  32.2066400 120.3034910   1.5304050  31.5802310
 121.5807010   2.3378580  31.6731550 115.9487190   5.8797820  46.0833130
 115.5641980   5.2391490  46.6816090 116.2599380   6.5833940  46.6527860
 122.0984330   2.7274360  41.5641750 122.4654460   2.2532930  42.3103090
 121.9089390   3.6015930  41.9050090 119.8883700   1.7683000  43.8825960
 119.5840770   2.6474980  44.1076320 120.8430160   1.8282790  43.9183400
 118.4165490   5.9743990  34.4792810 117.6427750   5.4341610  34.3191530
 119.1460120   5.4550600  34.1410570 129.1753470   4.9709350  40.2719200
 129.8952590   5.4664640  39.8815310 128.9735290   4.2927240  39.6273070
 124.5572270   5.0418410  46.1588200 124.4909580   4.1214080  45.9045790
 123.9277410   5.1393850  46.8732840 118.4602890   5.6424370  38.1171620
 118.9781560   4.8392630  38.0628510 118.0086910   5.5803510  38.9588450
 123.3472390   6.9090650  33.3898920 123.6888090   7.6532880  32.8942240
 122.5185100   7.2221770  33.7523750 115.9447430   2.6085740  45.0297320
 115.5862370   3.2739590  45.6170660 115.6501990   1.7769290  45.4009940
 119.1460550   3.0669980  47.9136870 118.8460690   3.2127160  47.0164690
 119.9171790   2.5075270  47.8210260 124.4889000   7.8638980  45.9092000
 124.5033540   6.9319940  45.6910910 123.7814100   7.9498740  46.5481770
 129.6226070   2.0478800  32.1790610 129.5389790   2.4793020  31.3287050
 130.3420260   2.5077150  32.6117430 130.7000210   4.5046320  45.2560580
 129.9748400   5.0975100  45.0589970 131.2275670   4.4969860  44.4573950
 130.6513320   8.9021060  34.9072740 130.0089480   8.2476680  35.1816460
 130.2643980   9.3076150  34.1313410 126.2299800   6.2306490  38.7544430
 126.5823620   5.6334620  38.0945800 125.3462130   5.9050720  38.9252680
 122.3163080   6.9904180  36.1614840 123.0034210   7.5373390  36.5422430
 121.5295500   7.5344910  36.1964450 114.4555480   2.6077000  31.6531920
 115.3250330   2.8901800  31.9367840 113.9645800   3.4212870  31.5380730
 121.6190290   3.9950210  35.7740200 122.0753070   4.8055460  36.0000390
 121.2678500   3.6773350  36.6058690 123.9222900   9.5056550  43.0032500
 124.5665120   9.7115930  43.6805920 124.2852340   8.7444950  42.5503350
 125.1954980   7.5088900  41.7209950 125.8377210   6.8082060  41.8342120
 125.7204330   8.2887340  41.5406840 129.0410700   7.7937520  31.4449090
 128.8148280   7.0767960  32.0373730 128.6506900   7.5449960  30.6070840
 126.9692600   8.3083800  44.9246010 127.3048840   8.8950490  45.6023930
 126.0492940   8.1776510  45.1543800 114.8226730  11.8204380  32.2193550
 115.1824370  12.4193720  31.5650820 114.6819070  12.3664270  32.9928580
 128.6226950   5.7109460  33.1063250 128.3348650   6.1722150  33.8941130
 129.4179120   5.2507230  33.3747470 114.8068590  10.0859240  46.6935950
 114.9159710   9.1453980  46.5531340 114.1549150  10.3513990  46.0449680
 122.7981180   8.3575130  48.0934070 122.4778050   7.6384370  48.6379760
 122.1239540   9.0330200  48.1670130 120.8395350   9.2035580  33.0367220
 120.8305450   9.9365270  32.4211730 119.9193710   8.9567160  33.1294180
 116.4401990   4.4250470  33.7813980 115.8329940   5.1649370  33.7909280
 116.9151340   4.5149830  32.9552180 123.8254950   9.2663820  31.6992410
 123.9266930   9.0627810  30.7694390 122.9256690   9.0122100  31.9040190
 122.4673060  11.7850140  36.3940080 122.7214560  11.7471530  35.4719450
 121.5185540  11.6583470  36.3868330 128.4725640   2.7042020  37.9698590
 127.5315780   2.7192250  38.1446280 128.7869710   1.9177980  38.4158890
 118.4507280   4.3861620  31.5302550 119.2170550   4.2742980  32.0927980
 118.5281970   3.6899590  30.8779320 130.4751220   9.8750870  39.6452850
 130.5998640  10.6982040  40.1176660 131.3416780   9.6641600  39.2977000
 117.9468750  11.9682080  39.3169980 118.6831230  11.4197540  39.5878550
 118.3309670  12.8338090  39.1775970 114.8314230   8.0355650  35.1911490
 113.9054010   8.2776790  35.1816900 115.2970660   8.8629910  35.0696240
 116.9527030  11.1528150  48.5055560 117.7539760  11.4740200  48.9190960
 116.4378850  10.7923730  49.2275470 121.0571060  11.1412390  31.1395550
 121.8499670  11.4301220  30.6877340 120.5375410  10.7104560  30.4608030
 125.7891660   7.2608020  48.4530970 125.1829820   7.2839620  47.7126720
 125.4845770   6.5291060  48.9898220 127.2192030  10.9888310  47.0640380
 128.1713780  10.9046330  47.0140620 127.0720250  11.6530020  47.7374170
 130.1101230  10.3682520  32.5632290 129.8242740   9.9547660  31.7486470
 129.9120780  11.2970230  32.4432810 114.6724840   3.6401610  47.4491610
 115.1763860   3.0608890  48.0207840 113.9332260   3.9241840  47.9867980
 121.5748460   6.3615800  31.0037900 121.4699100   5.7468150  31.7299280
 121.4072680   5.8381690  30.2200910 121.7262780   5.0472600  46.9827130
 120.9608450   5.6157600  46.8981800 121.9078740   4.7548810  46.0895360
 124.8151190   5.4235830  31.6079890 124.2661290   5.8705130  32.2522630
 125.4370450   4.9185080  32.1317560 128.8686130   6.7777930  47.5402150
 129.6095600   7.1153690  47.0369610 128.1058810   6.9469990  46.9871920
 116.7047920   1.7831200  48.3441680 116.7453260   1.4845070  49.2526910
 117.5593420   2.1838810  48.1849200 120.4826310   4.3826750  33.5045190
 120.9042730   4.2166620  34.3476580 120.6077150   3.5726980  33.0100330
 122.9953950   3.4064360  30.7522290 123.5159610   2.6913380  30.3863440
 123.6422350   4.0450230  31.0522800 127.5431790   4.8292760  46.0757360
 127.9572810   4.9837840  46.9247780 126.6082790   4.9547980  46.2383140
 128.0153960   2.1688920  48.0796510 128.5974730   1.4141240  47.9916990
 128.1915730   2.6996360  47.3027990 122.3047020   4.7813240  44.0453290
 122.7235130   5.6245970  43.8729530 121.3855650   4.9185280  43.8160070
 124.6410920   2.5129420  45.4291130 124.7607130   1.9170560  46.1685970
 125.5004920   2.5499110  45.0092430 126.9798820   3.0666610  44.0053640
 126.4534040   3.5909230  43.4018780 127.3230160   3.6994000  44.6363370
 120.1554440  11.0866250  45.1611020 119.6175530  11.8112310  44.8419720
 120.4088400  10.6096590  44.3708360 123.0116650  12.3217460  45.4197670
 122.9375350  13.2252600  45.7270040 122.1095490  12.0029360  45.3919740
 123.5601980  11.4875970  33.0424030 124.4552770  11.8260940  33.0642790
 123.5919610  10.7655380  32.4148310 117.1998140   6.8603020  31.2711030
 117.6373010   7.4032690  31.9268610 117.6845870   6.0349970  31.2807370
 114.4143940   9.6492050  38.7231290 114.7446950   8.7813110  38.4909930
 114.8434940   9.8550570  39.5536250 119.0105860   7.9801060  36.3833260
 118.7101400   7.8566030  37.2837170 118.9043350   7.1209650  35.9748990
 114.9034150  10.5162640  41.4612920 114.4665140  10.6963440  42.2937070
 115.4711830  11.2737260  41.3194640 130.5396330  10.0179640  45.7490230
 129.9398320  10.0772200  45.0054150 130.6690230   9.0784620  45.8787080
 131.7797780   7.7597460  31.0859940 130.9490740   7.8274110  31.5567170
 131.9569610   8.6501580  30.7826800 131.2354240   4.5044940  33.5894140
 131.9973150   5.0741590  33.6953830 131.2508610   3.9372140  34.3602450
 114.7358580   3.0282870  37.8201800 114.0807420   2.7594510  37.1761500
 115.5736530   2.9187350  37.3703780 132.2414210   5.3595040  38.4336070
 132.6123040   4.5762360  38.0272040 132.8816140   6.0484140  38.2553370
 129.2247970   6.7431620  43.8466390 128.4107810   7.1728780  44.1092180
 129.6322170   7.3550030  43.2335440 131.2873410   4.7979310  30.7466660
 131.5622250   5.7058190  30.6185880 131.0984150   4.7341840  31.6828650
 131.1838750   2.7348300  35.7396090 130.8082350   1.9676230  35.3077380
 130.4541870   3.1171000  36.2271020 115.7734510   3.4135440  42.3605140
 116.1407550   3.3262840  43.2401160 115.2045330   2.6501990  42.2612000
 130.5738370   1.8819820  45.3735610 130.3424460   1.6532570  44.4733560
 130.8342920   2.8019370  45.3280500 129.2824020  11.4950220  37.3734660
 129.8783090  11.1734790  36.6969080 129.5402170  11.0222040  38.1647930
 117.1886590   7.9268130  47.5225290 117.1456220   7.5561040  48.4039750
 117.3197600   8.8645700  47.6627110 120.8892620   9.4827720  43.1235010
 120.6483980   9.7502280  42.2365530 121.8295260   9.6533450  43.1785870
 132.1496780  11.5022100  43.9245650 131.6555060  11.8990970  43.2072780
 131.5410070  10.8771310  44.3182930 117.0274620  10.8730380  44.6423070
 116.4334940  10.7415080  45.3813110 117.0198460  10.0368520  44.1765170
 129.8336230  12.1445520  41.2032390 129.3739200  12.8961330  40.8290410
 129.2048690  11.4251990  41.1447190 116.6586850   8.2388760  43.5931110
 115.9320910   7.6194050  43.5257060 116.7196000   8.6329370  42.7229190
 120.2631950  10.4533760  40.3780520 120.7796970   9.8421120  39.8528780
 120.9129330  10.9562540  40.8691530 123.0027450  11.3442250  41.2049500
 123.2905260  11.0896550  40.3282510 123.5150670  10.7919610  41.7955070
 114.9416850  11.5563150  36.8027870 114.7738890  10.9233830  37.5009760
 114.0751360  11.7622550  36.4522060 116.5479550  10.2496380  34.2478010
 116.0227170  10.6304410  33.5439970 116.4724130  10.8747150  34.9687720
 123.0699810  12.2658350  48.5717700 123.9967120  12.0302620  48.6153660
 123.0550240  13.0930350  48.0903730 131.3044870  11.8083920  35.5691950
 131.4797060  11.1221660  34.9252870 130.6066440  12.3330970  35.1768620
 119.1472520  12.1978760  33.1227260 119.8791340  11.9138040  32.5751150
 119.4066190  11.9592040  34.0126640 118.3087310   8.3143490  33.1273590
 117.6796190   8.7828590  33.6759420 118.4235140   7.4692710  33.5619780
 129.6377370  11.4928210  48.3958740 130.4302690  10.9977440  48.1884700
 129.9310520  12.1718350  49.0034350 125.7637030   2.3649150  19.2774790
 125.6831080   1.4503760  19.0066500 125.3501450   2.8616220  18.5714500
 123.8955070   4.1428170  21.1584060 123.1197170   3.6628610  21.4482630
 124.5468000   3.4633820  20.9840220 117.9120900   4.4547980  22.0359820
 117.0805780   4.1996690  22.4356330 118.5201880   4.5258750  22.7717740
 127.9162500   8.5488360  19.9383190 127.4544030   7.7775600  20.2670360
 128.7288050   8.5754430  20.4435640 117.8922160   8.4888070  22.2317840
 118.1950200   7.5985810  22.0528060 118.6365750   9.0458290  22.0040090
 124.1425810  10.8346370  19.5587180 123.5237250  11.2903870  18.9881620
 124.9977590  10.9897830  19.1576880 123.3364060   6.8185360  21.1654220
 123.2672340   5.8775300  21.0043350 124.0983920   6.9086770  21.7376790
 125.0089160   5.7185610  16.9519090 124.3906430   6.1835060  16.3881810
 125.5212410   6.4113090  17.3688600 119.8720920   5.2461480  23.6302690
 119.5390300   5.8730400  24.2723760 120.0487600   5.7723360  22.8504360
 119.0840020   7.2142280  25.4451870 119.7014020   7.8893360  25.1636320
 118.2233140   7.6230260  25.3539370 114.3772360   6.4042140  14.3258720
 114.0000340   6.8929240  13.5943620 114.6345430   7.0767420  14.9565250
 130.0017610   8.6781690  23.3606510 129.3181130   9.3480800  23.3523180
 130.5411900   8.8762340  22.5951370 127.5376350  10.5225820  22.0751690
 127.5503510  10.1188110  21.2073950 126.9851570  11.2973110  21.9713120
 128.8321770   7.2442040  17.1641860 128.7218100   6.3016370  17.2891280
 128.8290020   7.6057680  18.0504620 126.9361790   5.4255660  23.4034300
 127.3530580   5.2115770  22.5687760 127.6601610   5.6828450  23.9742920
 124.3742050   2.8707360  16.5204350 123.4471330   2.8044740  16.7492820
 124.5266870   3.8087490  16.4059590 130.8823890   3.8242880  23.4950540
 130.0542520   3.8935970  23.0200670 131.4774370   4.4097190  23.0266370
 128.4039340   4.4327660  17.0239600 127.7851760   4.0947210  16.3765900
 128.3863790   3.7887420  17.7318790 119.9798690   3.3972100  19.3024080
 119.5755690   2.6849350  18.8069980 120.0661810   3.0525340  20.1912120
 120.4480390   7.0839660  21.4663290 120.1508680   6.4785130  20.7871070
 121.3980210   7.1216970  21.3552650 128.5366000  10.6571530  25.1286390
 128.0596560  11.4643720  24.9359000 127.8527790  10.0049860  25.2812600
 119.5398820   6.8221350  28.1171090 118.6427350   7.0461320  28.3644490
 119.5651690   6.9456290  27.1682490 126.5804040   3.6714470  14.0312350
 127.0197320   2.8336900  13.8850170 127.2932460   4.3043870  14.1176490
 118.3670040   3.6934670  26.6928460 118.2277810   4.5657470  27.0615860
 117.4851400   3.3507480  26.5476400 124.6899420   8.6110540  17.9993590
 125.1295330   9.3534870  17.5848980 124.6286310   8.8537110  18.9232550
 120.1650390   9.6356370  28.9013610 120.1365820  10.0399320  28.0342040
 120.0015360   8.7066730  28.7385210 116.6803320   2.2917080  16.8030730
 116.5600920   3.0179170  16.1912000 116.3704210   1.5219990  16.3258640
 132.1165210  10.4183470  30.1977780 132.5924930  10.8966360  30.8766860
 132.7372370  10.3500960  29.4723280 114.3188690   5.4632220  22.6099370
 114.3969110   5.5980990  21.6655090 114.9330370   4.7548110  22.8027490
 115.5636320   7.1632410  19.0205550 115.1564400   7.3047000  18.1659150
 116.4549330   6.8792570  18.8176760 131.5198460   7.6096320  27.3577790
 131.6461520   7.3708200  26.4394970 131.5619840   6.7780860  27.8299870
 125.3815200  11.3124320  25.9272600 125.8959870  11.2232330  26.7295030
 124.5384280  11.6584020  26.2200510 127.3569600  11.5979660  15.3556600
 127.1970740  11.3082600  16.2538430 127.1916310  10.8219790  14.8201830
 119.8357980  11.3778190  17.1328220 119.6600460  10.4613730  16.9196020
 118.9813720  11.7365480  17.3726020 127.0595730   9.1067220  13.9154600
 126.3660890   9.1044510  13.2556880 127.8018590   8.6826540  13.4848770
 126.6245660  10.7329930  17.9903090 127.0802610   9.9519310  18.3041710
 126.9638180  11.4436750  18.5344270 114.3748210   6.5046390  25.1493830
 114.5379250   6.0351750  24.3313200 114.8400660   5.9969950  25.8142670
 120.8718010   1.9785800  13.4322910 120.3034910   1.5304050  12.8058820
 121.5807010   2.3378580  12.8988060 115.9487190   5.8797820  27.3089640
 115.5641980   5.2391490  27.9072600 116.2599380   6.5833940  27.8784370
 122.0984330   2.7274360  22.7898260 122.4654460   2.2532930  23.5359600
 121.9089390   3.6015930  23.1306600 119.8883700   1.7683000  25.1082470
 119.5840770   2.6474980  25.3332830 120.8430160   1.8282790  25.1439910
 118.4165490   5.9743990  15.7049320 117.6427750   5.4341610  15.5448040
 119.1460120   5.4550600  15.3667080 129.1753470   4.9709350  21.4975710
 129.8952590   5.4664640  21.1071820 128.9735290   4.2927240  20.8529580
 124.5572270   5.0418410  27.3844710 124.4909580   4.1214080  27.1302300
 123.9277410   5.1393850  28.0989350 118.4602890   5.6424370  19.3428130
 118.9781560   4.8392630  19.2885020 118.0086910   5.5803510  20.1844960
 123.3472390   6.9090650  14.6155430 123.6888090   7.6532880  14.1198750
 122.5185100   7.2221770  14.9780260 115.9447430   2.6085740  26.2553830
 115.5862370   3.2739590  26.8427170 115.6501990   1.7769290  26.6266450
 119.1460550   3.0669980  29.1393380 118.8460690   3.2127160  28.2421200
 119.9171790   2.5075270  29.0466770 124.4889000   7.8638980  27.1348510
 124.5033540   6.9319940  26.9167420 123.7814100   7.9498740  27.7738280
 129.6226070   2.0478800  13.4047120 129.5389790   2.4793020  12.5543560
 130.3420260   2.5077150  13.8373940 130.7000210   4.5046320  26.4817090
 129.9748400   5.0975100  26.2846480 131.2275670   4.4969860  25.6830460
 130.6513320   8.9021060  16.1329250 130.0089480   8.2476680  16.4072970
 130.2643980   9.3076150  15.3569920 126.2299800   6.2306490  19.9800940
 126.5823620   5.6334620  19.3202310 125.3462130   5.9050720  20.1509190
 122.3163080   6.9904180  17.3871350 123.0034210   7.5373390  17.7678940
 121.5295500   7.5344910  17.4220960 114.4555480   2.6077000  12.8788430
 115.3250330   2.8901800  13.1624350 113.9645800   3.4212870  12.7637240
 121.6190290   3.9950210  16.9996710 122.0753070   4.8055460  17.2256900
 121.2678500   3.6773350  17.8315200 123.9222900   9.5056550  24.2289010
 124.5665120   9.7115930  24.9062430 124.2852340   8.7444950  23.7759860
 125.1954980   7.5088900  22.9466460 125.8377210   6.8082060  23.0598630
 125.7204330   8.2887340  22.7663350 129.0410700   7.7937520  12.6705600
 128.8148280   7.0767960  13.2630240 128.6506900   7.5449960  11.8327350
 126.9692600   8.3083800  26.1502520 127.3048840   8.8950490  26.8280440
 126.0492940   8.1776510  26.3800310 114.8226730  11.8204380  13.4450060
 115.1824370  12.4193720  12.7907330 114.6819070  12.3664270  14.2185090
 128.6226950   5.7109460  14.3319760 128.3348650   6.1722150  15.1197640
 129.4179120   5.2507230  14.6003980 114.8068590  10.0859240  27.9192460
 114.9159710   9.1453980  27.7787850 114.1549150  10.3513990  27.2706190
 122.7981180   8.3575130  29.3190580 122.4778050   7.6384370  29.8636270
 122.1239540   9.0330200  29.3926640 120.8395350   9.2035580  14.2623730
 120.8305450   9.9365270  13.6468240 119.9193710   8.9567160  14.3550690
 116.4401990   4.4250470  15.0070490 115.8329940   5.1649370  15.0165790
 116.9151340   4.5149830  14.1808690 123.8254950   9.2663820  12.9248920
 123.9266930   9.0627810  11.9950900 122.9256690   9.0122100  13.1296700
 122.4673060  11.7850140  17.6196590 122.7214560  11.7471530  16.6975960
 121.5185540  11.6583470  17.6124840 128.4725640   2.7042020  19.1955100
 127.5315780   2.7192250  19.3702790 128.7869710   1.9177980  19.6415400
 118.4507280   4.3861620  12.7559060 119.2170550   4.2742980  13.3184490
 118.5281970   3.6899590  12.1035830 130.4751220   9.8750870  20.8709360
 130.5998640  10.6982040  21.3433170 131.3416780   9.6641600  20.5233510
 117.9468750  11.9682080  20.5426490 118.6831230  11.4197540  20.8135060
 118.3309670  12.8338090  20.4032480 114.8314230   8.0355650  16.4168000
 113.9054010   8.2776790  16.4073410 115.2970660   8.8629910  16.2952750
 116.9527030  11.1528150  29.7312070 117.7539760  11.4740200  30.1447470
 116.4378850  10.7923730  30.4531980 121.0571060  11.1412390  12.3652060
 121.8499670  11.4301220  11.9133850 120.5375410  10.7104560  11.6864540
 125.7891660   7.2608020  29.6787480 125.1829820   7.2839620  28.9383230
 125.4845770   6.5291060  30.2154730 127.2192030  10.9888310  28.2896890
 128.1713780  10.9046330  28.2397130 127.0720250  11.6530020  28.9630680
 130.1101230  10.3682520  13.7888800 129.8242740   9.9547660  12.9742980
 129.9120780  11.2970230  13.6689320 114.6724840   3.6401610  28.6748120
 115.1763860   3.0608890  29.2464350 113.9332260   3.9241840  29.2124490
 121.5748460   6.3615800  12.2294410 121.4699100   5.7468150  12.9555790
 121.4072680   5.8381690  11.4457420 121.7262780   5.0472600  28.2083640
 120.9608450   5.6157600  28.1238310 121.9078740   4.7548810  27.3151870
 124.8151190   5.4235830  12.8336400 124.2661290   5.8705130  13.4779140
 125.4370450   4.9185080  13.3574070 128.8686130   6.7777930  28.7658660
 129.6095600   7.1153690  28.2626120 128.1058810   6.9469990  28.2128430
 116.7047920   1.7831200  29.5698190 116.7453260   1.4845070  30.4783420
 117.5593420   2.1838810  29.4105710 120.4826310   4.3826750  14.7301700
 120.9042730   4.2166620  15.5733090 120.6077150   3.5726980  14.2356840
 122.9953950   3.4064360  11.9778800 123.5159610   2.6913380  11.6119950
 123.6422350   4.0450230  12.2779310 127.5431790   4.8292760  27.3013870
 127.9572810   4.9837840  28.1504290 126.6082790   4.9547980  27.4639650
 128.0153960   2.1688920  29.3053020 128.5974730   1.4141240  29.2173500
 128.1915730   2.6996360  28.5284500 122.3047020   4.7813240  25.2709800
 122.7235130   5.6245970  25.0986040 121.3855650   4.9185280  25.0416580
 124.6410920   2.5129420  26.6547640 124.7607130   1.9170560  27.3942480
 125.5004920   2.5499110  26.2348940 126.9798820   3.0666610  25.2310150
 126.4534040   3.5909230  24.6275290 127.3230160   3.6994000  25.8619880
 120.1554440  11.0866250  26.3867530 119.6175530  11.8112310  26.0676230
 120.4088400  10.6096590  25.5964870 123.0116650  12.3217460  26.6454180
 122.9375350  13.2252600  26.9526550 122.1095490  12.0029360  26.6176250
 123.5601980  11.4875970  14.2680540 124.4552770  11.8260940  14.2899300
 123.5919610  10.7655380  13.6404820 117.1998140   6.8603020  12.4967540
 117.6373010   7.4032690  13.1525120 117.6845870   6.0349970  12.5063880
 114.4143940   9.6492050  19.9487800 114.7446950   8.7813110  19.7166440
 114.8434940   9.8550570  20.7792760 119.0105860   7.9801060  17.6089770
 118.7101400   7.8566030  18.5093680 118.9043350   7.1209650  17.2005500
 114.9034150  10.5162640  22.6869430 114.4665140  10.6963440  23.5193580
 115.4711830  11.2737260  22.5451150 130.5396330  10.0179640  26.9746740
 129.9398320  10.0772200  26.2310660 130.6690230   9.0784620  27.1043590
 131.7797780   7.7597460  12.3116450 130.9490740   7.8274110  12.7823680
 131.9569610   8.6501580  12.0083310 131.2354240   4.5044940  14.8150650
 131.9973150   5.0741590  14.9210340 131.2508610   3.9372140  15.5858960
 114.7358580   3.0282870  19.0458310 114.0807420   2.7594510  18.4018010
 115.5736530   2.9187350  18.5960290 132.2414210   5.3595040  19.6592580
 132.6123040   4.5762360  19.2528550 132.8816140   6.0484140  19.4809880
 129.2247970   6.7431620  25.0722900 128.4107810   7.1728780  25.3348690
 129.6322170   7.3550030  24.4591950 131.2873410   4.7979310  11.9723170
 131.5622250   5.7058190  11.8442390 131.0984150   4.7341840  12.9085160
 131.1838750   2.7348300  16.9652600 130.8082350   1.9676230  16.5333890
 130.4541870   3.1171000  17.4527530 115.7734510   3.4135440  23.5861650
 116.1407550   3.3262840  24.4657670 115.2045330   2.6501990  23.4868510
 130.5738370   1.8819820  26.5992120 130.3424460   1.6532570  25.6990070
 130.8342920   2.8019370  26.5537010 129.2824020  11.4950220  18.5991170
 129.8783090  11.1734790  17.9225590 129.5402170  11.0222040  19.3904440
 117.1886590   7.9268130  28.7481800 117.1456220   7.5561040  29.6296260
 117.3197600   8.8645700  28.8883620 120.8892620   9.4827720  24.3491520
 120.6483980   9.7502280  23.4622040 121.8295260   9.6533450  24.4042380
 132.1496780  11.5022100  25.1502160 131.6555060  11.8990970  24.4329290
 131.5410070  10.8771310  25.5439440 117.0274620  10.8730380  25.8679580
 116.4334940  10.7415080  26.6069620 117.0198460  10.0368520  25.4021680
 129.8336230  12.1445520  22.4288900 129.3739200  12.8961330  22.0546920
 129.2048690  11.4251990  22.3703700 116.6586850   8.2388760  24.8187620
 115.9320910   7.6194050  24.7513570 116.7196000   8.6329370  23.9485700
 120.2631950  10.4533760  21.6037030 120.7796970   9.8421120  21.0785290
 120.9129330  10.9562540  22.0948040 123.0027450  11.3442250  22.4306010
 123.2905260  11.0896550  21.5539020 123.5150670  10.7919610  23.0211580
 114.9416850  11.5563150  18.0284380 114.7738890  10.9233830  18.7266270
 114.0751360  11.7622550  17.6778570 116.5479550  10.2496380  15.4734520
 116.0227170  10.6304410  14.7696480 116.4724130  10.8747150  16.1944230
 123.0699810  12.2658350  29.7974210 123.9967120  12.0302620  29.8410170
 123.0550240  13.0930350  29.3160240 131.3044870  11.8083920  16.7948460
 131.4797060  11.1221660  16.1509380 130.6066440  12.3330970  16.4025130
 119.1472520  12.1978760  14.3483770 119.8791340  11.9138040  13.8007660
 119.4066190  11.9592040  15.2383150 118.3087310   8.3143490  14.3530100
 117.6796190   8.7828590  14.9015930 118.4235140   7.4692710  14.7876290
 129.6377370  11.4928210  29.6215250 130.4302690  10.9977440  29.4141210
 129.9310520  12.1718350  30.2290860 123.8955070   4.1428170   2.3840570
 123.1197170   3.6628610   2.6739140 124.5468000   3.4633820   2.2096730
 117.9120900   4.4547980   3.2616330 117.0805780   4.1996690   3.6612840
 118.5201880   4.5258750   3.9974250 117.8922160   8.4888070   3.4574350
 118.1950200   7.5985810   3.2784570 118.6365750   9.0458290   3.2296600
 123.3364060   6.8185360   2.3910730 123.2672340   5.8775300   2.2299860
 124.0983920   6.9086770   2.9633300 119.8720920   5.2461480   4.8559200
 119.5390300   5.8730400   5.4980270 120.0487600   5.7723360   4.0760870
 119.0840020   7.2142280   6.6708380 119.7014020   7.8893360   6.3892830
 118.2233140   7.6230260   6.5795880 130.0017610   8.6781690   4.5863020
 129.3181130   9.3480800   4.5779690 130.5411900   8.8762340   3.8207880
 127.5376350  10.5225820   3.3008200 127.5503510  10.1188110   2.4330460
 126.9851570  11.2973110   3.1969630 126.9361790   5.4255660   4.6290810
 127.3530580   5.2115770   3.7944270 127.6601610   5.6828450   5.1999430
 130.8823890   3.8242880   4.7207050 130.0542520   3.8935970   4.2457180
 131.4774370   4.4097190   4.2522880 120.4480390   7.0839660   2.6919800
 120.1508680   6.4785130   2.0127580 121.3980210   7.1216970   2.5809160
 128.5366000  10.6571530   6.3542900 128.0596560  11.4643720   6.1615510
 127.8527790  10.0049860   6.5069110 119.5398820   6.8221350   9.3427600
 118.6427350   7.0461320   9.5901000 119.5651690   6.9456290   8.3939000
 118.3670040   3.6934670   7.9184970 118.2277810   4.5657470   8.2872370
 117.4851400   3.3507480   7.7732910 120.1650390   9.6356370  10.1270120
 120.1365820  10.0399320   9.2598550 120.0015360   8.7066730   9.9641720
 132.1165210  10.4183470  11.4234290 132.5924930  10.8966360  12.1023370
 132.7372370  10.3500960  10.6979790 114.3188690   5.4632220   3.8355880
 114.3969110   5.5980990   2.8911600 114.9330370   4.7548110   4.0284000
 131.5198460   7.6096320   8.5834300 131.6461520   7.3708200   7.6651480
 131.5619840   6.7780860   9.0556380 125.3815200  11.3124320   7.1529110
 125.8959870  11.2232330   7.9551540 124.5384280  11.6584020   7.4457020
 114.3748210   6.5046390   6.3750340 114.5379250   6.0351750   5.5569710
 114.8400660   5.9969950   7.0399180 115.9487190   5.8797820   8.5346150
 115.5641980   5.2391490   9.1329110 116.2599380   6.5833940   9.1040880
 122.0984330   2.7274360   4.0154770 122.4654460   2.2532930   4.7616110
 121.9089390   3.6015930   4.3563110 119.8883700   1.7683000   6.3338980
 119.5840770   2.6474980   6.5589340 120.8430160   1.8282790   6.3696420
 129.1753470   4.9709350   2.7232220 129.8952590   5.4664640   2.3328330
 128.9735290   4.2927240   2.0786090 124.5572270   5.0418410   8.6101220
 124.4909580   4.1214080   8.3558810 123.9277410   5.1393850   9.3245860
 115.9447430   2.6085740   7.4810340 115.5862370   3.2739590   8.0683680
 115.6501990   1.7769290   7.8522960 119.1460550   3.0669980  10.3649890
 118.8460690   3.2127160   9.4677710 119.9171790   2.5075270  10.2723280
 124.4889000   7.8638980   8.3605020 124.5033540   6.9319940   8.1423930
 123.7814100   7.9498740   8.9994790 130.7000210   4.5046320   7.7073600
 129.9748400   5.0975100   7.5102990 131.2275670   4.4969860   6.9086970
 123.9222900   9.5056550   5.4545520 124.5665120   9.7115930   6.1318940
 124.2852340   8.7444950   5.0016370 125.1954980   7.5088900   4.1722970
 125.8377210   6.8082060   4.2855140 125.7204330   8.2887340   3.9919860
 126.9692600   8.3083800   7.3759030 127.3048840   8.8950490   8.0536950
 126.0492940   8.1776510   7.6056820 114.8068590  10.0859240   9.1448970
 114.9159710   9.1453980   9.0044360 114.1549150  10.3513990   8.4962700
 122.7981180   8.3575130  10.5447090 122.4778050   7.6384370  11.0892780
 122.1239540   9.0330200  10.6183150 130.4751220   9.8750870   2.0965870
 130.5998640  10.6982040   2.5689680 131.3416780   9.6641600   1.7490020
 117.9468750  11.9682080   1.7683000 118.6831230  11.4197540   2.0391570
 118.3309670  12.8338090   1.6288990 116.9527030  11.1528150  10.9568580
 117.7539760  11.4740200  11.3703980 116.4378850  10.7923730  11.6788490
 125.7891660   7.2608020  10.9043990 125.1829820   7.2839620  10.1639740
 125.4845770   6.5291060  11.4411240 127.2192030  10.9888310   9.5153400
 128.1713780  10.9046330   9.4653640 127.0720250  11.6530020  10.1887190
 114.6724840   3.6401610   9.9004630 115.1763860   3.0608890  10.4720860
 113.9332260   3.9241840  10.4381000 121.7262780   5.0472600   9.4340150
 120.9608450   5.6157600   9.3494820 121.9078740   4.7548810   8.5408380
 128.8686130   6.7777930   9.9915170 129.6095600   7.1153690   9.4882630
 128.1058810   6.9469990   9.4384940 116.7047920   1.7831200  10.7954700
 116.7453260   1.4845070  11.7039930 117.5593420   2.1838810  10.6362220
 127.5431790   4.8292760   8.5270380 127.9572810   4.9837840   9.3760800
 126.6082790   4.9547980   8.6896160 128.0153960   2.1688920  10.5309530
 128.5974730   1.4141240  10.4430010 128.1915730   2.6996360   9.7541010
 122.3047020   4.7813240   6.4966310 122.7235130   5.6245970   6.3242550
 121.3855650   4.9185280   6.2673090 124.6410920   2.5129420   7.8804150
 124.7607130   1.9170560   8.6198990 125.5004920   2.5499110   7.4605450
 126.9798820   3.0666610   6.4566660 126.4534040   3.5909230   5.8531800
 127.3230160   3.6994000   7.0876390 120.1554440  11.0866250   7.6124040
 119.6175530  11.8112310   7.2932740 120.4088400  10.6096590   6.8221380
 123.0116650  12.3217460   7.8710690 122.9375350  13.2252600   8.1783060
 122.1095490  12.0029360   7.8432760 114.9034150  10.5162640   3.9125940
 114.4665140  10.6963440   4.7450090 115.4711830  11.2737260   3.7707660
 130.5396330  10.0179640   8.2003250 129.9398320  10.0772200   7.4567170
 130.6690230   9.0784620   8.3300100 129.2247970   6.7431620   6.2979410
 128.4107810   7.1728780   6.5605200 129.6322170   7.3550030   5.6848460
 115.7734510   3.4135440   4.8118160 116.1407550   3.3262840   5.6914180
 115.2045330   2.6501990   4.7125020 130.5738370   1.8819820   7.8248630
 130.3424460   1.6532570   6.9246580 130.8342920   2.8019370   7.7793520
 117.1886590   7.9268130   9.9738310 117.1456220   7.5561040  10.8552770
 117.3197600   8.8645700  10.1140130 120.8892620   9.4827720   5.5748030
 120.6483980   9.7502280   4.6878550 121.8295260   9.6533450   5.6298890
 132.1496780  11.5022100   6.3758670 131.6555060  11.8990970   5.6585800
 131.5410070  10.8771310   6.7695950 117.0274620  10.8730380   7.0936090
 116.4334940  10.7415080   7.8326130 117.0198460  10.0368520   6.6278190
 129.8336230  12.1445520   3.6545410 129.3739200  12.8961330   3.2803430
 129.2048690  11.4251990   3.5960210 116.6586850   8.2388760   6.0444130
 115.9320910   7.6194050   5.9770080 116.7196000   8.6329370   5.1742210
 120.2631950  10.4533760   2.8293540 120.7796970   9.8421120   2.3041800
 120.9129330  10.9562540   3.3204550 123.0027450  11.3442250   3.6562520
 123.2905260  11.0896550   2.7795530 123.5150670  10.7919610   4.2468090
 123.0699810  12.2658350  11.0230720 123.9967120  12.0302620  11.0666680
 123.0550240  13.0930350  10.5416750 129.6377370  11.4928210  10.8471760
 130.4302690  10.9977440  10.6397720 129.9310520  12.1718350  11.4547370
 106.9893540 152.5597070 150.6979220 106.9087590 151.6451680 150.4270930
 106.5757960 153.0564140 149.9918930 105.1211580 154.3376090 152.5788490
 104.3453680 153.8576530 152.8687060 105.7724510 153.6581740 152.4044650
  97.5469360 149.6097790 147.2406640  96.6586060 149.9513760 147.1386520
  97.8310550 149.4098110 146.3487470  95.5102370 152.2103440 153.1246340
  96.0818480 151.4425640 153.1249980  95.5103910 152.5092200 152.2152950
 105.5925740 149.8203660 152.8127580 105.9690560 148.9475540 152.7001250
 105.4945250 150.1562360 151.9218020  99.7230750 148.1929290 148.2745020
  99.8297500 149.0933020 148.5813780  98.8123110 148.1447260 147.9839670
 109.3749860 147.3154100 149.7455920 110.1959480 146.8250670 149.7881400
 109.4083940 147.9051760 150.4987760 109.6111340 149.2554480 152.5183460
 108.9066910 149.5439370 153.0986570 109.9723500 150.0654590 152.1583020
 103.2117800 145.0006450 151.2048660 103.5192780 144.4453340 150.4884160
 102.2818500 145.1350910 151.0221650 105.5998560 153.0655280 147.9408780
 104.6727840 152.9992660 148.1697250 105.7523380 154.0035410 147.8264020
 105.5867640 149.3372280 144.9375940 104.6471310 149.4986240 145.0228400
 105.9050900 150.0557960 144.3911930 109.6295850 154.6275580 148.4444030
 109.0108270 154.2895130 147.7970330 109.6120300 153.9835340 149.1523220
 101.2055200 153.5920020 150.7228510 100.8012200 152.8797270 150.2274410
 101.2918320 153.2473260 151.6116550 107.8060550 153.8662390 145.4516780
 108.2453830 153.0284820 145.3054600 108.5188970 154.4991790 145.5380920
 111.3877690 145.1205200 143.7657820 111.0750350 145.2132030 144.6656890
 112.1490160 145.6986230 143.7155250  97.9059830 152.4865000 148.2235160
  97.7857430 153.2127090 147.6116430  97.5960720 151.7167910 147.7463070
 100.3723490 145.8300070 151.6058830  99.9291640 146.6109610 151.2743350
 100.9308480 146.1529960 152.3129770 103.4882310 145.4510770 146.4864660
 102.8636490 145.4470640 147.2117970 103.4012430 144.5841730 146.0900630
 100.1637710 150.9533640 149.3340080  99.9378630 150.7370810 150.2386700
  99.3830240 151.3862100 148.9886050 107.3935470 150.9597010 147.9330730
 106.7944360 151.6832810 147.7494350 107.9415080 150.8973790 147.1507180
 106.0000340 149.5960550 149.9634010 106.3929910 149.9132750 149.1502700
 106.3617190 148.7172430 150.0778530  95.0364510 146.1861350 152.1864210
  94.7477560 146.7564210 152.8989190  95.7810270 145.7065800 152.5495440
  95.2234740 150.1281470 143.3966930  95.1409410 151.0712230 143.5381920
  94.8717800 149.9856380 142.5179280 103.0232870 148.8620500 152.4637280
 103.0268930 148.4210450 151.6141820 103.9183990 149.1837830 152.5709100
  98.8735250 148.7446990 151.4231490  98.5335300 149.2222220 152.1798540
  98.1112570 148.2912110 151.0632590 103.0853020 149.8632580 145.4544040
 103.2065840 149.8219060 146.4029860 102.7001530 150.7256730 145.2990770
 102.0974520 152.1733720 144.8527340 101.5291420 151.7251970 144.2263250
 102.8063520 152.5326500 144.3192490  96.1881330 147.6665970 150.3396160
  95.9028250 147.3021640 151.1774780  96.1260190 146.9346430 149.7259300
 105.8619920 146.5595230 147.0609530 105.0484530 146.0608400 146.9854840
 105.6681870 147.3993480 146.6445880 108.5768310 150.9314880 145.3571690
 109.4647930 151.2432110 145.1823030 108.5473400 150.0587130 144.9652270
 110.8482580 152.2426720 144.8251550 110.7646300 152.6740940 143.9747990
 111.5676770 152.7025070 145.2578370  95.6811990 152.8024920 144.2992860
  96.5506840 153.0849720 144.5828780  95.1902310 153.6160790 144.1841670
 102.8446800 154.1898130 148.4201140 103.3009580 155.0003380 148.6461330
 102.4935010 153.8721270 149.2519630  98.7458580 144.5335780 148.8923660
  98.6173210 144.5253680 149.8408580  97.9220600 144.8718870 148.5414670
 110.6053320 147.7406150 146.9119370 109.9766480 147.8451820 146.1977600
 110.1105240 147.9602930 147.7013250 102.5737350 150.0192100 148.3277250
 101.8653500 150.4878440 148.7690860 102.8581830 149.3614110 148.9622440
 106.6052780 146.7442760 149.7673040 106.4820560 146.7628890 148.8182550
 107.5537340 146.7921700 149.8871440 100.7772370 148.3277180 145.7027960
 101.6262900 148.7647330 145.6368150 100.4103640 148.6397440 146.5300020
 109.6982150 152.8989940 150.6159530 108.7572290 152.9140170 150.7907220
 110.0126220 152.1125900 151.0619830  99.6763790 154.5809540 144.1763490
 100.4427060 154.4690900 144.7388920  99.7538480 153.8847510 143.5240260
  98.3710550 152.0134610 144.8596380  98.4514140 151.0662120 144.9713780
  99.2630300 152.3441490 144.9657040 101.7082820 154.5774670 146.1506130
 102.1299240 154.4114540 146.9937520 101.8333660 153.7674900 145.6561270
 104.2210460 153.6012280 143.3983230 104.7416120 152.8861300 143.0324380
 104.8678860 154.2398150 143.6983740 100.6041720 150.6507900 143.0964290
 100.4030780 149.7875260 143.4577630 100.4333770 150.5641260 142.1585890
 108.0830030 145.4616130 145.6251170 108.3632320 144.6184030 145.9810590
 107.3095760 145.6939240 146.1389920  99.4024520 147.7508520 143.0842170
  99.7050420 147.7575950 142.1761320 100.1419110 147.4006380 143.5809830
 102.6209450 146.6943140 144.0698370 102.2731450 146.0167130 143.4900820
 102.8222220 146.2332650 144.8841760  95.9615090 153.2230790 150.4662740
  95.3063930 152.9542430 149.8222440  96.7993040 153.1135270 150.0164720
 108.9105530 148.0172080 144.6881230 109.3290410 147.8303060 143.8477890
 108.6041590 147.1651130 144.9984160 112.4095260 152.9296220 148.3857030
 112.0338860 152.1624150 147.9538320 111.6798380 153.3118920 148.8731960
  95.1753170 150.4329720 146.4088070  94.2717250 150.6959920 146.2339730
  95.6593790 150.7040890 145.6288030 111.6846220 151.1553710 151.6864270
 112.2083700 150.6616360 151.0554440 112.2705640 151.2904070 152.4311840
  97.7180380 149.4895260 144.3182450  98.4272080 149.0678480 143.8329730
  97.0020320 149.5570490 143.6865800  97.3654540 145.5434590 143.3585100
  98.0882670 146.0843530 143.6766320  97.6379060 145.2698010 142.4826640
 111.1746190 150.4127060 147.6256680 111.6705310 150.1797930 148.4105560
 110.9762260 149.5738900 147.2094320 112.6033350 149.0488010 150.1594360
 112.4932630 148.8944050 151.0976630 113.3640940 148.5208950 149.9169770
 113.4923620 146.8795930 143.4000500 114.4172930 146.7477110 143.1918790
 113.4699410 146.9588750 144.3536950 113.5662110 147.6506590 146.0257210
 112.7713610 147.5851710 146.5550120 113.7705390 148.5857230 146.0142560
 109.9982040 145.9803470 152.4756040 110.4390130 145.9248570 151.6277640
 109.7289630 146.8961480 152.5466220 111.8620610 145.6118710 150.4864860
 111.8009010 144.6679930 150.3395880 112.6412640 145.7198800 151.0318320
  96.7901380 145.5827850 146.9520670  97.5480740 145.6956730 146.3784700
  96.3278550 146.4197050 146.9064100 103.3315190 147.6967120 149.9422980
 102.5189700 147.3224010 149.6018860 103.8356830 146.9412200 150.2444170
 107.8340170 144.3609570 151.1806050 108.4369540 144.9329780 151.6554570
 107.0933160 144.9249010 150.9579950 110.9774770 144.7631130 146.4546330
 111.1725400 145.6614580 146.7213760 110.1904640 144.5318210 146.9479280
  99.1626530 146.1091900 145.4922640  99.6919290 145.3221700 145.3630590
  99.7954850 146.7883090 145.7258170 101.3564370 145.8467040 148.5468030
 100.7267110 145.1454350 148.7138160 100.8169510 146.6071170 148.3301190
 106.9893540 152.5597070 131.9235730 106.9087590 151.6451680 131.6527440
 106.5757960 153.0564140 131.2175440 105.1211580 154.3376090 133.8045000
 104.3453680 153.8576530 134.0943570 105.7724510 153.6581740 133.6301160
  99.1377410 154.6495900 134.6820760  98.3062290 154.3944610 135.0817270
  99.7458390 154.7206670 135.4178680  97.5469360 149.6097790 128.4663150
  96.6586060 149.9513760 128.3643030  97.8310550 149.4098110 127.5743980
  95.5102370 152.2103440 134.3502850  96.0818480 151.4425640 134.3506490
  95.5103910 152.5092200 133.4409460  96.7527240 147.6187800 136.1371780
  96.5730080 146.7213550 136.4174540  96.3507320 148.1659670 136.8118730
 105.5925740 149.8203660 134.0384090 105.9690560 148.9475540 133.9257760
 105.4945250 150.1562360 133.1474530  99.7230750 148.1929290 129.5001530
  99.8297500 149.0933020 129.8070290  98.8123110 148.1447260 129.2096180
 109.3749860 147.3154100 130.9712430 110.1959480 146.8250670 131.0137910
 109.4083940 147.9051760 131.7244270  97.3713910 150.1148300 134.7454120
  98.0524020 150.3786670 135.3641520  97.0561960 149.2749170 135.0792130
 101.5638480 151.1615660 133.8326710 102.0716700 151.6596630 134.4731730
 102.0951720 150.3850860 133.6566070 113.6649410 149.3320850 137.5356060
 112.9601580 149.7202560 137.0171170 113.9307330 150.0271140 138.1376990
  99.8474580 145.8014220 138.0990130  99.8493020 146.3186610 137.2936030
  99.0178890 145.3244400 138.0760060 109.6111340 149.2554480 133.7439970
 108.9066910 149.5439370 134.3243080 109.9723500 150.0654590 133.3839530
  99.5289910 147.5124180 136.1060580  99.8706720 148.3566230 135.8114450
  98.5905720 147.6607920 136.2225920 112.6798260 148.7009270 134.1349180
 111.7323170 148.7348250 134.2664610 113.0048250 149.5148220 134.5198540
 103.2117800 145.0006450 132.4305170 103.5192780 144.4453340 131.7140670
 102.2818500 145.1350910 132.2478160 105.5998560 153.0655280 129.1665290
 104.6727840 152.9992660 129.3953760 105.7523380 154.0035410 129.0520530
 105.5867640 149.3372280 126.1632450 104.6471310 149.4986240 126.2484910
 105.9050900 150.0557960 125.6168440 112.1080400 154.0190800 136.1411480
 111.2799030 154.0883890 135.6661610 112.7030880 154.6045110 135.6727310
 109.6295850 154.6275580 129.6700540 109.0108270 154.2895130 129.0226840
 109.6120300 153.9835340 130.3779730 109.0722410 150.8060120 137.0866350
 108.6593590 151.6313830 137.3406340 108.3398360 150.2205160 136.8942710
 101.2055200 153.5920020 131.9485020 100.8012200 152.8797270 131.4530920
 101.2918320 153.2473260 132.8373060  99.9183820 150.3663230 135.7284060
 100.4698410 150.4758570 134.9537310 100.4327330 150.7400830 136.4439290
 107.8060550 153.8662390 126.6773290 108.2453830 153.0284820 126.5311110
 108.5188970 154.4991790 126.7637430  99.5926550 153.8882590 139.3389400
  99.4534320 154.7605390 139.7076800  98.7107910 153.5455400 139.1937340
 111.3877690 145.1205200 124.9914330 111.0750350 145.2132030 125.8913400
 112.1490160 145.6986230 124.9411760  97.9059830 152.4865000 129.4491670
  97.7857430 153.2127090 128.8372940  97.5960720 151.7167910 128.9719580
 112.5978980 149.8576700 140.9688470 111.9823250 150.3656370 140.4403930
 112.2775400 148.9575030 140.9114410 100.3723490 145.8300070 132.8315340
  99.9291640 146.6109610 132.4999860 100.9308480 146.1529960 133.5386280
 104.6593300 148.6968590 138.4350660 104.1972670 148.9051610 139.2470600
 104.2571410 147.8827940 138.1321330 109.6597810 149.9177540 139.5647320
 108.8091400 149.6183290 139.8856390 109.4999600 150.1619550 138.6531140
 106.7547520 151.4179290 141.6646110 107.0800930 150.5843040 141.3248340
 107.5427850 151.9407810 141.8124440 103.4882310 145.4510770 127.7121170
 102.8636490 145.4470640 128.4374480 103.4012430 144.5841730 127.3157140
 102.4099390 146.3747400 134.6904940 102.7071720 147.2810230 134.6096960
 102.9584950 145.8866180 134.0764510 100.1637710 150.9533640 130.5596590
  99.9378630 150.7370810 131.4643210  99.3830240 151.3862100 130.2142560
 107.3935470 150.9597010 129.1587240 106.7944360 151.6832810 128.9750860
 107.9415080 150.8973790 128.3763690 102.6036920 151.8519220 141.2256860
 102.5080520 150.9113950 141.0757260 103.4468900 152.0734290 140.8304930
 106.0000340 149.5960550 131.1890520 106.3929910 149.9132750 130.3759210
 106.3617190 148.7172430 131.3035040  97.7347460 148.2632890 139.3790640
  97.3410850 149.1108100 139.5863420  97.0465860 147.6259260 139.5699280
 104.3092510 148.3467860 142.4487380 103.6190830 148.1540060 143.0833470
 105.0524810 148.6302500 142.9811680  95.0364510 146.1861350 133.4120720
  94.7477560 146.7564210 134.1245700  95.7810270 145.7065800 133.7751950
  95.2234740 150.1281470 124.6223440  95.1409410 151.0712230 124.7638430
  94.8717800 149.9856380 123.7435790 106.5855480 152.1866300 135.2841300
 105.8536600 152.6953110 135.6331400 106.1879820 151.3696280 134.9830080
 103.0232870 148.8620500 133.6893790 103.0268930 148.4210450 132.8398330
 103.9183990 149.1837830 133.7965610  98.8735250 148.7446990 132.6488000
  98.5335300 149.2222220 133.4055050  98.1112570 148.2912110 132.2889100
 103.0853020 149.8632580 126.6800550 103.2065840 149.8219060 127.6286370
 102.7001530 150.7256730 126.5247280 107.0481390 147.6399980 134.6964240
 107.0654130 148.0908630 135.5406090 106.7996970 146.7405620 134.9097680
 102.0974520 152.1733720 126.0783850 101.5291420 151.7251970 125.4519760
 102.8063520 152.5326500 125.5449000 110.4752140 145.0532160 140.5350620
 110.7997910 144.3221820 141.0608600 110.5108650 144.7345800 139.6331610
 103.3240840 152.9222280 135.4359200 103.6910970 152.4480850 136.1820540
 103.1345900 153.7963850 135.7767540  96.1881330 147.6665970 131.5652670
  95.9028250 147.3021640 132.4031290  96.1260190 146.9346430 130.9515810
 101.1140210 151.9630920 137.7543410 100.8097280 152.8422900 137.9793770
 102.0686670 152.0230710 137.7900850 105.8619920 146.5595230 128.2866040
 105.0484530 146.0608400 128.2111350 105.6681870 147.3993480 127.8702390
 108.5768310 150.9314880 126.5828200 109.4647930 151.2432110 126.4079540
 108.5473400 150.0587130 126.1908780  97.1703940 152.8033660 138.9014770
  96.8118880 153.4687510 139.4888110  96.8758500 151.9717210 139.2727390
 100.3717060 153.2617900 141.7854320 100.0717200 153.4075080 140.8882140
 101.1428300 152.7023190 141.6927710 110.8482580 152.2426720 126.0508060
 110.7646300 152.6740940 125.2004500 111.5676770 152.7025070 126.4834880
  95.6811990 152.8024920 125.5249370  96.5506840 153.0849720 125.8085290
  95.1902310 153.6160790 125.4098180 102.8446800 154.1898130 129.6457650
 103.3009580 155.0003380 129.8717840 102.4935010 153.8721270 130.4776140
  98.7458580 144.5335780 130.1180170  98.6173210 144.5253680 131.0665090
  97.9220600 144.8718870 129.7671180  95.7452510 146.2926900 139.5786870
  95.0311030 146.4923820 140.1839480  96.1647550 145.5166470 139.9501670
 107.2391290 148.7849210 137.3288320 107.6072110 147.9644420 137.6567890
 106.3789490 148.8451100 137.7443970 110.6053320 147.7406150 128.1375880
 109.9766480 147.8451820 127.4234110 110.1105240 147.9602930 128.9269760
 102.5737350 150.0192100 129.5533760 101.8653500 150.4878440 129.9947370
 102.8581830 149.3614110 130.1878950 104.1993280 151.4388800 137.5526290
 104.6978530 151.9134620 138.2178140 104.3416230 150.5152320 137.7596320
 106.6052780 146.7442760 130.9929550 106.4820560 146.7628890 130.0439060
 107.5537340 146.7921700 131.1127950 100.7772370 148.3277180 126.9284470
 101.6262900 148.7647330 126.8624660 100.4103640 148.6397440 127.7556530
 111.4060140 147.6556760 138.3954680 110.9033740 148.3962160 138.7348490
 112.2216800 148.0440760 138.0791470 109.6982150 152.8989940 131.8416040
 108.7572290 152.9140170 132.0163730 110.0126220 152.1125900 132.2876340
  99.6763790 154.5809540 125.4020000 100.4427060 154.4690900 125.9645430
  99.7538480 153.8847510 124.7496770  98.3710550 152.0134610 126.0852890
  98.4514140 151.0662120 126.1970290  99.2630300 152.3441490 126.1913550
  95.8981350 153.8349530 141.3209060  96.4020370 153.2556810 141.8925290
  95.1588770 154.1189760 141.8585430  97.9304430 151.9779120 142.2159130
  97.9709770 151.6792990 143.1244360  98.7849930 152.3786730 142.0566650
 101.7082820 154.5774670 127.3762640 102.1299240 154.4114540 128.2194030
 101.8333660 153.7674900 126.8817780  99.8710240 150.5571220 140.1833620
  99.3406700 150.0662170 139.5556960 100.5398310 150.9855420 139.6491550
 104.2210460 153.6012280 124.6239740 104.7416120 152.8861300 124.2580890
 104.8678860 154.2398150 124.9240250 109.2410470 152.3636840 141.9513960
 109.8231240 151.6089160 141.8634440 109.4172240 152.8944280 141.1745440
 100.3582540 147.5233590 140.2630910 100.2639410 146.9054340 139.5381780
  99.7779930 148.2499880 140.0360820 103.1243980 146.0806830 137.2958300
 102.6761280 146.1031090 136.4503850 102.4909180 145.6825850 137.8928600
 105.8667430 152.7077340 139.3008580 105.9863640 152.1118480 140.0403420
 106.7261430 152.7447030 138.8809880 108.2055330 153.2614530 137.8771090
 107.6790550 153.7857150 137.2736230 108.5486670 153.8941920 138.5080820
 100.6041720 150.6507900 124.3220800 100.4030780 149.7875260 124.6834140
 100.4333770 150.5641260 123.3842400 102.6336200 149.2498690 140.5584400
 103.2235890 148.9414540 141.2462220 101.8156440 148.7778440 140.7144300
 107.4529630 148.8664500 140.7917420 106.7645150 148.2046040 140.7267410
 108.1735650 148.4202770 141.2365880 108.0830030 145.4616130 126.8507680
 108.3632320 144.6184030 127.2067100 107.3095760 145.6939240 127.3646430
  99.4024520 147.7508520 124.3098680  99.7050420 147.7575950 123.4017830
 100.1419110 147.4006380 124.8066340 102.6209450 146.6943140 125.2954880
 102.2731450 146.0167130 124.7157330 102.8222220 146.2332650 126.1098270
  95.9615090 153.2230790 131.6919250  95.3063930 152.9542430 131.0478950
  96.7993040 153.1135270 131.2421230 108.9105530 148.0172080 125.9137740
 109.3290410 147.8303060 125.0734400 108.6041590 147.1651130 126.2240670
 112.4095260 152.9296220 129.6113540 112.0338860 152.1624150 129.1794830
 111.6798380 153.3118920 130.0988470  96.9991020 153.6083360 136.2322590
  97.3664060 153.5210760 137.1118610  96.4301840 152.8449910 136.1329450
 111.7994880 152.0767740 139.2453060 111.5680970 151.8480490 138.3451010
 112.0599430 152.9967290 139.1997950  96.5507020 150.5192450 140.1381010
  95.6563070 150.4859210 140.4774720  97.0904570 150.7179240 140.9032260
 110.2382950 147.3024170 142.0232760 111.1153130 147.3107570 142.4066760
 110.2503790 146.5655010 141.4125110  95.1753170 150.4329720 127.6344580
  94.2717250 150.6959920 127.4596240  95.6593790 150.7040890 126.8544540
 111.6846220 151.1553710 132.9120780 112.2083700 150.6616360 132.2810950
 112.2705640 151.2904070 133.6568350 111.8635940 151.2393580 136.4340330
 110.9138650 151.2057120 136.5485320 112.0448950 152.1493690 136.1990100
  97.7180380 149.4895260 125.5438960  98.4272080 149.0678480 125.0586240
  97.0020320 149.5570490 124.9122310  97.3654540 145.5434590 124.5841610
  98.0882670 146.0843530 124.9022830  97.6379060 145.2698010 123.7083150
 111.1746190 150.4127060 128.8513190 111.6705310 150.1797930 129.6362070
 110.9762260 149.5738900 128.4350830  97.0546730 144.7940780 134.4864230
  97.7022920 144.2438160 134.0459390  97.4748570 145.0483930 135.3080040
 112.6033350 149.0488010 131.3850870 112.4932630 148.8944050 132.3233140
 113.3640940 148.5208950 131.1426280 110.9499070 144.9882140 137.8433870
 111.5871290 145.6016280 138.2093060 111.0973960 145.0242800 136.8983100
 113.4923620 146.8795930 124.6257010 114.4172930 146.7477110 124.4175300
 113.4699410 146.9588750 125.5793460 113.5662110 147.6506590 127.2513720
 112.7713610 147.5851710 127.7806630 113.7705390 148.5857230 127.2399070
  96.8078730 144.9496450 137.2289550  96.4593550 145.4060270 137.9947730
  96.4766430 144.0553580 137.3111980 104.3203550 146.1408330 140.7508970
 104.2592440 146.7330160 141.5004380 105.2603930 146.0334290 140.6059230
 106.9578110 145.7978390 140.3901260 107.5718520 146.1157680 139.7282340
 107.5027670 145.3126980 141.0097120  97.4799370 144.4772650 140.5040320
  98.0282360 144.2960700 139.7406430  97.5454680 143.6866760 141.0396630
 107.6986150 144.3610530 136.7170550 106.8245990 144.6945640 136.5143480
 107.5896900 143.8883710 137.5422420 108.6058130 146.5681400 138.1012270
 108.2771490 145.7533160 137.7214000 109.5540430 146.5251210 137.9777960
 105.4460970 145.2780370 135.6563460 104.6632760 145.7525870 135.9360220
 105.1523900 144.3735200 135.5476640 109.9982040 145.9803470 133.7012550
 110.4390130 145.9248570 132.8534150 109.7289630 146.8961480 133.7722730
 111.8620610 145.6118710 131.7121370 111.8009010 144.6679930 131.5652390
 112.6412640 145.7198800 132.2574830  96.7901380 145.5827850 128.1777180
  97.5480740 145.6956730 127.6041210  96.3278550 146.4197050 128.1320610
 103.3315190 147.6967120 131.1679490 102.5189700 147.3224010 130.8275370
 103.8356830 146.9412200 131.4700680 107.8340170 144.3609570 132.4062560
 108.4369540 144.9329780 132.8811080 107.0933160 144.9249010 132.1836460
 110.9774770 144.7631130 127.6802840 111.1725400 145.6614580 127.9470270
 110.1904640 144.5318210 128.1735790  99.1626530 146.1091900 126.7179150
  99.6919290 145.3221700 126.5887100  99.7954850 146.7883090 126.9514680
 101.3564370 145.8467040 129.7724540 100.7267110 145.1454350 129.9394670
 100.8169510 146.6071170 129.5557700 101.4819930 145.1251020 142.2077030
 101.2004200 145.6284620 141.4437850 101.8639630 144.3272770 141.8419160
 108.0835390 144.5404600 142.7857500 107.9700840 144.8599210 143.6809020
 108.9005130 144.9417110 142.4894780 106.9893540 152.5597070 113.1492240
 106.9087590 151.6451680 112.8783950 106.5757960 153.0564140 112.4431950
 105.1211580 154.3376090 115.0301510 104.3453680 153.8576530 115.3200080
 105.7724510 153.6581740 114.8557670  99.1377410 154.6495900 115.9077270
  98.3062290 154.3944610 116.3073780  99.7458390 154.7206670 116.6435190
  97.5469360 149.6097790 109.6919660  96.6586060 149.9513760 109.5899540
  97.8310550 149.4098110 108.8000490  95.5102370 152.2103440 115.5759360
  96.0818480 151.4425640 115.5763000  95.5103910 152.5092200 114.6665970
  96.7527240 147.6187800 117.3628290  96.5730080 146.7213550 117.6431050
  96.3507320 148.1659670 118.0375240 105.5925740 149.8203660 115.2640600
 105.9690560 148.9475540 115.1514270 105.4945250 150.1562360 114.3731040
  99.7230750 148.1929290 110.7258040  99.8297500 149.0933020 111.0326800
  98.8123110 148.1447260 110.4352690 109.3749860 147.3154100 112.1968940
 110.1959480 146.8250670 112.2394420 109.4083940 147.9051760 112.9500780
  97.3713910 150.1148300 115.9710630  98.0524020 150.3786670 116.5898030
  97.0561960 149.2749170 116.3048640 101.5638480 151.1615660 115.0583220
 102.0716700 151.6596630 115.6988240 102.0951720 150.3850860 114.8822580
 113.6649410 149.3320850 118.7612570 112.9601580 149.7202560 118.2427680
 113.9307330 150.0271140 119.3633500  99.8474580 145.8014220 119.3246640
  99.8493020 146.3186610 118.5192540  99.0178890 145.3244400 119.3016570
 109.6111340 149.2554480 114.9696480 108.9066910 149.5439370 115.5499590
 109.9723500 150.0654590 114.6096040  99.5289910 147.5124180 117.3317090
  99.8706720 148.3566230 117.0370960  98.5905720 147.6607920 117.4482430
 112.6798260 148.7009270 115.3605690 111.7323170 148.7348250 115.4921120
 113.0048250 149.5148220 115.7455050 103.2117800 145.0006450 113.6561680
 103.5192780 144.4453340 112.9397180 102.2818500 145.1350910 113.4734670
 105.5998560 153.0655280 110.3921800 104.6727840 152.9992660 110.6210270
 105.7523380 154.0035410 110.2777040 105.5867640 149.3372280 107.3888960
 104.6471310 149.4986240 107.4741420 105.9050900 150.0557960 106.8424950
 112.1080400 154.0190800 117.3667990 111.2799030 154.0883890 116.8918120
 112.7030880 154.6045110 116.8983820 109.6295850 154.6275580 110.8957050
 109.0108270 154.2895130 110.2483350 109.6120300 153.9835340 111.6036240
 109.0722410 150.8060120 118.3122860 108.6593590 151.6313830 118.5662850
 108.3398360 150.2205160 118.1199220 101.2055200 153.5920020 113.1741530
 100.8012200 152.8797270 112.6787430 101.2918320 153.2473260 114.0629570
  99.9183820 150.3663230 116.9540570 100.4698410 150.4758570 116.1793820
 100.4327330 150.7400830 117.6695800 107.8060550 153.8662390 107.9029800
 108.2453830 153.0284820 107.7567620 108.5188970 154.4991790 107.9893940
  99.5926550 153.8882590 120.5645910  99.4534320 154.7605390 120.9333310
  98.7107910 153.5455400 120.4193850 111.3877690 145.1205200 106.2170840
 111.0750350 145.2132030 107.1169910 112.1490160 145.6986230 106.1668270
  97.9059830 152.4865000 110.6748180  97.7857430 153.2127090 110.0629450
  97.5960720 151.7167910 110.1976090 112.5978980 149.8576700 122.1944980
 111.9823250 150.3656370 121.6660440 112.2775400 148.9575030 122.1370920
 100.3723490 145.8300070 114.0571850  99.9291640 146.6109610 113.7256370
 100.9308480 146.1529960 114.7642790 104.6593300 148.6968590 119.6607170
 104.1972670 148.9051610 120.4727110 104.2571410 147.8827940 119.3577840
 109.6597810 149.9177540 120.7903830 108.8091400 149.6183290 121.1112900
 109.4999600 150.1619550 119.8787650 106.7547520 151.4179290 122.8902620
 107.0800930 150.5843040 122.5504850 107.5427850 151.9407810 123.0380950
 103.4882310 145.4510770 108.9377680 102.8636490 145.4470640 109.6630990
 103.4012430 144.5841730 108.5413650 102.4099390 146.3747400 115.9161450
 102.7071720 147.2810230 115.8353470 102.9584950 145.8866180 115.3021020
 100.1637710 150.9533640 111.7853100  99.9378630 150.7370810 112.6899720
  99.3830240 151.3862100 111.4399070 107.3935470 150.9597010 110.3843750
 106.7944360 151.6832810 110.2007370 107.9415080 150.8973790 109.6020200
 102.6036920 151.8519220 122.4513370 102.5080520 150.9113950 122.3013770
 103.4468900 152.0734290 122.0561440 106.0000340 149.5960550 112.4147030
 106.3929910 149.9132750 111.6015720 106.3617190 148.7172430 112.5291550
  97.7347460 148.2632890 120.6047150  97.3410850 149.1108100 120.8119930
  97.0465860 147.6259260 120.7955790 104.3092510 148.3467860 123.6743890
 103.6190830 148.1540060 124.3089980 105.0524810 148.6302500 124.2068190
  95.0364510 146.1861350 114.6377230  94.7477560 146.7564210 115.3502210
  95.7810270 145.7065800 115.0008460  95.2234740 150.1281470 105.8479950
  95.1409410 151.0712230 105.9894940  94.8717800 149.9856380 104.9692300
 106.5855480 152.1866300 116.5097810 105.8536600 152.6953110 116.8587910
 106.1879820 151.3696280 116.2086590 103.0232870 148.8620500 114.9150300
 103.0268930 148.4210450 114.0654840 103.9183990 149.1837830 115.0222120
  98.8735250 148.7446990 113.8744510  98.5335300 149.2222220 114.6311560
  98.1112570 148.2912110 113.5145610 103.0853020 149.8632580 107.9057060
 103.2065840 149.8219060 108.8542880 102.7001530 150.7256730 107.7503790
 107.0481390 147.6399980 115.9220750 107.0654130 148.0908630 116.7662600
 106.7996970 146.7405620 116.1354190 102.0974520 152.1733720 107.3040360
 101.5291420 151.7251970 106.6776270 102.8063520 152.5326500 106.7705510
 110.4752140 145.0532160 121.7607130 110.7997910 144.3221820 122.2865110
 110.5108650 144.7345800 120.8588120 103.3240840 152.9222280 116.6615710
 103.6910970 152.4480850 117.4077050 103.1345900 153.7963850 117.0024050
  96.1881330 147.6665970 112.7909180  95.9028250 147.3021640 113.6287800
  96.1260190 146.9346430 112.1772320 101.1140210 151.9630920 118.9799920
 100.8097280 152.8422900 119.2050280 102.0686670 152.0230710 119.0157360
 105.8619920 146.5595230 109.5122550 105.0484530 146.0608400 109.4367860
 105.6681870 147.3993480 109.0958900 108.5768310 150.9314880 107.8084710
 109.4647930 151.2432110 107.6336050 108.5473400 150.0587130 107.4165290
  97.1703940 152.8033660 120.1271280  96.8118880 153.4687510 120.7144620
  96.8758500 151.9717210 120.4983900 100.3717060 153.2617900 123.0110830
 100.0717200 153.4075080 122.1138650 101.1428300 152.7023190 122.9184220
 110.8482580 152.2426720 107.2764570 110.7646300 152.6740940 106.4261010
 111.5676770 152.7025070 107.7091390  95.6811990 152.8024920 106.7505880
  96.5506840 153.0849720 107.0341800  95.1902310 153.6160790 106.6354690
 102.8446800 154.1898130 110.8714160 103.3009580 155.0003380 111.0974350
 102.4935010 153.8721270 111.7032650  98.7458580 144.5335780 111.3436680
  98.6173210 144.5253680 112.2921600  97.9220600 144.8718870 110.9927690
  95.7452510 146.2926900 120.8043380  95.0311030 146.4923820 121.4095990
  96.1647550 145.5166470 121.1758180 107.2391290 148.7849210 118.5544830
 107.6072110 147.9644420 118.8824400 106.3789490 148.8451100 118.9700480
 110.6053320 147.7406150 109.3632390 109.9766480 147.8451820 108.6490620
 110.1105240 147.9602930 110.1526270 102.5737350 150.0192100 110.7790270
 101.8653500 150.4878440 111.2203880 102.8581830 149.3614110 111.4135460
 104.1993280 151.4388800 118.7782800 104.6978530 151.9134620 119.4434650
 104.3416230 150.5152320 118.9852830 106.6052780 146.7442760 112.2186060
 106.4820560 146.7628890 111.2695570 107.5537340 146.7921700 112.3384460
 100.7772370 148.3277180 108.1540980 101.6262900 148.7647330 108.0881170
 100.4103640 148.6397440 108.9813040 111.4060140 147.6556760 119.6211190
 110.9033740 148.3962160 119.9605000 112.2216800 148.0440760 119.3047980
 109.6982150 152.8989940 113.0672550 108.7572290 152.9140170 113.2420240
 110.0126220 152.1125900 113.5132850  99.6763790 154.5809540 106.6276510
 100.4427060 154.4690900 107.1901940  99.7538480 153.8847510 105.9753280
  98.3710550 152.0134610 107.3109400  98.4514140 151.0662120 107.4226800
  99.2630300 152.3441490 107.4170060  95.8981350 153.8349530 122.5465570
  96.4020370 153.2556810 123.1181800  95.1588770 154.1189760 123.0841940
  97.9304430 151.9779120 123.4415640  97.9709770 151.6792990 124.3500870
  98.7849930 152.3786730 123.2823160 101.7082820 154.5774670 108.6019150
 102.1299240 154.4114540 109.4450540 101.8333660 153.7674900 108.1074290
  99.8710240 150.5571220 121.4090130  99.3406700 150.0662170 120.7813470
 100.5398310 150.9855420 120.8748060 104.2210460 153.6012280 105.8496250
 104.7416120 152.8861300 105.4837400 104.8678860 154.2398150 106.1496760
 109.2410470 152.3636840 123.1770470 109.8231240 151.6089160 123.0890950
 109.4172240 152.8944280 122.4001950 100.3582540 147.5233590 121.4887420
 100.2639410 146.9054340 120.7638290  99.7779930 148.2499880 121.2617330
 103.1243980 146.0806830 118.5214810 102.6761280 146.1031090 117.6760360
 102.4909180 145.6825850 119.1185110 105.8667430 152.7077340 120.5265090
 105.9863640 152.1118480 121.2659930 106.7261430 152.7447030 120.1066390
 108.2055330 153.2614530 119.1027600 107.6790550 153.7857150 118.4992740
 108.5486670 153.8941920 119.7337330 100.6041720 150.6507900 105.5477310
 100.4030780 149.7875260 105.9090650 100.4333770 150.5641260 104.6098910
 102.6336200 149.2498690 121.7840910 103.2235890 148.9414540 122.4718730
 101.8156440 148.7778440 121.9400810 107.4529630 148.8664500 122.0173930
 106.7645150 148.2046040 121.9523920 108.1735650 148.4202770 122.4622390
 108.0830030 145.4616130 108.0764190 108.3632320 144.6184030 108.4323610
 107.3095760 145.6939240 108.5902940  99.4024520 147.7508520 105.5355190
  99.7050420 147.7575950 104.6274340 100.1419110 147.4006380 106.0322850
 102.6209450 146.6943140 106.5211390 102.2731450 146.0167130 105.9413840
 102.8222220 146.2332650 107.3354780  95.9615090 153.2230790 112.9175760
  95.3063930 152.9542430 112.2735460  96.7993040 153.1135270 112.4677740
 108.9105530 148.0172080 107.1394250 109.3290410 147.8303060 106.2990910
 108.6041590 147.1651130 107.4497180 112.4095260 152.9296220 110.8370050
 112.0338860 152.1624150 110.4051340 111.6798380 153.3118920 111.3244980
  96.9991020 153.6083360 117.4579100  97.3664060 153.5210760 118.3375120
  96.4301840 152.8449910 117.3585960 111.7994880 152.0767740 120.4709570
 111.5680970 151.8480490 119.5707520 112.0599430 152.9967290 120.4254460
  96.5507020 150.5192450 121.3637520  95.6563070 150.4859210 121.7031230
  97.0904570 150.7179240 122.1288770 110.2382950 147.3024170 123.2489270
 111.1153130 147.3107570 123.6323270 110.2503790 146.5655010 122.6381620
  95.1753170 150.4329720 108.8601090  94.2717250 150.6959920 108.6852750
  95.6593790 150.7040890 108.0801050 111.6846220 151.1553710 114.1377290
 112.2083700 150.6616360 113.5067460 112.2705640 151.2904070 114.8824860
 111.8635940 151.2393580 117.6596840 110.9138650 151.2057120 117.7741830
 112.0448950 152.1493690 117.4246610  97.7180380 149.4895260 106.7695470
  98.4272080 149.0678480 106.2842750  97.0020320 149.5570490 106.1378820
  97.3654540 145.5434590 105.8098120  98.0882670 146.0843530 106.1279340
  97.6379060 145.2698010 104.9339660 111.1746190 150.4127060 110.0769700
 111.6705310 150.1797930 110.8618580 110.9762260 149.5738900 109.6607340
  97.0546730 144.7940780 115.7120740  97.7022920 144.2438160 115.2715900
  97.4748570 145.0483930 116.5336550 112.6033350 149.0488010 112.6107380
 112.4932630 148.8944050 113.5489650 113.3640940 148.5208950 112.3682790
 110.9499070 144.9882140 119.0690380 111.5871290 145.6016280 119.4349570
 111.0973960 145.0242800 118.1239610 113.4923620 146.8795930 105.8513520
 114.4172930 146.7477110 105.6431810 113.4699410 146.9588750 106.8049970
 113.5662110 147.6506590 108.4770230 112.7713610 147.5851710 109.0063140
 113.7705390 148.5857230 108.4655580  96.8078730 144.9496450 118.4546060
  96.4593550 145.4060270 119.2204240  96.4766430 144.0553580 118.5368490
 104.3203550 146.1408330 121.9765480 104.2592440 146.7330160 122.7260890
 105.2603930 146.0334290 121.8315740 106.9578110 145.7978390 121.6157770
 107.5718520 146.1157680 120.9538850 107.5027670 145.3126980 122.2353630
  97.4799370 144.4772650 121.7296830  98.0282360 144.2960700 120.9662940
  97.5454680 143.6866760 122.2653140 107.6986150 144.3610530 117.9427060
 106.8245990 144.6945640 117.7399990 107.5896900 143.8883710 118.7678930
 108.6058130 146.5681400 119.3268780 108.2771490 145.7533160 118.9470510
 109.5540430 146.5251210 119.2034470 105.4460970 145.2780370 116.8819970
 104.6632760 145.7525870 117.1616730 105.1523900 144.3735200 116.7733150
 109.9982040 145.9803470 114.9269060 110.4390130 145.9248570 114.0790660
 109.7289630 146.8961480 114.9979240 111.8620610 145.6118710 112.9377880
 111.8009010 144.6679930 112.7908900 112.6412640 145.7198800 113.4831340
  96.7901380 145.5827850 109.4033690  97.5480740 145.6956730 108.8297720
  96.3278550 146.4197050 109.3577120 103.3315190 147.6967120 112.3936000
 102.5189700 147.3224010 112.0531880 103.8356830 146.9412200 112.6957190
 107.8340170 144.3609570 113.6319070 108.4369540 144.9329780 114.1067590
 107.0933160 144.9249010 113.4092970 110.9774770 144.7631130 108.9059350
 111.1725400 145.6614580 109.1726780 110.1904640 144.5318210 109.3992300
  99.1626530 146.1091900 107.9435660  99.6919290 145.3221700 107.8143610
  99.7954850 146.7883090 108.1771190 101.3564370 145.8467040 110.9981050
 100.7267110 145.1454350 111.1651180 100.8169510 146.6071170 110.7814210
 101.4819930 145.1251020 123.4333540 101.2004200 145.6284620 122.6694360
 101.8639630 144.3272770 123.0675670 108.0835390 144.5404600 124.0114010
 107.9700840 144.8599210 124.9065530 108.9005130 144.9417110 123.7151290
 106.9893540 152.5597070  94.3748750 106.9087590 151.6451680  94.1040460
 106.5757960 153.0564140  93.6688460 105.1211580 154.3376090  96.2558020
 104.3453680 153.8576530  96.5456590 105.7724510 153.6581740  96.0814180
  99.1377410 154.6495900  97.1333780  98.3062290 154.3944610  97.5330290
  99.7458390 154.7206670  97.8691700  97.5469360 149.6097790  90.9176170
  96.6586060 149.9513760  90.8156050  97.8310550 149.4098110  90.0257000
  95.5102370 152.2103440  96.8015870  96.0818480 151.4425640  96.8019510
  95.5103910 152.5092200  95.8922480  96.7527240 147.6187800  98.5884800
  96.5730080 146.7213550  98.8687560  96.3507320 148.1659670  99.2631750
 105.5925740 149.8203660  96.4897110 105.9690560 148.9475540  96.3770780
 105.4945250 150.1562360  95.5987550  99.7230750 148.1929290  91.9514550
  99.8297500 149.0933020  92.2583310  98.8123110 148.1447260  91.6609200
 109.3749860 147.3154100  93.4225450 110.1959480 146.8250670  93.4650930
 109.4083940 147.9051760  94.1757290  97.3713910 150.1148300  97.1967140
  98.0524020 150.3786670  97.8154540  97.0561960 149.2749170  97.5305150
 101.5638480 151.1615660  96.2839730 102.0716700 151.6596630  96.9244750
 102.0951720 150.3850860  96.1079090 113.6649410 149.3320850  99.9869080
 112.9601580 149.7202560  99.4684190 113.9307330 150.0271140 100.5890010
  99.8474580 145.8014220 100.5503150  99.8493020 146.3186610  99.7449050
  99.0178890 145.3244400 100.5273080 109.6111340 149.2554480  96.1952990
 108.9066910 149.5439370  96.7756100 109.9723500 150.0654590  95.8352550
  99.5289910 147.5124180  98.5573600  99.8706720 148.3566230  98.2627470
  98.5905720 147.6607920  98.6738940 112.6798260 148.7009270  96.5862200
 111.7323170 148.7348250  96.7177630 113.0048250 149.5148220  96.9711560
 103.2117800 145.0006450  94.8818190 103.5192780 144.4453340  94.1653690
 102.2818500 145.1350910  94.6991180 105.5998560 153.0655280  91.6178310
 104.6727840 152.9992660  91.8466780 105.7523380 154.0035410  91.5033550
 105.5867640 149.3372280  88.6145470 104.6471310 149.4986240  88.6997930
 105.9050900 150.0557960  88.0681460 112.1080400 154.0190800  98.5924500
 111.2799030 154.0883890  98.1174630 112.7030880 154.6045110  98.1240330
 109.6295850 154.6275580  92.1213560 109.0108270 154.2895130  91.4739860
 109.6120300 153.9835340  92.8292750 109.0722410 150.8060120  99.5379370
 108.6593590 151.6313830  99.7919360 108.3398360 150.2205160  99.3455730
 101.2055200 153.5920020  94.3998040 100.8012200 152.8797270  93.9043940
 101.2918320 153.2473260  95.2886080  99.9183820 150.3663230  98.1797080
 100.4698410 150.4758570  97.4050330 100.4327330 150.7400830  98.8952310
 107.8060550 153.8662390  89.1286310 108.2453830 153.0284820  88.9824130
 108.5188970 154.4991790  89.2150450  99.5926550 153.8882590 101.7902420
  99.4534320 154.7605390 102.1589820  98.7107910 153.5455400 101.6450360
 111.3877690 145.1205200  87.4427350 111.0750350 145.2132030  88.3426420
 112.1490160 145.6986230  87.3924780  97.9059830 152.4865000  91.9004690
  97.7857430 153.2127090  91.2885960  97.5960720 151.7167910  91.4232600
 112.5978980 149.8576700 103.4201490 111.9823250 150.3656370 102.8916950
 112.2775400 148.9575030 103.3627430 100.3723490 145.8300070  95.2828360
  99.9291640 146.6109610  94.9512880 100.9308480 146.1529960  95.9899300
 104.6593300 148.6968590 100.8863680 104.1972670 148.9051610 101.6983620
 104.2571410 147.8827940 100.5834350 109.6597810 149.9177540 102.0160340
 108.8091400 149.6183290 102.3369410 109.4999600 150.1619550 101.1044160
 106.7547520 151.4179290 104.1159130 107.0800930 150.5843040 103.7761360
 107.5427850 151.9407810 104.2637460 103.4882310 145.4510770  90.1634190
 102.8636490 145.4470640  90.8887500 103.4012430 144.5841730  89.7670160
 102.4099390 146.3747400  97.1417960 102.7071720 147.2810230  97.0609980
 102.9584950 145.8866180  96.5277530 100.1637710 150.9533640  93.0109610
  99.9378630 150.7370810  93.9156230  99.3830240 151.3862100  92.6655580
 107.3935470 150.9597010  91.6100260 106.7944360 151.6832810  91.4263880
 107.9415080 150.8973790  90.8276710 102.6036920 151.8519220 103.6769880
 102.5080520 150.9113950 103.5270280 103.4468900 152.0734290 103.2817950
 106.0000340 149.5960550  93.6403540 106.3929910 149.9132750  92.8272230
 106.3617190 148.7172430  93.7548060  97.7347460 148.2632890 101.8303660
  97.3410850 149.1108100 102.0376440  97.0465860 147.6259260 102.0212300
 104.3092510 148.3467860 104.9000400 103.6190830 148.1540060 105.5346490
 105.0524810 148.6302500 105.4324700  95.0364510 146.1861350  95.8633740
  94.7477560 146.7564210  96.5758720  95.7810270 145.7065800  96.2264970
  95.2234740 150.1281470  87.0736460  95.1409410 151.0712230  87.2151450
  94.8717800 149.9856380  86.1948810 106.5855480 152.1866300  97.7354320
 105.8536600 152.6953110  98.0844420 106.1879820 151.3696280  97.4343100
 103.0232870 148.8620500  96.1406810 103.0268930 148.4210450  95.2911350
 103.9183990 149.1837830  96.2478630  98.8735250 148.7446990  95.1001020
  98.5335300 149.2222220  95.8568070  98.1112570 148.2912110  94.7402120
 103.0853020 149.8632580  89.1313570 103.2065840 149.8219060  90.0799390
 102.7001530 150.7256730  88.9760300 107.0481390 147.6399980  97.1477260
 107.0654130 148.0908630  97.9919110 106.7996970 146.7405620  97.3610700
 102.0974520 152.1733720  88.5296870 101.5291420 151.7251970  87.9032780
 102.8063520 152.5326500  87.9962020 110.4752140 145.0532160 102.9863640
 110.7997910 144.3221820 103.5121620 110.5108650 144.7345800 102.0844630
 103.3240840 152.9222280  97.8872220 103.6910970 152.4480850  98.6333560
 103.1345900 153.7963850  98.2280560  96.1881330 147.6665970  94.0165690
  95.9028250 147.3021640  94.8544310  96.1260190 146.9346430  93.4028830
 101.1140210 151.9630920 100.2056430 100.8097280 152.8422900 100.4306790
 102.0686670 152.0230710 100.2413870 105.8619920 146.5595230  90.7379060
 105.0484530 146.0608400  90.6624370 105.6681870 147.3993480  90.3215410
 108.5768310 150.9314880  89.0341220 109.4647930 151.2432110  88.8592560
 108.5473400 150.0587130  88.6421800  97.1703940 152.8033660 101.3527790
  96.8118880 153.4687510 101.9401130  96.8758500 151.9717210 101.7240410
 100.3717060 153.2617900 104.2367340 100.0717200 153.4075080 103.3395160
 101.1428300 152.7023190 104.1440730 110.8482580 152.2426720  88.5021080
 110.7646300 152.6740940  87.6517520 111.5676770 152.7025070  88.9347900
  95.6811990 152.8024920  87.9762390  96.5506840 153.0849720  88.2598310
  95.1902310 153.6160790  87.8611200 102.8446800 154.1898130  92.0970670
 103.3009580 155.0003380  92.3230860 102.4935010 153.8721270  92.9289160
  98.7458580 144.5335780  92.5693190  98.6173210 144.5253680  93.5178110
  97.9220600 144.8718870  92.2184200  95.7452510 146.2926900 102.0299890
  95.0311030 146.4923820 102.6352500  96.1647550 145.5166470 102.4014690
 107.2391290 148.7849210  99.7801340 107.6072110 147.9644420 100.1080910
 106.3789490 148.8451100 100.1956990 110.6053320 147.7406150  90.5888900
 109.9766480 147.8451820  89.8747130 110.1105240 147.9602930  91.3782780
 102.5737350 150.0192100  92.0046780 101.8653500 150.4878440  92.4460390
 102.8581830 149.3614110  92.6391970 104.1993280 151.4388800 100.0039310
 104.6978530 151.9134620 100.6691160 104.3416230 150.5152320 100.2109340
 106.6052780 146.7442760  93.4442570 106.4820560 146.7628890  92.4952080
 107.5537340 146.7921700  93.5640970 100.7772370 148.3277180  89.3797490
 101.6262900 148.7647330  89.3137680 100.4103640 148.6397440  90.2069550
 111.4060140 147.6556760 100.8467700 110.9033740 148.3962160 101.1861510
 112.2216800 148.0440760 100.5304490 109.6982150 152.8989940  94.2929060
 108.7572290 152.9140170  94.4676750 110.0126220 152.1125900  94.7389360
  99.6763790 154.5809540  87.8533020 100.4427060 154.4690900  88.4158450
  99.7538480 153.8847510  87.2009790  98.3710550 152.0134610  88.5365910
  98.4514140 151.0662120  88.6483310  99.2630300 152.3441490  88.6426570
  95.8981350 153.8349530 103.7722080  96.4020370 153.2556810 104.3438310
  95.1588770 154.1189760 104.3098450  97.9304430 151.9779120 104.6672150
  97.9709770 151.6792990 105.5757380  98.7849930 152.3786730 104.5079670
 101.7082820 154.5774670  89.8275660 102.1299240 154.4114540  90.6707050
 101.8333660 153.7674900  89.3330800  99.8710240 150.5571220 102.6346640
  99.3406700 150.0662170 102.0069980 100.5398310 150.9855420 102.1004570
 104.2210460 153.6012280  87.0752760 104.7416120 152.8861300  86.7093910
 104.8678860 154.2398150  87.3753270 109.2410470 152.3636840 104.4026980
 109.8231240 151.6089160 104.3147460 109.4172240 152.8944280 103.6258460
 100.3582540 147.5233590 102.7143930 100.2639410 146.9054340 101.9894800
  99.7779930 148.2499880 102.4873840 103.1243980 146.0806830  99.7471320
 102.6761280 146.1031090  98.9016870 102.4909180 145.6825850 100.3441620
 105.8667430 152.7077340 101.7521600 105.9863640 152.1118480 102.4916440
 106.7261430 152.7447030 101.3322900 108.2055330 153.2614530 100.3284110
 107.6790550 153.7857150  99.7249250 108.5486670 153.8941920 100.9593840
 100.6041720 150.6507900  86.7733820 100.4030780 149.7875260  87.1347160
 100.4333770 150.5641260  85.8355420 102.6336200 149.2498690 103.0097420
 103.2235890 148.9414540 103.6975240 101.8156440 148.7778440 103.1657320
 107.4529630 148.8664500 103.2430440 106.7645150 148.2046040 103.1780430
 108.1735650 148.4202770 103.6878900 108.0830030 145.4616130  89.3020700
 108.3632320 144.6184030  89.6580120 107.3095760 145.6939240  89.8159450
  99.4024520 147.7508520  86.7611700  99.7050420 147.7575950  85.8530850
 100.1419110 147.4006380  87.2579360 102.6209450 146.6943140  87.7467900
 102.2731450 146.0167130  87.1670350 102.8222220 146.2332650  88.5611290
  95.9615090 153.2230790  94.1432270  95.3063930 152.9542430  93.4991970
  96.7993040 153.1135270  93.6934250 108.9105530 148.0172080  88.3650760
 109.3290410 147.8303060  87.5247420 108.6041590 147.1651130  88.6753690
 112.4095260 152.9296220  92.0626560 112.0338860 152.1624150  91.6307850
 111.6798380 153.3118920  92.5501490  96.9991020 153.6083360  98.6835610
  97.3664060 153.5210760  99.5631630  96.4301840 152.8449910  98.5842470
 111.7994880 152.0767740 101.6966080 111.5680970 151.8480490 100.7964030
 112.0599430 152.9967290 101.6510970  96.5507020 150.5192450 102.5894030
  95.6563070 150.4859210 102.9287740  97.0904570 150.7179240 103.3545280
 110.2382950 147.3024170 104.4745780 111.1153130 147.3107570 104.8579780
 110.2503790 146.5655010 103.8638130  95.1753170 150.4329720  90.0857600
  94.2717250 150.6959920  89.9109260  95.6593790 150.7040890  89.3057560
 111.6846220 151.1553710  95.3633800 112.2083700 150.6616360  94.7323970
 112.2705640 151.2904070  96.1081370 111.8635940 151.2393580  98.8853350
 110.9138650 151.2057120  98.9998340 112.0448950 152.1493690  98.6503120
  97.7180380 149.4895260  87.9951980  98.4272080 149.0678480  87.5099260
  97.0020320 149.5570490  87.3635330  97.3654540 145.5434590  87.0354630
  98.0882670 146.0843530  87.3535850  97.6379060 145.2698010  86.1596170
 111.1746190 150.4127060  91.3026210 111.6705310 150.1797930  92.0875090
 110.9762260 149.5738900  90.8863850  97.0546730 144.7940780  96.9377250
  97.7022920 144.2438160  96.4972410  97.4748570 145.0483930  97.7593060
 112.6033350 149.0488010  93.8363890 112.4932630 148.8944050  94.7746160
 113.3640940 148.5208950  93.5939300 110.9499070 144.9882140 100.2946890
 111.5871290 145.6016280 100.6606080 111.0973960 145.0242800  99.3496120
 113.4923620 146.8795930  87.0770030 114.4172930 146.7477110  86.8688320
 113.4699410 146.9588750  88.0306480 113.5662110 147.6506590  89.7026740
 112.7713610 147.5851710  90.2319650 113.7705390 148.5857230  89.6912090
  96.8078730 144.9496450  99.6802570  96.4593550 145.4060270 100.4460750
  96.4766430 144.0553580  99.7625000 104.3203550 146.1408330 103.2021990
 104.2592440 146.7330160 103.9517400 105.2603930 146.0334290 103.0572250
 106.9578110 145.7978390 102.8414280 107.5718520 146.1157680 102.1795360
 107.5027670 145.3126980 103.4610140  97.4799370 144.4772650 102.9553340
  98.0282360 144.2960700 102.1919450  97.5454680 143.6866760 103.4909650
 107.6986150 144.3610530  99.1683570 106.8245990 144.6945640  98.9656500
 107.5896900 143.8883710  99.9935440 108.6058130 146.5681400 100.5525290
 108.2771490 145.7533160 100.1727020 109.5540430 146.5251210 100.4290980
 105.4460970 145.2780370  98.1076480 104.6632760 145.7525870  98.3873240
 105.1523900 144.3735200  97.9989660 109.9982040 145.9803470  96.1525570
 110.4390130 145.9248570  95.3047170 109.7289630 146.8961480  96.2235750
 111.8620610 145.6118710  94.1634390 111.8009010 144.6679930  94.0165410
 112.6412640 145.7198800  94.7087850  96.7901380 145.5827850  90.6290200
  97.5480740 145.6956730  90.0554230  96.3278550 146.4197050  90.5833630
 103.3315190 147.6967120  93.6192510 102.5189700 147.3224010  93.2788390
 103.8356830 146.9412200  93.9213700 107.8340170 144.3609570  94.8575580
 108.4369540 144.9329780  95.3324100 107.0933160 144.9249010  94.6349480
 110.9774770 144.7631130  90.1315860 111.1725400 145.6614580  90.3983290
 110.1904640 144.5318210  90.6248810  99.1626530 146.1091900  89.1692170
  99.6919290 145.3221700  89.0400120  99.7954850 146.7883090  89.4027700
 101.3564370 145.8467040  92.2237560 100.7267110 145.1454350  92.3907690
 100.8169510 146.6071170  92.0070720 101.4819930 145.1251020 104.6590050
 101.2004200 145.6284620 103.8950870 101.8639630 144.3272770 104.2932180
 108.0835390 144.5404600 105.2370520 107.9700840 144.8599210 106.1322040
 108.9005130 144.9417110 104.9407800 106.9893540 152.5597070  75.6005260
 106.9087590 151.6451680  75.3296970 106.5757960 153.0564140  74.8944970
 105.1211580 154.3376090  77.4814530 104.3453680 153.8576530  77.7713100
 105.7724510 153.6581740  77.3070690  99.1377410 154.6495900  78.3590290
  98.3062290 154.3944610  78.7586800  99.7458390 154.7206670  79.0948210
  97.5469360 149.6097790  72.1432680  96.6586060 149.9513760  72.0412560
  97.8310550 149.4098110  71.2513510  95.5102370 152.2103440  78.0272380
  96.0818480 151.4425640  78.0276020  95.5103910 152.5092200  77.1178990
  96.7527240 147.6187800  79.8141310  96.5730080 146.7213550  80.0944070
  96.3507320 148.1659670  80.4888260 105.5925740 149.8203660  77.7153620
 105.9690560 148.9475540  77.6027290 105.4945250 150.1562360  76.8244060
  99.7230750 148.1929290  73.1771060  99.8297500 149.0933020  73.4839820
  98.8123110 148.1447260  72.8865710 109.3749860 147.3154100  74.6481960
 110.1959480 146.8250670  74.6907440 109.4083940 147.9051760  75.4013800
  97.3713910 150.1148300  78.4223650  98.0524020 150.3786670  79.0411050
  97.0561960 149.2749170  78.7561660 101.5638480 151.1615660  77.5096240
 102.0716700 151.6596630  78.1501260 102.0951720 150.3850860  77.3335600
 113.6649410 149.3320850  81.2125590 112.9601580 149.7202560  80.6940700
 113.9307330 150.0271140  81.8146520  99.8474580 145.8014220  81.7759660
  99.8493020 146.3186610  80.9705560  99.0178890 145.3244400  81.7529590
 109.6111340 149.2554480  77.4209500 108.9066910 149.5439370  78.0012610
 109.9723500 150.0654590  77.0609060  99.5289910 147.5124180  79.7830110
  99.8706720 148.3566230  79.4883980  98.5905720 147.6607920  79.8995450
 112.6798260 148.7009270  77.8118710 111.7323170 148.7348250  77.9434140
 113.0048250 149.5148220  78.1968070 103.2117800 145.0006450  76.1074700
 103.5192780 144.4453340  75.3910200 102.2818500 145.1350910  75.9247690
 105.5998560 153.0655280  72.8434820 104.6727840 152.9992660  73.0723290
 105.7523380 154.0035410  72.7290060 105.5867640 149.3372280  69.8401980
 104.6471310 149.4986240  69.9254440 105.9050900 150.0557960  69.2937970
 112.1080400 154.0190800  79.8181010 111.2799030 154.0883890  79.3431140
 112.7030880 154.6045110  79.3496840 109.6295850 154.6275580  73.3470070
 109.0108270 154.2895130  72.6996370 109.6120300 153.9835340  74.0549260
 109.0722410 150.8060120  80.7635880 108.6593590 151.6313830  81.0175870
 108.3398360 150.2205160  80.5712240 101.2055200 153.5920020  75.6254550
 100.8012200 152.8797270  75.1300450 101.2918320 153.2473260  76.5142590
  99.9183820 150.3663230  79.4053590 100.4698410 150.4758570  78.6306840
 100.4327330 150.7400830  80.1208820 107.8060550 153.8662390  70.3542820
 108.2453830 153.0284820  70.2080640 108.5188970 154.4991790  70.4406960
  99.5926550 153.8882590  83.0158930  99.4534320 154.7605390  83.3846330
  98.7107910 153.5455400  82.8706870 111.3877690 145.1205200  68.6683860
 111.0750350 145.2132030  69.5682930 112.1490160 145.6986230  68.6181290
  97.9059830 152.4865000  73.1261200  97.7857430 153.2127090  72.5142470
  97.5960720 151.7167910  72.6489110 112.5978980 149.8576700  84.6458000
 111.9823250 150.3656370  84.1173460 112.2775400 148.9575030  84.5883940
 100.3723490 145.8300070  76.5084870  99.9291640 146.6109610  76.1769390
 100.9308480 146.1529960  77.2155810 104.6593300 148.6968590  82.1120190
 104.1972670 148.9051610  82.9240130 104.2571410 147.8827940  81.8090860
 109.6597810 149.9177540  83.2416850 108.8091400 149.6183290  83.5625920
 109.4999600 150.1619550  82.3300670 106.7547520 151.4179290  85.3415640
 107.0800930 150.5843040  85.0017870 107.5427850 151.9407810  85.4893970
 103.4882310 145.4510770  71.3890700 102.8636490 145.4470640  72.1144010
 103.4012430 144.5841730  70.9926670 102.4099390 146.3747400  78.3674470
 102.7071720 147.2810230  78.2866490 102.9584950 145.8866180  77.7534040
 100.1637710 150.9533640  74.2366120  99.9378630 150.7370810  75.1412740
  99.3830240 151.3862100  73.8912090 107.3935470 150.9597010  72.8356770
 106.7944360 151.6832810  72.6520390 107.9415080 150.8973790  72.0533220
 102.6036920 151.8519220  84.9026390 102.5080520 150.9113950  84.7526790
 103.4468900 152.0734290  84.5074460 106.0000340 149.5960550  74.8660050
 106.3929910 149.9132750  74.0528740 106.3617190 148.7172430  74.9804570
  97.7347460 148.2632890  83.0560170  97.3410850 149.1108100  83.2632950
  97.0465860 147.6259260  83.2468810 104.3092510 148.3467860  86.1256910
 103.6190830 148.1540060  86.7603000 105.0524810 148.6302500  86.6581210
  95.0364510 146.1861350  77.0890250  94.7477560 146.7564210  77.8015230
  95.7810270 145.7065800  77.4521480  95.2234740 150.1281470  68.2992970
  95.1409410 151.0712230  68.4407960  94.8717800 149.9856380  67.4205320
 106.5855480 152.1866300  78.9610830 105.8536600 152.6953110  79.3100930
 106.1879820 151.3696280  78.6599610 103.0232870 148.8620500  77.3663320
 103.0268930 148.4210450  76.5167860 103.9183990 149.1837830  77.4735140
  98.8735250 148.7446990  76.3257530  98.5335300 149.2222220  77.0824580
  98.1112570 148.2912110  75.9658630 103.0853020 149.8632580  70.3570080
 103.2065840 149.8219060  71.3055900 102.7001530 150.7256730  70.2016810
 107.0481390 147.6399980  78.3733770 107.0654130 148.0908630  79.2175620
 106.7996970 146.7405620  78.5867210 102.0974520 152.1733720  69.7553380
 101.5291420 151.7251970  69.1289290 102.8063520 152.5326500  69.2218530
 110.4752140 145.0532160  84.2120150 110.7997910 144.3221820  84.7378130
 110.5108650 144.7345800  83.3101140 103.3240840 152.9222280  79.1128730
 103.6910970 152.4480850  79.8590070 103.1345900 153.7963850  79.4537070
  96.1881330 147.6665970  75.2422200  95.9028250 147.3021640  76.0800820
  96.1260190 146.9346430  74.6285340 101.1140210 151.9630920  81.4312940
 100.8097280 152.8422900  81.6563300 102.0686670 152.0230710  81.4670380
 105.8619920 146.5595230  71.9635570 105.0484530 146.0608400  71.8880880
 105.6681870 147.3993480  71.5471920 108.5768310 150.9314880  70.2597730
 109.4647930 151.2432110  70.0849070 108.5473400 150.0587130  69.8678310
  97.1703940 152.8033660  82.5784300  96.8118880 153.4687510  83.1657640
  96.8758500 151.9717210  82.9496920 100.3717060 153.2617900  85.4623850
 100.0717200 153.4075080  84.5651670 101.1428300 152.7023190  85.3697240
 110.8482580 152.2426720  69.7277590 110.7646300 152.6740940  68.8774030
 111.5676770 152.7025070  70.1604410  95.6811990 152.8024920  69.2018900
  96.5506840 153.0849720  69.4854820  95.1902310 153.6160790  69.0867710
 102.8446800 154.1898130  73.3227180 103.3009580 155.0003380  73.5487370
 102.4935010 153.8721270  74.1545670  98.7458580 144.5335780  73.7949700
  98.6173210 144.5253680  74.7434620  97.9220600 144.8718870  73.4440710
  95.7452510 146.2926900  83.2556400  95.0311030 146.4923820  83.8609010
  96.1647550 145.5166470  83.6271200 107.2391290 148.7849210  81.0057850
 107.6072110 147.9644420  81.3337420 106.3789490 148.8451100  81.4213500
 110.6053320 147.7406150  71.8145410 109.9766480 147.8451820  71.1003640
 110.1105240 147.9602930  72.6039290 102.5737350 150.0192100  73.2303290
 101.8653500 150.4878440  73.6716900 102.8581830 149.3614110  73.8648480
 104.1993280 151.4388800  81.2295820 104.6978530 151.9134620  81.8947670
 104.3416230 150.5152320  81.4365850 106.6052780 146.7442760  74.6699080
 106.4820560 146.7628890  73.7208590 107.5537340 146.7921700  74.7897480
 100.7772370 148.3277180  70.6054000 101.6262900 148.7647330  70.5394190
 100.4103640 148.6397440  71.4326060 111.4060140 147.6556760  82.0724210
 110.9033740 148.3962160  82.4118020 112.2216800 148.0440760  81.7561000
 109.6982150 152.8989940  75.5185570 108.7572290 152.9140170  75.6933260
 110.0126220 152.1125900  75.9645870  99.6763790 154.5809540  69.0789530
 100.4427060 154.4690900  69.6414960  99.7538480 153.8847510  68.4266300
  98.3710550 152.0134610  69.7622420  98.4514140 151.0662120  69.8739820
  99.2630300 152.3441490  69.8683080  95.8981350 153.8349530  84.9978590
  96.4020370 153.2556810  85.5694820  95.1588770 154.1189760  85.5354960
  97.9304430 151.9779120  85.8928660  97.9709770 151.6792990  86.8013890
  98.7849930 152.3786730  85.7336180 101.7082820 154.5774670  71.0532170
 102.1299240 154.4114540  71.8963560 101.8333660 153.7674900  70.5587310
  99.8710240 150.5571220  83.8603150  99.3406700 150.0662170  83.2326490
 100.5398310 150.9855420  83.3261080 104.2210460 153.6012280  68.3009270
 104.7416120 152.8861300  67.9350420 104.8678860 154.2398150  68.6009780
 109.2410470 152.3636840  85.6283490 109.8231240 151.6089160  85.5403970
 109.4172240 152.8944280  84.8514970 100.3582540 147.5233590  83.9400440
 100.2639410 146.9054340  83.2151310  99.7779930 148.2499880  83.7130350
 103.1243980 146.0806830  80.9727830 102.6761280 146.1031090  80.1273380
 102.4909180 145.6825850  81.5698130 105.8667430 152.7077340  82.9778110
 105.9863640 152.1118480  83.7172950 106.7261430 152.7447030  82.5579410
 108.2055330 153.2614530  81.5540620 107.6790550 153.7857150  80.9505760
 108.5486670 153.8941920  82.1850350 100.6041720 150.6507900  67.9990330
 100.4030780 149.7875260  68.3603670 100.4333770 150.5641260  67.0611930
 102.6336200 149.2498690  84.2353930 103.2235890 148.9414540  84.9231750
 101.8156440 148.7778440  84.3913830 107.4529630 148.8664500  84.4686950
 106.7645150 148.2046040  84.4036940 108.1735650 148.4202770  84.9135410
 108.0830030 145.4616130  70.5277210 108.3632320 144.6184030  70.8836630
 107.3095760 145.6939240  71.0415960  99.4024520 147.7508520  67.9868210
  99.7050420 147.7575950  67.0787360 100.1419110 147.4006380  68.4835870
 102.6209450 146.6943140  68.9724410 102.2731450 146.0167130  68.3926860
 102.8222220 146.2332650  69.7867800  95.9615090 153.2230790  75.3688780
  95.3063930 152.9542430  74.7248480  96.7993040 153.1135270  74.9190760
 108.9105530 148.0172080  69.5907270 109.3290410 147.8303060  68.7503930
 108.6041590 147.1651130  69.9010200 112.4095260 152.9296220  73.2883070
 112.0338860 152.1624150  72.8564360 111.6798380 153.3118920  73.7758000
  96.9991020 153.6083360  79.9092120  97.3664060 153.5210760  80.7888140
  96.4301840 152.8449910  79.8098980 111.7994880 152.0767740  82.9222590
 111.5680970 151.8480490  82.0220540 112.0599430 152.9967290  82.8767480
  96.5507020 150.5192450  83.8150540  95.6563070 150.4859210  84.1544250
  97.0904570 150.7179240  84.5801790 110.2382950 147.3024170  85.7002290
 111.1153130 147.3107570  86.0836290 110.2503790 146.5655010  85.0894640
  95.1753170 150.4329720  71.3114110  94.2717250 150.6959920  71.1365770
  95.6593790 150.7040890  70.5314070 111.6846220 151.1553710  76.5890310
 112.2083700 150.6616360  75.9580480 112.2705640 151.2904070  77.3337880
 111.8635940 151.2393580  80.1109860 110.9138650 151.2057120  80.2254850
 112.0448950 152.1493690  79.8759630  97.7180380 149.4895260  69.2208490
  98.4272080 149.0678480  68.7355770  97.0020320 149.5570490  68.5891840
  97.3654540 145.5434590  68.2611140  98.0882670 146.0843530  68.5792360
  97.6379060 145.2698010  67.3852680 111.1746190 150.4127060  72.5282720
 111.6705310 150.1797930  73.3131600 110.9762260 149.5738900  72.1120360
  97.0546730 144.7940780  78.1633760  97.7022920 144.2438160  77.7228920
  97.4748570 145.0483930  78.9849570 112.6033350 149.0488010  75.0620400
 112.4932630 148.8944050  76.0002670 113.3640940 148.5208950  74.8195810
 110.9499070 144.9882140  81.5203400 111.5871290 145.6016280  81.8862590
 111.0973960 145.0242800  80.5752630 113.4923620 146.8795930  68.3026540
 114.4172930 146.7477110  68.0944830 113.4699410 146.9588750  69.2562990
 113.5662110 147.6506590  70.9283250 112.7713610 147.5851710  71.4576160
 113.7705390 148.5857230  70.9168600  96.8078730 144.9496450  80.9059080
  96.4593550 145.4060270  81.6717260  96.4766430 144.0553580  80.9881510
 104.3203550 146.1408330  84.4278500 104.2592440 146.7330160  85.1773910
 105.2603930 146.0334290  84.2828760 106.9578110 145.7978390  84.0670790
 107.5718520 146.1157680  83.4051870 107.5027670 145.3126980  84.6866650
  97.4799370 144.4772650  84.1809850  98.0282360 144.2960700  83.4175960
  97.5454680 143.6866760  84.7166160 107.6986150 144.3610530  80.3940080
 106.8245990 144.6945640  80.1913010 107.5896900 143.8883710  81.2191950
 108.6058130 146.5681400  81.7781800 108.2771490 145.7533160  81.3983530
 109.5540430 146.5251210  81.6547490 105.4460970 145.2780370  79.3332990
 104.6632760 145.7525870  79.6129750 105.1523900 144.3735200  79.2246170
 109.9982040 145.9803470  77.3782080 110.4390130 145.9248570  76.5303680
 109.7289630 146.8961480  77.4492260 111.8620610 145.6118710  75.3890900
 111.8009010 144.6679930  75.2421920 112.6412640 145.7198800  75.9344360
  96.7901380 145.5827850  71.8546710  97.5480740 145.6956730  71.2810740
  96.3278550 146.4197050  71.8090140 103.3315190 147.6967120  74.8449020
 102.5189700 147.3224010  74.5044900 103.8356830 146.9412200  75.1470210
 107.8340170 144.3609570  76.0832090 108.4369540 144.9329780  76.5580610
 107.0933160 144.9249010  75.8605990 110.9774770 144.7631130  71.3572370
 111.1725400 145.6614580  71.6239800 110.1904640 144.5318210  71.8505320
  99.1626530 146.1091900  70.3948680  99.6919290 145.3221700  70.2656630
  99.7954850 146.7883090  70.6284210 101.3564370 145.8467040  73.4494070
 100.7267110 145.1454350  73.6164200 100.8169510 146.6071170  73.2327230
 101.4819930 145.1251020  85.8846560 101.2004200 145.6284620  85.1207380
 101.8639630 144.3272770  85.5188690 108.0835390 144.5404600  86.4627030
 107.9700840 144.8599210  87.3578550 108.9005130 144.9417110  86.1664310
 106.9893540 152.5597070  56.8261770 106.9087590 151.6451680  56.5553480
 106.5757960 153.0564140  56.1201480 105.1211580 154.3376090  58.7071040
 104.3453680 153.8576530  58.9969610 105.7724510 153.6581740  58.5327200
  99.1377410 154.6495900  59.5846800  98.3062290 154.3944610  59.9843310
  99.7458390 154.7206670  60.3204720  97.5469360 149.6097790  53.3689190
  96.6586060 149.9513760  53.2669070  97.8310550 149.4098110  52.4770020
  95.5102370 152.2103440  59.2528890  96.0818480 151.4425640  59.2532530
  95.5103910 152.5092200  58.3435500  96.7527240 147.6187800  61.0397820
  96.5730080 146.7213550  61.3200580  96.3507320 148.1659670  61.7144770
 105.5925740 149.8203660  58.9410130 105.9690560 148.9475540  58.8283800
 105.4945250 150.1562360  58.0500570  99.7230750 148.1929290  54.4027570
  99.8297500 149.0933020  54.7096330  98.8123110 148.1447260  54.1122220
 109.3749860 147.3154100  55.8738470 110.1959480 146.8250670  55.9163950
 109.4083940 147.9051760  56.6270310  97.3713910 150.1148300  59.6480160
  98.0524020 150.3786670  60.2667560  97.0561960 149.2749170  59.9818170
 101.5638480 151.1615660  58.7352750 102.0716700 151.6596630  59.3757770
 102.0951720 150.3850860  58.5592110 113.6649410 149.3320850  62.4382100
 112.9601580 149.7202560  61.9197210 113.9307330 150.0271140  63.0403030
  99.8474580 145.8014220  63.0016170  99.8493020 146.3186610  62.1962070
  99.0178890 145.3244400  62.9786100 109.6111340 149.2554480  58.6466010
 108.9066910 149.5439370  59.2269120 109.9723500 150.0654590  58.2865570
  99.5289910 147.5124180  61.0086620  99.8706720 148.3566230  60.7140490
  98.5905720 147.6607920  61.1251960 112.6798260 148.7009270  59.0375220
 111.7323170 148.7348250  59.1690650 113.0048250 149.5148220  59.4224580
 103.2117800 145.0006450  57.3331210 103.5192780 144.4453340  56.6166710
 102.2818500 145.1350910  57.1504200 105.5998560 153.0655280  54.0691330
 104.6727840 152.9992660  54.2979800 105.7523380 154.0035410  53.9546570
 105.5867640 149.3372280  51.0658490 104.6471310 149.4986240  51.1510950
 105.9050900 150.0557960  50.5194480 112.1080400 154.0190800  61.0437520
 111.2799030 154.0883890  60.5687650 112.7030880 154.6045110  60.5753350
 109.6295850 154.6275580  54.5726580 109.0108270 154.2895130  53.9252880
 109.6120300 153.9835340  55.2805770 109.0722410 150.8060120  61.9892390
 108.6593590 151.6313830  62.2432380 108.3398360 150.2205160  61.7968750
 101.2055200 153.5920020  56.8511060 100.8012200 152.8797270  56.3556960
 101.2918320 153.2473260  57.7399100  99.9183820 150.3663230  60.6310100
 100.4698410 150.4758570  59.8563350 100.4327330 150.7400830  61.3465330
 107.8060550 153.8662390  51.5799330 108.2453830 153.0284820  51.4337150
 108.5188970 154.4991790  51.6663470  99.5926550 153.8882590  64.2415440
  99.4534320 154.7605390  64.6102840  98.7107910 153.5455400  64.0963380
 111.3877690 145.1205200  49.8940370 111.0750350 145.2132030  50.7939440
 112.1490160 145.6986230  49.8437800  97.9059830 152.4865000  54.3517710
  97.7857430 153.2127090  53.7398980  97.5960720 151.7167910  53.8745620
 112.5978980 149.8576700  65.8714510 111.9823250 150.3656370  65.3429970
 112.2775400 148.9575030  65.8140450 100.3723490 145.8300070  57.7341380
  99.9291640 146.6109610  57.4025900 100.9308480 146.1529960  58.4412320
 104.6593300 148.6968590  63.3376700 104.1972670 148.9051610  64.1496640
 104.2571410 147.8827940  63.0347370 109.6597810 149.9177540  64.4673360
 108.8091400 149.6183290  64.7882430 109.4999600 150.1619550  63.5557180
 106.7547520 151.4179290  66.5672150 107.0800930 150.5843040  66.2274380
 107.5427850 151.9407810  66.7150480 103.4882310 145.4510770  52.6147210
 102.8636490 145.4470640  53.3400520 103.4012430 144.5841730  52.2183180
 102.4099390 146.3747400  59.5930980 102.7071720 147.2810230  59.5123000
 102.9584950 145.8866180  58.9790550 100.1637710 150.9533640  55.4622630
  99.9378630 150.7370810  56.3669250  99.3830240 151.3862100  55.1168600
 107.3935470 150.9597010  54.0613280 106.7944360 151.6832810  53.8776900
 107.9415080 150.8973790  53.2789730 102.6036920 151.8519220  66.1282900
 102.5080520 150.9113950  65.9783300 103.4468900 152.0734290  65.7330970
 106.0000340 149.5960550  56.0916560 106.3929910 149.9132750  55.2785250
 106.3617190 148.7172430  56.2061080  97.7347460 148.2632890  64.2816680
  97.3410850 149.1108100  64.4889460  97.0465860 147.6259260  64.4725320
 104.3092510 148.3467860  67.3513420 103.6190830 148.1540060  67.9859510
 105.0524810 148.6302500  67.8837720  95.0364510 146.1861350  58.3146760
  94.7477560 146.7564210  59.0271740  95.7810270 145.7065800  58.6777990
  95.2234740 150.1281470  49.5249480  95.1409410 151.0712230  49.6664470
  94.8717800 149.9856380  48.6461830 106.5855480 152.1866300  60.1867340
 105.8536600 152.6953110  60.5357440 106.1879820 151.3696280  59.8856120
 103.0232870 148.8620500  58.5919830 103.0268930 148.4210450  57.7424370
 103.9183990 149.1837830  58.6991650  98.8735250 148.7446990  57.5514040
  98.5335300 149.2222220  58.3081090  98.1112570 148.2912110  57.1915140
 103.0853020 149.8632580  51.5826590 103.2065840 149.8219060  52.5312410
 102.7001530 150.7256730  51.4273320 107.0481390 147.6399980  59.5990280
 107.0654130 148.0908630  60.4432130 106.7996970 146.7405620  59.8123720
 102.0974520 152.1733720  50.9809890 101.5291420 151.7251970  50.3545800
 102.8063520 152.5326500  50.4475040 110.4752140 145.0532160  65.4376660
 110.7997910 144.3221820  65.9634640 110.5108650 144.7345800  64.5357650
 103.3240840 152.9222280  60.3385240 103.6910970 152.4480850  61.0846580
 103.1345900 153.7963850  60.6793580  96.1881330 147.6665970  56.4678710
  95.9028250 147.3021640  57.3057330  96.1260190 146.9346430  55.8541850
 101.1140210 151.9630920  62.6569450 100.8097280 152.8422900  62.8819810
 102.0686670 152.0230710  62.6926890 105.8619920 146.5595230  53.1892080
 105.0484530 146.0608400  53.1137390 105.6681870 147.3993480  52.7728430
 108.5768310 150.9314880  51.4854240 109.4647930 151.2432110  51.3105580
 108.5473400 150.0587130  51.0934820  97.1703940 152.8033660  63.8040810
  96.8118880 153.4687510  64.3914150  96.8758500 151.9717210  64.1753430
 100.3717060 153.2617900  66.6880360 100.0717200 153.4075080  65.7908180
 101.1428300 152.7023190  66.5953750 110.8482580 152.2426720  50.9534100
 110.7646300 152.6740940  50.1030540 111.5676770 152.7025070  51.3860920
  95.6811990 152.8024920  50.4275410  96.5506840 153.0849720  50.7111330
  95.1902310 153.6160790  50.3124220 102.8446800 154.1898130  54.5483690
 103.3009580 155.0003380  54.7743880 102.4935010 153.8721270  55.3802180
  98.7458580 144.5335780  55.0206210  98.6173210 144.5253680  55.9691130
  97.9220600 144.8718870  54.6697220  95.7452510 146.2926900  64.4812910
  95.0311030 146.4923820  65.0865520  96.1647550 145.5166470  64.8527710
 107.2391290 148.7849210  62.2314360 107.6072110 147.9644420  62.5593930
 106.3789490 148.8451100  62.6470010 110.6053320 147.7406150  53.0401920
 109.9766480 147.8451820  52.3260150 110.1105240 147.9602930  53.8295800
 102.5737350 150.0192100  54.4559800 101.8653500 150.4878440  54.8973410
 102.8581830 149.3614110  55.0904990 104.1993280 151.4388800  62.4552330
 104.6978530 151.9134620  63.1204180 104.3416230 150.5152320  62.6622360
 106.6052780 146.7442760  55.8955590 106.4820560 146.7628890  54.9465100
 107.5537340 146.7921700  56.0153990 100.7772370 148.3277180  51.8310510
 101.6262900 148.7647330  51.7650700 100.4103640 148.6397440  52.6582570
 111.4060140 147.6556760  63.2980720 110.9033740 148.3962160  63.6374530
 112.2216800 148.0440760  62.9817510 109.6982150 152.8989940  56.7442080
 108.7572290 152.9140170  56.9189770 110.0126220 152.1125900  57.1902380
  99.6763790 154.5809540  50.3046040 100.4427060 154.4690900  50.8671470
  99.7538480 153.8847510  49.6522810  98.3710550 152.0134610  50.9878930
  98.4514140 151.0662120  51.0996330  99.2630300 152.3441490  51.0939590
  95.8981350 153.8349530  66.2235100  96.4020370 153.2556810  66.7951330
  95.1588770 154.1189760  66.7611470  97.9304430 151.9779120  67.1185170
  97.9709770 151.6792990  68.0270400  98.7849930 152.3786730  66.9592690
 101.7082820 154.5774670  52.2788680 102.1299240 154.4114540  53.1220070
 101.8333660 153.7674900  51.7843820  99.8710240 150.5571220  65.0859660
  99.3406700 150.0662170  64.4583000 100.5398310 150.9855420  64.5517590
 104.2210460 153.6012280  49.5265780 104.7416120 152.8861300  49.1606930
 104.8678860 154.2398150  49.8266290 109.2410470 152.3636840  66.8540000
 109.8231240 151.6089160  66.7660480 109.4172240 152.8944280  66.0771480
 100.3582540 147.5233590  65.1656950 100.2639410 146.9054340  64.4407820
  99.7779930 148.2499880  64.9386860 103.1243980 146.0806830  62.1984340
 102.6761280 146.1031090  61.3529890 102.4909180 145.6825850  62.7954640
 105.8667430 152.7077340  64.2034620 105.9863640 152.1118480  64.9429460
 106.7261430 152.7447030  63.7835920 108.2055330 153.2614530  62.7797130
 107.6790550 153.7857150  62.1762270 108.5486670 153.8941920  63.4106860
 100.6041720 150.6507900  49.2246840 100.4030780 149.7875260  49.5860180
 100.4333770 150.5641260  48.2868440 102.6336200 149.2498690  65.4610440
 103.2235890 148.9414540  66.1488260 101.8156440 148.7778440  65.6170340
 107.4529630 148.8664500  65.6943460 106.7645150 148.2046040  65.6293450
 108.1735650 148.4202770  66.1391920 108.0830030 145.4616130  51.7533720
 108.3632320 144.6184030  52.1093140 107.3095760 145.6939240  52.2672470
  99.4024520 147.7508520  49.2124720  99.7050420 147.7575950  48.3043870
 100.1419110 147.4006380  49.7092380 102.6209450 146.6943140  50.1980920
 102.2731450 146.0167130  49.6183370 102.8222220 146.2332650  51.0124310
  95.9615090 153.2230790  56.5945290  95.3063930 152.9542430  55.9504990
  96.7993040 153.1135270  56.1447270 108.9105530 148.0172080  50.8163780
 109.3290410 147.8303060  49.9760440 108.6041590 147.1651130  51.1266710
 112.4095260 152.9296220  54.5139580 112.0338860 152.1624150  54.0820870
 111.6798380 153.3118920  55.0014510  96.9991020 153.6083360  61.1348630
  97.3664060 153.5210760  62.0144650  96.4301840 152.8449910  61.0355490
 111.7994880 152.0767740  64.1479100 111.5680970 151.8480490  63.2477050
 112.0599430 152.9967290  64.1023990  96.5507020 150.5192450  65.0407050
  95.6563070 150.4859210  65.3800760  97.0904570 150.7179240  65.8058300
 110.2382950 147.3024170  66.9258800 111.1153130 147.3107570  67.3092800
 110.2503790 146.5655010  66.3151150  95.1753170 150.4329720  52.5370620
  94.2717250 150.6959920  52.3622280  95.6593790 150.7040890  51.7570580
 111.6846220 151.1553710  57.8146820 112.2083700 150.6616360  57.1836990
 112.2705640 151.2904070  58.5594390 111.8635940 151.2393580  61.3366370
 110.9138650 151.2057120  61.4511360 112.0448950 152.1493690  61.1016140
  97.7180380 149.4895260  50.4465000  98.4272080 149.0678480  49.9612280
  97.0020320 149.5570490  49.8148350  97.3654540 145.5434590  49.4867650
  98.0882670 146.0843530  49.8048870  97.6379060 145.2698010  48.6109190
 111.1746190 150.4127060  53.7539230 111.6705310 150.1797930  54.5388110
 110.9762260 149.5738900  53.3376870  97.0546730 144.7940780  59.3890270
  97.7022920 144.2438160  58.9485430  97.4748570 145.0483930  60.2106080
 112.6033350 149.0488010  56.2876910 112.4932630 148.8944050  57.2259180
 113.3640940 148.5208950  56.0452320 110.9499070 144.9882140  62.7459910
 111.5871290 145.6016280  63.1119100 111.0973960 145.0242800  61.8009140
 113.4923620 146.8795930  49.5283050 114.4172930 146.7477110  49.3201340
 113.4699410 146.9588750  50.4819500 113.5662110 147.6506590  52.1539760
 112.7713610 147.5851710  52.6832670 113.7705390 148.5857230  52.1425110
  96.8078730 144.9496450  62.1315590  96.4593550 145.4060270  62.8973770
  96.4766430 144.0553580  62.2138020 104.3203550 146.1408330  65.6535010
 104.2592440 146.7330160  66.4030420 105.2603930 146.0334290  65.5085270
 106.9578110 145.7978390  65.2927300 107.5718520 146.1157680  64.6308380
 107.5027670 145.3126980  65.9123160  97.4799370 144.4772650  65.4066360
  98.0282360 144.2960700  64.6432470  97.5454680 143.6866760  65.9422670
 107.6986150 144.3610530  61.6196590 106.8245990 144.6945640  61.4169520
 107.5896900 143.8883710  62.4448460 108.6058130 146.5681400  63.0038310
 108.2771490 145.7533160  62.6240040 109.5540430 146.5251210  62.8804000
 105.4460970 145.2780370  60.5589500 104.6632760 145.7525870  60.8386260
 105.1523900 144.3735200  60.4502680 109.9982040 145.9803470  58.6038590
 110.4390130 145.9248570  57.7560190 109.7289630 146.8961480  58.6748770
 111.8620610 145.6118710  56.6147410 111.8009010 144.6679930  56.4678430
 112.6412640 145.7198800  57.1600870  96.7901380 145.5827850  53.0803220
  97.5480740 145.6956730  52.5067250  96.3278550 146.4197050  53.0346650
 103.3315190 147.6967120  56.0705530 102.5189700 147.3224010  55.7301410
 103.8356830 146.9412200  56.3726720 107.8340170 144.3609570  57.3088600
 108.4369540 144.9329780  57.7837120 107.0933160 144.9249010  57.0862500
 110.9774770 144.7631130  52.5828880 111.1725400 145.6614580  52.8496310
 110.1904640 144.5318210  53.0761830  99.1626530 146.1091900  51.6205190
  99.6919290 145.3221700  51.4913140  99.7954850 146.7883090  51.8540720
 101.3564370 145.8467040  54.6750580 100.7267110 145.1454350  54.8420710
 100.8169510 146.6071170  54.4583740 101.4819930 145.1251020  67.1103070
 101.2004200 145.6284620  66.3463890 101.8639630 144.3272770  66.7445200
 108.0835390 144.5404600  67.6883540 107.9700840 144.8599210  68.5835060
 108.9005130 144.9417110  67.3920820 106.9893540 152.5597070  38.0518280
 106.9087590 151.6451680  37.7809990 106.5757960 153.0564140  37.3457990
 105.1211580 154.3376090  39.9327550 104.3453680 153.8576530  40.2226120
 105.7724510 153.6581740  39.7583710  99.1377410 154.6495900  40.8103310
  98.3062290 154.3944610  41.2099820  99.7458390 154.7206670  41.5461230
  97.5469360 149.6097790  34.5945700  96.6586060 149.9513760  34.4925580
  97.8310550 149.4098110  33.7026530  95.5102370 152.2103440  40.4785400
  96.0818480 151.4425640  40.4789040  95.5103910 152.5092200  39.5692010
  96.7527240 147.6187800  42.2654330  96.5730080 146.7213550  42.5457090
  96.3507320 148.1659670  42.9401280 105.5925740 149.8203660  40.1666640
 105.9690560 148.9475540  40.0540310 105.4945250 150.1562360  39.2757080
  99.7230750 148.1929290  35.6284080  99.8297500 149.0933020  35.9352840
  98.8123110 148.1447260  35.3378730 109.3749860 147.3154100  37.0994980
 110.1959480 146.8250670  37.1420460 109.4083940 147.9051760  37.8526820
  97.3713910 150.1148300  40.8736670  98.0524020 150.3786670  41.4924070
  97.0561960 149.2749170  41.2074680 101.5638480 151.1615660  39.9609260
 102.0716700 151.6596630  40.6014280 102.0951720 150.3850860  39.7848620
 113.6649410 149.3320850  43.6638610 112.9601580 149.7202560  43.1453720
 113.9307330 150.0271140  44.2659540  99.8474580 145.8014220  44.2272680
  99.8493020 146.3186610  43.4218580  99.0178890 145.3244400  44.2042610
 109.6111340 149.2554480  39.8722520 108.9066910 149.5439370  40.4525630
 109.9723500 150.0654590  39.5122080  99.5289910 147.5124180  42.2343130
  99.8706720 148.3566230  41.9397000  98.5905720 147.6607920  42.3508470
 112.6798260 148.7009270  40.2631730 111.7323170 148.7348250  40.3947160
 113.0048250 149.5148220  40.6481090 103.2117800 145.0006450  38.5587720
 103.5192780 144.4453340  37.8423220 102.2818500 145.1350910  38.3760710
 105.5998560 153.0655280  35.2947840 104.6727840 152.9992660  35.5236310
 105.7523380 154.0035410  35.1803080 105.5867640 149.3372280  32.2915000
 104.6471310 149.4986240  32.3767460 105.9050900 150.0557960  31.7450990
 112.1080400 154.0190800  42.2694030 111.2799030 154.0883890  41.7944160
 112.7030880 154.6045110  41.8009860 109.6295850 154.6275580  35.7983090
 109.0108270 154.2895130  35.1509390 109.6120300 153.9835340  36.5062280
 109.0722410 150.8060120  43.2148900 108.6593590 151.6313830  43.4688890
 108.3398360 150.2205160  43.0225260 101.2055200 153.5920020  38.0767570
 100.8012200 152.8797270  37.5813470 101.2918320 153.2473260  38.9655610
  99.9183820 150.3663230  41.8566610 100.4698410 150.4758570  41.0819860
 100.4327330 150.7400830  42.5721840 107.8060550 153.8662390  32.8055840
 108.2453830 153.0284820  32.6593660 108.5188970 154.4991790  32.8919980
  99.5926550 153.8882590  45.4671950  99.4534320 154.7605390  45.8359350
  98.7107910 153.5455400  45.3219890 111.3877690 145.1205200  31.1196880
 111.0750350 145.2132030  32.0195950 112.1490160 145.6986230  31.0694310
  97.9059830 152.4865000  35.5774220  97.7857430 153.2127090  34.9655490
  97.5960720 151.7167910  35.1002130 112.5978980 149.8576700  47.0971020
 111.9823250 150.3656370  46.5686480 112.2775400 148.9575030  47.0396960
 100.3723490 145.8300070  38.9597890  99.9291640 146.6109610  38.6282410
 100.9308480 146.1529960  39.6668830 104.6593300 148.6968590  44.5633210
 104.1972670 148.9051610  45.3753150 104.2571410 147.8827940  44.2603880
 109.6597810 149.9177540  45.6929870 108.8091400 149.6183290  46.0138940
 109.4999600 150.1619550  44.7813690 106.7547520 151.4179290  47.7928660
 107.0800930 150.5843040  47.4530890 107.5427850 151.9407810  47.9406990
 103.4882310 145.4510770  33.8403720 102.8636490 145.4470640  34.5657030
 103.4012430 144.5841730  33.4439690 102.4099390 146.3747400  40.8187490
 102.7071720 147.2810230  40.7379510 102.9584950 145.8866180  40.2047060
 100.1637710 150.9533640  36.6879140  99.9378630 150.7370810  37.5925760
  99.3830240 151.3862100  36.3425110 107.3935470 150.9597010  35.2869790
 106.7944360 151.6832810  35.1033410 107.9415080 150.8973790  34.5046240
 102.6036920 151.8519220  47.3539410 102.5080520 150.9113950  47.2039810
 103.4468900 152.0734290  46.9587480 106.0000340 149.5960550  37.3173070
 106.3929910 149.9132750  36.5041760 106.3617190 148.7172430  37.4317590
  97.7347460 148.2632890  45.5073190  97.3410850 149.1108100  45.7145970
  97.0465860 147.6259260  45.6981830 104.3092510 148.3467860  48.5769930
 103.6190830 148.1540060  49.2116020 105.0524810 148.6302500  49.1094230
  95.0364510 146.1861350  39.5403270  94.7477560 146.7564210  40.2528250
  95.7810270 145.7065800  39.9034500  95.2234740 150.1281470  30.7505990
  95.1409410 151.0712230  30.8920980  94.8717800 149.9856380  29.8718340
 106.5855480 152.1866300  41.4123850 105.8536600 152.6953110  41.7613950
 106.1879820 151.3696280  41.1112630 103.0232870 148.8620500  39.8176340
 103.0268930 148.4210450  38.9680880 103.9183990 149.1837830  39.9248160
  98.8735250 148.7446990  38.7770550  98.5335300 149.2222220  39.5337600
  98.1112570 148.2912110  38.4171650 103.0853020 149.8632580  32.8083100
 103.2065840 149.8219060  33.7568920 102.7001530 150.7256730  32.6529830
 107.0481390 147.6399980  40.8246790 107.0654130 148.0908630  41.6688640
 106.7996970 146.7405620  41.0380230 102.0974520 152.1733720  32.2066400
 101.5291420 151.7251970  31.5802310 102.8063520 152.5326500  31.6731550
 110.4752140 145.0532160  46.6633170 110.7997910 144.3221820  47.1891150
 110.5108650 144.7345800  45.7614160 103.3240840 152.9222280  41.5641750
 103.6910970 152.4480850  42.3103090 103.1345900 153.7963850  41.9050090
  96.1881330 147.6665970  37.6935220  95.9028250 147.3021640  38.5313840
  96.1260190 146.9346430  37.0798360 101.1140210 151.9630920  43.8825960
 100.8097280 152.8422900  44.1076320 102.0686670 152.0230710  43.9183400
 105.8619920 146.5595230  34.4148590 105.0484530 146.0608400  34.3393900
 105.6681870 147.3993480  33.9984940 108.5768310 150.9314880  32.7110750
 109.4647930 151.2432110  32.5362090 108.5473400 150.0587130  32.3191330
  97.1703940 152.8033660  45.0297320  96.8118880 153.4687510  45.6170660
  96.8758500 151.9717210  45.4009940 100.3717060 153.2617900  47.9136870
 100.0717200 153.4075080  47.0164690 101.1428300 152.7023190  47.8210260
 110.8482580 152.2426720  32.1790610 110.7646300 152.6740940  31.3287050
 111.5676770 152.7025070  32.6117430  95.6811990 152.8024920  31.6531920
  96.5506840 153.0849720  31.9367840  95.1902310 153.6160790  31.5380730
 102.8446800 154.1898130  35.7740200 103.3009580 155.0003380  36.0000390
 102.4935010 153.8721270  36.6058690  98.7458580 144.5335780  36.2462720
  98.6173210 144.5253680  37.1947640  97.9220600 144.8718870  35.8953730
  95.7452510 146.2926900  45.7069420  95.0311030 146.4923820  46.3122030
  96.1647550 145.5166470  46.0784220 107.2391290 148.7849210  43.4570870
 107.6072110 147.9644420  43.7850440 106.3789490 148.8451100  43.8726520
 110.6053320 147.7406150  34.2658430 109.9766480 147.8451820  33.5516660
 110.1105240 147.9602930  35.0552310 102.5737350 150.0192100  35.6816310
 101.8653500 150.4878440  36.1229920 102.8581830 149.3614110  36.3161500
 104.1993280 151.4388800  43.6808840 104.6978530 151.9134620  44.3460690
 104.3416230 150.5152320  43.8878870 106.6052780 146.7442760  37.1212100
 106.4820560 146.7628890  36.1721610 107.5537340 146.7921700  37.2410500
 100.7772370 148.3277180  33.0567020 101.6262900 148.7647330  32.9907210
 100.4103640 148.6397440  33.8839080 111.4060140 147.6556760  44.5237230
 110.9033740 148.3962160  44.8631040 112.2216800 148.0440760  44.2074020
 109.6982150 152.8989940  37.9698590 108.7572290 152.9140170  38.1446280
 110.0126220 152.1125900  38.4158890  99.6763790 154.5809540  31.5302550
 100.4427060 154.4690900  32.0927980  99.7538480 153.8847510  30.8779320
  98.3710550 152.0134610  32.2135440  98.4514140 151.0662120  32.3252840
  99.2630300 152.3441490  32.3196100  95.8981350 153.8349530  47.4491610
  96.4020370 153.2556810  48.0207840  95.1588770 154.1189760  47.9867980
  97.9304430 151.9779120  48.3441680  97.9709770 151.6792990  49.2526910
  98.7849930 152.3786730  48.1849200 101.7082820 154.5774670  33.5045190
 102.1299240 154.4114540  34.3476580 101.8333660 153.7674900  33.0100330
  99.8710240 150.5571220  46.3116170  99.3406700 150.0662170  45.6839510
 100.5398310 150.9855420  45.7774100 104.2210460 153.6012280  30.7522290
 104.7416120 152.8861300  30.3863440 104.8678860 154.2398150  31.0522800
 109.2410470 152.3636840  48.0796510 109.8231240 151.6089160  47.9916990
 109.4172240 152.8944280  47.3027990 100.3582540 147.5233590  46.3913460
 100.2639410 146.9054340  45.6664330  99.7779930 148.2499880  46.1643370
 103.1243980 146.0806830  43.4240850 102.6761280 146.1031090  42.5786400
 102.4909180 145.6825850  44.0211150 105.8667430 152.7077340  45.4291130
 105.9863640 152.1118480  46.1685970 106.7261430 152.7447030  45.0092430
 108.2055330 153.2614530  44.0053640 107.6790550 153.7857150  43.4018780
 108.5486670 153.8941920  44.6363370 100.6041720 150.6507900  30.4503350
 100.4030780 149.7875260  30.8116690 100.4333770 150.5641260  29.5124950
 102.6336200 149.2498690  46.6866950 103.2235890 148.9414540  47.3744770
 101.8156440 148.7778440  46.8426850 107.4529630 148.8664500  46.9199970
 106.7645150 148.2046040  46.8549960 108.1735650 148.4202770  47.3648430
 108.0830030 145.4616130  32.9790230 108.3632320 144.6184030  33.3349650
 107.3095760 145.6939240  33.4928980  99.4024520 147.7508520  30.4381230
  99.7050420 147.7575950  29.5300380 100.1419110 147.4006380  30.9348890
 102.6209450 146.6943140  31.4237430 102.2731450 146.0167130  30.8439880
 102.8222220 146.2332650  32.2380820  95.9615090 153.2230790  37.8201800
  95.3063930 152.9542430  37.1761500  96.7993040 153.1135270  37.3703780
 108.9105530 148.0172080  32.0420290 109.3290410 147.8303060  31.2016950
 108.6041590 147.1651130  32.3523220 112.4095260 152.9296220  35.7396090
 112.0338860 152.1624150  35.3077380 111.6798380 153.3118920  36.2271020
  96.9991020 153.6083360  42.3605140  97.3664060 153.5210760  43.2401160
  96.4301840 152.8449910  42.2612000 111.7994880 152.0767740  45.3735610
 111.5680970 151.8480490  44.4733560 112.0599430 152.9967290  45.3280500
  96.5507020 150.5192450  46.2663560  95.6563070 150.4859210  46.6057270
  97.0904570 150.7179240  47.0314810 110.2382950 147.3024170  48.1515310
 111.1153130 147.3107570  48.5349310 110.2503790 146.5655010  47.5407660
  95.1753170 150.4329720  33.7627130  94.2717250 150.6959920  33.5878790
  95.6593790 150.7040890  32.9827090 111.6846220 151.1553710  39.0403330
 112.2083700 150.6616360  38.4093500 112.2705640 151.2904070  39.7850900
 111.8635940 151.2393580  42.5622880 110.9138650 151.2057120  42.6767870
 112.0448950 152.1493690  42.3272650  97.7180380 149.4895260  31.6721510
  98.4272080 149.0678480  31.1868790  97.0020320 149.5570490  31.0404860
  97.3654540 145.5434590  30.7124160  98.0882670 146.0843530  31.0305380
  97.6379060 145.2698010  29.8365700 111.1746190 150.4127060  34.9795740
 111.6705310 150.1797930  35.7644620 110.9762260 149.5738900  34.5633380
  97.0546730 144.7940780  40.6146780  97.7022920 144.2438160  40.1741940
  97.4748570 145.0483930  41.4362590 112.6033350 149.0488010  37.5133420
 112.4932630 148.8944050  38.4515690 113.3640940 148.5208950  37.2708830
 110.9499070 144.9882140  43.9716420 111.5871290 145.6016280  44.3375610
 111.0973960 145.0242800  43.0265650 113.4923620 146.8795930  30.7539560
 114.4172930 146.7477110  30.5457850 113.4699410 146.9588750  31.7076010
 113.5662110 147.6506590  33.3796270 112.7713610 147.5851710  33.9089180
 113.7705390 148.5857230  33.3681620  96.8078730 144.9496450  43.3572100
  96.4593550 145.4060270  44.1230280  96.4766430 144.0553580  43.4394530
 104.3203550 146.1408330  46.8791520 104.2592440 146.7330160  47.6286930
 105.2603930 146.0334290  46.7341780 106.9578110 145.7978390  46.5183810
 107.5718520 146.1157680  45.8564890 107.5027670 145.3126980  47.1379670
  97.4799370 144.4772650  46.6322870  98.0282360 144.2960700  45.8688980
  97.5454680 143.6866760  47.1679180 107.6986150 144.3610530  42.8453100
 106.8245990 144.6945640  42.6426030 107.5896900 143.8883710  43.6704970
 108.6058130 146.5681400  44.2294820 108.2771490 145.7533160  43.8496550
 109.5540430 146.5251210  44.1060510 105.4460970 145.2780370  41.7846010
 104.6632760 145.7525870  42.0642770 105.1523900 144.3735200  41.6759190
 109.9982040 145.9803470  39.8295100 110.4390130 145.9248570  38.9816700
 109.7289630 146.8961480  39.9005280 111.8620610 145.6118710  37.8403920
 111.8009010 144.6679930  37.6934940 112.6412640 145.7198800  38.3857380
  96.7901380 145.5827850  34.3059730  97.5480740 145.6956730  33.7323760
  96.3278550 146.4197050  34.2603160 103.3315190 147.6967120  37.2962040
 102.5189700 147.3224010  36.9557920 103.8356830 146.9412200  37.5983230
 107.8340170 144.3609570  38.5345110 108.4369540 144.9329780  39.0093630
 107.0933160 144.9249010  38.3119010 110.9774770 144.7631130  33.8085390
 111.1725400 145.6614580  34.0752820 110.1904640 144.5318210  34.3018340
  99.1626530 146.1091900  32.8461700  99.6919290 145.3221700  32.7169650
  99.7954850 146.7883090  33.0797230 101.3564370 145.8467040  35.9007090
 100.7267110 145.1454350  36.0677220 100.8169510 146.6071170  35.6840250
 101.4819930 145.1251020  48.3359580 101.2004200 145.6284620  47.5720400
 101.8639630 144.3272770  47.9701710 108.0835390 144.5404600  48.9140050
 107.9700840 144.8599210  49.8091570 108.9005130 144.9417110  48.6177330
 106.9893540 152.5597070  19.2774790 106.9087590 151.6451680  19.0066500
 106.5757960 153.0564140  18.5714500 105.1211580 154.3376090  21.1584060
 104.3453680 153.8576530  21.4482630 105.7724510 153.6581740  20.9840220
  99.1377410 154.6495900  22.0359820  98.3062290 154.3944610  22.4356330
  99.7458390 154.7206670  22.7717740  97.5469360 149.6097790  15.8202210
  96.6586060 149.9513760  15.7182090  97.8310550 149.4098110  14.9283040
  95.5102370 152.2103440  21.7041910  96.0818480 151.4425640  21.7045550
  95.5103910 152.5092200  20.7948520  96.7527240 147.6187800  23.4910840
  96.5730080 146.7213550  23.7713600  96.3507320 148.1659670  24.1657790
 105.5925740 149.8203660  21.3923150 105.9690560 148.9475540  21.2796820
 105.4945250 150.1562360  20.5013590  99.7230750 148.1929290  16.8540590
  99.8297500 149.0933020  17.1609350  98.8123110 148.1447260  16.5635240
 109.3749860 147.3154100  18.3251490 110.1959480 146.8250670  18.3676970
 109.4083940 147.9051760  19.0783330  97.3713910 150.1148300  22.0993180
  98.0524020 150.3786670  22.7180580  97.0561960 149.2749170  22.4331190
 101.5638480 151.1615660  21.1865770 102.0716700 151.6596630  21.8270790
 102.0951720 150.3850860  21.0105130 113.6649410 149.3320850  24.8895120
 112.9601580 149.7202560  24.3710230 113.9307330 150.0271140  25.4916050
  99.8474580 145.8014220  25.4529190  99.8493020 146.3186610  24.6475090
  99.0178890 145.3244400  25.4299120 109.6111340 149.2554480  21.0979030
 108.9066910 149.5439370  21.6782140 109.9723500 150.0654590  20.7378590
  99.5289910 147.5124180  23.4599640  99.8706720 148.3566230  23.1653510
  98.5905720 147.6607920  23.5764980 112.6798260 148.7009270  21.4888240
 111.7323170 148.7348250  21.6203670 113.0048250 149.5148220  21.8737600
 103.2117800 145.0006450  19.7844230 103.5192780 144.4453340  19.0679730
 102.2818500 145.1350910  19.6017220 105.5998560 153.0655280  16.5204350
 104.6727840 152.9992660  16.7492820 105.7523380 154.0035410  16.4059590
 105.5867640 149.3372280  13.5171510 104.6471310 149.4986240  13.6023970
 105.9050900 150.0557960  12.9707500 112.1080400 154.0190800  23.4950540
 111.2799030 154.0883890  23.0200670 112.7030880 154.6045110  23.0266370
 109.6295850 154.6275580  17.0239600 109.0108270 154.2895130  16.3765900
 109.6120300 153.9835340  17.7318790 109.0722410 150.8060120  24.4405410
 108.6593590 151.6313830  24.6945400 108.3398360 150.2205160  24.2481770
 101.2055200 153.5920020  19.3024080 100.8012200 152.8797270  18.8069980
 101.2918320 153.2473260  20.1912120  99.9183820 150.3663230  23.0823120
 100.4698410 150.4758570  22.3076370 100.4327330 150.7400830  23.7978350
 107.8060550 153.8662390  14.0312350 108.2453830 153.0284820  13.8850170
 108.5188970 154.4991790  14.1176490  99.5926550 153.8882590  26.6928460
  99.4534320 154.7605390  27.0615860  98.7107910 153.5455400  26.5476400
 111.3877690 145.1205200  12.3453390 111.0750350 145.2132030  13.2452460
 112.1490160 145.6986230  12.2950820  97.9059830 152.4865000  16.8030730
  97.7857430 153.2127090  16.1912000  97.5960720 151.7167910  16.3258640
 112.5978980 149.8576700  28.3227530 111.9823250 150.3656370  27.7942990
 112.2775400 148.9575030  28.2653470 100.3723490 145.8300070  20.1854400
  99.9291640 146.6109610  19.8538920 100.9308480 146.1529960  20.8925340
 104.6593300 148.6968590  25.7889720 104.1972670 148.9051610  26.6009660
 104.2571410 147.8827940  25.4860390 109.6597810 149.9177540  26.9186380
 108.8091400 149.6183290  27.2395450 109.4999600 150.1619550  26.0070200
 106.7547520 151.4179290  29.0185170 107.0800930 150.5843040  28.6787400
 107.5427850 151.9407810  29.1663500 103.4882310 145.4510770  15.0660230
 102.8636490 145.4470640  15.7913540 103.4012430 144.5841730  14.6696200
 102.4099390 146.3747400  22.0444000 102.7071720 147.2810230  21.9636020
 102.9584950 145.8866180  21.4303570 100.1637710 150.9533640  17.9135650
  99.9378630 150.7370810  18.8182270  99.3830240 151.3862100  17.5681620
 107.3935470 150.9597010  16.5126300 106.7944360 151.6832810  16.3289920
 107.9415080 150.8973790  15.7302750 102.6036920 151.8519220  28.5795920
 102.5080520 150.9113950  28.4296320 103.4468900 152.0734290  28.1843990
 106.0000340 149.5960550  18.5429580 106.3929910 149.9132750  17.7298270
 106.3617190 148.7172430  18.6574100  97.7347460 148.2632890  26.7329700
  97.3410850 149.1108100  26.9402480  97.0465860 147.6259260  26.9238340
 104.3092510 148.3467860  29.8026440 103.6190830 148.1540060  30.4372530
 105.0524810 148.6302500  30.3350740  95.0364510 146.1861350  20.7659780
  94.7477560 146.7564210  21.4784760  95.7810270 145.7065800  21.1291010
  95.2234740 150.1281470  11.9762500  95.1409410 151.0712230  12.1177490
  94.8717800 149.9856380  11.0974850 106.5855480 152.1866300  22.6380360
 105.8536600 152.6953110  22.9870460 106.1879820 151.3696280  22.3369140
 103.0232870 148.8620500  21.0432850 103.0268930 148.4210450  20.1937390
 103.9183990 149.1837830  21.1504670  98.8735250 148.7446990  20.0027060
  98.5335300 149.2222220  20.7594110  98.1112570 148.2912110  19.6428160
 103.0853020 149.8632580  14.0339610 103.2065840 149.8219060  14.9825430
 102.7001530 150.7256730  13.8786340 107.0481390 147.6399980  22.0503300
 107.0654130 148.0908630  22.8945150 106.7996970 146.7405620  22.2636740
 102.0974520 152.1733720  13.4322910 101.5291420 151.7251970  12.8058820
 102.8063520 152.5326500  12.8988060 110.4752140 145.0532160  27.8889680
 110.7997910 144.3221820  28.4147660 110.5108650 144.7345800  26.9870670
 103.3240840 152.9222280  22.7898260 103.6910970 152.4480850  23.5359600
 103.1345900 153.7963850  23.1306600  96.1881330 147.6665970  18.9191730
  95.9028250 147.3021640  19.7570350  96.1260190 146.9346430  18.3054870
 101.1140210 151.9630920  25.1082470 100.8097280 152.8422900  25.3332830
 102.0686670 152.0230710  25.1439910 105.8619920 146.5595230  15.6405100
 105.0484530 146.0608400  15.5650410 105.6681870 147.3993480  15.2241450
 108.5768310 150.9314880  13.9367260 109.4647930 151.2432110  13.7618600
 108.5473400 150.0587130  13.5447840  97.1703940 152.8033660  26.2553830
  96.8118880 153.4687510  26.8427170  96.8758500 151.9717210  26.6266450
 100.3717060 153.2617900  29.1393380 100.0717200 153.4075080  28.2421200
 101.1428300 152.7023190  29.0466770 110.8482580 152.2426720  13.4047120
 110.7646300 152.6740940  12.5543560 111.5676770 152.7025070  13.8373940
  95.6811990 152.8024920  12.8788430  96.5506840 153.0849720  13.1624350
  95.1902310 153.6160790  12.7637240 102.8446800 154.1898130  16.9996710
 103.3009580 155.0003380  17.2256900 102.4935010 153.8721270  17.8315200
  98.7458580 144.5335780  17.4719230  98.6173210 144.5253680  18.4204150
  97.9220600 144.8718870  17.1210240  95.7452510 146.2926900  26.9325930
  95.0311030 146.4923820  27.5378540  96.1647550 145.5166470  27.3040730
 107.2391290 148.7849210  24.6827380 107.6072110 147.9644420  25.0106950
 106.3789490 148.8451100  25.0983030 110.6053320 147.7406150  15.4914940
 109.9766480 147.8451820  14.7773170 110.1105240 147.9602930  16.2808820
 102.5737350 150.0192100  16.9072820 101.8653500 150.4878440  17.3486430
 102.8581830 149.3614110  17.5418010 104.1993280 151.4388800  24.9065350
 104.6978530 151.9134620  25.5717200 104.3416230 150.5152320  25.1135380
 106.6052780 146.7442760  18.3468610 106.4820560 146.7628890  17.3978120
 107.5537340 146.7921700  18.4667010 100.7772370 148.3277180  14.2823530
 101.6262900 148.7647330  14.2163720 100.4103640 148.6397440  15.1095590
 111.4060140 147.6556760  25.7493740 110.9033740 148.3962160  26.0887550
 112.2216800 148.0440760  25.4330530 109.6982150 152.8989940  19.1955100
 108.7572290 152.9140170  19.3702790 110.0126220 152.1125900  19.6415400
  99.6763790 154.5809540  12.7559060 100.4427060 154.4690900  13.3184490
  99.7538480 153.8847510  12.1035830  98.3710550 152.0134610  13.4391950
  98.4514140 151.0662120  13.5509350  99.2630300 152.3441490  13.5452610
  95.8981350 153.8349530  28.6748120  96.4020370 153.2556810  29.2464350
  95.1588770 154.1189760  29.2124490  97.9304430 151.9779120  29.5698190
  97.9709770 151.6792990  30.4783420  98.7849930 152.3786730  29.4105710
 101.7082820 154.5774670  14.7301700 102.1299240 154.4114540  15.5733090
 101.8333660 153.7674900  14.2356840  99.8710240 150.5571220  27.5372680
  99.3406700 150.0662170  26.9096020 100.5398310 150.9855420  27.0030610
 104.2210460 153.6012280  11.9778800 104.7416120 152.8861300  11.6119950
 104.8678860 154.2398150  12.2779310 109.2410470 152.3636840  29.3053020
 109.8231240 151.6089160  29.2173500 109.4172240 152.8944280  28.5284500
 100.3582540 147.5233590  27.6169970 100.2639410 146.9054340  26.8920840
  99.7779930 148.2499880  27.3899880 103.1243980 146.0806830  24.6497360
 102.6761280 146.1031090  23.8042910 102.4909180 145.6825850  25.2467660
 105.8667430 152.7077340  26.6547640 105.9863640 152.1118480  27.3942480
 106.7261430 152.7447030  26.2348940 108.2055330 153.2614530  25.2310150
 107.6790550 153.7857150  24.6275290 108.5486670 153.8941920  25.8619880
 100.6041720 150.6507900  11.6759860 100.4030780 149.7875260  12.0373200
 100.4333770 150.5641260  10.7381460 102.6336200 149.2498690  27.9123460
 103.2235890 148.9414540  28.6001280 101.8156440 148.7778440  28.0683360
 107.4529630 148.8664500  28.1456480 106.7645150 148.2046040  28.0806470
 108.1735650 148.4202770  28.5904940 108.0830030 145.4616130  14.2046740
 108.3632320 144.6184030  14.5606160 107.3095760 145.6939240  14.7185490
  99.4024520 147.7508520  11.6637740  99.7050420 147.7575950  10.7556890
 100.1419110 147.4006380  12.1605400 102.6209450 146.6943140  12.6493940
 102.2731450 146.0167130  12.0696390 102.8222220 146.2332650  13.4637330
  95.9615090 153.2230790  19.0458310  95.3063930 152.9542430  18.4018010
  96.7993040 153.1135270  18.5960290 108.9105530 148.0172080  13.2676800
 109.3290410 147.8303060  12.4273460 108.6041590 147.1651130  13.5779730
 112.4095260 152.9296220  16.9652600 112.0338860 152.1624150  16.5333890
 111.6798380 153.3118920  17.4527530  96.9991020 153.6083360  23.5861650
  97.3664060 153.5210760  24.4657670  96.4301840 152.8449910  23.4868510
 111.7994880 152.0767740  26.5992120 111.5680970 151.8480490  25.6990070
 112.0599430 152.9967290  26.5537010  96.5507020 150.5192450  27.4920070
  95.6563070 150.4859210  27.8313780  97.0904570 150.7179240  28.2571320
 110.2382950 147.3024170  29.3771820 111.1153130 147.3107570  29.7605820
 110.2503790 146.5655010  28.7664170  95.1753170 150.4329720  14.9883640
  94.2717250 150.6959920  14.8135300  95.6593790 150.7040890  14.2083600
 111.6846220 151.1553710  20.2659840 112.2083700 150.6616360  19.6350010
 112.2705640 151.2904070  21.0107410 111.8635940 151.2393580  23.7879390
 110.9138650 151.2057120  23.9024380 112.0448950 152.1493690  23.5529160
  97.7180380 149.4895260  12.8978020  98.4272080 149.0678480  12.4125300
  97.0020320 149.5570490  12.2661370  97.3654540 145.5434590  11.9380670
  98.0882670 146.0843530  12.2561890  97.6379060 145.2698010  11.0622210
 111.1746190 150.4127060  16.2052250 111.6705310 150.1797930  16.9901130
 110.9762260 149.5738900  15.7889890  97.0546730 144.7940780  21.8403290
  97.7022920 144.2438160  21.3998450  97.4748570 145.0483930  22.6619100
 112.6033350 149.0488010  18.7389930 112.4932630 148.8944050  19.6772200
 113.3640940 148.5208950  18.4965340 110.9499070 144.9882140  25.1972930
 111.5871290 145.6016280  25.5632120 111.0973960 145.0242800  24.2522160
 113.4923620 146.8795930  11.9796070 114.4172930 146.7477110  11.7714360
 113.4699410 146.9588750  12.9332520 113.5662110 147.6506590  14.6052780
 112.7713610 147.5851710  15.1345690 113.7705390 148.5857230  14.5938130
  96.8078730 144.9496450  24.5828610  96.4593550 145.4060270  25.3486790
  96.4766430 144.0553580  24.6651040 104.3203550 146.1408330  28.1048030
 104.2592440 146.7330160  28.8543440 105.2603930 146.0334290  27.9598290
 106.9578110 145.7978390  27.7440320 107.5718520 146.1157680  27.0821400
 107.5027670 145.3126980  28.3636180  97.4799370 144.4772650  27.8579380
  98.0282360 144.2960700  27.0945490  97.5454680 143.6866760  28.3935690
 107.6986150 144.3610530  24.0709610 106.8245990 144.6945640  23.8682540
 107.5896900 143.8883710  24.8961480 108.6058130 146.5681400  25.4551330
 108.2771490 145.7533160  25.0753060 109.5540430 146.5251210  25.3317020
 105.4460970 145.2780370  23.0102520 104.6632760 145.7525870  23.2899280
 105.1523900 144.3735200  22.9015700 109.9982040 145.9803470  21.0551610
 110.4390130 145.9248570  20.2073210 109.7289630 146.8961480  21.1261790
 111.8620610 145.6118710  19.0660430 111.8009010 144.6679930  18.9191450
 112.6412640 145.7198800  19.6113890  96.7901380 145.5827850  15.5316240
  97.5480740 145.6956730  14.9580270  96.3278550 146.4197050  15.4859670
 103.3315190 147.6967120  18.5218550 102.5189700 147.3224010  18.1814430
 103.8356830 146.9412200  18.8239740 107.8340170 144.3609570  19.7601620
 108.4369540 144.9329780  20.2350140 107.0933160 144.9249010  19.5375520
 110.9774770 144.7631130  15.0341900 111.1725400 145.6614580  15.3009330
 110.1904640 144.5318210  15.5274850  99.1626530 146.1091900  14.0718210
  99.6919290 145.3221700  13.9426160  99.7954850 146.7883090  14.3053740
 101.3564370 145.8467040  17.1263600 100.7267110 145.1454350  17.2933730
 100.8169510 146.6071170  16.9096760 101.4819930 145.1251020  29.5616090
 101.2004200 145.6284620  28.7976910 101.8639630 144.3272770  29.1958220
 108.0835390 144.5404600  30.1396560 107.9700840 144.8599210  31.0348080
 108.9005130 144.9417110  29.8433840 105.1211580 154.3376090   2.3840570
 104.3453680 153.8576530   2.6739140 105.7724510 153.6581740   2.2096730
  99.1377410 154.6495900   3.2616330  98.3062290 154.3944610   3.6612840
  99.7458390 154.7206670   3.9974250  95.5102370 152.2103440   2.9298420
  96.0818480 151.4425640   2.9302060  95.5103910 152.5092200   2.0205030
  96.7527240 147.6187800   4.7167350  96.5730080 146.7213550   4.9970110
  96.3507320 148.1659670   5.3914300 105.5925740 149.8203660   2.6179660
 105.9690560 148.9475540   2.5053330 105.4945250 150.1562360   1.7270100
  97.3713910 150.1148300   3.3249690  98.0524020 150.3786670   3.9437090
  97.0561960 149.2749170   3.6587700 101.5638480 151.1615660   2.4122280
 102.0716700 151.6596630   3.0527300 102.0951720 150.3850860   2.2361640
 113.6649410 149.3320850   6.1151630 112.9601580 149.7202560   5.5966740
 113.9307330 150.0271140   6.7172560  99.8474580 145.8014220   6.6785700
  99.8493020 146.3186610   5.8731600  99.0178890 145.3244400   6.6555630
 109.6111340 149.2554480   2.3235540 108.9066910 149.5439370   2.9038650
 109.9723500 150.0654590   1.9635100  99.5289910 147.5124180   4.6856150
  99.8706720 148.3566230   4.3910020  98.5905720 147.6607920   4.8021490
 112.6798260 148.7009270   2.7144750 111.7323170 148.7348250   2.8460180
 113.0048250 149.5148220   3.0994110 112.1080400 154.0190800   4.7207050
 111.2799030 154.0883890   4.2457180 112.7030880 154.6045110   4.2522880
 109.0722410 150.8060120   5.6661920 108.6593590 151.6313830   5.9201910
 108.3398360 150.2205160   5.4738280  99.9183820 150.3663230   4.3079630
 100.4698410 150.4758570   3.5332880 100.4327330 150.7400830   5.0234860
  99.5926550 153.8882590   7.9184970  99.4534320 154.7605390   8.2872370
  98.7107910 153.5455400   7.7732910 112.5978980 149.8576700   9.5484040
 111.9823250 150.3656370   9.0199500 112.2775400 148.9575030   9.4909980
 104.6593300 148.6968590   7.0146230 104.1972670 148.9051610   7.8266170
 104.2571410 147.8827940   6.7116900 109.6597810 149.9177540   8.1442890
 108.8091400 149.6183290   8.4651960 109.4999600 150.1619550   7.2326710
 106.7547520 151.4179290  10.2441680 107.0800930 150.5843040   9.9043910
 107.5427850 151.9407810  10.3920010 102.4099390 146.3747400   3.2700510
 102.7071720 147.2810230   3.1892530 102.9584950 145.8866180   2.6560080
 102.6036920 151.8519220   9.8052430 102.5080520 150.9113950   9.6552830
 103.4468900 152.0734290   9.4100500  97.7347460 148.2632890   7.9586210
  97.3410850 149.1108100   8.1658990  97.0465860 147.6259260   8.1494850
 104.3092510 148.3467860  11.0282950 103.6190830 148.1540060  11.6629040
 105.0524810 148.6302500  11.5607250  95.0364510 146.1861350   1.9916290
  94.7477560 146.7564210   2.7041270  95.7810270 145.7065800   2.3547520
 106.5855480 152.1866300   3.8636870 105.8536600 152.6953110   4.2126970
 106.1879820 151.3696280   3.5625650 103.0232870 148.8620500   2.2689360
 103.0268930 148.4210450   1.4193900 103.9183990 149.1837830   2.3761180
 107.0481390 147.6399980   3.2759810 107.0654130 148.0908630   4.1201660
 106.7996970 146.7405620   3.4893250 110.4752140 145.0532160   9.1146190
 110.7997910 144.3221820   9.6404170 110.5108650 144.7345800   8.2127180
 103.3240840 152.9222280   4.0154770 103.6910970 152.4480850   4.7616110
 103.1345900 153.7963850   4.3563110 101.1140210 151.9630920   6.3338980
 100.8097280 152.8422900   6.5589340 102.0686670 152.0230710   6.3696420
  97.1703940 152.8033660   7.4810340  96.8118880 153.4687510   8.0683680
  96.8758500 151.9717210   7.8522960 100.3717060 153.2617900  10.3649890
 100.0717200 153.4075080   9.4677710 101.1428300 152.7023190  10.2723280
  95.7452510 146.2926900   8.1582440  95.0311030 146.4923820   8.7635050
  96.1647550 145.5166470   8.5297240 107.2391290 148.7849210   5.9083890
 107.6072110 147.9644420   6.2363460 106.3789490 148.8451100   6.3239540
 104.1993280 151.4388800   6.1321860 104.6978530 151.9134620   6.7973710
 104.3416230 150.5152320   6.3391890 111.4060140 147.6556760   6.9750250
 110.9033740 148.3962160   7.3144060 112.2216800 148.0440760   6.6587040
  95.8981350 153.8349530   9.9004630  96.4020370 153.2556810  10.4720860
  95.1588770 154.1189760  10.4381000  97.9304430 151.9779120  10.7954700
  97.9709770 151.6792990  11.7039930  98.7849930 152.3786730  10.6362220
  99.8710240 150.5571220   8.7629190  99.3406700 150.0662170   8.1352530
 100.5398310 150.9855420   8.2287120 109.2410470 152.3636840  10.5309530
 109.8231240 151.6089160  10.4430010 109.4172240 152.8944280   9.7541010
 100.3582540 147.5233590   8.8426480 100.2639410 146.9054340   8.1177350
  99.7779930 148.2499880   8.6156390 103.1243980 146.0806830   5.8753870
 102.6761280 146.1031090   5.0299420 102.4909180 145.6825850   6.4724170
 105.8667430 152.7077340   7.8804150 105.9863640 152.1118480   8.6198990
 106.7261430 152.7447030   7.4605450 108.2055330 153.2614530   6.4566660
 107.6790550 153.7857150   5.8531800 108.5486670 153.8941920   7.0876390
 102.6336200 149.2498690   9.1379970 103.2235890 148.9414540   9.8257790
 101.8156440 148.7778440   9.2939870 107.4529630 148.8664500   9.3712990
 106.7645150 148.2046040   9.3062980 108.1735650 148.4202770   9.8161450
  96.9991020 153.6083360   4.8118160  97.3664060 153.5210760   5.6914180
  96.4301840 152.8449910   4.7125020 111.7994880 152.0767740   7.8248630
 111.5680970 151.8480490   6.9246580 112.0599430 152.9967290   7.7793520
  96.5507020 150.5192450   8.7176580  95.6563070 150.4859210   9.0570290
  97.0904570 150.7179240   9.4827830 110.2382950 147.3024170  10.6028330
 111.1153130 147.3107570  10.9862330 110.2503790 146.5655010   9.9920680
 111.8635940 151.2393580   5.0135900 110.9138650 151.2057120   5.1280890
 112.0448950 152.1493690   4.7785670  97.0546730 144.7940780   3.0659800
  97.7022920 144.2438160   2.6254960  97.4748570 145.0483930   3.8875610
 110.9499070 144.9882140   6.4229440 111.5871290 145.6016280   6.7888630
 111.0973960 145.0242800   5.4778670  96.8078730 144.9496450   5.8085120
  96.4593550 145.4060270   6.5743300  96.4766430 144.0553580   5.8907550
 104.3203550 146.1408330   9.3304540 104.2592440 146.7330160  10.0799950
 105.2603930 146.0334290   9.1854800 106.9578110 145.7978390   8.9696830
 107.5718520 146.1157680   8.3077910 107.5027670 145.3126980   9.5892690
  97.4799370 144.4772650   9.0835890  98.0282360 144.2960700   8.3202000
  97.5454680 143.6866760   9.6192200 107.6986150 144.3610530   5.2966120
 106.8245990 144.6945640   5.0939050 107.5896900 143.8883710   6.1217990
 108.6058130 146.5681400   6.6807840 108.2771490 145.7533160   6.3009570
 109.5540430 146.5251210   6.5573530 105.4460970 145.2780370   4.2359030
 104.6632760 145.7525870   4.5155790 105.1523900 144.3735200   4.1272210
 109.9982040 145.9803470   2.2808120 110.4390130 145.9248570   1.4329720
 109.7289630 146.8961480   2.3518300 101.4819930 145.1251020  10.7872600
 101.2004200 145.6284620  10.0233420 101.8639630 144.3272770  10.4214730
 108.0835390 144.5404600  11.3653070 107.9700840 144.8599210  12.2604590
 108.9005130 144.9417110  11.0690350 106.9893540 133.7853580 150.6979220
 106.9087590 132.8708190 150.4270930 106.5757960 134.2820650 149.9918930
 105.1211580 135.5632600 152.5788490 104.3453680 135.0833040 152.8687060
 105.7724510 134.8838250 152.4044650 109.1419010 139.9692790 151.3587620
 108.6800540 139.1980030 151.6874790 109.9544560 139.9958860 151.8640070
  97.5469360 130.8354300 147.2406640  96.6586060 131.1770270 147.1386520
  97.8310550 130.6354620 146.3487470  95.5102370 133.4359950 153.1246340
  96.0818480 132.6682150 153.1249980  95.5103910 133.7348710 152.2152950
 105.3682320 142.2550800 150.9791610 104.7493760 142.7108300 150.4086050
 106.2234100 142.4102260 150.5781310 104.5620570 138.2389790 152.5858650
 104.4928850 137.2979730 152.4247780 105.3240430 138.3291200 153.1581220
 105.5925740 131.0460170 152.8127580 105.9690560 130.1732050 152.7001250
 105.4945250 131.3818870 151.9218020  99.7230750 129.4185800 148.2745020
  99.8297500 130.3189530 148.5813780  98.8123110 129.3703770 147.9839670
 109.3749860 128.5410610 149.7455920 110.1959480 128.0507180 149.7881400
 109.4083940 129.1308270 150.4987760 106.2345670 137.1390040 148.3723520
 105.6162940 137.6039490 147.8086240 106.7468920 137.8317520 148.7893030
 109.6111340 130.4810990 152.5183460 108.9066910 130.7695880 153.0986570
 109.9723500 131.2911100 152.1583020  95.6028870 137.8246570 145.7463150
  95.2256850 138.3133670 145.0148050  95.8601940 138.4971850 146.3769680
 103.2117800 126.2262960 151.2048660 103.5192780 125.6709850 150.4884160
 102.2818500 126.3607420 151.0221650 110.0578280 138.6646470 148.5846290
 109.9474610 137.7220800 148.7095710 110.0546530 139.0262110 149.4709050
 105.5998560 134.2911790 147.9408780 104.6727840 134.2249170 148.1697250
 105.7523380 135.2291920 147.8264020 105.5867640 130.5628790 144.9375940
 104.6471310 130.7242750 145.0228400 105.9050900 131.2814470 144.3911930
 109.6295850 135.8532090 148.4444030 109.0108270 135.5151640 147.7970330
 109.6120300 135.2091850 149.1523220 101.2055200 134.8176530 150.7228510
 100.8012200 134.1053780 150.2274410 101.2918320 134.4729770 151.6116550
 101.6736900 138.5044090 152.8867720 101.3765190 137.8989560 152.2075500
 102.6236720 138.5421400 152.7757080 107.8060550 135.0918900 145.4516780
 108.2453830 134.2541330 145.3054600 108.5188970 135.7248300 145.5380920
 105.9155930 140.0314970 149.4198020 106.3551840 140.7739300 149.0053410
 105.8542820 140.2741540 150.3436980 111.3877690 126.3461710 143.7657820
 111.0750350 126.4388540 144.6656890 112.1490160 126.9242740 143.7155250
  97.9059830 133.7121510 148.2235160  97.7857430 134.4383600 147.6116430
  97.5960720 132.9424420 147.7463070  96.7892830 138.5836840 150.4409980
  96.3820910 138.7251430 149.5863580  97.6805840 138.2997000 150.2381190
 108.5826110 143.0184090 146.7761030 108.4227250 142.7287030 147.6742860
 108.4172820 142.2424220 146.2406260 101.0614490 142.7982620 148.5532650
 100.8856970 141.8818160 148.3400450 100.2070230 143.1569910 148.7930450
 108.2852240 140.5271650 145.3359030 107.5917400 140.5248940 144.6761310
 109.0275100 140.1030970 144.9053200 107.8502170 142.1534360 149.4107520
 108.3059120 141.3723740 149.7246140 108.1894690 142.8641180 149.9548700
 100.3723490 127.0556580 151.6058830  99.9291640 127.8366120 151.2743350
 100.9308480 127.3786470 152.3129770 103.4882310 126.6767280 146.4864660
 102.8636490 126.6727150 147.2117970 103.4012430 125.8098240 146.0900630
 100.1637710 132.1790150 149.3340080  99.9378630 131.9627320 150.2386700
  99.3830240 132.6118610 148.9886050 107.3935470 132.1853520 147.9330730
 106.7944360 132.9089320 147.7494350 107.9415080 132.1230300 147.1507180
 106.0000340 130.8217060 149.9634010 106.3929910 131.1389260 149.1502700
 106.3617190 129.9428940 150.0778530  95.0364510 127.4117860 152.1864210
  94.7477560 127.9820720 152.8989190  95.7810270 126.9322310 152.5495440
  95.2234740 131.3537980 143.3966930  95.1409410 132.2968740 143.5381920
  94.8717800 131.2112890 142.5179280 103.0232870 130.0877010 152.4637280
 103.0268930 129.6466960 151.6141820 103.9183990 130.4094340 152.5709100
  98.8735250 129.9703500 151.4231490  98.5335300 130.4478730 152.1798540
  98.1112570 129.5168620 151.0632590 103.0853020 131.0889090 145.4544040
 103.2065840 131.0475570 146.4029860 102.7001530 131.9513240 145.2990770
 102.0974520 133.3990230 144.8527340 101.5291420 132.9508480 144.2263250
 102.8063520 133.7583010 144.3192490  96.1881330 128.8922480 150.3396160
  95.9028250 128.5278150 151.1774780  96.1260190 128.1602940 149.7259300
  99.6422000 137.3948420 147.1253750  98.8684260 136.8546040 146.9652470
 100.3716630 136.8755030 146.7871510 110.4009980 136.3913780 152.9180140
 111.1209100 136.8869070 152.5276250 110.1991800 135.7131670 152.2734010
 105.8619920 127.7851740 147.0609530 105.0484530 127.2864910 146.9854840
 105.6681870 128.6249990 146.6445880 108.5768310 132.1571390 145.3571690
 109.4647930 132.4688620 145.1823030 108.5473400 131.2843640 144.9652270
  99.6859400 137.0628800 150.7632560 100.2038070 136.2597060 150.7089450
  99.2343420 137.0007940 151.6049390 104.5728900 138.3295080 146.0359860
 104.9144600 139.0737310 145.5403180 103.7441610 138.6426200 146.3984690
 110.8482580 133.4683230 144.8251550 110.7646300 133.8997450 143.9747990
 111.5676770 133.9281580 145.2578370 111.8769830 140.3225490 147.5533680
 111.2345990 139.6681110 147.8277400 111.4900490 140.7280580 146.7774350
 107.4556310 137.6510920 151.4005370 107.8080130 137.0539050 150.7406740
 106.5718640 137.3255150 151.5713620 103.5419590 138.4108610 148.8075780
 104.2290720 138.9577820 149.1883370 102.7552010 138.9549340 148.8425390
  95.6811990 134.0281430 144.2992860  96.5506840 134.3106230 144.5828780
  95.1902310 134.8417300 144.1841670 102.8446800 135.4154640 148.4201140
 103.3009580 136.2259890 148.6461330 102.4935010 135.0977780 149.2519630
  98.7458580 125.7592290 148.8923660  98.6173210 125.7510190 149.8408580
  97.9220600 126.0975380 148.5414670 110.2667210 139.2141950 144.0910030
 110.0404790 138.4972390 144.6834670 109.8763410 138.9654390 143.2531780
  96.0483240 143.2408810 144.8654490  96.4080880 143.8398150 144.2111760
  95.9075580 143.7868700 145.6389520 109.8483460 137.1313890 145.7524190
 109.5605160 137.5926580 146.5402070 110.6435630 136.6711660 146.0208410
 102.0651860 140.6240010 145.6828160 102.0561960 141.3569700 145.0672670
 101.1450220 140.3771590 145.7755120  97.6658500 135.8454900 146.4274920
  97.0586450 136.5853800 146.4370220  98.1407850 135.9354260 145.6013120
 110.6053320 128.9662660 146.9119370 109.9766480 129.0708330 146.1977600
 110.1105240 129.1859440 147.7013250 105.0511460 140.6868250 144.3453350
 105.1523440 140.4832240 143.4155330 104.1513200 140.4326530 144.5501130
 102.5737350 131.2448610 148.3277250 101.8653500 131.7134950 148.7690860
 102.8581830 130.5870620 148.9622440 106.6052780 127.9699270 149.7673040
 106.4820560 127.9885400 148.8182550 107.5537340 128.0178210 149.8871440
 103.6929570 143.2054570 149.0401020 103.9471070 143.1675960 148.1180390
 102.7442050 143.0787900 149.0329270 100.7772370 129.5533690 145.7027960
 101.6262900 129.9903840 145.6368150 100.4103640 129.8653950 146.5300020
 109.6982150 134.1246450 150.6159530 108.7572290 134.1396680 150.7907220
 110.0126220 133.3382410 151.0619830  99.6763790 135.8066050 144.1763490
 100.4427060 135.6947410 144.7388920  99.7538480 135.1104020 143.5240260
  98.3710550 133.2391120 144.8596380  98.4514140 132.2918630 144.9713780
  99.2630300 133.5698000 144.9657040 111.7007730 141.2955300 152.2913790
 111.8255150 142.1186470 152.7637600 112.5673290 141.0846030 151.9437940
  99.1725260 143.3886510 151.9630920  99.9087740 142.8401970 152.2339490
  99.5566180 144.2542520 151.8236910  96.0570740 139.4560080 147.8372430
  95.1310520 139.6981220 147.8277840  96.5227170 140.2834340 147.7157180
 102.2827570 142.5616820 143.7856490 103.0756180 142.8505650 143.3338280
 101.7631920 142.1308990 143.1068970 111.3357740 141.7886950 145.2093230
 111.0499250 141.3752090 144.3947410 111.1377290 142.7174660 145.0893750
 102.8004970 137.7820230 143.6498840 102.6955610 137.1672580 144.3760220
 102.6329190 137.2586120 142.8661850 106.0407700 136.8440260 144.2540830
 105.4917800 137.2909560 144.8983570 106.6626960 136.3389510 144.7778500
 101.7082820 135.8031180 146.1506130 102.1299240 135.6371050 146.9937520
 101.8333660 134.9931410 145.6561270 104.2210460 134.8268790 143.3983230
 104.7416120 134.1117810 143.0324380 104.8678860 135.4654660 143.6983740
 100.6041720 131.8764410 143.0964290 100.4030780 131.0131770 143.4577630
 100.4333770 131.7897770 142.1585890 108.0830030 126.6872640 145.6251170
 108.3632320 125.8440540 145.9810590 107.3095760 126.9195750 146.1389920
  99.4024520 128.9765030 143.0842170  99.7050420 128.9832460 142.1761320
 100.1419110 128.6262890 143.5809830 102.6209450 127.9199650 144.0698370
 102.2731450 127.2423640 143.4900820 102.8222220 127.4589160 144.8841760
 104.7858490 142.9080400 145.6884970 105.6809280 143.2465370 145.7103730
 104.8176120 142.1859810 145.0609250  98.4254650 138.2807450 143.9171970
  98.8629520 138.8237120 144.5729550  98.9102380 137.4554400 143.9268310
  95.6400450 141.0696480 151.3692230  95.9703460 140.2017540 151.1370870
  96.0691450 141.2755000 152.1997190 100.2362370 139.4005490 149.0294200
  99.9357910 139.2770460 149.9298110 100.1299860 138.5414080 148.6209930
 113.0054290 139.1801890 143.7320880 112.1747250 139.2478540 144.2028110
 113.1826120 140.0706010 143.4287740 112.4610750 135.9249370 146.2355080
 113.2229660 136.4946020 146.3414770 112.4765120 135.3576570 147.0063390
  95.9615090 134.4487300 150.4662740  95.3063930 134.1798940 149.8222440
  96.7993040 134.3391780 150.0164720 113.4670720 136.7799470 151.0797010
 113.8379550 135.9966790 150.6732980 114.1072650 137.4688570 150.9014310
 112.5129920 136.2183740 143.3927600 112.7878760 137.1262620 143.2646820
 112.3240660 136.1546270 144.3289590 108.9105530 129.2428590 144.6881230
 109.3290410 129.0559570 143.8477890 108.6041590 128.3907640 144.9984160
 112.4095260 134.1552730 148.3857030 112.0338860 133.3880660 147.9538320
 111.6798380 134.5375430 148.8731960  95.1753170 131.6586230 146.4088070
  94.2717250 131.9216430 146.2339730  95.6593790 131.9297400 145.6288030
 111.6846220 132.3810220 151.6864270 112.2083700 131.8872870 151.0554440
 112.2705640 132.5160580 152.4311840  97.7180380 130.7151770 144.3182450
  98.4272080 130.2934990 143.8329730  97.0020320 130.7827000 143.6865800
  97.3654540 126.7691100 143.3585100  98.0882670 127.3100040 143.6766320
  97.6379060 126.4954520 142.4826640 111.1746190 131.6383570 147.6256680
 111.6705310 131.4054440 148.4105560 110.9762260 130.7995410 147.2094320
 112.6033350 130.2744520 150.1594360 112.4932630 130.1200560 151.0976630
 113.3640940 129.7465460 149.9169770 113.4923620 128.1052440 143.4000500
 114.4172930 127.9733620 143.1918790 113.4699410 128.1845260 144.3536950
 113.5662110 128.8763100 146.0257210 112.7713610 128.8108220 146.5550120
 113.7705390 129.8113740 146.0142560 110.5080530 142.9154650 150.0195600
 111.1039600 142.5939220 149.3430020 110.7658680 142.4426470 150.8108870
 109.9982040 127.2059980 152.4756040 110.4390130 127.1505080 151.6277640
 109.7289630 128.1217990 152.5466220 111.8620610 126.8375220 150.4864860
 111.8009010 125.8936440 150.3395880 112.6412640 126.9455310 151.0318320
  96.1673360 142.9767580 149.4488810  95.9995400 142.3438260 150.1470700
  95.3007870 143.1826980 149.0983000  96.7901380 126.8084360 146.9520670
  97.5480740 126.9213240 146.3784700  96.3278550 127.6453560 146.9064100
 103.3315190 128.9223630 149.9422980 102.5189700 128.5480520 149.6018860
 103.8356830 128.1668710 150.2444170 107.8340170 125.5866080 151.1806050
 108.4369540 126.1586290 151.6554570 107.0933160 126.1505520 150.9579950
 110.9774770 125.9887640 146.4546330 111.1725400 126.8871090 146.7213760
 110.1904640 125.7574720 146.9479280  97.7736060 141.6700810 146.8938950
  97.2483680 142.0508840 146.1900910  97.6980640 142.2951580 147.6148660
  99.1626530 127.3348410 145.4922640  99.6919290 126.5478210 145.3630590
  99.7954850 128.0139600 145.7258170 101.3564370 127.0723550 148.5468030
 100.7267110 126.3710860 148.7138160 100.8169510 127.8327680 148.3301190
 112.5301380 143.2288350 148.2152890 112.7053570 142.5426090 147.5713810
 111.8322950 143.7535400 147.8229560 100.3729030 143.6183190 145.7688200
 101.1047850 143.3342470 145.2212090 100.6322700 143.3796470 146.6587580
  99.5343820 139.7347920 145.7734530  98.9052700 140.2033020 146.3220360
  99.6491650 138.8897140 146.2080720 106.9893540 133.7853580 131.9235730
 106.9087590 132.8708190 131.6527440 106.5757960 134.2820650 131.2175440
 105.1211580 135.5632600 133.8045000 104.3453680 135.0833040 134.0943570
 105.7724510 134.8838250 133.6301160  99.1377410 135.8752410 134.6820760
  98.3062290 135.6201120 135.0817270  99.7458390 135.9463180 135.4178680
 109.1419010 139.9692790 132.5844130 108.6800540 139.1980030 132.9131300
 109.9544560 139.9958860 133.0896580  99.1178670 139.9092500 134.8778780
  99.4206710 139.0190240 134.6989000  99.8622260 140.4662720 134.6501030
  97.5469360 130.8354300 128.4663150  96.6586060 131.1770270 128.3643030
  97.8310550 130.6354620 127.5743980  95.5102370 133.4359950 134.3502850
  96.0818480 132.6682150 134.3506490  95.5103910 133.7348710 133.4409460
 105.3682320 142.2550800 132.2048120 104.7493760 142.7108300 131.6342560
 106.2234100 142.4102260 131.8037820 104.5620570 138.2389790 133.8115160
 104.4928850 137.2979730 133.6504290 105.3240430 138.3291200 134.3837730
  96.7527240 128.8444310 136.1371780  96.5730080 127.9470060 136.4174540
  96.3507320 129.3916180 136.8118730 105.5925740 131.0460170 134.0384090
 105.9690560 130.1732050 133.9257760 105.4945250 131.3818870 133.1474530
  99.7230750 129.4185800 129.5001530  99.8297500 130.3189530 129.8070290
  98.8123110 129.3703770 129.2096180 109.3749860 128.5410610 130.9712430
 110.1959480 128.0507180 131.0137910 109.4083940 129.1308270 131.7244270
  97.3713910 131.3404810 134.7454120  98.0524020 131.6043180 135.3641520
  97.0561960 130.5005680 135.0792130 101.5638480 132.3872170 133.8326710
 102.0716700 132.8853140 134.4731730 102.0951720 131.6107370 133.6566070
 113.6649410 130.5577360 137.5356060 112.9601580 130.9459070 137.0171170
 113.9307330 131.2527650 138.1376990  99.8474580 127.0270730 138.0990130
  99.8493020 127.5443120 137.2936030  99.0178890 126.5500910 138.0760060
 106.2345670 137.1390040 129.5980030 105.6162940 137.6039490 129.0342750
 106.7468920 137.8317520 130.0149540 101.0977430 136.6665910 136.2763630
 100.7646810 137.2934830 136.9184700 101.2744110 137.1927790 135.4965300
 109.6111340 130.4810990 133.7439970 108.9066910 130.7695880 134.3243080
 109.9723500 131.2911100 133.3839530  99.5289910 128.7380690 136.1060580
  99.8706720 129.5822740 135.8114450  98.5905720 128.8864430 136.2225920
 100.3096530 138.6346710 138.0912810 100.9270530 139.3097790 137.8097260
  99.4489650 139.0434690 138.0000310  95.6028870 137.8246570 126.9719660
  95.2256850 138.3133670 126.2404560  95.8601940 138.4971850 127.6026190
 111.2274120 140.0986120 136.0067450 110.5437640 140.7685230 135.9984120
 111.7668410 140.2966770 135.2412310 112.6798260 129.9265780 134.1349180
 111.7323170 129.9604760 134.2664610 113.0048250 130.7404730 134.5198540
 103.2117800 126.2262960 132.4305170 103.5192780 125.6709850 131.7140670
 102.2818500 126.3607420 132.2478160 108.7632860 141.9430250 134.7212630
 108.7760020 141.5392540 133.8534890 108.2108080 142.7177540 134.6174060
 110.0578280 138.6646470 129.8102800 109.9474610 137.7220800 129.9352220
 110.0546530 139.0262110 130.6965560 108.1618300 136.8460090 136.0495240
 108.5787090 136.6320200 135.2148700 108.8858120 137.1032880 136.6203860
 105.5998560 134.2911790 129.1665290 104.6727840 134.2249170 129.3953760
 105.7523380 135.2291920 129.0520530 105.5867640 130.5628790 126.1632450
 104.6471310 130.7242750 126.2484910 105.9050900 131.2814470 125.6168440
 112.1080400 135.2447310 136.1411480 111.2799030 135.3140400 135.6661610
 112.7030880 135.8301620 135.6727310 109.6295850 135.8532090 129.6700540
 109.0108270 135.5151640 129.0226840 109.6120300 135.2091850 130.3779730
 109.0722410 132.0316630 137.0866350 108.6593590 132.8570340 137.3406340
 108.3398360 131.4461670 136.8942710 101.2055200 134.8176530 131.9485020
 100.8012200 134.1053780 131.4530920 101.2918320 134.4729770 132.8373060
 101.6736900 138.5044090 134.1124230 101.3765190 137.8989560 133.4332010
 102.6236720 138.5421400 134.0013590  99.9183820 131.5919740 135.7284060
 100.4698410 131.7015080 134.9537310 100.4327330 131.9657340 136.4439290
 109.7622510 142.0775960 137.7747330 109.2853070 142.8848150 137.5819940
 109.0784300 141.4254290 137.9273540 100.7655330 138.2425780 140.7632030
  99.8683860 138.4665750 141.0105430 100.7908200 138.3660720 139.8143430
 107.8060550 135.0918900 126.6773290 108.2453830 134.2541330 126.5311110
 108.5188970 135.7248300 126.7637430  99.5926550 135.1139100 139.3389400
  99.4534320 135.9861900 139.7076800  98.7107910 134.7711910 139.1937340
 105.9155930 140.0314970 130.6454530 106.3551840 140.7739300 130.2309920
 105.8542820 140.2741540 131.5693490 101.3906900 141.0560800 141.5474550
 101.3622330 141.4603750 140.6802980 101.2271870 140.1271160 141.3846150
 111.3877690 126.3461710 124.9914330 111.0750350 126.4388540 125.8913400
 112.1490160 126.9242740 124.9411760  97.9059830 133.7121510 129.4491670
  97.7857430 134.4383600 128.8372940  97.5960720 132.9424420 128.9719580
 113.3421720 141.8387900 142.8438720 113.8181440 142.3170790 143.5227800
 113.9628880 141.7705390 142.1184220  95.5445200 136.8836650 135.2560310
  95.6225620 137.0185420 134.3116030  96.1586880 136.1752540 135.4488430
  96.7892830 138.5836840 131.6666490  96.3820910 138.7251430 130.8120090
  97.6805840 138.2997000 131.4637700 112.7454970 139.0300750 140.0038730
 112.8718030 138.7912630 139.0855910 112.7876350 138.1985290 140.4760810
 106.6071710 142.7328750 138.5733540 107.1216380 142.6436760 139.3755970
 105.7640790 143.0788450 138.8661450 108.5826110 143.0184090 128.0017540
 108.4227250 142.7287030 128.8999370 108.4172820 142.2424220 127.4662770
 101.0614490 142.7982620 129.7789160 100.8856970 141.8818160 129.5656960
 100.2070230 143.1569910 130.0186960 108.2852240 140.5271650 126.5615540
 107.5917400 140.5248940 125.9017820 109.0275100 140.1030970 126.1309710
 107.8502170 142.1534360 130.6364030 108.3059120 141.3723740 130.9502650
 108.1894690 142.8641180 131.1805210 112.5978980 131.0833210 140.9688470
 111.9823250 131.5912880 140.4403930 112.2775400 130.1831540 140.9114410
  95.6004720 137.9250820 137.7954770  95.7635760 137.4556180 136.9774140
  96.0657170 137.4174380 138.4603610 100.3723490 127.0556580 132.8315340
  99.9291640 127.8366120 132.4999860 100.9308480 127.3786470 133.5386280
 104.6593300 129.9225100 138.4350660 104.1972670 130.1308120 139.2470600
 104.2571410 129.1084450 138.1321330 109.6597810 131.1434050 139.5647320
 108.8091400 130.8439800 139.8856390 109.4999600 131.3876060 138.6531140
 106.7547520 132.6435800 141.6646110 107.0800930 131.8099550 141.3248340
 107.5427850 133.1664320 141.8124440 103.4882310 126.6767280 127.7121170
 102.8636490 126.6727150 128.4374480 103.4012430 125.8098240 127.3157140
 102.4099390 127.6003910 134.6904940 102.7071720 128.5066740 134.6096960
 102.9584950 127.1122690 134.0764510 100.1637710 132.1790150 130.5596590
  99.9378630 131.9627320 131.4643210  99.3830240 132.6118610 130.2142560
 107.3935470 132.1853520 129.1587240 106.7944360 132.9089320 128.9750860
 107.9415080 132.1230300 128.3763690 102.6036920 133.0775730 141.2256860
 102.5080520 132.1370460 141.0757260 103.4468900 133.2990800 140.8304930
 106.0000340 130.8217060 131.1890520 106.3929910 131.1389260 130.3759210
 106.3617190 129.9428940 131.3035040  97.7347460 129.4889400 139.3790640
  97.3410850 130.3364610 139.5863420  97.0465860 128.8515770 139.5699280
 104.3092510 129.5724370 142.4487380 103.6190830 129.3796570 143.0833470
 105.0524810 129.8559010 142.9811680  95.0364510 127.4117860 133.4120720
  94.7477560 127.9820720 134.1245700  95.7810270 126.9322310 133.7751950
  95.2234740 131.3537980 124.6223440  95.1409410 132.2968740 124.7638430
  94.8717800 131.2112890 123.7435790 106.5855480 133.4122810 135.2841300
 105.8536600 133.9209620 135.6331400 106.1879820 132.5952790 134.9830080
 103.0232870 130.0877010 133.6893790 103.0268930 129.6466960 132.8398330
 103.9183990 130.4094340 133.7965610  98.8735250 129.9703500 132.6488000
  98.5335300 130.4478730 133.4055050  98.1112570 129.5168620 132.2889100
 103.0853020 131.0889090 126.6800550 103.2065840 131.0475570 127.6286370
 102.7001530 131.9513240 126.5247280 107.0481390 128.8656490 134.6964240
 107.0654130 129.3165140 135.5406090 106.7996970 127.9662130 134.9097680
 102.0974520 133.3990230 126.0783850 101.5291420 132.9508480 125.4519760
 102.8063520 133.7583010 125.5449000 110.4752140 126.2788670 140.5350620
 110.7997910 125.5478330 141.0608600 110.5108650 125.9602310 139.6331610
  97.1743700 137.3002250 139.9550580  96.7898490 136.6595920 140.5533540
  97.4855890 138.0038370 140.5245310 103.3240840 134.1478790 135.4359200
 103.6910970 133.6737360 136.1820540 103.1345900 135.0220360 135.7767540
  96.1881330 128.8922480 131.5652670  95.9028250 128.5278150 132.4031290
  96.1260190 128.1602940 130.9515810 101.1140210 133.1887430 137.7543410
 100.8097280 134.0679410 137.9793770 102.0686670 133.2487220 137.7900850
  99.6422000 137.3948420 128.3510260  98.8684260 136.8546040 128.1908980
 100.3716630 136.8755030 128.0128020 110.4009980 136.3913780 134.1436650
 111.1209100 136.8869070 133.7532760 110.1991800 135.7131670 133.4990520
 105.8619920 127.7851740 128.2866040 105.0484530 127.2864910 128.2111350
 105.6681870 128.6249990 127.8702390 105.7828780 136.4622840 140.0305650
 105.7166090 135.5418510 139.7763240 105.1533920 136.5598280 140.7450290
 108.5768310 132.1571390 126.5828200 109.4647930 132.4688620 126.4079540
 108.5473400 131.2843640 126.1908780  99.6859400 137.0628800 131.9889070
 100.2038070 136.2597060 131.9345960  99.2343420 137.0007940 132.8305900
 104.5728900 138.3295080 127.2616370 104.9144600 139.0737310 126.7659690
 103.7441610 138.6426200 127.6241200  97.1703940 134.0290170 138.9014770
  96.8118880 134.6944020 139.4888110  96.8758500 133.1973720 139.2727390
 100.3717060 134.4874410 141.7854320 100.0717200 134.6331590 140.8882140
 101.1428300 133.9279700 141.6927710 105.7145510 139.2843410 139.7809450
 105.7290050 138.3524370 139.5628360 105.0070610 139.3703170 140.4199220
 110.8482580 133.4683230 126.0508060 110.7646300 133.8997450 125.2004500
 111.5676770 133.9281580 126.4834880 111.9256720 135.9250750 139.1278030
 111.2004910 136.5179530 138.9307420 112.4532180 135.9174290 138.3291400
 111.8769830 140.3225490 128.7790190 111.2345990 139.6681110 129.0533910
 111.4900490 140.7280580 128.0030860 107.4556310 137.6510920 132.6261880
 107.8080130 137.0539050 131.9663250 106.5718640 137.3255150 132.7970130
 103.5419590 138.4108610 130.0332290 104.2290720 138.9577820 130.4139880
 102.7552010 138.9549340 130.0681900  95.6811990 134.0281430 125.5249370
  96.5506840 134.3106230 125.8085290  95.1902310 134.8417300 125.4098180
 102.8446800 135.4154640 129.6457650 103.3009580 136.2259890 129.8717840
 102.4935010 135.0977780 130.4776140 105.1479410 140.9260980 136.8749950
 105.7921630 141.1320360 137.5523370 105.5108850 140.1649380 136.4220800
  98.7458580 125.7592290 130.1180170  98.6173210 125.7510190 131.0665090
  97.9220600 126.0975380 129.7671180 106.4211490 138.9293330 135.5927400
 107.0633720 138.2286490 135.7059570 106.9460840 139.7091770 135.4124290
 110.2667210 139.2141950 125.3166540 110.0404790 138.4972390 125.9091180
 109.8763410 138.9654390 124.4788290 108.1949110 139.7288230 138.7963460
 108.5305350 140.3154920 139.4741380 107.2749450 139.5980940 139.0261250
  96.0483240 143.2408810 126.0911000  96.4080880 143.8398150 125.4368270
  95.9075580 143.7868700 126.8646030  95.7452510 127.5183410 139.5786870
  95.0311030 127.7180330 140.1839480  96.1647550 126.7422980 139.9501670
 109.8483460 137.1313890 126.9780700 109.5605160 137.5926580 127.7658580
 110.6435630 136.6711660 127.2464920  96.0325100 141.5063670 140.5653400
  96.1416220 140.5658410 140.4248790  95.3805660 141.7718420 139.9167130
 104.0237690 139.7779560 141.9651520 103.7034560 139.0588800 142.5097210
 103.3496050 140.4534630 142.0387580 102.0651860 140.6240010 126.9084670
 102.0561960 141.3569700 126.2929180 101.1450220 140.3771590 127.0011630
  97.6658500 135.8454900 127.6531430  97.0586450 136.5853800 127.6626730
  98.1407850 135.9354260 126.8269630 107.2391290 130.0105720 137.3288320
 107.6072110 129.1900930 137.6567890 106.3789490 130.0707610 137.7443970
 110.6053320 128.9662660 128.1375880 109.9766480 129.0708330 127.4234110
 110.1105240 129.1859440 128.9269760 105.0511460 140.6868250 125.5709860
 105.1523440 140.4832240 124.6411840 104.1513200 140.4326530 125.7757640
 102.5737350 131.2448610 129.5533760 101.8653500 131.7134950 129.9947370
 102.8581830 130.5870620 130.1878950 104.1993280 132.6645310 137.5526290
 104.6978530 133.1391130 138.2178140 104.3416230 131.7408830 137.7596320
 106.6052780 127.9699270 130.9929550 106.4820560 127.9885400 130.0439060
 107.5537340 128.0178210 131.1127950 103.6929570 143.2054570 130.2657530
 103.9471070 143.1675960 129.3436900 102.7442050 143.0787900 130.2585780
 100.7772370 129.5533690 126.9284470 101.6262900 129.9903840 126.8624660
 100.4103640 129.8653950 127.7556530 111.4060140 128.8813270 138.3954680
 110.9033740 129.6218670 138.7348490 112.2216800 129.2697270 138.0791470
 109.6982150 134.1246450 131.8416040 108.7572290 134.1396680 132.0163730
 110.0126220 133.3382410 132.2876340  99.6763790 135.8066050 125.4020000
 100.4427060 135.6947410 125.9645430  99.7538480 135.1104020 124.7496770
  98.3710550 133.2391120 126.0852890  98.4514140 132.2918630 126.1970290
  99.2630300 133.5698000 126.1913550 111.7007730 141.2955300 133.5170300
 111.8255150 142.1186470 133.9894110 112.5673290 141.0846030 133.1694450
  99.1725260 143.3886510 133.1887430  99.9087740 142.8401970 133.4596000
  99.5566180 144.2542520 133.0493420  96.0570740 139.4560080 129.0628940
  95.1310520 139.6981220 129.0534350  96.5227170 140.2834340 128.9413690
  98.1783540 142.5732580 142.3773010  98.9796270 142.8944630 142.7908410
  97.6635360 142.2128160 143.0992920 102.2827570 142.5616820 125.0113000
 103.0756180 142.8505650 124.5594790 101.7631920 142.1308990 124.3325480
 107.0148170 138.6812450 142.3248420 106.4086330 138.7044050 141.5844170
 106.7102280 137.9495490 142.8615670 108.4448540 142.4092740 140.9357830
 109.3970290 142.3250760 140.8858070 108.2976760 143.0734450 141.6091620
 111.3357740 141.7886950 126.4349740 111.0499250 141.3752090 125.6203920
 111.1377290 142.7174660 126.3150260  95.8981350 135.0606040 141.3209060
  96.4020370 134.4813320 141.8925290  95.1588770 135.3446270 141.8585430
 102.8004970 137.7820230 124.8755350 102.6955610 137.1672580 125.6016730
 102.6329190 137.2586120 124.0918360 102.9519290 136.4677030 140.8544580
 102.1864960 137.0362030 140.7699250 103.1335250 136.1753240 139.9612810
 106.0407700 136.8440260 125.4797340 105.4917800 137.2909560 126.1240080
 106.6626960 136.3389510 126.0035010 110.0942640 138.1982360 141.4119600
 110.8352110 138.5358120 140.9087060 109.3315320 138.3674420 140.8589370
  97.9304430 133.2035630 142.2159130  97.9709770 132.9049500 143.1244360
  98.7849930 133.6043240 142.0566650 101.7082820 135.8031180 127.3762640
 102.1299240 135.6371050 128.2194030 101.8333660 134.9931410 126.8817780
  99.8710240 131.7827730 140.1833620  99.3406700 131.2918680 139.5556960
 100.5398310 132.2111930 139.6491550 104.2210460 134.8268790 124.6239740
 104.7416120 134.1117810 124.2580890 104.8678860 135.4654660 124.9240250
 108.7688300 136.2497190 139.9474810 109.1829320 136.4042270 140.7965230
 107.8339300 136.3752410 140.1100590 109.2410470 133.5893350 141.9513960
 109.8231240 132.8345670 141.8634440 109.4172240 134.1200790 141.1745440
 100.3582540 128.7490100 140.2630910 100.2639410 128.1310850 139.5381780
  99.7779930 129.4756390 140.0360820 103.1243980 127.3063340 137.2958300
 102.6761280 127.3287600 136.4503850 102.4909180 126.9082360 137.8928600
 103.5303530 136.2017670 137.9170740 103.9491640 137.0450400 137.7446980
 102.6112160 136.3389710 137.6877520 105.8667430 133.9333850 139.3008580
 105.9863640 133.3374990 140.0403420 106.7261430 133.9703540 138.8809880
 108.2055330 134.4871040 137.8771090 107.6790550 135.0113660 137.2736230
 108.5486670 135.1198430 138.5080820 100.6041720 131.8764410 124.3220800
 100.4030780 131.0131770 124.6834140 100.4333770 131.7897770 123.3842400
 101.3810950 142.5070680 139.0328470 100.8432040 143.2316740 138.7137170
 101.6344910 142.0301020 138.2425810 102.6336200 130.4755200 140.5584400
 103.2235890 130.1671050 141.2462220 101.8156440 130.0034950 140.7144300
 107.4529630 130.0921010 140.7917420 106.7645150 129.4302550 140.7267410
 108.1735650 129.6459280 141.2365880 108.0830030 126.6872640 126.8507680
 108.3632320 125.8440540 127.2067100 107.3095760 126.9195750 127.3646430
  99.4024520 128.9765030 124.3098680  99.7050420 128.9832460 123.4017830
 100.1419110 128.6262890 124.8066340 104.2373160 143.7421890 139.2915120
 104.1631860 144.6457030 139.5987490 103.3352000 143.4233790 139.2637190
 102.6209450 127.9199650 125.2954880 102.2731450 127.2423640 124.7157330
 102.8222220 127.4589160 126.1098270 104.7858490 142.9080400 126.9141480
 105.6809280 143.2465370 126.9360240 104.8176120 142.1859810 126.2865760
  98.4254650 138.2807450 125.1428480  98.8629520 138.8237120 125.7986060
  98.9102380 137.4554400 125.1524820  95.6400450 141.0696480 132.5948740
  95.9703460 140.2017540 132.3627380  96.0691450 141.2755000 133.4253700
 100.2362370 139.4005490 130.2550710  99.9357910 139.2770460 131.1554620
 100.1299860 138.5414080 129.8466440  96.1290660 141.9367070 135.3330370
  95.6921650 142.1167870 136.1654520  96.6968340 142.6941690 135.1912090
 111.7652840 141.4384070 139.6207680 111.1654830 141.4976630 138.8771600
 111.8946740 140.4989050 139.7504530 113.0054290 139.1801890 124.9577390
 112.1747250 139.2478540 125.4284620 113.1826120 140.0706010 124.6544250
 112.4610750 135.9249370 127.4611590 113.2229660 136.4946020 127.5671280
 112.4765120 135.3576570 128.2319900  95.9615090 134.4487300 131.6919250
  95.3063930 134.1798940 131.0478950  96.7993040 134.3391780 131.2421230
 113.4670720 136.7799470 132.3053520 113.8379550 135.9966790 131.8989490
 114.1072650 137.4688570 132.1270820 110.4504480 138.1636050 137.7183840
 109.6364320 138.5933210 137.9809630 110.8578680 138.7754460 137.1052890
 112.5129920 136.2183740 124.6184110 112.7878760 137.1262620 124.4903330
 112.3240660 136.1546270 125.5546100 108.9105530 129.2428590 125.9137740
 109.3290410 129.0559570 125.0734400 108.6041590 128.3907640 126.2240670
 112.4095260 134.1552730 129.6113540 112.0338860 133.3880660 129.1794830
 111.6798380 134.5375430 130.0988470  96.9991020 134.8339870 136.2322590
  97.3664060 134.7467270 137.1118610  96.4301840 134.0706420 136.1329450
 111.7994880 133.3024250 139.2453060 111.5680970 133.0737000 138.3451010
 112.0599430 134.2223800 139.1997950  96.5507020 131.7448960 140.1381010
  95.6563070 131.7115720 140.4774720  97.0904570 131.9435750 140.9032260
 110.2382950 128.5280680 142.0232760 111.1153130 128.5364080 142.4066760
 110.2503790 127.7911520 141.4125110  95.1753170 131.6586230 127.6344580
  94.2717250 131.9216430 127.4596240  95.6593790 131.9297400 126.8544540
 111.6846220 132.3810220 132.9120780 112.2083700 131.8872870 132.2810950
 112.2705640 132.5160580 133.6568350 111.8635940 132.4650090 136.4340330
 110.9138650 132.4313630 136.5485320 112.0448950 133.3750200 136.1990100
  97.7180380 130.7151770 125.5438960  98.4272080 130.2934990 125.0586240
  97.0020320 130.7827000 124.9122310  97.3654540 126.7691100 124.5841610
  98.0882670 127.3100040 124.9022830  97.6379060 126.4954520 123.7083150
 111.1746190 131.6383570 128.8513190 111.6705310 131.4054440 129.6362070
 110.9762260 130.7995410 128.4350830  97.0546730 126.0197290 134.4864230
  97.7022920 125.4694670 134.0459390  97.4748570 126.2740440 135.3080040
 112.6033350 130.2744520 131.3850870 112.4932630 130.1200560 132.3233140
 113.3640940 129.7465460 131.1426280 110.9499070 126.2138650 137.8433870
 111.5871290 126.8272790 138.2093060 111.0973960 126.2499310 136.8983100
 113.4923620 128.1052440 124.6257010 114.4172930 127.9733620 124.4175300
 113.4699410 128.1845260 125.5793460 113.5662110 128.8763100 127.2513720
 112.7713610 128.8108220 127.7806630 113.7705390 129.8113740 127.2399070
 110.5080530 142.9154650 131.2452110 111.1039600 142.5939220 130.5686530
 110.7658680 142.4426470 132.0365380  96.8078730 126.1752960 137.2289550
  96.4593550 126.6316780 137.9947730  96.4766430 125.2810090 137.3111980
  98.4143100 139.3472560 141.3942740  98.3712730 138.9765470 142.2757200
  98.5454110 140.2850130 141.5344560 102.1149130 140.9032150 136.9952460
 101.8740490 141.1706710 136.1082980 103.0551770 141.0737880 137.0503320
 104.3203550 127.3664840 140.7508970 104.2592440 127.9586670 141.5004380
 105.2603930 127.2590800 140.6059230 106.9578110 127.0234900 140.3901260
 107.5718520 127.3414190 139.7282340 107.5027670 126.5383490 141.0097120
 113.3753290 142.9226530 137.7963100 112.8811570 143.3195400 137.0790230
 112.7666580 142.2975740 138.1900380  97.4799370 125.7029160 140.5040320
  98.0282360 125.5217210 139.7406430  97.5454680 124.9123270 141.0396630
  98.2531130 142.2934810 138.5140520  97.6591450 142.1619510 139.2530560
  98.2454970 141.4572950 138.0482620 107.6986150 125.5867040 136.7170550
 106.8245990 125.9202150 136.5143480 107.5896900 125.1140220 137.5422420
 108.6058130 127.7937910 138.1012270 108.2771490 126.9789670 137.7214000
 109.5540430 127.7507720 137.9777960 111.0592740 143.5649950 135.0749840
 110.5995710 144.3165760 134.7007860 110.4305200 142.8456420 135.0164640
  97.8843360 139.6593190 137.4648560  97.1577420 139.0398480 137.3974510
  97.9452510 140.0533800 136.5946640 101.4888460 141.8738190 134.2497970
 102.0053480 141.2625550 133.7246230 102.1385840 142.3766970 134.7408980
 104.2283960 142.7646680 135.0766950 104.5161770 142.5100980 134.1999960
 104.7407180 142.2124040 135.6672520 105.4460970 126.5036880 135.6563460
 104.6632760 126.9782380 135.9360220 105.1523900 125.5991710 135.5476640
 109.9982040 127.2059980 133.7012550 110.4390130 127.1505080 132.8534150
 109.7289630 128.1217990 133.7722730 111.8620610 126.8375220 131.7121370
 111.8009010 125.8936440 131.5652390 112.6412640 126.9455310 132.2574830
  96.1673360 142.9767580 130.6745320  95.9995400 142.3438260 131.3727210
  95.3007870 143.1826980 130.3239510  96.7901380 126.8084360 128.1777180
  97.5480740 126.9213240 127.6041210  96.3278550 127.6453560 128.1320610
 103.3315190 128.9223630 131.1679490 102.5189700 128.5480520 130.8275370
 103.8356830 128.1668710 131.4700680 107.8340170 125.5866080 132.4062560
 108.4369540 126.1586290 132.8811080 107.0933160 126.1505520 132.1836460
 110.9774770 125.9887640 127.6802840 111.1725400 126.8871090 127.9470270
 110.1904640 125.7574720 128.1735790  97.7736060 141.6700810 128.1195460
  97.2483680 142.0508840 127.4157420  97.6980640 142.2951580 128.8405170
  99.1626530 127.3348410 126.7179150  99.6919290 126.5478210 126.5887100
  99.7954850 128.0139600 126.9514680 101.3564370 127.0723550 129.7724540
 100.7267110 126.3710860 129.9394670 100.8169510 127.8327680 129.5557700
 104.2956320 143.6862780 142.4435150 105.2223630 143.4507050 142.4871110
 104.2806750 144.5134780 141.9621180 112.5301380 143.2288350 129.4409400
 112.7053570 142.5426090 128.7970320 111.8322950 143.7535400 129.0486070
 101.4819930 126.3507530 142.2077030 101.2004200 126.8541130 141.4437850
 101.8639630 125.5529280 141.8419160 100.3729030 143.6183190 126.9944710
 101.1047850 143.3342470 126.4468600 100.6322700 143.3796470 127.8844090
  99.5343820 139.7347920 126.9991040  98.9052700 140.2033020 127.5476870
  99.6491650 138.8897140 127.4337230 108.0835390 125.7661110 142.7857500
 107.9700840 126.0855720 143.6809020 108.9005130 126.1673620 142.4894780
 110.8633880 142.9132640 142.2676190 111.6559200 142.4181870 142.0602150
 111.1567030 143.5922780 142.8751800 106.9893540 133.7853580 113.1492240
 106.9087590 132.8708190 112.8783950 106.5757960 134.2820650 112.4431950
 105.1211580 135.5632600 115.0301510 104.3453680 135.0833040 115.3200080
 105.7724510 134.8838250 114.8557670  99.1377410 135.8752410 115.9077270
  98.3062290 135.6201120 116.3073780  99.7458390 135.9463180 116.6435190
 109.1419010 139.9692790 113.8100640 108.6800540 139.1980030 114.1387810
 109.9544560 139.9958860 114.3153090  99.1178670 139.9092500 116.1035290
  99.4206710 139.0190240 115.9245510  99.8622260 140.4662720 115.8757540
  95.5102370 133.4359950 115.5759360  96.0818480 132.6682150 115.5763000
  95.5103910 133.7348710 114.6665970 105.3682320 142.2550800 113.4304630
 104.7493760 142.7108300 112.8599070 106.2234100 142.4102260 113.0294330
 104.5620570 138.2389790 115.0371670 104.4928850 137.2979730 114.8760800
 105.3240430 138.3291200 115.6094240  96.7527240 128.8444310 117.3628290
  96.5730080 127.9470060 117.6431050  96.3507320 129.3916180 118.0375240
 105.5925740 131.0460170 115.2640600 105.9690560 130.1732050 115.1514270
 105.4945250 131.3818870 114.3731040 109.3749860 128.5410610 112.1968940
 110.1959480 128.0507180 112.2394420 109.4083940 129.1308270 112.9500780
  97.3713910 131.3404810 115.9710630  98.0524020 131.6043180 116.5898030
  97.0561960 130.5005680 116.3048640 101.5638480 132.3872170 115.0583220
 102.0716700 132.8853140 115.6988240 102.0951720 131.6107370 114.8822580
 113.6649410 130.5577360 118.7612570 112.9601580 130.9459070 118.2427680
 113.9307330 131.2527650 119.3633500  99.8474580 127.0270730 119.3246640
  99.8493020 127.5443120 118.5192540  99.0178890 126.5500910 119.3016570
 106.2345670 137.1390040 110.8236540 105.6162940 137.6039490 110.2599260
 106.7468920 137.8317520 111.2406050 101.0977430 136.6665910 117.5020140
 100.7646810 137.2934830 118.1441210 101.2744110 137.1927790 116.7221810
 109.6111340 130.4810990 114.9696480 108.9066910 130.7695880 115.5499590
 109.9723500 131.2911100 114.6096040  99.5289910 128.7380690 117.3317090
  99.8706720 129.5822740 117.0370960  98.5905720 128.8864430 117.4482430
 100.3096530 138.6346710 119.3169320 100.9270530 139.3097790 119.0353770
  99.4489650 139.0434690 119.2256820  95.6028870 137.8246570 108.1976170
  95.2256850 138.3133670 107.4661070  95.8601940 138.4971850 108.8282700
 111.2274120 140.0986120 117.2323960 110.5437640 140.7685230 117.2240630
 111.7668410 140.2966770 116.4668820 112.6798260 129.9265780 115.3605690
 111.7323170 129.9604760 115.4921120 113.0048250 130.7404730 115.7455050
 108.7632860 141.9430250 115.9469140 108.7760020 141.5392540 115.0791400
 108.2108080 142.7177540 115.8430570 110.0578280 138.6646470 111.0359310
 109.9474610 137.7220800 111.1608730 110.0546530 139.0262110 111.9222070
 108.1618300 136.8460090 117.2751750 108.5787090 136.6320200 116.4405210
 108.8858120 137.1032880 117.8460370 105.5998560 134.2911790 110.3921800
 104.6727840 134.2249170 110.6210270 105.7523380 135.2291920 110.2777040
 105.5867640 130.5628790 107.3888960 104.6471310 130.7242750 107.4741420
 105.9050900 131.2814470 106.8424950 112.1080400 135.2447310 117.3667990
 111.2799030 135.3140400 116.8918120 112.7030880 135.8301620 116.8983820
 109.6295850 135.8532090 110.8957050 109.0108270 135.5151640 110.2483350
 109.6120300 135.2091850 111.6036240 109.0722410 132.0316630 118.3122860
 108.6593590 132.8570340 118.5662850 108.3398360 131.4461670 118.1199220
 101.2055200 134.8176530 113.1741530 100.8012200 134.1053780 112.6787430
 101.2918320 134.4729770 114.0629570 101.6736900 138.5044090 115.3380740
 101.3765190 137.8989560 114.6588520 102.6236720 138.5421400 115.2270100
  99.9183820 131.5919740 116.9540570 100.4698410 131.7015080 116.1793820
 100.4327330 131.9657340 117.6695800 109.7622510 142.0775960 119.0003840
 109.2853070 142.8848150 118.8076450 109.0784300 141.4254290 119.1530050
 100.7655330 138.2425780 121.9888540  99.8683860 138.4665750 122.2361940
 100.7908200 138.3660720 121.0399940 107.8060550 135.0918900 107.9029800
 108.2453830 134.2541330 107.7567620 108.5188970 135.7248300 107.9893940
  99.5926550 135.1139100 120.5645910  99.4534320 135.9861900 120.9333310
  98.7107910 134.7711910 120.4193850 105.9155930 140.0314970 111.8711040
 106.3551840 140.7739300 111.4566430 105.8542820 140.2741540 112.7950000
 101.3906900 141.0560800 122.7731060 101.3622330 141.4603750 121.9059490
 101.2271870 140.1271160 122.6102660 111.3877690 126.3461710 106.2170840
 111.0750350 126.4388540 107.1169910 112.1490160 126.9242740 106.1668270
  97.9059830 133.7121510 110.6748180  97.7857430 134.4383600 110.0629450
  97.5960720 132.9424420 110.1976090 113.3421720 141.8387900 124.0695230
 113.8181440 142.3170790 124.7484310 113.9628880 141.7705390 123.3440730
  95.5445200 136.8836650 116.4816820  95.6225620 137.0185420 115.5372540
  96.1586880 136.1752540 116.6744940  96.7892830 138.5836840 112.8923000
  96.3820910 138.7251430 112.0376600  97.6805840 138.2997000 112.6894210
 112.7454970 139.0300750 121.2295240 112.8718030 138.7912630 120.3112420
 112.7876350 138.1985290 121.7017320 106.6071710 142.7328750 119.7990050
 107.1216380 142.6436760 120.6012480 105.7640790 143.0788450 120.0917960
 108.5826110 143.0184090 109.2274050 108.4227250 142.7287030 110.1255880
 108.4172820 142.2424220 108.6919280 101.0614490 142.7982620 111.0045670
 100.8856970 141.8818160 110.7913470 100.2070230 143.1569910 111.2443470
 108.2852240 140.5271650 107.7872050 107.5917400 140.5248940 107.1274330
 109.0275100 140.1030970 107.3566220 107.8502170 142.1534360 111.8620540
 108.3059120 141.3723740 112.1759160 108.1894690 142.8641180 112.4061720
 112.5978980 131.0833210 122.1944980 111.9823250 131.5912880 121.6660440
 112.2775400 130.1831540 122.1370920  95.6004720 137.9250820 119.0211280
  95.7635760 137.4556180 118.2030650  96.0657170 137.4174380 119.6860120
 104.6593300 129.9225100 119.6607170 104.1972670 130.1308120 120.4727110
 104.2571410 129.1084450 119.3577840 109.6597810 131.1434050 120.7903830
 108.8091400 130.8439800 121.1112900 109.4999600 131.3876060 119.8787650
 106.7547520 132.6435800 122.8902620 107.0800930 131.8099550 122.5504850
 107.5427850 133.1664320 123.0380950 102.4099390 127.6003910 115.9161450
 102.7071720 128.5066740 115.8353470 102.9584950 127.1122690 115.3021020
 107.3935470 132.1853520 110.3843750 106.7944360 132.9089320 110.2007370
 107.9415080 132.1230300 109.6020200 102.6036920 133.0775730 122.4513370
 102.5080520 132.1370460 122.3013770 103.4468900 133.2990800 122.0561440
 106.0000340 130.8217060 112.4147030 106.3929910 131.1389260 111.6015720
 106.3617190 129.9428940 112.5291550  97.7347460 129.4889400 120.6047150
  97.3410850 130.3364610 120.8119930  97.0465860 128.8515770 120.7955790
 104.3092510 129.5724370 123.6743890 103.6190830 129.3796570 124.3089980
 105.0524810 129.8559010 124.2068190  95.0364510 127.4117860 114.6377230
  94.7477560 127.9820720 115.3502210  95.7810270 126.9322310 115.0008460
  95.2234740 131.3537980 105.8479950  95.1409410 132.2968740 105.9894940
  94.8717800 131.2112890 104.9692300 106.5855480 133.4122810 116.5097810
 105.8536600 133.9209620 116.8587910 106.1879820 132.5952790 116.2086590
 103.0232870 130.0877010 114.9150300 103.0268930 129.6466960 114.0654840
 103.9183990 130.4094340 115.0222120 103.0853020 131.0889090 107.9057060
 103.2065840 131.0475570 108.8542880 102.7001530 131.9513240 107.7503790
 107.0481390 128.8656490 115.9220750 107.0654130 129.3165140 116.7662600
 106.7996970 127.9662130 116.1354190 102.0974520 133.3990230 107.3040360
 101.5291420 132.9508480 106.6776270 102.8063520 133.7583010 106.7705510
 110.4752140 126.2788670 121.7607130 110.7997910 125.5478330 122.2865110
 110.5108650 125.9602310 120.8588120  97.1743700 137.3002250 121.1807090
  96.7898490 136.6595920 121.7790050  97.4855890 138.0038370 121.7501820
 103.3240840 134.1478790 116.6615710 103.6910970 133.6737360 117.4077050
 103.1345900 135.0220360 117.0024050 101.1140210 133.1887430 118.9799920
 100.8097280 134.0679410 119.2050280 102.0686670 133.2487220 119.0157360
  99.6422000 137.3948420 109.5766770  98.8684260 136.8546040 109.4165490
 100.3716630 136.8755030 109.2384530 110.4009980 136.3913780 115.3693160
 111.1209100 136.8869070 114.9789270 110.1991800 135.7131670 114.7247030
 105.8619920 127.7851740 109.5122550 105.0484530 127.2864910 109.4367860
 105.6681870 128.6249990 109.0958900 105.7828780 136.4622840 121.2562160
 105.7166090 135.5418510 121.0019750 105.1533920 136.5598280 121.9706800
 108.5768310 132.1571390 107.8084710 109.4647930 132.4688620 107.6336050
 108.5473400 131.2843640 107.4165290  99.6859400 137.0628800 113.2145580
 100.2038070 136.2597060 113.1602470  99.2343420 137.0007940 114.0562410
 104.5728900 138.3295080 108.4872880 104.9144600 139.0737310 107.9916200
 103.7441610 138.6426200 108.8497710  97.1703940 134.0290170 120.1271280
  96.8118880 134.6944020 120.7144620  96.8758500 133.1973720 120.4983900
 100.3717060 134.4874410 123.0110830 100.0717200 134.6331590 122.1138650
 101.1428300 133.9279700 122.9184220 105.7145510 139.2843410 121.0065960
 105.7290050 138.3524370 120.7884870 105.0070610 139.3703170 121.6455730
 110.8482580 133.4683230 107.2764570 110.7646300 133.8997450 106.4261010
 111.5676770 133.9281580 107.7091390 111.9256720 135.9250750 120.3534540
 111.2004910 136.5179530 120.1563930 112.4532180 135.9174290 119.5547910
 111.8769830 140.3225490 110.0046700 111.2345990 139.6681110 110.2790420
 111.4900490 140.7280580 109.2287370 107.4556310 137.6510920 113.8518390
 107.8080130 137.0539050 113.1919760 106.5718640 137.3255150 114.0226640
 103.5419590 138.4108610 111.2588800 104.2290720 138.9577820 111.6396390
 102.7552010 138.9549340 111.2938410  95.6811990 134.0281430 106.7505880
  96.5506840 134.3106230 107.0341800  95.1902310 134.8417300 106.6354690
 102.8446800 135.4154640 110.8714160 103.3009580 136.2259890 111.0974350
 102.4935010 135.0977780 111.7032650 105.1479410 140.9260980 118.1006460
 105.7921630 141.1320360 118.7779880 105.5108850 140.1649380 117.6477310
 106.4211490 138.9293330 116.8183910 107.0633720 138.2286490 116.9316080
 106.9460840 139.7091770 116.6380800 110.2667210 139.2141950 106.5423050
 110.0404790 138.4972390 107.1347690 109.8763410 138.9654390 105.7044800
 108.1949110 139.7288230 120.0219970 108.5305350 140.3154920 120.6997890
 107.2749450 139.5980940 120.2517760  96.0483240 143.2408810 107.3167510
  96.4080880 143.8398150 106.6624780  95.9075580 143.7868700 108.0902540
  95.7452510 127.5183410 120.8043380  95.0311030 127.7180330 121.4095990
  96.1647550 126.7422980 121.1758180 109.8483460 137.1313890 108.2037210
 109.5605160 137.5926580 108.9915090 110.6435630 136.6711660 108.4721430
  96.0325100 141.5063670 121.7909910  96.1416220 140.5658410 121.6505300
  95.3805660 141.7718420 121.1423640 104.0237690 139.7779560 123.1908030
 103.7034560 139.0588800 123.7353720 103.3496050 140.4534630 123.2644090
 102.0651860 140.6240010 108.1341180 102.0561960 141.3569700 107.5185690
 101.1450220 140.3771590 108.2268140  97.6658500 135.8454900 108.8787940
  97.0586450 136.5853800 108.8883240  98.1407850 135.9354260 108.0526140
 107.2391290 130.0105720 118.5544830 107.6072110 129.1900930 118.8824400
 106.3789490 130.0707610 118.9700480 110.6053320 128.9662660 109.3632390
 109.9766480 129.0708330 108.6490620 110.1105240 129.1859440 110.1526270
 105.0511460 140.6868250 106.7966370 105.1523440 140.4832240 105.8668350
 104.1513200 140.4326530 107.0014150 104.1993280 132.6645310 118.7782800
 104.6978530 133.1391130 119.4434650 104.3416230 131.7408830 118.9852830
 106.6052780 127.9699270 112.2186060 106.4820560 127.9885400 111.2695570
 107.5537340 128.0178210 112.3384460 103.6929570 143.2054570 111.4914040
 103.9471070 143.1675960 110.5693410 102.7442050 143.0787900 111.4842290
 111.4060140 128.8813270 119.6211190 110.9033740 129.6218670 119.9605000
 112.2216800 129.2697270 119.3047980 109.6982150 134.1246450 113.0672550
 108.7572290 134.1396680 113.2420240 110.0126220 133.3382410 113.5132850
  99.6763790 135.8066050 106.6276510 100.4427060 135.6947410 107.1901940
  99.7538480 135.1104020 105.9753280  98.3710550 133.2391120 107.3109400
  98.4514140 132.2918630 107.4226800  99.2630300 133.5698000 107.4170060
 111.7007730 141.2955300 114.7426810 111.8255150 142.1186470 115.2150620
 112.5673290 141.0846030 114.3950960  99.1725260 143.3886510 114.4143940
  99.9087740 142.8401970 114.6852510  99.5566180 144.2542520 114.2749930
  96.0570740 139.4560080 110.2885450  95.1310520 139.6981220 110.2790860
  96.5227170 140.2834340 110.1670200  98.1783540 142.5732580 123.6029520
  98.9796270 142.8944630 124.0164920  97.6635360 142.2128160 124.3249430
 102.2827570 142.5616820 106.2369510 103.0756180 142.8505650 105.7851300
 101.7631920 142.1308990 105.5581990 107.0148170 138.6812450 123.5504930
 106.4086330 138.7044050 122.8100680 106.7102280 137.9495490 124.0872180
 108.4448540 142.4092740 122.1614340 109.3970290 142.3250760 122.1114580
 108.2976760 143.0734450 122.8348130 111.3357740 141.7886950 107.6606250
 111.0499250 141.3752090 106.8460430 111.1377290 142.7174660 107.5406770
  95.8981350 135.0606040 122.5465570  96.4020370 134.4813320 123.1181800
  95.1588770 135.3446270 123.0841940 102.8004970 137.7820230 106.1011860
 102.6955610 137.1672580 106.8273240 102.6329190 137.2586120 105.3174870
 102.9519290 136.4677030 122.0801090 102.1864960 137.0362030 121.9955760
 103.1335250 136.1753240 121.1869320 106.0407700 136.8440260 106.7053850
 105.4917800 137.2909560 107.3496590 106.6626960 136.3389510 107.2291520
 110.0942640 138.1982360 122.6376110 110.8352110 138.5358120 122.1343570
 109.3315320 138.3674420 122.0845880  97.9304430 133.2035630 123.4415640
  97.9709770 132.9049500 124.3500870  98.7849930 133.6043240 123.2823160
 101.7082820 135.8031180 108.6019150 102.1299240 135.6371050 109.4450540
 101.8333660 134.9931410 108.1074290  99.8710240 131.7827730 121.4090130
  99.3406700 131.2918680 120.7813470 100.5398310 132.2111930 120.8748060
 104.2210460 134.8268790 105.8496250 104.7416120 134.1117810 105.4837400
 104.8678860 135.4654660 106.1496760 108.7688300 136.2497190 121.1731320
 109.1829320 136.4042270 122.0221740 107.8339300 136.3752410 121.3357100
 109.2410470 133.5893350 123.1770470 109.8231240 132.8345670 123.0890950
 109.4172240 134.1200790 122.4001950 100.3582540 128.7490100 121.4887420
 100.2639410 128.1310850 120.7638290  99.7779930 129.4756390 121.2617330
 103.1243980 127.3063340 118.5214810 102.6761280 127.3287600 117.6760360
 102.4909180 126.9082360 119.1185110 103.5303530 136.2017670 119.1427250
 103.9491640 137.0450400 118.9703490 102.6112160 136.3389710 118.9134030
 105.8667430 133.9333850 120.5265090 105.9863640 133.3374990 121.2659930
 106.7261430 133.9703540 120.1066390 108.2055330 134.4871040 119.1027600
 107.6790550 135.0113660 118.4992740 108.5486670 135.1198430 119.7337330
 100.6041720 131.8764410 105.5477310 100.4030780 131.0131770 105.9090650
 100.4333770 131.7897770 104.6098910 101.3810950 142.5070680 120.2584980
 100.8432040 143.2316740 119.9393680 101.6344910 142.0301020 119.4682320
 102.6336200 130.4755200 121.7840910 103.2235890 130.1671050 122.4718730
 101.8156440 130.0034950 121.9400810 107.4529630 130.0921010 122.0173930
 106.7645150 129.4302550 121.9523920 108.1735650 129.6459280 122.4622390
 108.0830030 126.6872640 108.0764190 108.3632320 125.8440540 108.4323610
 107.3095760 126.9195750 108.5902940 104.2373160 143.7421890 120.5171630
 104.1631860 144.6457030 120.8244000 103.3352000 143.4233790 120.4893700
 104.7858490 142.9080400 108.1397990 105.6809280 143.2465370 108.1616750
 104.8176120 142.1859810 107.5122270  98.4254650 138.2807450 106.3684990
  98.8629520 138.8237120 107.0242570  98.9102380 137.4554400 106.3781330
  95.6400450 141.0696480 113.8205250  95.9703460 140.2017540 113.5883890
  96.0691450 141.2755000 114.6510210 100.2362370 139.4005490 111.4807220
  99.9357910 139.2770460 112.3811130 100.1299860 138.5414080 111.0722950
  96.1290660 141.9367070 116.5586880  95.6921650 142.1167870 117.3911030
  96.6968340 142.6941690 116.4168600 111.7652840 141.4384070 120.8464190
 111.1654830 141.4976630 120.1028110 111.8946740 140.4989050 120.9761040
 113.0054290 139.1801890 106.1833900 112.1747250 139.2478540 106.6541130
 113.1826120 140.0706010 105.8800760 112.4610750 135.9249370 108.6868100
 113.2229660 136.4946020 108.7927790 112.4765120 135.3576570 109.4576410
  95.9615090 134.4487300 112.9175760  95.3063930 134.1798940 112.2735460
  96.7993040 134.3391780 112.4677740 113.4670720 136.7799470 113.5310030
 113.8379550 135.9966790 113.1246000 114.1072650 137.4688570 113.3527330
 110.4504480 138.1636050 118.9440350 109.6364320 138.5933210 119.2066140
 110.8578680 138.7754460 118.3309400 112.5129920 136.2183740 105.8440620
 112.7878760 137.1262620 105.7159840 112.3240660 136.1546270 106.7802610
 108.9105530 129.2428590 107.1394250 109.3290410 129.0559570 106.2990910
 108.6041590 128.3907640 107.4497180 112.4095260 134.1552730 110.8370050
 112.0338860 133.3880660 110.4051340 111.6798380 134.5375430 111.3244980
  96.9991020 134.8339870 117.4579100  97.3664060 134.7467270 118.3375120
  96.4301840 134.0706420 117.3585960 111.7994880 133.3024250 120.4709570
 111.5680970 133.0737000 119.5707520 112.0599430 134.2223800 120.4254460
  96.5507020 131.7448960 121.3637520  95.6563070 131.7115720 121.7031230
  97.0904570 131.9435750 122.1288770 110.2382950 128.5280680 123.2489270
 111.1153130 128.5364080 123.6323270 110.2503790 127.7911520 122.6381620
  95.1753170 131.6586230 108.8601090  94.2717250 131.9216430 108.6852750
  95.6593790 131.9297400 108.0801050 111.6846220 132.3810220 114.1377290
 112.2083700 131.8872870 113.5067460 112.2705640 132.5160580 114.8824860
 111.8635940 132.4650090 117.6596840 110.9138650 132.4313630 117.7741830
 112.0448950 133.3750200 117.4246610  97.7180380 130.7151770 106.7695470
  98.4272080 130.2934990 106.2842750  97.0020320 130.7827000 106.1378820
 111.1746190 131.6383570 110.0769700 111.6705310 131.4054440 110.8618580
 110.9762260 130.7995410 109.6607340 112.6033350 130.2744520 112.6107380
 112.4932630 130.1200560 113.5489650 113.3640940 129.7465460 112.3682790
 110.9499070 126.2138650 119.0690380 111.5871290 126.8272790 119.4349570
 111.0973960 126.2499310 118.1239610 113.4923620 128.1052440 105.8513520
 114.4172930 127.9733620 105.6431810 113.4699410 128.1845260 106.8049970
 113.5662110 128.8763100 108.4770230 112.7713610 128.8108220 109.0063140
 113.7705390 129.8113740 108.4655580 110.5080530 142.9154650 112.4708620
 111.1039600 142.5939220 111.7943040 110.7658680 142.4426470 113.2621890
  98.4143100 139.3472560 122.6199250  98.3712730 138.9765470 123.5013710
  98.5454110 140.2850130 122.7601070 102.1149130 140.9032150 118.2208970
 101.8740490 141.1706710 117.3339490 103.0551770 141.0737880 118.2759830
 104.3203550 127.3664840 121.9765480 104.2592440 127.9586670 122.7260890
 105.2603930 127.2590800 121.8315740 106.9578110 127.0234900 121.6157770
 107.5718520 127.3414190 120.9538850 107.5027670 126.5383490 122.2353630
 113.3753290 142.9226530 119.0219610 112.8811570 143.3195400 118.3046740
 112.7666580 142.2975740 119.4156890  97.4799370 125.7029160 121.7296830
  98.0282360 125.5217210 120.9662940  97.5454680 124.9123270 122.2653140
  98.2531130 142.2934810 119.7397030  97.6591450 142.1619510 120.4787070
  98.2454970 141.4572950 119.2739130 107.6986150 125.5867040 117.9427060
 106.8245990 125.9202150 117.7399990 107.5896900 125.1140220 118.7678930
 108.6058130 127.7937910 119.3268780 108.2771490 126.9789670 118.9470510
 109.5540430 127.7507720 119.2034470 111.0592740 143.5649950 116.3006350
 110.5995710 144.3165760 115.9264370 110.4305200 142.8456420 116.2421150
  97.8843360 139.6593190 118.6905070  97.1577420 139.0398480 118.6231020
  97.9452510 140.0533800 117.8203150 101.4888460 141.8738190 115.4754480
 102.0053480 141.2625550 114.9502740 102.1385840 142.3766970 115.9665490
 104.2283960 142.7646680 116.3023460 104.5161770 142.5100980 115.4256470
 104.7407180 142.2124040 116.8929030 109.9982040 127.2059980 114.9269060
 110.4390130 127.1505080 114.0790660 109.7289630 128.1217990 114.9979240
 111.8620610 126.8375220 112.9377880 111.8009010 125.8936440 112.7908900
 112.6412640 126.9455310 113.4831340  96.1673360 142.9767580 111.9001830
  95.9995400 142.3438260 112.5983720  95.3007870 143.1826980 111.5496020
 107.8340170 125.5866080 113.6319070 108.4369540 126.1586290 114.1067590
 107.0933160 126.1505520 113.4092970 110.9774770 125.9887640 108.9059350
 111.1725400 126.8871090 109.1726780 110.1904640 125.7574720 109.3992300
  97.7736060 141.6700810 109.3451970  97.2483680 142.0508840 108.6413930
  97.6980640 142.2951580 110.0661680 104.2956320 143.6862780 123.6691660
 105.2223630 143.4507050 123.7127620 104.2806750 144.5134780 123.1877690
 112.5301380 143.2288350 110.6665910 112.7053570 142.5426090 110.0226830
 111.8322950 143.7535400 110.2742580 101.4819930 126.3507530 123.4333540
 101.2004200 126.8541130 122.6694360 101.8639630 125.5529280 123.0675670
 100.3729030 143.6183190 108.2201220 101.1047850 143.3342470 107.6725110
 100.6322700 143.3796470 109.1100600  99.5343820 139.7347920 108.2247550
  98.9052700 140.2033020 108.7733380  99.6491650 138.8897140 108.6593740
 108.0835390 125.7661110 124.0114010 107.9700840 126.0855720 124.9065530
 108.9005130 126.1673620 123.7151290 110.8633880 142.9132640 123.4932700
 111.6559200 142.4181870 123.2858660 111.1567030 143.5922780 124.1008310
 106.9893540 133.7853580  94.3748750 106.9087590 132.8708190  94.1040460
 106.5757960 134.2820650  93.6688460 105.1211580 135.5632600  96.2558020
 104.3453680 135.0833040  96.5456590 105.7724510 134.8838250  96.0814180
 109.1419010 139.9692790  95.0357150 108.6800540 139.1980030  95.3644320
 109.9544560 139.9958860  95.5409600  99.1178670 139.9092500  97.3291800
  99.4206710 139.0190240  97.1502020  99.8622260 140.4662720  97.1014050
  97.5469360 130.8354300  90.9176170  96.6586060 131.1770270  90.8156050
  97.8310550 130.6354620  90.0257000 105.3682320 142.2550800  94.6561140
 104.7493760 142.7108300  94.0855580 106.2234100 142.4102260  94.2550840
 104.5620570 138.2389790  96.2628180 104.4928850 137.2979730  96.1017310
 105.3240430 138.3291200  96.8350750  96.7527240 128.8444310  98.5884800
  96.5730080 127.9470060  98.8687560  96.3507320 129.3916180  99.2631750
 105.5925740 131.0460170  96.4897110 105.9690560 130.1732050  96.3770780
 105.4945250 131.3818870  95.5987550 109.3749860 128.5410610  93.4225450
 110.1959480 128.0507180  93.4650930 109.4083940 129.1308270  94.1757290
 113.6649410 130.5577360  99.9869080 112.9601580 130.9459070  99.4684190
 113.9307330 131.2527650 100.5890010  99.8474580 127.0270730 100.5503150
  99.8493020 127.5443120  99.7449050  99.0178890 126.5500910 100.5273080
 106.2345670 137.1390040  92.0493050 105.6162940 137.6039490  91.4855770
 106.7468920 137.8317520  92.4662560 101.0977430 136.6665910  98.7276650
 100.7646810 137.2934830  99.3697720 101.2744110 137.1927790  97.9478320
 100.3096530 138.6346710 100.5425830 100.9270530 139.3097790 100.2610280
  99.4489650 139.0434690 100.4513330 111.2274120 140.0986120  98.4580470
 110.5437640 140.7685230  98.4497140 111.7668410 140.2966770  97.6925330
 112.6798260 129.9265780  96.5862200 111.7323170 129.9604760  96.7177630
 113.0048250 130.7404730  96.9711560 103.2117800 126.2262960  94.8818190
 103.5192780 125.6709850  94.1653690 102.2818500 126.3607420  94.6991180
 108.7632860 141.9430250  97.1725650 108.7760020 141.5392540  96.3047910
 108.2108080 142.7177540  97.0687080 110.0578280 138.6646470  92.2615820
 109.9474610 137.7220800  92.3865240 110.0546530 139.0262110  93.1478580
 108.1618300 136.8460090  98.5008260 108.5787090 136.6320200  97.6661720
 108.8858120 137.1032880  99.0716880 112.1080400 135.2447310  98.5924500
 111.2799030 135.3140400  98.1174630 112.7030880 135.8301620  98.1240330
 109.6295850 135.8532090  92.1213560 109.0108270 135.5151640  91.4739860
 109.6120300 135.2091850  92.8292750 101.6736900 138.5044090  96.5637250
 101.3765190 137.8989560  95.8845030 102.6236720 138.5421400  96.4526610
 109.7622510 142.0775960 100.2260350 109.2853070 142.8848150 100.0332960
 109.0784300 141.4254290 100.3786560 100.7655330 138.2425780 103.2145050
  99.8683860 138.4665750 103.4618450 100.7908200 138.3660720 102.2656450
 107.8060550 135.0918900  89.1286310 108.2453830 134.2541330  88.9824130
 108.5188970 135.7248300  89.2150450  99.5926550 135.1139100 101.7902420
  99.4534320 135.9861900 102.1589820  98.7107910 134.7711910 101.6450360
 105.9155930 140.0314970  93.0967550 106.3551840 140.7739300  92.6822940
 105.8542820 140.2741540  94.0206510 101.3906900 141.0560800 103.9987570
 101.3622330 141.4603750 103.1316000 101.2271870 140.1271160 103.8359170
 111.3877690 126.3461710  87.4427350 111.0750350 126.4388540  88.3426420
 112.1490160 126.9242740  87.3924780  97.9059830 133.7121510  91.9004690
  97.7857430 134.4383600  91.2885960  97.5960720 132.9424420  91.4232600
 113.3421720 141.8387900 105.2951740 113.8181440 142.3170790 105.9740820
 113.9628880 141.7705390 104.5697240  95.5445200 136.8836650  97.7073330
  95.6225620 137.0185420  96.7629050  96.1586880 136.1752540  97.9001450
  96.7892830 138.5836840  94.1179510  96.3820910 138.7251430  93.2633110
  97.6805840 138.2997000  93.9150720 112.7454970 139.0300750 102.4551750
 112.8718030 138.7912630 101.5368930 112.7876350 138.1985290 102.9273830
 106.6071710 142.7328750 101.0246560 107.1216380 142.6436760 101.8268990
 105.7640790 143.0788450 101.3174470 108.5826110 143.0184090  90.4530560
 108.4227250 142.7287030  91.3512390 108.4172820 142.2424220  89.9175790
 101.0614490 142.7982620  92.2302180 100.8856970 141.8818160  92.0169980
 100.2070230 143.1569910  92.4699980 108.2852240 140.5271650  89.0128560
 107.5917400 140.5248940  88.3530840 109.0275100 140.1030970  88.5822730
 107.8502170 142.1534360  93.0877050 108.3059120 141.3723740  93.4015670
 108.1894690 142.8641180  93.6318230 112.5978980 131.0833210 103.4201490
 111.9823250 131.5912880 102.8916950 112.2775400 130.1831540 103.3627430
  95.6004720 137.9250820 100.2467790  95.7635760 137.4556180  99.4287160
  96.0657170 137.4174380 100.9116630 100.3723490 127.0556580  95.2828360
  99.9291640 127.8366120  94.9512880 100.9308480 127.3786470  95.9899300
 109.6597810 131.1434050 102.0160340 108.8091400 130.8439800 102.3369410
 109.4999600 131.3876060 101.1044160 100.1637710 132.1790150  93.0109610
  99.9378630 131.9627320  93.9156230  99.3830240 132.6118610  92.6655580
 102.6036920 133.0775730 103.6769880 102.5080520 132.1370460 103.5270280
 103.4468900 133.2990800 103.2817950  97.7347460 129.4889400 101.8303660
  97.3410850 130.3364610 102.0376440  97.0465860 128.8515770 102.0212300
 106.5855480 133.4122810  97.7354320 105.8536600 133.9209620  98.0844420
 106.1879820 132.5952790  97.4343100 110.4752140 126.2788670 102.9863640
 110.7997910 125.5478330 103.5121620 110.5108650 125.9602310 102.0844630
  97.1743700 137.3002250 102.4063600  96.7898490 136.6595920 103.0046560
  97.4855890 138.0038370 102.9758330  96.1881330 128.8922480  94.0165690
  95.9028250 128.5278150  94.8544310  96.1260190 128.1602940  93.4028830
  99.6422000 137.3948420  90.8023280  98.8684260 136.8546040  90.6422000
 100.3716630 136.8755030  90.4641040 110.4009980 136.3913780  96.5949670
 111.1209100 136.8869070  96.2045780 110.1991800 135.7131670  95.9503540
 105.7828780 136.4622840 102.4818670 105.7166090 135.5418510 102.2276260
 105.1533920 136.5598280 103.1963310 108.5768310 132.1571390  89.0341220
 109.4647930 132.4688620  88.8592560 108.5473400 131.2843640  88.6421800
  99.6859400 137.0628800  94.4402090 100.2038070 136.2597060  94.3858980
  99.2343420 137.0007940  95.2818920 104.5728900 138.3295080  89.7129390
 104.9144600 139.0737310  89.2172710 103.7441610 138.6426200  90.0754220
  97.1703940 134.0290170 101.3527790  96.8118880 134.6944020 101.9401130
  96.8758500 133.1973720 101.7240410 100.3717060 134.4874410 104.2367340
 100.0717200 134.6331590 103.3395160 101.1428300 133.9279700 104.1440730
 105.7145510 139.2843410 102.2322470 105.7290050 138.3524370 102.0141380
 105.0070610 139.3703170 102.8712240 110.8482580 133.4683230  88.5021080
 110.7646300 133.8997450  87.6517520 111.5676770 133.9281580  88.9347900
 111.9256720 135.9250750 101.5791050 111.2004910 136.5179530 101.3820440
 112.4532180 135.9174290 100.7804420 111.8769830 140.3225490  91.2303210
 111.2345990 139.6681110  91.5046930 111.4900490 140.7280580  90.4543880
 107.4556310 137.6510920  95.0774900 107.8080130 137.0539050  94.4176270
 106.5718640 137.3255150  95.2483150 103.5419590 138.4108610  92.4845310
 104.2290720 138.9577820  92.8652900 102.7552010 138.9549340  92.5194920
 102.8446800 135.4154640  92.0970670 103.3009580 136.2259890  92.3230860
 102.4935010 135.0977780  92.9289160 105.1479410 140.9260980  99.3262970
 105.7921630 141.1320360 100.0036390 105.5108850 140.1649380  98.8733820
 106.4211490 138.9293330  98.0440420 107.0633720 138.2286490  98.1572590
 106.9460840 139.7091770  97.8637310 110.2667210 139.2141950  87.7679560
 110.0404790 138.4972390  88.3604200 109.8763410 138.9654390  86.9301310
 108.1949110 139.7288230 101.2476480 108.5305350 140.3154920 101.9254400
 107.2749450 139.5980940 101.4774270  96.0483240 143.2408810  88.5424020
  96.4080880 143.8398150  87.8881290  95.9075580 143.7868700  89.3159050
  95.7452510 127.5183410 102.0299890  95.0311030 127.7180330 102.6352500
  96.1647550 126.7422980 102.4014690 109.8483460 137.1313890  89.4293720
 109.5605160 137.5926580  90.2171600 110.6435630 136.6711660  89.6977940
  96.0325100 141.5063670 103.0166420  96.1416220 140.5658410 102.8761810
  95.3805660 141.7718420 102.3680150 104.0237690 139.7779560 104.4164540
 103.7034560 139.0588800 104.9610230 103.3496050 140.4534630 104.4900600
 102.0651860 140.6240010  89.3597690 102.0561960 141.3569700  88.7442200
 101.1450220 140.3771590  89.4524650 110.6053320 128.9662660  90.5888900
 109.9766480 129.0708330  89.8747130 110.1105240 129.1859440  91.3782780
 105.0511460 140.6868250  88.0222880 105.1523440 140.4832240  87.0924860
 104.1513200 140.4326530  88.2270660 103.6929570 143.2054570  92.7170550
 103.9471070 143.1675960  91.7949920 102.7442050 143.0787900  92.7098800
 111.4060140 128.8813270 100.8467700 110.9033740 129.6218670 101.1861510
 112.2216800 129.2697270 100.5304490 109.6982150 134.1246450  94.2929060
 108.7572290 134.1396680  94.4676750 110.0126220 133.3382410  94.7389360
 111.7007730 141.2955300  95.9683320 111.8255150 142.1186470  96.4407130
 112.5673290 141.0846030  95.6207470  99.1725260 143.3886510  95.6400450
  99.9087740 142.8401970  95.9109020  99.5566180 144.2542520  95.5006440
  96.0570740 139.4560080  91.5141960  95.1310520 139.6981220  91.5047370
  96.5227170 140.2834340  91.3926710  98.1783540 142.5732580 104.8286030
  98.9796270 142.8944630 105.2421430  97.6635360 142.2128160 105.5505940
 102.2827570 142.5616820  87.4626020 103.0756180 142.8505650  87.0107810
 101.7631920 142.1308990  86.7838500 107.0148170 138.6812450 104.7761440
 106.4086330 138.7044050 104.0357190 106.7102280 137.9495490 105.3128690
 108.4448540 142.4092740 103.3870850 109.3970290 142.3250760 103.3371090
 108.2976760 143.0734450 104.0604640 111.3357740 141.7886950  88.8862760
 111.0499250 141.3752090  88.0716940 111.1377290 142.7174660  88.7663280
  95.8981350 135.0606040 103.7722080  96.4020370 134.4813320 104.3438310
  95.1588770 135.3446270 104.3098450 102.9519290 136.4677030 103.3057600
 102.1864960 137.0362030 103.2212270 103.1335250 136.1753240 102.4125830
 106.0407700 136.8440260  87.9310360 105.4917800 137.2909560  88.5753100
 106.6626960 136.3389510  88.4548030 110.0942640 138.1982360 103.8632620
 110.8352110 138.5358120 103.3600080 109.3315320 138.3674420 103.3102390
  97.9304430 133.2035630 104.6672150  97.9709770 132.9049500 105.5757380
  98.7849930 133.6043240 104.5079670 101.7082820 135.8031180  89.8275660
 102.1299240 135.6371050  90.6707050 101.8333660 134.9931410  89.3330800
  99.8710240 131.7827730 102.6346640  99.3406700 131.2918680 102.0069980
 100.5398310 132.2111930 102.1004570 104.2210460 134.8268790  87.0752760
 104.7416120 134.1117810  86.7093910 104.8678860 135.4654660  87.3753270
 108.7688300 136.2497190 102.3987830 109.1829320 136.4042270 103.2478250
 107.8339300 136.3752410 102.5613610 109.2410470 133.5893350 104.4026980
 109.8231240 132.8345670 104.3147460 109.4172240 134.1200790 103.6258460
 100.3582540 128.7490100 102.7143930 100.2639410 128.1310850 101.9894800
  99.7779930 129.4756390 102.4873840 103.5303530 136.2017670 100.3683760
 103.9491640 137.0450400 100.1960000 102.6112160 136.3389710 100.1390540
 105.8667430 133.9333850 101.7521600 105.9863640 133.3374990 102.4916440
 106.7261430 133.9703540 101.3322900 108.2055330 134.4871040 100.3284110
 107.6790550 135.0113660  99.7249250 108.5486670 135.1198430 100.9593840
 101.3810950 142.5070680 101.4841490 100.8432040 143.2316740 101.1650190
 101.6344910 142.0301020 100.6938830 108.0830030 126.6872640  89.3020700
 108.3632320 125.8440540  89.6580120 107.3095760 126.9195750  89.8159450
  99.4024520 128.9765030  86.7611700  99.7050420 128.9832460  85.8530850
 100.1419110 128.6262890  87.2579360 104.2373160 143.7421890 101.7428140
 104.1631860 144.6457030 102.0500510 103.3352000 143.4233790 101.7150210
 104.7858490 142.9080400  89.3654500 105.6809280 143.2465370  89.3873260
 104.8176120 142.1859810  88.7378780  98.4254650 138.2807450  87.5941500
  98.8629520 138.8237120  88.2499080  98.9102380 137.4554400  87.6037840
  95.6400450 141.0696480  95.0461760  95.9703460 140.2017540  94.8140400
  96.0691450 141.2755000  95.8766720 100.2362370 139.4005490  92.7063730
  99.9357910 139.2770460  93.6067640 100.1299860 138.5414080  92.2979460
  96.1290660 141.9367070  97.7843390  95.6921650 142.1167870  98.6167540
  96.6968340 142.6941690  97.6425110 111.7652840 141.4384070 102.0720700
 111.1654830 141.4976630 101.3284620 111.8946740 140.4989050 102.2017550
 113.0054290 139.1801890  87.4090410 112.1747250 139.2478540  87.8797640
 113.1826120 140.0706010  87.1057270 112.4610750 135.9249370  89.9124610
 113.2229660 136.4946020  90.0184300 112.4765120 135.3576570  90.6832920
 113.4670720 136.7799470  94.7566540 113.8379550 135.9966790  94.3502510
 114.1072650 137.4688570  94.5783840 110.4504480 138.1636050 100.1696860
 109.6364320 138.5933210 100.4322650 110.8578680 138.7754460  99.5565910
 112.5129920 136.2183740  87.0697130 112.7878760 137.1262620  86.9416350
 112.3240660 136.1546270  88.0059120 108.9105530 129.2428590  88.3650760
 109.3290410 129.0559570  87.5247420 108.6041590 128.3907640  88.6753690
 112.4095260 134.1552730  92.0626560 112.0338860 133.3880660  91.6307850
 111.6798380 134.5375430  92.5501490 111.7994880 133.3024250 101.6966080
 111.5680970 133.0737000 100.7964030 112.0599430 134.2223800 101.6510970
  96.5507020 131.7448960 102.5894030  95.6563070 131.7115720 102.9287740
  97.0904570 131.9435750 103.3545280 110.2382950 128.5280680 104.4745780
 111.1153130 128.5364080 104.8579780 110.2503790 127.7911520 103.8638130
 111.6846220 132.3810220  95.3633800 112.2083700 131.8872870  94.7323970
 112.2705640 132.5160580  96.1081370 111.8635940 132.4650090  98.8853350
 110.9138650 132.4313630  98.9998340 112.0448950 133.3750200  98.6503120
  97.3654540 126.7691100  87.0354630  98.0882670 127.3100040  87.3535850
  97.6379060 126.4954520  86.1596170 111.1746190 131.6383570  91.3026210
 111.6705310 131.4054440  92.0875090 110.9762260 130.7995410  90.8863850
  97.0546730 126.0197290  96.9377250  97.7022920 125.4694670  96.4972410
  97.4748570 126.2740440  97.7593060 112.6033350 130.2744520  93.8363890
 112.4932630 130.1200560  94.7746160 113.3640940 129.7465460  93.5939300
 110.9499070 126.2138650 100.2946890 111.5871290 126.8272790 100.6606080
 111.0973960 126.2499310  99.3496120 113.4923620 128.1052440  87.0770030
 114.4172930 127.9733620  86.8688320 113.4699410 128.1845260  88.0306480
 113.5662110 128.8763100  89.7026740 112.7713610 128.8108220  90.2319650
 113.7705390 129.8113740  89.6912090 110.5080530 142.9154650  93.6965130
 111.1039600 142.5939220  93.0199550 110.7658680 142.4426470  94.4878400
  96.8078730 126.1752960  99.6802570  96.4593550 126.6316780 100.4460750
  96.4766430 125.2810090  99.7625000  98.4143100 139.3472560 103.8455760
  98.3712730 138.9765470 104.7270220  98.5454110 140.2850130 103.9857580
 102.1149130 140.9032150  99.4465480 101.8740490 141.1706710  98.5596000
 103.0551770 141.0737880  99.5016340 104.3203550 127.3664840 103.2021990
 104.2592440 127.9586670 103.9517400 105.2603930 127.2590800 103.0572250
 106.9578110 127.0234900 102.8414280 107.5718520 127.3414190 102.1795360
 107.5027670 126.5383490 103.4610140 113.3753290 142.9226530 100.2476120
 112.8811570 143.3195400  99.5303250 112.7666580 142.2975740 100.6413400
  97.4799370 125.7029160 102.9553340  98.0282360 125.5217210 102.1919450
  97.5454680 124.9123270 103.4909650  98.2531130 142.2934810 100.9653540
  97.6591450 142.1619510 101.7043580  98.2454970 141.4572950 100.4995640
 111.0592740 143.5649950  97.5262860 110.5995710 144.3165760  97.1520880
 110.4305200 142.8456420  97.4677660  97.8843360 139.6593190  99.9161580
  97.1577420 139.0398480  99.8487530  97.9452510 140.0533800  99.0459660
 101.4888460 141.8738190  96.7010990 102.0053480 141.2625550  96.1759250
 102.1385840 142.3766970  97.1922000 104.2283960 142.7646680  97.5279970
 104.5161770 142.5100980  96.6512980 104.7407180 142.2124040  98.1185540
 109.9982040 127.2059980  96.1525570 110.4390130 127.1505080  95.3047170
 109.7289630 128.1217990  96.2235750 111.8620610 126.8375220  94.1634390
 111.8009010 125.8936440  94.0165410 112.6412640 126.9455310  94.7087850
  96.1673360 142.9767580  93.1258340  95.9995400 142.3438260  93.8240230
  95.3007870 143.1826980  92.7752530 107.8340170 125.5866080  94.8575580
 108.4369540 126.1586290  95.3324100 107.0933160 126.1505520  94.6349480
 110.9774770 125.9887640  90.1315860 111.1725400 126.8871090  90.3983290
 110.1904640 125.7574720  90.6248810  97.7736060 141.6700810  90.5708480
  97.2483680 142.0508840  89.8670440  97.6980640 142.2951580  91.2918190
  99.1626530 127.3348410  89.1692170  99.6919290 126.5478210  89.0400120
  99.7954850 128.0139600  89.4027700 101.3564370 127.0723550  92.2237560
 100.7267110 126.3710860  92.3907690 100.8169510 127.8327680  92.0070720
 104.2956320 143.6862780 104.8948170 105.2223630 143.4507050 104.9384130
 104.2806750 144.5134780 104.4134200 112.5301380 143.2288350  91.8922420
 112.7053570 142.5426090  91.2483340 111.8322950 143.7535400  91.4999090
 101.4819930 126.3507530 104.6590050 101.2004200 126.8541130 103.8950870
 101.8639630 125.5529280 104.2932180 100.3729030 143.6183190  89.4457730
 101.1047850 143.3342470  88.8981620 100.6322700 143.3796470  90.3357110
  99.5343820 139.7347920  89.4504060  98.9052700 140.2033020  89.9989890
  99.6491650 138.8897140  89.8850250 108.0835390 125.7661110 105.2370520
 107.9700840 126.0855720 106.1322040 108.9005130 126.1673620 104.9407800
 110.8633880 142.9132640 104.7189210 111.6559200 142.4181870 104.5115170
 111.1567030 143.5922780 105.3264820  99.1377410 135.8752410  78.3590290
  98.3062290 135.6201120  78.7586800  99.7458390 135.9463180  79.0948210
 109.1419010 139.9692790  76.2613660 108.6800540 139.1980030  76.5900830
 109.9544560 139.9958860  76.7666110  99.1178670 139.9092500  78.5548310
  99.4206710 139.0190240  78.3758530  99.8622260 140.4662720  78.3270560
  97.5469360 130.8354300  72.1432680  96.6586060 131.1770270  72.0412560
  97.8310550 130.6354620  71.2513510 105.3682320 142.2550800  75.8817650
 104.7493760 142.7108300  75.3112090 106.2234100 142.4102260  75.4807350
 105.5925740 131.0460170  77.7153620 105.9690560 130.1732050  77.6027290
 105.4945250 131.3818870  76.8244060  99.7230750 129.4185800  73.1771060
  99.8297500 130.3189530  73.4839820  98.8123110 129.3703770  72.8865710
 109.3749860 128.5410610  74.6481960 110.1959480 128.0507180  74.6907440
 109.4083940 129.1308270  75.4013800 113.6649410 130.5577360  81.2125590
 112.9601580 130.9459070  80.6940700 113.9307330 131.2527650  81.8146520
 101.0977430 136.6665910  79.9533160 100.7646810 137.2934830  80.5954230
 101.2744110 137.1927790  79.1734830 111.2274120 140.0986120  79.6836980
 110.5437640 140.7685230  79.6753650 111.7668410 140.2966770  78.9181840
 103.2117800 126.2262960  76.1074700 103.5192780 125.6709850  75.3910200
 102.2818500 126.3607420  75.9247690 108.7632860 141.9430250  78.3982160
 108.7760020 141.5392540  77.5304420 108.2108080 142.7177540  78.2943590
 110.0578280 138.6646470  73.4872330 109.9474610 137.7220800  73.6121750
 110.0546530 139.0262110  74.3735090 105.5867640 130.5628790  69.8401980
 104.6471310 130.7242750  69.9254440 105.9050900 131.2814470  69.2937970
 112.1080400 135.2447310  79.8181010 111.2799030 135.3140400  79.3431140
 112.7030880 135.8301620  79.3496840 109.6295850 135.8532090  73.3470070
 109.0108270 135.5151640  72.6996370 109.6120300 135.2091850  74.0549260
 109.0722410 132.0316630  80.7635880 108.6593590 132.8570340  81.0175870
 108.3398360 131.4461670  80.5712240 101.6736900 138.5044090  77.7893760
 101.3765190 137.8989560  77.1101540 102.6236720 138.5421400  77.6783120
 109.7622510 142.0775960  81.4516860 109.2853070 142.8848150  81.2589470
 109.0784300 141.4254290  81.6043070 105.9155930 140.0314970  74.3224060
 106.3551840 140.7739300  73.9079450 105.8542820 140.2741540  75.2463020
 101.3906900 141.0560800  85.2244080 101.3622330 141.4603750  84.3572510
 101.2271870 140.1271160  85.0615680 111.3877690 126.3461710  68.6683860
 111.0750350 126.4388540  69.5682930 112.1490160 126.9242740  68.6181290
  97.9059830 133.7121510  73.1261200  97.7857430 134.4383600  72.5142470
  97.5960720 132.9424420  72.6489110 113.3421720 141.8387900  86.5208250
 113.8181440 142.3170790  87.1997330 113.9628880 141.7705390  85.7953750
  95.5445200 136.8836650  78.9329840  95.6225620 137.0185420  77.9885560
  96.1586880 136.1752540  79.1257960  96.7892830 138.5836840  75.3436020
  96.3820910 138.7251430  74.4889620  97.6805840 138.2997000  75.1407230
 112.7454970 139.0300750  83.6808260 112.8718030 138.7912630  82.7625440
 112.7876350 138.1985290  84.1530340 106.6071710 142.7328750  82.2503070
 107.1216380 142.6436760  83.0525500 105.7640790 143.0788450  82.5430980
 108.5826110 143.0184090  71.6787070 108.4227250 142.7287030  72.5768900
 108.4172820 142.2424220  71.1432300 101.0614490 142.7982620  73.4558690
 100.8856970 141.8818160  73.2426490 100.2070230 143.1569910  73.6956490
 108.2852240 140.5271650  70.2385070 107.5917400 140.5248940  69.5787350
 109.0275100 140.1030970  69.8079240 107.8502170 142.1534360  74.3133560
 108.3059120 141.3723740  74.6272180 108.1894690 142.8641180  74.8574740
 112.5978980 131.0833210  84.6458000 111.9823250 131.5912880  84.1173460
 112.2775400 130.1831540  84.5883940  95.6004720 137.9250820  81.4724300
  95.7635760 137.4556180  80.6543670  96.0657170 137.4174380  82.1373140
 100.3723490 127.0556580  76.5084870  99.9291640 127.8366120  76.1769390
 100.9308480 127.3786470  77.2155810 109.6597810 131.1434050  83.2416850
 108.8091400 130.8439800  83.5625920 109.4999600 131.3876060  82.3300670
 106.7547520 132.6435800  85.3415640 107.0800930 131.8099550  85.0017870
 107.5427850 133.1664320  85.4893970 103.4882310 126.6767280  71.3890700
 102.8636490 126.6727150  72.1144010 103.4012430 125.8098240  70.9926670
 106.0000340 130.8217060  74.8660050 106.3929910 131.1389260  74.0528740
 106.3617190 129.9428940  74.9804570  97.7347460 129.4889400  83.0560170
  97.3410850 130.3364610  83.2632950  97.0465860 128.8515770  83.2468810
  95.0364510 127.4117860  77.0890250  94.7477560 127.9820720  77.8015230
  95.7810270 126.9322310  77.4521480  95.2234740 131.3537980  68.2992970
  95.1409410 132.2968740  68.4407960  94.8717800 131.2112890  67.4205320
 103.0232870 130.0877010  77.3663320 103.0268930 129.6466960  76.5167860
 103.9183990 130.4094340  77.4735140  98.8735250 129.9703500  76.3257530
  98.5335300 130.4478730  77.0824580  98.1112570 129.5168620  75.9658630
 103.0853020 131.0889090  70.3570080 103.2065840 131.0475570  71.3055900
 102.7001530 131.9513240  70.2016810 107.0481390 128.8656490  78.3733770
 107.0654130 129.3165140  79.2175620 106.7996970 127.9662130  78.5867210
 110.4752140 126.2788670  84.2120150 110.7997910 125.5478330  84.7378130
 110.5108650 125.9602310  83.3101140  96.1881330 128.8922480  75.2422200
  95.9028250 128.5278150  76.0800820  96.1260190 128.1602940  74.6285340
 105.8619920 127.7851740  71.9635570 105.0484530 127.2864910  71.8880880
 105.6681870 128.6249990  71.5471920 105.7828780 136.4622840  83.7075180
 105.7166090 135.5418510  83.4532770 105.1533920 136.5598280  84.4219820
 108.5768310 132.1571390  70.2597730 109.4647930 132.4688620  70.0849070
 108.5473400 131.2843640  69.8678310  99.6859400 137.0628800  75.6658600
 100.2038070 136.2597060  75.6115490  99.2343420 137.0007940  76.5075430
 105.7145510 139.2843410  83.4578980 105.7290050 138.3524370  83.2397890
 105.0070610 139.3703170  84.0968750 110.8482580 133.4683230  69.7277590
 110.7646300 133.8997450  68.8774030 111.5676770 133.9281580  70.1604410
 111.9256720 135.9250750  82.8047560 111.2004910 136.5179530  82.6076950
 112.4532180 135.9174290  82.0060930 111.8769830 140.3225490  72.4559720
 111.2345990 139.6681110  72.7303440 111.4900490 140.7280580  71.6800390
  95.6811990 134.0281430  69.2018900  96.5506840 134.3106230  69.4854820
  95.1902310 134.8417300  69.0867710 105.1479410 140.9260980  80.5519480
 105.7921630 141.1320360  81.2292900 105.5108850 140.1649380  80.0990330
  98.7458580 125.7592290  73.7949700  98.6173210 125.7510190  74.7434620
  97.9220600 126.0975380  73.4440710 110.2667210 139.2141950  68.9936070
 110.0404790 138.4972390  69.5860710 109.8763410 138.9654390  68.1557820
 108.1949110 139.7288230  82.4732990 108.5305350 140.3154920  83.1510910
 107.2749450 139.5980940  82.7030780  96.0483240 143.2408810  69.7680530
  96.4080880 143.8398150  69.1137800  95.9075580 143.7868700  70.5415560
  95.7452510 127.5183410  83.2556400  95.0311030 127.7180330  83.8609010
  96.1647550 126.7422980  83.6271200 109.8483460 137.1313890  70.6550230
 109.5605160 137.5926580  71.4428110 110.6435630 136.6711660  70.9234450
  96.0325100 141.5063670  84.2422930  96.1416220 140.5658410  84.1018320
  95.3805660 141.7718420  83.5936660 104.0237690 139.7779560  85.6421050
 103.7034560 139.0588800  86.1866740 103.3496050 140.4534630  85.7157110
 102.0651860 140.6240010  70.5854200 102.0561960 141.3569700  69.9698710
 101.1450220 140.3771590  70.6781160 107.2391290 130.0105720  81.0057850
 107.6072110 129.1900930  81.3337420 106.3789490 130.0707610  81.4213500
 110.6053320 128.9662660  71.8145410 109.9766480 129.0708330  71.1003640
 110.1105240 129.1859440  72.6039290 105.0511460 140.6868250  69.2479390
 105.1523440 140.4832240  68.3181370 104.1513200 140.4326530  69.4527170
 106.6052780 127.9699270  74.6699080 106.4820560 127.9885400  73.7208590
 107.5537340 128.0178210  74.7897480 103.6929570 143.2054570  73.9427060
 103.9471070 143.1675960  73.0206430 102.7442050 143.0787900  73.9355310
 100.7772370 129.5533690  70.6054000 101.6262900 129.9903840  70.5394190
 100.4103640 129.8653950  71.4326060 111.4060140 128.8813270  82.0724210
 110.9033740 129.6218670  82.4118020 112.2216800 129.2697270  81.7561000
  99.6763790 135.8066050  69.0789530 100.4427060 135.6947410  69.6414960
  99.7538480 135.1104020  68.4266300  98.3710550 133.2391120  69.7622420
  98.4514140 132.2918630  69.8739820  99.2630300 133.5698000  69.8683080
 111.7007730 141.2955300  77.1939830 111.8255150 142.1186470  77.6663640
 112.5673290 141.0846030  76.8463980  99.1725260 143.3886510  76.8656960
  99.9087740 142.8401970  77.1365530  99.5566180 144.2542520  76.7262950
  96.0570740 139.4560080  72.7398470  95.1310520 139.6981220  72.7303880
  96.5227170 140.2834340  72.6183220  98.1783540 142.5732580  86.0542540
  98.9796270 142.8944630  86.4677940  97.6635360 142.2128160  86.7762450
 102.2827570 142.5616820  68.6882530 103.0756180 142.8505650  68.2364320
 101.7631920 142.1308990  68.0095010 107.0148170 138.6812450  86.0017950
 106.4086330 138.7044050  85.2613700 106.7102280 137.9495490  86.5385200
 108.4448540 142.4092740  84.6127360 109.3970290 142.3250760  84.5627600
 108.2976760 143.0734450  85.2861150 111.3357740 141.7886950  70.1119270
 111.0499250 141.3752090  69.2973450 111.1377290 142.7174660  69.9919790
 102.8004970 137.7820230  68.5524880 102.6955610 137.1672580  69.2786260
 102.6329190 137.2586120  67.7687890 106.0407700 136.8440260  69.1566870
 105.4917800 137.2909560  69.8009610 106.6626960 136.3389510  69.6804540
 110.0942640 138.1982360  85.0889130 110.8352110 138.5358120  84.5856590
 109.3315320 138.3674420  84.5358900 104.2210460 134.8268790  68.3009270
 104.7416120 134.1117810  67.9350420 104.8678860 135.4654660  68.6009780
 108.7688300 136.2497190  83.6244340 109.1829320 136.4042270  84.4734760
 107.8339300 136.3752410  83.7870120 109.2410470 133.5893350  85.6283490
 109.8231240 132.8345670  85.5403970 109.4172240 134.1200790  84.8514970
 105.8667430 133.9333850  82.9778110 105.9863640 133.3374990  83.7172950
 106.7261430 133.9703540  82.5579410 108.2055330 134.4871040  81.5540620
 107.6790550 135.0113660  80.9505760 108.5486670 135.1198430  82.1850350
 100.6041720 131.8764410  67.9990330 100.4030780 131.0131770  68.3603670
 100.4333770 131.7897770  67.0611930 101.3810950 142.5070680  82.7098000
 100.8432040 143.2316740  82.3906700 101.6344910 142.0301020  81.9195340
 107.4529630 130.0921010  84.4686950 106.7645150 129.4302550  84.4036940
 108.1735650 129.6459280  84.9135410 108.0830030 126.6872640  70.5277210
 108.3632320 125.8440540  70.8836630 107.3095760 126.9195750  71.0415960
  99.4024520 128.9765030  67.9868210  99.7050420 128.9832460  67.0787360
 100.1419110 128.6262890  68.4835870 104.2373160 143.7421890  82.9684650
 104.1631860 144.6457030  83.2757020 103.3352000 143.4233790  82.9406720
 102.6209450 127.9199650  68.9724410 102.2731450 127.2423640  68.3926860
 102.8222220 127.4589160  69.7867800 104.7858490 142.9080400  70.5911010
 105.6809280 143.2465370  70.6129770 104.8176120 142.1859810  69.9635290
  95.6400450 141.0696480  76.2718270  95.9703460 140.2017540  76.0396910
  96.0691450 141.2755000  77.1023230 100.2362370 139.4005490  73.9320240
  99.9357910 139.2770460  74.8324150 100.1299860 138.5414080  73.5235970
  96.1290660 141.9367070  79.0099900  95.6921650 142.1167870  79.8424050
  96.6968340 142.6941690  78.8681620 111.7652840 141.4384070  83.2977210
 111.1654830 141.4976630  82.5541130 111.8946740 140.4989050  83.4274060
 113.0054290 139.1801890  68.6346920 112.1747250 139.2478540  69.1054150
 113.1826120 140.0706010  68.3313780 112.4610750 135.9249370  71.1381120
 113.2229660 136.4946020  71.2440810 112.4765120 135.3576570  71.9089430
  95.9615090 134.4487300  75.3688780  95.3063930 134.1798940  74.7248480
  96.7993040 134.3391780  74.9190760 113.4670720 136.7799470  75.9823050
 113.8379550 135.9966790  75.5759020 114.1072650 137.4688570  75.8040350
 110.4504480 138.1636050  81.3953370 109.6364320 138.5933210  81.6579160
 110.8578680 138.7754460  80.7822420 112.5129920 136.2183740  68.2953640
 112.7878760 137.1262620  68.1672860 112.3240660 136.1546270  69.2315630
 108.9105530 129.2428590  69.5907270 109.3290410 129.0559570  68.7503930
 108.6041590 128.3907640  69.9010200 112.4095260 134.1552730  73.2883070
 112.0338860 133.3880660  72.8564360 111.6798380 134.5375430  73.7758000
 111.7994880 133.3024250  82.9222590 111.5680970 133.0737000  82.0220540
 112.0599430 134.2223800  82.8767480 110.2382950 128.5280680  85.7002290
 111.1153130 128.5364080  86.0836290 110.2503790 127.7911520  85.0894640
  95.1753170 131.6586230  71.3114110  94.2717250 131.9216430  71.1365770
  95.6593790 131.9297400  70.5314070 111.6846220 132.3810220  76.5890310
 112.2083700 131.8872870  75.9580480 112.2705640 132.5160580  77.3337880
 111.8635940 132.4650090  80.1109860 110.9138650 132.4313630  80.2254850
 112.0448950 133.3750200  79.8759630  97.7180380 130.7151770  69.2208490
  98.4272080 130.2934990  68.7355770  97.0020320 130.7827000  68.5891840
 111.1746190 131.6383570  72.5282720 111.6705310 131.4054440  73.3131600
 110.9762260 130.7995410  72.1120360  97.0546730 126.0197290  78.1633760
  97.7022920 125.4694670  77.7228920  97.4748570 126.2740440  78.9849570
 110.9499070 126.2138650  81.5203400 111.5871290 126.8272790  81.8862590
 111.0973960 126.2499310  80.5752630 113.4923620 128.1052440  68.3026540
 114.4172930 127.9733620  68.0944830 113.4699410 128.1845260  69.2562990
 113.5662110 128.8763100  70.9283250 112.7713610 128.8108220  71.4576160
 113.7705390 129.8113740  70.9168600 110.5080530 142.9154650  74.9221640
 111.1039600 142.5939220  74.2456060 110.7658680 142.4426470  75.7134910
  96.8078730 126.1752960  80.9059080  96.4593550 126.6316780  81.6717260
  96.4766430 125.2810090  80.9881510 102.1149130 140.9032150  80.6721990
 101.8740490 141.1706710  79.7852510 103.0551770 141.0737880  80.7272850
 113.3753290 142.9226530  81.4732630 112.8811570 143.3195400  80.7559760
 112.7666580 142.2975740  81.8669910  97.4799370 125.7029160  84.1809850
  98.0282360 125.5217210  83.4175960  97.5454680 124.9123270  84.7166160
  98.2531130 142.2934810  82.1910050  97.6591450 142.1619510  82.9300090
  98.2454970 141.4572950  81.7252150 111.0592740 143.5649950  78.7519370
 110.5995710 144.3165760  78.3777390 110.4305200 142.8456420  78.6934170
  97.8843360 139.6593190  81.1418090  97.1577420 139.0398480  81.0744040
  97.9452510 140.0533800  80.2716170 101.4888460 141.8738190  77.9267500
 102.0053480 141.2625550  77.4015760 102.1385840 142.3766970  78.4178510
 104.2283960 142.7646680  78.7536480 104.5161770 142.5100980  77.8769490
 104.7407180 142.2124040  79.3442050 109.9982040 127.2059980  77.3782080
 110.4390130 127.1505080  76.5303680 109.7289630 128.1217990  77.4492260
  96.1673360 142.9767580  74.3514850  95.9995400 142.3438260  75.0496740
  95.3007870 143.1826980  74.0009040  96.7901380 126.8084360  71.8546710
  97.5480740 126.9213240  71.2810740  96.3278550 127.6453560  71.8090140
 103.3315190 128.9223630  74.8449020 102.5189700 128.5480520  74.5044900
 103.8356830 128.1668710  75.1470210 107.8340170 125.5866080  76.0832090
 108.4369540 126.1586290  76.5580610 107.0933160 126.1505520  75.8605990
 110.9774770 125.9887640  71.3572370 111.1725400 126.8871090  71.6239800
 110.1904640 125.7574720  71.8505320  97.7736060 141.6700810  71.7964990
  97.2483680 142.0508840  71.0926950  97.6980640 142.2951580  72.5174700
 101.3564370 127.0723550  73.4494070 100.7267110 126.3710860  73.6164200
 100.8169510 127.8327680  73.2327230 104.2956320 143.6862780  86.1204680
 105.2223630 143.4507050  86.1640640 104.2806750 144.5134780  85.6390710
 112.5301380 143.2288350  73.1178930 112.7053570 142.5426090  72.4739850
 111.8322950 143.7535400  72.7255600 100.3729030 143.6183190  70.6714240
 101.1047850 143.3342470  70.1238130 100.6322700 143.3796470  71.5613620
  99.5343820 139.7347920  70.6760570  98.9052700 140.2033020  71.2246400
  99.6491650 138.8897140  71.1106760 108.0835390 125.7661110  86.4627030
 107.9700840 126.0855720  87.3578550 108.9005130 126.1673620  86.1664310
 110.8633880 142.9132640  85.9445720 111.6559200 142.4181870  85.7371680
 111.1567030 143.5922780  86.5521330 106.9893540 133.7853580  56.8261770
 106.9087590 132.8708190  56.5553480 106.5757960 134.2820650  56.1201480
 105.1211580 135.5632600  58.7071040 104.3453680 135.0833040  58.9969610
 105.7724510 134.8838250  58.5327200 109.1419010 139.9692790  57.4870170
 108.6800540 139.1980030  57.8157340 109.9544560 139.9958860  57.9922620
  99.1178670 139.9092500  59.7804820  99.4206710 139.0190240  59.6015040
  99.8622260 140.4662720  59.5527070  97.5469360 130.8354300  53.3689190
  96.6586060 131.1770270  53.2669070  97.8310550 130.6354620  52.4770020
  95.5102370 133.4359950  59.2528890  96.0818480 132.6682150  59.2532530
  95.5103910 133.7348710  58.3435500 105.3682320 142.2550800  57.1074160
 104.7493760 142.7108300  56.5368600 106.2234100 142.4102260  56.7063860
 104.5620570 138.2389790  58.7141200 104.4928850 137.2979730  58.5530330
 105.3240430 138.3291200  59.2863770 105.5925740 131.0460170  58.9410130
 105.9690560 130.1732050  58.8283800 105.4945250 131.3818870  58.0500570
 109.3749860 128.5410610  55.8738470 110.1959480 128.0507180  55.9163950
 109.4083940 129.1308270  56.6270310 113.6649410 130.5577360  62.4382100
 112.9601580 130.9459070  61.9197210 113.9307330 131.2527650  63.0403030
 106.2345670 137.1390040  54.5006070 105.6162940 137.6039490  53.9368790
 106.7468920 137.8317520  54.9175580 109.6111340 130.4810990  58.6466010
 108.9066910 130.7695880  59.2269120 109.9723500 131.2911100  58.2865570
 100.3096530 138.6346710  62.9938850 100.9270530 139.3097790  62.7123300
  99.4489650 139.0434690  62.9026350  95.6028870 137.8246570  51.8745700
  95.2256850 138.3133670  51.1430600  95.8601940 138.4971850  52.5052230
 111.2274120 140.0986120  60.9093490 110.5437640 140.7685230  60.9010160
 111.7668410 140.2966770  60.1438350 112.6798260 129.9265780  59.0375220
 111.7323170 129.9604760  59.1690650 113.0048250 130.7404730  59.4224580
 108.7632860 141.9430250  59.6238670 108.7760020 141.5392540  58.7560930
 108.2108080 142.7177540  59.5200100 110.0578280 138.6646470  54.7128840
 109.9474610 137.7220800  54.8378260 110.0546530 139.0262110  55.5991600
 108.1618300 136.8460090  60.9521280 108.5787090 136.6320200  60.1174740
 108.8858120 137.1032880  61.5229900 105.5998560 134.2911790  54.0691330
 104.6727840 134.2249170  54.2979800 105.7523380 135.2291920  53.9546570
 105.5867640 130.5628790  51.0658490 104.6471310 130.7242750  51.1510950
 105.9050900 131.2814470  50.5194480 112.1080400 135.2447310  61.0437520
 111.2799030 135.3140400  60.5687650 112.7030880 135.8301620  60.5753350
 109.6295850 135.8532090  54.5726580 109.0108270 135.5151640  53.9252880
 109.6120300 135.2091850  55.2805770 109.0722410 132.0316630  61.9892390
 108.6593590 132.8570340  62.2432380 108.3398360 131.4461670  61.7968750
 101.6736900 138.5044090  59.0150270 101.3765190 137.8989560  58.3358050
 102.6236720 138.5421400  58.9039630 109.7622510 142.0775960  62.6773370
 109.2853070 142.8848150  62.4845980 109.0784300 141.4254290  62.8299580
 100.7655330 138.2425780  65.6658070  99.8683860 138.4665750  65.9131470
 100.7908200 138.3660720  64.7169470 107.8060550 135.0918900  51.5799330
 108.2453830 134.2541330  51.4337150 108.5188970 135.7248300  51.6663470
 105.9155930 140.0314970  55.5480570 106.3551840 140.7739300  55.1335960
 105.8542820 140.2741540  56.4719530 101.3906900 141.0560800  66.4500590
 101.3622330 141.4603750  65.5829020 101.2271870 140.1271160  66.2872190
 113.3421720 141.8387900  67.7464760 113.8181440 142.3170790  68.4253840
 113.9628880 141.7705390  67.0210260 112.7454970 139.0300750  64.9064770
 112.8718030 138.7912630  63.9881950 112.7876350 138.1985290  65.3786850
 106.6071710 142.7328750  63.4759580 107.1216380 142.6436760  64.2782010
 105.7640790 143.0788450  63.7687490 108.5826110 143.0184090  52.9043580
 108.4227250 142.7287030  53.8025410 108.4172820 142.2424220  52.3688810
 101.0614490 142.7982620  54.6815200 100.8856970 141.8818160  54.4683000
 100.2070230 143.1569910  54.9213000 108.2852240 140.5271650  51.4641580
 107.5917400 140.5248940  50.8043860 109.0275100 140.1030970  51.0335750
 107.8502170 142.1534360  55.5390070 108.3059120 141.3723740  55.8528690
 108.1894690 142.8641180  56.0831250 112.5978980 131.0833210  65.8714510
 111.9823250 131.5912880  65.3429970 112.2775400 130.1831540  65.8140450
  95.6004720 137.9250820  62.6980810  95.7635760 137.4556180  61.8800180
  96.0657170 137.4174380  63.3629650 104.6593300 129.9225100  63.3376700
 104.1972670 130.1308120  64.1496640 104.2571410 129.1084450  63.0347370
 109.6597810 131.1434050  64.4673360 108.8091400 130.8439800  64.7882430
 109.4999600 131.3876060  63.5557180 106.7547520 132.6435800  66.5672150
 107.0800930 131.8099550  66.2274380 107.5427850 133.1664320  66.7150480
 107.3935470 132.1853520  54.0613280 106.7944360 132.9089320  53.8776900
 107.9415080 132.1230300  53.2789730 102.6036920 133.0775730  66.1282900
 102.5080520 132.1370460  65.9783300 103.4468900 133.2990800  65.7330970
 106.0000340 130.8217060  56.0916560 106.3929910 131.1389260  55.2785250
 106.3617190 129.9428940  56.2061080 104.3092510 129.5724370  67.3513420
 103.6190830 129.3796570  67.9859510 105.0524810 129.8559010  67.8837720
  95.0364510 127.4117860  58.3146760  94.7477560 127.9820720  59.0271740
  95.7810270 126.9322310  58.6777990 106.5855480 133.4122810  60.1867340
 105.8536600 133.9209620  60.5357440 106.1879820 132.5952790  59.8856120
 107.0481390 128.8656490  59.5990280 107.0654130 129.3165140  60.4432130
 106.7996970 127.9662130  59.8123720 110.4752140 126.2788670  65.4376660
 110.7997910 125.5478330  65.9634640 110.5108650 125.9602310  64.5357650
  97.1743700 137.3002250  64.8576620  96.7898490 136.6595920  65.4559580
  97.4855890 138.0038370  65.4271350 103.3240840 134.1478790  60.3385240
 103.6910970 133.6737360  61.0846580 103.1345900 135.0220360  60.6793580
  99.6422000 137.3948420  53.2536300  98.8684260 136.8546040  53.0935020
 100.3716630 136.8755030  52.9154060 110.4009980 136.3913780  59.0462690
 111.1209100 136.8869070  58.6558800 110.1991800 135.7131670  58.4016560
 105.8619920 127.7851740  53.1892080 105.0484530 127.2864910  53.1137390
 105.6681870 128.6249990  52.7728430 105.7828780 136.4622840  64.9331690
 105.7166090 135.5418510  64.6789280 105.1533920 136.5598280  65.6476330
 108.5768310 132.1571390  51.4854240 109.4647930 132.4688620  51.3105580
 108.5473400 131.2843640  51.0934820 104.5728900 138.3295080  52.1642410
 104.9144600 139.0737310  51.6685730 103.7441610 138.6426200  52.5267240
 100.3717060 134.4874410  66.6880360 100.0717200 134.6331590  65.7908180
 101.1428300 133.9279700  66.5953750 105.7145510 139.2843410  64.6835490
 105.7290050 138.3524370  64.4654400 105.0070610 139.3703170  65.3225260
 110.8482580 133.4683230  50.9534100 110.7646300 133.8997450  50.1030540
 111.5676770 133.9281580  51.3860920 111.9256720 135.9250750  64.0304070
 111.2004910 136.5179530  63.8333460 112.4532180 135.9174290  63.2317440
 111.8769830 140.3225490  53.6816230 111.2345990 139.6681110  53.9559950
 111.4900490 140.7280580  52.9056900 107.4556310 137.6510920  57.5287920
 107.8080130 137.0539050  56.8689290 106.5718640 137.3255150  57.6996170
 103.5419590 138.4108610  54.9358330 104.2290720 138.9577820  55.3165920
 102.7552010 138.9549340  54.9707940 102.8446800 135.4154640  54.5483690
 103.3009580 136.2259890  54.7743880 102.4935010 135.0977780  55.3802180
 105.1479410 140.9260980  61.7775990 105.7921630 141.1320360  62.4549410
 105.5108850 140.1649380  61.3246840  98.7458580 125.7592290  55.0206210
  98.6173210 125.7510190  55.9691130  97.9220600 126.0975380  54.6697220
 106.4211490 138.9293330  60.4953440 107.0633720 138.2286490  60.6085610
 106.9460840 139.7091770  60.3150330 110.2667210 139.2141950  50.2192580
 110.0404790 138.4972390  50.8117220 109.8763410 138.9654390  49.3814330
 108.1949110 139.7288230  63.6989500 108.5305350 140.3154920  64.3767420
 107.2749450 139.5980940  63.9287290  96.0483240 143.2408810  50.9937040
  96.4080880 143.8398150  50.3394310  95.9075580 143.7868700  51.7672070
  95.7452510 127.5183410  64.4812910  95.0311030 127.7180330  65.0865520
  96.1647550 126.7422980  64.8527710 109.8483460 137.1313890  51.8806740
 109.5605160 137.5926580  52.6684620 110.6435630 136.6711660  52.1490960
  96.0325100 141.5063670  65.4679440  96.1416220 140.5658410  65.3274830
  95.3805660 141.7718420  64.8193170 104.0237690 139.7779560  66.8677560
 103.7034560 139.0588800  67.4123250 103.3496050 140.4534630  66.9413620
 102.0651860 140.6240010  51.8110710 102.0561960 141.3569700  51.1955220
 101.1450220 140.3771590  51.9037670  97.6658500 135.8454900  52.5557470
  97.0586450 136.5853800  52.5652770  98.1407850 135.9354260  51.7295670
 107.2391290 130.0105720  62.2314360 107.6072110 129.1900930  62.5593930
 106.3789490 130.0707610  62.6470010 110.6053320 128.9662660  53.0401920
 109.9766480 129.0708330  52.3260150 110.1105240 129.1859440  53.8295800
 105.0511460 140.6868250  50.4735900 105.1523440 140.4832240  49.5437880
 104.1513200 140.4326530  50.6783680 104.1993280 132.6645310  62.4552330
 104.6978530 133.1391130  63.1204180 104.3416230 131.7408830  62.6622360
 106.6052780 127.9699270  55.8955590 106.4820560 127.9885400  54.9465100
 107.5537340 128.0178210  56.0153990 103.6929570 143.2054570  55.1683570
 103.9471070 143.1675960  54.2462940 102.7442050 143.0787900  55.1611820
 111.4060140 128.8813270  63.2980720 110.9033740 129.6218670  63.6374530
 112.2216800 129.2697270  62.9817510 109.6982150 134.1246450  56.7442080
 108.7572290 134.1396680  56.9189770 110.0126220 133.3382410  57.1902380
  99.6763790 135.8066050  50.3046040 100.4427060 135.6947410  50.8671470
  99.7538480 135.1104020  49.6522810  98.3710550 133.2391120  50.9878930
  98.4514140 132.2918630  51.0996330  99.2630300 133.5698000  51.0939590
 111.7007730 141.2955300  58.4196340 111.8255150 142.1186470  58.8920150
 112.5673290 141.0846030  58.0720490  99.1725260 143.3886510  58.0913470
  99.9087740 142.8401970  58.3622040  99.5566180 144.2542520  57.9519460
  96.0570740 139.4560080  53.9654980  95.1310520 139.6981220  53.9560390
  96.5227170 140.2834340  53.8439730  98.1783540 142.5732580  67.2799050
  98.9796270 142.8944630  67.6934450  97.6635360 142.2128160  68.0018960
 102.2827570 142.5616820  49.9139040 103.0756180 142.8505650  49.4620830
 101.7631920 142.1308990  49.2351520 107.0148170 138.6812450  67.2274460
 106.4086330 138.7044050  66.4870210 106.7102280 137.9495490  67.7641710
 108.4448540 142.4092740  65.8383870 109.3970290 142.3250760  65.7884110
 108.2976760 143.0734450  66.5117660 111.3357740 141.7886950  51.3375780
 111.0499250 141.3752090  50.5229960 111.1377290 142.7174660  51.2176300
  95.8981350 135.0606040  66.2235100  96.4020370 134.4813320  66.7951330
  95.1588770 135.3446270  66.7611470 102.8004970 137.7820230  49.7781390
 102.6955610 137.1672580  50.5042770 102.6329190 137.2586120  48.9944400
 102.9519290 136.4677030  65.7570620 102.1864960 137.0362030  65.6725290
 103.1335250 136.1753240  64.8638850 106.0407700 136.8440260  50.3823380
 105.4917800 137.2909560  51.0266120 106.6626960 136.3389510  50.9061050
 110.0942640 138.1982360  66.3145640 110.8352110 138.5358120  65.8113100
 109.3315320 138.3674420  65.7615410  97.9304430 133.2035630  67.1185170
  97.9709770 132.9049500  68.0270400  98.7849930 133.6043240  66.9592690
 101.7082820 135.8031180  52.2788680 102.1299240 135.6371050  53.1220070
 101.8333660 134.9931410  51.7843820  99.8710240 131.7827730  65.0859660
  99.3406700 131.2918680  64.4583000 100.5398310 132.2111930  64.5517590
 104.2210460 134.8268790  49.5265780 104.7416120 134.1117810  49.1606930
 104.8678860 135.4654660  49.8266290 108.7688300 136.2497190  64.8500850
 109.1829320 136.4042270  65.6991270 107.8339300 136.3752410  65.0126630
 109.2410470 133.5893350  66.8540000 109.8231240 132.8345670  66.7660480
 109.4172240 134.1200790  66.0771480 100.3582540 128.7490100  65.1656950
 100.2639410 128.1310850  64.4407820  99.7779930 129.4756390  64.9386860
 103.5303530 136.2017670  62.8196780 103.9491640 137.0450400  62.6473020
 102.6112160 136.3389710  62.5903560 105.8667430 133.9333850  64.2034620
 105.9863640 133.3374990  64.9429460 106.7261430 133.9703540  63.7835920
 108.2055330 134.4871040  62.7797130 107.6790550 135.0113660  62.1762270
 108.5486670 135.1198430  63.4106860 100.6041720 131.8764410  49.2246840
 100.4030780 131.0131770  49.5860180 100.4333770 131.7897770  48.2868440
 101.3810950 142.5070680  63.9354510 100.8432040 143.2316740  63.6163210
 101.6344910 142.0301020  63.1451850 102.6336200 130.4755200  65.4610440
 103.2235890 130.1671050  66.1488260 101.8156440 130.0034950  65.6170340
 107.4529630 130.0921010  65.6943460 106.7645150 129.4302550  65.6293450
 108.1735650 129.6459280  66.1391920 108.0830030 126.6872640  51.7533720
 108.3632320 125.8440540  52.1093140 107.3095760 126.9195750  52.2672470
 104.2373160 143.7421890  64.1941160 104.1631860 144.6457030  64.5013530
 103.3352000 143.4233790  64.1663230 104.7858490 142.9080400  51.8167520
 105.6809280 143.2465370  51.8386280 104.8176120 142.1859810  51.1891800
  98.4254650 138.2807450  50.0454520  98.8629520 138.8237120  50.7012100
  98.9102380 137.4554400  50.0550860  95.6400450 141.0696480  57.4974780
  95.9703460 140.2017540  57.2653420  96.0691450 141.2755000  58.3279740
 100.2362370 139.4005490  55.1576750  99.9357910 139.2770460  56.0580660
 100.1299860 138.5414080  54.7492480  96.1290660 141.9367070  60.2356410
  95.6921650 142.1167870  61.0680560  96.6968340 142.6941690  60.0938130
 111.7652840 141.4384070  64.5233720 111.1654830 141.4976630  63.7797640
 111.8946740 140.4989050  64.6530570 113.0054290 139.1801890  49.8603430
 112.1747250 139.2478540  50.3310660 113.1826120 140.0706010  49.5570290
 112.4610750 135.9249370  52.3637630 113.2229660 136.4946020  52.4697320
 112.4765120 135.3576570  53.1345940 113.4670720 136.7799470  57.2079560
 113.8379550 135.9966790  56.8015530 114.1072650 137.4688570  57.0296860
 110.4504480 138.1636050  62.6209880 109.6364320 138.5933210  62.8835670
 110.8578680 138.7754460  62.0078930 112.5129920 136.2183740  49.5210150
 112.7878760 137.1262620  49.3929370 112.3240660 136.1546270  50.4572140
 108.9105530 129.2428590  50.8163780 109.3290410 129.0559570  49.9760440
 108.6041590 128.3907640  51.1266710 112.4095260 134.1552730  54.5139580
 112.0338860 133.3880660  54.0820870 111.6798380 134.5375430  55.0014510
 111.7994880 133.3024250  64.1479100 111.5680970 133.0737000  63.2477050
 112.0599430 134.2223800  64.1023990 110.2382950 128.5280680  66.9258800
 111.1153130 128.5364080  67.3092800 110.2503790 127.7911520  66.3151150
  95.1753170 131.6586230  52.5370620  94.2717250 131.9216430  52.3622280
  95.6593790 131.9297400  51.7570580 111.6846220 132.3810220  57.8146820
 112.2083700 131.8872870  57.1836990 112.2705640 132.5160580  58.5594390
 111.8635940 132.4650090  61.3366370 110.9138650 132.4313630  61.4511360
 112.0448950 133.3750200  61.1016140 111.1746190 131.6383570  53.7539230
 111.6705310 131.4054440  54.5388110 110.9762260 130.7995410  53.3376870
  97.0546730 126.0197290  59.3890270  97.7022920 125.4694670  58.9485430
  97.4748570 126.2740440  60.2106080 112.6033350 130.2744520  56.2876910
 112.4932630 130.1200560  57.2259180 113.3640940 129.7465460  56.0452320
 110.9499070 126.2138650  62.7459910 111.5871290 126.8272790  63.1119100
 111.0973960 126.2499310  61.8009140 113.4923620 128.1052440  49.5283050
 114.4172930 127.9733620  49.3201340 113.4699410 128.1845260  50.4819500
 113.5662110 128.8763100  52.1539760 112.7713610 128.8108220  52.6832670
 113.7705390 129.8113740  52.1425110 110.5080530 142.9154650  56.1478150
 111.1039600 142.5939220  55.4712570 110.7658680 142.4426470  56.9391420
  96.8078730 126.1752960  62.1315590  96.4593550 126.6316780  62.8973770
  96.4766430 125.2810090  62.2138020  98.4143100 139.3472560  66.2968780
  98.3712730 138.9765470  67.1783240  98.5454110 140.2850130  66.4370600
 102.1149130 140.9032150  61.8978500 101.8740490 141.1706710  61.0109020
 103.0551770 141.0737880  61.9529360 104.3203550 127.3664840  65.6535010
 104.2592440 127.9586670  66.4030420 105.2603930 127.2590800  65.5085270
 113.3753290 142.9226530  62.6989140 112.8811570 143.3195400  61.9816270
 112.7666580 142.2975740  63.0926420  97.4799370 125.7029160  65.4066360
  98.0282360 125.5217210  64.6432470  97.5454680 124.9123270  65.9422670
  98.2531130 142.2934810  63.4166560  97.6591450 142.1619510  64.1556600
  98.2454970 141.4572950  62.9508660 107.6986150 125.5867040  61.6196590
 106.8245990 125.9202150  61.4169520 107.5896900 125.1140220  62.4448460
 108.6058130 127.7937910  63.0038310 108.2771490 126.9789670  62.6240040
 109.5540430 127.7507720  62.8804000 111.0592740 143.5649950  59.9775880
 110.5995710 144.3165760  59.6033900 110.4305200 142.8456420  59.9190680
  97.8843360 139.6593190  62.3674600  97.1577420 139.0398480  62.3000550
  97.9452510 140.0533800  61.4972680 101.4888460 141.8738190  59.1524010
 102.0053480 141.2625550  58.6272270 102.1385840 142.3766970  59.6435020
 104.2283960 142.7646680  59.9792990 104.5161770 142.5100980  59.1026000
 104.7407180 142.2124040  60.5698560 105.4460970 126.5036880  60.5589500
 104.6632760 126.9782380  60.8386260 105.1523900 125.5991710  60.4502680
  96.1673360 142.9767580  55.5771360  95.9995400 142.3438260  56.2753250
  95.3007870 143.1826980  55.2265550  96.7901380 126.8084360  53.0803220
  97.5480740 126.9213240  52.5067250  96.3278550 127.6453560  53.0346650
 110.9774770 125.9887640  52.5828880 111.1725400 126.8871090  52.8496310
 110.1904640 125.7574720  53.0761830  97.7736060 141.6700810  53.0221500
  97.2483680 142.0508840  52.3183460  97.6980640 142.2951580  53.7431210
 101.3564370 127.0723550  54.6750580 100.7267110 126.3710860  54.8420710
 100.8169510 127.8327680  54.4583740 104.2956320 143.6862780  67.3461190
 105.2223630 143.4507050  67.3897150 104.2806750 144.5134780  66.8647220
 112.5301380 143.2288350  54.3435440 112.7053570 142.5426090  53.6996360
 111.8322950 143.7535400  53.9512110 100.3729030 143.6183190  51.8970750
 101.1047850 143.3342470  51.3494640 100.6322700 143.3796470  52.7870130
  99.5343820 139.7347920  51.9017080  98.9052700 140.2033020  52.4502910
  99.6491650 138.8897140  52.3363270 110.8633880 142.9132640  67.1702230
 111.6559200 142.4181870  66.9628190 111.1567030 143.5922780  67.7777840
 106.9893540 133.7853580  38.0518280 106.9087590 132.8708190  37.7809990
 106.5757960 134.2820650  37.3457990 105.1211580 135.5632600  39.9327550
 104.3453680 135.0833040  40.2226120 105.7724510 134.8838250  39.7583710
  99.1377410 135.8752410  40.8103310  98.3062290 135.6201120  41.2099820
  99.7458390 135.9463180  41.5461230 109.1419010 139.9692790  38.7126680
 108.6800540 139.1980030  39.0413850 109.9544560 139.9958860  39.2179130
  99.1178670 139.9092500  41.0061330  99.4206710 139.0190240  40.8271550
  99.8622260 140.4662720  40.7783580  97.5469360 130.8354300  34.5945700
  96.6586060 131.1770270  34.4925580  97.8310550 130.6354620  33.7026530
  95.5102370 133.4359950  40.4785400  96.0818480 132.6682150  40.4789040
  95.5103910 133.7348710  39.5692010 105.3682320 142.2550800  38.3330670
 104.7493760 142.7108300  37.7625110 106.2234100 142.4102260  37.9320370
 104.5620570 138.2389790  39.9397710 104.4928850 137.2979730  39.7786840
 105.3240430 138.3291200  40.5120280 105.5925740 131.0460170  40.1666640
 105.9690560 130.1732050  40.0540310 105.4945250 131.3818870  39.2757080
  99.7230750 129.4185800  35.6284080  99.8297500 130.3189530  35.9352840
  98.8123110 129.3703770  35.3378730 109.3749860 128.5410610  37.0994980
 110.1959480 128.0507180  37.1420460 109.4083940 129.1308270  37.8526820
  97.3713910 131.3404810  40.8736670  98.0524020 131.6043180  41.4924070
  97.0561960 130.5005680  41.2074680 101.5638480 132.3872170  39.9609260
 102.0716700 132.8853140  40.6014280 102.0951720 131.6107370  39.7848620
 113.6649410 130.5577360  43.6638610 112.9601580 130.9459070  43.1453720
 113.9307330 131.2527650  44.2659540 106.2345670 137.1390040  35.7262580
 105.6162940 137.6039490  35.1625300 106.7468920 137.8317520  36.1432090
 101.0977430 136.6665910  42.4046180 100.7646810 137.2934830  43.0467250
 101.2744110 137.1927790  41.6247850 109.6111340 130.4810990  39.8722520
 108.9066910 130.7695880  40.4525630 109.9723500 131.2911100  39.5122080
  99.5289910 128.7380690  42.2343130  99.8706720 129.5822740  41.9397000
  98.5905720 128.8864430  42.3508470 100.3096530 138.6346710  44.2195360
 100.9270530 139.3097790  43.9379810  99.4489650 139.0434690  44.1282860
  95.6028870 137.8246570  33.1002210  95.2256850 138.3133670  32.3687110
  95.8601940 138.4971850  33.7308740 111.2274120 140.0986120  42.1350000
 110.5437640 140.7685230  42.1266670 111.7668410 140.2966770  41.3694860
 112.6798260 129.9265780  40.2631730 111.7323170 129.9604760  40.3947160
 113.0048250 130.7404730  40.6481090 103.2117800 126.2262960  38.5587720
 103.5192780 125.6709850  37.8423220 102.2818500 126.3607420  38.3760710
 108.7632860 141.9430250  40.8495180 108.7760020 141.5392540  39.9817440
 108.2108080 142.7177540  40.7456610 110.0578280 138.6646470  35.9385350
 109.9474610 137.7220800  36.0634770 110.0546530 139.0262110  36.8248110
 108.1618300 136.8460090  42.1777790 108.5787090 136.6320200  41.3431250
 108.8858120 137.1032880  42.7486410 105.5998560 134.2911790  35.2947840
 104.6727840 134.2249170  35.5236310 105.7523380 135.2291920  35.1803080
 105.5867640 130.5628790  32.2915000 104.6471310 130.7242750  32.3767460
 105.9050900 131.2814470  31.7450990 112.1080400 135.2447310  42.2694030
 111.2799030 135.3140400  41.7944160 112.7030880 135.8301620  41.8009860
 109.6295850 135.8532090  35.7983090 109.0108270 135.5151640  35.1509390
 109.6120300 135.2091850  36.5062280 109.0722410 132.0316630  43.2148900
 108.6593590 132.8570340  43.4688890 108.3398360 131.4461670  43.0225260
 101.2055200 134.8176530  38.0767570 100.8012200 134.1053780  37.5813470
 101.2918320 134.4729770  38.9655610 101.6736900 138.5044090  40.2406780
 101.3765190 137.8989560  39.5614560 102.6236720 138.5421400  40.1296140
  99.9183820 131.5919740  41.8566610 100.4698410 131.7015080  41.0819860
 100.4327330 131.9657340  42.5721840 109.7622510 142.0775960  43.9029880
 109.2853070 142.8848150  43.7102490 109.0784300 141.4254290  44.0556090
 100.7655330 138.2425780  46.8914580  99.8683860 138.4665750  47.1387980
 100.7908200 138.3660720  45.9425980 107.8060550 135.0918900  32.8055840
 108.2453830 134.2541330  32.6593660 108.5188970 135.7248300  32.8919980
  99.5926550 135.1139100  45.4671950  99.4534320 135.9861900  45.8359350
  98.7107910 134.7711910  45.3219890 105.9155930 140.0314970  36.7737080
 106.3551840 140.7739300  36.3592470 105.8542820 140.2741540  37.6976040
 101.3906900 141.0560800  47.6757100 101.3622330 141.4603750  46.8085530
 101.2271870 140.1271160  47.5128700 111.3877690 126.3461710  31.1196880
 111.0750350 126.4388540  32.0195950 112.1490160 126.9242740  31.0694310
  97.9059830 133.7121510  35.5774220  97.7857430 134.4383600  34.9655490
  97.5960720 132.9424420  35.1002130 113.3421720 141.8387900  48.9721270
 113.8181440 142.3170790  49.6510350 113.9628880 141.7705390  48.2466770
  95.5445200 136.8836650  41.3842860  95.6225620 137.0185420  40.4398580
  96.1586880 136.1752540  41.5770980  96.7892830 138.5836840  37.7949040
  96.3820910 138.7251430  36.9402640  97.6805840 138.2997000  37.5920250
 112.7454970 139.0300750  46.1321280 112.8718030 138.7912630  45.2138460
 112.7876350 138.1985290  46.6043360 106.6071710 142.7328750  44.7016090
 107.1216380 142.6436760  45.5038520 105.7640790 143.0788450  44.9944000
 108.5826110 143.0184090  34.1300090 108.4227250 142.7287030  35.0281920
 108.4172820 142.2424220  33.5945320 101.0614490 142.7982620  35.9071710
 100.8856970 141.8818160  35.6939510 100.2070230 143.1569910  36.1469510
 108.2852240 140.5271650  32.6898090 107.5917400 140.5248940  32.0300370
 109.0275100 140.1030970  32.2592260 107.8502170 142.1534360  36.7646580
 108.3059120 141.3723740  37.0785200 108.1894690 142.8641180  37.3087760
 112.5978980 131.0833210  47.0971020 111.9823250 131.5912880  46.5686480
 112.2775400 130.1831540  47.0396960  95.6004720 137.9250820  43.9237320
  95.7635760 137.4556180  43.1056690  96.0657170 137.4174380  44.5886160
 100.3723490 127.0556580  38.9597890  99.9291640 127.8366120  38.6282410
 100.9308480 127.3786470  39.6668830 109.6597810 131.1434050  45.6929870
 108.8091400 130.8439800  46.0138940 109.4999600 131.3876060  44.7813690
 106.7547520 132.6435800  47.7928660 107.0800930 131.8099550  47.4530890
 107.5427850 133.1664320  47.9406990 103.4882310 126.6767280  33.8403720
 102.8636490 126.6727150  34.5657030 103.4012430 125.8098240  33.4439690
 102.4099390 127.6003910  40.8187490 102.7071720 128.5066740  40.7379510
 102.9584950 127.1122690  40.2047060 100.1637710 132.1790150  36.6879140
  99.9378630 131.9627320  37.5925760  99.3830240 132.6118610  36.3425110
 107.3935470 132.1853520  35.2869790 106.7944360 132.9089320  35.1033410
 107.9415080 132.1230300  34.5046240 102.6036920 133.0775730  47.3539410
 102.5080520 132.1370460  47.2039810 103.4468900 133.2990800  46.9587480
 106.0000340 130.8217060  37.3173070 106.3929910 131.1389260  36.5041760
 106.3617190 129.9428940  37.4317590  95.2234740 131.3537980  30.7505990
  95.1409410 132.2968740  30.8920980  94.8717800 131.2112890  29.8718340
 106.5855480 133.4122810  41.4123850 105.8536600 133.9209620  41.7613950
 106.1879820 132.5952790  41.1112630 103.0232870 130.0877010  39.8176340
 103.0268930 129.6466960  38.9680880 103.9183990 130.4094340  39.9248160
  98.8735250 129.9703500  38.7770550  98.5335300 130.4478730  39.5337600
  98.1112570 129.5168620  38.4171650 103.0853020 131.0889090  32.8083100
 103.2065840 131.0475570  33.7568920 102.7001530 131.9513240  32.6529830
 107.0481390 128.8656490  40.8246790 107.0654130 129.3165140  41.6688640
 106.7996970 127.9662130  41.0380230 102.0974520 133.3990230  32.2066400
 101.5291420 132.9508480  31.5802310 102.8063520 133.7583010  31.6731550
 110.4752140 126.2788670  46.6633170 110.7997910 125.5478330  47.1891150
 110.5108650 125.9602310  45.7614160  97.1743700 137.3002250  46.0833130
  96.7898490 136.6595920  46.6816090  97.4855890 138.0038370  46.6527860
 103.3240840 134.1478790  41.5641750 103.6910970 133.6737360  42.3103090
 103.1345900 135.0220360  41.9050090 101.1140210 133.1887430  43.8825960
 100.8097280 134.0679410  44.1076320 102.0686670 133.2487220  43.9183400
  99.6422000 137.3948420  34.4792810  98.8684260 136.8546040  34.3191530
 100.3716630 136.8755030  34.1410570 110.4009980 136.3913780  40.2719200
 111.1209100 136.8869070  39.8815310 110.1991800 135.7131670  39.6273070
 105.8619920 127.7851740  34.4148590 105.0484530 127.2864910  34.3393900
 105.6681870 128.6249990  33.9984940 105.7828780 136.4622840  46.1588200
 105.7166090 135.5418510  45.9045790 105.1533920 136.5598280  46.8732840
 108.5768310 132.1571390  32.7110750 109.4647930 132.4688620  32.5362090
 108.5473400 131.2843640  32.3191330  99.6859400 137.0628800  38.1171620
 100.2038070 136.2597060  38.0628510  99.2343420 137.0007940  38.9588450
 104.5728900 138.3295080  33.3898920 104.9144600 139.0737310  32.8942240
 103.7441610 138.6426200  33.7523750 100.3717060 134.4874410  47.9136870
 100.0717200 134.6331590  47.0164690 101.1428300 133.9279700  47.8210260
 105.7145510 139.2843410  45.9092000 105.7290050 138.3524370  45.6910910
 105.0070610 139.3703170  46.5481770 110.8482580 133.4683230  32.1790610
 110.7646300 133.8997450  31.3287050 111.5676770 133.9281580  32.6117430
 111.9256720 135.9250750  45.2560580 111.2004910 136.5179530  45.0589970
 112.4532180 135.9174290  44.4573950 111.8769830 140.3225490  34.9072740
 111.2345990 139.6681110  35.1816460 111.4900490 140.7280580  34.1313410
 107.4556310 137.6510920  38.7544430 107.8080130 137.0539050  38.0945800
 106.5718640 137.3255150  38.9252680 103.5419590 138.4108610  36.1614840
 104.2290720 138.9577820  36.5422430 102.7552010 138.9549340  36.1964450
  95.6811990 134.0281430  31.6531920  96.5506840 134.3106230  31.9367840
  95.1902310 134.8417300  31.5380730 102.8446800 135.4154640  35.7740200
 103.3009580 136.2259890  36.0000390 102.4935010 135.0977780  36.6058690
 105.1479410 140.9260980  43.0032500 105.7921630 141.1320360  43.6805920
 105.5108850 140.1649380  42.5503350 106.4211490 138.9293330  41.7209950
 107.0633720 138.2286490  41.8342120 106.9460840 139.7091770  41.5406840
 110.2667210 139.2141950  31.4449090 110.0404790 138.4972390  32.0373730
 109.8763410 138.9654390  30.6070840 108.1949110 139.7288230  44.9246010
 108.5305350 140.3154920  45.6023930 107.2749450 139.5980940  45.1543800
  96.0483240 143.2408810  32.2193550  96.4080880 143.8398150  31.5650820
  95.9075580 143.7868700  32.9928580 109.8483460 137.1313890  33.1063250
 109.5605160 137.5926580  33.8941130 110.6435630 136.6711660  33.3747470
  96.0325100 141.5063670  46.6935950  96.1416220 140.5658410  46.5531340
  95.3805660 141.7718420  46.0449680 104.0237690 139.7779560  48.0934070
 103.7034560 139.0588800  48.6379760 103.3496050 140.4534630  48.1670130
 102.0651860 140.6240010  33.0367220 102.0561960 141.3569700  32.4211730
 101.1450220 140.3771590  33.1294180  97.6658500 135.8454900  33.7813980
  97.0586450 136.5853800  33.7909280  98.1407850 135.9354260  32.9552180
 107.2391290 130.0105720  43.4570870 107.6072110 129.1900930  43.7850440
 106.3789490 130.0707610  43.8726520 110.6053320 128.9662660  34.2658430
 109.9766480 129.0708330  33.5516660 110.1105240 129.1859440  35.0552310
 105.0511460 140.6868250  31.6992410 105.1523440 140.4832240  30.7694390
 104.1513200 140.4326530  31.9040190 102.5737350 131.2448610  35.6816310
 101.8653500 131.7134950  36.1229920 102.8581830 130.5870620  36.3161500
 104.1993280 132.6645310  43.6808840 104.6978530 133.1391130  44.3460690
 104.3416230 131.7408830  43.8878870 106.6052780 127.9699270  37.1212100
 106.4820560 127.9885400  36.1721610 107.5537340 128.0178210  37.2410500
 103.6929570 143.2054570  36.3940080 103.9471070 143.1675960  35.4719450
 102.7442050 143.0787900  36.3868330 100.7772370 129.5533690  33.0567020
 101.6262900 129.9903840  32.9907210 100.4103640 129.8653950  33.8839080
 111.4060140 128.8813270  44.5237230 110.9033740 129.6218670  44.8631040
 112.2216800 129.2697270  44.2074020 109.6982150 134.1246450  37.9698590
 108.7572290 134.1396680  38.1446280 110.0126220 133.3382410  38.4158890
  99.6763790 135.8066050  31.5302550 100.4427060 135.6947410  32.0927980
  99.7538480 135.1104020  30.8779320  98.3710550 133.2391120  32.2135440
  98.4514140 132.2918630  32.3252840  99.2630300 133.5698000  32.3196100
 111.7007730 141.2955300  39.6452850 111.8255150 142.1186470  40.1176660
 112.5673290 141.0846030  39.2977000  99.1725260 143.3886510  39.3169980
  99.9087740 142.8401970  39.5878550  99.5566180 144.2542520  39.1775970
  96.0570740 139.4560080  35.1911490  95.1310520 139.6981220  35.1816900
  96.5227170 140.2834340  35.0696240  98.1783540 142.5732580  48.5055560
  98.9796270 142.8944630  48.9190960  97.6635360 142.2128160  49.2275470
 102.2827570 142.5616820  31.1395550 103.0756180 142.8505650  30.6877340
 101.7631920 142.1308990  30.4608030 107.0148170 138.6812450  48.4530970
 106.4086330 138.7044050  47.7126720 106.7102280 137.9495490  48.9898220
 108.4448540 142.4092740  47.0640380 109.3970290 142.3250760  47.0140620
 108.2976760 143.0734450  47.7374170 111.3357740 141.7886950  32.5632290
 111.0499250 141.3752090  31.7486470 111.1377290 142.7174660  32.4432810
 102.8004970 137.7820230  31.0037900 102.6955610 137.1672580  31.7299280
 102.6329190 137.2586120  30.2200910 102.9519290 136.4677030  46.9827130
 102.1864960 137.0362030  46.8981800 103.1335250 136.1753240  46.0895360
 106.0407700 136.8440260  31.6079890 105.4917800 137.2909560  32.2522630
 106.6626960 136.3389510  32.1317560 110.0942640 138.1982360  47.5402150
 110.8352110 138.5358120  47.0369610 109.3315320 138.3674420  46.9871920
 101.7082820 135.8031180  33.5045190 102.1299240 135.6371050  34.3476580
 101.8333660 134.9931410  33.0100330  99.8710240 131.7827730  46.3116170
  99.3406700 131.2918680  45.6839510 100.5398310 132.2111930  45.7774100
 104.2210460 134.8268790  30.7522290 104.7416120 134.1117810  30.3863440
 104.8678860 135.4654660  31.0522800 108.7688300 136.2497190  46.0757360
 109.1829320 136.4042270  46.9247780 107.8339300 136.3752410  46.2383140
 109.2410470 133.5893350  48.0796510 109.8231240 132.8345670  47.9916990
 109.4172240 134.1200790  47.3027990 103.5303530 136.2017670  44.0453290
 103.9491640 137.0450400  43.8729530 102.6112160 136.3389710  43.8160070
 105.8667430 133.9333850  45.4291130 105.9863640 133.3374990  46.1685970
 106.7261430 133.9703540  45.0092430 108.2055330 134.4871040  44.0053640
 107.6790550 135.0113660  43.4018780 108.5486670 135.1198430  44.6363370
 100.6041720 131.8764410  30.4503350 100.4030780 131.0131770  30.8116690
 100.4333770 131.7897770  29.5124950 101.3810950 142.5070680  45.1611020
 100.8432040 143.2316740  44.8419720 101.6344910 142.0301020  44.3708360
 108.0830030 126.6872640  32.9790230 108.3632320 125.8440540  33.3349650
 107.3095760 126.9195750  33.4928980  99.4024520 128.9765030  30.4381230
  99.7050420 128.9832460  29.5300380 100.1419110 128.6262890  30.9348890
 104.2373160 143.7421890  45.4197670 104.1631860 144.6457030  45.7270040
 103.3352000 143.4233790  45.3919740 102.6209450 127.9199650  31.4237430
 102.2731450 127.2423640  30.8439880 102.8222220 127.4589160  32.2380820
 104.7858490 142.9080400  33.0424030 105.6809280 143.2465370  33.0642790
 104.8176120 142.1859810  32.4148310  98.4254650 138.2807450  31.2711030
  98.8629520 138.8237120  31.9268610  98.9102380 137.4554400  31.2807370
  95.6400450 141.0696480  38.7231290  95.9703460 140.2017540  38.4909930
  96.0691450 141.2755000  39.5536250 100.2362370 139.4005490  36.3833260
  99.9357910 139.2770460  37.2837170 100.1299860 138.5414080  35.9748990
  96.1290660 141.9367070  41.4612920  95.6921650 142.1167870  42.2937070
  96.6968340 142.6941690  41.3194640 111.7652840 141.4384070  45.7490230
 111.1654830 141.4976630  45.0054150 111.8946740 140.4989050  45.8787080
 113.0054290 139.1801890  31.0859940 112.1747250 139.2478540  31.5567170
 113.1826120 140.0706010  30.7826800 112.4610750 135.9249370  33.5894140
 113.2229660 136.4946020  33.6953830 112.4765120 135.3576570  34.3602450
  95.9615090 134.4487300  37.8201800  95.3063930 134.1798940  37.1761500
  96.7993040 134.3391780  37.3703780 113.4670720 136.7799470  38.4336070
 113.8379550 135.9966790  38.0272040 114.1072650 137.4688570  38.2553370
 110.4504480 138.1636050  43.8466390 109.6364320 138.5933210  44.1092180
 110.8578680 138.7754460  43.2335440 112.5129920 136.2183740  30.7466660
 112.7878760 137.1262620  30.6185880 112.3240660 136.1546270  31.6828650
 108.9105530 129.2428590  32.0420290 109.3290410 129.0559570  31.2016950
 108.6041590 128.3907640  32.3523220 112.4095260 134.1552730  35.7396090
 112.0338860 133.3880660  35.3077380 111.6798380 134.5375430  36.2271020
  96.9991020 134.8339870  42.3605140  97.3664060 134.7467270  43.2401160
  96.4301840 134.0706420  42.2612000 111.7994880 133.3024250  45.3735610
 111.5680970 133.0737000  44.4733560 112.0599430 134.2223800  45.3280500
 110.2382950 128.5280680  48.1515310 111.1153130 128.5364080  48.5349310
 110.2503790 127.7911520  47.5407660  95.1753170 131.6586230  33.7627130
  94.2717250 131.9216430  33.5878790  95.6593790 131.9297400  32.9827090
 111.6846220 132.3810220  39.0403330 112.2083700 131.8872870  38.4093500
 112.2705640 132.5160580  39.7850900 111.8635940 132.4650090  42.5622880
 110.9138650 132.4313630  42.6767870 112.0448950 133.3750200  42.3272650
  97.7180380 130.7151770  31.6721510  98.4272080 130.2934990  31.1868790
  97.0020320 130.7827000  31.0404860  97.3654540 126.7691100  30.7124160
  98.0882670 127.3100040  31.0305380  97.6379060 126.4954520  29.8365700
 111.1746190 131.6383570  34.9795740 111.6705310 131.4054440  35.7644620
 110.9762260 130.7995410  34.5633380 112.6033350 130.2744520  37.5133420
 112.4932630 130.1200560  38.4515690 113.3640940 129.7465460  37.2708830
 110.9499070 126.2138650  43.9716420 111.5871290 126.8272790  44.3375610
 111.0973960 126.2499310  43.0265650 113.4923620 128.1052440  30.7539560
 114.4172930 127.9733620  30.5457850 113.4699410 128.1845260  31.7076010
 113.5662110 128.8763100  33.3796270 112.7713610 128.8108220  33.9089180
 113.7705390 129.8113740  33.3681620 110.5080530 142.9154650  37.3734660
 111.1039600 142.5939220  36.6969080 110.7658680 142.4426470  38.1647930
  98.4143100 139.3472560  47.5225290  98.3712730 138.9765470  48.4039750
  98.5454110 140.2850130  47.6627110 102.1149130 140.9032150  43.1235010
 101.8740490 141.1706710  42.2365530 103.0551770 141.0737880  43.1785870
 113.3753290 142.9226530  43.9245650 112.8811570 143.3195400  43.2072780
 112.7666580 142.2975740  44.3182930  97.4799370 125.7029160  46.6322870
  98.0282360 125.5217210  45.8688980  97.5454680 124.9123270  47.1679180
  98.2531130 142.2934810  44.6423070  97.6591450 142.1619510  45.3813110
  98.2454970 141.4572950  44.1765170 107.6986150 125.5867040  42.8453100
 106.8245990 125.9202150  42.6426030 107.5896900 125.1140220  43.6704970
 108.6058130 127.7937910  44.2294820 108.2771490 126.9789670  43.8496550
 109.5540430 127.7507720  44.1060510 111.0592740 143.5649950  41.2032390
 110.5995710 144.3165760  40.8290410 110.4305200 142.8456420  41.1447190
  97.8843360 139.6593190  43.5931110  97.1577420 139.0398480  43.5257060
  97.9452510 140.0533800  42.7229190 101.4888460 141.8738190  40.3780520
 102.0053480 141.2625550  39.8528780 102.1385840 142.3766970  40.8691530
 104.2283960 142.7646680  41.2049500 104.5161770 142.5100980  40.3282510
 104.7407180 142.2124040  41.7955070 105.4460970 126.5036880  41.7846010
 104.6632760 126.9782380  42.0642770 105.1523900 125.5991710  41.6759190
 109.9982040 127.2059980  39.8295100 110.4390130 127.1505080  38.9816700
 109.7289630 128.1217990  39.9005280 111.8620610 126.8375220  37.8403920
 111.8009010 125.8936440  37.6934940 112.6412640 126.9455310  38.3857380
  96.1673360 142.9767580  36.8027870  95.9995400 142.3438260  37.5009760
  95.3007870 143.1826980  36.4522060  96.7901380 126.8084360  34.3059730
  97.5480740 126.9213240  33.7323760  96.3278550 127.6453560  34.2603160
 103.3315190 128.9223630  37.2962040 102.5189700 128.5480520  36.9557920
 103.8356830 128.1668710  37.5983230 107.8340170 125.5866080  38.5345110
 108.4369540 126.1586290  39.0093630 107.0933160 126.1505520  38.3119010
 110.9774770 125.9887640  33.8085390 111.1725400 126.8871090  34.0752820
 110.1904640 125.7574720  34.3018340  97.7736060 141.6700810  34.2478010
  97.2483680 142.0508840  33.5439970  97.6980640 142.2951580  34.9687720
  99.1626530 127.3348410  32.8461700  99.6919290 126.5478210  32.7169650
  99.7954850 128.0139600  33.0797230 101.3564370 127.0723550  35.9007090
 100.7267110 126.3710860  36.0677220 100.8169510 127.8327680  35.6840250
 104.2956320 143.6862780  48.5717700 105.2223630 143.4507050  48.6153660
 104.2806750 144.5134780  48.0903730 112.5301380 143.2288350  35.5691950
 112.7053570 142.5426090  34.9252870 111.8322950 143.7535400  35.1768620
 100.3729030 143.6183190  33.1227260 101.1047850 143.3342470  32.5751150
 100.6322700 143.3796470  34.0126640  99.5343820 139.7347920  33.1273590
  98.9052700 140.2033020  33.6759420  99.6491650 138.8897140  33.5619780
 110.8633880 142.9132640  48.3958740 111.6559200 142.4181870  48.1884700
 111.1567030 143.5922780  49.0034350 106.9893540 133.7853580  19.2774790
 106.9087590 132.8708190  19.0066500 106.5757960 134.2820650  18.5714500
 105.1211580 135.5632600  21.1584060 104.3453680 135.0833040  21.4482630
 105.7724510 134.8838250  20.9840220  99.1377410 135.8752410  22.0359820
  98.3062290 135.6201120  22.4356330  99.7458390 135.9463180  22.7717740
 109.1419010 139.9692790  19.9383190 108.6800540 139.1980030  20.2670360
 109.9544560 139.9958860  20.4435640  99.1178670 139.9092500  22.2317840
  99.4206710 139.0190240  22.0528060  99.8622260 140.4662720  22.0040090
  97.5469360 130.8354300  15.8202210  96.6586060 131.1770270  15.7182090
  97.8310550 130.6354620  14.9283040  95.5102370 133.4359950  21.7041910
  96.0818480 132.6682150  21.7045550  95.5103910 133.7348710  20.7948520
 105.3682320 142.2550800  19.5587180 104.7493760 142.7108300  18.9881620
 106.2234100 142.4102260  19.1576880 104.5620570 138.2389790  21.1654220
 104.4928850 137.2979730  21.0043350 105.3240430 138.3291200  21.7376790
  96.7527240 128.8444310  23.4910840  96.5730080 127.9470060  23.7713600
  96.3507320 129.3916180  24.1657790 105.5925740 131.0460170  21.3923150
 105.9690560 130.1732050  21.2796820 105.4945250 131.3818870  20.5013590
  99.7230750 129.4185800  16.8540590  99.8297500 130.3189530  17.1609350
  98.8123110 129.3703770  16.5635240 109.3749860 128.5410610  18.3251490
 110.1959480 128.0507180  18.3676970 109.4083940 129.1308270  19.0783330
  97.3713910 131.3404810  22.0993180  98.0524020 131.6043180  22.7180580
  97.0561960 130.5005680  22.4331190 101.5638480 132.3872170  21.1865770
 102.0716700 132.8853140  21.8270790 102.0951720 131.6107370  21.0105130
 113.6649410 130.5577360  24.8895120 112.9601580 130.9459070  24.3710230
 113.9307330 131.2527650  25.4916050  99.8474580 127.0270730  25.4529190
  99.8493020 127.5443120  24.6475090  99.0178890 126.5500910  25.4299120
 106.2345670 137.1390040  16.9519090 105.6162940 137.6039490  16.3881810
 106.7468920 137.8317520  17.3688600 101.0977430 136.6665910  23.6302690
 100.7646810 137.2934830  24.2723760 101.2744110 137.1927790  22.8504360
 109.6111340 130.4810990  21.0979030 108.9066910 130.7695880  21.6782140
 109.9723500 131.2911100  20.7378590  99.5289910 128.7380690  23.4599640
  99.8706720 129.5822740  23.1653510  98.5905720 128.8864430  23.5764980
 100.3096530 138.6346710  25.4451870 100.9270530 139.3097790  25.1636320
  99.4489650 139.0434690  25.3539370  95.6028870 137.8246570  14.3258720
  95.2256850 138.3133670  13.5943620  95.8601940 138.4971850  14.9565250
 111.2274120 140.0986120  23.3606510 110.5437640 140.7685230  23.3523180
 111.7668410 140.2966770  22.5951370 112.6798260 129.9265780  21.4888240
 111.7323170 129.9604760  21.6203670 113.0048250 130.7404730  21.8737600
 103.2117800 126.2262960  19.7844230 103.5192780 125.6709850  19.0679730
 102.2818500 126.3607420  19.6017220 108.7632860 141.9430250  22.0751690
 108.7760020 141.5392540  21.2073950 108.2108080 142.7177540  21.9713120
 110.0578280 138.6646470  17.1641860 109.9474610 137.7220800  17.2891280
 110.0546530 139.0262110  18.0504620 108.1618300 136.8460090  23.4034300
 108.5787090 136.6320200  22.5687760 108.8858120 137.1032880  23.9742920
 105.5998560 134.2911790  16.5204350 104.6727840 134.2249170  16.7492820
 105.7523380 135.2291920  16.4059590 105.5867640 130.5628790  13.5171510
 104.6471310 130.7242750  13.6023970 105.9050900 131.2814470  12.9707500
 112.1080400 135.2447310  23.4950540 111.2799030 135.3140400  23.0200670
 112.7030880 135.8301620  23.0266370 109.6295850 135.8532090  17.0239600
 109.0108270 135.5151640  16.3765900 109.6120300 135.2091850  17.7318790
 109.0722410 132.0316630  24.4405410 108.6593590 132.8570340  24.6945400
 108.3398360 131.4461670  24.2481770 101.2055200 134.8176530  19.3024080
 100.8012200 134.1053780  18.8069980 101.2918320 134.4729770  20.1912120
 101.6736900 138.5044090  21.4663290 101.3765190 137.8989560  20.7871070
 102.6236720 138.5421400  21.3552650  99.9183820 131.5919740  23.0823120
 100.4698410 131.7015080  22.3076370 100.4327330 131.9657340  23.7978350
 109.7622510 142.0775960  25.1286390 109.2853070 142.8848150  24.9359000
 109.0784300 141.4254290  25.2812600 100.7655330 138.2425780  28.1171090
  99.8683860 138.4665750  28.3644490 100.7908200 138.3660720  27.1682490
 107.8060550 135.0918900  14.0312350 108.2453830 134.2541330  13.8850170
 108.5188970 135.7248300  14.1176490  99.5926550 135.1139100  26.6928460
  99.4534320 135.9861900  27.0615860  98.7107910 134.7711910  26.5476400
 105.9155930 140.0314970  17.9993590 106.3551840 140.7739300  17.5848980
 105.8542820 140.2741540  18.9232550 101.3906900 141.0560800  28.9013610
 101.3622330 141.4603750  28.0342040 101.2271870 140.1271160  28.7385210
 111.3877690 126.3461710  12.3453390 111.0750350 126.4388540  13.2452460
 112.1490160 126.9242740  12.2950820  97.9059830 133.7121510  16.8030730
  97.7857430 134.4383600  16.1912000  97.5960720 132.9424420  16.3258640
 113.3421720 141.8387900  30.1977780 113.8181440 142.3170790  30.8766860
 113.9628880 141.7705390  29.4723280  95.5445200 136.8836650  22.6099370
  95.6225620 137.0185420  21.6655090  96.1586880 136.1752540  22.8027490
  96.7892830 138.5836840  19.0205550  96.3820910 138.7251430  18.1659150
  97.6805840 138.2997000  18.8176760 112.7454970 139.0300750  27.3577790
 112.8718030 138.7912630  26.4394970 112.7876350 138.1985290  27.8299870
 106.6071710 142.7328750  25.9272600 107.1216380 142.6436760  26.7295030
 105.7640790 143.0788450  26.2200510 108.5826110 143.0184090  15.3556600
 108.4227250 142.7287030  16.2538430 108.4172820 142.2424220  14.8201830
 101.0614490 142.7982620  17.1328220 100.8856970 141.8818160  16.9196020
 100.2070230 143.1569910  17.3726020 108.2852240 140.5271650  13.9154600
 107.5917400 140.5248940  13.2556880 109.0275100 140.1030970  13.4848770
 107.8502170 142.1534360  17.9903090 108.3059120 141.3723740  18.3041710
 108.1894690 142.8641180  18.5344270 112.5978980 131.0833210  28.3227530
 111.9823250 131.5912880  27.7942990 112.2775400 130.1831540  28.2653470
  95.6004720 137.9250820  25.1493830  95.7635760 137.4556180  24.3313200
  96.0657170 137.4174380  25.8142670 100.3723490 127.0556580  20.1854400
  99.9291640 127.8366120  19.8538920 100.9308480 127.3786470  20.8925340
 104.6593300 129.9225100  25.7889720 104.1972670 130.1308120  26.6009660
 104.2571410 129.1084450  25.4860390 109.6597810 131.1434050  26.9186380
 108.8091400 130.8439800  27.2395450 109.4999600 131.3876060  26.0070200
 106.7547520 132.6435800  29.0185170 107.0800930 131.8099550  28.6787400
 107.5427850 133.1664320  29.1663500 103.4882310 126.6767280  15.0660230
 102.8636490 126.6727150  15.7913540 103.4012430 125.8098240  14.6696200
 102.4099390 127.6003910  22.0444000 102.7071720 128.5066740  21.9636020
 102.9584950 127.1122690  21.4303570 100.1637710 132.1790150  17.9135650
  99.9378630 131.9627320  18.8182270  99.3830240 132.6118610  17.5681620
 107.3935470 132.1853520  16.5126300 106.7944360 132.9089320  16.3289920
 107.9415080 132.1230300  15.7302750 102.6036920 133.0775730  28.5795920
 102.5080520 132.1370460  28.4296320 103.4468900 133.2990800  28.1843990
 106.0000340 130.8217060  18.5429580 106.3929910 131.1389260  17.7298270
 106.3617190 129.9428940  18.6574100  97.7347460 129.4889400  26.7329700
  97.3410850 130.3364610  26.9402480  97.0465860 128.8515770  26.9238340
 104.3092510 129.5724370  29.8026440 103.6190830 129.3796570  30.4372530
 105.0524810 129.8559010  30.3350740  95.0364510 127.4117860  20.7659780
  94.7477560 127.9820720  21.4784760  95.7810270 126.9322310  21.1291010
  95.2234740 131.3537980  11.9762500  95.1409410 132.2968740  12.1177490
  94.8717800 131.2112890  11.0974850 106.5855480 133.4122810  22.6380360
 105.8536600 133.9209620  22.9870460 106.1879820 132.5952790  22.3369140
 103.0232870 130.0877010  21.0432850 103.0268930 129.6466960  20.1937390
 103.9183990 130.4094340  21.1504670  98.8735250 129.9703500  20.0027060
  98.5335300 130.4478730  20.7594110  98.1112570 129.5168620  19.6428160
 103.0853020 131.0889090  14.0339610 103.2065840 131.0475570  14.9825430
 102.7001530 131.9513240  13.8786340 107.0481390 128.8656490  22.0503300
 107.0654130 129.3165140  22.8945150 106.7996970 127.9662130  22.2636740
 102.0974520 133.3990230  13.4322910 101.5291420 132.9508480  12.8058820
 102.8063520 133.7583010  12.8988060 110.4752140 126.2788670  27.8889680
 110.7997910 125.5478330  28.4147660 110.5108650 125.9602310  26.9870670
  97.1743700 137.3002250  27.3089640  96.7898490 136.6595920  27.9072600
  97.4855890 138.0038370  27.8784370 103.3240840 134.1478790  22.7898260
 103.6910970 133.6737360  23.5359600 103.1345900 135.0220360  23.1306600
  96.1881330 128.8922480  18.9191730  95.9028250 128.5278150  19.7570350
  96.1260190 128.1602940  18.3054870 101.1140210 133.1887430  25.1082470
 100.8097280 134.0679410  25.3332830 102.0686670 133.2487220  25.1439910
  99.6422000 137.3948420  15.7049320  98.8684260 136.8546040  15.5448040
 100.3716630 136.8755030  15.3667080 110.4009980 136.3913780  21.4975710
 111.1209100 136.8869070  21.1071820 110.1991800 135.7131670  20.8529580
 105.8619920 127.7851740  15.6405100 105.0484530 127.2864910  15.5650410
 105.6681870 128.6249990  15.2241450 105.7828780 136.4622840  27.3844710
 105.7166090 135.5418510  27.1302300 105.1533920 136.5598280  28.0989350
 108.5768310 132.1571390  13.9367260 109.4647930 132.4688620  13.7618600
 108.5473400 131.2843640  13.5447840  99.6859400 137.0628800  19.3428130
 100.2038070 136.2597060  19.2885020  99.2343420 137.0007940  20.1844960
 104.5728900 138.3295080  14.6155430 104.9144600 139.0737310  14.1198750
 103.7441610 138.6426200  14.9780260  97.1703940 134.0290170  26.2553830
  96.8118880 134.6944020  26.8427170  96.8758500 133.1973720  26.6266450
 100.3717060 134.4874410  29.1393380 100.0717200 134.6331590  28.2421200
 101.1428300 133.9279700  29.0466770 105.7145510 139.2843410  27.1348510
 105.7290050 138.3524370  26.9167420 105.0070610 139.3703170  27.7738280
 110.8482580 133.4683230  13.4047120 110.7646300 133.8997450  12.5543560
 111.5676770 133.9281580  13.8373940 111.9256720 135.9250750  26.4817090
 111.2004910 136.5179530  26.2846480 112.4532180 135.9174290  25.6830460
 111.8769830 140.3225490  16.1329250 111.2345990 139.6681110  16.4072970
 111.4900490 140.7280580  15.3569920 107.4556310 137.6510920  19.9800940
 107.8080130 137.0539050  19.3202310 106.5718640 137.3255150  20.1509190
 103.5419590 138.4108610  17.3871350 104.2290720 138.9577820  17.7678940
 102.7552010 138.9549340  17.4220960  95.6811990 134.0281430  12.8788430
  96.5506840 134.3106230  13.1624350  95.1902310 134.8417300  12.7637240
 102.8446800 135.4154640  16.9996710 103.3009580 136.2259890  17.2256900
 102.4935010 135.0977780  17.8315200 105.1479410 140.9260980  24.2289010
 105.7921630 141.1320360  24.9062430 105.5108850 140.1649380  23.7759860
  98.7458580 125.7592290  17.4719230  98.6173210 125.7510190  18.4204150
  97.9220600 126.0975380  17.1210240 106.4211490 138.9293330  22.9466460
 107.0633720 138.2286490  23.0598630 106.9460840 139.7091770  22.7663350
 110.2667210 139.2141950  12.6705600 110.0404790 138.4972390  13.2630240
 109.8763410 138.9654390  11.8327350 108.1949110 139.7288230  26.1502520
 108.5305350 140.3154920  26.8280440 107.2749450 139.5980940  26.3800310
  96.0483240 143.2408810  13.4450060  96.4080880 143.8398150  12.7907330
  95.9075580 143.7868700  14.2185090  95.7452510 127.5183410  26.9325930
  95.0311030 127.7180330  27.5378540  96.1647550 126.7422980  27.3040730
 109.8483460 137.1313890  14.3319760 109.5605160 137.5926580  15.1197640
 110.6435630 136.6711660  14.6003980  96.0325100 141.5063670  27.9192460
  96.1416220 140.5658410  27.7787850  95.3805660 141.7718420  27.2706190
 104.0237690 139.7779560  29.3190580 103.7034560 139.0588800  29.8636270
 103.3496050 140.4534630  29.3926640 102.0651860 140.6240010  14.2623730
 102.0561960 141.3569700  13.6468240 101.1450220 140.3771590  14.3550690
  97.6658500 135.8454900  15.0070490  97.0586450 136.5853800  15.0165790
  98.1407850 135.9354260  14.1808690 107.2391290 130.0105720  24.6827380
 107.6072110 129.1900930  25.0106950 106.3789490 130.0707610  25.0983030
 110.6053320 128.9662660  15.4914940 109.9766480 129.0708330  14.7773170
 110.1105240 129.1859440  16.2808820 105.0511460 140.6868250  12.9248920
 105.1523440 140.4832240  11.9950900 104.1513200 140.4326530  13.1296700
 102.5737350 131.2448610  16.9072820 101.8653500 131.7134950  17.3486430
 102.8581830 130.5870620  17.5418010 104.1993280 132.6645310  24.9065350
 104.6978530 133.1391130  25.5717200 104.3416230 131.7408830  25.1135380
 106.6052780 127.9699270  18.3468610 106.4820560 127.9885400  17.3978120
 107.5537340 128.0178210  18.4667010 103.6929570 143.2054570  17.6196590
 103.9471070 143.1675960  16.6975960 102.7442050 143.0787900  17.6124840
 100.7772370 129.5533690  14.2823530 101.6262900 129.9903840  14.2163720
 100.4103640 129.8653950  15.1095590 111.4060140 128.8813270  25.7493740
 110.9033740 129.6218670  26.0887550 112.2216800 129.2697270  25.4330530
 109.6982150 134.1246450  19.1955100 108.7572290 134.1396680  19.3702790
 110.0126220 133.3382410  19.6415400  99.6763790 135.8066050  12.7559060
 100.4427060 135.6947410  13.3184490  99.7538480 135.1104020  12.1035830
  98.3710550 133.2391120  13.4391950  98.4514140 132.2918630  13.5509350
  99.2630300 133.5698000  13.5452610 111.7007730 141.2955300  20.8709360
 111.8255150 142.1186470  21.3433170 112.5673290 141.0846030  20.5233510
  99.1725260 143.3886510  20.5426490  99.9087740 142.8401970  20.8135060
  99.5566180 144.2542520  20.4032480  96.0570740 139.4560080  16.4168000
  95.1310520 139.6981220  16.4073410  96.5227170 140.2834340  16.2952750
  98.1783540 142.5732580  29.7312070  98.9796270 142.8944630  30.1447470
  97.6635360 142.2128160  30.4531980 102.2827570 142.5616820  12.3652060
 103.0756180 142.8505650  11.9133850 101.7631920 142.1308990  11.6864540
 107.0148170 138.6812450  29.6787480 106.4086330 138.7044050  28.9383230
 106.7102280 137.9495490  30.2154730 108.4448540 142.4092740  28.2896890
 109.3970290 142.3250760  28.2397130 108.2976760 143.0734450  28.9630680
 111.3357740 141.7886950  13.7888800 111.0499250 141.3752090  12.9742980
 111.1377290 142.7174660  13.6689320  95.8981350 135.0606040  28.6748120
  96.4020370 134.4813320  29.2464350  95.1588770 135.3446270  29.2124490
 102.8004970 137.7820230  12.2294410 102.6955610 137.1672580  12.9555790
 102.6329190 137.2586120  11.4457420 102.9519290 136.4677030  28.2083640
 102.1864960 137.0362030  28.1238310 103.1335250 136.1753240  27.3151870
 106.0407700 136.8440260  12.8336400 105.4917800 137.2909560  13.4779140
 106.6626960 136.3389510  13.3574070 110.0942640 138.1982360  28.7658660
 110.8352110 138.5358120  28.2626120 109.3315320 138.3674420  28.2128430
  97.9304430 133.2035630  29.5698190  97.9709770 132.9049500  30.4783420
  98.7849930 133.6043240  29.4105710 101.7082820 135.8031180  14.7301700
 102.1299240 135.6371050  15.5733090 101.8333660 134.9931410  14.2356840
  99.8710240 131.7827730  27.5372680  99.3406700 131.2918680  26.9096020
 100.5398310 132.2111930  27.0030610 104.2210460 134.8268790  11.9778800
 104.7416120 134.1117810  11.6119950 104.8678860 135.4654660  12.2779310
 108.7688300 136.2497190  27.3013870 109.1829320 136.4042270  28.1504290
 107.8339300 136.3752410  27.4639650 109.2410470 133.5893350  29.3053020
 109.8231240 132.8345670  29.2173500 109.4172240 134.1200790  28.5284500
 100.3582540 128.7490100  27.6169970 100.2639410 128.1310850  26.8920840
  99.7779930 129.4756390  27.3899880 103.1243980 127.3063340  24.6497360
 102.6761280 127.3287600  23.8042910 102.4909180 126.9082360  25.2467660
 103.5303530 136.2017670  25.2709800 103.9491640 137.0450400  25.0986040
 102.6112160 136.3389710  25.0416580 105.8667430 133.9333850  26.6547640
 105.9863640 133.3374990  27.3942480 106.7261430 133.9703540  26.2348940
 108.2055330 134.4871040  25.2310150 107.6790550 135.0113660  24.6275290
 108.5486670 135.1198430  25.8619880 100.6041720 131.8764410  11.6759860
 100.4030780 131.0131770  12.0373200 100.4333770 131.7897770  10.7381460
 101.3810950 142.5070680  26.3867530 100.8432040 143.2316740  26.0676230
 101.6344910 142.0301020  25.5964870 102.6336200 130.4755200  27.9123460
 103.2235890 130.1671050  28.6001280 101.8156440 130.0034950  28.0683360
 107.4529630 130.0921010  28.1456480 106.7645150 129.4302550  28.0806470
 108.1735650 129.6459280  28.5904940 108.0830030 126.6872640  14.2046740
 108.3632320 125.8440540  14.5606160 107.3095760 126.9195750  14.7185490
  99.4024520 128.9765030  11.6637740  99.7050420 128.9832460  10.7556890
 100.1419110 128.6262890  12.1605400 104.2373160 143.7421890  26.6454180
 104.1631860 144.6457030  26.9526550 103.3352000 143.4233790  26.6176250
 102.6209450 127.9199650  12.6493940 102.2731450 127.2423640  12.0696390
 102.8222220 127.4589160  13.4637330 104.7858490 142.9080400  14.2680540
 105.6809280 143.2465370  14.2899300 104.8176120 142.1859810  13.6404820
  98.4254650 138.2807450  12.4967540  98.8629520 138.8237120  13.1525120
  98.9102380 137.4554400  12.5063880  95.6400450 141.0696480  19.9487800
  95.9703460 140.2017540  19.7166440  96.0691450 141.2755000  20.7792760
 100.2362370 139.4005490  17.6089770  99.9357910 139.2770460  18.5093680
 100.1299860 138.5414080  17.2005500  96.1290660 141.9367070  22.6869430
  95.6921650 142.1167870  23.5193580  96.6968340 142.6941690  22.5451150
 111.7652840 141.4384070  26.9746740 111.1654830 141.4976630  26.2310660
 111.8946740 140.4989050  27.1043590 113.0054290 139.1801890  12.3116450
 112.1747250 139.2478540  12.7823680 113.1826120 140.0706010  12.0083310
 112.4610750 135.9249370  14.8150650 113.2229660 136.4946020  14.9210340
 112.4765120 135.3576570  15.5858960  95.9615090 134.4487300  19.0458310
  95.3063930 134.1798940  18.4018010  96.7993040 134.3391780  18.5960290
 113.4670720 136.7799470  19.6592580 113.8379550 135.9966790  19.2528550
 114.1072650 137.4688570  19.4809880 110.4504480 138.1636050  25.0722900
 109.6364320 138.5933210  25.3348690 110.8578680 138.7754460  24.4591950
 112.5129920 136.2183740  11.9723170 112.7878760 137.1262620  11.8442390
 112.3240660 136.1546270  12.9085160 108.9105530 129.2428590  13.2676800
 109.3290410 129.0559570  12.4273460 108.6041590 128.3907640  13.5779730
 112.4095260 134.1552730  16.9652600 112.0338860 133.3880660  16.5333890
 111.6798380 134.5375430  17.4527530  96.9991020 134.8339870  23.5861650
  97.3664060 134.7467270  24.4657670  96.4301840 134.0706420  23.4868510
 111.7994880 133.3024250  26.5992120 111.5680970 133.0737000  25.6990070
 112.0599430 134.2223800  26.5537010  96.5507020 131.7448960  27.4920070
  95.6563070 131.7115720  27.8313780  97.0904570 131.9435750  28.2571320
 110.2382950 128.5280680  29.3771820 111.1153130 128.5364080  29.7605820
 110.2503790 127.7911520  28.7664170  95.1753170 131.6586230  14.9883640
  94.2717250 131.9216430  14.8135300  95.6593790 131.9297400  14.2083600
 111.6846220 132.3810220  20.2659840 112.2083700 131.8872870  19.6350010
 112.2705640 132.5160580  21.0107410 111.8635940 132.4650090  23.7879390
 110.9138650 132.4313630  23.9024380 112.0448950 133.3750200  23.5529160
  97.7180380 130.7151770  12.8978020  98.4272080 130.2934990  12.4125300
  97.0020320 130.7827000  12.2661370  97.3654540 126.7691100  11.9380670
  98.0882670 127.3100040  12.2561890  97.6379060 126.4954520  11.0622210
 111.1746190 131.6383570  16.2052250 111.6705310 131.4054440  16.9901130
 110.9762260 130.7995410  15.7889890  97.0546730 126.0197290  21.8403290
  97.7022920 125.4694670  21.3998450  97.4748570 126.2740440  22.6619100
 112.6033350 130.2744520  18.7389930 112.4932630 130.1200560  19.6772200
 113.3640940 129.7465460  18.4965340 110.9499070 126.2138650  25.1972930
 111.5871290 126.8272790  25.5632120 111.0973960 126.2499310  24.2522160
 113.4923620 128.1052440  11.9796070 114.4172930 127.9733620  11.7714360
 113.4699410 128.1845260  12.9332520 113.5662110 128.8763100  14.6052780
 112.7713610 128.8108220  15.1345690 113.7705390 129.8113740  14.5938130
 110.5080530 142.9154650  18.5991170 111.1039600 142.5939220  17.9225590
 110.7658680 142.4426470  19.3904440  96.8078730 126.1752960  24.5828610
  96.4593550 126.6316780  25.3486790  96.4766430 125.2810090  24.6651040
  98.4143100 139.3472560  28.7481800  98.3712730 138.9765470  29.6296260
  98.5454110 140.2850130  28.8883620 102.1149130 140.9032150  24.3491520
 101.8740490 141.1706710  23.4622040 103.0551770 141.0737880  24.4042380
 104.3203550 127.3664840  28.1048030 104.2592440 127.9586670  28.8543440
 105.2603930 127.2590800  27.9598290 106.9578110 127.0234900  27.7440320
 107.5718520 127.3414190  27.0821400 107.5027670 126.5383490  28.3636180
 113.3753290 142.9226530  25.1502160 112.8811570 143.3195400  24.4329290
 112.7666580 142.2975740  25.5439440  97.4799370 125.7029160  27.8579380
  98.0282360 125.5217210  27.0945490  97.5454680 124.9123270  28.3935690
  98.2531130 142.2934810  25.8679580  97.6591450 142.1619510  26.6069620
  98.2454970 141.4572950  25.4021680 107.6986150 125.5867040  24.0709610
 106.8245990 125.9202150  23.8682540 107.5896900 125.1140220  24.8961480
 108.6058130 127.7937910  25.4551330 108.2771490 126.9789670  25.0753060
 109.5540430 127.7507720  25.3317020 111.0592740 143.5649950  22.4288900
 110.5995710 144.3165760  22.0546920 110.4305200 142.8456420  22.3703700
  97.8843360 139.6593190  24.8187620  97.1577420 139.0398480  24.7513570
  97.9452510 140.0533800  23.9485700 101.4888460 141.8738190  21.6037030
 102.0053480 141.2625550  21.0785290 102.1385840 142.3766970  22.0948040
 104.2283960 142.7646680  22.4306010 104.5161770 142.5100980  21.5539020
 104.7407180 142.2124040  23.0211580 105.4460970 126.5036880  23.0102520
 104.6632760 126.9782380  23.2899280 105.1523900 125.5991710  22.9015700
 109.9982040 127.2059980  21.0551610 110.4390130 127.1505080  20.2073210
 109.7289630 128.1217990  21.1261790 111.8620610 126.8375220  19.0660430
 111.8009010 125.8936440  18.9191450 112.6412640 126.9455310  19.6113890
  96.1673360 142.9767580  18.0284380  95.9995400 142.3438260  18.7266270
  95.3007870 143.1826980  17.6778570  96.7901380 126.8084360  15.5316240
  97.5480740 126.9213240  14.9580270  96.3278550 127.6453560  15.4859670
 103.3315190 128.9223630  18.5218550 102.5189700 128.5480520  18.1814430
 103.8356830 128.1668710  18.8239740 107.8340170 125.5866080  19.7601620
 108.4369540 126.1586290  20.2350140 107.0933160 126.1505520  19.5375520
 110.9774770 125.9887640  15.0341900 111.1725400 126.8871090  15.3009330
 110.1904640 125.7574720  15.5274850  97.7736060 141.6700810  15.4734520
  97.2483680 142.0508840  14.7696480  97.6980640 142.2951580  16.1944230
  99.1626530 127.3348410  14.0718210  99.6919290 126.5478210  13.9426160
  99.7954850 128.0139600  14.3053740 101.3564370 127.0723550  17.1263600
 100.7267110 126.3710860  17.2933730 100.8169510 127.8327680  16.9096760
 104.2956320 143.6862780  29.7974210 105.2223630 143.4507050  29.8410170
 104.2806750 144.5134780  29.3160240 112.5301380 143.2288350  16.7948460
 112.7053570 142.5426090  16.1509380 111.8322950 143.7535400  16.4025130
 101.4819930 126.3507530  29.5616090 101.2004200 126.8541130  28.7976910
 101.8639630 125.5529280  29.1958220 100.3729030 143.6183190  14.3483770
 101.1047850 143.3342470  13.8007660 100.6322700 143.3796470  15.2383150
  99.5343820 139.7347920  14.3530100  98.9052700 140.2033020  14.9015930
  99.6491650 138.8897140  14.7876290 108.0835390 125.7661110  30.1396560
 107.9700840 126.0855720  31.0348080 108.9005130 126.1673620  29.8433840
 110.8633880 142.9132640  29.6215250 111.6559200 142.4181870  29.4141210
 111.1567030 143.5922780  30.2290860 105.1211580 135.5632600   2.3840570
 104.3453680 135.0833040   2.6739140 105.7724510 134.8838250   2.2096730
  99.1377410 135.8752410   3.2616330  98.3062290 135.6201120   3.6612840
  99.7458390 135.9463180   3.9974250  99.1178670 139.9092500   3.4574350
  99.4206710 139.0190240   3.2784570  99.8622260 140.4662720   3.2296600
  95.5102370 133.4359950   2.9298420  96.0818480 132.6682150   2.9302060
  95.5103910 133.7348710   2.0205030 104.5620570 138.2389790   2.3910730
 104.4928850 137.2979730   2.2299860 105.3240430 138.3291200   2.9633300
  96.7527240 128.8444310   4.7167350  96.5730080 127.9470060   4.9970110
  96.3507320 129.3916180   5.3914300 105.5925740 131.0460170   2.6179660
 105.9690560 130.1732050   2.5053330 105.4945250 131.3818870   1.7270100
  97.3713910 131.3404810   3.3249690  98.0524020 131.6043180   3.9437090
  97.0561960 130.5005680   3.6587700 101.5638480 132.3872170   2.4122280
 102.0716700 132.8853140   3.0527300 102.0951720 131.6107370   2.2361640
 113.6649410 130.5577360   6.1151630 112.9601580 130.9459070   5.5966740
 113.9307330 131.2527650   6.7172560  99.8474580 127.0270730   6.6785700
  99.8493020 127.5443120   5.8731600  99.0178890 126.5500910   6.6555630
 101.0977430 136.6665910   4.8559200 100.7646810 137.2934830   5.4980270
 101.2744110 137.1927790   4.0760870 109.6111340 130.4810990   2.3235540
 108.9066910 130.7695880   2.9038650 109.9723500 131.2911100   1.9635100
  99.5289910 128.7380690   4.6856150  99.8706720 129.5822740   4.3910020
  98.5905720 128.8864430   4.8021490 100.3096530 138.6346710   6.6708380
 100.9270530 139.3097790   6.3892830  99.4489650 139.0434690   6.5795880
 111.2274120 140.0986120   4.5863020 110.5437640 140.7685230   4.5779690
 111.7668410 140.2966770   3.8207880 112.6798260 129.9265780   2.7144750
 111.7323170 129.9604760   2.8460180 113.0048250 130.7404730   3.0994110
 108.7632860 141.9430250   3.3008200 108.7760020 141.5392540   2.4330460
 108.2108080 142.7177540   3.1969630 108.1618300 136.8460090   4.6290810
 108.5787090 136.6320200   3.7944270 108.8858120 137.1032880   5.1999430
 112.1080400 135.2447310   4.7207050 111.2799030 135.3140400   4.2457180
 112.7030880 135.8301620   4.2522880 109.0722410 132.0316630   5.6661920
 108.6593590 132.8570340   5.9201910 108.3398360 131.4461670   5.4738280
 101.6736900 138.5044090   2.6919800 101.3765190 137.8989560   2.0127580
 102.6236720 138.5421400   2.5809160  99.9183820 131.5919740   4.3079630
 100.4698410 131.7015080   3.5332880 100.4327330 131.9657340   5.0234860
 109.7622510 142.0775960   6.3542900 109.2853070 142.8848150   6.1615510
 109.0784300 141.4254290   6.5069110 100.7655330 138.2425780   9.3427600
  99.8683860 138.4665750   9.5901000 100.7908200 138.3660720   8.3939000
  99.5926550 135.1139100   7.9184970  99.4534320 135.9861900   8.2872370
  98.7107910 134.7711910   7.7732910 101.3906900 141.0560800  10.1270120
 101.3622330 141.4603750   9.2598550 101.2271870 140.1271160   9.9641720
 113.3421720 141.8387900  11.4234290 113.8181440 142.3170790  12.1023370
 113.9628880 141.7705390  10.6979790  95.5445200 136.8836650   3.8355880
  95.6225620 137.0185420   2.8911600  96.1586880 136.1752540   4.0284000
 112.7454970 139.0300750   8.5834300 112.8718030 138.7912630   7.6651480
 112.7876350 138.1985290   9.0556380 106.6071710 142.7328750   7.1529110
 107.1216380 142.6436760   7.9551540 105.7640790 143.0788450   7.4457020
 112.5978980 131.0833210   9.5484040 111.9823250 131.5912880   9.0199500
 112.2775400 130.1831540   9.4909980  95.6004720 137.9250820   6.3750340
  95.7635760 137.4556180   5.5569710  96.0657170 137.4174380   7.0399180
 104.6593300 129.9225100   7.0146230 104.1972670 130.1308120   7.8266170
 104.2571410 129.1084450   6.7116900 109.6597810 131.1434050   8.1442890
 108.8091400 130.8439800   8.4651960 109.4999600 131.3876060   7.2326710
 106.7547520 132.6435800  10.2441680 107.0800930 131.8099550   9.9043910
 107.5427850 133.1664320  10.3920010 102.4099390 127.6003910   3.2700510
 102.7071720 128.5066740   3.1892530 102.9584950 127.1122690   2.6560080
 102.6036920 133.0775730   9.8052430 102.5080520 132.1370460   9.6552830
 103.4468900 133.2990800   9.4100500  97.7347460 129.4889400   7.9586210
  97.3410850 130.3364610   8.1658990  97.0465860 128.8515770   8.1494850
 104.3092510 129.5724370  11.0282950 103.6190830 129.3796570  11.6629040
 105.0524810 129.8559010  11.5607250  95.0364510 127.4117860   1.9916290
  94.7477560 127.9820720   2.7041270  95.7810270 126.9322310   2.3547520
 106.5855480 133.4122810   3.8636870 105.8536600 133.9209620   4.2126970
 106.1879820 132.5952790   3.5625650 103.0232870 130.0877010   2.2689360
 103.0268930 129.6466960   1.4193900 103.9183990 130.4094340   2.3761180
 107.0481390 128.8656490   3.2759810 107.0654130 129.3165140   4.1201660
 106.7996970 127.9662130   3.4893250 110.4752140 126.2788670   9.1146190
 110.7997910 125.5478330   9.6404170 110.5108650 125.9602310   8.2127180
  97.1743700 137.3002250   8.5346150  96.7898490 136.6595920   9.1329110
  97.4855890 138.0038370   9.1040880 103.3240840 134.1478790   4.0154770
 103.6910970 133.6737360   4.7616110 103.1345900 135.0220360   4.3563110
 101.1140210 133.1887430   6.3338980 100.8097280 134.0679410   6.5589340
 102.0686670 133.2487220   6.3696420 110.4009980 136.3913780   2.7232220
 111.1209100 136.8869070   2.3328330 110.1991800 135.7131670   2.0786090
 105.7828780 136.4622840   8.6101220 105.7166090 135.5418510   8.3558810
 105.1533920 136.5598280   9.3245860  97.1703940 134.0290170   7.4810340
  96.8118880 134.6944020   8.0683680  96.8758500 133.1973720   7.8522960
 100.3717060 134.4874410  10.3649890 100.0717200 134.6331590   9.4677710
 101.1428300 133.9279700  10.2723280 105.7145510 139.2843410   8.3605020
 105.7290050 138.3524370   8.1423930 105.0070610 139.3703170   8.9994790
 111.9256720 135.9250750   7.7073600 111.2004910 136.5179530   7.5102990
 112.4532180 135.9174290   6.9086970 105.1479410 140.9260980   5.4545520
 105.7921630 141.1320360   6.1318940 105.5108850 140.1649380   5.0016370
 106.4211490 138.9293330   4.1722970 107.0633720 138.2286490   4.2855140
 106.9460840 139.7091770   3.9919860 108.1949110 139.7288230   7.3759030
 108.5305350 140.3154920   8.0536950 107.2749450 139.5980940   7.6056820
  95.7452510 127.5183410   8.1582440  95.0311030 127.7180330   8.7635050
  96.1647550 126.7422980   8.5297240  96.0325100 141.5063670   9.1448970
  96.1416220 140.5658410   9.0044360  95.3805660 141.7718420   8.4962700
 104.0237690 139.7779560  10.5447090 103.7034560 139.0588800  11.0892780
 103.3496050 140.4534630  10.6183150 107.2391290 130.0105720   5.9083890
 107.6072110 129.1900930   6.2363460 106.3789490 130.0707610   6.3239540
 104.1993280 132.6645310   6.1321860 104.6978530 133.1391130   6.7973710
 104.3416230 131.7408830   6.3391890 111.4060140 128.8813270   6.9750250
 110.9033740 129.6218670   7.3144060 112.2216800 129.2697270   6.6587040
 111.7007730 141.2955300   2.0965870 111.8255150 142.1186470   2.5689680
 112.5673290 141.0846030   1.7490020  99.1725260 143.3886510   1.7683000
  99.9087740 142.8401970   2.0391570  99.5566180 144.2542520   1.6288990
  98.1783540 142.5732580  10.9568580  98.9796270 142.8944630  11.3703980
  97.6635360 142.2128160  11.6788490 107.0148170 138.6812450  10.9043990
 106.4086330 138.7044050  10.1639740 106.7102280 137.9495490  11.4411240
 108.4448540 142.4092740   9.5153400 109.3970290 142.3250760   9.4653640
 108.2976760 143.0734450  10.1887190  95.8981350 135.0606040   9.9004630
  96.4020370 134.4813320  10.4720860  95.1588770 135.3446270  10.4381000
 102.9519290 136.4677030   9.4340150 102.1864960 137.0362030   9.3494820
 103.1335250 136.1753240   8.5408380 110.0942640 138.1982360   9.9915170
 110.8352110 138.5358120   9.4882630 109.3315320 138.3674420   9.4384940
  97.9304430 133.2035630  10.7954700  97.9709770 132.9049500  11.7039930
  98.7849930 133.6043240  10.6362220  99.8710240 131.7827730   8.7629190
  99.3406700 131.2918680   8.1352530 100.5398310 132.2111930   8.2287120
 108.7688300 136.2497190   8.5270380 109.1829320 136.4042270   9.3760800
 107.8339300 136.3752410   8.6896160 109.2410470 133.5893350  10.5309530
 109.8231240 132.8345670  10.4430010 109.4172240 134.1200790   9.7541010
 100.3582540 128.7490100   8.8426480 100.2639410 128.1310850   8.1177350
  99.7779930 129.4756390   8.6156390 103.1243980 127.3063340   5.8753870
 102.6761280 127.3287600   5.0299420 102.4909180 126.9082360   6.4724170
 103.5303530 136.2017670   6.4966310 103.9491640 137.0450400   6.3242550
 102.6112160 136.3389710   6.2673090 105.8667430 133.9333850   7.8804150
 105.9863640 133.3374990   8.6198990 106.7261430 133.9703540   7.4605450
 108.2055330 134.4871040   6.4566660 107.6790550 135.0113660   5.8531800
 108.5486670 135.1198430   7.0876390 101.3810950 142.5070680   7.6124040
 100.8432040 143.2316740   7.2932740 101.6344910 142.0301020   6.8221380
 102.6336200 130.4755200   9.1379970 103.2235890 130.1671050   9.8257790
 101.8156440 130.0034950   9.2939870 107.4529630 130.0921010   9.3712990
 106.7645150 129.4302550   9.3062980 108.1735650 129.6459280   9.8161450
 104.2373160 143.7421890   7.8710690 104.1631860 144.6457030   8.1783060
 103.3352000 143.4233790   7.8432760  96.1290660 141.9367070   3.9125940
  95.6921650 142.1167870   4.7450090  96.6968340 142.6941690   3.7707660
 111.7652840 141.4384070   8.2003250 111.1654830 141.4976630   7.4567170
 111.8946740 140.4989050   8.3300100 110.4504480 138.1636050   6.2979410
 109.6364320 138.5933210   6.5605200 110.8578680 138.7754460   5.6848460
  96.9991020 134.8339870   4.8118160  97.3664060 134.7467270   5.6914180
  96.4301840 134.0706420   4.7125020 111.7994880 133.3024250   7.8248630
 111.5680970 133.0737000   6.9246580 112.0599430 134.2223800   7.7793520
  96.5507020 131.7448960   8.7176580  95.6563070 131.7115720   9.0570290
  97.0904570 131.9435750   9.4827830 110.2382950 128.5280680  10.6028330
 111.1153130 128.5364080  10.9862330 110.2503790 127.7911520   9.9920680
 111.8635940 132.4650090   5.0135900 110.9138650 132.4313630   5.1280890
 112.0448950 133.3750200   4.7785670  97.0546730 126.0197290   3.0659800
  97.7022920 125.4694670   2.6254960  97.4748570 126.2740440   3.8875610
 110.9499070 126.2138650   6.4229440 111.5871290 126.8272790   6.7888630
 111.0973960 126.2499310   5.4778670  96.8078730 126.1752960   5.8085120
  96.4593550 126.6316780   6.5743300  96.4766430 125.2810090   5.8907550
  98.4143100 139.3472560   9.9738310  98.3712730 138.9765470  10.8552770
  98.5454110 140.2850130  10.1140130 102.1149130 140.9032150   5.5748030
 101.8740490 141.1706710   4.6878550 103.0551770 141.0737880   5.6298890
 104.3203550 127.3664840   9.3304540 104.2592440 127.9586670  10.0799950
 105.2603930 127.2590800   9.1854800 106.9578110 127.0234900   8.9696830
 107.5718520 127.3414190   8.3077910 107.5027670 126.5383490   9.5892690
 113.3753290 142.9226530   6.3758670 112.8811570 143.3195400   5.6585800
 112.7666580 142.2975740   6.7695950  97.4799370 125.7029160   9.0835890
  98.0282360 125.5217210   8.3202000  97.5454680 124.9123270   9.6192200
  98.2531130 142.2934810   7.0936090  97.6591450 142.1619510   7.8326130
  98.2454970 141.4572950   6.6278190 107.6986150 125.5867040   5.2966120
 106.8245990 125.9202150   5.0939050 107.5896900 125.1140220   6.1217990
 108.6058130 127.7937910   6.6807840 108.2771490 126.9789670   6.3009570
 109.5540430 127.7507720   6.5573530 111.0592740 143.5649950   3.6545410
 110.5995710 144.3165760   3.2803430 110.4305200 142.8456420   3.5960210
  97.8843360 139.6593190   6.0444130  97.1577420 139.0398480   5.9770080
  97.9452510 140.0533800   5.1742210 101.4888460 141.8738190   2.8293540
 102.0053480 141.2625550   2.3041800 102.1385840 142.3766970   3.3204550
 104.2283960 142.7646680   3.6562520 104.5161770 142.5100980   2.7795530
 104.7407180 142.2124040   4.2468090 105.4460970 126.5036880   4.2359030
 104.6632760 126.9782380   4.5155790 105.1523900 125.5991710   4.1272210
 109.9982040 127.2059980   2.2808120 110.4390130 127.1505080   1.4329720
 109.7289630 128.1217990   2.3518300 104.2956320 143.6862780  11.0230720
 105.2223630 143.4507050  11.0666680 104.2806750 144.5134780  10.5416750
 101.4819930 126.3507530  10.7872600 101.2004200 126.8541130  10.0233420
 101.8639630 125.5529280  10.4214730 108.0835390 125.7661110  11.3653070
 107.9700840 126.0855720  12.2604590 108.9005130 126.1673620  11.0690350
 110.8633880 142.9132640  10.8471760 111.6559200 142.4181870  10.6397720
 111.1567030 143.5922780  11.4547370 106.9893540 115.0110090 150.6979220
 106.9087590 114.0964700 150.4270930 106.5757960 115.5077160 149.9918930
 105.1211580 116.7889110 152.5788490 104.3453680 116.3089550 152.8687060
 105.7724510 116.1094760 152.4044650 109.1419010 121.1949300 151.3587620
 108.6800540 120.4236540 151.6874790 109.9544560 121.2215370 151.8640070
  97.5469360 112.0610810 147.2406640  96.6586060 112.4026780 147.1386520
  97.8310550 111.8611130 146.3487470  95.5102370 114.6616460 153.1246340
  96.0818480 113.8938660 153.1249980  95.5103910 114.9605220 152.2152950
 105.3682320 123.4807310 150.9791610 104.7493760 123.9364810 150.4086050
 106.2234100 123.6358770 150.5781310 104.5620570 119.4646300 152.5858650
 104.4928850 118.5236240 152.4247780 105.3240430 119.5547710 153.1581220
 105.5925740 112.2716680 152.8127580 105.9690560 111.3988560 152.7001250
 105.4945250 112.6075380 151.9218020  99.7230750 110.6442310 148.2745020
  99.8297500 111.5446040 148.5813780  98.8123110 110.5960280 147.9839670
 109.3749860 109.7667120 149.7455920 110.1959480 109.2763690 149.7881400
 109.4083940 110.3564780 150.4987760 106.2345670 118.3646550 148.3723520
 105.6162940 118.8296000 147.8086240 106.7468920 119.0574030 148.7893030
 109.6111340 111.7067500 152.5183460 108.9066910 111.9952390 153.0986570
 109.9723500 112.5167610 152.1583020  95.6028870 119.0503080 145.7463150
  95.2256850 119.5390180 145.0148050  95.8601940 119.7228360 146.3769680
 103.2117800 107.4519470 151.2048660 103.5192780 106.8966360 150.4884160
 102.2818500 107.5863930 151.0221650 110.0578280 119.8902980 148.5846290
 109.9474610 118.9477310 148.7095710 110.0546530 120.2518620 149.4709050
 105.5998560 115.5168300 147.9408780 104.6727840 115.4505680 148.1697250
 105.7523380 116.4548430 147.8264020 105.5867640 111.7885300 144.9375940
 104.6471310 111.9499260 145.0228400 105.9050900 112.5070980 144.3911930
 109.6295850 117.0788600 148.4444030 109.0108270 116.7408150 147.7970330
 109.6120300 116.4348360 149.1523220 101.2055200 116.0433040 150.7228510
 100.8012200 115.3310290 150.2274410 101.2918320 115.6986280 151.6116550
 101.6736900 119.7300600 152.8867720 101.3765190 119.1246070 152.2075500
 102.6236720 119.7677910 152.7757080 107.8060550 116.3175410 145.4516780
 108.2453830 115.4797840 145.3054600 108.5188970 116.9504810 145.5380920
 105.9155930 121.2571480 149.4198020 106.3551840 121.9995810 149.0053410
 105.8542820 121.4998050 150.3436980 111.3877690 107.5718220 143.7657820
 111.0750350 107.6645050 144.6656890 112.1490160 108.1499250 143.7155250
  97.9059830 114.9378020 148.2235160  97.7857430 115.6640110 147.6116430
  97.5960720 114.1680930 147.7463070  96.7892830 119.8093350 150.4409980
  96.3820910 119.9507940 149.5863580  97.6805840 119.5253510 150.2381190
 108.5826110 124.2440600 146.7761030 108.4227250 123.9543540 147.6742860
 108.4172820 123.4680730 146.2406260 101.0614490 124.0239130 148.5532650
 100.8856970 123.1074670 148.3400450 100.2070230 124.3826420 148.7930450
 108.2852240 121.7528160 145.3359030 107.5917400 121.7505450 144.6761310
 109.0275100 121.3287480 144.9053200 107.8502170 123.3790870 149.4107520
 108.3059120 122.5980250 149.7246140 108.1894690 124.0897690 149.9548700
 100.3723490 108.2813090 151.6058830  99.9291640 109.0622630 151.2743350
 100.9308480 108.6042980 152.3129770 103.4882310 107.9023790 146.4864660
 102.8636490 107.8983660 147.2117970 103.4012430 107.0354750 146.0900630
 100.1637710 113.4046660 149.3340080  99.9378630 113.1883830 150.2386700
  99.3830240 113.8375120 148.9886050 107.3935470 113.4110030 147.9330730
 106.7944360 114.1345830 147.7494350 107.9415080 113.3486810 147.1507180
 106.0000340 112.0473570 149.9634010 106.3929910 112.3645770 149.1502700
 106.3617190 111.1685450 150.0778530  95.0364510 108.6374370 152.1864210
  94.7477560 109.2077230 152.8989190  95.7810270 108.1578820 152.5495440
  95.2234740 112.5794490 143.3966930  95.1409410 113.5225250 143.5381920
  94.8717800 112.4369400 142.5179280 103.0232870 111.3133520 152.4637280
 103.0268930 110.8723470 151.6141820 103.9183990 111.6350850 152.5709100
  98.8735250 111.1960010 151.4231490  98.5335300 111.6735240 152.1798540
  98.1112570 110.7425130 151.0632590 103.0853020 112.3145600 145.4544040
 103.2065840 112.2732080 146.4029860 102.7001530 113.1769750 145.2990770
 102.0974520 114.6246740 144.8527340 101.5291420 114.1764990 144.2263250
 102.8063520 114.9839520 144.3192490  96.1881330 110.1178990 150.3396160
  95.9028250 109.7534660 151.1774780  96.1260190 109.3859450 149.7259300
  99.6422000 118.6204930 147.1253750  98.8684260 118.0802550 146.9652470
 100.3716630 118.1011540 146.7871510 110.4009980 117.6170290 152.9180140
 111.1209100 118.1125580 152.5276250 110.1991800 116.9388180 152.2734010
 105.8619920 109.0108250 147.0609530 105.0484530 108.5121420 146.9854840
 105.6681870 109.8506500 146.6445880 108.5768310 113.3827900 145.3571690
 109.4647930 113.6945130 145.1823030 108.5473400 112.5100150 144.9652270
  99.6859400 118.2885310 150.7632560 100.2038070 117.4853570 150.7089450
  99.2343420 118.2264450 151.6049390 104.5728900 119.5551590 146.0359860
 104.9144600 120.2993820 145.5403180 103.7441610 119.8682710 146.3984690
 110.8482580 114.6939740 144.8251550 110.7646300 115.1253960 143.9747990
 111.5676770 115.1538090 145.2578370 111.8769830 121.5482000 147.5533680
 111.2345990 120.8937620 147.8277400 111.4900490 121.9537090 146.7774350
 107.4556310 118.8767430 151.4005370 107.8080130 118.2795560 150.7406740
 106.5718640 118.5511660 151.5713620 103.5419590 119.6365120 148.8075780
 104.2290720 120.1834330 149.1883370 102.7552010 120.1805850 148.8425390
  95.6811990 115.2537940 144.2992860  96.5506840 115.5362740 144.5828780
  95.1902310 116.0673810 144.1841670 102.8446800 116.6411150 148.4201140
 103.3009580 117.4516400 148.6461330 102.4935010 116.3234290 149.2519630
  98.7458580 106.9848800 148.8923660  98.6173210 106.9766700 149.8408580
  97.9220600 107.3231890 148.5414670 110.2667210 120.4398460 144.0910030
 110.0404790 119.7228900 144.6834670 109.8763410 120.1910900 143.2531780
  96.0483240 124.4665320 144.8654490  96.4080880 125.0654660 144.2111760
  95.9075580 125.0125210 145.6389520 109.8483460 118.3570400 145.7524190
 109.5605160 118.8183090 146.5402070 110.6435630 117.8968170 146.0208410
 102.0651860 121.8496520 145.6828160 102.0561960 122.5826210 145.0672670
 101.1450220 121.6028100 145.7755120  97.6658500 117.0711410 146.4274920
  97.0586450 117.8110310 146.4370220  98.1407850 117.1610770 145.6013120
 110.6053320 110.1919170 146.9119370 109.9766480 110.2964840 146.1977600
 110.1105240 110.4115950 147.7013250 105.0511460 121.9124760 144.3453350
 105.1523440 121.7088750 143.4155330 104.1513200 121.6583040 144.5501130
 102.5737350 112.4705120 148.3277250 101.8653500 112.9391460 148.7690860
 102.8581830 111.8127130 148.9622440 106.6052780 109.1955780 149.7673040
 106.4820560 109.2141910 148.8182550 107.5537340 109.2434720 149.8871440
 103.6929570 124.4311080 149.0401020 103.9471070 124.3932470 148.1180390
 102.7442050 124.3044410 149.0329270 100.7772370 110.7790200 145.7027960
 101.6262900 111.2160350 145.6368150 100.4103640 111.0910460 146.5300020
 109.6982150 115.3502960 150.6159530 108.7572290 115.3653190 150.7907220
 110.0126220 114.5638920 151.0619830  99.6763790 117.0322560 144.1763490
 100.4427060 116.9203920 144.7388920  99.7538480 116.3360530 143.5240260
  98.3710550 114.4647630 144.8596380  98.4514140 113.5175140 144.9713780
  99.2630300 114.7954510 144.9657040 111.7007730 122.5211810 152.2913790
 111.8255150 123.3442980 152.7637600 112.5673290 122.3102540 151.9437940
  99.1725260 124.6143020 151.9630920  99.9087740 124.0658480 152.2339490
  99.5566180 125.4799030 151.8236910  96.0570740 120.6816590 147.8372430
  95.1310520 120.9237730 147.8277840  96.5227170 121.5090850 147.7157180
 102.2827570 123.7873330 143.7856490 103.0756180 124.0762160 143.3338280
 101.7631920 123.3565500 143.1068970 111.3357740 123.0143460 145.2093230
 111.0499250 122.6008600 144.3947410 111.1377290 123.9431170 145.0893750
 102.8004970 119.0076740 143.6498840 102.6955610 118.3929090 144.3760220
 102.6329190 118.4842630 142.8661850 106.0407700 118.0696770 144.2540830
 105.4917800 118.5166070 144.8983570 106.6626960 117.5646020 144.7778500
 101.7082820 117.0287690 146.1506130 102.1299240 116.8627560 146.9937520
 101.8333660 116.2187920 145.6561270 104.2210460 116.0525300 143.3983230
 104.7416120 115.3374320 143.0324380 104.8678860 116.6911170 143.6983740
 100.6041720 113.1020920 143.0964290 100.4030780 112.2388280 143.4577630
 100.4333770 113.0154280 142.1585890 108.0830030 107.9129150 145.6251170
 108.3632320 107.0697050 145.9810590 107.3095760 108.1452260 146.1389920
  99.4024520 110.2021540 143.0842170  99.7050420 110.2088970 142.1761320
 100.1419110 109.8519400 143.5809830 102.6209450 109.1456160 144.0698370
 102.2731450 108.4680150 143.4900820 102.8222220 108.6845670 144.8841760
 104.7858490 124.1336910 145.6884970 105.6809280 124.4721880 145.7103730
 104.8176120 123.4116320 145.0609250  98.4254650 119.5063960 143.9171970
  98.8629520 120.0493630 144.5729550  98.9102380 118.6810910 143.9268310
  95.6400450 122.2952990 151.3692230  95.9703460 121.4274050 151.1370870
  96.0691450 122.5011510 152.1997190 100.2362370 120.6262000 149.0294200
  99.9357910 120.5026970 149.9298110 100.1299860 119.7670590 148.6209930
 113.0054290 120.4058400 143.7320880 112.1747250 120.4735050 144.2028110
 113.1826120 121.2962520 143.4287740 112.4610750 117.1505880 146.2355080
 113.2229660 117.7202530 146.3414770 112.4765120 116.5833080 147.0063390
  95.9615090 115.6743810 150.4662740  95.3063930 115.4055450 149.8222440
  96.7993040 115.5648290 150.0164720 113.4670720 118.0055980 151.0797010
 113.8379550 117.2223300 150.6732980 114.1072650 118.6945080 150.9014310
 112.5129920 117.4440250 143.3927600 112.7878760 118.3519130 143.2646820
 112.3240660 117.3802780 144.3289590 108.9105530 110.4685100 144.6881230
 109.3290410 110.2816080 143.8477890 108.6041590 109.6164150 144.9984160
 112.4095260 115.3809240 148.3857030 112.0338860 114.6137170 147.9538320
 111.6798380 115.7631940 148.8731960  95.1753170 112.8842740 146.4088070
  94.2717250 113.1472940 146.2339730  95.6593790 113.1553910 145.6288030
 111.6846220 113.6066730 151.6864270 112.2083700 113.1129380 151.0554440
 112.2705640 113.7417090 152.4311840  97.7180380 111.9408280 144.3182450
  98.4272080 111.5191500 143.8329730  97.0020320 112.0083510 143.6865800
  97.3654540 107.9947610 143.3585100  98.0882670 108.5356550 143.6766320
  97.6379060 107.7211030 142.4826640 111.1746190 112.8640080 147.6256680
 111.6705310 112.6310950 148.4105560 110.9762260 112.0251920 147.2094320
 112.6033350 111.5001030 150.1594360 112.4932630 111.3457070 151.0976630
 113.3640940 110.9721970 149.9169770 113.4923620 109.3308950 143.4000500
 114.4172930 109.1990130 143.1918790 113.4699410 109.4101770 144.3536950
 113.5662110 110.1019610 146.0257210 112.7713610 110.0364730 146.5550120
 113.7705390 111.0370250 146.0142560 110.5080530 124.1411160 150.0195600
 111.1039600 123.8195730 149.3430020 110.7658680 123.6682980 150.8108870
 109.9982040 108.4316490 152.4756040 110.4390130 108.3761590 151.6277640
 109.7289630 109.3474500 152.5466220 111.8620610 108.0631730 150.4864860
 111.8009010 107.1192950 150.3395880 112.6412640 108.1711820 151.0318320
  96.1673360 124.2024090 149.4488810  95.9995400 123.5694770 150.1470700
  95.3007870 124.4083490 149.0983000  96.7901380 108.0340870 146.9520670
  97.5480740 108.1469750 146.3784700  96.3278550 108.8710070 146.9064100
 103.3315190 110.1480140 149.9422980 102.5189700 109.7737030 149.6018860
 103.8356830 109.3925220 150.2444170 107.8340170 106.8122590 151.1806050
 108.4369540 107.3842800 151.6554570 107.0933160 107.3762030 150.9579950
 110.9774770 107.2144150 146.4546330 111.1725400 108.1127600 146.7213760
 110.1904640 106.9831230 146.9479280  97.7736060 122.8957320 146.8938950
  97.2483680 123.2765350 146.1900910  97.6980640 123.5208090 147.6148660
  99.1626530 108.5604920 145.4922640  99.6919290 107.7734720 145.3630590
  99.7954850 109.2396110 145.7258170 101.3564370 108.2980060 148.5468030
 100.7267110 107.5967370 148.7138160 100.8169510 109.0584190 148.3301190
 112.5301380 124.4544860 148.2152890 112.7053570 123.7682600 147.5713810
 111.8322950 124.9791910 147.8229560 100.3729030 124.8439700 145.7688200
 101.1047850 124.5598980 145.2212090 100.6322700 124.6052980 146.6587580
  99.5343820 120.9604430 145.7734530  98.9052700 121.4289530 146.3220360
  99.6491650 120.1153650 146.2080720 106.9893540 115.0110090 131.9235730
 106.9087590 114.0964700 131.6527440 106.5757960 115.5077160 131.2175440
 105.1211580 116.7889110 133.8045000 104.3453680 116.3089550 134.0943570
 105.7724510 116.1094760 133.6301160  99.1377410 117.1008920 134.6820760
  98.3062290 116.8457630 135.0817270  99.7458390 117.1719690 135.4178680
 109.1419010 121.1949300 132.5844130 108.6800540 120.4236540 132.9131300
 109.9544560 121.2215370 133.0896580  99.1178670 121.1349010 134.8778780
  99.4206710 120.2446750 134.6989000  99.8622260 121.6919230 134.6501030
  97.5469360 112.0610810 128.4663150  96.6586060 112.4026780 128.3643030
  97.8310550 111.8611130 127.5743980  95.5102370 114.6616460 134.3502850
  96.0818480 113.8938660 134.3506490  95.5103910 114.9605220 133.4409460
 105.3682320 123.4807310 132.2048120 104.7493760 123.9364810 131.6342560
 106.2234100 123.6358770 131.8037820 104.5620570 119.4646300 133.8115160
 104.4928850 118.5236240 133.6504290 105.3240430 119.5547710 134.3837730
  96.7527240 110.0700820 136.1371780  96.5730080 109.1726570 136.4174540
  96.3507320 110.6172690 136.8118730 105.5925740 112.2716680 134.0384090
 105.9690560 111.3988560 133.9257760 105.4945250 112.6075380 133.1474530
  99.7230750 110.6442310 129.5001530  99.8297500 111.5446040 129.8070290
  98.8123110 110.5960280 129.2096180 109.3749860 109.7667120 130.9712430
 110.1959480 109.2763690 131.0137910 109.4083940 110.3564780 131.7244270
  97.3713910 112.5661320 134.7454120  98.0524020 112.8299690 135.3641520
  97.0561960 111.7262190 135.0792130 101.5638480 113.6128680 133.8326710
 102.0716700 114.1109650 134.4731730 102.0951720 112.8363880 133.6566070
 113.6649410 111.7833870 137.5356060 112.9601580 112.1715580 137.0171170
 113.9307330 112.4784160 138.1376990  99.8474580 108.2527240 138.0990130
  99.8493020 108.7699630 137.2936030  99.0178890 107.7757420 138.0760060
 106.2345670 118.3646550 129.5980030 105.6162940 118.8296000 129.0342750
 106.7468920 119.0574030 130.0149540 101.0977430 117.8922420 136.2763630
 100.7646810 118.5191340 136.9184700 101.2744110 118.4184300 135.4965300
 109.6111340 111.7067500 133.7439970 108.9066910 111.9952390 134.3243080
 109.9723500 112.5167610 133.3839530  99.5289910 109.9637200 136.1060580
  99.8706720 110.8079250 135.8114450  98.5905720 110.1120940 136.2225920
 100.3096530 119.8603220 138.0912810 100.9270530 120.5354300 137.8097260
  99.4489650 120.2691200 138.0000310  95.6028870 119.0503080 126.9719660
  95.2256850 119.5390180 126.2404560  95.8601940 119.7228360 127.6026190
 111.2274120 121.3242630 136.0067450 110.5437640 121.9941740 135.9984120
 111.7668410 121.5223280 135.2412310 112.6798260 111.1522290 134.1349180
 111.7323170 111.1861270 134.2664610 113.0048250 111.9661240 134.5198540
 103.2117800 107.4519470 132.4305170 103.5192780 106.8966360 131.7140670
 102.2818500 107.5863930 132.2478160 108.7632860 123.1686760 134.7212630
 108.7760020 122.7649050 133.8534890 108.2108080 123.9434050 134.6174060
 110.0578280 119.8902980 129.8102800 109.9474610 118.9477310 129.9352220
 110.0546530 120.2518620 130.6965560 108.1618300 118.0716600 136.0495240
 108.5787090 117.8576710 135.2148700 108.8858120 118.3289390 136.6203860
 105.5998560 115.5168300 129.1665290 104.6727840 115.4505680 129.3953760
 105.7523380 116.4548430 129.0520530 112.1080400 116.4703820 136.1411480
 111.2799030 116.5396910 135.6661610 112.7030880 117.0558130 135.6727310
 109.6295850 117.0788600 129.6700540 109.0108270 116.7408150 129.0226840
 109.6120300 116.4348360 130.3779730 109.0722410 113.2573140 137.0866350
 108.6593590 114.0826850 137.3406340 108.3398360 112.6718180 136.8942710
 101.2055200 116.0433040 131.9485020 100.8012200 115.3310290 131.4530920
 101.2918320 115.6986280 132.8373060 101.6736900 119.7300600 134.1124230
 101.3765190 119.1246070 133.4332010 102.6236720 119.7677910 134.0013590
  99.9183820 112.8176250 135.7284060 100.4698410 112.9271590 134.9537310
 100.4327330 113.1913850 136.4439290 109.7622510 123.3032470 137.7747330
 109.2853070 124.1104660 137.5819940 109.0784300 122.6510800 137.9273540
 100.7655330 119.4682290 140.7632030  99.8683860 119.6922260 141.0105430
 100.7908200 119.5917230 139.8143430 107.8060550 116.3175410 126.6773290
 108.2453830 115.4797840 126.5311110 108.5188970 116.9504810 126.7637430
  99.5926550 116.3395610 139.3389400  99.4534320 117.2118410 139.7076800
  98.7107910 115.9968420 139.1937340 105.9155930 121.2571480 130.6454530
 106.3551840 121.9995810 130.2309920 105.8542820 121.4998050 131.5693490
 101.3906900 122.2817310 141.5474550 101.3622330 122.6860260 140.6802980
 101.2271870 121.3527670 141.3846150 111.3877690 107.5718220 124.9914330
 111.0750350 107.6645050 125.8913400 112.1490160 108.1499250 124.9411760
  97.9059830 114.9378020 129.4491670  97.7857430 115.6640110 128.8372940
  97.5960720 114.1680930 128.9719580 113.3421720 123.0644410 142.8438720
 113.8181440 123.5427300 143.5227800 113.9628880 122.9961900 142.1184220
  95.5445200 118.1093160 135.2560310  95.6225620 118.2441930 134.3116030
  96.1586880 117.4009050 135.4488430  96.7892830 119.8093350 131.6666490
  96.3820910 119.9507940 130.8120090  97.6805840 119.5253510 131.4637700
 112.7454970 120.2557260 140.0038730 112.8718030 120.0169140 139.0855910
 112.7876350 119.4241800 140.4760810 106.6071710 123.9585260 138.5733540
 107.1216380 123.8693270 139.3755970 105.7640790 124.3044960 138.8661450
 108.5826110 124.2440600 128.0017540 108.4227250 123.9543540 128.8999370
 108.4172820 123.4680730 127.4662770 101.0614490 124.0239130 129.7789160
 100.8856970 123.1074670 129.5656960 100.2070230 124.3826420 130.0186960
 108.2852240 121.7528160 126.5615540 107.5917400 121.7505450 125.9017820
 109.0275100 121.3287480 126.1309710 107.8502170 123.3790870 130.6364030
 108.3059120 122.5980250 130.9502650 108.1894690 124.0897690 131.1805210
 112.5978980 112.3089720 140.9688470 111.9823250 112.8169390 140.4403930
 112.2775400 111.4088050 140.9114410  95.6004720 119.1507330 137.7954770
  95.7635760 118.6812690 136.9774140  96.0657170 118.6430890 138.4603610
 100.3723490 108.2813090 132.8315340  99.9291640 109.0622630 132.4999860
 100.9308480 108.6042980 133.5386280 104.6593300 111.1481610 138.4350660
 104.1972670 111.3564630 139.2470600 104.2571410 110.3340960 138.1321330
 109.6597810 112.3690560 139.5647320 108.8091400 112.0696310 139.8856390
 109.4999600 112.6132570 138.6531140 106.7547520 113.8692310 141.6646110
 107.0800930 113.0356060 141.3248340 107.5427850 114.3920830 141.8124440
 103.4882310 107.9023790 127.7121170 102.8636490 107.8983660 128.4374480
 103.4012430 107.0354750 127.3157140 102.4099390 108.8260420 134.6904940
 102.7071720 109.7323250 134.6096960 102.9584950 108.3379200 134.0764510
 100.1637710 113.4046660 130.5596590  99.9378630 113.1883830 131.4643210
  99.3830240 113.8375120 130.2142560 107.3935470 113.4110030 129.1587240
 106.7944360 114.1345830 128.9750860 107.9415080 113.3486810 128.3763690
 102.6036920 114.3032240 141.2256860 102.5080520 113.3626970 141.0757260
 103.4468900 114.5247310 140.8304930 106.0000340 112.0473570 131.1890520
 106.3929910 112.3645770 130.3759210 106.3617190 111.1685450 131.3035040
  97.7347460 110.7145910 139.3790640  97.3410850 111.5621120 139.5863420
  97.0465860 110.0772280 139.5699280 104.3092510 110.7980880 142.4487380
 103.6190830 110.6053080 143.0833470 105.0524810 111.0815520 142.9811680
  95.0364510 108.6374370 133.4120720  94.7477560 109.2077230 134.1245700
  95.7810270 108.1578820 133.7751950  95.2234740 112.5794490 124.6223440
  95.1409410 113.5225250 124.7638430  94.8717800 112.4369400 123.7435790
 106.5855480 114.6379320 135.2841300 105.8536600 115.1466130 135.6331400
 106.1879820 113.8209300 134.9830080 103.0232870 111.3133520 133.6893790
 103.0268930 110.8723470 132.8398330 103.9183990 111.6350850 133.7965610
  98.8735250 111.1960010 132.6488000  98.5335300 111.6735240 133.4055050
  98.1112570 110.7425130 132.2889100 103.0853020 112.3145600 126.6800550
 103.2065840 112.2732080 127.6286370 102.7001530 113.1769750 126.5247280
 107.0481390 110.0913000 134.6964240 107.0654130 110.5421650 135.5406090
 106.7996970 109.1918640 134.9097680 102.0974520 114.6246740 126.0783850
 101.5291420 114.1764990 125.4519760 102.8063520 114.9839520 125.5449000
 110.4752140 107.5045180 140.5350620 110.7997910 106.7734840 141.0608600
 110.5108650 107.1858820 139.6331610  97.1743700 118.5258760 139.9550580
  96.7898490 117.8852430 140.5533540  97.4855890 119.2294880 140.5245310
 103.3240840 115.3735300 135.4359200 103.6910970 114.8993870 136.1820540
 103.1345900 116.2476870 135.7767540  96.1881330 110.1178990 131.5652670
  95.9028250 109.7534660 132.4031290  96.1260190 109.3859450 130.9515810
 101.1140210 114.4143940 137.7543410 100.8097280 115.2935920 137.9793770
 102.0686670 114.4743730 137.7900850  99.6422000 118.6204930 128.3510260
  98.8684260 118.0802550 128.1908980 100.3716630 118.1011540 128.0128020
 110.4009980 117.6170290 134.1436650 111.1209100 118.1125580 133.7532760
 110.1991800 116.9388180 133.4990520 105.8619920 109.0108250 128.2866040
 105.0484530 108.5121420 128.2111350 105.6681870 109.8506500 127.8702390
 105.7828780 117.6879350 140.0305650 105.7166090 116.7675020 139.7763240
 105.1533920 117.7854790 140.7450290 108.5768310 113.3827900 126.5828200
 109.4647930 113.6945130 126.4079540 108.5473400 112.5100150 126.1908780
  99.6859400 118.2885310 131.9889070 100.2038070 117.4853570 131.9345960
  99.2343420 118.2264450 132.8305900 104.5728900 119.5551590 127.2616370
 104.9144600 120.2993820 126.7659690 103.7441610 119.8682710 127.6241200
  97.1703940 115.2546680 138.9014770  96.8118880 115.9200530 139.4888110
  96.8758500 114.4230230 139.2727390 100.3717060 115.7130920 141.7854320
 100.0717200 115.8588100 140.8882140 101.1428300 115.1536210 141.6927710
 105.7145510 120.5099920 139.7809450 105.7290050 119.5780880 139.5628360
 105.0070610 120.5959680 140.4199220 110.8482580 114.6939740 126.0508060
 110.7646300 115.1253960 125.2004500 111.5676770 115.1538090 126.4834880
 111.9256720 117.1507260 139.1278030 111.2004910 117.7436040 138.9307420
 112.4532180 117.1430800 138.3291400 111.8769830 121.5482000 128.7790190
 111.2345990 120.8937620 129.0533910 111.4900490 121.9537090 128.0030860
 107.4556310 118.8767430 132.6261880 107.8080130 118.2795560 131.9663250
 106.5718640 118.5511660 132.7970130 103.5419590 119.6365120 130.0332290
 104.2290720 120.1834330 130.4139880 102.7552010 120.1805850 130.0681900
  95.6811990 115.2537940 125.5249370  96.5506840 115.5362740 125.8085290
  95.1902310 116.0673810 125.4098180 102.8446800 116.6411150 129.6457650
 103.3009580 117.4516400 129.8717840 102.4935010 116.3234290 130.4776140
 105.1479410 122.1517490 136.8749950 105.7921630 122.3576870 137.5523370
 105.5108850 121.3905890 136.4220800  98.7458580 106.9848800 130.1180170
  98.6173210 106.9766700 131.0665090  97.9220600 107.3231890 129.7671180
 106.4211490 120.1549840 135.5927400 107.0633720 119.4543000 135.7059570
 106.9460840 120.9348280 135.4124290 110.2667210 120.4398460 125.3166540
 110.0404790 119.7228900 125.9091180 109.8763410 120.1910900 124.4788290
 108.1949110 120.9544740 138.7963460 108.5305350 121.5411430 139.4741380
 107.2749450 120.8237450 139.0261250  96.0483240 124.4665320 126.0911000
  96.4080880 125.0654660 125.4368270  95.9075580 125.0125210 126.8646030
  95.7452510 108.7439920 139.5786870  95.0311030 108.9436840 140.1839480
  96.1647550 107.9679490 139.9501670 109.8483460 118.3570400 126.9780700
 109.5605160 118.8183090 127.7658580 110.6435630 117.8968170 127.2464920
  96.0325100 122.7320180 140.5653400  96.1416220 121.7914920 140.4248790
  95.3805660 122.9974930 139.9167130 104.0237690 121.0036070 141.9651520
 103.7034560 120.2845310 142.5097210 103.3496050 121.6791140 142.0387580
 102.0651860 121.8496520 126.9084670 102.0561960 122.5826210 126.2929180
 101.1450220 121.6028100 127.0011630  97.6658500 117.0711410 127.6531430
  97.0586450 117.8110310 127.6626730  98.1407850 117.1610770 126.8269630
 107.2391290 111.2362230 137.3288320 107.6072110 110.4157440 137.6567890
 106.3789490 111.2964120 137.7443970 110.6053320 110.1919170 128.1375880
 109.9766480 110.2964840 127.4234110 110.1105240 110.4115950 128.9269760
 105.0511460 121.9124760 125.5709860 105.1523440 121.7088750 124.6411840
 104.1513200 121.6583040 125.7757640 102.5737350 112.4705120 129.5533760
 101.8653500 112.9391460 129.9947370 102.8581830 111.8127130 130.1878950
 104.1993280 113.8901820 137.5526290 104.6978530 114.3647640 138.2178140
 104.3416230 112.9665340 137.7596320 106.6052780 109.1955780 130.9929550
 106.4820560 109.2141910 130.0439060 107.5537340 109.2434720 131.1127950
 103.6929570 124.4311080 130.2657530 103.9471070 124.3932470 129.3436900
 102.7442050 124.3044410 130.2585780 100.7772370 110.7790200 126.9284470
 101.6262900 111.2160350 126.8624660 100.4103640 111.0910460 127.7556530
 111.4060140 110.1069780 138.3954680 110.9033740 110.8475180 138.7348490
 112.2216800 110.4953780 138.0791470 109.6982150 115.3502960 131.8416040
 108.7572290 115.3653190 132.0163730 110.0126220 114.5638920 132.2876340
  99.6763790 117.0322560 125.4020000 100.4427060 116.9203920 125.9645430
  99.7538480 116.3360530 124.7496770  98.3710550 114.4647630 126.0852890
  98.4514140 113.5175140 126.1970290  99.2630300 114.7954510 126.1913550
 111.7007730 122.5211810 133.5170300 111.8255150 123.3442980 133.9894110
 112.5673290 122.3102540 133.1694450  99.1725260 124.6143020 133.1887430
  99.9087740 124.0658480 133.4596000  99.5566180 125.4799030 133.0493420
  96.0570740 120.6816590 129.0628940  95.1310520 120.9237730 129.0534350
  96.5227170 121.5090850 128.9413690  98.1783540 123.7989090 142.3773010
  98.9796270 124.1201140 142.7908410  97.6635360 123.4384670 143.0992920
 102.2827570 123.7873330 125.0113000 103.0756180 124.0762160 124.5594790
 101.7631920 123.3565500 124.3325480 107.0148170 119.9068960 142.3248420
 106.4086330 119.9300560 141.5844170 106.7102280 119.1752000 142.8615670
 108.4448540 123.6349250 140.9357830 109.3970290 123.5507270 140.8858070
 108.2976760 124.2990960 141.6091620 111.3357740 123.0143460 126.4349740
 111.0499250 122.6008600 125.6203920 111.1377290 123.9431170 126.3150260
  95.8981350 116.2862550 141.3209060  96.4020370 115.7069830 141.8925290
  95.1588770 116.5702780 141.8585430 102.8004970 119.0076740 124.8755350
 102.6955610 118.3929090 125.6016730 102.6329190 118.4842630 124.0918360
 102.9519290 117.6933540 140.8544580 102.1864960 118.2618540 140.7699250
 103.1335250 117.4009750 139.9612810 106.0407700 118.0696770 125.4797340
 105.4917800 118.5166070 126.1240080 106.6626960 117.5646020 126.0035010
 110.0942640 119.4238870 141.4119600 110.8352110 119.7614630 140.9087060
 109.3315320 119.5930930 140.8589370  97.9304430 114.4292140 142.2159130
  97.9709770 114.1306010 143.1244360  98.7849930 114.8299750 142.0566650
 101.7082820 117.0287690 127.3762640 102.1299240 116.8627560 128.2194030
 101.8333660 116.2187920 126.8817780  99.8710240 113.0084240 140.1833620
  99.3406700 112.5175190 139.5556960 100.5398310 113.4368440 139.6491550
 108.7688300 117.4753700 139.9474810 109.1829320 117.6298780 140.7965230
 107.8339300 117.6008920 140.1100590 109.2410470 114.8149860 141.9513960
 109.8231240 114.0602180 141.8634440 109.4172240 115.3457300 141.1745440
 100.3582540 109.9746610 140.2630910 100.2639410 109.3567360 139.5381780
  99.7779930 110.7012900 140.0360820 103.1243980 108.5319850 137.2958300
 102.6761280 108.5544110 136.4503850 102.4909180 108.1338870 137.8928600
 103.5303530 117.4274180 137.9170740 103.9491640 118.2706910 137.7446980
 102.6112160 117.5646220 137.6877520 105.8667430 115.1590360 139.3008580
 105.9863640 114.5631500 140.0403420 106.7261430 115.1960050 138.8809880
 108.2055330 115.7127550 137.8771090 107.6790550 116.2370170 137.2736230
 108.5486670 116.3454940 138.5080820 100.6041720 113.1020920 124.3220800
 100.4030780 112.2388280 124.6834140 100.4333770 113.0154280 123.3842400
 101.3810950 123.7327190 139.0328470 100.8432040 124.4573250 138.7137170
 101.6344910 123.2557530 138.2425810 102.6336200 111.7011710 140.5584400
 103.2235890 111.3927560 141.2462220 101.8156440 111.2291460 140.7144300
 107.4529630 111.3177520 140.7917420 106.7645150 110.6559060 140.7267410
 108.1735650 110.8715790 141.2365880 108.0830030 107.9129150 126.8507680
 108.3632320 107.0697050 127.2067100 107.3095760 108.1452260 127.3646430
  99.4024520 110.2021540 124.3098680  99.7050420 110.2088970 123.4017830
 100.1419110 109.8519400 124.8066340 104.2373160 124.9678400 139.2915120
 104.1631860 125.8713540 139.5987490 103.3352000 124.6490300 139.2637190
 102.6209450 109.1456160 125.2954880 102.2731450 108.4680150 124.7157330
 102.8222220 108.6845670 126.1098270 104.7858490 124.1336910 126.9141480
 105.6809280 124.4721880 126.9360240 104.8176120 123.4116320 126.2865760
  98.4254650 119.5063960 125.1428480  98.8629520 120.0493630 125.7986060
  98.9102380 118.6810910 125.1524820  95.6400450 122.2952990 132.5948740
  95.9703460 121.4274050 132.3627380  96.0691450 122.5011510 133.4253700
 100.2362370 120.6262000 130.2550710  99.9357910 120.5026970 131.1554620
 100.1299860 119.7670590 129.8466440  96.1290660 123.1623580 135.3330370
  95.6921650 123.3424380 136.1654520  96.6968340 123.9198200 135.1912090
 111.7652840 122.6640580 139.6207680 111.1654830 122.7233140 138.8771600
 111.8946740 121.7245560 139.7504530 113.0054290 120.4058400 124.9577390
 112.1747250 120.4735050 125.4284620 113.1826120 121.2962520 124.6544250
 112.4610750 117.1505880 127.4611590 113.2229660 117.7202530 127.5671280
 112.4765120 116.5833080 128.2319900  95.9615090 115.6743810 131.6919250
  95.3063930 115.4055450 131.0478950  96.7993040 115.5648290 131.2421230
 113.4670720 118.0055980 132.3053520 113.8379550 117.2223300 131.8989490
 114.1072650 118.6945080 132.1270820 110.4504480 119.3892560 137.7183840
 109.6364320 119.8189720 137.9809630 110.8578680 120.0010970 137.1052890
 112.5129920 117.4440250 124.6184110 112.7878760 118.3519130 124.4903330
 112.3240660 117.3802780 125.5546100 108.9105530 110.4685100 125.9137740
 109.3290410 110.2816080 125.0734400 108.6041590 109.6164150 126.2240670
 112.4095260 115.3809240 129.6113540 112.0338860 114.6137170 129.1794830
 111.6798380 115.7631940 130.0988470  96.9991020 116.0596380 136.2322590
  97.3664060 115.9723780 137.1118610  96.4301840 115.2962930 136.1329450
 111.7994880 114.5280760 139.2453060 111.5680970 114.2993510 138.3451010
 112.0599430 115.4480310 139.1997950  96.5507020 112.9705470 140.1381010
  95.6563070 112.9372230 140.4774720  97.0904570 113.1692260 140.9032260
 110.2382950 109.7537190 142.0232760 111.1153130 109.7620590 142.4066760
 110.2503790 109.0168030 141.4125110 111.6846220 113.6066730 132.9120780
 112.2083700 113.1129380 132.2810950 112.2705640 113.7417090 133.6568350
 111.8635940 113.6906600 136.4340330 110.9138650 113.6570140 136.5485320
 112.0448950 114.6006710 136.1990100  97.7180380 111.9408280 125.5438960
  98.4272080 111.5191500 125.0586240  97.0020320 112.0083510 124.9122310
  97.3654540 107.9947610 124.5841610  98.0882670 108.5356550 124.9022830
  97.6379060 107.7211030 123.7083150 111.1746190 112.8640080 128.8513190
 111.6705310 112.6310950 129.6362070 110.9762260 112.0251920 128.4350830
  97.0546730 107.2453800 134.4864230  97.7022920 106.6951180 134.0459390
  97.4748570 107.4996950 135.3080040 112.6033350 111.5001030 131.3850870
 112.4932630 111.3457070 132.3233140 113.3640940 110.9721970 131.1426280
 110.9499070 107.4395160 137.8433870 111.5871290 108.0529300 138.2093060
 111.0973960 107.4755820 136.8983100 113.4923620 109.3308950 124.6257010
 114.4172930 109.1990130 124.4175300 113.4699410 109.4101770 125.5793460
 113.5662110 110.1019610 127.2513720 112.7713610 110.0364730 127.7806630
 113.7705390 111.0370250 127.2399070 110.5080530 124.1411160 131.2452110
 111.1039600 123.8195730 130.5686530 110.7658680 123.6682980 132.0365380
  96.8078730 107.4009470 137.2289550  96.4593550 107.8573290 137.9947730
  96.4766430 106.5066600 137.3111980  98.4143100 120.5729070 141.3942740
  98.3712730 120.2021980 142.2757200  98.5454110 121.5106640 141.5344560
 102.1149130 122.1288660 136.9952460 101.8740490 122.3963220 136.1082980
 103.0551770 122.2994390 137.0503320 104.3203550 108.5921350 140.7508970
 104.2592440 109.1843180 141.5004380 105.2603930 108.4847310 140.6059230
 106.9578110 108.2491410 140.3901260 107.5718520 108.5670700 139.7282340
 107.5027670 107.7640000 141.0097120 113.3753290 124.1483040 137.7963100
 112.8811570 124.5451910 137.0790230 112.7666580 123.5232250 138.1900380
  97.4799370 106.9285670 140.5040320  98.0282360 106.7473720 139.7406430
  97.5454680 106.1379780 141.0396630  98.2531130 123.5191320 138.5140520
  97.6591450 123.3876020 139.2530560  98.2454970 122.6829460 138.0482620
 107.6986150 106.8123550 136.7170550 106.8245990 107.1458660 136.5143480
 107.5896900 106.3396730 137.5422420 108.6058130 109.0194420 138.1012270
 108.2771490 108.2046180 137.7214000 109.5540430 108.9764230 137.9777960
 111.0592740 124.7906460 135.0749840 110.5995710 125.5422270 134.7007860
 110.4305200 124.0712930 135.0164640  97.8843360 120.8849700 137.4648560
  97.1577420 120.2654990 137.3974510  97.9452510 121.2790310 136.5946640
 101.4888460 123.0994700 134.2497970 102.0053480 122.4882060 133.7246230
 102.1385840 123.6023480 134.7408980 104.2283960 123.9903190 135.0766950
 104.5161770 123.7357490 134.1999960 104.7407180 123.4380550 135.6672520
 105.4460970 107.7293390 135.6563460 104.6632760 108.2038890 135.9360220
 105.1523900 106.8248220 135.5476640 109.9982040 108.4316490 133.7012550
 110.4390130 108.3761590 132.8534150 109.7289630 109.3474500 133.7722730
 111.8620610 108.0631730 131.7121370 111.8009010 107.1192950 131.5652390
 112.6412640 108.1711820 132.2574830  96.1673360 124.2024090 130.6745320
  95.9995400 123.5694770 131.3727210  95.3007870 124.4083490 130.3239510
 103.3315190 110.1480140 131.1679490 102.5189700 109.7737030 130.8275370
 103.8356830 109.3925220 131.4700680 107.8340170 106.8122590 132.4062560
 108.4369540 107.3842800 132.8811080 107.0933160 107.3762030 132.1836460
 110.9774770 107.2144150 127.6802840 111.1725400 108.1127600 127.9470270
 110.1904640 106.9831230 128.1735790  97.7736060 122.8957320 128.1195460
  97.2483680 123.2765350 127.4157420  97.6980640 123.5208090 128.8405170
  99.1626530 108.5604920 126.7179150  99.6919290 107.7734720 126.5887100
  99.7954850 109.2396110 126.9514680 101.3564370 108.2980060 129.7724540
 100.7267110 107.5967370 129.9394670 100.8169510 109.0584190 129.5557700
 104.2956320 124.9119290 142.4435150 105.2223630 124.6763560 142.4871110
 104.2806750 125.7391290 141.9621180 112.5301380 124.4544860 129.4409400
 112.7053570 123.7682600 128.7970320 111.8322950 124.9791910 129.0486070
 101.4819930 107.5764040 142.2077030 101.2004200 108.0797640 141.4437850
 101.8639630 106.7785790 141.8419160 100.3729030 124.8439700 126.9944710
 101.1047850 124.5598980 126.4468600 100.6322700 124.6052980 127.8844090
  99.5343820 120.9604430 126.9991040  98.9052700 121.4289530 127.5476870
  99.6491650 120.1153650 127.4337230 108.0835390 106.9917620 142.7857500
 107.9700840 107.3112230 143.6809020 108.9005130 107.3930130 142.4894780
 110.8633880 124.1389150 142.2676190 111.6559200 123.6438380 142.0602150
 111.1567030 124.8179290 142.8751800 106.9893540 115.0110090 113.1492240
 106.9087590 114.0964700 112.8783950 106.5757960 115.5077160 112.4431950
  99.1377410 117.1008920 115.9077270  98.3062290 116.8457630 116.3073780
  99.7458390 117.1719690 116.6435190  97.5469360 112.0610810 109.6919660
  96.6586060 112.4026780 109.5899540  97.8310550 111.8611130 108.8000490
 105.5925740 112.2716680 115.2640600 105.9690560 111.3988560 115.1514270
 105.4945250 112.6075380 114.3731040  99.7230750 110.6442310 110.7258040
  99.8297500 111.5446040 111.0326800  98.8123110 110.5960280 110.4352690
 109.3749860 109.7667120 112.1968940 110.1959480 109.2763690 112.2394420
 109.4083940 110.3564780 112.9500780 113.6649410 111.7833870 118.7612570
 112.9601580 112.1715580 118.2427680 113.9307330 112.4784160 119.3633500
  99.8474580 108.2527240 119.3246640  99.8493020 108.7699630 118.5192540
  99.0178890 107.7757420 119.3016570 109.6111340 111.7067500 114.9696480
 108.9066910 111.9952390 115.5499590 109.9723500 112.5167610 114.6096040
  99.5289910 109.9637200 117.3317090  99.8706720 110.8079250 117.0370960
  98.5905720 110.1120940 117.4482430 111.2274120 121.3242630 117.2323960
 110.5437640 121.9941740 117.2240630 111.7668410 121.5223280 116.4668820
 112.6798260 111.1522290 115.3605690 111.7323170 111.1861270 115.4921120
 113.0048250 111.9661240 115.7455050 108.1618300 118.0716600 117.2751750
 108.5787090 117.8576710 116.4405210 108.8858120 118.3289390 117.8460370
 105.5998560 115.5168300 110.3921800 104.6727840 115.4505680 110.6210270
 105.7523380 116.4548430 110.2777040 105.5867640 111.7885300 107.3888960
 104.6471310 111.9499260 107.4741420 105.9050900 112.5070980 106.8424950
 112.1080400 116.4703820 117.3667990 111.2799030 116.5396910 116.8918120
 112.7030880 117.0558130 116.8983820 109.0722410 113.2573140 118.3122860
 108.6593590 114.0826850 118.5662850 108.3398360 112.6718180 118.1199220
 109.7622510 123.3032470 119.0003840 109.2853070 124.1104660 118.8076450
 109.0784300 122.6510800 119.1530050  99.5926550 116.3395610 120.5645910
  99.4534320 117.2118410 120.9333310  98.7107910 115.9968420 120.4193850
  97.9059830 114.9378020 110.6748180  97.7857430 115.6640110 110.0629450
  97.5960720 114.1680930 110.1976090 113.3421720 123.0644410 124.0695230
 113.8181440 123.5427300 124.7484310 113.9628880 122.9961900 123.3440730
  95.5445200 118.1093160 116.4816820  95.6225620 118.2441930 115.5372540
  96.1586880 117.4009050 116.6744940  96.7892830 119.8093350 112.8923000
  96.3820910 119.9507940 112.0376600  97.6805840 119.5253510 112.6894210
 112.7454970 120.2557260 121.2295240 112.8718030 120.0169140 120.3112420
 112.7876350 119.4241800 121.7017320 106.6071710 123.9585260 119.7990050
 107.1216380 123.8693270 120.6012480 105.7640790 124.3044960 120.0917960
 108.5826110 124.2440600 109.2274050 108.4227250 123.9543540 110.1255880
 108.4172820 123.4680730 108.6919280 108.2852240 121.7528160 107.7872050
 107.5917400 121.7505450 107.1274330 109.0275100 121.3287480 107.3566220
 107.8502170 123.3790870 111.8620540 108.3059120 122.5980250 112.1759160
 108.1894690 124.0897690 112.4061720 112.5978980 112.3089720 122.1944980
 111.9823250 112.8169390 121.6660440 112.2775400 111.4088050 122.1370920
  95.6004720 119.1507330 119.0211280  95.7635760 118.6812690 118.2030650
  96.0657170 118.6430890 119.6860120 100.3723490 108.2813090 114.0571850
  99.9291640 109.0622630 113.7256370 100.9308480 108.6042980 114.7642790
 103.4882310 107.9023790 108.9377680 102.8636490 107.8983660 109.6630990
 103.4012430 107.0354750 108.5413650 102.4099390 108.8260420 115.9161450
 102.7071720 109.7323250 115.8353470 102.9584950 108.3379200 115.3021020
 100.1637710 113.4046660 111.7853100  99.9378630 113.1883830 112.6899720
  99.3830240 113.8375120 111.4399070 107.3935470 113.4110030 110.3843750
 106.7944360 114.1345830 110.2007370 107.9415080 113.3486810 109.6020200
 106.0000340 112.0473570 112.4147030 106.3929910 112.3645770 111.6015720
 106.3617190 111.1685450 112.5291550  97.7347460 110.7145910 120.6047150
  97.3410850 111.5621120 120.8119930  97.0465860 110.0772280 120.7955790
  95.0364510 108.6374370 114.6377230  94.7477560 109.2077230 115.3502210
  95.7810270 108.1578820 115.0008460  95.2234740 112.5794490 105.8479950
  95.1409410 113.5225250 105.9894940  94.8717800 112.4369400 104.9692300
 106.5855480 114.6379320 116.5097810 105.8536600 115.1466130 116.8587910
 106.1879820 113.8209300 116.2086590 103.0232870 111.3133520 114.9150300
 103.0268930 110.8723470 114.0654840 103.9183990 111.6350850 115.0222120
  98.8735250 111.1960010 113.8744510  98.5335300 111.6735240 114.6311560
  98.1112570 110.7425130 113.5145610 103.0853020 112.3145600 107.9057060
 103.2065840 112.2732080 108.8542880 102.7001530 113.1769750 107.7503790
 107.0481390 110.0913000 115.9220750 107.0654130 110.5421650 116.7662600
 106.7996970 109.1918640 116.1354190 102.0974520 114.6246740 107.3040360
 101.5291420 114.1764990 106.6776270 102.8063520 114.9839520 106.7705510
 110.4752140 107.5045180 121.7607130 110.7997910 106.7734840 122.2865110
 110.5108650 107.1858820 120.8588120  97.1743700 118.5258760 121.1807090
  96.7898490 117.8852430 121.7790050  97.4855890 119.2294880 121.7501820
  96.1881330 110.1178990 112.7909180  95.9028250 109.7534660 113.6287800
  96.1260190 109.3859450 112.1772320 101.1140210 114.4143940 118.9799920
 100.8097280 115.2935920 119.2050280 102.0686670 114.4743730 119.0157360
  99.6422000 118.6204930 109.5766770  98.8684260 118.0802550 109.4165490
 100.3716630 118.1011540 109.2384530 105.8619920 109.0108250 109.5122550
 105.0484530 108.5121420 109.4367860 105.6681870 109.8506500 109.0958900
 105.7828780 117.6879350 121.2562160 105.7166090 116.7675020 121.0019750
 105.1533920 117.7854790 121.9706800 108.5768310 113.3827900 107.8084710
 109.4647930 113.6945130 107.6336050 108.5473400 112.5100150 107.4165290
  99.6859400 118.2885310 113.2145580 100.2038070 117.4853570 113.1602470
  99.2343420 118.2264450 114.0562410 104.5728900 119.5551590 108.4872880
 104.9144600 120.2993820 107.9916200 103.7441610 119.8682710 108.8497710
 100.3717060 115.7130920 123.0110830 100.0717200 115.8588100 122.1138650
 101.1428300 115.1536210 122.9184220 105.7145510 120.5099920 121.0065960
 105.7290050 119.5780880 120.7884870 105.0070610 120.5959680 121.6455730
 111.9256720 117.1507260 120.3534540 111.2004910 117.7436040 120.1563930
 112.4532180 117.1430800 119.5547910 103.5419590 119.6365120 111.2588800
 104.2290720 120.1834330 111.6396390 102.7552010 120.1805850 111.2938410
  95.6811990 115.2537940 106.7505880  96.5506840 115.5362740 107.0341800
  95.1902310 116.0673810 106.6354690 102.8446800 116.6411150 110.8714160
 103.3009580 117.4516400 111.0974350 102.4935010 116.3234290 111.7032650
  98.7458580 106.9848800 111.3436680  98.6173210 106.9766700 112.2921600
  97.9220600 107.3231890 110.9927690 110.2667210 120.4398460 106.5423050
 110.0404790 119.7228900 107.1347690 109.8763410 120.1910900 105.7044800
 108.1949110 120.9544740 120.0219970 108.5305350 121.5411430 120.6997890
 107.2749450 120.8237450 120.2517760  96.0483240 124.4665320 107.3167510
  96.4080880 125.0654660 106.6624780  95.9075580 125.0125210 108.0902540
  96.0325100 122.7320180 121.7909910  96.1416220 121.7914920 121.6505300
  95.3805660 122.9974930 121.1423640 104.0237690 121.0036070 123.1908030
 103.7034560 120.2845310 123.7353720 103.3496050 121.6791140 123.2644090
 102.0651860 121.8496520 108.1341180 102.0561960 122.5826210 107.5185690
 101.1450220 121.6028100 108.2268140  97.6658500 117.0711410 108.8787940
  97.0586450 117.8110310 108.8883240  98.1407850 117.1610770 108.0526140
 110.6053320 110.1919170 109.3632390 109.9766480 110.2964840 108.6490620
 110.1105240 110.4115950 110.1526270 105.0511460 121.9124760 106.7966370
 105.1523440 121.7088750 105.8668350 104.1513200 121.6583040 107.0014150
 102.5737350 112.4705120 110.7790270 101.8653500 112.9391460 111.2203880
 102.8581830 111.8127130 111.4135460 106.6052780 109.1955780 112.2186060
 106.4820560 109.2141910 111.2695570 107.5537340 109.2434720 112.3384460
 100.7772370 110.7790200 108.1540980 101.6262900 111.2160350 108.0881170
 100.4103640 111.0910460 108.9813040 111.4060140 110.1069780 119.6211190
 110.9033740 110.8475180 119.9605000 112.2216800 110.4953780 119.3047980
  99.6763790 117.0322560 106.6276510 100.4427060 116.9203920 107.1901940
  99.7538480 116.3360530 105.9753280  98.3710550 114.4647630 107.3109400
  98.4514140 113.5175140 107.4226800  99.2630300 114.7954510 107.4170060
 111.7007730 122.5211810 114.7426810 111.8255150 123.3442980 115.2150620
 112.5673290 122.3102540 114.3950960  96.0570740 120.6816590 110.2885450
  95.1310520 120.9237730 110.2790860  96.5227170 121.5090850 110.1670200
  98.1783540 123.7989090 123.6029520  98.9796270 124.1201140 124.0164920
  97.6635360 123.4384670 124.3249430 102.2827570 123.7873330 106.2369510
 103.0756180 124.0762160 105.7851300 101.7631920 123.3565500 105.5581990
 107.0148170 119.9068960 123.5504930 106.4086330 119.9300560 122.8100680
 106.7102280 119.1752000 124.0872180 108.4448540 123.6349250 122.1614340
 109.3970290 123.5507270 122.1114580 108.2976760 124.2990960 122.8348130
 111.3357740 123.0143460 107.6606250 111.0499250 122.6008600 106.8460430
 111.1377290 123.9431170 107.5406770  95.8981350 116.2862550 122.5465570
  96.4020370 115.7069830 123.1181800  95.1588770 116.5702780 123.0841940
 102.8004970 119.0076740 106.1011860 102.6955610 118.3929090 106.8273240
 102.6329190 118.4842630 105.3174870 106.0407700 118.0696770 106.7053850
 105.4917800 118.5166070 107.3496590 106.6626960 117.5646020 107.2291520
 110.0942640 119.4238870 122.6376110 110.8352110 119.7614630 122.1343570
 109.3315320 119.5930930 122.0845880  97.9304430 114.4292140 123.4415640
  97.9709770 114.1306010 124.3500870  98.7849930 114.8299750 123.2823160
 101.7082820 117.0287690 108.6019150 102.1299240 116.8627560 109.4450540
 101.8333660 116.2187920 108.1074290  99.8710240 113.0084240 121.4090130
  99.3406700 112.5175190 120.7813470 100.5398310 113.4368440 120.8748060
 104.2210460 116.0525300 105.8496250 104.7416120 115.3374320 105.4837400
 104.8678860 116.6911170 106.1496760 108.7688300 117.4753700 121.1731320
 109.1829320 117.6298780 122.0221740 107.8339300 117.6008920 121.3357100
 109.2410470 114.8149860 123.1770470 109.8231240 114.0602180 123.0890950
 109.4172240 115.3457300 122.4001950 100.3582540 109.9746610 121.4887420
 100.2639410 109.3567360 120.7638290  99.7779930 110.7012900 121.2617330
 103.1243980 108.5319850 118.5214810 102.6761280 108.5544110 117.6760360
 102.4909180 108.1338870 119.1185110 108.2055330 115.7127550 119.1027600
 107.6790550 116.2370170 118.4992740 108.5486670 116.3454940 119.7337330
 100.6041720 113.1020920 105.5477310 100.4030780 112.2388280 105.9090650
 100.4333770 113.0154280 104.6098910 108.0830030 107.9129150 108.0764190
 108.3632320 107.0697050 108.4323610 107.3095760 108.1452260 108.5902940
  99.4024520 110.2021540 105.5355190  99.7050420 110.2088970 104.6274340
 100.1419110 109.8519400 106.0322850 104.2373160 124.9678400 120.5171630
 104.1631860 125.8713540 120.8244000 103.3352000 124.6490300 120.4893700
 102.6209450 109.1456160 106.5211390 102.2731450 108.4680150 105.9413840
 102.8222220 108.6845670 107.3354780 104.7858490 124.1336910 108.1397990
 105.6809280 124.4721880 108.1616750 104.8176120 123.4116320 107.5122270
 100.2362370 120.6262000 111.4807220  99.9357910 120.5026970 112.3811130
 100.1299860 119.7670590 111.0722950 111.7652840 122.6640580 120.8464190
 111.1654830 122.7233140 120.1028110 111.8946740 121.7245560 120.9761040
 113.0054290 120.4058400 106.1833900 112.1747250 120.4735050 106.6541130
 113.1826120 121.2962520 105.8800760 110.4504480 119.3892560 118.9440350
 109.6364320 119.8189720 119.2066140 110.8578680 120.0010970 118.3309400
 112.5129920 117.4440250 105.8440620 112.7878760 118.3519130 105.7159840
 112.3240660 117.3802780 106.7802610 108.9105530 110.4685100 107.1394250
 109.3290410 110.2816080 106.2990910 108.6041590 109.6164150 107.4497180
 111.7994880 114.5280760 120.4709570 111.5680970 114.2993510 119.5707520
 112.0599430 115.4480310 120.4254460  96.5507020 112.9705470 121.3637520
  95.6563070 112.9372230 121.7031230  97.0904570 113.1692260 122.1288770
 110.2382950 109.7537190 123.2489270 111.1153130 109.7620590 123.6323270
 110.2503790 109.0168030 122.6381620  95.1753170 112.8842740 108.8601090
  94.2717250 113.1472940 108.6852750  95.6593790 113.1553910 108.0801050
 111.6846220 113.6066730 114.1377290 112.2083700 113.1129380 113.5067460
 112.2705640 113.7417090 114.8824860 111.8635940 113.6906600 117.6596840
 110.9138650 113.6570140 117.7741830 112.0448950 114.6006710 117.4246610
  97.7180380 111.9408280 106.7695470  98.4272080 111.5191500 106.2842750
  97.0020320 112.0083510 106.1378820  97.3654540 107.9947610 105.8098120
  98.0882670 108.5356550 106.1279340  97.6379060 107.7211030 104.9339660
 111.1746190 112.8640080 110.0769700 111.6705310 112.6310950 110.8618580
 110.9762260 112.0251920 109.6607340  97.0546730 107.2453800 115.7120740
  97.7022920 106.6951180 115.2715900  97.4748570 107.4996950 116.5336550
 112.6033350 111.5001030 112.6107380 112.4932630 111.3457070 113.5489650
 113.3640940 110.9721970 112.3682790 110.5080530 124.1411160 112.4708620
 111.1039600 123.8195730 111.7943040 110.7658680 123.6682980 113.2621890
  98.4143100 120.5729070 122.6199250  98.3712730 120.2021980 123.5013710
  98.5454110 121.5106640 122.7601070 113.3753290 124.1483040 119.0219610
 112.8811570 124.5451910 118.3046740 112.7666580 123.5232250 119.4156890
  97.4799370 106.9285670 121.7296830  98.0282360 106.7473720 120.9662940
  97.5454680 106.1379780 122.2653140 107.6986150 106.8123550 117.9427060
 106.8245990 107.1458660 117.7399990 107.5896900 106.3396730 118.7678930
 108.6058130 109.0194420 119.3268780 108.2771490 108.2046180 118.9470510
 109.5540430 108.9764230 119.2034470 111.0592740 124.7906460 116.3006350
 110.5995710 125.5422270 115.9264370 110.4305200 124.0712930 116.2421150
 105.4460970 107.7293390 116.8819970 104.6632760 108.2038890 117.1616730
 105.1523900 106.8248220 116.7733150 109.9982040 108.4316490 114.9269060
 110.4390130 108.3761590 114.0790660 109.7289630 109.3474500 114.9979240
 111.8620610 108.0631730 112.9377880 111.8009010 107.1192950 112.7908900
 112.6412640 108.1711820 113.4831340  96.7901380 108.0340870 109.4033690
  97.5480740 108.1469750 108.8297720  96.3278550 108.8710070 109.3577120
 103.3315190 110.1480140 112.3936000 102.5189700 109.7737030 112.0531880
 103.8356830 109.3925220 112.6957190 107.8340170 106.8122590 113.6319070
 108.4369540 107.3842800 114.1067590 107.0933160 107.3762030 113.4092970
 110.9774770 107.2144150 108.9059350 111.1725400 108.1127600 109.1726780
 110.1904640 106.9831230 109.3992300  97.7736060 122.8957320 109.3451970
  97.2483680 123.2765350 108.6413930  97.6980640 123.5208090 110.0661680
  99.1626530 108.5604920 107.9435660  99.6919290 107.7734720 107.8143610
  99.7954850 109.2396110 108.1771190 101.3564370 108.2980060 110.9981050
 100.7267110 107.5967370 111.1651180 100.8169510 109.0584190 110.7814210
 104.2956320 124.9119290 123.6691660 105.2223630 124.6763560 123.7127620
 104.2806750 125.7391290 123.1877690 112.5301380 124.4544860 110.6665910
 112.7053570 123.7682600 110.0226830 111.8322950 124.9791910 110.2742580
 101.4819930 107.5764040 123.4333540 101.2004200 108.0797640 122.6694360
 101.8639630 106.7785790 123.0675670  99.5343820 120.9604430 108.2247550
  98.9052700 121.4289530 108.7733380  99.6491650 120.1153650 108.6593740
 108.0835390 106.9917620 124.0114010 107.9700840 107.3112230 124.9065530
 108.9005130 107.3930130 123.7151290 110.8633880 124.1389150 123.4932700
 111.6559200 123.6438380 123.2858660 111.1567030 124.8179290 124.1008310
 106.9893540 115.0110090  94.3748750 106.9087590 114.0964700  94.1040460
 106.5757960 115.5077160  93.6688460 105.1211580 116.7889110  96.2558020
 104.3453680 116.3089550  96.5456590 105.7724510 116.1094760  96.0814180
  99.1377410 117.1008920  97.1333780  98.3062290 116.8457630  97.5330290
  99.7458390 117.1719690  97.8691700 109.1419010 121.1949300  95.0357150
 108.6800540 120.4236540  95.3644320 109.9544560 121.2215370  95.5409600
  95.5102370 114.6616460  96.8015870  96.0818480 113.8938660  96.8019510
  95.5103910 114.9605220  95.8922480 105.3682320 123.4807310  94.6561140
 104.7493760 123.9364810  94.0855580 106.2234100 123.6358770  94.2550840
 104.5620570 119.4646300  96.2628180 104.4928850 118.5236240  96.1017310
 105.3240430 119.5547710  96.8350750 105.5925740 112.2716680  96.4897110
 105.9690560 111.3988560  96.3770780 105.4945250 112.6075380  95.5987550
 109.3749860 109.7667120  93.4225450 110.1959480 109.2763690  93.4650930
 109.4083940 110.3564780  94.1757290 113.6649410 111.7833870  99.9869080
 112.9601580 112.1715580  99.4684190 113.9307330 112.4784160 100.5890010
  99.8474580 108.2527240 100.5503150  99.8493020 108.7699630  99.7449050
  99.0178890 107.7757420 100.5273080 106.2345670 118.3646550  92.0493050
 105.6162940 118.8296000  91.4855770 106.7468920 119.0574030  92.4662560
 101.0977430 117.8922420  98.7276650 100.7646810 118.5191340  99.3697720
 101.2744110 118.4184300  97.9478320 109.6111340 111.7067500  96.1952990
 108.9066910 111.9952390  96.7756100 109.9723500 112.5167610  95.8352550
 100.3096530 119.8603220 100.5425830 100.9270530 120.5354300 100.2610280
  99.4489650 120.2691200 100.4513330 111.2274120 121.3242630  98.4580470
 110.5437640 121.9941740  98.4497140 111.7668410 121.5223280  97.6925330
 112.6798260 111.1522290  96.5862200 111.7323170 111.1861270  96.7177630
 113.0048250 111.9661240  96.9711560 103.2117800 107.4519470  94.8818190
 103.5192780 106.8966360  94.1653690 102.2818500 107.5863930  94.6991180
 108.7632860 123.1686760  97.1725650 108.7760020 122.7649050  96.3047910
 108.2108080 123.9434050  97.0687080 110.0578280 119.8902980  92.2615820
 109.9474610 118.9477310  92.3865240 110.0546530 120.2518620  93.1478580
 108.1618300 118.0716600  98.5008260 108.5787090 117.8576710  97.6661720
 108.8858120 118.3289390  99.0716880 105.5998560 115.5168300  91.6178310
 104.6727840 115.4505680  91.8466780 105.7523380 116.4548430  91.5033550
 105.5867640 111.7885300  88.6145470 104.6471310 111.9499260  88.6997930
 105.9050900 112.5070980  88.0681460 112.1080400 116.4703820  98.5924500
 111.2799030 116.5396910  98.1174630 112.7030880 117.0558130  98.1240330
 109.6295850 117.0788600  92.1213560 109.0108270 116.7408150  91.4739860
 109.6120300 116.4348360  92.8292750 101.2055200 116.0433040  94.3998040
 100.8012200 115.3310290  93.9043940 101.2918320 115.6986280  95.2886080
 101.6736900 119.7300600  96.5637250 101.3765190 119.1246070  95.8845030
 102.6236720 119.7677910  96.4526610 109.7622510 123.3032470 100.2260350
 109.2853070 124.1104660 100.0332960 109.0784300 122.6510800 100.3786560
 100.7655330 119.4682290 103.2145050  99.8683860 119.6922260 103.4618450
 100.7908200 119.5917230 102.2656450 107.8060550 116.3175410  89.1286310
 108.2453830 115.4797840  88.9824130 108.5188970 116.9504810  89.2150450
  99.5926550 116.3395610 101.7902420  99.4534320 117.2118410 102.1589820
  98.7107910 115.9968420 101.6450360 105.9155930 121.2571480  93.0967550
 106.3551840 121.9995810  92.6822940 105.8542820 121.4998050  94.0206510
 101.3906900 122.2817310 103.9987570 101.3622330 122.6860260 103.1316000
 101.2271870 121.3527670 103.8359170  97.9059830 114.9378020  91.9004690
  97.7857430 115.6640110  91.2885960  97.5960720 114.1680930  91.4232600
 113.3421720 123.0644410 105.2951740 113.8181440 123.5427300 105.9740820
 113.9628880 122.9961900 104.5697240 112.7454970 120.2557260 102.4551750
 112.8718030 120.0169140 101.5368930 112.7876350 119.4241800 102.9273830
 106.6071710 123.9585260 101.0246560 107.1216380 123.8693270 101.8268990
 105.7640790 124.3044960 101.3174470 108.5826110 124.2440600  90.4530560
 108.4227250 123.9543540  91.3512390 108.4172820 123.4680730  89.9175790
 101.0614490 124.0239130  92.2302180 100.8856970 123.1074670  92.0169980
 100.2070230 124.3826420  92.4699980 108.2852240 121.7528160  89.0128560
 107.5917400 121.7505450  88.3530840 109.0275100 121.3287480  88.5822730
 107.8502170 123.3790870  93.0877050 108.3059120 122.5980250  93.4015670
 108.1894690 124.0897690  93.6318230  95.6004720 119.1507330 100.2467790
  95.7635760 118.6812690  99.4287160  96.0657170 118.6430890 100.9116630
 107.3935470 113.4110030  91.6100260 106.7944360 114.1345830  91.4263880
 107.9415080 113.3486810  90.8276710 102.6036920 114.3032240 103.6769880
 102.5080520 113.3626970 103.5270280 103.4468900 114.5247310 103.2817950
 106.0000340 112.0473570  93.6403540 106.3929910 112.3645770  92.8272230
 106.3617190 111.1685450  93.7548060  97.7347460 110.7145910 101.8303660
  97.3410850 111.5621120 102.0376440  97.0465860 110.0772280 102.0212300
 104.3092510 110.7980880 104.9000400 103.6190830 110.6053080 105.5346490
 105.0524810 111.0815520 105.4324700 106.5855480 114.6379320  97.7354320
 105.8536600 115.1466130  98.0844420 106.1879820 113.8209300  97.4343100
 103.0232870 111.3133520  96.1406810 103.0268930 110.8723470  95.2911350
 103.9183990 111.6350850  96.2478630 103.0853020 112.3145600  89.1313570
 103.2065840 112.2732080  90.0799390 102.7001530 113.1769750  88.9760300
 107.0481390 110.0913000  97.1477260 107.0654130 110.5421650  97.9919110
 106.7996970 109.1918640  97.3610700 102.0974520 114.6246740  88.5296870
 101.5291420 114.1764990  87.9032780 102.8063520 114.9839520  87.9962020
 110.4752140 107.5045180 102.9863640 110.7997910 106.7734840 103.5121620
 110.5108650 107.1858820 102.0844630  97.1743700 118.5258760 102.4063600
  96.7898490 117.8852430 103.0046560  97.4855890 119.2294880 102.9758330
 103.3240840 115.3735300  97.8872220 103.6910970 114.8993870  98.6333560
 103.1345900 116.2476870  98.2280560 101.1140210 114.4143940 100.2056430
 100.8097280 115.2935920 100.4306790 102.0686670 114.4743730 100.2413870
  99.6422000 118.6204930  90.8023280  98.8684260 118.0802550  90.6422000
 100.3716630 118.1011540  90.4641040 110.4009980 117.6170290  96.5949670
 111.1209100 118.1125580  96.2045780 110.1991800 116.9388180  95.9503540
 105.8619920 109.0108250  90.7379060 105.0484530 108.5121420  90.6624370
 105.6681870 109.8506500  90.3215410 105.7828780 117.6879350 102.4818670
 105.7166090 116.7675020 102.2276260 105.1533920 117.7854790 103.1963310
  99.6859400 118.2885310  94.4402090 100.2038070 117.4853570  94.3858980
  99.2343420 118.2264450  95.2818920 104.5728900 119.5551590  89.7129390
 104.9144600 120.2993820  89.2172710 103.7441610 119.8682710  90.0754220
  97.1703940 115.2546680 101.3527790  96.8118880 115.9200530 101.9401130
  96.8758500 114.4230230 101.7240410 100.3717060 115.7130920 104.2367340
 100.0717200 115.8588100 103.3395160 101.1428300 115.1536210 104.1440730
 105.7145510 120.5099920 102.2322470 105.7290050 119.5780880 102.0141380
 105.0070610 120.5959680 102.8712240 111.8769830 121.5482000  91.2303210
 111.2345990 120.8937620  91.5046930 111.4900490 121.9537090  90.4543880
 107.4556310 118.8767430  95.0774900 107.8080130 118.2795560  94.4176270
 106.5718640 118.5511660  95.2483150 103.5419590 119.6365120  92.4845310
 104.2290720 120.1834330  92.8652900 102.7552010 120.1805850  92.5194920
  95.6811990 115.2537940  87.9762390  96.5506840 115.5362740  88.2598310
  95.1902310 116.0673810  87.8611200 102.8446800 116.6411150  92.0970670
 103.3009580 117.4516400  92.3230860 102.4935010 116.3234290  92.9289160
 105.1479410 122.1517490  99.3262970 105.7921630 122.3576870 100.0036390
 105.5108850 121.3905890  98.8733820 106.4211490 120.1549840  98.0440420
 107.0633720 119.4543000  98.1572590 106.9460840 120.9348280  97.8637310
 110.2667210 120.4398460  87.7679560 110.0404790 119.7228900  88.3604200
 109.8763410 120.1910900  86.9301310 108.1949110 120.9544740 101.2476480
 108.5305350 121.5411430 101.9254400 107.2749450 120.8237450 101.4774270
 109.8483460 118.3570400  89.4293720 109.5605160 118.8183090  90.2171600
 110.6435630 117.8968170  89.6977940 104.0237690 121.0036070 104.4164540
 103.7034560 120.2845310 104.9610230 103.3496050 121.6791140 104.4900600
 102.0651860 121.8496520  89.3597690 102.0561960 122.5826210  88.7442200
 101.1450220 121.6028100  89.4524650  97.6658500 117.0711410  90.1044450
  97.0586450 117.8110310  90.1139750  98.1407850 117.1610770  89.2782650
 105.0511460 121.9124760  88.0222880 105.1523440 121.7088750  87.0924860
 104.1513200 121.6583040  88.2270660 102.5737350 112.4705120  92.0046780
 101.8653500 112.9391460  92.4460390 102.8581830 111.8127130  92.6391970
 106.6052780 109.1955780  93.4442570 106.4820560 109.2141910  92.4952080
 107.5537340 109.2434720  93.5640970 103.6929570 124.4311080  92.7170550
 103.9471070 124.3932470  91.7949920 102.7442050 124.3044410  92.7098800
 100.7772370 110.7790200  89.3797490 101.6262900 111.2160350  89.3137680
 100.4103640 111.0910460  90.2069550 109.6982150 115.3502960  94.2929060
 108.7572290 115.3653190  94.4676750 110.0126220 114.5638920  94.7389360
  99.6763790 117.0322560  87.8533020 100.4427060 116.9203920  88.4158450
  99.7538480 116.3360530  87.2009790  98.3710550 114.4647630  88.5365910
  98.4514140 113.5175140  88.6483310  99.2630300 114.7954510  88.6426570
 111.7007730 122.5211810  95.9683320 111.8255150 123.3442980  96.4407130
 112.5673290 122.3102540  95.6207470  99.1725260 124.6143020  95.6400450
  99.9087740 124.0658480  95.9109020  99.5566180 125.4799030  95.5006440
  98.1783540 123.7989090 104.8286030  98.9796270 124.1201140 105.2421430
  97.6635360 123.4384670 105.5505940 102.2827570 123.7873330  87.4626020
 103.0756180 124.0762160  87.0107810 101.7631920 123.3565500  86.7838500
 107.0148170 119.9068960 104.7761440 106.4086330 119.9300560 104.0357190
 106.7102280 119.1752000 105.3128690 108.4448540 123.6349250 103.3870850
 109.3970290 123.5507270 103.3371090 108.2976760 124.2990960 104.0604640
 111.3357740 123.0143460  88.8862760 111.0499250 122.6008600  88.0716940
 111.1377290 123.9431170  88.7663280  95.8981350 116.2862550 103.7722080
  96.4020370 115.7069830 104.3438310  95.1588770 116.5702780 104.3098450
 102.8004970 119.0076740  87.3268370 102.6955610 118.3929090  88.0529750
 102.6329190 118.4842630  86.5431380 102.9519290 117.6933540 103.3057600
 102.1864960 118.2618540 103.2212270 103.1335250 117.4009750 102.4125830
 106.0407700 118.0696770  87.9310360 105.4917800 118.5166070  88.5753100
 106.6626960 117.5646020  88.4548030 110.0942640 119.4238870 103.8632620
 110.8352110 119.7614630 103.3600080 109.3315320 119.5930930 103.3102390
  97.9304430 114.4292140 104.6672150  97.9709770 114.1306010 105.5757380
  98.7849930 114.8299750 104.5079670 101.7082820 117.0287690  89.8275660
 102.1299240 116.8627560  90.6707050 101.8333660 116.2187920  89.3330800
  99.8710240 113.0084240 102.6346640  99.3406700 112.5175190 102.0069980
 100.5398310 113.4368440 102.1004570 104.2210460 116.0525300  87.0752760
 104.7416120 115.3374320  86.7093910 104.8678860 116.6911170  87.3753270
 100.3582540 109.9746610 102.7143930 100.2639410 109.3567360 101.9894800
  99.7779930 110.7012900 102.4873840 103.1243980 108.5319850  99.7471320
 102.6761280 108.5544110  98.9016870 102.4909180 108.1338870 100.3441620
 103.5303530 117.4274180 100.3683760 103.9491640 118.2706910 100.1960000
 102.6112160 117.5646220 100.1390540 100.6041720 113.1020920  86.7733820
 100.4030780 112.2388280  87.1347160 100.4333770 113.0154280  85.8355420
 101.3810950 123.7327190 101.4841490 100.8432040 124.4573250 101.1650190
 101.6344910 123.2557530 100.6938830 102.6336200 111.7011710 103.0097420
 103.2235890 111.3927560 103.6975240 101.8156440 111.2291460 103.1657320
  99.4024520 110.2021540  86.7611700  99.7050420 110.2088970  85.8530850
 100.1419110 109.8519400  87.2579360 104.2373160 124.9678400 101.7428140
 104.1631860 125.8713540 102.0500510 103.3352000 124.6490300 101.7150210
 102.6209450 109.1456160  87.7467900 102.2731450 108.4680150  87.1670350
 102.8222220 108.6845670  88.5611290 104.7858490 124.1336910  89.3654500
 105.6809280 124.4721880  89.3873260 104.8176120 123.4116320  88.7378780
  98.4254650 119.5063960  87.5941500  98.8629520 120.0493630  88.2499080
  98.9102380 118.6810910  87.6037840 111.7652840 122.6640580 102.0720700
 111.1654830 122.7233140 101.3284620 111.8946740 121.7245560 102.2017550
 113.0054290 120.4058400  87.4090410 112.1747250 120.4735050  87.8797640
 113.1826120 121.2962520  87.1057270 112.4610750 117.1505880  89.9124610
 113.2229660 117.7202530  90.0184300 112.4765120 116.5833080  90.6832920
  95.9615090 115.6743810  94.1432270  95.3063930 115.4055450  93.4991970
  96.7993040 115.5648290  93.6934250 113.4670720 118.0055980  94.7566540
 113.8379550 117.2223300  94.3502510 114.1072650 118.6945080  94.5783840
 110.4504480 119.3892560 100.1696860 109.6364320 119.8189720 100.4322650
 110.8578680 120.0010970  99.5565910 112.5129920 117.4440250  87.0697130
 112.7878760 118.3519130  86.9416350 112.3240660 117.3802780  88.0059120
 112.4095260 115.3809240  92.0626560 112.0338860 114.6137170  91.6307850
 111.6798380 115.7631940  92.5501490  96.9991020 116.0596380  98.6835610
  97.3664060 115.9723780  99.5631630  96.4301840 115.2962930  98.5842470
  96.5507020 112.9705470 102.5894030  95.6563070 112.9372230 102.9287740
  97.0904570 113.1692260 103.3545280 111.6846220 113.6066730  95.3633800
 112.2083700 113.1129380  94.7323970 112.2705640 113.7417090  96.1081370
 111.8635940 113.6906600  98.8853350 110.9138650 113.6570140  98.9998340
 112.0448950 114.6006710  98.6503120 112.6033350 111.5001030  93.8363890
 112.4932630 111.3457070  94.7746160 113.3640940 110.9721970  93.5939300
 110.9499070 107.4395160 100.2946890 111.5871290 108.0529300 100.6606080
 111.0973960 107.4755820  99.3496120 110.5080530 124.1411160  93.6965130
 111.1039600 123.8195730  93.0199550 110.7658680 123.6682980  94.4878400
 102.1149130 122.1288660  99.4465480 101.8740490 122.3963220  98.5596000
 103.0551770 122.2994390  99.5016340 104.3203550 108.5921350 103.2021990
 104.2592440 109.1843180 103.9517400 105.2603930 108.4847310 103.0572250
 106.9578110 108.2491410 102.8414280 107.5718520 108.5670700 102.1795360
 107.5027670 107.7640000 103.4610140 113.3753290 124.1483040 100.2476120
 112.8811570 124.5451910  99.5303250 112.7666580 123.5232250 100.6413400
  97.4799370 106.9285670 102.9553340  98.0282360 106.7473720 102.1919450
  97.5454680 106.1379780 103.4909650 107.6986150 106.8123550  99.1683570
 106.8245990 107.1458660  98.9656500 107.5896900 106.3396730  99.9935440
 108.6058130 109.0194420 100.5525290 108.2771490 108.2046180 100.1727020
 109.5540430 108.9764230 100.4290980 111.0592740 124.7906460  97.5262860
 110.5995710 125.5422270  97.1520880 110.4305200 124.0712930  97.4677660
  97.8843360 120.8849700  99.9161580  97.1577420 120.2654990  99.8487530
  97.9452510 121.2790310  99.0459660 101.4888460 123.0994700  96.7010990
 102.0053480 122.4882060  96.1759250 102.1385840 123.6023480  97.1922000
 104.2283960 123.9903190  97.5279970 104.5161770 123.7357490  96.6512980
 104.7407180 123.4380550  98.1185540 105.4460970 107.7293390  98.1076480
 104.6632760 108.2038890  98.3873240 105.1523900 106.8248220  97.9989660
 103.3315190 110.1480140  93.6192510 102.5189700 109.7737030  93.2788390
 103.8356830 109.3925220  93.9213700 107.8340170 106.8122590  94.8575580
 108.4369540 107.3842800  95.3324100 107.0933160 107.3762030  94.6349480
 104.2956320 124.9119290 104.8948170 105.2223630 124.6763560 104.9384130
 104.2806750 125.7391290 104.4134200 112.5301380 124.4544860  91.8922420
 112.7053570 123.7682600  91.2483340 111.8322950 124.9791910  91.4999090
 101.4819930 107.5764040 104.6590050 101.2004200 108.0797640 103.8950870
 101.8639630 106.7785790 104.2932180 100.3729030 124.8439700  89.4457730
 101.1047850 124.5598980  88.8981620 100.6322700 124.6052980  90.3357110
  99.5343820 120.9604430  89.4504060  98.9052700 121.4289530  89.9989890
  99.6491650 120.1153650  89.8850250 108.0835390 106.9917620 105.2370520
 107.9700840 107.3112230 106.1322040 108.9005130 107.3930130 104.9407800
 110.8633880 124.1389150 104.7189210 111.6559200 123.6438380 104.5115170
 111.1567030 124.8179290 105.3264820 106.9893540 115.0110090  75.6005260
 106.9087590 114.0964700  75.3296970 106.5757960 115.5077160  74.8944970
  99.1377410 117.1008920  78.3590290  98.3062290 116.8457630  78.7586800
  99.7458390 117.1719690  79.0948210 109.1419010 121.1949300  76.2613660
 108.6800540 120.4236540  76.5900830 109.9544560 121.2215370  76.7666110
  97.5469360 112.0610810  72.1432680  96.6586060 112.4026780  72.0412560
  97.8310550 111.8611130  71.2513510  95.5102370 114.6616460  78.0272380
  96.0818480 113.8938660  78.0276020  95.5103910 114.9605220  77.1178990
 105.3682320 123.4807310  75.8817650 104.7493760 123.9364810  75.3112090
 106.2234100 123.6358770  75.4807350  96.7527240 110.0700820  79.8141310
  96.5730080 109.1726570  80.0944070  96.3507320 110.6172690  80.4888260
 105.5925740 112.2716680  77.7153620 105.9690560 111.3988560  77.6027290
 105.4945250 112.6075380  76.8244060 109.3749860 109.7667120  74.6481960
 110.1959480 109.2763690  74.6907440 109.4083940 110.3564780  75.4013800
  97.3713910 112.5661320  78.4223650  98.0524020 112.8299690  79.0411050
  97.0561960 111.7262190  78.7561660 101.5638480 113.6128680  77.5096240
 102.0716700 114.1109650  78.1501260 102.0951720 112.8363880  77.3335600
 113.6649410 111.7833870  81.2125590 112.9601580 112.1715580  80.6940700
 113.9307330 112.4784160  81.8146520  99.8474580 108.2527240  81.7759660
  99.8493020 108.7699630  80.9705560  99.0178890 107.7757420  81.7529590
 106.2345670 118.3646550  73.2749560 105.6162940 118.8296000  72.7112280
 106.7468920 119.0574030  73.6919070  99.5289910 109.9637200  79.7830110
  99.8706720 110.8079250  79.4883980  98.5905720 110.1120940  79.8995450
 100.3096530 119.8603220  81.7682340 100.9270530 120.5354300  81.4866790
  99.4489650 120.2691200  81.6769840 111.2274120 121.3242630  79.6836980
 110.5437640 121.9941740  79.6753650 111.7668410 121.5223280  78.9181840
 103.2117800 107.4519470  76.1074700 103.5192780 106.8966360  75.3910200
 102.2818500 107.5863930  75.9247690 108.7632860 123.1686760  78.3982160
 108.7760020 122.7649050  77.5304420 108.2108080 123.9434050  78.2943590
 110.0578280 119.8902980  73.4872330 109.9474610 118.9477310  73.6121750
 110.0546530 120.2518620  74.3735090 105.5998560 115.5168300  72.8434820
 104.6727840 115.4505680  73.0723290 105.7523380 116.4548430  72.7290060
 105.5867640 111.7885300  69.8401980 104.6471310 111.9499260  69.9254440
 105.9050900 112.5070980  69.2937970 109.6295850 117.0788600  73.3470070
 109.0108270 116.7408150  72.6996370 109.6120300 116.4348360  74.0549260
 101.2055200 116.0433040  75.6254550 100.8012200 115.3310290  75.1300450
 101.2918320 115.6986280  76.5142590  99.9183820 112.8176250  79.4053590
 100.4698410 112.9271590  78.6306840 100.4327330 113.1913850  80.1208820
 100.7655330 119.4682290  84.4401560  99.8683860 119.6922260  84.6874960
 100.7908200 119.5917230  83.4912960 107.8060550 116.3175410  70.3542820
 108.2453830 115.4797840  70.2080640 108.5188970 116.9504810  70.4406960
  99.5926550 116.3395610  83.0158930  99.4534320 117.2118410  83.3846330
  98.7107910 115.9968420  82.8706870 105.9155930 121.2571480  74.3224060
 106.3551840 121.9995810  73.9079450 105.8542820 121.4998050  75.2463020
 101.3906900 122.2817310  85.2244080 101.3622330 122.6860260  84.3572510
 101.2271870 121.3527670  85.0615680 113.3421720 123.0644410  86.5208250
 113.8181440 123.5427300  87.1997330 113.9628880 122.9961900  85.7953750
 112.7454970 120.2557260  83.6808260 112.8718030 120.0169140  82.7625440
 112.7876350 119.4241800  84.1530340 108.5826110 124.2440600  71.6787070
 108.4227250 123.9543540  72.5768900 108.4172820 123.4680730  71.1432300
 101.0614490 124.0239130  73.4558690 100.8856970 123.1074670  73.2426490
 100.2070230 124.3826420  73.6956490 108.2852240 121.7528160  70.2385070
 107.5917400 121.7505450  69.5787350 109.0275100 121.3287480  69.8079240
 107.8502170 123.3790870  74.3133560 108.3059120 122.5980250  74.6272180
 108.1894690 124.0897690  74.8574740 112.5978980 112.3089720  84.6458000
 111.9823250 112.8169390  84.1173460 112.2775400 111.4088050  84.5883940
 100.3723490 108.2813090  76.5084870  99.9291640 109.0622630  76.1769390
 100.9308480 108.6042980  77.2155810 104.6593300 111.1481610  82.1120190
 104.1972670 111.3564630  82.9240130 104.2571410 110.3340960  81.8090860
 109.6597810 112.3690560  83.2416850 108.8091400 112.0696310  83.5625920
 109.4999600 112.6132570  82.3300670 106.7547520 113.8692310  85.3415640
 107.0800930 113.0356060  85.0017870 107.5427850 114.3920830  85.4893970
 103.4882310 107.9023790  71.3890700 102.8636490 107.8983660  72.1144010
 103.4012430 107.0354750  70.9926670 102.4099390 108.8260420  78.3674470
 102.7071720 109.7323250  78.2866490 102.9584950 108.3379200  77.7534040
 100.1637710 113.4046660  74.2366120  99.9378630 113.1883830  75.1412740
  99.3830240 113.8375120  73.8912090 107.3935470 113.4110030  72.8356770
 106.7944360 114.1345830  72.6520390 107.9415080 113.3486810  72.0533220
 102.6036920 114.3032240  84.9026390 102.5080520 113.3626970  84.7526790
 103.4468900 114.5247310  84.5074460 106.0000340 112.0473570  74.8660050
 106.3929910 112.3645770  74.0528740 106.3617190 111.1685450  74.9804570
  97.7347460 110.7145910  83.0560170  97.3410850 111.5621120  83.2632950
  97.0465860 110.0772280  83.2468810 104.3092510 110.7980880  86.1256910
 103.6190830 110.6053080  86.7603000 105.0524810 111.0815520  86.6581210
  95.0364510 108.6374370  77.0890250  94.7477560 109.2077230  77.8015230
  95.7810270 108.1578820  77.4521480  95.2234740 112.5794490  68.2992970
  95.1409410 113.5225250  68.4407960  94.8717800 112.4369400  67.4205320
 103.0232870 111.3133520  77.3663320 103.0268930 110.8723470  76.5167860
 103.9183990 111.6350850  77.4735140  98.8735250 111.1960010  76.3257530
  98.5335300 111.6735240  77.0824580  98.1112570 110.7425130  75.9658630
 103.0853020 112.3145600  70.3570080 103.2065840 112.2732080  71.3055900
 102.7001530 113.1769750  70.2016810 107.0481390 110.0913000  78.3733770
 107.0654130 110.5421650  79.2175620 106.7996970 109.1918640  78.5867210
 102.0974520 114.6246740  69.7553380 101.5291420 114.1764990  69.1289290
 102.8063520 114.9839520  69.2218530 110.4752140 107.5045180  84.2120150
 110.7997910 106.7734840  84.7378130 110.5108650 107.1858820  83.3101140
  97.1743700 118.5258760  83.6320110  96.7898490 117.8852430  84.2303070
  97.4855890 119.2294880  84.2014840 103.3240840 115.3735300  79.1128730
 103.6910970 114.8993870  79.8590070 103.1345900 116.2476870  79.4537070
  96.1881330 110.1178990  75.2422200  95.9028250 109.7534660  76.0800820
  96.1260190 109.3859450  74.6285340 101.1140210 114.4143940  81.4312940
 100.8097280 115.2935920  81.6563300 102.0686670 114.4743730  81.4670380
  99.6422000 118.6204930  72.0279790  98.8684260 118.0802550  71.8678510
 100.3716630 118.1011540  71.6897550 105.8619920 109.0108250  71.9635570
 105.0484530 108.5121420  71.8880880 105.6681870 109.8506500  71.5471920
 108.5768310 113.3827900  70.2597730 109.4647930 113.6945130  70.0849070
 108.5473400 112.5100150  69.8678310  99.6859400 118.2885310  75.6658600
 100.2038070 117.4853570  75.6115490  99.2343420 118.2264450  76.5075430
 104.5728900 119.5551590  70.9385900 104.9144600 120.2993820  70.4429220
 103.7441610 119.8682710  71.3010730  97.1703940 115.2546680  82.5784300
  96.8118880 115.9200530  83.1657640  96.8758500 114.4230230  82.9496920
 100.3717060 115.7130920  85.4623850 100.0717200 115.8588100  84.5651670
 101.1428300 115.1536210  85.3697240 110.8482580 114.6939740  69.7277590
 110.7646300 115.1253960  68.8774030 111.5676770 115.1538090  70.1604410
 111.8769830 121.5482000  72.4559720 111.2345990 120.8937620  72.7303440
 111.4900490 121.9537090  71.6800390 103.5419590 119.6365120  73.7101820
 104.2290720 120.1834330  74.0909410 102.7552010 120.1805850  73.7451430
 102.8446800 116.6411150  73.3227180 103.3009580 117.4516400  73.5487370
 102.4935010 116.3234290  74.1545670 110.2667210 120.4398460  68.9936070
 110.0404790 119.7228900  69.5860710 109.8763410 120.1910900  68.1557820
  96.0483240 124.4665320  69.7680530  96.4080880 125.0654660  69.1137800
  95.9075580 125.0125210  70.5415560 109.8483460 118.3570400  70.6550230
 109.5605160 118.8183090  71.4428110 110.6435630 117.8968170  70.9234450
 102.0651860 121.8496520  70.5854200 102.0561960 122.5826210  69.9698710
 101.1450220 121.6028100  70.6781160 107.2391290 111.2362230  81.0057850
 107.6072110 110.4157440  81.3337420 106.3789490 111.2964120  81.4213500
 110.6053320 110.1919170  71.8145410 109.9766480 110.2964840  71.1003640
 110.1105240 110.4115950  72.6039290 105.0511460 121.9124760  69.2479390
 105.1523440 121.7088750  68.3181370 104.1513200 121.6583040  69.4527170
 102.5737350 112.4705120  73.2303290 101.8653500 112.9391460  73.6716900
 102.8581830 111.8127130  73.8648480 106.6052780 109.1955780  74.6699080
 106.4820560 109.2141910  73.7208590 107.5537340 109.2434720  74.7897480
 103.6929570 124.4311080  73.9427060 103.9471070 124.3932470  73.0206430
 102.7442050 124.3044410  73.9355310 111.4060140 110.1069780  82.0724210
 110.9033740 110.8475180  82.4118020 112.2216800 110.4953780  81.7561000
  99.6763790 117.0322560  69.0789530 100.4427060 116.9203920  69.6414960
  99.7538480 116.3360530  68.4266300  98.3710550 114.4647630  69.7622420
  98.4514140 113.5175140  69.8739820  99.2630300 114.7954510  69.8683080
 111.7007730 122.5211810  77.1939830 111.8255150 123.3442980  77.6663640
 112.5673290 122.3102540  76.8463980  99.1725260 124.6143020  76.8656960
  99.9087740 124.0658480  77.1365530  99.5566180 125.4799030  76.7262950
  98.1783540 123.7989090  86.0542540  98.9796270 124.1201140  86.4677940
  97.6635360 123.4384670  86.7762450 102.2827570 123.7873330  68.6882530
 103.0756180 124.0762160  68.2364320 101.7631920 123.3565500  68.0095010
 108.4448540 123.6349250  84.6127360 109.3970290 123.5507270  84.5627600
 108.2976760 124.2990960  85.2861150 111.3357740 123.0143460  70.1119270
 111.0499250 122.6008600  69.2973450 111.1377290 123.9431170  69.9919790
  95.8981350 116.2862550  84.9978590  96.4020370 115.7069830  85.5694820
  95.1588770 116.5702780  85.5354960 102.8004970 119.0076740  68.5524880
 102.6955610 118.3929090  69.2786260 102.6329190 118.4842630  67.7687890
 106.0407700 118.0696770  69.1566870 105.4917800 118.5166070  69.8009610
 106.6626960 117.5646020  69.6804540  97.9304430 114.4292140  85.8928660
  97.9709770 114.1306010  86.8013890  98.7849930 114.8299750  85.7336180
 101.7082820 117.0287690  71.0532170 102.1299240 116.8627560  71.8963560
 101.8333660 116.2187920  70.5587310  99.8710240 113.0084240  83.8603150
  99.3406700 112.5175190  83.2326490 100.5398310 113.4368440  83.3261080
 104.2210460 116.0525300  68.3009270 104.7416120 115.3374320  67.9350420
 104.8678860 116.6911170  68.6009780 109.2410470 114.8149860  85.6283490
 109.8231240 114.0602180  85.5403970 109.4172240 115.3457300  84.8514970
 100.3582540 109.9746610  83.9400440 100.2639410 109.3567360  83.2151310
  99.7779930 110.7012900  83.7130350 103.1243980 108.5319850  80.9727830
 102.6761280 108.5544110  80.1273380 102.4909180 108.1338870  81.5698130
 100.6041720 113.1020920  67.9990330 100.4030780 112.2388280  68.3603670
 100.4333770 113.0154280  67.0611930 102.6336200 111.7011710  84.2353930
 103.2235890 111.3927560  84.9231750 101.8156440 111.2291460  84.3913830
 107.4529630 111.3177520  84.4686950 106.7645150 110.6559060  84.4036940
 108.1735650 110.8715790  84.9135410 108.0830030 107.9129150  70.5277210
 108.3632320 107.0697050  70.8836630 107.3095760 108.1452260  71.0415960
  99.4024520 110.2021540  67.9868210  99.7050420 110.2088970  67.0787360
 100.1419110 109.8519400  68.4835870 102.6209450 109.1456160  68.9724410
 102.2731450 108.4680150  68.3926860 102.8222220 108.6845670  69.7867800
 104.7858490 124.1336910  70.5911010 105.6809280 124.4721880  70.6129770
 104.8176120 123.4116320  69.9635290  98.4254650 119.5063960  68.8198010
  98.8629520 120.0493630  69.4755590  98.9102380 118.6810910  68.8294350
  95.6400450 122.2952990  76.2718270  95.9703460 121.4274050  76.0396910
  96.0691450 122.5011510  77.1023230 100.2362370 120.6262000  73.9320240
  99.9357910 120.5026970  74.8324150 100.1299860 119.7670590  73.5235970
 111.7652840 122.6640580  83.2977210 111.1654830 122.7233140  82.5541130
 111.8946740 121.7245560  83.4274060 113.0054290 120.4058400  68.6346920
 112.1747250 120.4735050  69.1054150 113.1826120 121.2962520  68.3313780
 112.4610750 117.1505880  71.1381120 113.2229660 117.7202530  71.2440810
 112.4765120 116.5833080  71.9089430 113.4670720 118.0055980  75.9823050
 113.8379550 117.2223300  75.5759020 114.1072650 118.6945080  75.8040350
 112.5129920 117.4440250  68.2953640 112.7878760 118.3519130  68.1672860
 112.3240660 117.3802780  69.2315630 108.9105530 110.4685100  69.5907270
 109.3290410 110.2816080  68.7503930 108.6041590 109.6164150  69.9010200
 112.4095260 115.3809240  73.2883070 112.0338860 114.6137170  72.8564360
 111.6798380 115.7631940  73.7758000  96.9991020 116.0596380  79.9092120
  97.3664060 115.9723780  80.7888140  96.4301840 115.2962930  79.8098980
  96.5507020 112.9705470  83.8150540  95.6563070 112.9372230  84.1544250
  97.0904570 113.1692260  84.5801790  95.1753170 112.8842740  71.3114110
  94.2717250 113.1472940  71.1365770  95.6593790 113.1553910  70.5314070
  97.7180380 111.9408280  69.2208490  98.4272080 111.5191500  68.7355770
  97.0020320 112.0083510  68.5891840  97.3654540 107.9947610  68.2611140
  98.0882670 108.5356550  68.5792360  97.6379060 107.7211030  67.3852680
 111.1746190 112.8640080  72.5282720 111.6705310 112.6310950  73.3131600
 110.9762260 112.0251920  72.1120360  97.0546730 107.2453800  78.1633760
  97.7022920 106.6951180  77.7228920  97.4748570 107.4996950  78.9849570
 110.9499070 107.4395160  81.5203400 111.5871290 108.0529300  81.8862590
 111.0973960 107.4755820  80.5752630 110.5080530 124.1411160  74.9221640
 111.1039600 123.8195730  74.2456060 110.7658680 123.6682980  75.7134910
  96.8078730 107.4009470  80.9059080  96.4593550 107.8573290  81.6717260
  96.4766430 106.5066600  80.9881510  98.4143100 120.5729070  85.0712270
  98.3712730 120.2021980  85.9526730  98.5454110 121.5106640  85.2114090
 104.3203550 108.5921350  84.4278500 104.2592440 109.1843180  85.1773910
 105.2603930 108.4847310  84.2828760 106.9578110 108.2491410  84.0670790
 107.5718520 108.5670700  83.4051870 107.5027670 107.7640000  84.6866650
 113.3753290 124.1483040  81.4732630 112.8811570 124.5451910  80.7559760
 112.7666580 123.5232250  81.8669910 107.6986150 106.8123550  80.3940080
 106.8245990 107.1458660  80.1913010 107.5896900 106.3396730  81.2191950
 108.6058130 109.0194420  81.7781800 108.2771490 108.2046180  81.3983530
 109.5540430 108.9764230  81.6547490 111.0592740 124.7906460  78.7519370
 110.5995710 125.5422270  78.3777390 110.4305200 124.0712930  78.6934170
 105.4460970 107.7293390  79.3332990 104.6632760 108.2038890  79.6129750
 105.1523900 106.8248220  79.2246170  96.1673360 124.2024090  74.3514850
  95.9995400 123.5694770  75.0496740  95.3007870 124.4083490  74.0009040
 103.3315190 110.1480140  74.8449020 102.5189700 109.7737030  74.5044900
 103.8356830 109.3925220  75.1470210  97.7736060 122.8957320  71.7964990
  97.2483680 123.2765350  71.0926950  97.6980640 123.5208090  72.5174700
 112.5301380 124.4544860  73.1178930 112.7053570 123.7682600  72.4739850
 111.8322950 124.9791910  72.7255600  99.5343820 120.9604430  70.6760570
  98.9052700 121.4289530  71.2246400  99.6491650 120.1153650  71.1106760
 108.0835390 106.9917620  86.4627030 107.9700840 107.3112230  87.3578550
 108.9005130 107.3930130  86.1664310 110.8633880 124.1389150  85.9445720
 111.6559200 123.6438380  85.7371680 111.1567030 124.8179290  86.5521330
  99.1377410 117.1008920  59.5846800  98.3062290 116.8457630  59.9843310
  99.7458390 117.1719690  60.3204720  99.7230750 110.6442310  54.4027570
  99.8297500 111.5446040  54.7096330  98.8123110 110.5960280  54.1122220
  97.3713910 112.5661320  59.6480160  98.0524020 112.8299690  60.2667560
  97.0561960 111.7262190  59.9818170 101.5638480 113.6128680  58.7352750
 102.0716700 114.1109650  59.3757770 102.0951720 112.8363880  58.5592110
 113.6649410 111.7833870  62.4382100 112.9601580 112.1715580  61.9197210
 113.9307330 112.4784160  63.0403030  99.8474580 108.2527240  63.0016170
  99.8493020 108.7699630  62.1962070  99.0178890 107.7757420  62.9786100
 106.2345670 118.3646550  54.5006070 105.6162940 118.8296000  53.9368790
 106.7468920 119.0574030  54.9175580  99.5289910 109.9637200  61.0086620
  99.8706720 110.8079250  60.7140490  98.5905720 110.1120940  61.1251960
 111.2274120 121.3242630  60.9093490 110.5437640 121.9941740  60.9010160
 111.7668410 121.5223280  60.1438350 112.6798260 111.1522290  59.0375220
 111.7323170 111.1861270  59.1690650 113.0048250 111.9661240  59.4224580
 103.2117800 107.4519470  57.3331210 103.5192780 106.8966360  56.6166710
 102.2818500 107.5863930  57.1504200 105.5998560 115.5168300  54.0691330
 104.6727840 115.4505680  54.2979800 105.7523380 116.4548430  53.9546570
 105.5867640 111.7885300  51.0658490 104.6471310 111.9499260  51.1510950
 105.9050900 112.5070980  50.5194480 112.1080400 116.4703820  61.0437520
 111.2799030 116.5396910  60.5687650 112.7030880 117.0558130  60.5753350
 109.6295850 117.0788600  54.5726580 109.0108270 116.7408150  53.9252880
 109.6120300 116.4348360  55.2805770 101.2055200 116.0433040  56.8511060
 100.8012200 115.3310290  56.3556960 101.2918320 115.6986280  57.7399100
  99.9183820 112.8176250  60.6310100 100.4698410 112.9271590  59.8563350
 100.4327330 113.1913850  61.3465330 109.7622510 123.3032470  62.6773370
 109.2853070 124.1104660  62.4845980 109.0784300 122.6510800  62.8299580
  99.5926550 116.3395610  64.2415440  99.4534320 117.2118410  64.6102840
  98.7107910 115.9968420  64.0963380 111.3877690 107.5718220  49.8940370
 111.0750350 107.6645050  50.7939440 112.1490160 108.1499250  49.8437800
 113.3421720 123.0644410  67.7464760 113.8181440 123.5427300  68.4253840
 113.9628880 122.9961900  67.0210260  95.5445200 118.1093160  60.1586350
  95.6225620 118.2441930  59.2142070  96.1586880 117.4009050  60.3514470
 112.7454970 120.2557260  64.9064770 112.8718030 120.0169140  63.9881950
 112.7876350 119.4241800  65.3786850 101.0614490 124.0239130  54.6815200
 100.8856970 123.1074670  54.4683000 100.2070230 124.3826420  54.9213000
 112.5978980 112.3089720  65.8714510 111.9823250 112.8169390  65.3429970
 112.2775400 111.4088050  65.8140450 100.3723490 108.2813090  57.7341380
  99.9291640 109.0622630  57.4025900 100.9308480 108.6042980  58.4412320
 104.6593300 111.1481610  63.3376700 104.1972670 111.3564630  64.1496640
 104.2571410 110.3340960  63.0347370 109.6597810 112.3690560  64.4673360
 108.8091400 112.0696310  64.7882430 109.4999600 112.6132570  63.5557180
 106.7547520 113.8692310  66.5672150 107.0800930 113.0356060  66.2274380
 107.5427850 114.3920830  66.7150480 102.4099390 108.8260420  59.5930980
 102.7071720 109.7323250  59.5123000 102.9584950 108.3379200  58.9790550
 107.3935470 113.4110030  54.0613280 106.7944360 114.1345830  53.8776900
 107.9415080 113.3486810  53.2789730 102.6036920 114.3032240  66.1282900
 102.5080520 113.3626970  65.9783300 103.4468900 114.5247310  65.7330970
 106.0000340 112.0473570  56.0916560 106.3929910 112.3645770  55.2785250
 106.3617190 111.1685450  56.2061080  97.7347460 110.7145910  64.2816680
  97.3410850 111.5621120  64.4889460  97.0465860 110.0772280  64.4725320
 104.3092510 110.7980880  67.3513420 103.6190830 110.6053080  67.9859510
 105.0524810 111.0815520  67.8837720  95.0364510 108.6374370  58.3146760
  94.7477560 109.2077230  59.0271740  95.7810270 108.1578820  58.6777990
  95.2234740 112.5794490  49.5249480  95.1409410 113.5225250  49.6664470
  94.8717800 112.4369400  48.6461830 103.0232870 111.3133520  58.5919830
 103.0268930 110.8723470  57.7424370 103.9183990 111.6350850  58.6991650
  98.8735250 111.1960010  57.5514040  98.5335300 111.6735240  58.3081090
  98.1112570 110.7425130  57.1915140 103.0853020 112.3145600  51.5826590
 103.2065840 112.2732080  52.5312410 102.7001530 113.1769750  51.4273320
 102.0974520 114.6246740  50.9809890 101.5291420 114.1764990  50.3545800
 102.8063520 114.9839520  50.4475040 110.4752140 107.5045180  65.4376660
 110.7997910 106.7734840  65.9634640 110.5108650 107.1858820  64.5357650
  96.1881330 110.1178990  56.4678710  95.9028250 109.7534660  57.3057330
  96.1260190 109.3859450  55.8541850 101.1140210 114.4143940  62.6569450
 100.8097280 115.2935920  62.8819810 102.0686670 114.4743730  62.6926890
 105.8619920 109.0108250  53.1892080 105.0484530 108.5121420  53.1137390
 105.6681870 109.8506500  52.7728430  99.6859400 118.2885310  56.8915110
 100.2038070 117.4853570  56.8372000  99.2343420 118.2264450  57.7331940
 104.5728900 119.5551590  52.1642410 104.9144600 120.2993820  51.6685730
 103.7441610 119.8682710  52.5267240  97.1703940 115.2546680  63.8040810
  96.8118880 115.9200530  64.3914150  96.8758500 114.4230230  64.1753430
 100.3717060 115.7130920  66.6880360 100.0717200 115.8588100  65.7908180
 101.1428300 115.1536210  66.5953750 111.9256720 117.1507260  64.0304070
 111.2004910 117.7436040  63.8333460 112.4532180 117.1430800  63.2317440
 111.8769830 121.5482000  53.6816230 111.2345990 120.8937620  53.9559950
 111.4900490 121.9537090  52.9056900 103.5419590 119.6365120  54.9358330
 104.2290720 120.1834330  55.3165920 102.7552010 120.1805850  54.9707940
 102.8446800 116.6411150  54.5483690 103.3009580 117.4516400  54.7743880
 102.4935010 116.3234290  55.3802180  98.7458580 106.9848800  55.0206210
  98.6173210 106.9766700  55.9691130  97.9220600 107.3231890  54.6697220
 108.1949110 120.9544740  63.6989500 108.5305350 121.5411430  64.3767420
 107.2749450 120.8237450  63.9287290  96.0483240 124.4665320  50.9937040
  96.4080880 125.0654660  50.3394310  95.9075580 125.0125210  51.7672070
  96.0325100 122.7320180  65.4679440  96.1416220 121.7914920  65.3274830
  95.3805660 122.9974930  64.8193170 102.0651860 121.8496520  51.8110710
 102.0561960 122.5826210  51.1955220 101.1450220 121.6028100  51.9037670
 110.6053320 110.1919170  53.0401920 109.9766480 110.2964840  52.3260150
 110.1105240 110.4115950  53.8295800 105.0511460 121.9124760  50.4735900
 105.1523440 121.7088750  49.5437880 104.1513200 121.6583040  50.6783680
 102.5737350 112.4705120  54.4559800 101.8653500 112.9391460  54.8973410
 102.8581830 111.8127130  55.0904990 104.1993280 113.8901820  62.4552330
 104.6978530 114.3647640  63.1204180 104.3416230 112.9665340  62.6622360
 106.6052780 109.1955780  55.8955590 106.4820560 109.2141910  54.9465100
 107.5537340 109.2434720  56.0153990 103.6929570 124.4311080  55.1683570
 103.9471070 124.3932470  54.2462940 102.7442050 124.3044410  55.1611820
 111.4060140 110.1069780  63.2980720 110.9033740 110.8475180  63.6374530
 112.2216800 110.4953780  62.9817510 109.6982150 115.3502960  56.7442080
 108.7572290 115.3653190  56.9189770 110.0126220 114.5638920  57.1902380
 107.0148170 119.9068960  67.2274460 106.4086330 119.9300560  66.4870210
 106.7102280 119.1752000  67.7641710  95.8981350 116.2862550  66.2235100
  96.4020370 115.7069830  66.7951330  95.1588770 116.5702780  66.7611470
 102.8004970 119.0076740  49.7781390 102.6955610 118.3929090  50.5042770
 102.6329190 118.4842630  48.9944400 106.0407700 118.0696770  50.3823380
 105.4917800 118.5166070  51.0266120 106.6626960 117.5646020  50.9061050
 110.0942640 119.4238870  66.3145640 110.8352110 119.7614630  65.8113100
 109.3315320 119.5930930  65.7615410  97.9304430 114.4292140  67.1185170
  97.9709770 114.1306010  68.0270400  98.7849930 114.8299750  66.9592690
  99.8710240 113.0084240  65.0859660  99.3406700 112.5175190  64.4583000
 100.5398310 113.4368440  64.5517590 104.2210460 116.0525300  49.5265780
 104.7416120 115.3374320  49.1606930 104.8678860 116.6911170  49.8266290
 108.7688300 117.4753700  64.8500850 109.1829320 117.6298780  65.6991270
 107.8339300 117.6008920  65.0126630 109.2410470 114.8149860  66.8540000
 109.8231240 114.0602180  66.7660480 109.4172240 115.3457300  66.0771480
 100.3582540 109.9746610  65.1656950 100.2639410 109.3567360  64.4407820
  99.7779930 110.7012900  64.9386860 103.1243980 108.5319850  62.1984340
 102.6761280 108.5544110  61.3529890 102.4909180 108.1338870  62.7954640
 105.8667430 115.1590360  64.2034620 105.9863640 114.5631500  64.9429460
 106.7261430 115.1960050  63.7835920 102.6336200 111.7011710  65.4610440
 103.2235890 111.3927560  66.1488260 101.8156440 111.2291460  65.6170340
 107.4529630 111.3177520  65.6943460 106.7645150 110.6559060  65.6293450
 108.1735650 110.8715790  66.1391920 104.7858490 124.1336910  51.8167520
 105.6809280 124.4721880  51.8386280 104.8176120 123.4116320  51.1891800
  98.4254650 119.5063960  50.0454520  98.8629520 120.0493630  50.7012100
  98.9102380 118.6810910  50.0550860  95.6400450 122.2952990  57.4974780
  95.9703460 121.4274050  57.2653420  96.0691450 122.5011510  58.3279740
 100.2362370 120.6262000  55.1576750  99.9357910 120.5026970  56.0580660
 100.1299860 119.7670590  54.7492480  96.1290660 123.1623580  60.2356410
  95.6921650 123.3424380  61.0680560  96.6968340 123.9198200  60.0938130
 111.7652840 122.6640580  64.5233720 111.1654830 122.7233140  63.7797640
 111.8946740 121.7245560  64.6530570 113.4670720 118.0055980  57.2079560
 113.8379550 117.2223300  56.8015530 114.1072650 118.6945080  57.0296860
 110.4504480 119.3892560  62.6209880 109.6364320 119.8189720  62.8835670
 110.8578680 120.0010970  62.0078930 108.9105530 110.4685100  50.8163780
 109.3290410 110.2816080  49.9760440 108.6041590 109.6164150  51.1266710
 112.4095260 115.3809240  54.5139580 112.0338860 114.6137170  54.0820870
 111.6798380 115.7631940  55.0014510  96.9991020 116.0596380  61.1348630
  97.3664060 115.9723780  62.0144650  96.4301840 115.2962930  61.0355490
 111.7994880 114.5280760  64.1479100 111.5680970 114.2993510  63.2477050
 112.0599430 115.4480310  64.1023990  96.5507020 112.9705470  65.0407050
  95.6563070 112.9372230  65.3800760  97.0904570 113.1692260  65.8058300
 110.2382950 109.7537190  66.9258800 111.1153130 109.7620590  67.3092800
 110.2503790 109.0168030  66.3151150 111.6846220 113.6066730  57.8146820
 112.2083700 113.1129380  57.1836990 112.2705640 113.7417090  58.5594390
  97.3654540 107.9947610  49.4867650  98.0882670 108.5356550  49.8048870
  97.6379060 107.7211030  48.6109190 112.6033350 111.5001030  56.2876910
 112.4932630 111.3457070  57.2259180 113.3640940 110.9721970  56.0452320
 104.3203550 108.5921350  65.6535010 104.2592440 109.1843180  66.4030420
 105.2603930 108.4847310  65.5085270 106.9578110 108.2491410  65.2927300
 107.5718520 108.5670700  64.6308380 107.5027670 107.7640000  65.9123160
 113.3753290 124.1483040  62.6989140 112.8811570 124.5451910  61.9816270
 112.7666580 123.5232250  63.0926420 108.6058130 109.0194420  63.0038310
 108.2771490 108.2046180  62.6240040 109.5540430 108.9764230  62.8804000
 111.8620610 108.0631730  56.6147410 111.8009010 107.1192950  56.4678430
 112.6412640 108.1711820  57.1600870  96.1673360 124.2024090  55.5771360
  95.9995400 123.5694770  56.2753250  95.3007870 124.4083490  55.2265550
  96.7901380 108.0340870  53.0803220  97.5480740 108.1469750  52.5067250
  96.3278550 108.8710070  53.0346650 103.3315190 110.1480140  56.0705530
 102.5189700 109.7737030  55.7301410 103.8356830 109.3925220  56.3726720
  97.7736060 122.8957320  53.0221500  97.2483680 123.2765350  52.3183460
  97.6980640 123.5208090  53.7431210 101.3564370 108.2980060  54.6750580
 100.7267110 107.5967370  54.8420710 100.8169510 109.0584190  54.4583740
 104.2956320 124.9119290  67.3461190 105.2223630 124.6763560  67.3897150
 104.2806750 125.7391290  66.8647220 101.4819930 107.5764040  67.1103070
 101.2004200 108.0797640  66.3463890 101.8639630 106.7785790  66.7445200
  99.5343820 120.9604430  51.9017080  98.9052700 121.4289530  52.4502910
  99.6491650 120.1153650  52.3363270 108.0835390 106.9917620  67.6883540
 107.9700840 107.3112230  68.5835060 108.9005130 107.3930130  67.3920820
 110.8633880 124.1389150  67.1702230 111.6559200 123.6438380  66.9628190
 111.1567030 124.8179290  67.7777840  99.1377410 117.1008920  40.8103310
  98.3062290 116.8457630  41.2099820  99.7458390 117.1719690  41.5461230
  99.1178670 121.1349010  41.0061330  99.4206710 120.2446750  40.8271550
  99.8622260 121.6919230  40.7783580 105.3682320 123.4807310  38.3330670
 104.7493760 123.9364810  37.7625110 106.2234100 123.6358770  37.9320370
  96.7527240 110.0700820  42.2654330  96.5730080 109.1726570  42.5457090
  96.3507320 110.6172690  42.9401280  99.7230750 110.6442310  35.6284080
  99.8297500 111.5446040  35.9352840  98.8123110 110.5960280  35.3378730
  97.3713910 112.5661320  40.8736670  98.0524020 112.8299690  41.4924070
  97.0561960 111.7262190  41.2074680 101.5638480 113.6128680  39.9609260
 102.0716700 114.1109650  40.6014280 102.0951720 112.8363880  39.7848620
 113.6649410 111.7833870  43.6638610 112.9601580 112.1715580  43.1453720
 113.9307330 112.4784160  44.2659540  99.8474580 108.2527240  44.2272680
  99.8493020 108.7699630  43.4218580  99.0178890 107.7757420  44.2042610
 101.0977430 117.8922420  42.4046180 100.7646810 118.5191340  43.0467250
 101.2744110 118.4184300  41.6247850  99.5289910 109.9637200  42.2343130
  99.8706720 110.8079250  41.9397000  98.5905720 110.1120940  42.3508470
 100.3096530 119.8603220  44.2195360 100.9270530 120.5354300  43.9379810
  99.4489650 120.2691200  44.1282860 111.2274120 121.3242630  42.1350000
 110.5437640 121.9941740  42.1266670 111.7668410 121.5223280  41.3694860
 112.6798260 111.1522290  40.2631730 111.7323170 111.1861270  40.3947160
 113.0048250 111.9661240  40.6481090 103.2117800 107.4519470  38.5587720
 103.5192780 106.8966360  37.8423220 102.2818500 107.5863930  38.3760710
 108.7632860 123.1686760  40.8495180 108.7760020 122.7649050  39.9817440
 108.2108080 123.9434050  40.7456610 108.1618300 118.0716600  42.1777790
 108.5787090 117.8576710  41.3431250 108.8858120 118.3289390  42.7486410
 105.5998560 115.5168300  35.2947840 104.6727840 115.4505680  35.5236310
 105.7523380 116.4548430  35.1803080 112.1080400 116.4703820  42.2694030
 111.2799030 116.5396910  41.7944160 112.7030880 117.0558130  41.8009860
 109.0722410 113.2573140  43.2148900 108.6593590 114.0826850  43.4688890
 108.3398360 112.6718180  43.0225260 101.2055200 116.0433040  38.0767570
 100.8012200 115.3310290  37.5813470 101.2918320 115.6986280  38.9655610
 101.6736900 119.7300600  40.2406780 101.3765190 119.1246070  39.5614560
 102.6236720 119.7677910  40.1296140  99.9183820 112.8176250  41.8566610
 100.4698410 112.9271590  41.0819860 100.4327330 113.1913850  42.5721840
 109.7622510 123.3032470  43.9029880 109.2853070 124.1104660  43.7102490
 109.0784300 122.6510800  44.0556090 100.7655330 119.4682290  46.8914580
  99.8683860 119.6922260  47.1387980 100.7908200 119.5917230  45.9425980
  99.5926550 116.3395610  45.4671950  99.4534320 117.2118410  45.8359350
  98.7107910 115.9968420  45.3219890  95.5445200 118.1093160  41.3842860
  95.6225620 118.2441930  40.4398580  96.1586880 117.4009050  41.5770980
  96.7892830 119.8093350  37.7949040  96.3820910 119.9507940  36.9402640
  97.6805840 119.5253510  37.5920250 108.5826110 124.2440600  34.1300090
 108.4227250 123.9543540  35.0281920 108.4172820 123.4680730  33.5945320
 101.0614490 124.0239130  35.9071710 100.8856970 123.1074670  35.6939510
 100.2070230 124.3826420  36.1469510 108.2852240 121.7528160  32.6898090
 107.5917400 121.7505450  32.0300370 109.0275100 121.3287480  32.2592260
  95.6004720 119.1507330  43.9237320  95.7635760 118.6812690  43.1056690
  96.0657170 118.6430890  44.5886160 100.3723490 108.2813090  38.9597890
  99.9291640 109.0622630  38.6282410 100.9308480 108.6042980  39.6668830
 104.6593300 111.1481610  44.5633210 104.1972670 111.3564630  45.3753150
 104.2571410 110.3340960  44.2603880 103.4882310 107.9023790  33.8403720
 102.8636490 107.8983660  34.5657030 103.4012430 107.0354750  33.4439690
 102.4099390 108.8260420  40.8187490 102.7071720 109.7323250  40.7379510
 102.9584950 108.3379200  40.2047060 100.1637710 113.4046660  36.6879140
  99.9378630 113.1883830  37.5925760  99.3830240 113.8375120  36.3425110
 102.6036920 114.3032240  47.3539410 102.5080520 113.3626970  47.2039810
 103.4468900 114.5247310  46.9587480 104.3092510 110.7980880  48.5769930
 103.6190830 110.6053080  49.2116020 105.0524810 111.0815520  49.1094230
 103.0232870 111.3133520  39.8176340 103.0268930 110.8723470  38.9680880
 103.9183990 111.6350850  39.9248160  98.8735250 111.1960010  38.7770550
  98.5335300 111.6735240  39.5337600  98.1112570 110.7425130  38.4171650
 102.0974520 114.6246740  32.2066400 101.5291420 114.1764990  31.5802310
 102.8063520 114.9839520  31.6731550 110.4752140 107.5045180  46.6633170
 110.7997910 106.7734840  47.1891150 110.5108650 107.1858820  45.7614160
  97.1743700 118.5258760  46.0833130  96.7898490 117.8852430  46.6816090
  97.4855890 119.2294880  46.6527860 103.3240840 115.3735300  41.5641750
 103.6910970 114.8993870  42.3103090 103.1345900 116.2476870  41.9050090
  96.1881330 110.1178990  37.6935220  95.9028250 109.7534660  38.5313840
  96.1260190 109.3859450  37.0798360 101.1140210 114.4143940  43.8825960
 100.8097280 115.2935920  44.1076320 102.0686670 114.4743730  43.9183400
  99.6422000 118.6204930  34.4792810  98.8684260 118.0802550  34.3191530
 100.3716630 118.1011540  34.1410570 105.7828780 117.6879350  46.1588200
 105.7166090 116.7675020  45.9045790 105.1533920 117.7854790  46.8732840
  99.6859400 118.2885310  38.1171620 100.2038070 117.4853570  38.0628510
  99.2343420 118.2264450  38.9588450 104.5728900 119.5551590  33.3898920
 104.9144600 120.2993820  32.8942240 103.7441610 119.8682710  33.7523750
 100.3717060 115.7130920  47.9136870 100.0717200 115.8588100  47.0164690
 101.1428300 115.1536210  47.8210260 105.7145510 120.5099920  45.9092000
 105.7290050 119.5780880  45.6910910 105.0070610 120.5959680  46.5481770
 111.9256720 117.1507260  45.2560580 111.2004910 117.7436040  45.0589970
 112.4532180 117.1430800  44.4573950 111.8769830 121.5482000  34.9072740
 111.2345990 120.8937620  35.1816460 111.4900490 121.9537090  34.1313410
 103.5419590 119.6365120  36.1614840 104.2290720 120.1834330  36.5422430
 102.7552010 120.1805850  36.1964450 102.8446800 116.6411150  35.7740200
 103.3009580 117.4516400  36.0000390 102.4935010 116.3234290  36.6058690
 105.1479410 122.1517490  43.0032500 105.7921630 122.3576870  43.6805920
 105.5108850 121.3905890  42.5503350  98.7458580 106.9848800  36.2462720
  98.6173210 106.9766700  37.1947640  97.9220600 107.3231890  35.8953730
 110.2667210 120.4398460  31.4449090 110.0404790 119.7228900  32.0373730
 109.8763410 120.1910900  30.6070840 108.1949110 120.9544740  44.9246010
 108.5305350 121.5411430  45.6023930 107.2749450 120.8237450  45.1543800
  96.0483240 124.4665320  32.2193550  96.4080880 125.0654660  31.5650820
  95.9075580 125.0125210  32.9928580 109.8483460 118.3570400  33.1063250
 109.5605160 118.8183090  33.8941130 110.6435630 117.8968170  33.3747470
  96.0325100 122.7320180  46.6935950  96.1416220 121.7914920  46.5531340
  95.3805660 122.9974930  46.0449680 104.0237690 121.0036070  48.0934070
 103.7034560 120.2845310  48.6379760 103.3496050 121.6791140  48.1670130
 102.0651860 121.8496520  33.0367220 102.0561960 122.5826210  32.4211730
 101.1450220 121.6028100  33.1294180 107.2391290 111.2362230  43.4570870
 107.6072110 110.4157440  43.7850440 106.3789490 111.2964120  43.8726520
 105.0511460 121.9124760  31.6992410 105.1523440 121.7088750  30.7694390
 104.1513200 121.6583040  31.9040190 102.5737350 112.4705120  35.6816310
 101.8653500 112.9391460  36.1229920 102.8581830 111.8127130  36.3161500
 104.1993280 113.8901820  43.6808840 104.6978530 114.3647640  44.3460690
 104.3416230 112.9665340  43.8878870 103.6929570 124.4311080  36.3940080
 103.9471070 124.3932470  35.4719450 102.7442050 124.3044410  36.3868330
 100.7772370 110.7790200  33.0567020 101.6262900 111.2160350  32.9907210
 100.4103640 111.0910460  33.8839080 111.4060140 110.1069780  44.5237230
 110.9033740 110.8475180  44.8631040 112.2216800 110.4953780  44.2074020
 111.7007730 122.5211810  39.6452850 111.8255150 123.3442980  40.1176660
 112.5673290 122.3102540  39.2977000  96.0570740 120.6816590  35.1911490
  95.1310520 120.9237730  35.1816900  96.5227170 121.5090850  35.0696240
  98.1783540 123.7989090  48.5055560  98.9796270 124.1201140  48.9190960
  97.6635360 123.4384670  49.2275470 102.2827570 123.7873330  31.1395550
 103.0756180 124.0762160  30.6877340 101.7631920 123.3565500  30.4608030
 111.3357740 123.0143460  32.5632290 111.0499250 122.6008600  31.7486470
 111.1377290 123.9431170  32.4432810 102.8004970 119.0076740  31.0037900
 102.6955610 118.3929090  31.7299280 102.6329190 118.4842630  30.2200910
 102.9519290 117.6933540  46.9827130 102.1864960 118.2618540  46.8981800
 103.1335250 117.4009750  46.0895360 106.0407700 118.0696770  31.6079890
 105.4917800 118.5166070  32.2522630 106.6626960 117.5646020  32.1317560
  97.9304430 114.4292140  48.3441680  97.9709770 114.1306010  49.2526910
  98.7849930 114.8299750  48.1849200 101.7082820 117.0287690  33.5045190
 102.1299240 116.8627560  34.3476580 101.8333660 116.2187920  33.0100330
  99.8710240 113.0084240  46.3116170  99.3406700 112.5175190  45.6839510
 100.5398310 113.4368440  45.7774100 100.3582540 109.9746610  46.3913460
 100.2639410 109.3567360  45.6664330  99.7779930 110.7012900  46.1643370
 103.1243980 108.5319850  43.4240850 102.6761280 108.5544110  42.5786400
 102.4909180 108.1338870  44.0211150 103.5303530 117.4274180  44.0453290
 103.9491640 118.2706910  43.8729530 102.6112160 117.5646220  43.8160070
 105.8667430 115.1590360  45.4291130 105.9863640 114.5631500  46.1685970
 106.7261430 115.1960050  45.0092430 108.2055330 115.7127550  44.0053640
 107.6790550 116.2370170  43.4018780 108.5486670 116.3454940  44.6363370
 102.6336200 111.7011710  46.6866950 103.2235890 111.3927560  47.3744770
 101.8156440 111.2291460  46.8426850 108.0830030 107.9129150  32.9790230
 108.3632320 107.0697050  33.3349650 107.3095760 108.1452260  33.4928980
  99.4024520 110.2021540  30.4381230  99.7050420 110.2088970  29.5300380
 100.1419110 109.8519400  30.9348890 102.6209450 109.1456160  31.4237430
 102.2731450 108.4680150  30.8439880 102.8222220 108.6845670  32.2380820
 104.7858490 124.1336910  33.0424030 105.6809280 124.4721880  33.0642790
 104.8176120 123.4116320  32.4148310  98.4254650 119.5063960  31.2711030
  98.8629520 120.0493630  31.9268610  98.9102380 118.6810910  31.2807370
 100.2362370 120.6262000  36.3833260  99.9357910 120.5026970  37.2837170
 100.1299860 119.7670590  35.9748990 111.7652840 122.6640580  45.7490230
 111.1654830 122.7233140  45.0054150 111.8946740 121.7245560  45.8787080
 113.0054290 120.4058400  31.0859940 112.1747250 120.4735050  31.5567170
 113.1826120 121.2962520  30.7826800 112.4610750 117.1505880  33.5894140
 113.2229660 117.7202530  33.6953830 112.4765120 116.5833080  34.3602450
  95.9615090 115.6743810  37.8201800  95.3063930 115.4055450  37.1761500
  96.7993040 115.5648290  37.3703780 110.4504480 119.3892560  43.8466390
 109.6364320 119.8189720  44.1092180 110.8578680 120.0010970  43.2335440
 112.5129920 117.4440250  30.7466660 112.7878760 118.3519130  30.6185880
 112.3240660 117.3802780  31.6828650 111.7994880 114.5280760  45.3735610
 111.5680970 114.2993510  44.4733560 112.0599430 115.4480310  45.3280500
 110.2382950 109.7537190  48.1515310 111.1153130 109.7620590  48.5349310
 110.2503790 109.0168030  47.5407660 111.8635940 113.6906600  42.5622880
 110.9138650 113.6570140  42.6767870 112.0448950 114.6006710  42.3272650
  97.3654540 107.9947610  30.7124160  98.0882670 108.5356550  31.0305380
  97.6379060 107.7211030  29.8365700 110.9499070 107.4395160  43.9716420
 111.5871290 108.0529300  44.3375610 111.0973960 107.4755820  43.0265650
 113.5662110 110.1019610  33.3796270 112.7713610 110.0364730  33.9089180
 113.7705390 111.0370250  33.3681620 110.5080530 124.1411160  37.3734660
 111.1039600 123.8195730  36.6969080 110.7658680 123.6682980  38.1647930
  98.4143100 120.5729070  47.5225290  98.3712730 120.2021980  48.4039750
  98.5454110 121.5106640  47.6627110 102.1149130 122.1288660  43.1235010
 101.8740490 122.3963220  42.2365530 103.0551770 122.2994390  43.1785870
 104.3203550 108.5921350  46.8791520 104.2592440 109.1843180  47.6286930
 105.2603930 108.4847310  46.7341780 106.9578110 108.2491410  46.5183810
 107.5718520 108.5670700  45.8564890 107.5027670 107.7640000  47.1379670
 113.3753290 124.1483040  43.9245650 112.8811570 124.5451910  43.2072780
 112.7666580 123.5232250  44.3182930  98.2531130 123.5191320  44.6423070
  97.6591450 123.3876020  45.3813110  98.2454970 122.6829460  44.1765170
 107.6986150 106.8123550  42.8453100 106.8245990 107.1458660  42.6426030
 107.5896900 106.3396730  43.6704970 108.6058130 109.0194420  44.2294820
 108.2771490 108.2046180  43.8496550 109.5540430 108.9764230  44.1060510
 111.0592740 124.7906460  41.2032390 110.5995710 125.5422270  40.8290410
 110.4305200 124.0712930  41.1447190  97.8843360 120.8849700  43.5931110
  97.1577420 120.2654990  43.5257060  97.9452510 121.2790310  42.7229190
 101.4888460 123.0994700  40.3780520 102.0053480 122.4882060  39.8528780
 102.1385840 123.6023480  40.8691530 104.2283960 123.9903190  41.2049500
 104.5161770 123.7357490  40.3282510 104.7407180 123.4380550  41.7955070
 105.4460970 107.7293390  41.7846010 104.6632760 108.2038890  42.0642770
 105.1523900 106.8248220  41.6759190 109.9982040 108.4316490  39.8295100
 110.4390130 108.3761590  38.9816700 109.7289630 109.3474500  39.9005280
 111.8620610 108.0631730  37.8403920 111.8009010 107.1192950  37.6934940
 112.6412640 108.1711820  38.3857380  96.7901380 108.0340870  34.3059730
  97.5480740 108.1469750  33.7323760  96.3278550 108.8710070  34.2603160
 103.3315190 110.1480140  37.2962040 102.5189700 109.7737030  36.9557920
 103.8356830 109.3925220  37.5983230 107.8340170 106.8122590  38.5345110
 108.4369540 107.3842800  39.0093630 107.0933160 107.3762030  38.3119010
  97.7736060 122.8957320  34.2478010  97.2483680 123.2765350  33.5439970
  97.6980640 123.5208090  34.9687720  99.1626530 108.5604920  32.8461700
  99.6919290 107.7734720  32.7169650  99.7954850 109.2396110  33.0797230
 101.3564370 108.2980060  35.9007090 100.7267110 107.5967370  36.0677220
 100.8169510 109.0584190  35.6840250 112.5301380 124.4544860  35.5691950
 112.7053570 123.7682600  34.9252870 111.8322950 124.9791910  35.1768620
 100.3729030 124.8439700  33.1227260 101.1047850 124.5598980  32.5751150
 100.6322700 124.6052980  34.0126640  99.5343820 120.9604430  33.1273590
  98.9052700 121.4289530  33.6759420  99.6491650 120.1153650  33.5619780
 106.9893540 115.0110090  19.2774790 106.9087590 114.0964700  19.0066500
 106.5757960 115.5077160  18.5714500 105.1211580 116.7889110  21.1584060
 104.3453680 116.3089550  21.4482630 105.7724510 116.1094760  20.9840220
  99.1377410 117.1008920  22.0359820  98.3062290 116.8457630  22.4356330
  99.7458390 117.1719690  22.7717740 109.1419010 121.1949300  19.9383190
 108.6800540 120.4236540  20.2670360 109.9544560 121.2215370  20.4435640
  99.1178670 121.1349010  22.2317840  99.4206710 120.2446750  22.0528060
  99.8622260 121.6919230  22.0040090  97.5469360 112.0610810  15.8202210
  96.6586060 112.4026780  15.7182090  97.8310550 111.8611130  14.9283040
  95.5102370 114.6616460  21.7041910  96.0818480 113.8938660  21.7045550
  95.5103910 114.9605220  20.7948520 105.3682320 123.4807310  19.5587180
 104.7493760 123.9364810  18.9881620 106.2234100 123.6358770  19.1576880
 104.5620570 119.4646300  21.1654220 104.4928850 118.5236240  21.0043350
 105.3240430 119.5547710  21.7376790  96.7527240 110.0700820  23.4910840
  96.5730080 109.1726570  23.7713600  96.3507320 110.6172690  24.1657790
 105.5925740 112.2716680  21.3923150 105.9690560 111.3988560  21.2796820
 105.4945250 112.6075380  20.5013590  99.7230750 110.6442310  16.8540590
  99.8297500 111.5446040  17.1609350  98.8123110 110.5960280  16.5635240
 109.3749860 109.7667120  18.3251490 110.1959480 109.2763690  18.3676970
 109.4083940 110.3564780  19.0783330  97.3713910 112.5661320  22.0993180
  98.0524020 112.8299690  22.7180580  97.0561960 111.7262190  22.4331190
 101.5638480 113.6128680  21.1865770 102.0716700 114.1109650  21.8270790
 102.0951720 112.8363880  21.0105130 113.6649410 111.7833870  24.8895120
 112.9601580 112.1715580  24.3710230 113.9307330 112.4784160  25.4916050
 106.2345670 118.3646550  16.9519090 105.6162940 118.8296000  16.3881810
 106.7468920 119.0574030  17.3688600 101.0977430 117.8922420  23.6302690
 100.7646810 118.5191340  24.2723760 101.2744110 118.4184300  22.8504360
 109.6111340 111.7067500  21.0979030 108.9066910 111.9952390  21.6782140
 109.9723500 112.5167610  20.7378590 100.3096530 119.8603220  25.4451870
 100.9270530 120.5354300  25.1636320  99.4489650 120.2691200  25.3539370
  95.6028870 119.0503080  14.3258720  95.2256850 119.5390180  13.5943620
  95.8601940 119.7228360  14.9565250 111.2274120 121.3242630  23.3606510
 110.5437640 121.9941740  23.3523180 111.7668410 121.5223280  22.5951370
 112.6798260 111.1522290  21.4888240 111.7323170 111.1861270  21.6203670
 113.0048250 111.9661240  21.8737600 103.2117800 107.4519470  19.7844230
 103.5192780 106.8966360  19.0679730 102.2818500 107.5863930  19.6017220
 108.7632860 123.1686760  22.0751690 108.7760020 122.7649050  21.2073950
 108.2108080 123.9434050  21.9713120 110.0578280 119.8902980  17.1641860
 109.9474610 118.9477310  17.2891280 110.0546530 120.2518620  18.0504620
 108.1618300 118.0716600  23.4034300 108.5787090 117.8576710  22.5687760
 108.8858120 118.3289390  23.9742920 105.5998560 115.5168300  16.5204350
 104.6727840 115.4505680  16.7492820 105.7523380 116.4548430  16.4059590
 105.5867640 111.7885300  13.5171510 104.6471310 111.9499260  13.6023970
 105.9050900 112.5070980  12.9707500 112.1080400 116.4703820  23.4950540
 111.2799030 116.5396910  23.0200670 112.7030880 117.0558130  23.0266370
 109.6295850 117.0788600  17.0239600 109.0108270 116.7408150  16.3765900
 109.6120300 116.4348360  17.7318790 109.0722410 113.2573140  24.4405410
 108.6593590 114.0826850  24.6945400 108.3398360 112.6718180  24.2481770
 101.2055200 116.0433040  19.3024080 100.8012200 115.3310290  18.8069980
 101.2918320 115.6986280  20.1912120 101.6736900 119.7300600  21.4663290
 101.3765190 119.1246070  20.7871070 102.6236720 119.7677910  21.3552650
  99.9183820 112.8176250  23.0823120 100.4698410 112.9271590  22.3076370
 100.4327330 113.1913850  23.7978350 109.7622510 123.3032470  25.1286390
 109.2853070 124.1104660  24.9359000 109.0784300 122.6510800  25.2812600
 100.7655330 119.4682290  28.1171090  99.8683860 119.6922260  28.3644490
 100.7908200 119.5917230  27.1682490 107.8060550 116.3175410  14.0312350
 108.2453830 115.4797840  13.8850170 108.5188970 116.9504810  14.1176490
  99.5926550 116.3395610  26.6928460  99.4534320 117.2118410  27.0615860
  98.7107910 115.9968420  26.5476400 105.9155930 121.2571480  17.9993590
 106.3551840 121.9995810  17.5848980 105.8542820 121.4998050  18.9232550
 101.3906900 122.2817310  28.9013610 101.3622330 122.6860260  28.0342040
 101.2271870 121.3527670  28.7385210 111.3877690 107.5718220  12.3453390
 111.0750350 107.6645050  13.2452460 112.1490160 108.1499250  12.2950820
  97.9059830 114.9378020  16.8030730  97.7857430 115.6640110  16.1912000
  97.5960720 114.1680930  16.3258640 113.3421720 123.0644410  30.1977780
 113.8181440 123.5427300  30.8766860 113.9628880 122.9961900  29.4723280
  95.5445200 118.1093160  22.6099370  95.6225620 118.2441930  21.6655090
  96.1586880 117.4009050  22.8027490  96.7892830 119.8093350  19.0205550
  96.3820910 119.9507940  18.1659150  97.6805840 119.5253510  18.8176760
 112.7454970 120.2557260  27.3577790 112.8718030 120.0169140  26.4394970
 112.7876350 119.4241800  27.8299870 106.6071710 123.9585260  25.9272600
 107.1216380 123.8693270  26.7295030 105.7640790 124.3044960  26.2200510
 108.5826110 124.2440600  15.3556600 108.4227250 123.9543540  16.2538430
 108.4172820 123.4680730  14.8201830 101.0614490 124.0239130  17.1328220
 100.8856970 123.1074670  16.9196020 100.2070230 124.3826420  17.3726020
 108.2852240 121.7528160  13.9154600 107.5917400 121.7505450  13.2556880
 109.0275100 121.3287480  13.4848770 107.8502170 123.3790870  17.9903090
 108.3059120 122.5980250  18.3041710 108.1894690 124.0897690  18.5344270
 112.5978980 112.3089720  28.3227530 111.9823250 112.8169390  27.7942990
 112.2775400 111.4088050  28.2653470  95.6004720 119.1507330  25.1493830
  95.7635760 118.6812690  24.3313200  96.0657170 118.6430890  25.8142670
 100.3723490 108.2813090  20.1854400  99.9291640 109.0622630  19.8538920
 100.9308480 108.6042980  20.8925340 104.6593300 111.1481610  25.7889720
 104.1972670 111.3564630  26.6009660 104.2571410 110.3340960  25.4860390
 109.6597810 112.3690560  26.9186380 108.8091400 112.0696310  27.2395450
 109.4999600 112.6132570  26.0070200 103.4882310 107.9023790  15.0660230
 102.8636490 107.8983660  15.7913540 103.4012430 107.0354750  14.6696200
 102.4099390 108.8260420  22.0444000 102.7071720 109.7323250  21.9636020
 102.9584950 108.3379200  21.4303570 100.1637710 113.4046660  17.9135650
  99.9378630 113.1883830  18.8182270  99.3830240 113.8375120  17.5681620
 107.3935470 113.4110030  16.5126300 106.7944360 114.1345830  16.3289920
 107.9415080 113.3486810  15.7302750 102.6036920 114.3032240  28.5795920
 102.5080520 113.3626970  28.4296320 103.4468900 114.5247310  28.1843990
 106.0000340 112.0473570  18.5429580 106.3929910 112.3645770  17.7298270
 106.3617190 111.1685450  18.6574100  95.0364510 108.6374370  20.7659780
  94.7477560 109.2077230  21.4784760  95.7810270 108.1578820  21.1291010
  95.2234740 112.5794490  11.9762500  95.1409410 113.5225250  12.1177490
  94.8717800 112.4369400  11.0974850 106.5855480 114.6379320  22.6380360
 105.8536600 115.1466130  22.9870460 106.1879820 113.8209300  22.3369140
 103.0232870 111.3133520  21.0432850 103.0268930 110.8723470  20.1937390
 103.9183990 111.6350850  21.1504670  98.8735250 111.1960010  20.0027060
  98.5335300 111.6735240  20.7594110  98.1112570 110.7425130  19.6428160
 103.0853020 112.3145600  14.0339610 103.2065840 112.2732080  14.9825430
 102.7001530 113.1769750  13.8786340 107.0481390 110.0913000  22.0503300
 107.0654130 110.5421650  22.8945150 106.7996970 109.1918640  22.2636740
 102.0974520 114.6246740  13.4322910 101.5291420 114.1764990  12.8058820
 102.8063520 114.9839520  12.8988060 110.4752140 107.5045180  27.8889680
 110.7997910 106.7734840  28.4147660 110.5108650 107.1858820  26.9870670
  97.1743700 118.5258760  27.3089640  96.7898490 117.8852430  27.9072600
  97.4855890 119.2294880  27.8784370 103.3240840 115.3735300  22.7898260
 103.6910970 114.8993870  23.5359600 103.1345900 116.2476870  23.1306600
  96.1881330 110.1178990  18.9191730  95.9028250 109.7534660  19.7570350
  96.1260190 109.3859450  18.3054870 101.1140210 114.4143940  25.1082470
 100.8097280 115.2935920  25.3332830 102.0686670 114.4743730  25.1439910
  99.6422000 118.6204930  15.7049320  98.8684260 118.0802550  15.5448040
 100.3716630 118.1011540  15.3667080 110.4009980 117.6170290  21.4975710
 111.1209100 118.1125580  21.1071820 110.1991800 116.9388180  20.8529580
 105.8619920 109.0108250  15.6405100 105.0484530 108.5121420  15.5650410
 105.6681870 109.8506500  15.2241450 105.7828780 117.6879350  27.3844710
 105.7166090 116.7675020  27.1302300 105.1533920 117.7854790  28.0989350
 108.5768310 113.3827900  13.9367260 109.4647930 113.6945130  13.7618600
 108.5473400 112.5100150  13.5447840  99.6859400 118.2885310  19.3428130
 100.2038070 117.4853570  19.2885020  99.2343420 118.2264450  20.1844960
 104.5728900 119.5551590  14.6155430 104.9144600 120.2993820  14.1198750
 103.7441610 119.8682710  14.9780260  97.1703940 115.2546680  26.2553830
  96.8118880 115.9200530  26.8427170  96.8758500 114.4230230  26.6266450
 105.7145510 120.5099920  27.1348510 105.7290050 119.5780880  26.9167420
 105.0070610 120.5959680  27.7738280 110.8482580 114.6939740  13.4047120
 110.7646300 115.1253960  12.5543560 111.5676770 115.1538090  13.8373940
 111.9256720 117.1507260  26.4817090 111.2004910 117.7436040  26.2846480
 112.4532180 117.1430800  25.6830460 111.8769830 121.5482000  16.1329250
 111.2345990 120.8937620  16.4072970 111.4900490 121.9537090  15.3569920
 107.4556310 118.8767430  19.9800940 107.8080130 118.2795560  19.3202310
 106.5718640 118.5511660  20.1509190 103.5419590 119.6365120  17.3871350
 104.2290720 120.1834330  17.7678940 102.7552010 120.1805850  17.4220960
  95.6811990 115.2537940  12.8788430  96.5506840 115.5362740  13.1624350
  95.1902310 116.0673810  12.7637240 102.8446800 116.6411150  16.9996710
 103.3009580 117.4516400  17.2256900 102.4935010 116.3234290  17.8315200
 105.1479410 122.1517490  24.2289010 105.7921630 122.3576870  24.9062430
 105.5108850 121.3905890  23.7759860  98.7458580 106.9848800  17.4719230
  98.6173210 106.9766700  18.4204150  97.9220600 107.3231890  17.1210240
 106.4211490 120.1549840  22.9466460 107.0633720 119.4543000  23.0598630
 106.9460840 120.9348280  22.7663350 110.2667210 120.4398460  12.6705600
 110.0404790 119.7228900  13.2630240 109.8763410 120.1910900  11.8327350
 108.1949110 120.9544740  26.1502520 108.5305350 121.5411430  26.8280440
 107.2749450 120.8237450  26.3800310  96.0483240 124.4665320  13.4450060
  96.4080880 125.0654660  12.7907330  95.9075580 125.0125210  14.2185090
 109.8483460 118.3570400  14.3319760 109.5605160 118.8183090  15.1197640
 110.6435630 117.8968170  14.6003980  96.0325100 122.7320180  27.9192460
  96.1416220 121.7914920  27.7787850  95.3805660 122.9974930  27.2706190
 104.0237690 121.0036070  29.3190580 103.7034560 120.2845310  29.8636270
 103.3496050 121.6791140  29.3926640 102.0651860 121.8496520  14.2623730
 102.0561960 122.5826210  13.6468240 101.1450220 121.6028100  14.3550690
  97.6658500 117.0711410  15.0070490  97.0586450 117.8110310  15.0165790
  98.1407850 117.1610770  14.1808690 107.2391290 111.2362230  24.6827380
 107.6072110 110.4157440  25.0106950 106.3789490 111.2964120  25.0983030
 110.6053320 110.1919170  15.4914940 109.9766480 110.2964840  14.7773170
 110.1105240 110.4115950  16.2808820 105.0511460 121.9124760  12.9248920
 105.1523440 121.7088750  11.9950900 104.1513200 121.6583040  13.1296700
 102.5737350 112.4705120  16.9072820 101.8653500 112.9391460  17.3486430
 102.8581830 111.8127130  17.5418010 104.1993280 113.8901820  24.9065350
 104.6978530 114.3647640  25.5717200 104.3416230 112.9665340  25.1135380
 106.6052780 109.1955780  18.3468610 106.4820560 109.2141910  17.3978120
 107.5537340 109.2434720  18.4667010 103.6929570 124.4311080  17.6196590
 103.9471070 124.3932470  16.6975960 102.7442050 124.3044410  17.6124840
 100.7772370 110.7790200  14.2823530 101.6262900 111.2160350  14.2163720
 100.4103640 111.0910460  15.1095590 111.4060140 110.1069780  25.7493740
 110.9033740 110.8475180  26.0887550 112.2216800 110.4953780  25.4330530
 109.6982150 115.3502960  19.1955100 108.7572290 115.3653190  19.3702790
 110.0126220 114.5638920  19.6415400  99.6763790 117.0322560  12.7559060
 100.4427060 116.9203920  13.3184490  99.7538480 116.3360530  12.1035830
  98.3710550 114.4647630  13.4391950  98.4514140 113.5175140  13.5509350
  99.2630300 114.7954510  13.5452610 111.7007730 122.5211810  20.8709360
 111.8255150 123.3442980  21.3433170 112.5673290 122.3102540  20.5233510
  99.1725260 124.6143020  20.5426490  99.9087740 124.0658480  20.8135060
  99.5566180 125.4799030  20.4032480  96.0570740 120.6816590  16.4168000
  95.1310520 120.9237730  16.4073410  96.5227170 121.5090850  16.2952750
  98.1783540 123.7989090  29.7312070  98.9796270 124.1201140  30.1447470
  97.6635360 123.4384670  30.4531980 102.2827570 123.7873330  12.3652060
 103.0756180 124.0762160  11.9133850 101.7631920 123.3565500  11.6864540
 107.0148170 119.9068960  29.6787480 106.4086330 119.9300560  28.9383230
 106.7102280 119.1752000  30.2154730 108.4448540 123.6349250  28.2896890
 109.3970290 123.5507270  28.2397130 108.2976760 124.2990960  28.9630680
 111.3357740 123.0143460  13.7888800 111.0499250 122.6008600  12.9742980
 111.1377290 123.9431170  13.6689320  95.8981350 116.2862550  28.6748120
  96.4020370 115.7069830  29.2464350  95.1588770 116.5702780  29.2124490
 102.8004970 119.0076740  12.2294410 102.6955610 118.3929090  12.9555790
 102.6329190 118.4842630  11.4457420 102.9519290 117.6933540  28.2083640
 102.1864960 118.2618540  28.1238310 103.1335250 117.4009750  27.3151870
 106.0407700 118.0696770  12.8336400 105.4917800 118.5166070  13.4779140
 106.6626960 117.5646020  13.3574070 110.0942640 119.4238870  28.7658660
 110.8352110 119.7614630  28.2626120 109.3315320 119.5930930  28.2128430
 101.7082820 117.0287690  14.7301700 102.1299240 116.8627560  15.5733090
 101.8333660 116.2187920  14.2356840 104.2210460 116.0525300  11.9778800
 104.7416120 115.3374320  11.6119950 104.8678860 116.6911170  12.2779310
 108.7688300 117.4753700  27.3013870 109.1829320 117.6298780  28.1504290
 107.8339300 117.6008920  27.4639650 103.1243980 108.5319850  24.6497360
 102.6761280 108.5544110  23.8042910 102.4909180 108.1338870  25.2467660
 103.5303530 117.4274180  25.2709800 103.9491640 118.2706910  25.0986040
 102.6112160 117.5646220  25.0416580 105.8667430 115.1590360  26.6547640
 105.9863640 114.5631500  27.3942480 106.7261430 115.1960050  26.2348940
 108.2055330 115.7127550  25.2310150 107.6790550 116.2370170  24.6275290
 108.5486670 116.3454940  25.8619880 100.6041720 113.1020920  11.6759860
 100.4030780 112.2388280  12.0373200 100.4333770 113.0154280  10.7381460
 101.3810950 123.7327190  26.3867530 100.8432040 124.4573250  26.0676230
 101.6344910 123.2557530  25.5964870 102.6336200 111.7011710  27.9123460
 103.2235890 111.3927560  28.6001280 101.8156440 111.2291460  28.0683360
 108.0830030 107.9129150  14.2046740 108.3632320 107.0697050  14.5606160
 107.3095760 108.1452260  14.7185490  99.4024520 110.2021540  11.6637740
  99.7050420 110.2088970  10.7556890 100.1419110 109.8519400  12.1605400
 104.2373160 124.9678400  26.6454180 104.1631860 125.8713540  26.9526550
 103.3352000 124.6490300  26.6176250 102.6209450 109.1456160  12.6493940
 102.2731450 108.4680150  12.0696390 102.8222220 108.6845670  13.4637330
 104.7858490 124.1336910  14.2680540 105.6809280 124.4721880  14.2899300
 104.8176120 123.4116320  13.6404820  98.4254650 119.5063960  12.4967540
  98.8629520 120.0493630  13.1525120  98.9102380 118.6810910  12.5063880
  95.6400450 122.2952990  19.9487800  95.9703460 121.4274050  19.7166440
  96.0691450 122.5011510  20.7792760 100.2362370 120.6262000  17.6089770
  99.9357910 120.5026970  18.5093680 100.1299860 119.7670590  17.2005500
  96.1290660 123.1623580  22.6869430  95.6921650 123.3424380  23.5193580
  96.6968340 123.9198200  22.5451150 111.7652840 122.6640580  26.9746740
 111.1654830 122.7233140  26.2310660 111.8946740 121.7245560  27.1043590
 113.0054290 120.4058400  12.3116450 112.1747250 120.4735050  12.7823680
 113.1826120 121.2962520  12.0083310 112.4610750 117.1505880  14.8150650
 113.2229660 117.7202530  14.9210340 112.4765120 116.5833080  15.5858960
  95.9615090 115.6743810  19.0458310  95.3063930 115.4055450  18.4018010
  96.7993040 115.5648290  18.5960290 113.4670720 118.0055980  19.6592580
 113.8379550 117.2223300  19.2528550 114.1072650 118.6945080  19.4809880
 110.4504480 119.3892560  25.0722900 109.6364320 119.8189720  25.3348690
 110.8578680 120.0010970  24.4591950 112.5129920 117.4440250  11.9723170
 112.7878760 118.3519130  11.8442390 112.3240660 117.3802780  12.9085160
 108.9105530 110.4685100  13.2676800 109.3290410 110.2816080  12.4273460
 108.6041590 109.6164150  13.5779730 112.4095260 115.3809240  16.9652600
 112.0338860 114.6137170  16.5333890 111.6798380 115.7631940  17.4527530
  96.9991020 116.0596380  23.5861650  97.3664060 115.9723780  24.4657670
  96.4301840 115.2962930  23.4868510 111.7994880 114.5280760  26.5992120
 111.5680970 114.2993510  25.6990070 112.0599430 115.4480310  26.5537010
  96.5507020 112.9705470  27.4920070  95.6563070 112.9372230  27.8313780
  97.0904570 113.1692260  28.2571320  95.1753170 112.8842740  14.9883640
  94.2717250 113.1472940  14.8135300  95.6593790 113.1553910  14.2083600
 111.6846220 113.6066730  20.2659840 112.2083700 113.1129380  19.6350010
 112.2705640 113.7417090  21.0107410 111.8635940 113.6906600  23.7879390
 110.9138650 113.6570140  23.9024380 112.0448950 114.6006710  23.5529160
  97.7180380 111.9408280  12.8978020  98.4272080 111.5191500  12.4125300
  97.0020320 112.0083510  12.2661370  97.3654540 107.9947610  11.9380670
  98.0882670 108.5356550  12.2561890  97.6379060 107.7211030  11.0622210
 111.1746190 112.8640080  16.2052250 111.6705310 112.6310950  16.9901130
 110.9762260 112.0251920  15.7889890 112.6033350 111.5001030  18.7389930
 112.4932630 111.3457070  19.6772200 113.3640940 110.9721970  18.4965340
 110.9499070 107.4395160  25.1972930 111.5871290 108.0529300  25.5632120
 111.0973960 107.4755820  24.2522160 113.4923620 109.3308950  11.9796070
 114.4172930 109.1990130  11.7714360 113.4699410 109.4101770  12.9332520
 113.5662110 110.1019610  14.6052780 112.7713610 110.0364730  15.1345690
 113.7705390 111.0370250  14.5938130 110.5080530 124.1411160  18.5991170
 111.1039600 123.8195730  17.9225590 110.7658680 123.6682980  19.3904440
  98.4143100 120.5729070  28.7481800  98.3712730 120.2021980  29.6296260
  98.5454110 121.5106640  28.8883620 102.1149130 122.1288660  24.3491520
 101.8740490 122.3963220  23.4622040 103.0551770 122.2994390  24.4042380
 104.3203550 108.5921350  28.1048030 104.2592440 109.1843180  28.8543440
 105.2603930 108.4847310  27.9598290 106.9578110 108.2491410  27.7440320
 107.5718520 108.5670700  27.0821400 107.5027670 107.7640000  28.3636180
 113.3753290 124.1483040  25.1502160 112.8811570 124.5451910  24.4329290
 112.7666580 123.5232250  25.5439440  98.2531130 123.5191320  25.8679580
  97.6591450 123.3876020  26.6069620  98.2454970 122.6829460  25.4021680
 107.6986150 106.8123550  24.0709610 106.8245990 107.1458660  23.8682540
 107.5896900 106.3396730  24.8961480 108.6058130 109.0194420  25.4551330
 108.2771490 108.2046180  25.0753060 109.5540430 108.9764230  25.3317020
 111.0592740 124.7906460  22.4288900 110.5995710 125.5422270  22.0546920
 110.4305200 124.0712930  22.3703700  97.8843360 120.8849700  24.8187620
  97.1577420 120.2654990  24.7513570  97.9452510 121.2790310  23.9485700
 101.4888460 123.0994700  21.6037030 102.0053480 122.4882060  21.0785290
 102.1385840 123.6023480  22.0948040 104.2283960 123.9903190  22.4306010
 104.5161770 123.7357490  21.5539020 104.7407180 123.4380550  23.0211580
 105.4460970 107.7293390  23.0102520 104.6632760 108.2038890  23.2899280
 105.1523900 106.8248220  22.9015700 109.9982040 108.4316490  21.0551610
 110.4390130 108.3761590  20.2073210 109.7289630 109.3474500  21.1261790
 111.8620610 108.0631730  19.0660430 111.8009010 107.1192950  18.9191450
 112.6412640 108.1711820  19.6113890  96.1673360 124.2024090  18.0284380
  95.9995400 123.5694770  18.7266270  95.3007870 124.4083490  17.6778570
  96.7901380 108.0340870  15.5316240  97.5480740 108.1469750  14.9580270
  96.3278550 108.8710070  15.4859670 103.3315190 110.1480140  18.5218550
 102.5189700 109.7737030  18.1814430 103.8356830 109.3925220  18.8239740
 107.8340170 106.8122590  19.7601620 108.4369540 107.3842800  20.2350140
 107.0933160 107.3762030  19.5375520 110.9774770 107.2144150  15.0341900
 111.1725400 108.1127600  15.3009330 110.1904640 106.9831230  15.5274850
  97.7736060 122.8957320  15.4734520  97.2483680 123.2765350  14.7696480
  97.6980640 123.5208090  16.1944230  99.1626530 108.5604920  14.0718210
  99.6919290 107.7734720  13.9426160  99.7954850 109.2396110  14.3053740
 101.3564370 108.2980060  17.1263600 100.7267110 107.5967370  17.2933730
 100.8169510 109.0584190  16.9096760 104.2956320 124.9119290  29.7974210
 105.2223630 124.6763560  29.8410170 104.2806750 125.7391290  29.3160240
 112.5301380 124.4544860  16.7948460 112.7053570 123.7682600  16.1509380
 111.8322950 124.9791910  16.4025130 101.4819930 107.5764040  29.5616090
 101.2004200 108.0797640  28.7976910 101.8639630 106.7785790  29.1958220
 100.3729030 124.8439700  14.3483770 101.1047850 124.5598980  13.8007660
 100.6322700 124.6052980  15.2383150  99.5343820 120.9604430  14.3530100
  98.9052700 121.4289530  14.9015930  99.6491650 120.1153650  14.7876290
 108.0835390 106.9917620  30.1396560 107.9700840 107.3112230  31.0348080
 108.9005130 107.3930130  29.8433840 110.8633880 124.1389150  29.6215250
 111.6559200 123.6438380  29.4141210 111.1567030 124.8179290  30.2290860
 105.1211580 116.7889110   2.3840570 104.3453680 116.3089550   2.6739140
 105.7724510 116.1094760   2.2096730  99.1377410 117.1008920   3.2616330
  98.3062290 116.8457630   3.6612840  99.7458390 117.1719690   3.9974250
  99.1178670 121.1349010   3.4574350  99.4206710 120.2446750   3.2784570
  99.8622260 121.6919230   3.2296600  95.5102370 114.6616460   2.9298420
  96.0818480 113.8938660   2.9302060  95.5103910 114.9605220   2.0205030
 104.5620570 119.4646300   2.3910730 104.4928850 118.5236240   2.2299860
 105.3240430 119.5547710   2.9633300  96.7527240 110.0700820   4.7167350
  96.5730080 109.1726570   4.9970110  96.3507320 110.6172690   5.3914300
 105.5925740 112.2716680   2.6179660 105.9690560 111.3988560   2.5053330
 105.4945250 112.6075380   1.7270100  97.3713910 112.5661320   3.3249690
  98.0524020 112.8299690   3.9437090  97.0561960 111.7262190   3.6587700
 101.5638480 113.6128680   2.4122280 102.0716700 114.1109650   3.0527300
 102.0951720 112.8363880   2.2361640 113.6649410 111.7833870   6.1151630
 112.9601580 112.1715580   5.5966740 113.9307330 112.4784160   6.7172560
  99.8474580 108.2527240   6.6785700  99.8493020 108.7699630   5.8731600
  99.0178890 107.7757420   6.6555630 101.0977430 117.8922420   4.8559200
 100.7646810 118.5191340   5.4980270 101.2744110 118.4184300   4.0760870
 109.6111340 111.7067500   2.3235540 108.9066910 111.9952390   2.9038650
 109.9723500 112.5167610   1.9635100  99.5289910 109.9637200   4.6856150
  99.8706720 110.8079250   4.3910020  98.5905720 110.1120940   4.8021490
 100.3096530 119.8603220   6.6708380 100.9270530 120.5354300   6.3892830
  99.4489650 120.2691200   6.5795880 111.2274120 121.3242630   4.5863020
 110.5437640 121.9941740   4.5779690 111.7668410 121.5223280   3.8207880
 112.6798260 111.1522290   2.7144750 111.7323170 111.1861270   2.8460180
 113.0048250 111.9661240   3.0994110 108.7632860 123.1686760   3.3008200
 108.7760020 122.7649050   2.4330460 108.2108080 123.9434050   3.1969630
 108.1618300 118.0716600   4.6290810 108.5787090 117.8576710   3.7944270
 108.8858120 118.3289390   5.1999430 112.1080400 116.4703820   4.7207050
 111.2799030 116.5396910   4.2457180 112.7030880 117.0558130   4.2522880
 109.0722410 113.2573140   5.6661920 108.6593590 114.0826850   5.9201910
 108.3398360 112.6718180   5.4738280 101.6736900 119.7300600   2.6919800
 101.3765190 119.1246070   2.0127580 102.6236720 119.7677910   2.5809160
  99.9183820 112.8176250   4.3079630 100.4698410 112.9271590   3.5332880
 100.4327330 113.1913850   5.0234860 109.7622510 123.3032470   6.3542900
 109.2853070 124.1104660   6.1615510 109.0784300 122.6510800   6.5069110
 100.7655330 119.4682290   9.3427600  99.8683860 119.6922260   9.5901000
 100.7908200 119.5917230   8.3939000  99.5926550 116.3395610   7.9184970
  99.4534320 117.2118410   8.2872370  98.7107910 115.9968420   7.7732910
 101.3906900 122.2817310  10.1270120 101.3622330 122.6860260   9.2598550
 101.2271870 121.3527670   9.9641720 113.3421720 123.0644410  11.4234290
 113.8181440 123.5427300  12.1023370 113.9628880 122.9961900  10.6979790
  95.5445200 118.1093160   3.8355880  95.6225620 118.2441930   2.8911600
  96.1586880 117.4009050   4.0284000 112.7454970 120.2557260   8.5834300
 112.8718030 120.0169140   7.6651480 112.7876350 119.4241800   9.0556380
 106.6071710 123.9585260   7.1529110 107.1216380 123.8693270   7.9551540
 105.7640790 124.3044960   7.4457020 112.5978980 112.3089720   9.5484040
 111.9823250 112.8169390   9.0199500 112.2775400 111.4088050   9.4909980
  95.6004720 119.1507330   6.3750340  95.7635760 118.6812690   5.5569710
  96.0657170 118.6430890   7.0399180 104.6593300 111.1481610   7.0146230
 104.1972670 111.3564630   7.8266170 104.2571410 110.3340960   6.7116900
 109.6597810 112.3690560   8.1442890 108.8091400 112.0696310   8.4651960
 109.4999600 112.6132570   7.2326710 106.7547520 113.8692310  10.2441680
 107.0800930 113.0356060   9.9043910 107.5427850 114.3920830  10.3920010
 102.4099390 108.8260420   3.2700510 102.7071720 109.7323250   3.1892530
 102.9584950 108.3379200   2.6560080 102.6036920 114.3032240   9.8052430
 102.5080520 113.3626970   9.6552830 103.4468900 114.5247310   9.4100500
  97.7347460 110.7145910   7.9586210  97.3410850 111.5621120   8.1658990
  97.0465860 110.0772280   8.1494850 104.3092510 110.7980880  11.0282950
 103.6190830 110.6053080  11.6629040 105.0524810 111.0815520  11.5607250
  95.0364510 108.6374370   1.9916290  94.7477560 109.2077230   2.7041270
  95.7810270 108.1578820   2.3547520 106.5855480 114.6379320   3.8636870
 105.8536600 115.1466130   4.2126970 106.1879820 113.8209300   3.5625650
 103.0232870 111.3133520   2.2689360 103.0268930 110.8723470   1.4193900
 103.9183990 111.6350850   2.3761180 107.0481390 110.0913000   3.2759810
 107.0654130 110.5421650   4.1201660 106.7996970 109.1918640   3.4893250
 110.4752140 107.5045180   9.1146190 110.7997910 106.7734840   9.6404170
 110.5108650 107.1858820   8.2127180  97.1743700 118.5258760   8.5346150
  96.7898490 117.8852430   9.1329110  97.4855890 119.2294880   9.1040880
 103.3240840 115.3735300   4.0154770 103.6910970 114.8993870   4.7616110
 103.1345900 116.2476870   4.3563110 101.1140210 114.4143940   6.3338980
 100.8097280 115.2935920   6.5589340 102.0686670 114.4743730   6.3696420
 110.4009980 117.6170290   2.7232220 111.1209100 118.1125580   2.3328330
 110.1991800 116.9388180   2.0786090 105.7828780 117.6879350   8.6101220
 105.7166090 116.7675020   8.3558810 105.1533920 117.7854790   9.3245860
  97.1703940 115.2546680   7.4810340  96.8118880 115.9200530   8.0683680
  96.8758500 114.4230230   7.8522960 100.3717060 115.7130920  10.3649890
 100.0717200 115.8588100   9.4677710 101.1428300 115.1536210  10.2723280
 105.7145510 120.5099920   8.3605020 105.7290050 119.5780880   8.1423930
 105.0070610 120.5959680   8.9994790 111.9256720 117.1507260   7.7073600
 111.2004910 117.7436040   7.5102990 112.4532180 117.1430800   6.9086970
 105.1479410 122.1517490   5.4545520 105.7921630 122.3576870   6.1318940
 105.5108850 121.3905890   5.0016370 106.4211490 120.1549840   4.1722970
 107.0633720 119.4543000   4.2855140 106.9460840 120.9348280   3.9919860
 108.1949110 120.9544740   7.3759030 108.5305350 121.5411430   8.0536950
 107.2749450 120.8237450   7.6056820  95.7452510 108.7439920   8.1582440
  95.0311030 108.9436840   8.7635050  96.1647550 107.9679490   8.5297240
  96.0325100 122.7320180   9.1448970  96.1416220 121.7914920   9.0044360
  95.3805660 122.9974930   8.4962700 104.0237690 121.0036070  10.5447090
 103.7034560 120.2845310  11.0892780 103.3496050 121.6791140  10.6183150
 107.2391290 111.2362230   5.9083890 107.6072110 110.4157440   6.2363460
 106.3789490 111.2964120   6.3239540 104.1993280 113.8901820   6.1321860
 104.6978530 114.3647640   6.7973710 104.3416230 112.9665340   6.3391890
 111.4060140 110.1069780   6.9750250 110.9033740 110.8475180   7.3144060
 112.2216800 110.4953780   6.6587040 111.7007730 122.5211810   2.0965870
 111.8255150 123.3442980   2.5689680 112.5673290 122.3102540   1.7490020
  99.1725260 124.6143020   1.7683000  99.9087740 124.0658480   2.0391570
  99.5566180 125.4799030   1.6288990  98.1783540 123.7989090  10.9568580
  98.9796270 124.1201140  11.3703980  97.6635360 123.4384670  11.6788490
 107.0148170 119.9068960  10.9043990 106.4086330 119.9300560  10.1639740
 106.7102280 119.1752000  11.4411240 108.4448540 123.6349250   9.5153400
 109.3970290 123.5507270   9.4653640 108.2976760 124.2990960  10.1887190
  95.8981350 116.2862550   9.9004630  96.4020370 115.7069830  10.4720860
  95.1588770 116.5702780  10.4381000 102.9519290 117.6933540   9.4340150
 102.1864960 118.2618540   9.3494820 103.1335250 117.4009750   8.5408380
 110.0942640 119.4238870   9.9915170 110.8352110 119.7614630   9.4882630
 109.3315320 119.5930930   9.4384940  97.9304430 114.4292140  10.7954700
  97.9709770 114.1306010  11.7039930  98.7849930 114.8299750  10.6362220
  99.8710240 113.0084240   8.7629190  99.3406700 112.5175190   8.1352530
 100.5398310 113.4368440   8.2287120 108.7688300 117.4753700   8.5270380
 109.1829320 117.6298780   9.3760800 107.8339300 117.6008920   8.6896160
 109.2410470 114.8149860  10.5309530 109.8231240 114.0602180  10.4430010
 109.4172240 115.3457300   9.7541010 100.3582540 109.9746610   8.8426480
 100.2639410 109.3567360   8.1177350  99.7779930 110.7012900   8.6156390
 103.1243980 108.5319850   5.8753870 102.6761280 108.5544110   5.0299420
 102.4909180 108.1338870   6.4724170 103.5303530 117.4274180   6.4966310
 103.9491640 118.2706910   6.3242550 102.6112160 117.5646220   6.2673090
 105.8667430 115.1590360   7.8804150 105.9863640 114.5631500   8.6198990
 106.7261430 115.1960050   7.4605450 108.2055330 115.7127550   6.4566660
 107.6790550 116.2370170   5.8531800 108.5486670 116.3454940   7.0876390
 101.3810950 123.7327190   7.6124040 100.8432040 124.4573250   7.2932740
 101.6344910 123.2557530   6.8221380 102.6336200 111.7011710   9.1379970
 103.2235890 111.3927560   9.8257790 101.8156440 111.2291460   9.2939870
 107.4529630 111.3177520   9.3712990 106.7645150 110.6559060   9.3062980
 108.1735650 110.8715790   9.8161450 104.2373160 124.9678400   7.8710690
 104.1631860 125.8713540   8.1783060 103.3352000 124.6490300   7.8432760
  96.1290660 123.1623580   3.9125940  95.6921650 123.3424380   4.7450090
  96.6968340 123.9198200   3.7707660 111.7652840 122.6640580   8.2003250
 111.1654830 122.7233140   7.4567170 111.8946740 121.7245560   8.3300100
 110.4504480 119.3892560   6.2979410 109.6364320 119.8189720   6.5605200
 110.8578680 120.0010970   5.6848460  96.9991020 116.0596380   4.8118160
  97.3664060 115.9723780   5.6914180  96.4301840 115.2962930   4.7125020
 111.7994880 114.5280760   7.8248630 111.5680970 114.2993510   6.9246580
 112.0599430 115.4480310   7.7793520  96.5507020 112.9705470   8.7176580
  95.6563070 112.9372230   9.0570290  97.0904570 113.1692260   9.4827830
 110.2382950 109.7537190  10.6028330 111.1153130 109.7620590  10.9862330
 110.2503790 109.0168030   9.9920680 111.8635940 113.6906600   5.0135900
 110.9138650 113.6570140   5.1280890 112.0448950 114.6006710   4.7785670
  97.0546730 107.2453800   3.0659800  97.7022920 106.6951180   2.6254960
  97.4748570 107.4996950   3.8875610 110.9499070 107.4395160   6.4229440
 111.5871290 108.0529300   6.7888630 111.0973960 107.4755820   5.4778670
  96.8078730 107.4009470   5.8085120  96.4593550 107.8573290   6.5743300
  96.4766430 106.5066600   5.8907550  98.4143100 120.5729070   9.9738310
  98.3712730 120.2021980  10.8552770  98.5454110 121.5106640  10.1140130
 102.1149130 122.1288660   5.5748030 101.8740490 122.3963220   4.6878550
 103.0551770 122.2994390   5.6298890 104.3203550 108.5921350   9.3304540
 104.2592440 109.1843180  10.0799950 105.2603930 108.4847310   9.1854800
 106.9578110 108.2491410   8.9696830 107.5718520 108.5670700   8.3077910
 107.5027670 107.7640000   9.5892690 113.3753290 124.1483040   6.3758670
 112.8811570 124.5451910   5.6585800 112.7666580 123.5232250   6.7695950
  97.4799370 106.9285670   9.0835890  98.0282360 106.7473720   8.3202000
  97.5454680 106.1379780   9.6192200  98.2531130 123.5191320   7.0936090
  97.6591450 123.3876020   7.8326130  98.2454970 122.6829460   6.6278190
 107.6986150 106.8123550   5.2966120 106.8245990 107.1458660   5.0939050
 107.5896900 106.3396730   6.1217990 108.6058130 109.0194420   6.6807840
 108.2771490 108.2046180   6.3009570 109.5540430 108.9764230   6.5573530
 111.0592740 124.7906460   3.6545410 110.5995710 125.5422270   3.2803430
 110.4305200 124.0712930   3.5960210  97.8843360 120.8849700   6.0444130
  97.1577420 120.2654990   5.9770080  97.9452510 121.2790310   5.1742210
 101.4888460 123.0994700   2.8293540 102.0053480 122.4882060   2.3041800
 102.1385840 123.6023480   3.3204550 104.2283960 123.9903190   3.6562520
 104.5161770 123.7357490   2.7795530 104.7407180 123.4380550   4.2468090
 105.4460970 107.7293390   4.2359030 104.6632760 108.2038890   4.5155790
 105.1523900 106.8248220   4.1272210 109.9982040 108.4316490   2.2808120
 110.4390130 108.3761590   1.4329720 109.7289630 109.3474500   2.3518300
 104.2956320 124.9119290  11.0230720 105.2223630 124.6763560  11.0666680
 104.2806750 125.7391290  10.5416750 101.4819930 107.5764040  10.7872600
 101.2004200 108.0797640  10.0233420 101.8639630 106.7785790  10.4214730
 108.0835390 106.9917620  11.3653070 107.9700840 107.3112230  12.2604590
 108.9005130 107.3930130  11.0690350 110.8633880 124.1389150  10.8471760
 111.6559200 123.6438380  10.6397720 111.1567030 124.8179290  11.4547370
 106.9893540  96.2366600 150.6979220 106.9087590  95.3221210 150.4270930
 106.5757960  96.7333670 149.9918930 105.1211580  98.0145620 152.5788490
 104.3453680  97.5346060 152.8687060 105.7724510  97.3351270 152.4044650
 109.1419010 102.4205810 151.3587620 108.6800540 101.6493050 151.6874790
 109.9544560 102.4471880 151.8640070  97.5469360  93.2867320 147.2406640
  96.6586060  93.6283290 147.1386520  97.8310550  93.0867640 146.3487470
  95.5102370  95.8872970 153.1246340  96.0818480  95.1195170 153.1249980
  95.5103910  96.1861730 152.2152950 105.3682320 104.7063820 150.9791610
 104.7493760 105.1621320 150.4086050 106.2234100 104.8615280 150.5781310
 104.5620570 100.6902810 152.5858650 104.4928850  99.7492750 152.4247780
 105.3240430 100.7804220 153.1581220 105.5925740  93.4973190 152.8127580
 105.9690560  92.6245070 152.7001250 105.4945250  93.8331890 151.9218020
  99.7230750  91.8698820 148.2745020  99.8297500  92.7702550 148.5813780
  98.8123110  91.8216790 147.9839670 109.3749860  90.9923630 149.7455920
 110.1959480  90.5020200 149.7881400 109.4083940  91.5821290 150.4987760
 106.2345670  99.5903060 148.3723520 105.6162940 100.0552510 147.8086240
 106.7468920 100.2830540 148.7893030 109.6111340  92.9324010 152.5183460
 108.9066910  93.2208900 153.0986570 109.9723500  93.7424120 152.1583020
  95.6028870 100.2759590 145.7463150  95.2256850 100.7646690 145.0148050
  95.8601940 100.9484870 146.3769680 103.2117800  88.6775980 151.2048660
 103.5192780  88.1222870 150.4884160 102.2818500  88.8120440 151.0221650
 110.0578280 101.1159490 148.5846290 109.9474610 100.1733820 148.7095710
 110.0546530 101.4775130 149.4709050 105.5998560  96.7424810 147.9408780
 104.6727840  96.6762190 148.1697250 105.7523380  97.6804940 147.8264020
 105.5867640  93.0141810 144.9375940 104.6471310  93.1755770 145.0228400
 105.9050900  93.7327490 144.3911930 109.6295850  98.3045110 148.4444030
 109.0108270  97.9664660 147.7970330 109.6120300  97.6604870 149.1523220
 101.2055200  97.2689550 150.7228510 100.8012200  96.5566800 150.2274410
 101.2918320  96.9242790 151.6116550 101.6736900 100.9557110 152.8867720
 101.3765190 100.3502580 152.2075500 102.6236720 100.9934420 152.7757080
 107.8060550  97.5431920 145.4516780 108.2453830  96.7054350 145.3054600
 108.5188970  98.1761320 145.5380920 105.9155930 102.4827990 149.4198020
 106.3551840 103.2252320 149.0053410 105.8542820 102.7254560 150.3436980
 111.3877690  88.7974730 143.7657820 111.0750350  88.8901560 144.6656890
 112.1490160  89.3755760 143.7155250  97.9059830  96.1634530 148.2235160
  97.7857430  96.8896620 147.6116430  97.5960720  95.3937440 147.7463070
  96.7892830 101.0349860 150.4409980  96.3820910 101.1764450 149.5863580
  97.6805840 100.7510020 150.2381190 108.5826110 105.4697110 146.7761030
 108.4227250 105.1800050 147.6742860 108.4172820 104.6937240 146.2406260
 101.0614490 105.2495640 148.5532650 100.8856970 104.3331180 148.3400450
 100.2070230 105.6082930 148.7930450 108.2852240 102.9784670 145.3359030
 107.5917400 102.9761960 144.6761310 109.0275100 102.5543990 144.9053200
 107.8502170 104.6047380 149.4107520 108.3059120 103.8236760 149.7246140
 108.1894690 105.3154200 149.9548700 100.3723490  89.5069600 151.6058830
  99.9291640  90.2879140 151.2743350 100.9308480  89.8299490 152.3129770
 103.4882310  89.1280300 146.4864660 102.8636490  89.1240170 147.2117970
 103.4012430  88.2611260 146.0900630 100.1637710  94.6303170 149.3340080
  99.9378630  94.4140340 150.2386700  99.3830240  95.0631630 148.9886050
 107.3935470  94.6366540 147.9330730 106.7944360  95.3602340 147.7494350
 107.9415080  94.5743320 147.1507180 106.0000340  93.2730080 149.9634010
 106.3929910  93.5902280 149.1502700 106.3617190  92.3941960 150.0778530
  95.0364510  89.8630880 152.1864210  94.7477560  90.4333740 152.8989190
  95.7810270  89.3835330 152.5495440  95.2234740  93.8051000 143.3966930
  95.1409410  94.7481760 143.5381920  94.8717800  93.6625910 142.5179280
 103.0232870  92.5390030 152.4637280 103.0268930  92.0979980 151.6141820
 103.9183990  92.8607360 152.5709100  98.8735250  92.4216520 151.4231490
  98.5335300  92.8991750 152.1798540  98.1112570  91.9681640 151.0632590
 103.0853020  93.5402110 145.4544040 103.2065840  93.4988590 146.4029860
 102.7001530  94.4026260 145.2990770 102.0974520  95.8503250 144.8527340
 101.5291420  95.4021500 144.2263250 102.8063520  96.2096030 144.3192490
  96.1881330  91.3435500 150.3396160  95.9028250  90.9791170 151.1774780
  96.1260190  90.6115960 149.7259300  99.6422000  99.8461440 147.1253750
  98.8684260  99.3059060 146.9652470 100.3716630  99.3268050 146.7871510
 110.4009980  98.8426800 152.9180140 111.1209100  99.3382090 152.5276250
 110.1991800  98.1644690 152.2734010 105.8619920  90.2364760 147.0609530
 105.0484530  89.7377930 146.9854840 105.6681870  91.0763010 146.6445880
 108.5768310  94.6084410 145.3571690 109.4647930  94.9201640 145.1823030
 108.5473400  93.7356660 144.9652270  99.6859400  99.5141820 150.7632560
 100.2038070  98.7110080 150.7089450  99.2343420  99.4520960 151.6049390
 104.5728900 100.7808100 146.0359860 104.9144600 101.5250330 145.5403180
 103.7441610 101.0939220 146.3984690 110.8482580  95.9196250 144.8251550
 110.7646300  96.3510470 143.9747990 111.5676770  96.3794600 145.2578370
 111.8769830 102.7738510 147.5533680 111.2345990 102.1194130 147.8277400
 111.4900490 103.1793600 146.7774350 107.4556310 100.1023940 151.4005370
 107.8080130  99.5052070 150.7406740 106.5718640  99.7768170 151.5713620
 103.5419590 100.8621630 148.8075780 104.2290720 101.4090840 149.1883370
 102.7552010 101.4062360 148.8425390  95.6811990  96.4794450 144.2992860
  96.5506840  96.7619250 144.5828780  95.1902310  97.2930320 144.1841670
 102.8446800  97.8667660 148.4201140 103.3009580  98.6772910 148.6461330
 102.4935010  97.5490800 149.2519630  98.7458580  88.2105310 148.8923660
  98.6173210  88.2023210 149.8408580  97.9220600  88.5488400 148.5414670
 110.2667210 101.6654970 144.0910030 110.0404790 100.9485410 144.6834670
 109.8763410 101.4167410 143.2531780  96.0483240 105.6921830 144.8654490
  96.4080880 106.2911170 144.2111760  95.9075580 106.2381720 145.6389520
 109.8483460  99.5826910 145.7524190 109.5605160 100.0439600 146.5402070
 110.6435630  99.1224680 146.0208410 102.0651860 103.0753030 145.6828160
 102.0561960 103.8082720 145.0672670 101.1450220 102.8284610 145.7755120
  97.6658500  98.2967920 146.4274920  97.0586450  99.0366820 146.4370220
  98.1407850  98.3867280 145.6013120 110.6053320  91.4175680 146.9119370
 109.9766480  91.5221350 146.1977600 110.1105240  91.6372460 147.7013250
 105.0511460 103.1381270 144.3453350 105.1523440 102.9345260 143.4155330
 104.1513200 102.8839550 144.5501130 102.5737350  93.6961630 148.3277250
 101.8653500  94.1647970 148.7690860 102.8581830  93.0383640 148.9622440
 106.6052780  90.4212290 149.7673040 106.4820560  90.4398420 148.8182550
 107.5537340  90.4691230 149.8871440 103.6929570 105.6567590 149.0401020
 103.9471070 105.6188980 148.1180390 102.7442050 105.5300920 149.0329270
 100.7772370  92.0046710 145.7027960 101.6262900  92.4416860 145.6368150
 100.4103640  92.3166970 146.5300020 109.6982150  96.5759470 150.6159530
 108.7572290  96.5909700 150.7907220 110.0126220  95.7895430 151.0619830
  99.6763790  98.2579070 144.1763490 100.4427060  98.1460430 144.7388920
  99.7538480  97.5617040 143.5240260  98.3710550  95.6904140 144.8596380
  98.4514140  94.7431650 144.9713780  99.2630300  96.0211020 144.9657040
 111.7007730 103.7468320 152.2913790 111.8255150 104.5699490 152.7637600
 112.5673290 103.5359050 151.9437940  99.1725260 105.8399530 151.9630920
  99.9087740 105.2914990 152.2339490  99.5566180 106.7055540 151.8236910
  96.0570740 101.9073100 147.8372430  95.1310520 102.1494240 147.8277840
  96.5227170 102.7347360 147.7157180 102.2827570 105.0129840 143.7856490
 103.0756180 105.3018670 143.3338280 101.7631920 104.5822010 143.1068970
 111.3357740 104.2399970 145.2093230 111.0499250 103.8265110 144.3947410
 111.1377290 105.1687680 145.0893750 102.8004970 100.2333250 143.6498840
 102.6955610  99.6185600 144.3760220 102.6329190  99.7099140 142.8661850
 106.0407700  99.2953280 144.2540830 105.4917800  99.7422580 144.8983570
 106.6626960  98.7902530 144.7778500 101.7082820  98.2544200 146.1506130
 102.1299240  98.0884070 146.9937520 101.8333660  97.4444430 145.6561270
 104.2210460  97.2781810 143.3983230 104.7416120  96.5630830 143.0324380
 104.8678860  97.9167680 143.6983740 100.6041720  94.3277430 143.0964290
 100.4030780  93.4644790 143.4577630 100.4333770  94.2410790 142.1585890
 108.0830030  89.1385660 145.6251170 108.3632320  88.2953560 145.9810590
 107.3095760  89.3708770 146.1389920  99.4024520  91.4278050 143.0842170
  99.7050420  91.4345480 142.1761320 100.1419110  91.0775910 143.5809830
 102.6209450  90.3712670 144.0698370 102.2731450  89.6936660 143.4900820
 102.8222220  89.9102180 144.8841760 104.7858490 105.3593420 145.6884970
 105.6809280 105.6978390 145.7103730 104.8176120 104.6372830 145.0609250
  98.4254650 100.7320470 143.9171970  98.8629520 101.2750140 144.5729550
  98.9102380  99.9067420 143.9268310  95.6400450 103.5209500 151.3692230
  95.9703460 102.6530560 151.1370870  96.0691450 103.7268020 152.1997190
 100.2362370 101.8518510 149.0294200  99.9357910 101.7283480 149.9298110
 100.1299860 100.9927100 148.6209930 113.0054290 101.6314910 143.7320880
 112.1747250 101.6991560 144.2028110 113.1826120 102.5219030 143.4287740
 112.4610750  98.3762390 146.2355080 113.2229660  98.9459040 146.3414770
 112.4765120  97.8089590 147.0063390  95.9615090  96.9000320 150.4662740
  95.3063930  96.6311960 149.8222440  96.7993040  96.7904800 150.0164720
 113.4670720  99.2312490 151.0797010 113.8379550  98.4479810 150.6732980
 114.1072650  99.9201590 150.9014310 112.5129920  98.6696760 143.3927600
 112.7878760  99.5775640 143.2646820 112.3240660  98.6059290 144.3289590
 108.9105530  91.6941610 144.6881230 109.3290410  91.5072590 143.8477890
 108.6041590  90.8420660 144.9984160 112.4095260  96.6065750 148.3857030
 112.0338860  95.8393680 147.9538320 111.6798380  96.9888450 148.8731960
  95.1753170  94.1099250 146.4088070  94.2717250  94.3729450 146.2339730
  95.6593790  94.3810420 145.6288030 111.6846220  94.8323240 151.6864270
 112.2083700  94.3385890 151.0554440 112.2705640  94.9673600 152.4311840
  97.7180380  93.1664790 144.3182450  98.4272080  92.7448010 143.8329730
  97.0020320  93.2340020 143.6865800  97.3654540  89.2204120 143.3585100
  98.0882670  89.7613060 143.6766320  97.6379060  88.9467540 142.4826640
 111.1746190  94.0896590 147.6256680 111.6705310  93.8567460 148.4105560
 110.9762260  93.2508430 147.2094320 112.6033350  92.7257540 150.1594360
 112.4932630  92.5713580 151.0976630 113.3640940  92.1978480 149.9169770
 113.4923620  90.5565460 143.4000500 114.4172930  90.4246640 143.1918790
 113.4699410  90.6358280 144.3536950 113.5662110  91.3276120 146.0257210
 112.7713610  91.2621240 146.5550120 113.7705390  92.2626760 146.0142560
 110.5080530 105.3667670 150.0195600 111.1039600 105.0452240 149.3430020
 110.7658680 104.8939490 150.8108870 109.9982040  89.6573000 152.4756040
 110.4390130  89.6018100 151.6277640 109.7289630  90.5731010 152.5466220
 111.8620610  89.2888240 150.4864860 111.8009010  88.3449460 150.3395880
 112.6412640  89.3968330 151.0318320  96.1673360 105.4280600 149.4488810
  95.9995400 104.7951280 150.1470700  95.3007870 105.6340000 149.0983000
  96.7901380  89.2597380 146.9520670  97.5480740  89.3726260 146.3784700
  96.3278550  90.0966580 146.9064100 103.3315190  91.3736650 149.9422980
 102.5189700  90.9993540 149.6018860 103.8356830  90.6181730 150.2444170
 107.8340170  88.0379100 151.1806050 108.4369540  88.6099310 151.6554570
 107.0933160  88.6018540 150.9579950 110.9774770  88.4400660 146.4546330
 111.1725400  89.3384110 146.7213760 110.1904640  88.2087740 146.9479280
  97.7736060 104.1213830 146.8938950  97.2483680 104.5021860 146.1900910
  97.6980640 104.7464600 147.6148660  99.1626530  89.7861430 145.4922640
  99.6919290  88.9991230 145.3630590  99.7954850  90.4652620 145.7258170
 101.3564370  89.5236570 148.5468030 100.7267110  88.8223880 148.7138160
 100.8169510  90.2840700 148.3301190 112.5301380 105.6801370 148.2152890
 112.7053570 104.9939110 147.5713810 111.8322950 106.2048420 147.8229560
 100.3729030 106.0696210 145.7688200 101.1047850 105.7855490 145.2212090
 100.6322700 105.8309490 146.6587580  99.5343820 102.1860940 145.7734530
  98.9052700 102.6546040 146.3220360  99.6491650 101.3410160 146.2080720
 105.1211580  98.0145620 133.8045000 104.3453680  97.5346060 134.0943570
 105.7724510  97.3351270 133.6301160  99.1377410  98.3265430 134.6820760
  98.3062290  98.0714140 135.0817270  99.7458390  98.3976200 135.4178680
 109.1419010 102.4205810 132.5844130 108.6800540 101.6493050 132.9131300
 109.9544560 102.4471880 133.0896580  99.1178670 102.3605520 134.8778780
  99.4206710 101.4703260 134.6989000  99.8622260 102.9175740 134.6501030
  97.5469360  93.2867320 128.4663150  96.6586060  93.6283290 128.3643030
  97.8310550  93.0867640 127.5743980  95.5102370  95.8872970 134.3502850
  96.0818480  95.1195170 134.3506490  95.5103910  96.1861730 133.4409460
 105.3682320 104.7063820 132.2048120 104.7493760 105.1621320 131.6342560
 106.2234100 104.8615280 131.8037820 104.5620570 100.6902810 133.8115160
 104.4928850  99.7492750 133.6504290 105.3240430 100.7804220 134.3837730
 105.5925740  93.4973190 134.0384090 105.9690560  92.6245070 133.9257760
 105.4945250  93.8331890 133.1474530 113.6649410  93.0090380 137.5356060
 112.9601580  93.3972090 137.0171170 113.9307330  93.7040670 138.1376990
 101.0977430  99.1178930 136.2763630 100.7646810  99.7447850 136.9184700
 101.2744110  99.6440810 135.4965300 109.6111340  92.9324010 133.7439970
 108.9066910  93.2208900 134.3243080 109.9723500  93.7424120 133.3839530
 100.3096530 101.0859730 138.0912810 100.9270530 101.7610810 137.8097260
  99.4489650 101.4947710 138.0000310 111.2274120 102.5499140 136.0067450
 110.5437640 103.2198250 135.9984120 111.7668410 102.7479790 135.2412310
 112.6798260  92.3778800 134.1349180 111.7323170  92.4117780 134.2664610
 113.0048250  93.1917750 134.5198540 108.7632860 104.3943270 134.7212630
 108.7760020 103.9905560 133.8534890 108.2108080 105.1690560 134.6174060
 108.1618300  99.2973110 136.0495240 108.5787090  99.0833220 135.2148700
 108.8858120  99.5545900 136.6203860 105.5867640  93.0141810 126.1632450
 104.6471310  93.1755770 126.2484910 105.9050900  93.7327490 125.6168440
 112.1080400  97.6960330 136.1411480 111.2799030  97.7653420 135.6661610
 112.7030880  98.2814640 135.6727310 109.0722410  94.4829650 137.0866350
 108.6593590  95.3083360 137.3406340 108.3398360  93.8974690 136.8942710
 101.2055200  97.2689550 131.9485020 100.8012200  96.5566800 131.4530920
 101.2918320  96.9242790 132.8373060 101.6736900 100.9557110 134.1124230
 101.3765190 100.3502580 133.4332010 102.6236720 100.9934420 134.0013590
 109.7622510 104.5288980 137.7747330 109.2853070 105.3361170 137.5819940
 109.0784300 103.8767310 137.9273540 100.7655330 100.6938800 140.7632030
  99.8683860 100.9178770 141.0105430 100.7908200 100.8173740 139.8143430
  99.5926550  97.5652120 139.3389400  99.4534320  98.4374920 139.7076800
  98.7107910  97.2224930 139.1937340 105.9155930 102.4827990 130.6454530
 106.3551840 103.2252320 130.2309920 105.8542820 102.7254560 131.5693490
 101.3906900 103.5073820 141.5474550 101.3622330 103.9116770 140.6802980
 101.2271870 102.5784180 141.3846150 111.3877690  88.7974730 124.9914330
 111.0750350  88.8901560 125.8913400 112.1490160  89.3755760 124.9411760
  97.9059830  96.1634530 129.4491670  97.7857430  96.8896620 128.8372940
  97.5960720  95.3937440 128.9719580 113.3421720 104.2900920 142.8438720
 113.8181440 104.7683810 143.5227800 113.9628880 104.2218410 142.1184220
  96.7892830 101.0349860 131.6666490  96.3820910 101.1764450 130.8120090
  97.6805840 100.7510020 131.4637700 112.7454970 101.4813770 140.0038730
 112.8718030 101.2425650 139.0855910 112.7876350 100.6498310 140.4760810
 106.6071710 105.1841770 138.5733540 107.1216380 105.0949780 139.3755970
 105.7640790 105.5301470 138.8661450 108.5826110 105.4697110 128.0017540
 108.4227250 105.1800050 128.8999370 108.4172820 104.6937240 127.4662770
 101.0614490 105.2495640 129.7789160 100.8856970 104.3331180 129.5656960
 100.2070230 105.6082930 130.0186960 107.8502170 104.6047380 130.6364030
 108.3059120 103.8236760 130.9502650 108.1894690 105.3154200 131.1805210
 112.5978980  93.5346230 140.9688470 111.9823250  94.0425900 140.4403930
 112.2775400  92.6344560 140.9114410  95.6004720 100.3763840 137.7954770
  95.7635760  99.9069200 136.9774140  96.0657170  99.8687400 138.4603610
 104.6593300  92.3738120 138.4350660 104.1972670  92.5821140 139.2470600
 104.2571410  91.5597470 138.1321330 109.6597810  93.5947070 139.5647320
 108.8091400  93.2952820 139.8856390 109.4999600  93.8389080 138.6531140
 106.7547520  95.0948820 141.6646110 107.0800930  94.2612570 141.3248340
 107.5427850  95.6177340 141.8124440 103.4882310  89.1280300 127.7121170
 102.8636490  89.1240170 128.4374480 103.4012430  88.2611260 127.3157140
 100.1637710  94.6303170 130.5596590  99.9378630  94.4140340 131.4643210
  99.3830240  95.0631630 130.2142560 102.6036920  95.5288750 141.2256860
 102.5080520  94.5883480 141.0757260 103.4468900  95.7503820 140.8304930
 106.0000340  93.2730080 131.1890520 106.3929910  93.5902280 130.3759210
 106.3617190  92.3941960 131.3035040  97.7347460  91.9402420 139.3790640
  97.3410850  92.7877630 139.5863420  97.0465860  91.3028790 139.5699280
 104.3092510  92.0237390 142.4487380 103.6190830  91.8309590 143.0833470
 105.0524810  92.3072030 142.9811680  95.0364510  89.8630880 133.4120720
  94.7477560  90.4333740 134.1245700  95.7810270  89.3835330 133.7751950
 106.5855480  95.8635830 135.2841300 105.8536600  96.3722640 135.6331400
 106.1879820  95.0465810 134.9830080 103.0853020  93.5402110 126.6800550
 103.2065840  93.4988590 127.6286370 102.7001530  94.4026260 126.5247280
 107.0481390  91.3169510 134.6964240 107.0654130  91.7678160 135.5406090
 106.7996970  90.4175150 134.9097680 102.0974520  95.8503250 126.0783850
 101.5291420  95.4021500 125.4519760 102.8063520  96.2096030 125.5449000
 110.4752140  88.7301690 140.5350620 110.7997910  87.9991350 141.0608600
 110.5108650  88.4115330 139.6331610  97.1743700  99.7515270 139.9550580
  96.7898490  99.1108940 140.5533540  97.4855890 100.4551390 140.5245310
 103.3240840  96.5991810 135.4359200 103.6910970  96.1250380 136.1820540
 103.1345900  97.4733380 135.7767540 101.1140210  95.6400450 137.7543410
 100.8097280  96.5192430 137.9793770 102.0686670  95.7000240 137.7900850
 110.4009980  98.8426800 134.1436650 111.1209100  99.3382090 133.7532760
 110.1991800  98.1644690 133.4990520 105.8619920  90.2364760 128.2866040
 105.0484530  89.7377930 128.2111350 105.6681870  91.0763010 127.8702390
 105.7828780  98.9135860 140.0305650 105.7166090  97.9931530 139.7763240
 105.1533920  99.0111300 140.7450290  99.6859400  99.5141820 131.9889070
 100.2038070  98.7110080 131.9345960  99.2343420  99.4520960 132.8305900
  97.1703940  96.4803190 138.9014770  96.8118880  97.1457040 139.4888110
  96.8758500  95.6486740 139.2727390 100.3717060  96.9387430 141.7854320
 100.0717200  97.0844610 140.8882140 101.1428300  96.3792720 141.6927710
 105.7145510 101.7356430 139.7809450 105.7290050 100.8037390 139.5628360
 105.0070610 101.8216190 140.4199220 111.9256720  98.3763770 139.1278030
 111.2004910  98.9692550 138.9307420 112.4532180  98.3687310 138.3291400
 111.8769830 102.7738510 128.7790190 111.2345990 102.1194130 129.0533910
 111.4900490 103.1793600 128.0030860 107.4556310 100.1023940 132.6261880
 107.8080130  99.5052070 131.9663250 106.5718640  99.7768170 132.7970130
 103.5419590 100.8621630 130.0332290 104.2290720 101.4090840 130.4139880
 102.7552010 101.4062360 130.0681900 102.8446800  97.8667660 129.6457650
 103.3009580  98.6772910 129.8717840 102.4935010  97.5490800 130.4776140
 105.1479410 103.3774000 136.8749950 105.7921630 103.5833380 137.5523370
 105.5108850 102.6162400 136.4220800 106.4211490 101.3806350 135.5927400
 107.0633720 100.6799510 135.7059570 106.9460840 102.1604790 135.4124290
 108.1949110 102.1801250 138.7963460 108.5305350 102.7667940 139.4741380
 107.2749450 102.0493960 139.0261250  95.7452510  89.9696430 139.5786870
  95.0311030  90.1693350 140.1839480  96.1647550  89.1936000 139.9501670
  96.0325100 103.9576690 140.5653400  96.1416220 103.0171430 140.4248790
  95.3805660 104.2231440 139.9167130 104.0237690 102.2292580 141.9651520
 103.7034560 101.5101820 142.5097210 103.3496050 102.9047650 142.0387580
 107.2391290  92.4618740 137.3288320 107.6072110  91.6413950 137.6567890
 106.3789490  92.5220630 137.7443970 102.5737350  93.6961630 129.5533760
 101.8653500  94.1647970 129.9947370 102.8581830  93.0383640 130.1878950
 104.1993280  95.1158330 137.5526290 104.6978530  95.5904150 138.2178140
 104.3416230  94.1921850 137.7596320 106.6052780  90.4212290 130.9929550
 106.4820560  90.4398420 130.0439060 107.5537340  90.4691230 131.1127950
 103.6929570 105.6567590 130.2657530 103.9471070 105.6188980 129.3436900
 102.7442050 105.5300920 130.2585780 100.7772370  92.0046710 126.9284470
 101.6262900  92.4416860 126.8624660 100.4103640  92.3166970 127.7556530
 111.4060140  91.3326290 138.3954680 110.9033740  92.0731690 138.7348490
 112.2216800  91.7210290 138.0791470  99.6763790  98.2579070 125.4020000
 100.4427060  98.1460430 125.9645430  99.7538480  97.5617040 124.7496770
  98.3710550  95.6904140 126.0852890  98.4514140  94.7431650 126.1970290
  99.2630300  96.0211020 126.1913550 111.7007730 103.7468320 133.5170300
 111.8255150 104.5699490 133.9894110 112.5673290 103.5359050 133.1694450
  99.1725260 105.8399530 133.1887430  99.9087740 105.2914990 133.4596000
  99.5566180 106.7055540 133.0493420  98.1783540 105.0245600 142.3773010
  98.9796270 105.3457650 142.7908410  97.6635360 104.6641180 143.0992920
 107.0148170 101.1325470 142.3248420 106.4086330 101.1557070 141.5844170
 106.7102280 100.4008510 142.8615670 108.4448540 104.8605760 140.9357830
 109.3970290 104.7763780 140.8858070 108.2976760 105.5247470 141.6091620
 111.3357740 104.2399970 126.4349740 111.0499250 103.8265110 125.6203920
 111.1377290 105.1687680 126.3150260  95.8981350  97.5119060 141.3209060
  96.4020370  96.9326340 141.8925290  95.1588770  97.7959290 141.8585430
 102.9519290  98.9190050 140.8544580 102.1864960  99.4875050 140.7699250
 103.1335250  98.6266260 139.9612810 110.0942640 100.6495380 141.4119600
 110.8352110 100.9871140 140.9087060 109.3315320 100.8187440 140.8589370
  97.9304430  95.6548650 142.2159130  97.9709770  95.3562520 143.1244360
  98.7849930  96.0556260 142.0566650 101.7082820  98.2544200 127.3762640
 102.1299240  98.0884070 128.2194030 101.8333660  97.4444430 126.8817780
  99.8710240  94.2340750 140.1833620  99.3406700  93.7431700 139.5556960
 100.5398310  94.6624950 139.6491550 104.2210460  97.2781810 124.6239740
 104.7416120  96.5630830 124.2580890 104.8678860  97.9167680 124.9240250
 108.7688300  98.7010210 139.9474810 109.1829320  98.8555290 140.7965230
 107.8339300  98.8265430 140.1100590 109.2410470  96.0406370 141.9513960
 109.8231240  95.2858690 141.8634440 109.4172240  96.5713810 141.1745440
 100.3582540  91.2003120 140.2630910 100.2639410  90.5823870 139.5381780
  99.7779930  91.9269410 140.0360820 103.5303530  98.6530690 137.9170740
 103.9491640  99.4963420 137.7446980 102.6112160  98.7902730 137.6877520
 105.8667430  96.3846870 139.3008580 105.9863640  95.7888010 140.0403420
 106.7261430  96.4216560 138.8809880 108.2055330  96.9384060 137.8771090
 107.6790550  97.4626680 137.2736230 108.5486670  97.5711450 138.5080820
 100.6041720  94.3277430 124.3220800 100.4030780  93.4644790 124.6834140
 100.4333770  94.2410790 123.3842400 101.3810950 104.9583700 139.0328470
 100.8432040 105.6829760 138.7137170 101.6344910 104.4814040 138.2425810
 102.6336200  92.9268220 140.5584400 103.2235890  92.6184070 141.2462220
 101.8156440  92.4547970 140.7144300 107.4529630  92.5434030 140.7917420
 106.7645150  91.8815570 140.7267410 108.1735650  92.0972300 141.2365880
 108.0830030  89.1385660 126.8507680 108.3632320  88.2953560 127.2067100
 107.3095760  89.3708770 127.3646430  99.4024520  91.4278050 124.3098680
  99.7050420  91.4345480 123.4017830 100.1419110  91.0775910 124.8066340
 104.2373160 106.1934910 139.2915120 104.1631860 107.0970050 139.5987490
 103.3352000 105.8746810 139.2637190 102.6209450  90.3712670 125.2954880
 102.2731450  89.6936660 124.7157330 102.8222220  89.9102180 126.1098270
  95.6400450 103.5209500 132.5948740  95.9703460 102.6530560 132.3627380
  96.0691450 103.7268020 133.4253700 100.2362370 101.8518510 130.2550710
  99.9357910 101.7283480 131.1554620 100.1299860 100.9927100 129.8466440
  96.1290660 104.3880090 135.3330370  95.6921650 104.5680890 136.1654520
  96.6968340 105.1454710 135.1912090 111.7652840 103.8897090 139.6207680
 111.1654830 103.9489650 138.8771600 111.8946740 102.9502070 139.7504530
  95.9615090  96.9000320 131.6919250  95.3063930  96.6311960 131.0478950
  96.7993040  96.7904800 131.2421230 113.4670720  99.2312490 132.3053520
 113.8379550  98.4479810 131.8989490 114.1072650  99.9201590 132.1270820
 110.4504480 100.6149070 137.7183840 109.6364320 101.0446230 137.9809630
 110.8578680 101.2267480 137.1052890 112.5129920  98.6696760 124.6184110
 112.7878760  99.5775640 124.4903330 112.3240660  98.6059290 125.5546100
 108.9105530  91.6941610 125.9137740 109.3290410  91.5072590 125.0734400
 108.6041590  90.8420660 126.2240670  96.9991020  97.2852890 136.2322590
  97.3664060  97.1980290 137.1118610  96.4301840  96.5219440 136.1329450
 111.7994880  95.7537270 139.2453060 111.5680970  95.5250020 138.3451010
 112.0599430  96.6736820 139.1997950  96.5507020  94.1961980 140.1381010
  95.6563070  94.1628740 140.4774720  97.0904570  94.3948770 140.9032260
 110.2382950  90.9793700 142.0232760 111.1153130  90.9877100 142.4066760
 110.2503790  90.2424540 141.4125110  95.1753170  94.1099250 127.6344580
  94.2717250  94.3729450 127.4596240  95.6593790  94.3810420 126.8544540
 111.8635940  94.9163110 136.4340330 110.9138650  94.8826650 136.5485320
 112.0448950  95.8263220 136.1990100  97.7180380  93.1664790 125.5438960
  98.4272080  92.7448010 125.0586240  97.0020320  93.2340020 124.9122310
  97.3654540  89.2204120 124.5841610  98.0882670  89.7613060 124.9022830
  97.6379060  88.9467540 123.7083150 110.9499070  88.6651670 137.8433870
 111.5871290  89.2785810 138.2093060 111.0973960  88.7012330 136.8983100
 113.4923620  90.5565460 124.6257010 114.4172930  90.4246640 124.4175300
 113.4699410  90.6358280 125.5793460 113.5662110  91.3276120 127.2513720
 112.7713610  91.2621240 127.7806630 113.7705390  92.2626760 127.2399070
 110.5080530 105.3667670 131.2452110 111.1039600 105.0452240 130.5686530
 110.7658680 104.8939490 132.0365380  98.4143100 101.7985580 141.3942740
  98.3712730 101.4278490 142.2757200  98.5454110 102.7363150 141.5344560
 102.1149130 103.3545170 136.9952460 101.8740490 103.6219730 136.1082980
 103.0551770 103.5250900 137.0503320 104.3203550  89.8177860 140.7508970
 104.2592440  90.4099690 141.5004380 105.2603930  89.7103820 140.6059230
 106.9578110  89.4747920 140.3901260 107.5718520  89.7927210 139.7282340
 107.5027670  88.9896510 141.0097120 113.3753290 105.3739550 137.7963100
 112.8811570 105.7708420 137.0790230 112.7666580 104.7488760 138.1900380
  97.4799370  88.1542180 140.5040320  98.0282360  87.9730230 139.7406430
  97.5454680  87.3636290 141.0396630  98.2531130 104.7447830 138.5140520
  97.6591450 104.6132530 139.2530560  98.2454970 103.9085970 138.0482620
 107.6986150  88.0380060 136.7170550 106.8245990  88.3715170 136.5143480
 107.5896900  87.5653240 137.5422420 108.6058130  90.2450930 138.1012270
 108.2771490  89.4302690 137.7214000 109.5540430  90.2020740 137.9777960
 111.0592740 106.0162970 135.0749840 110.5995710 106.7678780 134.7007860
 110.4305200 105.2969440 135.0164640  97.8843360 102.1106210 137.4648560
  97.1577420 101.4911500 137.3974510  97.9452510 102.5046820 136.5946640
 101.4888460 104.3251210 134.2497970 102.0053480 103.7138570 133.7246230
 102.1385840 104.8279990 134.7408980 104.2283960 105.2159700 135.0766950
 104.5161770 104.9614000 134.1999960 104.7407180 104.6637060 135.6672520
 105.4460970  88.9549900 135.6563460 104.6632760  89.4295400 135.9360220
 105.1523900  88.0504730 135.5476640 109.9982040  89.6573000 133.7012550
 110.4390130  89.6018100 132.8534150 109.7289630  90.5731010 133.7722730
 111.8620610  89.2888240 131.7121370 111.8009010  88.3449460 131.5652390
 112.6412640  89.3968330 132.2574830  96.1673360 105.4280600 130.6745320
  95.9995400 104.7951280 131.3727210  95.3007870 105.6340000 130.3239510
  96.7901380  89.2597380 128.1777180  97.5480740  89.3726260 127.6041210
  96.3278550  90.0966580 128.1320610 103.3315190  91.3736650 131.1679490
 102.5189700  90.9993540 130.8275370 103.8356830  90.6181730 131.4700680
 107.8340170  88.0379100 132.4062560 108.4369540  88.6099310 132.8811080
 107.0933160  88.6018540 132.1836460 110.9774770  88.4400660 127.6802840
 111.1725400  89.3384110 127.9470270 110.1904640  88.2087740 128.1735790
  99.1626530  89.7861430 126.7179150  99.6919290  88.9991230 126.5887100
  99.7954850  90.4652620 126.9514680 104.2956320 106.1375800 142.4435150
 105.2223630 105.9020070 142.4871110 104.2806750 106.9647800 141.9621180
 112.5301380 105.6801370 129.4409400 112.7053570 104.9939110 128.7970320
 111.8322950 106.2048420 129.0486070 101.4819930  88.8020550 142.2077030
 101.2004200  89.3054150 141.4437850 101.8639630  88.0042300 141.8419160
 108.0835390  88.2174130 142.7857500 107.9700840  88.5368740 143.6809020
 108.9005130  88.6186640 142.4894780 110.8633880 105.3645660 142.2676190
 111.6559200 104.8694890 142.0602150 111.1567030 106.0435800 142.8751800
 106.9893540  96.2366600 113.1492240 106.9087590  95.3221210 112.8783950
 106.5757960  96.7333670 112.4431950 105.1211580  98.0145620 115.0301510
 104.3453680  97.5346060 115.3200080 105.7724510  97.3351270 114.8557670
  99.1377410  98.3265430 115.9077270  98.3062290  98.0714140 116.3073780
  99.7458390  98.3976200 116.6435190 109.1419010 102.4205810 113.8100640
 108.6800540 101.6493050 114.1387810 109.9544560 102.4471880 114.3153090
  97.5469360  93.2867320 109.6919660  96.6586060  93.6283290 109.5899540
  97.8310550  93.0867640 108.8000490  99.7230750  91.8698820 110.7258040
  99.8297500  92.7702550 111.0326800  98.8123110  91.8216790 110.4352690
  97.3713910  93.7917830 115.9710630  98.0524020  94.0556200 116.5898030
  97.0561960  92.9518700 116.3048640 101.5638480  94.8385190 115.0583220
 102.0716700  95.3366160 115.6988240 102.0951720  94.0620390 114.8822580
 113.6649410  93.0090380 118.7612570 112.9601580  93.3972090 118.2427680
 113.9307330  93.7040670 119.3633500 101.0977430  99.1178930 117.5020140
 100.7646810  99.7447850 118.1441210 101.2744110  99.6440810 116.7221810
  99.5289910  91.1893710 117.3317090  99.8706720  92.0335760 117.0370960
  98.5905720  91.3377450 117.4482430 100.3096530 101.0859730 119.3169320
 100.9270530 101.7610810 119.0353770  99.4489650 101.4947710 119.2256820
  95.6028870 100.2759590 108.1976170  95.2256850 100.7646690 107.4661070
  95.8601940 100.9484870 108.8282700 108.7632860 104.3943270 115.9469140
 108.7760020 103.9905560 115.0791400 108.2108080 105.1690560 115.8430570
 105.5998560  96.7424810 110.3921800 104.6727840  96.6762190 110.6210270
 105.7523380  97.6804940 110.2777040 112.1080400  97.6960330 117.3667990
 111.2799030  97.7653420 116.8918120 112.7030880  98.2814640 116.8983820
 101.2055200  97.2689550 113.1741530 100.8012200  96.5566800 112.6787430
 101.2918320  96.9242790 114.0629570  99.9183820  94.0432760 116.9540570
 100.4698410  94.1528100 116.1793820 100.4327330  94.4170360 117.6695800
 100.7655330 100.6938800 121.9888540  99.8683860 100.9178770 122.2361940
 100.7908200 100.8173740 121.0399940  99.5926550  97.5652120 120.5645910
  99.4534320  98.4374920 120.9333310  98.7107910  97.2224930 120.4193850
  97.9059830  96.1634530 110.6748180  97.7857430  96.8896620 110.0629450
  97.5960720  95.3937440 110.1976090 106.6071710 105.1841770 119.7990050
 107.1216380 105.0949780 120.6012480 105.7640790 105.5301470 120.0917960
 108.5826110 105.4697110 109.2274050 108.4227250 105.1800050 110.1255880
 108.4172820 104.6937240 108.6919280 101.0614490 105.2495640 111.0045670
 100.8856970 104.3331180 110.7913470 100.2070230 105.6082930 111.2443470
 112.5978980  93.5346230 122.1944980 111.9823250  94.0425900 121.6660440
 112.2775400  92.6344560 122.1370920 100.3723490  89.5069600 114.0571850
  99.9291640  90.2879140 113.7256370 100.9308480  89.8299490 114.7642790
 109.6597810  93.5947070 120.7903830 108.8091400  93.2952820 121.1112900
 109.4999600  93.8389080 119.8787650 106.7547520  95.0948820 122.8902620
 107.0800930  94.2612570 122.5504850 107.5427850  95.6177340 123.0380950
 103.4882310  89.1280300 108.9377680 102.8636490  89.1240170 109.6630990
 103.4012430  88.2611260 108.5413650 100.1637710  94.6303170 111.7853100
  99.9378630  94.4140340 112.6899720  99.3830240  95.0631630 111.4399070
 107.3935470  94.6366540 110.3843750 106.7944360  95.3602340 110.2007370
 107.9415080  94.5743320 109.6020200 106.0000340  93.2730080 112.4147030
 106.3929910  93.5902280 111.6015720 106.3617190  92.3941960 112.5291550
  97.7347460  91.9402420 120.6047150  97.3410850  92.7877630 120.8119930
  97.0465860  91.3028790 120.7955790 104.3092510  92.0237390 123.6743890
 103.6190830  91.8309590 124.3089980 105.0524810  92.3072030 124.2068190
  95.2234740  93.8051000 105.8479950  95.1409410  94.7481760 105.9894940
  94.8717800  93.6625910 104.9692300 103.0232870  92.5390030 114.9150300
 103.0268930  92.0979980 114.0654840 103.9183990  92.8607360 115.0222120
  98.8735250  92.4216520 113.8744510  98.5335300  92.8991750 114.6311560
  98.1112570  91.9681640 113.5145610 110.4752140  88.7301690 121.7607130
 110.7997910  87.9991350 122.2865110 110.5108650  88.4115330 120.8588120
 103.3240840  96.5991810 116.6615710 103.6910970  96.1250380 117.4077050
 103.1345900  97.4733380 117.0024050  96.1881330  91.3435500 112.7909180
  95.9028250  90.9791170 113.6287800  96.1260190  90.6115960 112.1772320
 101.1140210  95.6400450 118.9799920 100.8097280  96.5192430 119.2050280
 102.0686670  95.7000240 119.0157360  99.6422000  99.8461440 109.5766770
  98.8684260  99.3059060 109.4165490 100.3716630  99.3268050 109.2384530
 110.4009980  98.8426800 115.3693160 111.1209100  99.3382090 114.9789270
 110.1991800  98.1644690 114.7247030 105.8619920  90.2364760 109.5122550
 105.0484530  89.7377930 109.4367860 105.6681870  91.0763010 109.0958900
  99.6859400  99.5141820 113.2145580 100.2038070  98.7110080 113.1602470
  99.2343420  99.4520960 114.0562410 100.3717060  96.9387430 123.0110830
 100.0717200  97.0844610 122.1138650 101.1428300  96.3792720 122.9184220
 111.9256720  98.3763770 120.3534540 111.2004910  98.9692550 120.1563930
 112.4532180  98.3687310 119.5547910  95.6811990  96.4794450 106.7505880
  96.5506840  96.7619250 107.0341800  95.1902310  97.2930320 106.6354690
 102.8446800  97.8667660 110.8714160 103.3009580  98.6772910 111.0974350
 102.4935010  97.5490800 111.7032650 105.1479410 103.3774000 118.1006460
 105.7921630 103.5833380 118.7779880 105.5108850 102.6162400 117.6477310
  98.7458580  88.2105310 111.3436680  98.6173210  88.2023210 112.2921600
  97.9220600  88.5488400 110.9927690  96.0483240 105.6921830 107.3167510
  96.4080880 106.2911170 106.6624780  95.9075580 106.2381720 108.0902540
  95.7452510  89.9696430 120.8043380  95.0311030  90.1693350 121.4095990
  96.1647550  89.1936000 121.1758180 102.0651860 103.0753030 108.1341180
 102.0561960 103.8082720 107.5185690 101.1450220 102.8284610 108.2268140
  97.6658500  98.2967920 108.8787940  97.0586450  99.0366820 108.8883240
  98.1407850  98.3867280 108.0526140 105.0511460 103.1381270 106.7966370
 105.1523440 102.9345260 105.8668350 104.1513200 102.8839550 107.0014150
 102.5737350  93.6961630 110.7790270 101.8653500  94.1647970 111.2203880
 102.8581830  93.0383640 111.4135460 100.7772370  92.0046710 108.1540980
 101.6262900  92.4416860 108.0881170 100.4103640  92.3166970 108.9813040
 111.4060140  91.3326290 119.6211190 110.9033740  92.0731690 119.9605000
 112.2216800  91.7210290 119.3047980 109.6982150  96.5759470 113.0672550
 108.7572290  96.5909700 113.2420240 110.0126220  95.7895430 113.5132850
  99.6763790  98.2579070 106.6276510 100.4427060  98.1460430 107.1901940
  99.7538480  97.5617040 105.9753280  98.3710550  95.6904140 107.3109400
  98.4514140  94.7431650 107.4226800  99.2630300  96.0211020 107.4170060
 111.7007730 103.7468320 114.7426810 111.8255150 104.5699490 115.2150620
 112.5673290 103.5359050 114.3950960  99.1725260 105.8399530 114.4143940
  99.9087740 105.2914990 114.6852510  99.5566180 106.7055540 114.2749930
  96.0570740 101.9073100 110.2885450  95.1310520 102.1494240 110.2790860
  96.5227170 102.7347360 110.1670200 102.2827570 105.0129840 106.2369510
 103.0756180 105.3018670 105.7851300 101.7631920 104.5822010 105.5581990
 111.3357740 104.2399970 107.6606250 111.0499250 103.8265110 106.8460430
 111.1377290 105.1687680 107.5406770 102.9519290  98.9190050 122.0801090
 102.1864960  99.4875050 121.9955760 103.1335250  98.6266260 121.1869320
  97.9304430  95.6548650 123.4415640  97.9709770  95.3562520 124.3500870
  98.7849930  96.0556260 123.2823160 101.7082820  98.2544200 108.6019150
 102.1299240  98.0884070 109.4450540 101.8333660  97.4444430 108.1074290
  99.8710240  94.2340750 121.4090130  99.3406700  93.7431700 120.7813470
 100.5398310  94.6624950 120.8748060 108.7688300  98.7010210 121.1731320
 109.1829320  98.8555290 122.0221740 107.8339300  98.8265430 121.3357100
 109.2410470  96.0406370 123.1770470 109.8231240  95.2858690 123.0890950
 109.4172240  96.5713810 122.4001950 100.3582540  91.2003120 121.4887420
 100.2639410  90.5823870 120.7638290  99.7779930  91.9269410 121.2617330
 103.5303530  98.6530690 119.1427250 103.9491640  99.4963420 118.9703490
 102.6112160  98.7902730 118.9134030 100.6041720  94.3277430 105.5477310
 100.4030780  93.4644790 105.9090650 100.4333770  94.2410790 104.6098910
 101.3810950 104.9583700 120.2584980 100.8432040 105.6829760 119.9393680
 101.6344910 104.4814040 119.4682320 107.4529630  92.5434030 122.0173930
 106.7645150  91.8815570 121.9523920 108.1735650  92.0972300 122.4622390
  99.4024520  91.4278050 105.5355190  99.7050420  91.4345480 104.6274340
 100.1419110  91.0775910 106.0322850 104.2373160 106.1934910 120.5171630
 104.1631860 107.0970050 120.8244000 103.3352000 105.8746810 120.4893700
 102.6209450  90.3712670 106.5211390 102.2731450  89.6936660 105.9413840
 102.8222220  89.9102180 107.3354780 104.7858490 105.3593420 108.1397990
 105.6809280 105.6978390 108.1616750 104.8176120 104.6372830 107.5122270
  98.4254650 100.7320470 106.3684990  98.8629520 101.2750140 107.0242570
  98.9102380  99.9067420 106.3781330 100.2362370 101.8518510 111.4807220
  99.9357910 101.7283480 112.3811130 100.1299860 100.9927100 111.0722950
  95.9615090  96.9000320 112.9175760  95.3063930  96.6311960 112.2735460
  96.7993040  96.7904800 112.4677740 110.4504480 100.6149070 118.9440350
 109.6364320 101.0446230 119.2066140 110.8578680 101.2267480 118.3309400
 112.4095260  96.6065750 110.8370050 112.0338860  95.8393680 110.4051340
 111.6798380  96.9888450 111.3244980 111.7994880  95.7537270 120.4709570
 111.5680970  95.5250020 119.5707520 112.0599430  96.6736820 120.4254460
  96.5507020  94.1961980 121.3637520  95.6563070  94.1628740 121.7031230
  97.0904570  94.3948770 122.1288770 110.2382950  90.9793700 123.2489270
 111.1153130  90.9877100 123.6323270 110.2503790  90.2424540 122.6381620
 111.6846220  94.8323240 114.1377290 112.2083700  94.3385890 113.5067460
 112.2705640  94.9673600 114.8824860 111.8635940  94.9163110 117.6596840
 110.9138650  94.8826650 117.7741830 112.0448950  95.8263220 117.4246610
  97.7180380  93.1664790 106.7695470  98.4272080  92.7448010 106.2842750
  97.0020320  93.2340020 106.1378820  97.3654540  89.2204120 105.8098120
  98.0882670  89.7613060 106.1279340  97.6379060  88.9467540 104.9339660
 111.1746190  94.0896590 110.0769700 111.6705310  93.8567460 110.8618580
 110.9762260  93.2508430 109.6607340 112.6033350  92.7257540 112.6107380
 112.4932630  92.5713580 113.5489650 113.3640940  92.1978480 112.3682790
 110.5080530 105.3667670 112.4708620 111.1039600 105.0452240 111.7943040
 110.7658680 104.8939490 113.2621890 106.9578110  89.4747920 121.6157770
 107.5718520  89.7927210 120.9538850 107.5027670  88.9896510 122.2353630
  97.4799370  88.1542180 121.7296830  98.0282360  87.9730230 120.9662940
  97.5454680  87.3636290 122.2653140 111.0592740 106.0162970 116.3006350
 110.5995710 106.7678780 115.9264370 110.4305200 105.2969440 116.2421150
  96.7901380  89.2597380 109.4033690  97.5480740  89.3726260 108.8297720
  96.3278550  90.0966580 109.3577120 103.3315190  91.3736650 112.3936000
 102.5189700  90.9993540 112.0531880 103.8356830  90.6181730 112.6957190
  97.7736060 104.1213830 109.3451970  97.2483680 104.5021860 108.6413930
  97.6980640 104.7464600 110.0661680  99.1626530  89.7861430 107.9435660
  99.6919290  88.9991230 107.8143610  99.7954850  90.4652620 108.1771190
 101.3564370  89.5236570 110.9981050 100.7267110  88.8223880 111.1651180
 100.8169510  90.2840700 110.7814210 104.2956320 106.1375800 123.6691660
 105.2223630 105.9020070 123.7127620 104.2806750 106.9647800 123.1877690
 112.5301380 105.6801370 110.6665910 112.7053570 104.9939110 110.0226830
 111.8322950 106.2048420 110.2742580 100.3729030 106.0696210 108.2201220
 101.1047850 105.7855490 107.6725110 100.6322700 105.8309490 109.1100600
  99.5343820 102.1860940 108.2247550  98.9052700 102.6546040 108.7733380
  99.6491650 101.3410160 108.6593740 108.0835390  88.2174130 124.0114010
 107.9700840  88.5368740 124.9065530 108.9005130  88.6186640 123.7151290
 110.8633880 105.3645660 123.4932700 111.6559200 104.8694890 123.2858660
 111.1567030 106.0435800 124.1008310 106.9893540  96.2366600  94.3748750
 106.9087590  95.3221210  94.1040460 106.5757960  96.7333670  93.6688460
 105.1211580  98.0145620  96.2558020 104.3453680  97.5346060  96.5456590
 105.7724510  97.3351270  96.0814180 105.3682320 104.7063820  94.6561140
 104.7493760 105.1621320  94.0855580 106.2234100 104.8615280  94.2550840
 104.5620570 100.6902810  96.2628180 104.4928850  99.7492750  96.1017310
 105.3240430 100.7804220  96.8350750  96.7527240  91.2957330  98.5884800
  96.5730080  90.3983080  98.8687560  96.3507320  91.8429200  99.2631750
 105.5925740  93.4973190  96.4897110 105.9690560  92.6245070  96.3770780
 105.4945250  93.8331890  95.5987550 101.5638480  94.8385190  96.2839730
 102.0716700  95.3366160  96.9244750 102.0951720  94.0620390  96.1079090
  99.8474580  89.4783750 100.5503150  99.8493020  89.9956140  99.7449050
  99.0178890  89.0013930 100.5273080 106.2345670  99.5903060  92.0493050
 105.6162940 100.0552510  91.4855770 106.7468920 100.2830540  92.4662560
 101.0977430  99.1178930  98.7276650 100.7646810  99.7447850  99.3697720
 101.2744110  99.6440810  97.9478320  99.5289910  91.1893710  98.5573600
  99.8706720  92.0335760  98.2627470  98.5905720  91.3377450  98.6738940
 100.3096530 101.0859730 100.5425830 100.9270530 101.7610810 100.2610280
  99.4489650 101.4947710 100.4513330 111.2274120 102.5499140  98.4580470
 110.5437640 103.2198250  98.4497140 111.7668410 102.7479790  97.6925330
 103.2117800  88.6775980  94.8818190 103.5192780  88.1222870  94.1653690
 102.2818500  88.8120440  94.6991180 108.7632860 104.3943270  97.1725650
 108.7760020 103.9905560  96.3047910 108.2108080 105.1690560  97.0687080
 105.5998560  96.7424810  91.6178310 104.6727840  96.6762190  91.8466780
 105.7523380  97.6804940  91.5033550 105.5867640  93.0141810  88.6145470
 104.6471310  93.1755770  88.6997930 105.9050900  93.7327490  88.0681460
 101.6736900 100.9557110  96.5637250 101.3765190 100.3502580  95.8845030
 102.6236720 100.9934420  96.4526610  99.9183820  94.0432760  98.1797080
 100.4698410  94.1528100  97.4050330 100.4327330  94.4170360  98.8952310
 109.7622510 104.5288980 100.2260350 109.2853070 105.3361170 100.0332960
 109.0784300 103.8767310 100.3786560 100.7655330 100.6938800 103.2145050
  99.8683860 100.9178770 103.4618450 100.7908200 100.8173740 102.2656450
 107.8060550  97.5431920  89.1286310 108.2453830  96.7054350  88.9824130
 108.5188970  98.1761320  89.2150450  99.5926550  97.5652120 101.7902420
  99.4534320  98.4374920 102.1589820  98.7107910  97.2224930 101.6450360
 105.9155930 102.4827990  93.0967550 106.3551840 103.2252320  92.6822940
 105.8542820 102.7254560  94.0206510 101.3906900 103.5073820 103.9987570
 101.3622330 103.9116770 103.1316000 101.2271870 102.5784180 103.8359170
 106.6071710 105.1841770 101.0246560 107.1216380 105.0949780 101.8268990
 105.7640790 105.5301470 101.3174470 108.5826110 105.4697110  90.4530560
 108.4227250 105.1800050  91.3512390 108.4172820 104.6937240  89.9175790
 108.2852240 102.9784670  89.0128560 107.5917400 102.9761960  88.3530840
 109.0275100 102.5543990  88.5822730 107.8502170 104.6047380  93.0877050
 108.3059120 103.8236760  93.4015670 108.1894690 105.3154200  93.6318230
 100.3723490  89.5069600  95.2828360  99.9291640  90.2879140  94.9512880
 100.9308480  89.8299490  95.9899300 103.4882310  89.1280300  90.1634190
 102.8636490  89.1240170  90.8887500 103.4012430  88.2611260  89.7670160
 102.4099390  90.0516930  97.1417960 102.7071720  90.9579760  97.0609980
 102.9584950  89.5635710  96.5277530  97.7347460  91.9402420 101.8303660
  97.3410850  92.7877630 102.0376440  97.0465860  91.3028790 102.0212300
  95.0364510  89.8630880  95.8633740  94.7477560  90.4333740  96.5758720
  95.7810270  89.3835330  96.2264970 103.0232870  92.5390030  96.1406810
 103.0268930  92.0979980  95.2911350 103.9183990  92.8607360  96.2478630
 103.0853020  93.5402110  89.1313570 103.2065840  93.4988590  90.0799390
 102.7001530  94.4026260  88.9760300 103.3240840  96.5991810  97.8872220
 103.6910970  96.1250380  98.6333560 103.1345900  97.4733380  98.2280560
 101.1140210  95.6400450 100.2056430 100.8097280  96.5192430 100.4306790
 102.0686670  95.7000240 100.2413870 105.8619920  90.2364760  90.7379060
 105.0484530  89.7377930  90.6624370 105.6681870  91.0763010  90.3215410
 108.5768310  94.6084410  89.0341220 109.4647930  94.9201640  88.8592560
 108.5473400  93.7356660  88.6421800 104.5728900 100.7808100  89.7129390
 104.9144600 101.5250330  89.2172710 103.7441610 101.0939220  90.0754220
 100.3717060  96.9387430 104.2367340 100.0717200  97.0844610 103.3395160
 101.1428300  96.3792720 104.1440730 111.9256720  98.3763770 101.5791050
 111.2004910  98.9692550 101.3820440 112.4532180  98.3687310 100.7804420
 107.4556310 100.1023940  95.0774900 107.8080130  99.5052070  94.4176270
 106.5718640  99.7768170  95.2483150 103.5419590 100.8621630  92.4845310
 104.2290720 101.4090840  92.8652900 102.7552010 101.4062360  92.5194920
 102.8446800  97.8667660  92.0970670 103.3009580  98.6772910  92.3230860
 102.4935010  97.5490800  92.9289160 105.1479410 103.3774000  99.3262970
 105.7921630 103.5833380 100.0036390 105.5108850 102.6162400  98.8733820
  98.7458580  88.2105310  92.5693190  98.6173210  88.2023210  93.5178110
  97.9220600  88.5488400  92.2184200 106.4211490 101.3806350  98.0440420
 107.0633720 100.6799510  98.1572590 106.9460840 102.1604790  97.8637310
 110.2667210 101.6654970  87.7679560 110.0404790 100.9485410  88.3604200
 109.8763410 101.4167410  86.9301310 108.1949110 102.1801250 101.2476480
 108.5305350 102.7667940 101.9254400 107.2749450 102.0493960 101.4774270
  95.7452510  89.9696430 102.0299890  95.0311030  90.1693350 102.6352500
  96.1647550  89.1936000 102.4014690 109.8483460  99.5826910  89.4293720
 109.5605160 100.0439600  90.2171600 110.6435630  99.1224680  89.6977940
  96.0325100 103.9576690 103.0166420  96.1416220 103.0171430 102.8761810
  95.3805660 104.2231440 102.3680150 110.6053320  91.4175680  90.5888900
 109.9766480  91.5221350  89.8747130 110.1105240  91.6372460  91.3782780
 105.0511460 103.1381270  88.0222880 105.1523440 102.9345260  87.0924860
 104.1513200 102.8839550  88.2270660 102.5737350  93.6961630  92.0046780
 101.8653500  94.1647970  92.4460390 102.8581830  93.0383640  92.6391970
 103.6929570 105.6567590  92.7170550 103.9471070 105.6188980  91.7949920
 102.7442050 105.5300920  92.7098800  99.1725260 105.8399530  95.6400450
  99.9087740 105.2914990  95.9109020  99.5566180 106.7055540  95.5006440
  98.1783540 105.0245600 104.8286030  98.9796270 105.3457650 105.2421430
  97.6635360 104.6641180 105.5505940 108.4448540 104.8605760 103.3870850
 109.3970290 104.7763780 103.3371090 108.2976760 105.5247470 104.0604640
 111.3357740 104.2399970  88.8862760 111.0499250 103.8265110  88.0716940
 111.1377290 105.1687680  88.7663280 106.0407700  99.2953280  87.9310360
 105.4917800  99.7422580  88.5753100 106.6626960  98.7902530  88.4548030
 110.0942640 100.6495380 103.8632620 110.8352110 100.9871140 103.3600080
 109.3315320 100.8187440 103.3102390  97.9304430  95.6548650 104.6672150
  97.9709770  95.3562520 105.5757380  98.7849930  96.0556260 104.5079670
 101.7082820  98.2544200  89.8275660 102.1299240  98.0884070  90.6707050
 101.8333660  97.4444430  89.3330800  99.8710240  94.2340750 102.6346640
  99.3406700  93.7431700 102.0069980 100.5398310  94.6624950 102.1004570
 104.2210460  97.2781810  87.0752760 104.7416120  96.5630830  86.7093910
 104.8678860  97.9167680  87.3753270 108.7688300  98.7010210 102.3987830
 109.1829320  98.8555290 103.2478250 107.8339300  98.8265430 102.5613610
 100.3582540  91.2003120 102.7143930 100.2639410  90.5823870 101.9894800
  99.7779930  91.9269410 102.4873840 103.1243980  89.7576360  99.7471320
 102.6761280  89.7800620  98.9016870 102.4909180  89.3595380 100.3441620
 103.5303530  98.6530690 100.3683760 103.9491640  99.4963420 100.1960000
 102.6112160  98.7902730 100.1390540 101.3810950 104.9583700 101.4841490
 100.8432040 105.6829760 101.1650190 101.6344910 104.4814040 100.6938830
 108.0830030  89.1385660  89.3020700 108.3632320  88.2953560  89.6580120
 107.3095760  89.3708770  89.8159450 104.2373160 106.1934910 101.7428140
 104.1631860 107.0970050 102.0500510 103.3352000 105.8746810 101.7150210
 102.6209450  90.3712670  87.7467900 102.2731450  89.6936660  87.1670350
 102.8222220  89.9102180  88.5611290 113.0054290 101.6314910  87.4090410
 112.1747250 101.6991560  87.8797640 113.1826120 102.5219030  87.1057270
 112.4610750  98.3762390  89.9124610 113.2229660  98.9459040  90.0184300
 112.4765120  97.8089590  90.6832920 112.5129920  98.6696760  87.0697130
 112.7878760  99.5775640  86.9416350 112.3240660  98.6059290  88.0059120
  96.5507020  94.1961980 102.5894030  95.6563070  94.1628740 102.9287740
  97.0904570  94.3948770 103.3545280 111.1746190  94.0896590  91.3026210
 111.6705310  93.8567460  92.0875090 110.9762260  93.2508430  90.8863850
  97.0546730  88.4710310  96.9377250  97.7022920  87.9207690  96.4972410
  97.4748570  88.7253460  97.7593060 112.6033350  92.7257540  93.8363890
 112.4932630  92.5713580  94.7746160 113.3640940  92.1978480  93.5939300
 113.4923620  90.5565460  87.0770030 114.4172930  90.4246640  86.8688320
 113.4699410  90.6358280  88.0306480 113.5662110  91.3276120  89.7026740
 112.7713610  91.2621240  90.2319650 113.7705390  92.2626760  89.6912090
  96.8078730  88.6265980  99.6802570  96.4593550  89.0829800 100.4460750
  96.4766430  87.7323110  99.7625000  98.4143100 101.7985580 103.8455760
  98.3712730 101.4278490 104.7270220  98.5454110 102.7363150 103.9857580
 102.1149130 103.3545170  99.4465480 101.8740490 103.6219730  98.5596000
 103.0551770 103.5250900  99.5016340 113.3753290 105.3739550 100.2476120
 112.8811570 105.7708420  99.5303250 112.7666580 104.7488760 100.6413400
  97.4799370  88.1542180 102.9553340  98.0282360  87.9730230 102.1919450
  97.5454680  87.3636290 103.4909650 107.6986150  88.0380060  99.1683570
 106.8245990  88.3715170  98.9656500 107.5896900  87.5653240  99.9935440
 101.4888460 104.3251210  96.7010990 102.0053480 103.7138570  96.1759250
 102.1385840 104.8279990  97.1922000 104.2283960 105.2159700  97.5279970
 104.5161770 104.9614000  96.6512980 104.7407180 104.6637060  98.1185540
 105.4460970  88.9549900  98.1076480 104.6632760  89.4295400  98.3873240
 105.1523900  88.0504730  97.9989660 111.8620610  89.2888240  94.1634390
 111.8009010  88.3449460  94.0165410 112.6412640  89.3968330  94.7087850
 103.3315190  91.3736650  93.6192510 102.5189700  90.9993540  93.2788390
 103.8356830  90.6181730  93.9213700 107.8340170  88.0379100  94.8575580
 108.4369540  88.6099310  95.3324100 107.0933160  88.6018540  94.6349480
 110.9774770  88.4400660  90.1315860 111.1725400  89.3384110  90.3983290
 110.1904640  88.2087740  90.6248810  99.1626530  89.7861430  89.1692170
  99.6919290  88.9991230  89.0400120  99.7954850  90.4652620  89.4027700
 101.3564370  89.5236570  92.2237560 100.7267110  88.8223880  92.3907690
 100.8169510  90.2840700  92.0070720 104.2956320 106.1375800 104.8948170
 105.2223630 105.9020070 104.9384130 104.2806750 106.9647800 104.4134200
 101.4819930  88.8020550 104.6590050 101.2004200  89.3054150 103.8950870
 101.8639630  88.0042300 104.2932180 106.9893540  96.2366600  75.6005260
 106.9087590  95.3221210  75.3296970 106.5757960  96.7333670  74.8944970
  99.1377410  98.3265430  78.3590290  98.3062290  98.0714140  78.7586800
  99.7458390  98.3976200  79.0948210 109.1419010 102.4205810  76.2613660
 108.6800540 101.6493050  76.5900830 109.9544560 102.4471880  76.7666110
  99.1178670 102.3605520  78.5548310  99.4206710 101.4703260  78.3758530
  99.8622260 102.9175740  78.3270560  97.5469360  93.2867320  72.1432680
  96.6586060  93.6283290  72.0412560  97.8310550  93.0867640  71.2513510
  96.7527240  91.2957330  79.8141310  96.5730080  90.3983080  80.0944070
  96.3507320  91.8429200  80.4888260 105.5925740  93.4973190  77.7153620
 105.9690560  92.6245070  77.6027290 105.4945250  93.8331890  76.8244060
  99.7230750  91.8698820  73.1771060  99.8297500  92.7702550  73.4839820
  98.8123110  91.8216790  72.8865710  97.3713910  93.7917830  78.4223650
  98.0524020  94.0556200  79.0411050  97.0561960  92.9518700  78.7561660
 101.5638480  94.8385190  77.5096240 102.0716700  95.3366160  78.1501260
 102.0951720  94.0620390  77.3335600 113.6649410  93.0090380  81.2125590
 112.9601580  93.3972090  80.6940700 113.9307330  93.7040670  81.8146520
  99.8474580  89.4783750  81.7759660  99.8493020  89.9956140  80.9705560
  99.0178890  89.0013930  81.7529590 101.0977430  99.1178930  79.9533160
 100.7646810  99.7447850  80.5954230 101.2744110  99.6440810  79.1734830
 109.6111340  92.9324010  77.4209500 108.9066910  93.2208900  78.0012610
 109.9723500  93.7424120  77.0609060  99.5289910  91.1893710  79.7830110
  99.8706720  92.0335760  79.4883980  98.5905720  91.3377450  79.8995450
 100.3096530 101.0859730  81.7682340 100.9270530 101.7610810  81.4866790
  99.4489650 101.4947710  81.6769840  95.6028870 100.2759590  70.6489190
  95.2256850 100.7646690  69.9174090  95.8601940 100.9484870  71.2795720
 111.2274120 102.5499140  79.6836980 110.5437640 103.2198250  79.6753650
 111.7668410 102.7479790  78.9181840 112.6798260  92.3778800  77.8118710
 111.7323170  92.4117780  77.9434140 113.0048250  93.1917750  78.1968070
 103.2117800  88.6775980  76.1074700 103.5192780  88.1222870  75.3910200
 102.2818500  88.8120440  75.9247690 109.0722410  94.4829650  80.7635880
 108.6593590  95.3083360  81.0175870 108.3398360  93.8974690  80.5712240
 101.2055200  97.2689550  75.6254550 100.8012200  96.5566800  75.1300450
 101.2918320  96.9242790  76.5142590  99.9183820  94.0432760  79.4053590
 100.4698410  94.1528100  78.6306840 100.4327330  94.4170360  80.1208820
 109.7622510 104.5288980  81.4516860 109.2853070 105.3361170  81.2589470
 109.0784300 103.8767310  81.6043070  99.5926550  97.5652120  83.0158930
  99.4534320  98.4374920  83.3846330  98.7107910  97.2224930  82.8706870
 111.3877690  88.7974730  68.6683860 111.0750350  88.8901560  69.5682930
 112.1490160  89.3755760  68.6181290  97.9059830  96.1634530  73.1261200
  97.7857430  96.8896620  72.5142470  97.5960720  95.3937440  72.6489110
 113.3421720 104.2900920  86.5208250 113.8181440 104.7683810  87.1997330
 113.9628880 104.2218410  85.7953750  96.7892830 101.0349860  75.3436020
  96.3820910 101.1764450  74.4889620  97.6805840 100.7510020  75.1407230
 112.7454970 101.4813770  83.6808260 112.8718030 101.2425650  82.7625440
 112.7876350 100.6498310  84.1530340 106.6071710 105.1841770  82.2503070
 107.1216380 105.0949780  83.0525500 105.7640790 105.5301470  82.5430980
 112.5978980  93.5346230  84.6458000 111.9823250  94.0425900  84.1173460
 112.2775400  92.6344560  84.5883940 100.3723490  89.5069600  76.5084870
  99.9291640  90.2879140  76.1769390 100.9308480  89.8299490  77.2155810
 104.6593300  92.3738120  82.1120190 104.1972670  92.5821140  82.9240130
 104.2571410  91.5597470  81.8090860 109.6597810  93.5947070  83.2416850
 108.8091400  93.2952820  83.5625920 109.4999600  93.8389080  82.3300670
 106.7547520  95.0948820  85.3415640 107.0800930  94.2612570  85.0017870
 107.5427850  95.6177340  85.4893970 102.4099390  90.0516930  78.3674470
 102.7071720  90.9579760  78.2866490 102.9584950  89.5635710  77.7534040
 100.1637710  94.6303170  74.2366120  99.9378630  94.4140340  75.1412740
  99.3830240  95.0631630  73.8912090 107.3935470  94.6366540  72.8356770
 106.7944360  95.3602340  72.6520390 107.9415080  94.5743320  72.0533220
 106.0000340  93.2730080  74.8660050 106.3929910  93.5902280  74.0528740
 106.3617190  92.3941960  74.9804570  95.0364510  89.8630880  77.0890250
  94.7477560  90.4333740  77.8015230  95.7810270  89.3835330  77.4521480
 106.5855480  95.8635830  78.9610830 105.8536600  96.3722640  79.3100930
 106.1879820  95.0465810  78.6599610 103.0232870  92.5390030  77.3663320
 103.0268930  92.0979980  76.5167860 103.9183990  92.8607360  77.4735140
  98.8735250  92.4216520  76.3257530  98.5335300  92.8991750  77.0824580
  98.1112570  91.9681640  75.9658630 107.0481390  91.3169510  78.3733770
 107.0654130  91.7678160  79.2175620 106.7996970  90.4175150  78.5867210
 103.3240840  96.5991810  79.1128730 103.6910970  96.1250380  79.8590070
 103.1345900  97.4733380  79.4537070 101.1140210  95.6400450  81.4312940
 100.8097280  96.5192430  81.6563300 102.0686670  95.7000240  81.4670380
  99.6422000  99.8461440  72.0279790  98.8684260  99.3059060  71.8678510
 100.3716630  99.3268050  71.6897550 105.7828780  98.9135860  83.7075180
 105.7166090  97.9931530  83.4532770 105.1533920  99.0111300  84.4219820
 108.5768310  94.6084410  70.2597730 109.4647930  94.9201640  70.0849070
 108.5473400  93.7356660  69.8678310 105.7145510 101.7356430  83.4578980
 105.7290050 100.8037390  83.2397890 105.0070610 101.8216190  84.0968750
 110.8482580  95.9196250  69.7277590 110.7646300  96.3510470  68.8774030
 111.5676770  96.3794600  70.1604410 111.8769830 102.7738510  72.4559720
 111.2345990 102.1194130  72.7303440 111.4900490 103.1793600  71.6800390
  98.7458580  88.2105310  73.7949700  98.6173210  88.2023210  74.7434620
  97.9220600  88.5488400  73.4440710 108.1949110 102.1801250  82.4732990
 108.5305350 102.7667940  83.1510910 107.2749450 102.0493960  82.7030780
  96.0483240 105.6921830  69.7680530  96.4080880 106.2911170  69.1137800
  95.9075580 106.2381720  70.5415560 104.0237690 102.2292580  85.6421050
 103.7034560 101.5101820  86.1866740 103.3496050 102.9047650  85.7157110
  97.6658500  98.2967920  71.3300960  97.0586450  99.0366820  71.3396260
  98.1407850  98.3867280  70.5039160 107.2391290  92.4618740  81.0057850
 107.6072110  91.6413950  81.3337420 106.3789490  92.5220630  81.4213500
 110.6053320  91.4175680  71.8145410 109.9766480  91.5221350  71.1003640
 110.1105240  91.6372460  72.6039290 102.5737350  93.6961630  73.2303290
 101.8653500  94.1647970  73.6716900 102.8581830  93.0383640  73.8648480
 104.1993280  95.1158330  81.2295820 104.6978530  95.5904150  81.8947670
 104.3416230  94.1921850  81.4365850 106.6052780  90.4212290  74.6699080
 106.4820560  90.4398420  73.7208590 107.5537340  90.4691230  74.7897480
 111.4060140  91.3326290  82.0724210 110.9033740  92.0731690  82.4118020
 112.2216800  91.7210290  81.7561000  99.6763790  98.2579070  69.0789530
 100.4427060  98.1460430  69.6414960  99.7538480  97.5617040  68.4266300
  98.3710550  95.6904140  69.7622420  98.4514140  94.7431650  69.8739820
  99.2630300  96.0211020  69.8683080 111.7007730 103.7468320  77.1939830
 111.8255150 104.5699490  77.6663640 112.5673290 103.5359050  76.8463980
  99.1725260 105.8399530  76.8656960  99.9087740 105.2914990  77.1365530
  99.5566180 106.7055540  76.7262950  96.0570740 101.9073100  72.7398470
  95.1310520 102.1494240  72.7303880  96.5227170 102.7347360  72.6183220
 107.0148170 101.1325470  86.0017950 106.4086330 101.1557070  85.2613700
 106.7102280 100.4008510  86.5385200 108.4448540 104.8605760  84.6127360
 109.3970290 104.7763780  84.5627600 108.2976760 105.5247470  85.2861150
 102.9519290  98.9190050  84.5314110 102.1864960  99.4875050  84.4468780
 103.1335250  98.6266260  83.6382340 110.0942640 100.6495380  85.0889130
 110.8352110 100.9871140  84.5856590 109.3315320 100.8187440  84.5358900
 101.7082820  98.2544200  71.0532170 102.1299240  98.0884070  71.8963560
 101.8333660  97.4444430  70.5587310 104.2210460  97.2781810  68.3009270
 104.7416120  96.5630830  67.9350420 104.8678860  97.9167680  68.6009780
 108.7688300  98.7010210  83.6244340 109.1829320  98.8555290  84.4734760
 107.8339300  98.8265430  83.7870120 109.2410470  96.0406370  85.6283490
 109.8231240  95.2858690  85.5403970 109.4172240  96.5713810  84.8514970
 103.1243980  89.7576360  80.9727830 102.6761280  89.7800620  80.1273380
 102.4909180  89.3595380  81.5698130 103.5303530  98.6530690  81.5940270
 103.9491640  99.4963420  81.4216510 102.6112160  98.7902730  81.3647050
 105.8667430  96.3846870  82.9778110 105.9863640  95.7888010  83.7172950
 106.7261430  96.4216560  82.5579410 108.2055330  96.9384060  81.5540620
 107.6790550  97.4626680  80.9505760 108.5486670  97.5711450  82.1850350
 101.3810950 104.9583700  82.7098000 100.8432040 105.6829760  82.3906700
 101.6344910 104.4814040  81.9195340  99.4024520  91.4278050  67.9868210
  99.7050420  91.4345480  67.0787360 100.1419110  91.0775910  68.4835870
 104.2373160 106.1934910  82.9684650 104.1631860 107.0970050  83.2757020
 103.3352000 105.8746810  82.9406720  98.4254650 100.7320470  68.8198010
  98.8629520 101.2750140  69.4755590  98.9102380  99.9067420  68.8294350
  95.6400450 103.5209500  76.2718270  95.9703460 102.6530560  76.0396910
  96.0691450 103.7268020  77.1023230  96.1290660 104.3880090  79.0099900
  95.6921650 104.5680890  79.8424050  96.6968340 105.1454710  78.8681620
 111.7652840 103.8897090  83.2977210 111.1654830 103.9489650  82.5541130
 111.8946740 102.9502070  83.4274060 113.0054290 101.6314910  68.6346920
 112.1747250 101.6991560  69.1054150 113.1826120 102.5219030  68.3313780
 112.4610750  98.3762390  71.1381120 113.2229660  98.9459040  71.2440810
 112.4765120  97.8089590  71.9089430 113.4670720  99.2312490  75.9823050
 113.8379550  98.4479810  75.5759020 114.1072650  99.9201590  75.8040350
 110.4504480 100.6149070  81.3953370 109.6364320 101.0446230  81.6579160
 110.8578680 101.2267480  80.7822420 112.5129920  98.6696760  68.2953640
 112.7878760  99.5775640  68.1672860 112.3240660  98.6059290  69.2315630
 108.9105530  91.6941610  69.5907270 109.3290410  91.5072590  68.7503930
 108.6041590  90.8420660  69.9010200 112.4095260  96.6065750  73.2883070
 112.0338860  95.8393680  72.8564360 111.6798380  96.9888450  73.7758000
 111.6846220  94.8323240  76.5890310 112.2083700  94.3385890  75.9580480
 112.2705640  94.9673600  77.3337880 111.8635940  94.9163110  80.1109860
 110.9138650  94.8826650  80.2254850 112.0448950  95.8263220  79.8759630
  97.7180380  93.1664790  69.2208490  98.4272080  92.7448010  68.7355770
  97.0020320  93.2340020  68.5891840 111.1746190  94.0896590  72.5282720
 111.6705310  93.8567460  73.3131600 110.9762260  93.2508430  72.1120360
  97.0546730  88.4710310  78.1633760  97.7022920  87.9207690  77.7228920
  97.4748570  88.7253460  78.9849570 112.6033350  92.7257540  75.0620400
 112.4932630  92.5713580  76.0002670 113.3640940  92.1978480  74.8195810
 110.9499070  88.6651670  81.5203400 111.5871290  89.2785810  81.8862590
 111.0973960  88.7012330  80.5752630 113.4923620  90.5565460  68.3026540
 114.4172930  90.4246640  68.0944830 113.4699410  90.6358280  69.2562990
 113.5662110  91.3276120  70.9283250 112.7713610  91.2621240  71.4576160
 113.7705390  92.2626760  70.9168600 102.1149130 103.3545170  80.6721990
 101.8740490 103.6219730  79.7852510 103.0551770 103.5250900  80.7272850
 113.3753290 105.3739550  81.4732630 112.8811570 105.7708420  80.7559760
 112.7666580 104.7488760  81.8669910  98.2531130 104.7447830  82.1910050
  97.6591450 104.6132530  82.9300090  98.2454970 103.9085970  81.7252150
 108.6058130  90.2450930  81.7781800 108.2771490  89.4302690  81.3983530
 109.5540430  90.2020740  81.6547490 111.0592740 106.0162970  78.7519370
 110.5995710 106.7678780  78.3777390 110.4305200 105.2969440  78.6934170
  97.8843360 102.1106210  81.1418090  97.1577420 101.4911500  81.0744040
  97.9452510 102.5046820  80.2716170 105.4460970  88.9549900  79.3332990
 104.6632760  89.4295400  79.6129750 105.1523900  88.0504730  79.2246170
  96.1673360 105.4280600  74.3514850  95.9995400 104.7951280  75.0496740
  95.3007870 105.6340000  74.0009040 103.3315190  91.3736650  74.8449020
 102.5189700  90.9993540  74.5044900 103.8356830  90.6181730  75.1470210
 110.9774770  88.4400660  71.3572370 111.1725400  89.3384110  71.6239800
 110.1904640  88.2087740  71.8505320  97.7736060 104.1213830  71.7964990
  97.2483680 104.5021860  71.0926950  97.6980640 104.7464600  72.5174700
  99.1626530  89.7861430  70.3948680  99.6919290  88.9991230  70.2656630
  99.7954850  90.4652620  70.6284210 101.3564370  89.5236570  73.4494070
 100.7267110  88.8223880  73.6164200 100.8169510  90.2840700  73.2327230
 110.8633880 105.3645660  85.9445720 111.6559200 104.8694890  85.7371680
 111.1567030 106.0435800  86.5521330  95.5102370  95.8872970  59.2528890
  96.0818480  95.1195170  59.2532530  95.5103910  96.1861730  58.3435500
 105.3682320 104.7063820  57.1074160 104.7493760 105.1621320  56.5368600
 106.2234100 104.8615280  56.7063860  96.7527240  91.2957330  61.0397820
  96.5730080  90.3983080  61.3200580  96.3507320  91.8429200  61.7144770
 109.3749860  90.9923630  55.8738470 110.1959480  90.5020200  55.9163950
 109.4083940  91.5821290  56.6270310  97.3713910  93.7917830  59.6480160
  98.0524020  94.0556200  60.2667560  97.0561960  92.9518700  59.9818170
  99.8474580  89.4783750  63.0016170  99.8493020  89.9956140  62.1962070
  99.0178890  89.0013930  62.9786100  99.5289910  91.1893710  61.0086620
  99.8706720  92.0335760  60.7140490  98.5905720  91.3377450  61.1251960
 111.2274120 102.5499140  60.9093490 110.5437640 103.2198250  60.9010160
 111.7668410 102.7479790  60.1438350 103.2117800  88.6775980  57.3331210
 103.5192780  88.1222870  56.6166710 102.2818500  88.8120440  57.1504200
 108.7632860 104.3943270  59.6238670 108.7760020 103.9905560  58.7560930
 108.2108080 105.1690560  59.5200100 110.0578280 101.1159490  54.7128840
 109.9474610 100.1733820  54.8378260 110.0546530 101.4775130  55.5991600
 105.5867640  93.0141810  51.0658490 104.6471310  93.1755770  51.1510950
 105.9050900  93.7327490  50.5194480 112.1080400  97.6960330  61.0437520
 111.2799030  97.7653420  60.5687650 112.7030880  98.2814640  60.5753350
  99.9183820  94.0432760  60.6310100 100.4698410  94.1528100  59.8563350
 100.4327330  94.4170360  61.3465330 109.7622510 104.5288980  62.6773370
 109.2853070 105.3361170  62.4845980 109.0784300 103.8767310  62.8299580
 111.3877690  88.7974730  49.8940370 111.0750350  88.8901560  50.7939440
 112.1490160  89.3755760  49.8437800  97.9059830  96.1634530  54.3517710
  97.7857430  96.8896620  53.7398980  97.5960720  95.3937440  53.8745620
 113.3421720 104.2900920  67.7464760 113.8181440 104.7683810  68.4253840
 113.9628880 104.2218410  67.0210260 112.7454970 101.4813770  64.9064770
 112.8718030 101.2425650  63.9881950 112.7876350 100.6498310  65.3786850
 106.6071710 105.1841770  63.4759580 107.1216380 105.0949780  64.2782010
 105.7640790 105.5301470  63.7687490 101.0614490 105.2495640  54.6815200
 100.8856970 104.3331180  54.4683000 100.2070230 105.6082930  54.9213000
 107.8502170 104.6047380  55.5390070 108.3059120 103.8236760  55.8528690
 108.1894690 105.3154200  56.0831250 112.5978980  93.5346230  65.8714510
 111.9823250  94.0425900  65.3429970 112.2775400  92.6344560  65.8140450
 104.6593300  92.3738120  63.3376700 104.1972670  92.5821140  64.1496640
 104.2571410  91.5597470  63.0347370 109.6597810  93.5947070  64.4673360
 108.8091400  93.2952820  64.7882430 109.4999600  93.8389080  63.5557180
 106.7547520  95.0948820  66.5672150 107.0800930  94.2612570  66.2274380
 107.5427850  95.6177340  66.7150480 102.4099390  90.0516930  59.5930980
 102.7071720  90.9579760  59.5123000 102.9584950  89.5635710  58.9790550
 100.1637710  94.6303170  55.4622630  99.9378630  94.4140340  56.3669250
  99.3830240  95.0631630  55.1168600 107.3935470  94.6366540  54.0613280
 106.7944360  95.3602340  53.8776900 107.9415080  94.5743320  53.2789730
 102.6036920  95.5288750  66.1282900 102.5080520  94.5883480  65.9783300
 103.4468900  95.7503820  65.7330970 106.0000340  93.2730080  56.0916560
 106.3929910  93.5902280  55.2785250 106.3617190  92.3941960  56.2061080
  97.7347460  91.9402420  64.2816680  97.3410850  92.7877630  64.4889460
  97.0465860  91.3028790  64.4725320 103.0232870  92.5390030  58.5919830
 103.0268930  92.0979980  57.7424370 103.9183990  92.8607360  58.6991650
  98.8735250  92.4216520  57.5514040  98.5335300  92.8991750  58.3081090
  98.1112570  91.9681640  57.1915140 103.0853020  93.5402110  51.5826590
 103.2065840  93.4988590  52.5312410 102.7001530  94.4026260  51.4273320
 110.4752140  88.7301690  65.4376660 110.7997910  87.9991350  65.9634640
 110.5108650  88.4115330  64.5357650  97.1743700  99.7515270  64.8576620
  96.7898490  99.1108940  65.4559580  97.4855890 100.4551390  65.4271350
  96.1881330  91.3435500  56.4678710  95.9028250  90.9791170  57.3057330
  96.1260190  90.6115960  55.8541850 101.1140210  95.6400450  62.6569450
 100.8097280  96.5192430  62.8819810 102.0686670  95.7000240  62.6926890
  99.6422000  99.8461440  53.2536300  98.8684260  99.3059060  53.0935020
 100.3716630  99.3268050  52.9154060 105.8619920  90.2364760  53.1892080
 105.0484530  89.7377930  53.1137390 105.6681870  91.0763010  52.7728430
 105.7828780  98.9135860  64.9331690 105.7166090  97.9931530  64.6789280
 105.1533920  99.0111300  65.6476330 104.5728900 100.7808100  52.1642410
 104.9144600 101.5250330  51.6685730 103.7441610 101.0939220  52.5267240
  97.1703940  96.4803190  63.8040810  96.8118880  97.1457040  64.3914150
  96.8758500  95.6486740  64.1753430 100.3717060  96.9387430  66.6880360
 100.0717200  97.0844610  65.7908180 101.1428300  96.3792720  66.5953750
 111.9256720  98.3763770  64.0304070 111.2004910  98.9692550  63.8333460
 112.4532180  98.3687310  63.2317440 110.2667210 101.6654970  50.2192580
 110.0404790 100.9485410  50.8117220 109.8763410 101.4167410  49.3814330
 108.1949110 102.1801250  63.6989500 108.5305350 102.7667940  64.3767420
 107.2749450 102.0493960  63.9287290  96.0483240 105.6921830  50.9937040
  96.4080880 106.2911170  50.3394310  95.9075580 106.2381720  51.7672070
 109.8483460  99.5826910  51.8806740 109.5605160 100.0439600  52.6684620
 110.6435630  99.1224680  52.1490960 102.0651860 103.0753030  51.8110710
 102.0561960 103.8082720  51.1955220 101.1450220 102.8284610  51.9037670
  97.6658500  98.2967920  52.5557470  97.0586450  99.0366820  52.5652770
  98.1407850  98.3867280  51.7295670 110.6053320  91.4175680  53.0401920
 109.9766480  91.5221350  52.3260150 110.1105240  91.6372460  53.8295800
 105.0511460 103.1381270  50.4735900 105.1523440 102.9345260  49.5437880
 104.1513200 102.8839550  50.6783680 102.5737350  93.6961630  54.4559800
 101.8653500  94.1647970  54.8973410 102.8581830  93.0383640  55.0904990
 104.1993280  95.1158330  62.4552330 104.6978530  95.5904150  63.1204180
 104.3416230  94.1921850  62.6622360 106.6052780  90.4212290  55.8955590
 106.4820560  90.4398420  54.9465100 107.5537340  90.4691230  56.0153990
 103.6929570 105.6567590  55.1683570 103.9471070 105.6188980  54.2462940
 102.7442050 105.5300920  55.1611820 111.7007730 103.7468320  58.4196340
 111.8255150 104.5699490  58.8920150 112.5673290 103.5359050  58.0720490
  96.0570740 101.9073100  53.9654980  95.1310520 102.1494240  53.9560390
  96.5227170 102.7347360  53.8439730  98.1783540 105.0245600  67.2799050
  98.9796270 105.3457650  67.6934450  97.6635360 104.6641180  68.0018960
 102.2827570 105.0129840  49.9139040 103.0756180 105.3018670  49.4620830
 101.7631920 104.5822010  49.2351520  95.8981350  97.5119060  66.2235100
  96.4020370  96.9326340  66.7951330  95.1588770  97.7959290  66.7611470
  97.9304430  95.6548650  67.1185170  97.9709770  95.3562520  68.0270400
  98.7849930  96.0556260  66.9592690 101.7082820  98.2544200  52.2788680
 102.1299240  98.0884070  53.1220070 101.8333660  97.4444430  51.7843820
  99.8710240  94.2340750  65.0859660  99.3406700  93.7431700  64.4583000
 100.5398310  94.6624950  64.5517590 108.7688300  98.7010210  64.8500850
 109.1829320  98.8555290  65.6991270 107.8339300  98.8265430  65.0126630
 109.2410470  96.0406370  66.8540000 109.8231240  95.2858690  66.7660480
 109.4172240  96.5713810  66.0771480 100.3582540  91.2003120  65.1656950
 100.2639410  90.5823870  64.4407820  99.7779930  91.9269410  64.9386860
 103.1243980  89.7576360  62.1984340 102.6761280  89.7800620  61.3529890
 102.4909180  89.3595380  62.7954640 105.8667430  96.3846870  64.2034620
 105.9863640  95.7888010  64.9429460 106.7261430  96.4216560  63.7835920
 108.2055330  96.9384060  62.7797130 107.6790550  97.4626680  62.1762270
 108.5486670  97.5711450  63.4106860 102.6336200  92.9268220  65.4610440
 103.2235890  92.6184070  66.1488260 101.8156440  92.4547970  65.6170340
 107.4529630  92.5434030  65.6943460 106.7645150  91.8815570  65.6293450
 108.1735650  92.0972300  66.1391920 104.2373160 106.1934910  64.1941160
 104.1631860 107.0970050  64.5013530 103.3352000 105.8746810  64.1663230
 104.7858490 105.3593420  51.8167520 105.6809280 105.6978390  51.8386280
 104.8176120 104.6372830  51.1891800  98.4254650 100.7320470  50.0454520
  98.8629520 101.2750140  50.7012100  98.9102380  99.9067420  50.0550860
 100.2362370 101.8518510  55.1576750  99.9357910 101.7283480  56.0580660
 100.1299860 100.9927100  54.7492480 111.7652840 103.8897090  64.5233720
 111.1654830 103.9489650  63.7797640 111.8946740 102.9502070  64.6530570
 113.0054290 101.6314910  49.8603430 112.1747250 101.6991560  50.3310660
 113.1826120 102.5219030  49.5570290 112.4610750  98.3762390  52.3637630
 113.2229660  98.9459040  52.4697320 112.4765120  97.8089590  53.1345940
 113.4670720  99.2312490  57.2079560 113.8379550  98.4479810  56.8015530
 114.1072650  99.9201590  57.0296860 110.4504480 100.6149070  62.6209880
 109.6364320 101.0446230  62.8835670 110.8578680 101.2267480  62.0078930
 112.5129920  98.6696760  49.5210150 112.7878760  99.5775640  49.3929370
 112.3240660  98.6059290  50.4572140 108.9105530  91.6941610  50.8163780
 109.3290410  91.5072590  49.9760440 108.6041590  90.8420660  51.1266710
 112.4095260  96.6065750  54.5139580 112.0338860  95.8393680  54.0820870
 111.6798380  96.9888450  55.0014510 111.7994880  95.7537270  64.1479100
 111.5680970  95.5250020  63.2477050 112.0599430  96.6736820  64.1023990
 110.2382950  90.9793700  66.9258800 111.1153130  90.9877100  67.3092800
 110.2503790  90.2424540  66.3151150 111.6846220  94.8323240  57.8146820
 112.2083700  94.3385890  57.1836990 112.2705640  94.9673600  58.5594390
 112.6033350  92.7257540  56.2876910 112.4932630  92.5713580  57.2259180
 113.3640940  92.1978480  56.0452320 113.4923620  90.5565460  49.5283050
 114.4172930  90.4246640  49.3201340 113.4699410  90.6358280  50.4819500
 113.5662110  91.3276120  52.1539760 112.7713610  91.2621240  52.6832670
 113.7705390  92.2626760  52.1425110 104.3203550  89.8177860  65.6535010
 104.2592440  90.4099690  66.4030420 105.2603930  89.7103820  65.5085270
 106.9578110  89.4747920  65.2927300 107.5718520  89.7927210  64.6308380
 107.5027670  88.9896510  65.9123160 113.3753290 105.3739550  62.6989140
 112.8811570 105.7708420  61.9816270 112.7666580 104.7488760  63.0926420
  97.4799370  88.1542180  65.4066360  98.0282360  87.9730230  64.6432470
  97.5454680  87.3636290  65.9422670 104.2283960 105.2159700  59.9792990
 104.5161770 104.9614000  59.1026000 104.7407180 104.6637060  60.5698560
 111.8620610  89.2888240  56.6147410 111.8009010  88.3449460  56.4678430
 112.6412640  89.3968330  57.1600870 103.3315190  91.3736650  56.0705530
 102.5189700  90.9993540  55.7301410 103.8356830  90.6181730  56.3726720
 110.9774770  88.4400660  52.5828880 111.1725400  89.3384110  52.8496310
 110.1904640  88.2087740  53.0761830  97.7736060 104.1213830  53.0221500
  97.2483680 104.5021860  52.3183460  97.6980640 104.7464600  53.7431210
 101.4819930  88.8020550  67.1103070 101.2004200  89.3054150  66.3463890
 101.8639630  88.0042300  66.7445200  99.5343820 102.1860940  51.9017080
  98.9052700 102.6546040  52.4502910  99.6491650 101.3410160  52.3363270
 110.8633880 105.3645660  67.1702230 111.6559200 104.8694890  66.9628190
 111.1567030 106.0435800  67.7777840  99.1377410  98.3265430  40.8103310
  98.3062290  98.0714140  41.2099820  99.7458390  98.3976200  41.5461230
  99.1178670 102.3605520  41.0061330  99.4206710 101.4703260  40.8271550
  99.8622260 102.9175740  40.7783580 105.3682320 104.7063820  38.3330670
 104.7493760 105.1621320  37.7625110 106.2234100 104.8615280  37.9320370
  97.3713910  93.7917830  40.8736670  98.0524020  94.0556200  41.4924070
  97.0561960  92.9518700  41.2074680  99.8474580  89.4783750  44.2272680
  99.8493020  89.9956140  43.4218580  99.0178890  89.0013930  44.2042610
 101.0977430  99.1178930  42.4046180 100.7646810  99.7447850  43.0467250
 101.2744110  99.6440810  41.6247850  99.5289910  91.1893710  42.2343130
  99.8706720  92.0335760  41.9397000  98.5905720  91.3377450  42.3508470
 108.7632860 104.3943270  40.8495180 108.7760020 103.9905560  39.9817440
 108.2108080 105.1690560  40.7456610 110.0578280 101.1159490  35.9385350
 109.9474610 100.1733820  36.0634770 110.0546530 101.4775130  36.8248110
 101.6736900 100.9557110  40.2406780 101.3765190 100.3502580  39.5614560
 102.6236720 100.9934420  40.1296140  99.9183820  94.0432760  41.8566610
 100.4698410  94.1528100  41.0819860 100.4327330  94.4170360  42.5721840
  99.5926550  97.5652120  45.4671950  99.4534320  98.4374920  45.8359350
  98.7107910  97.2224930  45.3219890 105.9155930 102.4827990  36.7737080
 106.3551840 103.2252320  36.3592470 105.8542820 102.7254560  37.6976040
 113.3421720 104.2900920  48.9721270 113.8181440 104.7683810  49.6510350
 113.9628880 104.2218410  48.2466770  95.5445200  99.3349670  41.3842860
  95.6225620  99.4698440  40.4398580  96.1586880  98.6265560  41.5770980
  96.7892830 101.0349860  37.7949040  96.3820910 101.1764450  36.9402640
  97.6805840 100.7510020  37.5920250 112.7454970 101.4813770  46.1321280
 112.8718030 101.2425650  45.2138460 112.7876350 100.6498310  46.6043360
 108.5826110 105.4697110  34.1300090 108.4227250 105.1800050  35.0281920
 108.4172820 104.6937240  33.5945320 101.0614490 105.2495640  35.9071710
 100.8856970 104.3331180  35.6939510 100.2070230 105.6082930  36.1469510
 108.2852240 102.9784670  32.6898090 107.5917400 102.9761960  32.0300370
 109.0275100 102.5543990  32.2592260 107.8502170 104.6047380  36.7646580
 108.3059120 103.8236760  37.0785200 108.1894690 105.3154200  37.3087760
  95.6004720 100.3763840  43.9237320  95.7635760  99.9069200  43.1056690
  96.0657170  99.8687400  44.5886160 104.6593300  92.3738120  44.5633210
 104.1972670  92.5821140  45.3753150 104.2571410  91.5597470  44.2603880
  97.7347460  91.9402420  45.5073190  97.3410850  92.7877630  45.7145970
  97.0465860  91.3028790  45.6981830 104.3092510  92.0237390  48.5769930
 103.6190830  91.8309590  49.2116020 105.0524810  92.3072030  49.1094230
  95.0364510  89.8630880  39.5403270  94.7477560  90.4333740  40.2528250
  95.7810270  89.3835330  39.9034500  95.2234740  93.8051000  30.7505990
  95.1409410  94.7481760  30.8920980  94.8717800  93.6625910  29.8718340
 102.0974520  95.8503250  32.2066400 101.5291420  95.4021500  31.5802310
 102.8063520  96.2096030  31.6731550  97.1743700  99.7515270  46.0833130
  96.7898490  99.1108940  46.6816090  97.4855890 100.4551390  46.6527860
 103.3240840  96.5991810  41.5641750 103.6910970  96.1250380  42.3103090
 103.1345900  97.4733380  41.9050090  96.1881330  91.3435500  37.6935220
  95.9028250  90.9791170  38.5313840  96.1260190  90.6115960  37.0798360
 101.1140210  95.6400450  43.8825960 100.8097280  96.5192430  44.1076320
 102.0686670  95.7000240  43.9183400  99.6859400  99.5141820  38.1171620
 100.2038070  98.7110080  38.0628510  99.2343420  99.4520960  38.9588450
 104.5728900 100.7808100  33.3898920 104.9144600 101.5250330  32.8942240
 103.7441610 101.0939220  33.7523750 110.8482580  95.9196250  32.1790610
 110.7646300  96.3510470  31.3287050 111.5676770  96.3794600  32.6117430
 111.8769830 102.7738510  34.9072740 111.2345990 102.1194130  35.1816460
 111.4900490 103.1793600  34.1313410 103.5419590 100.8621630  36.1614840
 104.2290720 101.4090840  36.5422430 102.7552010 101.4062360  36.1964450
  95.6811990  96.4794450  31.6531920  96.5506840  96.7619250  31.9367840
  95.1902310  97.2930320  31.5380730 110.2667210 101.6654970  31.4449090
 110.0404790 100.9485410  32.0373730 109.8763410 101.4167410  30.6070840
  96.0483240 105.6921830  32.2193550  96.4080880 106.2911170  31.5650820
  95.9075580 106.2381720  32.9928580 109.8483460  99.5826910  33.1063250
 109.5605160 100.0439600  33.8941130 110.6435630  99.1224680  33.3747470
 107.2391290  92.4618740  43.4570870 107.6072110  91.6413950  43.7850440
 106.3789490  92.5220630  43.8726520 105.0511460 103.1381270  31.6992410
 105.1523440 102.9345260  30.7694390 104.1513200 102.8839550  31.9040190
 104.1993280  95.1158330  43.6808840 104.6978530  95.5904150  44.3460690
 104.3416230  94.1921850  43.8878870 103.6929570 105.6567590  36.3940080
 103.9471070 105.6188980  35.4719450 102.7442050 105.5300920  36.3868330
 111.7007730 103.7468320  39.6452850 111.8255150 104.5699490  40.1176660
 112.5673290 103.5359050  39.2977000 102.2827570 105.0129840  31.1395550
 103.0756180 105.3018670  30.6877340 101.7631920 104.5822010  30.4608030
 111.3357740 104.2399970  32.5632290 111.0499250 103.8265110  31.7486470
 111.1377290 105.1687680  32.4432810 106.0407700  99.2953280  31.6079890
 105.4917800  99.7422580  32.2522630 106.6626960  98.7902530  32.1317560
 104.2210460  97.2781810  30.7522290 104.7416120  96.5630830  30.3863440
 104.8678860  97.9167680  31.0522800 103.1243980  89.7576360  43.4240850
 102.6761280  89.7800620  42.5786400 102.4909180  89.3595380  44.0211150
 100.6041720  94.3277430  30.4503350 100.4030780  93.4644790  30.8116690
 100.4333770  94.2410790  29.5124950 102.6336200  92.9268220  46.6866950
 103.2235890  92.6184070  47.3744770 101.8156440  92.4547970  46.8426850
 107.4529630  92.5434030  46.9199970 106.7645150  91.8815570  46.8549960
 108.1735650  92.0972300  47.3648430  99.4024520  91.4278050  30.4381230
  99.7050420  91.4345480  29.5300380 100.1419110  91.0775910  30.9348890
 104.2373160 106.1934910  45.4197670 104.1631860 107.0970050  45.7270040
 103.3352000 105.8746810  45.3919740 104.7858490 105.3593420  33.0424030
 105.6809280 105.6978390  33.0642790 104.8176120 104.6372830  32.4148310
 100.2362370 101.8518510  36.3833260  99.9357910 101.7283480  37.2837170
 100.1299860 100.9927100  35.9748990 111.7652840 103.8897090  45.7490230
 111.1654830 103.9489650  45.0054150 111.8946740 102.9502070  45.8787080
 113.0054290 101.6314910  31.0859940 112.1747250 101.6991560  31.5567170
 113.1826120 102.5219030  30.7826800  95.9615090  96.9000320  37.8201800
  95.3063930  96.6311960  37.1761500  96.7993040  96.7904800  37.3703780
 112.5129920  98.6696760  30.7466660 112.7878760  99.5775640  30.6185880
 112.3240660  98.6059290  31.6828650  96.9991020  97.2852890  42.3605140
  97.3664060  97.1980290  43.2401160  96.4301840  96.5219440  42.2612000
  95.1753170  94.1099250  33.7627130  94.2717250  94.3729450  33.5878790
  95.6593790  94.3810420  32.9827090  97.7180380  93.1664790  31.6721510
  98.4272080  92.7448010  31.1868790  97.0020320  93.2340020  31.0404860
  97.3654540  89.2204120  30.7124160  98.0882670  89.7613060  31.0305380
  97.6379060  88.9467540  29.8365700  97.0546730  88.4710310  40.6146780
  97.7022920  87.9207690  40.1741940  97.4748570  88.7253460  41.4362590
 110.5080530 105.3667670  37.3734660 111.1039600 105.0452240  36.6969080
 110.7658680 104.8939490  38.1647930  96.8078730  88.6265980  43.3572100
  96.4593550  89.0829800  44.1230280  96.4766430  87.7323110  43.4394530
 104.3203550  89.8177860  46.8791520 104.2592440  90.4099690  47.6286930
 105.2603930  89.7103820  46.7341780 106.9578110  89.4747920  46.5183810
 107.5718520  89.7927210  45.8564890 107.5027670  88.9896510  47.1379670
 113.3753290 105.3739550  43.9245650 112.8811570 105.7708420  43.2072780
 112.7666580 104.7488760  44.3182930 107.6986150  88.0380060  42.8453100
 106.8245990  88.3715170  42.6426030 107.5896900  87.5653240  43.6704970
 108.6058130  90.2450930  44.2294820 108.2771490  89.4302690  43.8496550
 109.5540430  90.2020740  44.1060510 111.0592740 106.0162970  41.2032390
 110.5995710 106.7678780  40.8290410 110.4305200 105.2969440  41.1447190
  97.8843360 102.1106210  43.5931110  97.1577420 101.4911500  43.5257060
  97.9452510 102.5046820  42.7229190 101.4888460 104.3251210  40.3780520
 102.0053480 103.7138570  39.8528780 102.1385840 104.8279990  40.8691530
 104.2283960 105.2159700  41.2049500 104.5161770 104.9614000  40.3282510
 104.7407180 104.6637060  41.7955070 105.4460970  88.9549900  41.7846010
 104.6632760  89.4295400  42.0642770 105.1523900  88.0504730  41.6759190
 104.2956320 106.1375800  48.5717700 105.2223630 105.9020070  48.6153660
 104.2806750 106.9647800  48.0903730 112.5301380 105.6801370  35.5691950
 112.7053570 104.9939110  34.9252870 111.8322950 106.2048420  35.1768620
 100.3729030 106.0696210  33.1227260 101.1047850 105.7855490  32.5751150
 100.6322700 105.8309490  34.0126640 110.8633880 105.3645660  48.3958740
 111.6559200 104.8694890  48.1884700 111.1567030 106.0435800  49.0034350
 106.9893540  96.2366600  19.2774790 106.9087590  95.3221210  19.0066500
 106.5757960  96.7333670  18.5714500 105.1211580  98.0145620  21.1584060
 104.3453680  97.5346060  21.4482630 105.7724510  97.3351270  20.9840220
 109.1419010 102.4205810  19.9383190 108.6800540 101.6493050  20.2670360
 109.9544560 102.4471880  20.4435640  97.5469360  93.2867320  15.8202210
  96.6586060  93.6283290  15.7182090  97.8310550  93.0867640  14.9283040
 105.3682320 104.7063820  19.5587180 104.7493760 105.1621320  18.9881620
 106.2234100 104.8615280  19.1576880  96.7527240  91.2957330  23.4910840
  96.5730080  90.3983080  23.7713600  96.3507320  91.8429200  24.1657790
 105.5925740  93.4973190  21.3923150 105.9690560  92.6245070  21.2796820
 105.4945250  93.8331890  20.5013590  99.7230750  91.8698820  16.8540590
  99.8297500  92.7702550  17.1609350  98.8123110  91.8216790  16.5635240
 109.3749860  90.9923630  18.3251490 110.1959480  90.5020200  18.3676970
 109.4083940  91.5821290  19.0783330  97.3713910  93.7917830  22.0993180
  98.0524020  94.0556200  22.7180580  97.0561960  92.9518700  22.4331190
 101.5638480  94.8385190  21.1865770 102.0716700  95.3366160  21.8270790
 102.0951720  94.0620390  21.0105130 113.6649410  93.0090380  24.8895120
 112.9601580  93.3972090  24.3710230 113.9307330  93.7040670  25.4916050
  99.8474580  89.4783750  25.4529190  99.8493020  89.9956140  24.6475090
  99.0178890  89.0013930  25.4299120 106.2345670  99.5903060  16.9519090
 105.6162940 100.0552510  16.3881810 106.7468920 100.2830540  17.3688600
 109.6111340  92.9324010  21.0979030 108.9066910  93.2208900  21.6782140
 109.9723500  93.7424120  20.7378590  99.5289910  91.1893710  23.4599640
  99.8706720  92.0335760  23.1653510  98.5905720  91.3377450  23.5764980
  95.6028870 100.2759590  14.3258720  95.2256850 100.7646690  13.5943620
  95.8601940 100.9484870  14.9565250 111.2274120 102.5499140  23.3606510
 110.5437640 103.2198250  23.3523180 111.7668410 102.7479790  22.5951370
 112.6798260  92.3778800  21.4888240 111.7323170  92.4117780  21.6203670
 113.0048250  93.1917750  21.8737600 103.2117800  88.6775980  19.7844230
 103.5192780  88.1222870  19.0679730 102.2818500  88.8120440  19.6017220
 110.0578280 101.1159490  17.1641860 109.9474610 100.1733820  17.2891280
 110.0546530 101.4775130  18.0504620 108.1618300  99.2973110  23.4034300
 108.5787090  99.0833220  22.5687760 108.8858120  99.5545900  23.9742920
 105.5998560  96.7424810  16.5204350 104.6727840  96.6762190  16.7492820
 105.7523380  97.6804940  16.4059590 105.5867640  93.0141810  13.5171510
 104.6471310  93.1755770  13.6023970 105.9050900  93.7327490  12.9707500
 112.1080400  97.6960330  23.4950540 111.2799030  97.7653420  23.0200670
 112.7030880  98.2814640  23.0266370 109.6295850  98.3045110  17.0239600
 109.0108270  97.9664660  16.3765900 109.6120300  97.6604870  17.7318790
 109.0722410  94.4829650  24.4405410 108.6593590  95.3083360  24.6945400
 108.3398360  93.8974690  24.2481770 101.2055200  97.2689550  19.3024080
 100.8012200  96.5566800  18.8069980 101.2918320  96.9242790  20.1912120
  99.9183820  94.0432760  23.0823120 100.4698410  94.1528100  22.3076370
 100.4327330  94.4170360  23.7978350 109.7622510 104.5288980  25.1286390
 109.2853070 105.3361170  24.9359000 109.0784300 103.8767310  25.2812600
 107.8060550  97.5431920  14.0312350 108.2453830  96.7054350  13.8850170
 108.5188970  98.1761320  14.1176490 105.9155930 102.4827990  17.9993590
 106.3551840 103.2252320  17.5848980 105.8542820 102.7254560  18.9232550
 111.3877690  88.7974730  12.3453390 111.0750350  88.8901560  13.2452460
 112.1490160  89.3755760  12.2950820  97.9059830  96.1634530  16.8030730
  97.7857430  96.8896620  16.1912000  97.5960720  95.3937440  16.3258640
 113.3421720 104.2900920  30.1977780 113.8181440 104.7683810  30.8766860
 113.9628880 104.2218410  29.4723280 112.7454970 101.4813770  27.3577790
 112.8718030 101.2425650  26.4394970 112.7876350 100.6498310  27.8299870
 108.5826110 105.4697110  15.3556600 108.4227250 105.1800050  16.2538430
 108.4172820 104.6937240  14.8201830 101.0614490 105.2495640  17.1328220
 100.8856970 104.3331180  16.9196020 100.2070230 105.6082930  17.3726020
 108.2852240 102.9784670  13.9154600 107.5917400 102.9761960  13.2556880
 109.0275100 102.5543990  13.4848770 107.8502170 104.6047380  17.9903090
 108.3059120 103.8236760  18.3041710 108.1894690 105.3154200  18.5344270
 112.5978980  93.5346230  28.3227530 111.9823250  94.0425900  27.7942990
 112.2775400  92.6344560  28.2653470 100.3723490  89.5069600  20.1854400
  99.9291640  90.2879140  19.8538920 100.9308480  89.8299490  20.8925340
 104.6593300  92.3738120  25.7889720 104.1972670  92.5821140  26.6009660
 104.2571410  91.5597470  25.4860390 103.4882310  89.1280300  15.0660230
 102.8636490  89.1240170  15.7913540 103.4012430  88.2611260  14.6696200
 102.4099390  90.0516930  22.0444000 102.7071720  90.9579760  21.9636020
 102.9584950  89.5635710  21.4303570 100.1637710  94.6303170  17.9135650
  99.9378630  94.4140340  18.8182270  99.3830240  95.0631630  17.5681620
 107.3935470  94.6366540  16.5126300 106.7944360  95.3602340  16.3289920
 107.9415080  94.5743320  15.7302750 102.6036920  95.5288750  28.5795920
 102.5080520  94.5883480  28.4296320 103.4468900  95.7503820  28.1843990
 106.0000340  93.2730080  18.5429580 106.3929910  93.5902280  17.7298270
 106.3617190  92.3941960  18.6574100  97.7347460  91.9402420  26.7329700
  97.3410850  92.7877630  26.9402480  97.0465860  91.3028790  26.9238340
  95.0364510  89.8630880  20.7659780  94.7477560  90.4333740  21.4784760
  95.7810270  89.3835330  21.1291010  95.2234740  93.8051000  11.9762500
  95.1409410  94.7481760  12.1177490  94.8717800  93.6625910  11.0974850
 106.5855480  95.8635830  22.6380360 105.8536600  96.3722640  22.9870460
 106.1879820  95.0465810  22.3369140 103.0232870  92.5390030  21.0432850
 103.0268930  92.0979980  20.1937390 103.9183990  92.8607360  21.1504670
  98.8735250  92.4216520  20.0027060  98.5335300  92.8991750  20.7594110
  98.1112570  91.9681640  19.6428160 103.0853020  93.5402110  14.0339610
 103.2065840  93.4988590  14.9825430 102.7001530  94.4026260  13.8786340
 107.0481390  91.3169510  22.0503300 107.0654130  91.7678160  22.8945150
 106.7996970  90.4175150  22.2636740 102.0974520  95.8503250  13.4322910
 101.5291420  95.4021500  12.8058820 102.8063520  96.2096030  12.8988060
 103.3240840  96.5991810  22.7898260 103.6910970  96.1250380  23.5359600
 103.1345900  97.4733380  23.1306600 101.1140210  95.6400450  25.1082470
 100.8097280  96.5192430  25.3332830 102.0686670  95.7000240  25.1439910
  99.6422000  99.8461440  15.7049320  98.8684260  99.3059060  15.5448040
 100.3716630  99.3268050  15.3667080 110.4009980  98.8426800  21.4975710
 111.1209100  99.3382090  21.1071820 110.1991800  98.1644690  20.8529580
 105.8619920  90.2364760  15.6405100 105.0484530  89.7377930  15.5650410
 105.6681870  91.0763010  15.2241450 105.7828780  98.9135860  27.3844710
 105.7166090  97.9931530  27.1302300 105.1533920  99.0111300  28.0989350
 108.5768310  94.6084410  13.9367260 109.4647930  94.9201640  13.7618600
 108.5473400  93.7356660  13.5447840  99.6859400  99.5141820  19.3428130
 100.2038070  98.7110080  19.2885020  99.2343420  99.4520960  20.1844960
 104.5728900 100.7808100  14.6155430 104.9144600 101.5250330  14.1198750
 103.7441610 101.0939220  14.9780260  97.1703940  96.4803190  26.2553830
  96.8118880  97.1457040  26.8427170  96.8758500  95.6486740  26.6266450
 100.3717060  96.9387430  29.1393380 100.0717200  97.0844610  28.2421200
 101.1428300  96.3792720  29.0466770 110.8482580  95.9196250  13.4047120
 110.7646300  96.3510470  12.5543560 111.5676770  96.3794600  13.8373940
 111.9256720  98.3763770  26.4817090 111.2004910  98.9692550  26.2846480
 112.4532180  98.3687310  25.6830460 111.8769830 102.7738510  16.1329250
 111.2345990 102.1194130  16.4072970 111.4900490 103.1793600  15.3569920
 107.4556310 100.1023940  19.9800940 107.8080130  99.5052070  19.3202310
 106.5718640  99.7768170  20.1509190 103.5419590 100.8621630  17.3871350
 104.2290720 101.4090840  17.7678940 102.7552010 101.4062360  17.4220960
  95.6811990  96.4794450  12.8788430  96.5506840  96.7619250  13.1624350
  95.1902310  97.2930320  12.7637240 102.8446800  97.8667660  16.9996710
 103.3009580  98.6772910  17.2256900 102.4935010  97.5490800  17.8315200
 110.2667210 101.6654970  12.6705600 110.0404790 100.9485410  13.2630240
 109.8763410 101.4167410  11.8327350  96.0483240 105.6921830  13.4450060
  96.4080880 106.2911170  12.7907330  95.9075580 106.2381720  14.2185090
 109.8483460  99.5826910  14.3319760 109.5605160 100.0439600  15.1197640
 110.6435630  99.1224680  14.6003980 104.0237690 102.2292580  29.3190580
 103.7034560 101.5101820  29.8636270 103.3496050 102.9047650  29.3926640
 102.0651860 103.0753030  14.2623730 102.0561960 103.8082720  13.6468240
 101.1450220 102.8284610  14.3550690  97.6658500  98.2967920  15.0070490
  97.0586450  99.0366820  15.0165790  98.1407850  98.3867280  14.1808690
 107.2391290  92.4618740  24.6827380 107.6072110  91.6413950  25.0106950
 106.3789490  92.5220630  25.0983030 110.6053320  91.4175680  15.4914940
 109.9766480  91.5221350  14.7773170 110.1105240  91.6372460  16.2808820
 105.0511460 103.1381270  12.9248920 105.1523440 102.9345260  11.9950900
 104.1513200 102.8839550  13.1296700 102.5737350  93.6961630  16.9072820
 101.8653500  94.1647970  17.3486430 102.8581830  93.0383640  17.5418010
 104.1993280  95.1158330  24.9065350 104.6978530  95.5904150  25.5717200
 104.3416230  94.1921850  25.1135380 106.6052780  90.4212290  18.3468610
 106.4820560  90.4398420  17.3978120 107.5537340  90.4691230  18.4667010
 103.6929570 105.6567590  17.6196590 103.9471070 105.6188980  16.6975960
 102.7442050 105.5300920  17.6124840 100.7772370  92.0046710  14.2823530
 101.6262900  92.4416860  14.2163720 100.4103640  92.3166970  15.1095590
 111.4060140  91.3326290  25.7493740 110.9033740  92.0731690  26.0887550
 112.2216800  91.7210290  25.4330530 109.6982150  96.5759470  19.1955100
 108.7572290  96.5909700  19.3702790 110.0126220  95.7895430  19.6415400
  99.6763790  98.2579070  12.7559060 100.4427060  98.1460430  13.3184490
  99.7538480  97.5617040  12.1035830  98.3710550  95.6904140  13.4391950
  98.4514140  94.7431650  13.5509350  99.2630300  96.0211020  13.5452610
 111.7007730 103.7468320  20.8709360 111.8255150 104.5699490  21.3433170
 112.5673290 103.5359050  20.5233510  99.1725260 105.8399530  20.5426490
  99.9087740 105.2914990  20.8135060  99.5566180 106.7055540  20.4032480
  96.0570740 101.9073100  16.4168000  95.1310520 102.1494240  16.4073410
  96.5227170 102.7347360  16.2952750  98.1783540 105.0245600  29.7312070
  98.9796270 105.3457650  30.1447470  97.6635360 104.6641180  30.4531980
 102.2827570 105.0129840  12.3652060 103.0756180 105.3018670  11.9133850
 101.7631920 104.5822010  11.6864540 107.0148170 101.1325470  29.6787480
 106.4086330 101.1557070  28.9383230 106.7102280 100.4008510  30.2154730
 108.4448540 104.8605760  28.2896890 109.3970290 104.7763780  28.2397130
 108.2976760 105.5247470  28.9630680 111.3357740 104.2399970  13.7888800
 111.0499250 103.8265110  12.9742980 111.1377290 105.1687680  13.6689320
  95.8981350  97.5119060  28.6748120  96.4020370  96.9326340  29.2464350
  95.1588770  97.7959290  29.2124490 102.8004970 100.2333250  12.2294410
 102.6955610  99.6185600  12.9555790 102.6329190  99.7099140  11.4457420
 102.9519290  98.9190050  28.2083640 102.1864960  99.4875050  28.1238310
 103.1335250  98.6266260  27.3151870 106.0407700  99.2953280  12.8336400
 105.4917800  99.7422580  13.4779140 106.6626960  98.7902530  13.3574070
 110.0942640 100.6495380  28.7658660 110.8352110 100.9871140  28.2626120
 109.3315320 100.8187440  28.2128430  97.9304430  95.6548650  29.5698190
  97.9709770  95.3562520  30.4783420  98.7849930  96.0556260  29.4105710
 101.7082820  98.2544200  14.7301700 102.1299240  98.0884070  15.5733090
 101.8333660  97.4444430  14.2356840  99.8710240  94.2340750  27.5372680
  99.3406700  93.7431700  26.9096020 100.5398310  94.6624950  27.0030610
 104.2210460  97.2781810  11.9778800 104.7416120  96.5630830  11.6119950
 104.8678860  97.9167680  12.2779310 108.7688300  98.7010210  27.3013870
 109.1829320  98.8555290  28.1504290 107.8339300  98.8265430  27.4639650
 109.2410470  96.0406370  29.3053020 109.8231240  95.2858690  29.2173500
 109.4172240  96.5713810  28.5284500 100.3582540  91.2003120  27.6169970
 100.2639410  90.5823870  26.8920840  99.7779930  91.9269410  27.3899880
 103.1243980  89.7576360  24.6497360 102.6761280  89.7800620  23.8042910
 102.4909180  89.3595380  25.2467660 105.8667430  96.3846870  26.6547640
 105.9863640  95.7888010  27.3942480 106.7261430  96.4216560  26.2348940
 108.2055330  96.9384060  25.2310150 107.6790550  97.4626680  24.6275290
 108.5486670  97.5711450  25.8619880 100.6041720  94.3277430  11.6759860
 100.4030780  93.4644790  12.0373200 100.4333770  94.2410790  10.7381460
 102.6336200  92.9268220  27.9123460 103.2235890  92.6184070  28.6001280
 101.8156440  92.4547970  28.0683360 108.0830030  89.1385660  14.2046740
 108.3632320  88.2953560  14.5606160 107.3095760  89.3708770  14.7185490
  99.4024520  91.4278050  11.6637740  99.7050420  91.4345480  10.7556890
 100.1419110  91.0775910  12.1605400 104.2373160 106.1934910  26.6454180
 104.1631860 107.0970050  26.9526550 103.3352000 105.8746810  26.6176250
 102.6209450  90.3712670  12.6493940 102.2731450  89.6936660  12.0696390
 102.8222220  89.9102180  13.4637330 104.7858490 105.3593420  14.2680540
 105.6809280 105.6978390  14.2899300 104.8176120 104.6372830  13.6404820
  98.4254650 100.7320470  12.4967540  98.8629520 101.2750140  13.1525120
  98.9102380  99.9067420  12.5063880 100.2362370 101.8518510  17.6089770
  99.9357910 101.7283480  18.5093680 100.1299860 100.9927100  17.2005500
 111.7652840 103.8897090  26.9746740 111.1654830 103.9489650  26.2310660
 111.8946740 102.9502070  27.1043590 113.0054290 101.6314910  12.3116450
 112.1747250 101.6991560  12.7823680 113.1826120 102.5219030  12.0083310
 112.4610750  98.3762390  14.8150650 113.2229660  98.9459040  14.9210340
 112.4765120  97.8089590  15.5858960 113.4670720  99.2312490  19.6592580
 113.8379550  98.4479810  19.2528550 114.1072650  99.9201590  19.4809880
 110.4504480 100.6149070  25.0722900 109.6364320 101.0446230  25.3348690
 110.8578680 101.2267480  24.4591950 112.5129920  98.6696760  11.9723170
 112.7878760  99.5775640  11.8442390 112.3240660  98.6059290  12.9085160
 108.9105530  91.6941610  13.2676800 109.3290410  91.5072590  12.4273460
 108.6041590  90.8420660  13.5779730 112.4095260  96.6065750  16.9652600
 112.0338860  95.8393680  16.5333890 111.6798380  96.9888450  17.4527530
  96.9991020  97.2852890  23.5861650  97.3664060  97.1980290  24.4657670
  96.4301840  96.5219440  23.4868510 111.7994880  95.7537270  26.5992120
 111.5680970  95.5250020  25.6990070 112.0599430  96.6736820  26.5537010
  96.5507020  94.1961980  27.4920070  95.6563070  94.1628740  27.8313780
  97.0904570  94.3948770  28.2571320 111.6846220  94.8323240  20.2659840
 112.2083700  94.3385890  19.6350010 112.2705640  94.9673600  21.0107410
 111.8635940  94.9163110  23.7879390 110.9138650  94.8826650  23.9024380
 112.0448950  95.8263220  23.5529160  97.7180380  93.1664790  12.8978020
  98.4272080  92.7448010  12.4125300  97.0020320  93.2340020  12.2661370
  97.3654540  89.2204120  11.9380670  98.0882670  89.7613060  12.2561890
  97.6379060  88.9467540  11.0622210 111.1746190  94.0896590  16.2052250
 111.6705310  93.8567460  16.9901130 110.9762260  93.2508430  15.7889890
  97.0546730  88.4710310  21.8403290  97.7022920  87.9207690  21.3998450
  97.4748570  88.7253460  22.6619100 112.6033350  92.7257540  18.7389930
 112.4932630  92.5713580  19.6772200 113.3640940  92.1978480  18.4965340
 113.4923620  90.5565460  11.9796070 114.4172930  90.4246640  11.7714360
 113.4699410  90.6358280  12.9332520 113.5662110  91.3276120  14.6052780
 112.7713610  91.2621240  15.1345690 113.7705390  92.2626760  14.5938130
 110.5080530 105.3667670  18.5991170 111.1039600 105.0452240  17.9225590
 110.7658680 104.8939490  19.3904440 104.3203550  89.8177860  28.1048030
 104.2592440  90.4099690  28.8543440 105.2603930  89.7103820  27.9598290
 106.9578110  89.4747920  27.7440320 107.5718520  89.7927210  27.0821400
 107.5027670  88.9896510  28.3636180 113.3753290 105.3739550  25.1502160
 112.8811570 105.7708420  24.4329290 112.7666580 104.7488760  25.5439440
 107.6986150  88.0380060  24.0709610 106.8245990  88.3715170  23.8682540
 107.5896900  87.5653240  24.8961480 108.6058130  90.2450930  25.4551330
 108.2771490  89.4302690  25.0753060 109.5540430  90.2020740  25.3317020
 111.0592740 106.0162970  22.4288900 110.5995710 106.7678780  22.0546920
 110.4305200 105.2969440  22.3703700 101.4888460 104.3251210  21.6037030
 102.0053480 103.7138570  21.0785290 102.1385840 104.8279990  22.0948040
 105.4460970  88.9549900  23.0102520 104.6632760  89.4295400  23.2899280
 105.1523900  88.0504730  22.9015700 109.9982040  89.6573000  21.0551610
 110.4390130  89.6018100  20.2073210 109.7289630  90.5731010  21.1261790
 111.8620610  89.2888240  19.0660430 111.8009010  88.3449460  18.9191450
 112.6412640  89.3968330  19.6113890 103.3315190  91.3736650  18.5218550
 102.5189700  90.9993540  18.1814430 103.8356830  90.6181730  18.8239740
 107.8340170  88.0379100  19.7601620 108.4369540  88.6099310  20.2350140
 107.0933160  88.6018540  19.5375520 110.9774770  88.4400660  15.0341900
 111.1725400  89.3384110  15.3009330 110.1904640  88.2087740  15.5274850
  97.7736060 104.1213830  15.4734520  97.2483680 104.5021860  14.7696480
  97.6980640 104.7464600  16.1944230  99.1626530  89.7861430  14.0718210
  99.6919290  88.9991230  13.9426160  99.7954850  90.4652620  14.3053740
 101.3564370  89.5236570  17.1263600 100.7267110  88.8223880  17.2933730
 100.8169510  90.2840700  16.9096760 104.2956320 106.1375800  29.7974210
 105.2223630 105.9020070  29.8410170 104.2806750 106.9647800  29.3160240
 112.5301380 105.6801370  16.7948460 112.7053570 104.9939110  16.1509380
 111.8322950 106.2048420  16.4025130 101.4819930  88.8020550  29.5616090
 101.2004200  89.3054150  28.7976910 101.8639630  88.0042300  29.1958220
 100.3729030 106.0696210  14.3483770 101.1047850 105.7855490  13.8007660
 100.6322700 105.8309490  15.2383150  99.5343820 102.1860940  14.3530100
  98.9052700 102.6546040  14.9015930  99.6491650 101.3410160  14.7876290
 110.8633880 105.3645660  29.6215250 111.6559200 104.8694890  29.4141210
 111.1567030 106.0435800  30.2290860 105.1211580  98.0145620   2.3840570
 104.3453680  97.5346060   2.6739140 105.7724510  97.3351270   2.2096730
  99.1377410  98.3265430   3.2616330  98.3062290  98.0714140   3.6612840
  99.7458390  98.3976200   3.9974250  99.1178670 102.3605520   3.4574350
  99.4206710 101.4703260   3.2784570  99.8622260 102.9175740   3.2296600
  95.5102370  95.8872970   2.9298420  96.0818480  95.1195170   2.9302060
  95.5103910  96.1861730   2.0205030 104.5620570 100.6902810   2.3910730
 104.4928850  99.7492750   2.2299860 105.3240430 100.7804220   2.9633300
  96.7527240  91.2957330   4.7167350  96.5730080  90.3983080   4.9970110
  96.3507320  91.8429200   5.3914300 105.5925740  93.4973190   2.6179660
 105.9690560  92.6245070   2.5053330 105.4945250  93.8331890   1.7270100
  97.3713910  93.7917830   3.3249690  98.0524020  94.0556200   3.9437090
  97.0561960  92.9518700   3.6587700 101.5638480  94.8385190   2.4122280
 102.0716700  95.3366160   3.0527300 102.0951720  94.0620390   2.2361640
 113.6649410  93.0090380   6.1151630 112.9601580  93.3972090   5.5966740
 113.9307330  93.7040670   6.7172560  99.8474580  89.4783750   6.6785700
  99.8493020  89.9956140   5.8731600  99.0178890  89.0013930   6.6555630
 101.0977430  99.1178930   4.8559200 100.7646810  99.7447850   5.4980270
 101.2744110  99.6440810   4.0760870 109.6111340  92.9324010   2.3235540
 108.9066910  93.2208900   2.9038650 109.9723500  93.7424120   1.9635100
  99.5289910  91.1893710   4.6856150  99.8706720  92.0335760   4.3910020
  98.5905720  91.3377450   4.8021490 100.3096530 101.0859730   6.6708380
 100.9270530 101.7610810   6.3892830  99.4489650 101.4947710   6.5795880
 111.2274120 102.5499140   4.5863020 110.5437640 103.2198250   4.5779690
 111.7668410 102.7479790   3.8207880 112.6798260  92.3778800   2.7144750
 111.7323170  92.4117780   2.8460180 113.0048250  93.1917750   3.0994110
 108.7632860 104.3943270   3.3008200 108.7760020 103.9905560   2.4330460
 108.2108080 105.1690560   3.1969630 108.1618300  99.2973110   4.6290810
 108.5787090  99.0833220   3.7944270 108.8858120  99.5545900   5.1999430
 112.1080400  97.6960330   4.7207050 111.2799030  97.7653420   4.2457180
 112.7030880  98.2814640   4.2522880 109.0722410  94.4829650   5.6661920
 108.6593590  95.3083360   5.9201910 108.3398360  93.8974690   5.4738280
 101.6736900 100.9557110   2.6919800 101.3765190 100.3502580   2.0127580
 102.6236720 100.9934420   2.5809160  99.9183820  94.0432760   4.3079630
 100.4698410  94.1528100   3.5332880 100.4327330  94.4170360   5.0234860
 109.7622510 104.5288980   6.3542900 109.2853070 105.3361170   6.1615510
 109.0784300 103.8767310   6.5069110 100.7655330 100.6938800   9.3427600
  99.8683860 100.9178770   9.5901000 100.7908200 100.8173740   8.3939000
  99.5926550  97.5652120   7.9184970  99.4534320  98.4374920   8.2872370
  98.7107910  97.2224930   7.7732910 101.3906900 103.5073820  10.1270120
 101.3622330 103.9116770   9.2598550 101.2271870 102.5784180   9.9641720
 113.3421720 104.2900920  11.4234290 113.8181440 104.7683810  12.1023370
 113.9628880 104.2218410  10.6979790  95.5445200  99.3349670   3.8355880
  95.6225620  99.4698440   2.8911600  96.1586880  98.6265560   4.0284000
 112.7454970 101.4813770   8.5834300 112.8718030 101.2425650   7.6651480
 112.7876350 100.6498310   9.0556380 106.6071710 105.1841770   7.1529110
 107.1216380 105.0949780   7.9551540 105.7640790 105.5301470   7.4457020
 112.5978980  93.5346230   9.5484040 111.9823250  94.0425900   9.0199500
 112.2775400  92.6344560   9.4909980  95.6004720 100.3763840   6.3750340
  95.7635760  99.9069200   5.5569710  96.0657170  99.8687400   7.0399180
 104.6593300  92.3738120   7.0146230 104.1972670  92.5821140   7.8266170
 104.2571410  91.5597470   6.7116900 109.6597810  93.5947070   8.1442890
 108.8091400  93.2952820   8.4651960 109.4999600  93.8389080   7.2326710
 106.7547520  95.0948820  10.2441680 107.0800930  94.2612570   9.9043910
 107.5427850  95.6177340  10.3920010 102.4099390  90.0516930   3.2700510
 102.7071720  90.9579760   3.1892530 102.9584950  89.5635710   2.6560080
 102.6036920  95.5288750   9.8052430 102.5080520  94.5883480   9.6552830
 103.4468900  95.7503820   9.4100500  97.7347460  91.9402420   7.9586210
  97.3410850  92.7877630   8.1658990  97.0465860  91.3028790   8.1494850
 104.3092510  92.0237390  11.0282950 103.6190830  91.8309590  11.6629040
 105.0524810  92.3072030  11.5607250  95.0364510  89.8630880   1.9916290
  94.7477560  90.4333740   2.7041270  95.7810270  89.3835330   2.3547520
 106.5855480  95.8635830   3.8636870 105.8536600  96.3722640   4.2126970
 106.1879820  95.0465810   3.5625650 103.0232870  92.5390030   2.2689360
 103.0268930  92.0979980   1.4193900 103.9183990  92.8607360   2.3761180
 107.0481390  91.3169510   3.2759810 107.0654130  91.7678160   4.1201660
 106.7996970  90.4175150   3.4893250 110.4752140  88.7301690   9.1146190
 110.7997910  87.9991350   9.6404170 110.5108650  88.4115330   8.2127180
  97.1743700  99.7515270   8.5346150  96.7898490  99.1108940   9.1329110
  97.4855890 100.4551390   9.1040880 103.3240840  96.5991810   4.0154770
 103.6910970  96.1250380   4.7616110 103.1345900  97.4733380   4.3563110
 101.1140210  95.6400450   6.3338980 100.8097280  96.5192430   6.5589340
 102.0686670  95.7000240   6.3696420 110.4009980  98.8426800   2.7232220
 111.1209100  99.3382090   2.3328330 110.1991800  98.1644690   2.0786090
 105.7828780  98.9135860   8.6101220 105.7166090  97.9931530   8.3558810
 105.1533920  99.0111300   9.3245860  97.1703940  96.4803190   7.4810340
  96.8118880  97.1457040   8.0683680  96.8758500  95.6486740   7.8522960
 100.3717060  96.9387430  10.3649890 100.0717200  97.0844610   9.4677710
 101.1428300  96.3792720  10.2723280 105.7145510 101.7356430   8.3605020
 105.7290050 100.8037390   8.1423930 105.0070610 101.8216190   8.9994790
 111.9256720  98.3763770   7.7073600 111.2004910  98.9692550   7.5102990
 112.4532180  98.3687310   6.9086970 105.1479410 103.3774000   5.4545520
 105.7921630 103.5833380   6.1318940 105.5108850 102.6162400   5.0016370
 106.4211490 101.3806350   4.1722970 107.0633720 100.6799510   4.2855140
 106.9460840 102.1604790   3.9919860 108.1949110 102.1801250   7.3759030
 108.5305350 102.7667940   8.0536950 107.2749450 102.0493960   7.6056820
  95.7452510  89.9696430   8.1582440  95.0311030  90.1693350   8.7635050
  96.1647550  89.1936000   8.5297240  96.0325100 103.9576690   9.1448970
  96.1416220 103.0171430   9.0044360  95.3805660 104.2231440   8.4962700
 104.0237690 102.2292580  10.5447090 103.7034560 101.5101820  11.0892780
 103.3496050 102.9047650  10.6183150 107.2391290  92.4618740   5.9083890
 107.6072110  91.6413950   6.2363460 106.3789490  92.5220630   6.3239540
 104.1993280  95.1158330   6.1321860 104.6978530  95.5904150   6.7973710
 104.3416230  94.1921850   6.3391890 111.4060140  91.3326290   6.9750250
 110.9033740  92.0731690   7.3144060 112.2216800  91.7210290   6.6587040
 111.7007730 103.7468320   2.0965870 111.8255150 104.5699490   2.5689680
 112.5673290 103.5359050   1.7490020  99.1725260 105.8399530   1.7683000
  99.9087740 105.2914990   2.0391570  99.5566180 106.7055540   1.6288990
  98.1783540 105.0245600  10.9568580  98.9796270 105.3457650  11.3703980
  97.6635360 104.6641180  11.6788490 107.0148170 101.1325470  10.9043990
 106.4086330 101.1557070  10.1639740 106.7102280 100.4008510  11.4411240
 108.4448540 104.8605760   9.5153400 109.3970290 104.7763780   9.4653640
 108.2976760 105.5247470  10.1887190  95.8981350  97.5119060   9.9004630
  96.4020370  96.9326340  10.4720860  95.1588770  97.7959290  10.4381000
 102.9519290  98.9190050   9.4340150 102.1864960  99.4875050   9.3494820
 103.1335250  98.6266260   8.5408380 110.0942640 100.6495380   9.9915170
 110.8352110 100.9871140   9.4882630 109.3315320 100.8187440   9.4384940
  97.9304430  95.6548650  10.7954700  97.9709770  95.3562520  11.7039930
  98.7849930  96.0556260  10.6362220  99.8710240  94.2340750   8.7629190
  99.3406700  93.7431700   8.1352530 100.5398310  94.6624950   8.2287120
 108.7688300  98.7010210   8.5270380 109.1829320  98.8555290   9.3760800
 107.8339300  98.8265430   8.6896160 109.2410470  96.0406370  10.5309530
 109.8231240  95.2858690  10.4430010 109.4172240  96.5713810   9.7541010
 100.3582540  91.2003120   8.8426480 100.2639410  90.5823870   8.1177350
  99.7779930  91.9269410   8.6156390 103.1243980  89.7576360   5.8753870
 102.6761280  89.7800620   5.0299420 102.4909180  89.3595380   6.4724170
 103.5303530  98.6530690   6.4966310 103.9491640  99.4963420   6.3242550
 102.6112160  98.7902730   6.2673090 105.8667430  96.3846870   7.8804150
 105.9863640  95.7888010   8.6198990 106.7261430  96.4216560   7.4605450
 108.2055330  96.9384060   6.4566660 107.6790550  97.4626680   5.8531800
 108.5486670  97.5711450   7.0876390 101.3810950 104.9583700   7.6124040
 100.8432040 105.6829760   7.2932740 101.6344910 104.4814040   6.8221380
 102.6336200  92.9268220   9.1379970 103.2235890  92.6184070   9.8257790
 101.8156440  92.4547970   9.2939870 107.4529630  92.5434030   9.3712990
 106.7645150  91.8815570   9.3062980 108.1735650  92.0972300   9.8161450
 104.2373160 106.1934910   7.8710690 104.1631860 107.0970050   8.1783060
 103.3352000 105.8746810   7.8432760  96.1290660 104.3880090   3.9125940
  95.6921650 104.5680890   4.7450090  96.6968340 105.1454710   3.7707660
 111.7652840 103.8897090   8.2003250 111.1654830 103.9489650   7.4567170
 111.8946740 102.9502070   8.3300100 110.4504480 100.6149070   6.2979410
 109.6364320 101.0446230   6.5605200 110.8578680 101.2267480   5.6848460
  96.9991020  97.2852890   4.8118160  97.3664060  97.1980290   5.6914180
  96.4301840  96.5219440   4.7125020 111.7994880  95.7537270   7.8248630
 111.5680970  95.5250020   6.9246580 112.0599430  96.6736820   7.7793520
  96.5507020  94.1961980   8.7176580  95.6563070  94.1628740   9.0570290
  97.0904570  94.3948770   9.4827830 110.2382950  90.9793700  10.6028330
 111.1153130  90.9877100  10.9862330 110.2503790  90.2424540   9.9920680
 111.8635940  94.9163110   5.0135900 110.9138650  94.8826650   5.1280890
 112.0448950  95.8263220   4.7785670  97.0546730  88.4710310   3.0659800
  97.7022920  87.9207690   2.6254960  97.4748570  88.7253460   3.8875610
 110.9499070  88.6651670   6.4229440 111.5871290  89.2785810   6.7888630
 111.0973960  88.7012330   5.4778670  96.8078730  88.6265980   5.8085120
  96.4593550  89.0829800   6.5743300  96.4766430  87.7323110   5.8907550
  98.4143100 101.7985580   9.9738310  98.3712730 101.4278490  10.8552770
  98.5454110 102.7363150  10.1140130 102.1149130 103.3545170   5.5748030
 101.8740490 103.6219730   4.6878550 103.0551770 103.5250900   5.6298890
 104.3203550  89.8177860   9.3304540 104.2592440  90.4099690  10.0799950
 105.2603930  89.7103820   9.1854800 106.9578110  89.4747920   8.9696830
 107.5718520  89.7927210   8.3077910 107.5027670  88.9896510   9.5892690
 113.3753290 105.3739550   6.3758670 112.8811570 105.7708420   5.6585800
 112.7666580 104.7488760   6.7695950  97.4799370  88.1542180   9.0835890
  98.0282360  87.9730230   8.3202000  97.5454680  87.3636290   9.6192200
  98.2531130 104.7447830   7.0936090  97.6591450 104.6132530   7.8326130
  98.2454970 103.9085970   6.6278190 107.6986150  88.0380060   5.2966120
 106.8245990  88.3715170   5.0939050 107.5896900  87.5653240   6.1217990
 108.6058130  90.2450930   6.6807840 108.2771490  89.4302690   6.3009570
 109.5540430  90.2020740   6.5573530 111.0592740 106.0162970   3.6545410
 110.5995710 106.7678780   3.2803430 110.4305200 105.2969440   3.5960210
  97.8843360 102.1106210   6.0444130  97.1577420 101.4911500   5.9770080
  97.9452510 102.5046820   5.1742210 101.4888460 104.3251210   2.8293540
 102.0053480 103.7138570   2.3041800 102.1385840 104.8279990   3.3204550
 104.2283960 105.2159700   3.6562520 104.5161770 104.9614000   2.7795530
 104.7407180 104.6637060   4.2468090 105.4460970  88.9549900   4.2359030
 104.6632760  89.4295400   4.5155790 105.1523900  88.0504730   4.1272210
 109.9982040  89.6573000   2.2808120 110.4390130  89.6018100   1.4329720
 109.7289630  90.5731010   2.3518300 104.2956320 106.1375800  11.0230720
 105.2223630 105.9020070  11.0666680 104.2806750 106.9647800  10.5416750
 101.4819930  88.8020550  10.7872600 101.2004200  89.3054150  10.0233420
 101.8639630  88.0042300  10.4214730 108.0835390  88.2174130  11.3653070
 107.9700840  88.5368740  12.2604590 108.9005130  88.6186640  11.0690350
 110.8633880 105.3645660  10.8471760 111.6559200 104.8694890  10.6397720
 111.1567030 106.0435800  11.4547370 106.9893540  77.4623110 150.6979220
 106.9087590  76.5477720 150.4270930 106.5757960  77.9590180 149.9918930
 105.1211580  79.2402130 152.5788490 104.3453680  78.7602570 152.8687060
 105.7724510  78.5607780 152.4044650 109.1419010  83.6462320 151.3587620
 108.6800540  82.8749560 151.6874790 109.9544560  83.6728390 151.8640070
  97.5469360  74.5123830 147.2406640  96.6586060  74.8539800 147.1386520
  97.8310550  74.3124150 146.3487470  95.5102370  77.1129480 153.1246340
  96.0818480  76.3451680 153.1249980  95.5103910  77.4118240 152.2152950
 105.3682320  85.9320330 150.9791610 104.7493760  86.3877830 150.4086050
 106.2234100  86.0871790 150.5781310 104.5620570  81.9159320 152.5858650
 104.4928850  80.9749260 152.4247780 105.3240430  82.0060730 153.1581220
 105.5925740  74.7229700 152.8127580 105.9690560  73.8501580 152.7001250
 105.4945250  75.0588400 151.9218020  99.7230750  73.0955330 148.2745020
  99.8297500  73.9959060 148.5813780  98.8123110  73.0473300 147.9839670
 109.3749860  72.2180140 149.7455920 110.1959480  71.7276710 149.7881400
 109.4083940  72.8077800 150.4987760 106.2345670  80.8159570 148.3723520
 105.6162940  81.2809020 147.8086240 106.7468920  81.5087050 148.7893030
 109.6111340  74.1580520 152.5183460 108.9066910  74.4465410 153.0986570
 109.9723500  74.9680630 152.1583020  95.6028870  81.5016100 145.7463150
  95.2256850  81.9903200 145.0148050  95.8601940  82.1741380 146.3769680
 103.2117800  69.9032490 151.2048660 103.5192780  69.3479380 150.4884160
 102.2818500  70.0376950 151.0221650 110.0578280  82.3416000 148.5846290
 109.9474610  81.3990330 148.7095710 110.0546530  82.7031640 149.4709050
 105.5998560  77.9681320 147.9408780 104.6727840  77.9018700 148.1697250
 105.7523380  78.9061450 147.8264020 105.5867640  74.2398320 144.9375940
 104.6471310  74.4012280 145.0228400 105.9050900  74.9584000 144.3911930
 109.6295850  79.5301620 148.4444030 109.0108270  79.1921170 147.7970330
 109.6120300  78.8861380 149.1523220 101.2055200  78.4946060 150.7228510
 100.8012200  77.7823310 150.2274410 101.2918320  78.1499300 151.6116550
 101.6736900  82.1813620 152.8867720 101.3765190  81.5759090 152.2075500
 102.6236720  82.2190930 152.7757080 107.8060550  78.7688430 145.4516780
 108.2453830  77.9310860 145.3054600 108.5188970  79.4017830 145.5380920
 105.9155930  83.7084500 149.4198020 106.3551840  84.4508830 149.0053410
 105.8542820  83.9511070 150.3436980 111.3877690  70.0231240 143.7657820
 111.0750350  70.1158070 144.6656890 112.1490160  70.6012270 143.7155250
  97.9059830  77.3891040 148.2235160  97.7857430  78.1153130 147.6116430
  97.5960720  76.6193950 147.7463070  96.7892830  82.2606370 150.4409980
  96.3820910  82.4020960 149.5863580  97.6805840  81.9766530 150.2381190
 108.5826110  86.6953620 146.7761030 108.4227250  86.4056560 147.6742860
 108.4172820  85.9193750 146.2406260 101.0614490  86.4752150 148.5532650
 100.8856970  85.5587690 148.3400450 100.2070230  86.8339440 148.7930450
 108.2852240  84.2041180 145.3359030 107.5917400  84.2018470 144.6761310
 109.0275100  83.7800500 144.9053200 107.8502170  85.8303890 149.4107520
 108.3059120  85.0493270 149.7246140 108.1894690  86.5410710 149.9548700
 100.3723490  70.7326110 151.6058830  99.9291640  71.5135650 151.2743350
 100.9308480  71.0556000 152.3129770 103.4882310  70.3536810 146.4864660
 102.8636490  70.3496680 147.2117970 103.4012430  69.4867770 146.0900630
 100.1637710  75.8559680 149.3340080  99.9378630  75.6396850 150.2386700
  99.3830240  76.2888140 148.9886050 107.3935470  75.8623050 147.9330730
 106.7944360  76.5858850 147.7494350 107.9415080  75.7999830 147.1507180
 106.0000340  74.4986590 149.9634010 106.3929910  74.8158790 149.1502700
 106.3617190  73.6198470 150.0778530  95.0364510  71.0887390 152.1864210
  94.7477560  71.6590250 152.8989190  95.7810270  70.6091840 152.5495440
  95.2234740  75.0307510 143.3966930  95.1409410  75.9738270 143.5381920
  94.8717800  74.8882420 142.5179280 103.0232870  73.7646540 152.4637280
 103.0268930  73.3236490 151.6141820 103.9183990  74.0863870 152.5709100
  98.8735250  73.6473030 151.4231490  98.5335300  74.1248260 152.1798540
  98.1112570  73.1938150 151.0632590 103.0853020  74.7658620 145.4544040
 103.2065840  74.7245100 146.4029860 102.7001530  75.6282770 145.2990770
 102.0974520  77.0759760 144.8527340 101.5291420  76.6278010 144.2263250
 102.8063520  77.4352540 144.3192490  96.1881330  72.5692010 150.3396160
  95.9028250  72.2047680 151.1774780  96.1260190  71.8372470 149.7259300
  99.6422000  81.0717950 147.1253750  98.8684260  80.5315570 146.9652470
 100.3716630  80.5524560 146.7871510 110.4009980  80.0683310 152.9180140
 111.1209100  80.5638600 152.5276250 110.1991800  79.3901200 152.2734010
 105.8619920  71.4621270 147.0609530 105.0484530  70.9634440 146.9854840
 105.6681870  72.3019520 146.6445880 108.5768310  75.8340920 145.3571690
 109.4647930  76.1458150 145.1823030 108.5473400  74.9613170 144.9652270
  99.6859400  80.7398330 150.7632560 100.2038070  79.9366590 150.7089450
  99.2343420  80.6777470 151.6049390 104.5728900  82.0064610 146.0359860
 104.9144600  82.7506840 145.5403180 103.7441610  82.3195730 146.3984690
 110.8482580  77.1452760 144.8251550 110.7646300  77.5766980 143.9747990
 111.5676770  77.6051110 145.2578370 111.8769830  83.9995020 147.5533680
 111.2345990  83.3450640 147.8277400 111.4900490  84.4050110 146.7774350
 107.4556310  81.3280450 151.4005370 107.8080130  80.7308580 150.7406740
 106.5718640  81.0024680 151.5713620 103.5419590  82.0878140 148.8075780
 104.2290720  82.6347350 149.1883370 102.7552010  82.6318870 148.8425390
  95.6811990  77.7050960 144.2992860  96.5506840  77.9875760 144.5828780
  95.1902310  78.5186830 144.1841670 102.8446800  79.0924170 148.4201140
 103.3009580  79.9029420 148.6461330 102.4935010  78.7747310 149.2519630
  98.7458580  69.4361820 148.8923660  98.6173210  69.4279720 149.8408580
  97.9220600  69.7744910 148.5414670 110.2667210  82.8911480 144.0910030
 110.0404790  82.1741920 144.6834670 109.8763410  82.6423920 143.2531780
  96.0483240  86.9178340 144.8654490  96.4080880  87.5167680 144.2111760
  95.9075580  87.4638230 145.6389520 109.8483460  80.8083420 145.7524190
 109.5605160  81.2696110 146.5402070 110.6435630  80.3481190 146.0208410
 102.0651860  84.3009540 145.6828160 102.0561960  85.0339230 145.0672670
 101.1450220  84.0541120 145.7755120  97.6658500  79.5224430 146.4274920
  97.0586450  80.2623330 146.4370220  98.1407850  79.6123790 145.6013120
 110.6053320  72.6432190 146.9119370 109.9766480  72.7477860 146.1977600
 110.1105240  72.8628970 147.7013250 105.0511460  84.3637780 144.3453350
 105.1523440  84.1601770 143.4155330 104.1513200  84.1096060 144.5501130
 102.5737350  74.9218140 148.3277250 101.8653500  75.3904480 148.7690860
 102.8581830  74.2640150 148.9622440 106.6052780  71.6468800 149.7673040
 106.4820560  71.6654930 148.8182550 107.5537340  71.6947740 149.8871440
 103.6929570  86.8824100 149.0401020 103.9471070  86.8445490 148.1180390
 102.7442050  86.7557430 149.0329270 100.7772370  73.2303220 145.7027960
 101.6262900  73.6673370 145.6368150 100.4103640  73.5423480 146.5300020
 109.6982150  77.8015980 150.6159530 108.7572290  77.8166210 150.7907220
 110.0126220  77.0151940 151.0619830  99.6763790  79.4835580 144.1763490
 100.4427060  79.3716940 144.7388920  99.7538480  78.7873550 143.5240260
  98.3710550  76.9160650 144.8596380  98.4514140  75.9688160 144.9713780
  99.2630300  77.2467530 144.9657040 111.7007730  84.9724830 152.2913790
 111.8255150  85.7956000 152.7637600 112.5673290  84.7615560 151.9437940
  99.1725260  87.0656040 151.9630920  99.9087740  86.5171500 152.2339490
  99.5566180  87.9312050 151.8236910  96.0570740  83.1329610 147.8372430
  95.1310520  83.3750750 147.8277840  96.5227170  83.9603870 147.7157180
 102.2827570  86.2386350 143.7856490 103.0756180  86.5275180 143.3338280
 101.7631920  85.8078520 143.1068970 111.3357740  85.4656480 145.2093230
 111.0499250  85.0521620 144.3947410 111.1377290  86.3944190 145.0893750
 102.8004970  81.4589760 143.6498840 102.6955610  80.8442110 144.3760220
 102.6329190  80.9355650 142.8661850 106.0407700  80.5209790 144.2540830
 105.4917800  80.9679090 144.8983570 106.6626960  80.0159040 144.7778500
 101.7082820  79.4800710 146.1506130 102.1299240  79.3140580 146.9937520
 101.8333660  78.6700940 145.6561270 104.2210460  78.5038320 143.3983230
 104.7416120  77.7887340 143.0324380 104.8678860  79.1424190 143.6983740
 100.6041720  75.5533940 143.0964290 100.4030780  74.6901300 143.4577630
 100.4333770  75.4667300 142.1585890 108.0830030  70.3642170 145.6251170
 108.3632320  69.5210070 145.9810590 107.3095760  70.5965280 146.1389920
  99.4024520  72.6534560 143.0842170  99.7050420  72.6601990 142.1761320
 100.1419110  72.3032420 143.5809830 102.6209450  71.5969180 144.0698370
 102.2731450  70.9193170 143.4900820 102.8222220  71.1358690 144.8841760
 104.7858490  86.5849930 145.6884970 105.6809280  86.9234900 145.7103730
 104.8176120  85.8629340 145.0609250  98.4254650  81.9576980 143.9171970
  98.8629520  82.5006650 144.5729550  98.9102380  81.1323930 143.9268310
  95.6400450  84.7466010 151.3692230  95.9703460  83.8787070 151.1370870
  96.0691450  84.9524530 152.1997190 100.2362370  83.0775020 149.0294200
  99.9357910  82.9539990 149.9298110 100.1299860  82.2183610 148.6209930
 113.0054290  82.8571420 143.7320880 112.1747250  82.9248070 144.2028110
 113.1826120  83.7475540 143.4287740 112.4610750  79.6018900 146.2355080
 113.2229660  80.1715550 146.3414770 112.4765120  79.0346100 147.0063390
  95.9615090  78.1256830 150.4662740  95.3063930  77.8568470 149.8222440
  96.7993040  78.0161310 150.0164720 113.4670720  80.4569000 151.0797010
 113.8379550  79.6736320 150.6732980 114.1072650  81.1458100 150.9014310
 112.5129920  79.8953270 143.3927600 112.7878760  80.8032150 143.2646820
 112.3240660  79.8315800 144.3289590 108.9105530  72.9198120 144.6881230
 109.3290410  72.7329100 143.8477890 108.6041590  72.0677170 144.9984160
 112.4095260  77.8322260 148.3857030 112.0338860  77.0650190 147.9538320
 111.6798380  78.2144960 148.8731960  95.1753170  75.3355760 146.4088070
  94.2717250  75.5985960 146.2339730  95.6593790  75.6066930 145.6288030
 111.6846220  76.0579750 151.6864270 112.2083700  75.5642400 151.0554440
 112.2705640  76.1930110 152.4311840  97.7180380  74.3921300 144.3182450
  98.4272080  73.9704520 143.8329730  97.0020320  74.4596530 143.6865800
  97.3654540  70.4460630 143.3585100  98.0882670  70.9869570 143.6766320
  97.6379060  70.1724050 142.4826640 111.1746190  75.3153100 147.6256680
 111.6705310  75.0823970 148.4105560 110.9762260  74.4764940 147.2094320
 112.6033350  73.9514050 150.1594360 112.4932630  73.7970090 151.0976630
 113.3640940  73.4234990 149.9169770 113.4923620  71.7821970 143.4000500
 114.4172930  71.6503150 143.1918790 113.4699410  71.8614790 144.3536950
 113.5662110  72.5532630 146.0257210 112.7713610  72.4877750 146.5550120
 113.7705390  73.4883270 146.0142560 110.5080530  86.5924180 150.0195600
 111.1039600  86.2708750 149.3430020 110.7658680  86.1196000 150.8108870
 109.9982040  70.8829510 152.4756040 110.4390130  70.8274610 151.6277640
 109.7289630  71.7987520 152.5466220 111.8620610  70.5144750 150.4864860
 111.8009010  69.5705970 150.3395880 112.6412640  70.6224840 151.0318320
  96.1673360  86.6537110 149.4488810  95.9995400  86.0207790 150.1470700
  95.3007870  86.8596510 149.0983000  96.7901380  70.4853890 146.9520670
  97.5480740  70.5982770 146.3784700  96.3278550  71.3223090 146.9064100
 103.3315190  72.5993160 149.9422980 102.5189700  72.2250050 149.6018860
 103.8356830  71.8438240 150.2444170 107.8340170  69.2635610 151.1806050
 108.4369540  69.8355820 151.6554570 107.0933160  69.8275050 150.9579950
 110.9774770  69.6657170 146.4546330 111.1725400  70.5640620 146.7213760
 110.1904640  69.4344250 146.9479280  97.7736060  85.3470340 146.8938950
  97.2483680  85.7278370 146.1900910  97.6980640  85.9721110 147.6148660
  99.1626530  71.0117940 145.4922640  99.6919290  70.2247740 145.3630590
  99.7954850  71.6909130 145.7258170 101.3564370  70.7493080 148.5468030
 100.7267110  70.0480390 148.7138160 100.8169510  71.5097210 148.3301190
 112.5301380  86.9057880 148.2152890 112.7053570  86.2195620 147.5713810
 111.8322950  87.4304930 147.8229560 100.3729030  87.2952720 145.7688200
 101.1047850  87.0112000 145.2212090 100.6322700  87.0566000 146.6587580
  99.5343820  83.4117450 145.7734530  98.9052700  83.8802550 146.3220360
  99.6491650  82.5666670 146.2080720 106.9893540  77.4623110 131.9235730
 106.9087590  76.5477720 131.6527440 106.5757960  77.9590180 131.2175440
 105.1211580  79.2402130 133.8045000 104.3453680  78.7602570 134.0943570
 105.7724510  78.5607780 133.6301160 109.1419010  83.6462320 132.5844130
 108.6800540  82.8749560 132.9131300 109.9544560  83.6728390 133.0896580
  97.5469360  74.5123830 128.4663150  96.6586060  74.8539800 128.3643030
  97.8310550  74.3124150 127.5743980  95.5102370  77.1129480 134.3502850
  96.0818480  76.3451680 134.3506490  95.5103910  77.4118240 133.4409460
 105.3682320  85.9320330 132.2048120 104.7493760  86.3877830 131.6342560
 106.2234100  86.0871790 131.8037820 104.5620570  81.9159320 133.8115160
 104.4928850  80.9749260 133.6504290 105.3240430  82.0060730 134.3837730
  96.7527240  72.5213840 136.1371780  96.5730080  71.6239590 136.4174540
  96.3507320  73.0685710 136.8118730 105.5925740  74.7229700 134.0384090
 105.9690560  73.8501580 133.9257760 105.4945250  75.0588400 133.1474530
  99.7230750  73.0955330 129.5001530  99.8297500  73.9959060 129.8070290
  98.8123110  73.0473300 129.2096180  97.3713910  75.0174340 134.7454120
  98.0524020  75.2812710 135.3641520  97.0561960  74.1775210 135.0792130
 113.6649410  74.2346890 137.5356060 112.9601580  74.6228600 137.0171170
 113.9307330  74.9297180 138.1376990  99.8474580  70.7040260 138.0990130
  99.8493020  71.2212650 137.2936030  99.0178890  70.2270440 138.0760060
 106.2345670  80.8159570 129.5980030 105.6162940  81.2809020 129.0342750
 106.7468920  81.5087050 130.0149540 109.6111340  74.1580520 133.7439970
 108.9066910  74.4465410 134.3243080 109.9723500  74.9680630 133.3839530
 111.2274120  83.7755650 136.0067450 110.5437640  84.4454760 135.9984120
 111.7668410  83.9736300 135.2412310 112.6798260  73.6035310 134.1349180
 111.7323170  73.6374290 134.2664610 113.0048250  74.4174260 134.5198540
 103.2117800  69.9032490 132.4305170 103.5192780  69.3479380 131.7140670
 102.2818500  70.0376950 132.2478160 108.7632860  85.6199780 134.7212630
 108.7760020  85.2162070 133.8534890 108.2108080  86.3947070 134.6174060
 110.0578280  82.3416000 129.8102800 109.9474610  81.3990330 129.9352220
 110.0546530  82.7031640 130.6965560 108.1618300  80.5229620 136.0495240
 108.5787090  80.3089730 135.2148700 108.8858120  80.7802410 136.6203860
 105.5998560  77.9681320 129.1665290 104.6727840  77.9018700 129.3953760
 105.7523380  78.9061450 129.0520530 112.1080400  78.9216840 136.1411480
 111.2799030  78.9909930 135.6661610 112.7030880  79.5071150 135.6727310
 109.6295850  79.5301620 129.6700540 109.0108270  79.1921170 129.0226840
 109.6120300  78.8861380 130.3779730 109.0722410  75.7086160 137.0866350
 108.6593590  76.5339870 137.3406340 108.3398360  75.1231200 136.8942710
 101.2055200  78.4946060 131.9485020 100.8012200  77.7823310 131.4530920
 101.2918320  78.1499300 132.8373060 109.7622510  85.7545490 137.7747330
 109.2853070  86.5617680 137.5819940 109.0784300  85.1023820 137.9273540
 107.8060550  78.7688430 126.6773290 108.2453830  77.9310860 126.5311110
 108.5188970  79.4017830 126.7637430 105.9155930  83.7084500 130.6454530
 106.3551840  84.4508830 130.2309920 105.8542820  83.9511070 131.5693490
 101.3906900  84.7330330 141.5474550 101.3622330  85.1373280 140.6802980
 101.2271870  83.8040690 141.3846150  97.9059830  77.3891040 129.4491670
  97.7857430  78.1153130 128.8372940  97.5960720  76.6193950 128.9719580
 113.3421720  85.5157430 142.8438720 113.8181440  85.9940320 143.5227800
 113.9628880  85.4474920 142.1184220 112.7454970  82.7070280 140.0038730
 112.8718030  82.4682160 139.0855910 112.7876350  81.8754820 140.4760810
 106.6071710  86.4098280 138.5733540 107.1216380  86.3206290 139.3755970
 105.7640790  86.7557980 138.8661450 108.5826110  86.6953620 128.0017540
 108.4227250  86.4056560 128.8999370 108.4172820  85.9193750 127.4662770
 101.0614490  86.4752150 129.7789160 100.8856970  85.5587690 129.5656960
 100.2070230  86.8339440 130.0186960 108.2852240  84.2041180 126.5615540
 107.5917400  84.2018470 125.9017820 109.0275100  83.7800500 126.1309710
 107.8502170  85.8303890 130.6364030 108.3059120  85.0493270 130.9502650
 108.1894690  86.5410710 131.1805210 112.5978980  74.7602740 140.9688470
 111.9823250  75.2682410 140.4403930 112.2775400  73.8601070 140.9114410
 100.3723490  70.7326110 132.8315340  99.9291640  71.5135650 132.4999860
 100.9308480  71.0556000 133.5386280 104.6593300  73.5994630 138.4350660
 104.1972670  73.8077650 139.2470600 104.2571410  72.7853980 138.1321330
 109.6597810  74.8203580 139.5647320 108.8091400  74.5209330 139.8856390
 109.4999600  75.0645590 138.6531140 106.7547520  76.3205330 141.6646110
 107.0800930  75.4869080 141.3248340 107.5427850  76.8433850 141.8124440
 102.4099390  71.2773440 134.6904940 102.7071720  72.1836270 134.6096960
 102.9584950  70.7892220 134.0764510 100.1637710  75.8559680 130.5596590
  99.9378630  75.6396850 131.4643210  99.3830240  76.2888140 130.2142560
 107.3935470  75.8623050 129.1587240 106.7944360  76.5858850 128.9750860
 107.9415080  75.7999830 128.3763690 102.6036920  76.7545260 141.2256860
 102.5080520  75.8139990 141.0757260 103.4468900  76.9760330 140.8304930
 106.0000340  74.4986590 131.1890520 106.3929910  74.8158790 130.3759210
 106.3617190  73.6198470 131.3035040  97.7347460  73.1658930 139.3790640
  97.3410850  74.0134140 139.5863420  97.0465860  72.5285300 139.5699280
 104.3092510  73.2493900 142.4487380 103.6190830  73.0566100 143.0833470
 105.0524810  73.5328540 142.9811680  95.0364510  71.0887390 133.4120720
  94.7477560  71.6590250 134.1245700  95.7810270  70.6091840 133.7751950
  95.2234740  75.0307510 124.6223440  95.1409410  75.9738270 124.7638430
  94.8717800  74.8882420 123.7435790 106.5855480  77.0892340 135.2841300
 105.8536600  77.5979150 135.6331400 106.1879820  76.2722320 134.9830080
 107.0481390  72.5426020 134.6964240 107.0654130  72.9934670 135.5406090
 106.7996970  71.6431660 134.9097680 102.0974520  77.0759760 126.0783850
 101.5291420  76.6278010 125.4519760 102.8063520  77.4352540 125.5449000
 110.4752140  69.9558200 140.5350620 110.7997910  69.2247860 141.0608600
 110.5108650  69.6371840 139.6331610 103.3240840  77.8248320 135.4359200
 103.6910970  77.3506890 136.1820540 103.1345900  78.6989890 135.7767540
  96.1881330  72.5692010 131.5652670  95.9028250  72.2047680 132.4031290
  96.1260190  71.8372470 130.9515810 101.1140210  76.8656960 137.7543410
 100.8097280  77.7448940 137.9793770 102.0686670  76.9256750 137.7900850
  99.6422000  81.0717950 128.3510260  98.8684260  80.5315570 128.1908980
 100.3716630  80.5524560 128.0128020 110.4009980  80.0683310 134.1436650
 111.1209100  80.5638600 133.7532760 110.1991800  79.3901200 133.4990520
 105.7828780  80.1392370 140.0305650 105.7166090  79.2188040 139.7763240
 105.1533920  80.2367810 140.7450290 108.5768310  75.8340920 126.5828200
 109.4647930  76.1458150 126.4079540 108.5473400  74.9613170 126.1908780
  97.1703940  77.7059700 138.9014770  96.8118880  78.3713550 139.4888110
  96.8758500  76.8743250 139.2727390 100.3717060  78.1643940 141.7854320
 100.0717200  78.3101120 140.8882140 101.1428300  77.6049230 141.6927710
 105.7145510  82.9612940 139.7809450 105.7290050  82.0293900 139.5628360
 105.0070610  83.0472700 140.4199220 110.8482580  77.1452760 126.0508060
 110.7646300  77.5766980 125.2004500 111.5676770  77.6051110 126.4834880
 111.9256720  79.6020280 139.1278030 111.2004910  80.1949060 138.9307420
 112.4532180  79.5943820 138.3291400 111.8769830  83.9995020 128.7790190
 111.2345990  83.3450640 129.0533910 111.4900490  84.4050110 128.0030860
 107.4556310  81.3280450 132.6261880 107.8080130  80.7308580 131.9663250
 106.5718640  81.0024680 132.7970130 103.5419590  82.0878140 130.0332290
 104.2290720  82.6347350 130.4139880 102.7552010  82.6318870 130.0681900
 102.8446800  79.0924170 129.6457650 103.3009580  79.9029420 129.8717840
 102.4935010  78.7747310 130.4776140 105.1479410  84.6030510 136.8749950
 105.7921630  84.8089890 137.5523370 105.5108850  83.8418910 136.4220800
  98.7458580  69.4361820 130.1180170  98.6173210  69.4279720 131.0665090
  97.9220600  69.7744910 129.7671180 106.4211490  82.6062860 135.5927400
 107.0633720  81.9056020 135.7059570 106.9460840  83.3861300 135.4124290
 110.2667210  82.8911480 125.3166540 110.0404790  82.1741920 125.9091180
 109.8763410  82.6423920 124.4788290 108.1949110  83.4057760 138.7963460
 108.5305350  83.9924450 139.4741380 107.2749450  83.2750470 139.0261250
  95.7452510  71.1952940 139.5786870  95.0311030  71.3949860 140.1839480
  96.1647550  70.4192510 139.9501670 109.8483460  80.8083420 126.9780700
 109.5605160  81.2696110 127.7658580 110.6435630  80.3481190 127.2464920
 104.0237690  83.4549090 141.9651520 103.7034560  82.7358330 142.5097210
 103.3496050  84.1304160 142.0387580  97.6658500  79.5224430 127.6531430
  97.0586450  80.2623330 127.6626730  98.1407850  79.6123790 126.8269630
 107.2391290  73.6875250 137.3288320 107.6072110  72.8670460 137.6567890
 106.3789490  73.7477140 137.7443970 105.0511460  84.3637780 125.5709860
 105.1523440  84.1601770 124.6411840 104.1513200  84.1096060 125.7757640
 102.5737350  74.9218140 129.5533760 101.8653500  75.3904480 129.9947370
 102.8581830  74.2640150 130.1878950 104.1993280  76.3414840 137.5526290
 104.6978530  76.8160660 138.2178140 104.3416230  75.4178360 137.7596320
 106.6052780  71.6468800 130.9929550 106.4820560  71.6654930 130.0439060
 107.5537340  71.6947740 131.1127950 103.6929570  86.8824100 130.2657530
 103.9471070  86.8445490 129.3436900 102.7442050  86.7557430 130.2585780
 111.4060140  72.5582800 138.3954680 110.9033740  73.2988200 138.7348490
 112.2216800  72.9466800 138.0791470 109.6982150  77.8015980 131.8416040
 108.7572290  77.8166210 132.0163730 110.0126220  77.0151940 132.2876340
  98.3710550  76.9160650 126.0852890  98.4514140  75.9688160 126.1970290
  99.2630300  77.2467530 126.1913550 111.7007730  84.9724830 133.5170300
 111.8255150  85.7956000 133.9894110 112.5673290  84.7615560 133.1694450
  99.1725260  87.0656040 133.1887430  99.9087740  86.5171500 133.4596000
  99.5566180  87.9312050 133.0493420  96.0570740  83.1329610 129.0628940
  95.1310520  83.3750750 129.0534350  96.5227170  83.9603870 128.9413690
  98.1783540  86.2502110 142.3773010  98.9796270  86.5714160 142.7908410
  97.6635360  85.8897690 143.0992920 107.0148170  82.3581980 142.3248420
 106.4086330  82.3813580 141.5844170 106.7102280  81.6265020 142.8615670
 108.4448540  86.0862270 140.9357830 109.3970290  86.0020290 140.8858070
 108.2976760  86.7503980 141.6091620 111.3357740  85.4656480 126.4349740
 111.0499250  85.0521620 125.6203920 111.1377290  86.3944190 126.3150260
  95.8981350  78.7375570 141.3209060  96.4020370  78.1582850 141.8925290
  95.1588770  79.0215800 141.8585430 102.9519290  80.1446560 140.8544580
 102.1864960  80.7131560 140.7699250 103.1335250  79.8522770 139.9612810
 106.0407700  80.5209790 125.4797340 105.4917800  80.9679090 126.1240080
 106.6626960  80.0159040 126.0035010 110.0942640  81.8751890 141.4119600
 110.8352110  82.2127650 140.9087060 109.3315320  82.0443950 140.8589370
  97.9304430  76.8805160 142.2159130  97.9709770  76.5819030 143.1244360
  98.7849930  77.2812770 142.0566650 101.7082820  79.4800710 127.3762640
 102.1299240  79.3140580 128.2194030 101.8333660  78.6700940 126.8817780
  99.8710240  75.4597260 140.1833620  99.3406700  74.9688210 139.5556960
 100.5398310  75.8881460 139.6491550 108.7688300  79.9266720 139.9474810
 109.1829320  80.0811800 140.7965230 107.8339300  80.0521940 140.1100590
 109.2410470  77.2662880 141.9513960 109.8231240  76.5115200 141.8634440
 109.4172240  77.7970320 141.1745440 100.3582540  72.4259630 140.2630910
 100.2639410  71.8080380 139.5381780  99.7779930  73.1525920 140.0360820
 103.1243980  70.9832870 137.2958300 102.6761280  71.0057130 136.4503850
 102.4909180  70.5851890 137.8928600 103.5303530  79.8787200 137.9170740
 103.9491640  80.7219930 137.7446980 102.6112160  80.0159240 137.6877520
 105.8667430  77.6103380 139.3008580 105.9863640  77.0144520 140.0403420
 106.7261430  77.6473070 138.8809880 108.2055330  78.1640570 137.8771090
 107.6790550  78.6883190 137.2736230 108.5486670  78.7967960 138.5080820
 101.3810950  86.1840210 139.0328470 100.8432040  86.9086270 138.7137170
 101.6344910  85.7070550 138.2425810 102.6336200  74.1524730 140.5584400
 103.2235890  73.8440580 141.2462220 101.8156440  73.6804480 140.7144300
 107.4529630  73.7690540 140.7917420 106.7645150  73.1072080 140.7267410
 108.1735650  73.3228810 141.2365880 104.2373160  87.4191420 139.2915120
 104.1631860  88.3226560 139.5987490 103.3352000  87.1003320 139.2637190
 104.7858490  86.5849930 126.9141480 105.6809280  86.9234900 126.9360240
 104.8176120  85.8629340 126.2865760 111.7652840  85.1153600 139.6207680
 111.1654830  85.1746160 138.8771600 111.8946740  84.1758580 139.7504530
 113.0054290  82.8571420 124.9577390 112.1747250  82.9248070 125.4284620
 113.1826120  83.7475540 124.6544250 112.4610750  79.6018900 127.4611590
 113.2229660  80.1715550 127.5671280 112.4765120  79.0346100 128.2319900
  95.9615090  78.1256830 131.6919250  95.3063930  77.8568470 131.0478950
  96.7993040  78.0161310 131.2421230 113.4670720  80.4569000 132.3053520
 113.8379550  79.6736320 131.8989490 114.1072650  81.1458100 132.1270820
 110.4504480  81.8405580 137.7183840 109.6364320  82.2702740 137.9809630
 110.8578680  82.4523990 137.1052890 112.5129920  79.8953270 124.6184110
 112.7878760  80.8032150 124.4903330 112.3240660  79.8315800 125.5546100
 112.4095260  77.8322260 129.6113540 112.0338860  77.0650190 129.1794830
 111.6798380  78.2144960 130.0988470  96.9991020  78.5109400 136.2322590
  97.3664060  78.4236800 137.1118610  96.4301840  77.7475950 136.1329450
 111.7994880  76.9793780 139.2453060 111.5680970  76.7506530 138.3451010
 112.0599430  77.8993330 139.1997950  96.5507020  75.4218490 140.1381010
  95.6563070  75.3885250 140.4774720  97.0904570  75.6205280 140.9032260
 110.2382950  72.2050210 142.0232760 111.1153130  72.2133610 142.4066760
 110.2503790  71.4681050 141.4125110  95.1753170  75.3355760 127.6344580
  94.2717250  75.5985960 127.4596240  95.6593790  75.6066930 126.8544540
 111.6846220  76.0579750 132.9120780 112.2083700  75.5642400 132.2810950
 112.2705640  76.1930110 133.6568350 111.8635940  76.1419620 136.4340330
 110.9138650  76.1083160 136.5485320 112.0448950  77.0519730 136.1990100
  97.7180380  74.3921300 125.5438960  98.4272080  73.9704520 125.0586240
  97.0020320  74.4596530 124.9122310  97.0546730  69.6966820 134.4864230
  97.7022920  69.1464200 134.0459390  97.4748570  69.9509970 135.3080040
 110.9499070  69.8908180 137.8433870 111.5871290  70.5042320 138.2093060
 111.0973960  69.9268840 136.8983100 113.4923620  71.7821970 124.6257010
 114.4172930  71.6503150 124.4175300 113.4699410  71.8614790 125.5793460
 110.5080530  86.5924180 131.2452110 111.1039600  86.2708750 130.5686530
 110.7658680  86.1196000 132.0365380  96.8078730  69.8522490 137.2289550
  96.4593550  70.3086310 137.9947730  96.4766430  68.9579620 137.3111980
 104.3203550  71.0434370 140.7508970 104.2592440  71.6356200 141.5004380
 105.2603930  70.9360330 140.6059230 106.9578110  70.7004430 140.3901260
 107.5718520  71.0183720 139.7282340 107.5027670  70.2153020 141.0097120
 113.3753290  86.5996060 137.7963100 112.8811570  86.9964930 137.0790230
 112.7666580  85.9745270 138.1900380  97.4799370  69.3798690 140.5040320
  98.0282360  69.1986740 139.7406430  97.5454680  68.5892800 141.0396630
 107.6986150  69.2636570 136.7170550 106.8245990  69.5971680 136.5143480
 107.5896900  68.7909750 137.5422420 108.6058130  71.4707440 138.1012270
 108.2771490  70.6559200 137.7214000 109.5540430  71.4277250 137.9777960
 111.0592740  87.2419480 135.0749840 110.5995710  87.9935290 134.7007860
 110.4305200  86.5225950 135.0164640 101.4888460  85.5507720 134.2497970
 102.0053480  84.9395080 133.7246230 102.1385840  86.0536500 134.7408980
 104.2283960  86.4416210 135.0766950 104.5161770  86.1870510 134.1999960
 104.7407180  85.8893570 135.6672520 105.4460970  70.1806410 135.6563460
 104.6632760  70.6551910 135.9360220 105.1523900  69.2761240 135.5476640
 109.9982040  70.8829510 133.7012550 110.4390130  70.8274610 132.8534150
 109.7289630  71.7987520 133.7722730  96.1673360  86.6537110 130.6745320
  95.9995400  86.0207790 131.3727210  95.3007870  86.8596510 130.3239510
  96.7901380  70.4853890 128.1777180  97.5480740  70.5982770 127.6041210
  96.3278550  71.3223090 128.1320610 103.3315190  72.5993160 131.1679490
 102.5189700  72.2250050 130.8275370 103.8356830  71.8438240 131.4700680
 107.8340170  69.2635610 132.4062560 108.4369540  69.8355820 132.8811080
 107.0933160  69.8275050 132.1836460  97.7736060  85.3470340 128.1195460
  97.2483680  85.7278370 127.4157420  97.6980640  85.9721110 128.8405170
 101.3564370  70.7493080 129.7724540 100.7267110  70.0480390 129.9394670
 100.8169510  71.5097210 129.5557700 104.2956320  87.3632310 142.4435150
 105.2223630  87.1276580 142.4871110 104.2806750  88.1904310 141.9621180
 112.5301380  86.9057880 129.4409400 112.7053570  86.2195620 128.7970320
 111.8322950  87.4304930 129.0486070 101.4819930  70.0277060 142.2077030
 101.2004200  70.5310660 141.4437850 101.8639630  69.2298810 141.8419160
 100.3729030  87.2952720 126.9944710 101.1047850  87.0112000 126.4468600
 100.6322700  87.0566000 127.8844090 108.0835390  69.4430640 142.7857500
 107.9700840  69.7625250 143.6809020 108.9005130  69.8443150 142.4894780
 110.8633880  86.5902170 142.2676190 111.6559200  86.0951400 142.0602150
 111.1567030  87.2692310 142.8751800 109.1419010  83.6462320 113.8100640
 108.6800540  82.8749560 114.1387810 109.9544560  83.6728390 114.3153090
  99.1178670  83.5862030 116.1035290  99.4206710  82.6959770 115.9245510
  99.8622260  84.1432250 115.8757540  97.5469360  74.5123830 109.6919660
  96.6586060  74.8539800 109.5899540  97.8310550  74.3124150 108.8000490
 105.3682320  85.9320330 113.4304630 104.7493760  86.3877830 112.8599070
 106.2234100  86.0871790 113.0294330  99.7230750  73.0955330 110.7258040
  99.8297500  73.9959060 111.0326800  98.8123110  73.0473300 110.4352690
 100.3096530  82.3116240 119.3169320 100.9270530  82.9867320 119.0353770
  99.4489650  82.7204220 119.2256820  95.6028870  81.5016100 108.1976170
  95.2256850  81.9903200 107.4661070  95.8601940  82.1741380 108.8282700
 103.2117800  69.9032490 113.6561680 103.5192780  69.3479380 112.9397180
 102.2818500  70.0376950 113.4734670 105.5867640  74.2398320 107.3888960
 104.6471310  74.4012280 107.4741420 105.9050900  74.9584000 106.8424950
 112.1080400  78.9216840 117.3667990 111.2799030  78.9909930 116.8918120
 112.7030880  79.5071150 116.8983820 101.2055200  78.4946060 113.1741530
 100.8012200  77.7823310 112.6787430 101.2918320  78.1499300 114.0629570
 109.7622510  85.7545490 119.0003840 109.2853070  86.5617680 118.8076450
 109.0784300  85.1023820 119.1530050 100.7655330  81.9195310 121.9888540
  99.8683860  82.1435280 122.2361940 100.7908200  82.0430250 121.0399940
  97.9059830  77.3891040 110.6748180  97.7857430  78.1153130 110.0629450
  97.5960720  76.6193950 110.1976090 113.3421720  85.5157430 124.0695230
 113.8181440  85.9940320 124.7484310 113.9628880  85.4474920 123.3440730
 112.7454970  82.7070280 121.2295240 112.8718030  82.4682160 120.3112420
 112.7876350  81.8754820 121.7017320 101.0614490  86.4752150 111.0045670
 100.8856970  85.5587690 110.7913470 100.2070230  86.8339440 111.2443470
 108.2852240  84.2041180 107.7872050 107.5917400  84.2018470 107.1274330
 109.0275100  83.7800500 107.3566220 107.8502170  85.8303890 111.8620540
 108.3059120  85.0493270 112.1759160 108.1894690  86.5410710 112.4061720
  95.6004720  81.6020350 119.0211280  95.7635760  81.1325710 118.2030650
  96.0657170  81.0943910 119.6860120 103.4882310  70.3536810 108.9377680
 102.8636490  70.3496680 109.6630990 103.4012430  69.4867770 108.5413650
 100.1637710  75.8559680 111.7853100  99.9378630  75.6396850 112.6899720
  99.3830240  76.2888140 111.4399070  95.2234740  75.0307510 105.8479950
  95.1409410  75.9738270 105.9894940  94.8717800  74.8882420 104.9692300
 110.4752140  69.9558200 121.7607130 110.7997910  69.2247860 122.2865110
 110.5108650  69.6371840 120.8588120 110.4009980  80.0683310 115.3693160
 111.1209100  80.5638600 114.9789270 110.1991800  79.3901200 114.7247030
 108.5768310  75.8340920 107.8084710 109.4647930  76.1458150 107.6336050
 108.5473400  74.9613170 107.4165290 100.3717060  78.1643940 123.0110830
 100.0717200  78.3101120 122.1138650 101.1428300  77.6049230 122.9184220
 105.7145510  82.9612940 121.0065960 105.7290050  82.0293900 120.7884870
 105.0070610  83.0472700 121.6455730  98.7458580  69.4361820 111.3436680
  98.6173210  69.4279720 112.2921600  97.9220600  69.7744910 110.9927690
 106.4211490  82.6062860 116.8183910 107.0633720  81.9056020 116.9316080
 106.9460840  83.3861300 116.6380800 108.1949110  83.4057760 120.0219970
 108.5305350  83.9924450 120.6997890 107.2749450  83.2750470 120.2517760
 102.0651860  84.3009540 108.1341180 102.0561960  85.0339230 107.5185690
 101.1450220  84.0541120 108.2268140 110.6053320  72.6432190 109.3632390
 109.9766480  72.7477860 108.6490620 110.1105240  72.8628970 110.1526270
 105.0511460  84.3637780 106.7966370 105.1523440  84.1601770 105.8668350
 104.1513200  84.1096060 107.0014150 103.6929570  86.8824100 111.4914040
 103.9471070  86.8445490 110.5693410 102.7442050  86.7557430 111.4842290
 100.7772370  73.2303220 108.1540980 101.6262900  73.6673370 108.0881170
 100.4103640  73.5423480 108.9813040  99.1725260  87.0656040 114.4143940
  99.9087740  86.5171500 114.6852510  99.5566180  87.9312050 114.2749930
  96.0570740  83.1329610 110.2885450  95.1310520  83.3750750 110.2790860
  96.5227170  83.9603870 110.1670200 102.2827570  86.2386350 106.2369510
 103.0756180  86.5275180 105.7851300 101.7631920  85.8078520 105.5581990
 107.0148170  82.3581980 123.5504930 106.4086330  82.3813580 122.8100680
 106.7102280  81.6265020 124.0872180 108.4448540  86.0862270 122.1614340
 109.3970290  86.0020290 122.1114580 108.2976760  86.7503980 122.8348130
 102.9519290  80.1446560 122.0801090 102.1864960  80.7131560 121.9955760
 103.1335250  79.8522770 121.1869320 106.0407700  80.5209790 106.7053850
 105.4917800  80.9679090 107.3496590 106.6626960  80.0159040 107.2291520
 103.5303530  79.8787200 119.1427250 103.9491640  80.7219930 118.9703490
 102.6112160  80.0159240 118.9134030 108.0830030  70.3642170 108.0764190
 108.3632320  69.5210070 108.4323610 107.3095760  70.5965280 108.5902940
  99.4024520  72.6534560 105.5355190  99.7050420  72.6601990 104.6274340
 100.1419110  72.3032420 106.0322850 104.7858490  86.5849930 108.1397990
 105.6809280  86.9234900 108.1616750 104.8176120  85.8629340 107.5122270
  95.6400450  84.7466010 113.8205250  95.9703460  83.8787070 113.5883890
  96.0691450  84.9524530 114.6510210 100.2362370  83.0775020 111.4807220
  99.9357910  82.9539990 112.3811130 100.1299860  82.2183610 111.0722950
  96.1290660  85.6136600 116.5586880  95.6921650  85.7937400 117.3911030
  96.6968340  86.3711220 116.4168600 111.7652840  85.1153600 120.8464190
 111.1654830  85.1746160 120.1028110 111.8946740  84.1758580 120.9761040
 113.4670720  80.4569000 113.5310030 113.8379550  79.6736320 113.1246000
 114.1072650  81.1458100 113.3527330 108.9105530  72.9198120 107.1394250
 109.3290410  72.7329100 106.2990910 108.6041590  72.0677170 107.4497180
 112.4095260  77.8322260 110.8370050 112.0338860  77.0650190 110.4051340
 111.6798380  78.2144960 111.3244980  96.5507020  75.4218490 121.3637520
  95.6563070  75.3885250 121.7031230  97.0904570  75.6205280 122.1288770
 110.2382950  72.2050210 123.2489270 111.1153130  72.2133610 123.6323270
 110.2503790  71.4681050 122.6381620  95.1753170  75.3355760 108.8601090
  94.2717250  75.5985960 108.6852750  95.6593790  75.6066930 108.0801050
  97.7180380  74.3921300 106.7695470  98.4272080  73.9704520 106.2842750
  97.0020320  74.4596530 106.1378820  97.3654540  70.4460630 105.8098120
  98.0882670  70.9869570 106.1279340  97.6379060  70.1724050 104.9339660
 111.1746190  75.3153100 110.0769700 111.6705310  75.0823970 110.8618580
 110.9762260  74.4764940 109.6607340 112.6033350  73.9514050 112.6107380
 112.4932630  73.7970090 113.5489650 113.3640940  73.4234990 112.3682790
 110.9499070  69.8908180 119.0690380 111.5871290  70.5042320 119.4349570
 111.0973960  69.9268840 118.1239610  98.2531130  85.9704340 119.7397030
  97.6591450  85.8389040 120.4787070  98.2454970  85.1342480 119.2739130
 107.6986150  69.2636570 117.9427060 106.8245990  69.5971680 117.7399990
 107.5896900  68.7909750 118.7678930 108.6058130  71.4707440 119.3268780
 108.2771490  70.6559200 118.9470510 109.5540430  71.4277250 119.2034470
  97.8843360  83.3362720 118.6905070  97.1577420  82.7168010 118.6231020
  97.9452510  83.7303330 117.8203150  96.1673360  86.6537110 111.9001830
  95.9995400  86.0207790 112.5983720  95.3007870  86.8596510 111.5496020
  96.7901380  70.4853890 109.4033690  97.5480740  70.5982770 108.8297720
  96.3278550  71.3223090 109.3577120  97.7736060  85.3470340 109.3451970
  97.2483680  85.7278370 108.6413930  97.6980640  85.9721110 110.0661680
  99.1626530  71.0117940 107.9435660  99.6919290  70.2247740 107.8143610
  99.7954850  71.6909130 108.1771190 101.3564370  70.7493080 110.9981050
 100.7267110  70.0480390 111.1651180 100.8169510  71.5097210 110.7814210
 100.3729030  87.2952720 108.2201220 101.1047850  87.0112000 107.6725110
 100.6322700  87.0566000 109.1100600  99.5343820  83.4117450 108.2247550
  98.9052700  83.8802550 108.7733380  99.6491650  82.5666670 108.6593740
 110.8633880  86.5902170 123.4932700 111.6559200  86.0951400 123.2858660
 111.1567030  87.2692310 124.1008310  99.1377410  79.5521940  97.1333780
  98.3062290  79.2970650  97.5330290  99.7458390  79.6232710  97.8691700
 105.3682320  85.9320330  94.6561140 104.7493760  86.3877830  94.0855580
 106.2234100  86.0871790  94.2550840 104.5620570  81.9159320  96.2628180
 104.4928850  80.9749260  96.1017310 105.3240430  82.0060730  96.8350750
  96.7527240  72.5213840  98.5884800  96.5730080  71.6239590  98.8687560
  96.3507320  73.0685710  99.2631750  99.7230750  73.0955330  91.9514550
  99.8297500  73.9959060  92.2583310  98.8123110  73.0473300  91.6609200
  99.8474580  70.7040260 100.5503150  99.8493020  71.2212650  99.7449050
  99.0178890  70.2270440 100.5273080  99.5289910  72.4150220  98.5573600
  99.8706720  73.2592270  98.2627470  98.5905720  72.5633960  98.6738940
  95.6028870  81.5016100  89.4232680  95.2256850  81.9903200  88.6917580
  95.8601940  82.1741380  90.0539210 111.2274120  83.7755650  98.4580470
 110.5437640  84.4454760  98.4497140 111.7668410  83.9736300  97.6925330
 103.2117800  69.9032490  94.8818190 103.5192780  69.3479380  94.1653690
 102.2818500  70.0376950  94.6991180 109.0722410  75.7086160  99.5379370
 108.6593590  76.5339870  99.7919360 108.3398360  75.1231200  99.3455730
  99.9183820  75.2689270  98.1797080 100.4698410  75.3784610  97.4050330
 100.4327330  75.6426870  98.8952310  99.5926550  78.7908630 101.7902420
  99.4534320  79.6631430 102.1589820  98.7107910  78.4481440 101.6450360
  95.5445200  80.5606180  97.7073330  95.6225620  80.6954950  96.7629050
  96.1586880  79.8522070  97.9001450 108.5826110  86.6953620  90.4530560
 108.4227250  86.4056560  91.3512390 108.4172820  85.9193750  89.9175790
 101.0614490  86.4752150  92.2302180 100.8856970  85.5587690  92.0169980
 100.2070230  86.8339440  92.4699980 107.8502170  85.8303890  93.0877050
 108.3059120  85.0493270  93.4015670 108.1894690  86.5410710  93.6318230
 112.5978980  74.7602740 103.4201490 111.9823250  75.2682410 102.8916950
 112.2775400  73.8601070 103.3627430  95.6004720  81.6020350 100.2467790
  95.7635760  81.1325710  99.4287160  96.0657170  81.0943910 100.9116630
 100.3723490  70.7326110  95.2828360  99.9291640  71.5135650  94.9512880
 100.9308480  71.0556000  95.9899300 109.6597810  74.8203580 102.0160340
 108.8091400  74.5209330 102.3369410 109.4999600  75.0645590 101.1044160
 106.7547520  76.3205330 104.1159130 107.0800930  75.4869080 103.7761360
 107.5427850  76.8433850 104.2637460 102.4099390  71.2773440  97.1417960
 102.7071720  72.1836270  97.0609980 102.9584950  70.7892220  96.5277530
  97.7347460  73.1658930 101.8303660  97.3410850  74.0134140 102.0376440
  97.0465860  72.5285300 102.0212300 106.5855480  77.0892340  97.7354320
 105.8536600  77.5979150  98.0844420 106.1879820  76.2722320  97.4343100
 107.0481390  72.5426020  97.1477260 107.0654130  72.9934670  97.9919110
 106.7996970  71.6431660  97.3610700  97.1743700  80.9771780 102.4063600
  96.7898490  80.3365450 103.0046560  97.4855890  81.6807900 102.9758330
 101.1140210  76.8656960 100.2056430 100.8097280  77.7448940 100.4306790
 102.0686670  76.9256750 100.2413870  99.6422000  81.0717950  90.8023280
  98.8684260  80.5315570  90.6422000 100.3716630  80.5524560  90.4641040
  99.6859400  80.7398330  94.4402090 100.2038070  79.9366590  94.3858980
  99.2343420  80.6777470  95.2818920  97.1703940  77.7059700 101.3527790
  96.8118880  78.3713550 101.9401130  96.8758500  76.8743250 101.7240410
 103.5419590  82.0878140  92.4845310 104.2290720  82.6347350  92.8652900
 102.7552010  82.6318870  92.5194920  98.7458580  69.4361820  92.5693190
  98.6173210  69.4279720  93.5178110  97.9220600  69.7744910  92.2184200
 106.4211490  82.6062860  98.0440420 107.0633720  81.9056020  98.1572590
 106.9460840  83.3861300  97.8637310 110.2667210  82.8911480  87.7679560
 110.0404790  82.1741920  88.3604200 109.8763410  82.6423920  86.9301310
  95.7452510  71.1952940 102.0299890  95.0311030  71.3949860 102.6352500
  96.1647550  70.4192510 102.4014690 102.0651860  84.3009540  89.3597690
 102.0561960  85.0339230  88.7442200 101.1450220  84.0541120  89.4524650
  97.6658500  79.5224430  90.1044450  97.0586450  80.2623330  90.1139750
  98.1407850  79.6123790  89.2782650 107.2391290  73.6875250  99.7801340
 107.6072110  72.8670460 100.1080910 106.3789490  73.7477140 100.1956990
 105.0511460  84.3637780  88.0222880 105.1523440  84.1601770  87.0924860
 104.1513200  84.1096060  88.2270660 104.1993280  76.3414840 100.0039310
 104.6978530  76.8160660 100.6691160 104.3416230  75.4178360 100.2109340
 103.6929570  86.8824100  92.7170550 103.9471070  86.8445490  91.7949920
 102.7442050  86.7557430  92.7098800 100.7772370  73.2303220  89.3797490
 101.6262900  73.6673370  89.3137680 100.4103640  73.5423480  90.2069550
  99.6763790  79.4835580  87.8533020 100.4427060  79.3716940  88.4158450
  99.7538480  78.7873550  87.2009790  99.1725260  87.0656040  95.6400450
  99.9087740  86.5171500  95.9109020  99.5566180  87.9312050  95.5006440
  98.1783540  86.2502110 104.8286030  98.9796270  86.5714160 105.2421430
  97.6635360  85.8897690 105.5505940 102.2827570  86.2386350  87.4626020
 103.0756180  86.5275180  87.0107810 101.7631920  85.8078520  86.7838500
  95.8981350  78.7375570 103.7722080  96.4020370  78.1582850 104.3438310
  95.1588770  79.0215800 104.3098450 102.8004970  81.4589760  87.3268370
 102.6955610  80.8442110  88.0529750 102.6329190  80.9355650  86.5431380
  99.8710240  75.4597260 102.6346640  99.3406700  74.9688210 102.0069980
 100.5398310  75.8881460 102.1004570 105.8667430  77.6103380 101.7521600
 105.9863640  77.0144520 102.4916440 106.7261430  77.6473070 101.3322900
 108.2055330  78.1640570 100.3284110 107.6790550  78.6883190  99.7249250
 108.5486670  78.7967960 100.9593840 100.6041720  75.5533940  86.7733820
 100.4030780  74.6901300  87.1347160 100.4333770  75.4667300  85.8355420
 107.4529630  73.7690540 103.2430440 106.7645150  73.1072080 103.1780430
 108.1735650  73.3228810 103.6878900  99.4024520  72.6534560  86.7611700
  99.7050420  72.6601990  85.8530850 100.1419110  72.3032420  87.2579360
 104.7858490  86.5849930  89.3654500 105.6809280  86.9234900  89.3873260
 104.8176120  85.8629340  88.7378780  98.4254650  81.9576980  87.5941500
  98.8629520  82.5006650  88.2499080  98.9102380  81.1323930  87.6037840
 100.2362370  83.0775020  92.7063730  99.9357910  82.9539990  93.6067640
 100.1299860  82.2183610  92.2979460  96.1290660  85.6136600  97.7843390
  95.6921650  85.7937400  98.6167540  96.6968340  86.3711220  97.6425110
 113.4670720  80.4569000  94.7566540 113.8379550  79.6736320  94.3502510
 114.1072650  81.1458100  94.5783840  96.9991020  78.5109400  98.6835610
  97.3664060  78.4236800  99.5631630  96.4301840  77.7475950  98.5842470
  96.5507020  75.4218490 102.5894030  95.6563070  75.3885250 102.9287740
  97.0904570  75.6205280 103.3545280 110.2382950  72.2050210 104.4745780
 111.1153130  72.2133610 104.8579780 110.2503790  71.4681050 103.8638130
 111.6846220  76.0579750  95.3633800 112.2083700  75.5642400  94.7323970
 112.2705640  76.1930110  96.1081370  97.0546730  69.6966820  96.9377250
  97.7022920  69.1464200  96.4972410  97.4748570  69.9509970  97.7593060
 113.4923620  71.7821970  87.0770030 114.4172930  71.6503150  86.8688320
 113.4699410  71.8614790  88.0306480 113.5662110  72.5532630  89.7026740
 112.7713610  72.4877750  90.2319650 113.7705390  73.4883270  89.6912090
 110.5080530  86.5924180  93.6965130 111.1039600  86.2708750  93.0199550
 110.7658680  86.1196000  94.4878400  96.8078730  69.8522490  99.6802570
  96.4593550  70.3086310 100.4460750  96.4766430  68.9579620  99.7625000
  97.4799370  69.3798690 102.9553340  98.0282360  69.1986740 102.1919450
  97.5454680  68.5892800 103.4909650  98.2531130  85.9704340 100.9653540
  97.6591450  85.8389040 101.7043580  98.2454970  85.1342480 100.4995640
 104.2283960  86.4416210  97.5279970 104.5161770  86.1870510  96.6512980
 104.7407180  85.8893570  98.1185540 105.4460970  70.1806410  98.1076480
 104.6632760  70.6551910  98.3873240 105.1523900  69.2761240  97.9989660
 109.9982040  70.8829510  96.1525570 110.4390130  70.8274610  95.3047170
 109.7289630  71.7987520  96.2235750 111.8620610  70.5144750  94.1634390
 111.8009010  69.5705970  94.0165410 112.6412640  70.6224840  94.7087850
  96.1673360  86.6537110  93.1258340  95.9995400  86.0207790  93.8240230
  95.3007870  86.8596510  92.7752530 107.8340170  69.2635610  94.8575580
 108.4369540  69.8355820  95.3324100 107.0933160  69.8275050  94.6349480
 110.9774770  69.6657170  90.1315860 111.1725400  70.5640620  90.3983290
 110.1904640  69.4344250  90.6248810  97.7736060  85.3470340  90.5708480
  97.2483680  85.7278370  89.8670440  97.6980640  85.9721110  91.2918190
  99.1626530  71.0117940  89.1692170  99.6919290  70.2247740  89.0400120
  99.7954850  71.6909130  89.4027700 104.2956320  87.3632310 104.8948170
 105.2223630  87.1276580 104.9384130 104.2806750  88.1904310 104.4134200
 112.5301380  86.9057880  91.8922420 112.7053570  86.2195620  91.2483340
 111.8322950  87.4304930  91.4999090 100.3729030  87.2952720  89.4457730
 101.1047850  87.0112000  88.8981620 100.6322700  87.0566000  90.3357110
  99.5343820  83.4117450  89.4504060  98.9052700  83.8802550  89.9989890
  99.6491650  82.5666670  89.8850250  99.1178670  83.5862030  78.5548310
  99.4206710  82.6959770  78.3758530  99.8622260  84.1432250  78.3270560
  97.5469360  74.5123830  72.1432680  96.6586060  74.8539800  72.0412560
  97.8310550  74.3124150  71.2513510  99.7230750  73.0955330  73.1771060
  99.8297500  73.9959060  73.4839820  98.8123110  73.0473300  72.8865710
 109.3749860  72.2180140  74.6481960 110.1959480  71.7276710  74.6907440
 109.4083940  72.8077800  75.4013800  97.3713910  75.0174340  78.4223650
  98.0524020  75.2812710  79.0411050  97.0561960  74.1775210  78.7561660
 113.6649410  74.2346890  81.2125590 112.9601580  74.6228600  80.6940700
 113.9307330  74.9297180  81.8146520  99.8474580  70.7040260  81.7759660
  99.8493020  71.2212650  80.9705560  99.0178890  70.2270440  81.7529590
 109.6111340  74.1580520  77.4209500 108.9066910  74.4465410  78.0012610
 109.9723500  74.9680630  77.0609060  99.5289910  72.4150220  79.7830110
  99.8706720  73.2592270  79.4883980  98.5905720  72.5633960  79.8995450
 100.3096530  82.3116240  81.7682340 100.9270530  82.9867320  81.4866790
  99.4489650  82.7204220  81.6769840 111.2274120  83.7755650  79.6836980
 110.5437640  84.4454760  79.6753650 111.7668410  83.9736300  78.9181840
 112.6798260  73.6035310  77.8118710 111.7323170  73.6374290  77.9434140
 113.0048250  74.4174260  78.1968070 103.2117800  69.9032490  76.1074700
 103.5192780  69.3479380  75.3910200 102.2818500  70.0376950  75.9247690
 105.5998560  77.9681320  72.8434820 104.6727840  77.9018700  73.0723290
 105.7523380  78.9061450  72.7290060 109.6295850  79.5301620  73.3470070
 109.0108270  79.1921170  72.6996370 109.6120300  78.8861380  74.0549260
 109.0722410  75.7086160  80.7635880 108.6593590  76.5339870  81.0175870
 108.3398360  75.1231200  80.5712240  99.9183820  75.2689270  79.4053590
 100.4698410  75.3784610  78.6306840 100.4327330  75.6426870  80.1208820
 109.7622510  85.7545490  81.4516860 109.2853070  86.5617680  81.2589470
 109.0784300  85.1023820  81.6043070 100.7655330  81.9195310  84.4401560
  99.8683860  82.1435280  84.6874960 100.7908200  82.0430250  83.4912960
 107.8060550  78.7688430  70.3542820 108.2453830  77.9310860  70.2080640
 108.5188970  79.4017830  70.4406960  99.5926550  78.7908630  83.0158930
  99.4534320  79.6631430  83.3846330  98.7107910  78.4481440  82.8706870
 101.3906900  84.7330330  85.2244080 101.3622330  85.1373280  84.3572510
 101.2271870  83.8040690  85.0615680 111.3877690  70.0231240  68.6683860
 111.0750350  70.1158070  69.5682930 112.1490160  70.6012270  68.6181290
  96.7892830  82.2606370  75.3436020  96.3820910  82.4020960  74.4889620
  97.6805840  81.9766530  75.1407230 101.0614490  86.4752150  73.4558690
 100.8856970  85.5587690  73.2426490 100.2070230  86.8339440  73.6956490
 112.5978980  74.7602740  84.6458000 111.9823250  75.2682410  84.1173460
 112.2775400  73.8601070  84.5883940  95.6004720  81.6020350  81.4724300
  95.7635760  81.1325710  80.6543670  96.0657170  81.0943910  82.1373140
 100.3723490  70.7326110  76.5084870  99.9291640  71.5135650  76.1769390
 100.9308480  71.0556000  77.2155810 104.6593300  73.5994630  82.1120190
 104.1972670  73.8077650  82.9240130 104.2571410  72.7853980  81.8090860
 109.6597810  74.8203580  83.2416850 108.8091400  74.5209330  83.5625920
 109.4999600  75.0645590  82.3300670 106.7547520  76.3205330  85.3415640
 107.0800930  75.4869080  85.0017870 107.5427850  76.8433850  85.4893970
 102.4099390  71.2773440  78.3674470 102.7071720  72.1836270  78.2866490
 102.9584950  70.7892220  77.7534040 100.1637710  75.8559680  74.2366120
  99.9378630  75.6396850  75.1412740  99.3830240  76.2888140  73.8912090
 107.3935470  75.8623050  72.8356770 106.7944360  76.5858850  72.6520390
 107.9415080  75.7999830  72.0533220 102.6036920  76.7545260  84.9026390
 102.5080520  75.8139990  84.7526790 103.4468900  76.9760330  84.5074460
 106.0000340  74.4986590  74.8660050 106.3929910  74.8158790  74.0528740
 106.3617190  73.6198470  74.9804570  97.7347460  73.1658930  83.0560170
  97.3410850  74.0134140  83.2632950  97.0465860  72.5285300  83.2468810
 104.3092510  73.2493900  86.1256910 103.6190830  73.0566100  86.7603000
 105.0524810  73.5328540  86.6581210  95.2234740  75.0307510  68.2992970
  95.1409410  75.9738270  68.4407960  94.8717800  74.8882420  67.4205320
  98.8735250  73.6473030  76.3257530  98.5335300  74.1248260  77.0824580
  98.1112570  73.1938150  75.9658630 103.0853020  74.7658620  70.3570080
 103.2065840  74.7245100  71.3055900 102.7001530  75.6282770  70.2016810
 107.0481390  72.5426020  78.3733770 107.0654130  72.9934670  79.2175620
 106.7996970  71.6431660  78.5867210 102.0974520  77.0759760  69.7553380
 101.5291420  76.6278010  69.1289290 102.8063520  77.4352540  69.2218530
  97.1743700  80.9771780  83.6320110  96.7898490  80.3365450  84.2303070
  97.4855890  81.6807900  84.2014840  96.1881330  72.5692010  75.2422200
  95.9028250  72.2047680  76.0800820  96.1260190  71.8372470  74.6285340
 101.1140210  76.8656960  81.4312940 100.8097280  77.7448940  81.6563300
 102.0686670  76.9256750  81.4670380  99.6422000  81.0717950  72.0279790
  98.8684260  80.5315570  71.8678510 100.3716630  80.5524560  71.6897550
 105.8619920  71.4621270  71.9635570 105.0484530  70.9634440  71.8880880
 105.6681870  72.3019520  71.5471920 105.7828780  80.1392370  83.7075180
 105.7166090  79.2188040  83.4532770 105.1533920  80.2367810  84.4219820
  97.1703940  77.7059700  82.5784300  96.8118880  78.3713550  83.1657640
  96.8758500  76.8743250  82.9496920 100.3717060  78.1643940  85.4623850
 100.0717200  78.3101120  84.5651670 101.1428300  77.6049230  85.3697240
 105.7145510  82.9612940  83.4578980 105.7290050  82.0293900  83.2397890
 105.0070610  83.0472700  84.0968750 110.8482580  77.1452760  69.7277590
 110.7646300  77.5766980  68.8774030 111.5676770  77.6051110  70.1604410
 111.8769830  83.9995020  72.4559720 111.2345990  83.3450640  72.7303440
 111.4900490  84.4050110  71.6800390  98.7458580  69.4361820  73.7949700
  98.6173210  69.4279720  74.7434620  97.9220600  69.7744910  73.4440710
 108.1949110  83.4057760  82.4732990 108.5305350  83.9924450  83.1510910
 107.2749450  83.2750470  82.7030780 109.8483460  80.8083420  70.6550230
 109.5605160  81.2696110  71.4428110 110.6435630  80.3481190  70.9234450
 104.0237690  83.4549090  85.6421050 103.7034560  82.7358330  86.1866740
 103.3496050  84.1304160  85.7157110 102.0651860  84.3009540  70.5854200
 102.0561960  85.0339230  69.9698710 101.1450220  84.0541120  70.6781160
 107.2391290  73.6875250  81.0057850 107.6072110  72.8670460  81.3337420
 106.3789490  73.7477140  81.4213500 102.5737350  74.9218140  73.2303290
 101.8653500  75.3904480  73.6716900 102.8581830  74.2640150  73.8648480
 104.1993280  76.3414840  81.2295820 104.6978530  76.8160660  81.8947670
 104.3416230  75.4178360  81.4365850 106.6052780  71.6468800  74.6699080
 106.4820560  71.6654930  73.7208590 107.5537340  71.6947740  74.7897480
 100.7772370  73.2303220  70.6054000 101.6262900  73.6673370  70.5394190
 100.4103640  73.5423480  71.4326060 111.4060140  72.5582800  82.0724210
 110.9033740  73.2988200  82.4118020 112.2216800  72.9466800  81.7561000
  99.6763790  79.4835580  69.0789530 100.4427060  79.3716940  69.6414960
  99.7538480  78.7873550  68.4266300  99.1725260  87.0656040  76.8656960
  99.9087740  86.5171500  77.1365530  99.5566180  87.9312050  76.7262950
  96.0570740  83.1329610  72.7398470  95.1310520  83.3750750  72.7303880
  96.5227170  83.9603870  72.6183220  98.1783540  86.2502110  86.0542540
  98.9796270  86.5714160  86.4677940  97.6635360  85.8897690  86.7762450
 102.2827570  86.2386350  68.6882530 103.0756180  86.5275180  68.2364320
 101.7631920  85.8078520  68.0095010 107.0148170  82.3581980  86.0017950
 106.4086330  82.3813580  85.2613700 106.7102280  81.6265020  86.5385200
 102.8004970  81.4589760  68.5524880 102.6955610  80.8442110  69.2786260
 102.6329190  80.9355650  67.7687890 102.9519290  80.1446560  84.5314110
 102.1864960  80.7131560  84.4468780 103.1335250  79.8522770  83.6382340
 106.0407700  80.5209790  69.1566870 105.4917800  80.9679090  69.8009610
 106.6626960  80.0159040  69.6804540  97.9304430  76.8805160  85.8928660
  97.9709770  76.5819030  86.8013890  98.7849930  77.2812770  85.7336180
 101.7082820  79.4800710  71.0532170 102.1299240  79.3140580  71.8963560
 101.8333660  78.6700940  70.5587310  99.8710240  75.4597260  83.8603150
  99.3406700  74.9688210  83.2326490 100.5398310  75.8881460  83.3261080
 104.2210460  78.5038320  68.3009270 104.7416120  77.7887340  67.9350420
 104.8678860  79.1424190  68.6009780 109.2410470  77.2662880  85.6283490
 109.8231240  76.5115200  85.5403970 109.4172240  77.7970320  84.8514970
 100.3582540  72.4259630  83.9400440 100.2639410  71.8080380  83.2151310
  99.7779930  73.1525920  83.7130350 103.1243980  70.9832870  80.9727830
 102.6761280  71.0057130  80.1273380 102.4909180  70.5851890  81.5698130
 105.8667430  77.6103380  82.9778110 105.9863640  77.0144520  83.7172950
 106.7261430  77.6473070  82.5579410 100.6041720  75.5533940  67.9990330
 100.4030780  74.6901300  68.3603670 100.4333770  75.4667300  67.0611930
 101.3810950  86.1840210  82.7098000 100.8432040  86.9086270  82.3906700
 101.6344910  85.7070550  81.9195340 102.6336200  74.1524730  84.2353930
 103.2235890  73.8440580  84.9231750 101.8156440  73.6804480  84.3913830
 107.4529630  73.7690540  84.4686950 106.7645150  73.1072080  84.4036940
 108.1735650  73.3228810  84.9135410 108.0830030  70.3642170  70.5277210
 108.3632320  69.5210070  70.8836630 107.3095760  70.5965280  71.0415960
  99.4024520  72.6534560  67.9868210  99.7050420  72.6601990  67.0787360
 100.1419110  72.3032420  68.4835870 102.6209450  71.5969180  68.9724410
 102.2731450  70.9193170  68.3926860 102.8222220  71.1358690  69.7867800
  98.4254650  81.9576980  68.8198010  98.8629520  82.5006650  69.4755590
  98.9102380  81.1323930  68.8294350 100.2362370  83.0775020  73.9320240
  99.9357910  82.9539990  74.8324150 100.1299860  82.2183610  73.5235970
 111.7652840  85.1153600  83.2977210 111.1654830  85.1746160  82.5541130
 111.8946740  84.1758580  83.4274060 113.0054290  82.8571420  68.6346920
 112.1747250  82.9248070  69.1054150 113.1826120  83.7475540  68.3313780
 112.4610750  79.6018900  71.1381120 113.2229660  80.1715550  71.2440810
 112.4765120  79.0346100  71.9089430 111.7994880  76.9793780  82.9222590
 111.5680970  76.7506530  82.0220540 112.0599430  77.8993330  82.8767480
  96.5507020  75.4218490  83.8150540  95.6563070  75.3885250  84.1544250
  97.0904570  75.6205280  84.5801790  97.7180380  74.3921300  69.2208490
  98.4272080  73.9704520  68.7355770  97.0020320  74.4596530  68.5891840
 111.1746190  75.3153100  72.5282720 111.6705310  75.0823970  73.3131600
 110.9762260  74.4764940  72.1120360 112.6033350  73.9514050  75.0620400
 112.4932630  73.7970090  76.0002670 113.3640940  73.4234990  74.8195810
 110.9499070  69.8908180  81.5203400 111.5871290  70.5042320  81.8862590
 111.0973960  69.9268840  80.5752630 113.4923620  71.7821970  68.3026540
 114.4172930  71.6503150  68.0944830 113.4699410  71.8614790  69.2562990
 113.5662110  72.5532630  70.9283250 112.7713610  72.4877750  71.4576160
 113.7705390  73.4883270  70.9168600  98.4143100  83.0242090  85.0712270
  98.3712730  82.6535000  85.9526730  98.5454110  83.9619660  85.2114090
 102.1149130  84.5801680  80.6721990 101.8740490  84.8476240  79.7852510
 103.0551770  84.7507410  80.7272850 113.3753290  86.5996060  81.4732630
 112.8811570  86.9964930  80.7559760 112.7666580  85.9745270  81.8669910
  98.2531130  85.9704340  82.1910050  97.6591450  85.8389040  82.9300090
  98.2454970  85.1342480  81.7252150  97.8843360  83.3362720  81.1418090
  97.1577420  82.7168010  81.0744040  97.9452510  83.7303330  80.2716170
 101.4888460  85.5507720  77.9267500 102.0053480  84.9395080  77.4015760
 102.1385840  86.0536500  78.4178510 105.4460970  70.1806410  79.3332990
 104.6632760  70.6551910  79.6129750 105.1523900  69.2761240  79.2246170
 109.9982040  70.8829510  77.3782080 110.4390130  70.8274610  76.5303680
 109.7289630  71.7987520  77.4492260 111.8620610  70.5144750  75.3890900
 111.8009010  69.5705970  75.2421920 112.6412640  70.6224840  75.9344360
  96.7901380  70.4853890  71.8546710  97.5480740  70.5982770  71.2810740
  96.3278550  71.3223090  71.8090140 103.3315190  72.5993160  74.8449020
 102.5189700  72.2250050  74.5044900 103.8356830  71.8438240  75.1470210
 107.8340170  69.2635610  76.0832090 108.4369540  69.8355820  76.5580610
 107.0933160  69.8275050  75.8605990 110.9774770  69.6657170  71.3572370
 111.1725400  70.5640620  71.6239800 110.1904640  69.4344250  71.8505320
  97.7736060  85.3470340  71.7964990  97.2483680  85.7278370  71.0926950
  97.6980640  85.9721110  72.5174700  99.1626530  71.0117940  70.3948680
  99.6919290  70.2247740  70.2656630  99.7954850  71.6909130  70.6284210
 101.3564370  70.7493080  73.4494070 100.7267110  70.0480390  73.6164200
 100.8169510  71.5097210  73.2327230 101.4819930  70.0277060  85.8846560
 101.2004200  70.5310660  85.1207380 101.8639630  69.2298810  85.5188690
 100.3729030  87.2952720  70.6714240 101.1047850  87.0112000  70.1238130
 100.6322700  87.0566000  71.5613620  99.5343820  83.4117450  70.6760570
  98.9052700  83.8802550  71.2246400  99.6491650  82.5666670  71.1106760
  99.1377410  79.5521940  59.5846800  98.3062290  79.2970650  59.9843310
  99.7458390  79.6232710  60.3204720 109.1419010  83.6462320  57.4870170
 108.6800540  82.8749560  57.8157340 109.9544560  83.6728390  57.9922620
  99.1178670  83.5862030  59.7804820  99.4206710  82.6959770  59.6015040
  99.8622260  84.1432250  59.5527070  97.5469360  74.5123830  53.3689190
  96.6586060  74.8539800  53.2669070  97.8310550  74.3124150  52.4770020
  96.7527240  72.5213840  61.0397820  96.5730080  71.6239590  61.3200580
  96.3507320  73.0685710  61.7144770  99.7230750  73.0955330  54.4027570
  99.8297500  73.9959060  54.7096330  98.8123110  73.0473300  54.1122220
  97.3713910  75.0174340  59.6480160  98.0524020  75.2812710  60.2667560
  97.0561960  74.1775210  59.9818170 101.5638480  76.0641700  58.7352750
 102.0716700  76.5622670  59.3757770 102.0951720  75.2876900  58.5592110
 113.6649410  74.2346890  62.4382100 112.9601580  74.6228600  61.9197210
 113.9307330  74.9297180  63.0403030  99.8474580  70.7040260  63.0016170
  99.8493020  71.2212650  62.1962070  99.0178890  70.2270440  62.9786100
 101.0977430  80.3435440  61.1789670 100.7646810  80.9704360  61.8210740
 101.2744110  80.8697320  60.3991340 109.6111340  74.1580520  58.6466010
 108.9066910  74.4465410  59.2269120 109.9723500  74.9680630  58.2865570
  99.5289910  72.4150220  61.0086620  99.8706720  73.2592270  60.7140490
  98.5905720  72.5633960  61.1251960 100.3096530  82.3116240  62.9938850
 100.9270530  82.9867320  62.7123300  99.4489650  82.7204220  62.9026350
 111.2274120  83.7755650  60.9093490 110.5437640  84.4454760  60.9010160
 111.7668410  83.9736300  60.1438350 112.6798260  73.6035310  59.0375220
 111.7323170  73.6374290  59.1690650 113.0048250  74.4174260  59.4224580
 103.2117800  69.9032490  57.3331210 103.5192780  69.3479380  56.6166710
 102.2818500  70.0376950  57.1504200 112.1080400  78.9216840  61.0437520
 111.2799030  78.9909930  60.5687650 112.7030880  79.5071150  60.5753350
 109.0722410  75.7086160  61.9892390 108.6593590  76.5339870  62.2432380
 108.3398360  75.1231200  61.7968750 101.2055200  78.4946060  56.8511060
 100.8012200  77.7823310  56.3556960 101.2918320  78.1499300  57.7399100
  99.9183820  75.2689270  60.6310100 100.4698410  75.3784610  59.8563350
 100.4327330  75.6426870  61.3465330 109.7622510  85.7545490  62.6773370
 109.2853070  86.5617680  62.4845980 109.0784300  85.1023820  62.8299580
 100.7655330  81.9195310  65.6658070  99.8683860  82.1435280  65.9131470
 100.7908200  82.0430250  64.7169470  99.5926550  78.7908630  64.2415440
  99.4534320  79.6631430  64.6102840  98.7107910  78.4481440  64.0963380
 101.3906900  84.7330330  66.4500590 101.3622330  85.1373280  65.5829020
 101.2271870  83.8040690  66.2872190 111.3877690  70.0231240  49.8940370
 111.0750350  70.1158070  50.7939440 112.1490160  70.6012270  49.8437800
  97.9059830  77.3891040  54.3517710  97.7857430  78.1153130  53.7398980
  97.5960720  76.6193950  53.8745620 113.3421720  85.5157430  67.7464760
 113.8181440  85.9940320  68.4253840 113.9628880  85.4474920  67.0210260
 112.7454970  82.7070280  64.9064770 112.8718030  82.4682160  63.9881950
 112.7876350  81.8754820  65.3786850 101.0614490  86.4752150  54.6815200
 100.8856970  85.5587690  54.4683000 100.2070230  86.8339440  54.9213000
 107.8502170  85.8303890  55.5390070 108.3059120  85.0493270  55.8528690
 108.1894690  86.5410710  56.0831250 112.5978980  74.7602740  65.8714510
 111.9823250  75.2682410  65.3429970 112.2775400  73.8601070  65.8140450
 100.3723490  70.7326110  57.7341380  99.9291640  71.5135650  57.4025900
 100.9308480  71.0556000  58.4412320 104.6593300  73.5994630  63.3376700
 104.1972670  73.8077650  64.1496640 104.2571410  72.7853980  63.0347370
 109.6597810  74.8203580  64.4673360 108.8091400  74.5209330  64.7882430
 109.4999600  75.0645590  63.5557180 102.4099390  71.2773440  59.5930980
 102.7071720  72.1836270  59.5123000 102.9584950  70.7892220  58.9790550
 100.1637710  75.8559680  55.4622630  99.9378630  75.6396850  56.3669250
  99.3830240  76.2888140  55.1168600 107.3935470  75.8623050  54.0613280
 106.7944360  76.5858850  53.8776900 107.9415080  75.7999830  53.2789730
 106.0000340  74.4986590  56.0916560 106.3929910  74.8158790  55.2785250
 106.3617190  73.6198470  56.2061080  97.7347460  73.1658930  64.2816680
  97.3410850  74.0134140  64.4889460  97.0465860  72.5285300  64.4725320
  95.0364510  71.0887390  58.3146760  94.7477560  71.6590250  59.0271740
  95.7810270  70.6091840  58.6777990  95.2234740  75.0307510  49.5249480
  95.1409410  75.9738270  49.6664470  94.8717800  74.8882420  48.6461830
 103.0232870  73.7646540  58.5919830 103.0268930  73.3236490  57.7424370
 103.9183990  74.0863870  58.6991650  98.8735250  73.6473030  57.5514040
  98.5335300  74.1248260  58.3081090  98.1112570  73.1938150  57.1915140
 103.0853020  74.7658620  51.5826590 103.2065840  74.7245100  52.5312410
 102.7001530  75.6282770  51.4273320 107.0481390  72.5426020  59.5990280
 107.0654130  72.9934670  60.4432130 106.7996970  71.6431660  59.8123720
 110.4752140  69.9558200  65.4376660 110.7997910  69.2247860  65.9634640
 110.5108650  69.6371840  64.5357650 103.3240840  77.8248320  60.3385240
 103.6910970  77.3506890  61.0846580 103.1345900  78.6989890  60.6793580
  96.1881330  72.5692010  56.4678710  95.9028250  72.2047680  57.3057330
  96.1260190  71.8372470  55.8541850 101.1140210  76.8656960  62.6569450
 100.8097280  77.7448940  62.8819810 102.0686670  76.9256750  62.6926890
 105.7828780  80.1392370  64.9331690 105.7166090  79.2188040  64.6789280
 105.1533920  80.2367810  65.6476330 108.5768310  75.8340920  51.4854240
 109.4647930  76.1458150  51.3105580 108.5473400  74.9613170  51.0934820
  99.6859400  80.7398330  56.8915110 100.2038070  79.9366590  56.8372000
  99.2343420  80.6777470  57.7331940  97.1703940  77.7059700  63.8040810
  96.8118880  78.3713550  64.3914150  96.8758500  76.8743250  64.1753430
 100.3717060  78.1643940  66.6880360 100.0717200  78.3101120  65.7908180
 101.1428300  77.6049230  66.5953750 105.7145510  82.9612940  64.6835490
 105.7290050  82.0293900  64.4654400 105.0070610  83.0472700  65.3225260
 110.8482580  77.1452760  50.9534100 110.7646300  77.5766980  50.1030540
 111.5676770  77.6051110  51.3860920 111.9256720  79.6020280  64.0304070
 111.2004910  80.1949060  63.8333460 112.4532180  79.5943820  63.2317440
 102.8446800  79.0924170  54.5483690 103.3009580  79.9029420  54.7743880
 102.4935010  78.7747310  55.3802180  98.7458580  69.4361820  55.0206210
  98.6173210  69.4279720  55.9691130  97.9220600  69.7744910  54.6697220
 108.1949110  83.4057760  63.6989500 108.5305350  83.9924450  64.3767420
 107.2749450  83.2750470  63.9287290 104.0237690  83.4549090  66.8677560
 103.7034560  82.7358330  67.4123250 103.3496050  84.1304160  66.9413620
 107.2391290  73.6875250  62.2314360 107.6072110  72.8670460  62.5593930
 106.3789490  73.7477140  62.6470010 105.0511460  84.3637780  50.4735900
 105.1523440  84.1601770  49.5437880 104.1513200  84.1096060  50.6783680
 102.5737350  74.9218140  54.4559800 101.8653500  75.3904480  54.8973410
 102.8581830  74.2640150  55.0904990 104.1993280  76.3414840  62.4552330
 104.6978530  76.8160660  63.1204180 104.3416230  75.4178360  62.6622360
 103.6929570  86.8824100  55.1683570 103.9471070  86.8445490  54.2462940
 102.7442050  86.7557430  55.1611820 100.7772370  73.2303220  51.8310510
 101.6262900  73.6673370  51.7650700 100.4103640  73.5423480  52.6582570
 111.4060140  72.5582800  63.2980720 110.9033740  73.2988200  63.6374530
 112.2216800  72.9466800  62.9817510  98.3710550  76.9160650  50.9878930
  98.4514140  75.9688160  51.0996330  99.2630300  77.2467530  51.0939590
 111.7007730  84.9724830  58.4196340 111.8255150  85.7956000  58.8920150
 112.5673290  84.7615560  58.0720490  99.1725260  87.0656040  58.0913470
  99.9087740  86.5171500  58.3622040  99.5566180  87.9312050  57.9519460
  96.0570740  83.1329610  53.9654980  95.1310520  83.3750750  53.9560390
  96.5227170  83.9603870  53.8439730  98.1783540  86.2502110  67.2799050
  98.9796270  86.5714160  67.6934450  97.6635360  85.8897690  68.0018960
 107.0148170  82.3581980  67.2274460 106.4086330  82.3813580  66.4870210
 106.7102280  81.6265020  67.7641710 108.4448540  86.0862270  65.8383870
 109.3970290  86.0020290  65.7884110 108.2976760  86.7503980  66.5117660
  95.8981350  78.7375570  66.2235100  96.4020370  78.1582850  66.7951330
  95.1588770  79.0215800  66.7611470 102.9519290  80.1446560  65.7570620
 102.1864960  80.7131560  65.6725290 103.1335250  79.8522770  64.8638850
  97.9304430  76.8805160  67.1185170  97.9709770  76.5819030  68.0270400
  98.7849930  77.2812770  66.9592690  99.8710240  75.4597260  65.0859660
  99.3406700  74.9688210  64.4583000 100.5398310  75.8881460  64.5517590
 108.7688300  79.9266720  64.8500850 109.1829320  80.0811800  65.6991270
 107.8339300  80.0521940  65.0126630 109.2410470  77.2662880  66.8540000
 109.8231240  76.5115200  66.7660480 109.4172240  77.7970320  66.0771480
 100.3582540  72.4259630  65.1656950 100.2639410  71.8080380  64.4407820
  99.7779930  73.1525920  64.9386860 103.1243980  70.9832870  62.1984340
 102.6761280  71.0057130  61.3529890 102.4909180  70.5851890  62.7954640
 103.5303530  79.8787200  62.8196780 103.9491640  80.7219930  62.6473020
 102.6112160  80.0159240  62.5903560 105.8667430  77.6103380  64.2034620
 105.9863640  77.0144520  64.9429460 106.7261430  77.6473070  63.7835920
 101.3810950  86.1840210  63.9354510 100.8432040  86.9086270  63.6163210
 101.6344910  85.7070550  63.1451850 107.4529630  73.7690540  65.6943460
 106.7645150  73.1072080  65.6293450 108.1735650  73.3228810  66.1391920
  99.4024520  72.6534560  49.2124720  99.7050420  72.6601990  48.3043870
 100.1419110  72.3032420  49.7092380 104.2373160  87.4191420  64.1941160
 104.1631860  88.3226560  64.5013530 103.3352000  87.1003320  64.1663230
 100.2362370  83.0775020  55.1576750  99.9357910  82.9539990  56.0580660
 100.1299860  82.2183610  54.7492480 111.7652840  85.1153600  64.5233720
 111.1654830  85.1746160  63.7797640 111.8946740  84.1758580  64.6530570
 112.4610750  79.6018900  52.3637630 113.2229660  80.1715550  52.4697320
 112.4765120  79.0346100  53.1345940  95.9615090  78.1256830  56.5945290
  95.3063930  77.8568470  55.9504990  96.7993040  78.0161310  56.1447270
 113.4670720  80.4569000  57.2079560 113.8379550  79.6736320  56.8015530
 114.1072650  81.1458100  57.0296860 110.4504480  81.8405580  62.6209880
 109.6364320  82.2702740  62.8835670 110.8578680  82.4523990  62.0078930
 112.5129920  79.8953270  49.5210150 112.7878760  80.8032150  49.3929370
 112.3240660  79.8315800  50.4572140 112.4095260  77.8322260  54.5139580
 112.0338860  77.0650190  54.0820870 111.6798380  78.2144960  55.0014510
  96.9991020  78.5109400  61.1348630  97.3664060  78.4236800  62.0144650
  96.4301840  77.7475950  61.0355490 111.7994880  76.9793780  64.1479100
 111.5680970  76.7506530  63.2477050 112.0599430  77.8993330  64.1023990
  96.5507020  75.4218490  65.0407050  95.6563070  75.3885250  65.3800760
  97.0904570  75.6205280  65.8058300 110.2382950  72.2050210  66.9258800
 111.1153130  72.2133610  67.3092800 110.2503790  71.4681050  66.3151150
  95.1753170  75.3355760  52.5370620  94.2717250  75.5985960  52.3622280
  95.6593790  75.6066930  51.7570580 111.8635940  76.1419620  61.3366370
 110.9138650  76.1083160  61.4511360 112.0448950  77.0519730  61.1016140
  97.7180380  74.3921300  50.4465000  98.4272080  73.9704520  49.9612280
  97.0020320  74.4596530  49.8148350  97.3654540  70.4460630  49.4867650
  98.0882670  70.9869570  49.8048870  97.6379060  70.1724050  48.6109190
  97.0546730  69.6966820  59.3890270  97.7022920  69.1464200  58.9485430
  97.4748570  69.9509970  60.2106080 113.4923620  71.7821970  49.5283050
 114.4172930  71.6503150  49.3201340 113.4699410  71.8614790  50.4819500
 110.5080530  86.5924180  56.1478150 111.1039600  86.2708750  55.4712570
 110.7658680  86.1196000  56.9391420  96.8078730  69.8522490  62.1315590
  96.4593550  70.3086310  62.8973770  96.4766430  68.9579620  62.2138020
  98.4143100  83.0242090  66.2968780  98.3712730  82.6535000  67.1783240
  98.5454110  83.9619660  66.4370600 104.3203550  71.0434370  65.6535010
 104.2592440  71.6356200  66.4030420 105.2603930  70.9360330  65.5085270
 106.9578110  70.7004430  65.2927300 107.5718520  71.0183720  64.6308380
 107.5027670  70.2153020  65.9123160 107.6986150  69.2636570  61.6196590
 106.8245990  69.5971680  61.4169520 107.5896900  68.7909750  62.4448460
 108.6058130  71.4707440  63.0038310 108.2771490  70.6559200  62.6240040
 109.5540430  71.4277250  62.8804000 101.4888460  85.5507720  59.1524010
 102.0053480  84.9395080  58.6272270 102.1385840  86.0536500  59.6435020
 105.4460970  70.1806410  60.5589500 104.6632760  70.6551910  60.8386260
 105.1523900  69.2761240  60.4502680 109.9982040  70.8829510  58.6038590
 110.4390130  70.8274610  57.7560190 109.7289630  71.7987520  58.6748770
 111.8620610  70.5144750  56.6147410 111.8009010  69.5705970  56.4678430
 112.6412640  70.6224840  57.1600870  96.1673360  86.6537110  55.5771360
  95.9995400  86.0207790  56.2753250  95.3007870  86.8596510  55.2265550
  96.7901380  70.4853890  53.0803220  97.5480740  70.5982770  52.5067250
  96.3278550  71.3223090  53.0346650  99.1626530  71.0117940  51.6205190
  99.6919290  70.2247740  51.4913140  99.7954850  71.6909130  51.8540720
 104.2956320  87.3632310  67.3461190 105.2223630  87.1276580  67.3897150
 104.2806750  88.1904310  66.8647220 112.5301380  86.9057880  54.3435440
 112.7053570  86.2195620  53.6996360 111.8322950  87.4304930  53.9512110
 101.4819930  70.0277060  67.1103070 101.2004200  70.5310660  66.3463890
 101.8639630  69.2298810  66.7445200 108.0835390  69.4430640  67.6883540
 107.9700840  69.7625250  68.5835060 108.9005130  69.8443150  67.3920820
 110.8633880  86.5902170  67.1702230 111.6559200  86.0951400  66.9628190
 111.1567030  87.2692310  67.7777840 106.9893540  77.4623110  38.0518280
 106.9087590  76.5477720  37.7809990 106.5757960  77.9590180  37.3457990
 105.1211580  79.2402130  39.9327550 104.3453680  78.7602570  40.2226120
 105.7724510  78.5607780  39.7583710 109.1419010  83.6462320  38.7126680
 108.6800540  82.8749560  39.0413850 109.9544560  83.6728390  39.2179130
  99.1178670  83.5862030  41.0061330  99.4206710  82.6959770  40.8271550
  99.8622260  84.1432250  40.7783580  97.5469360  74.5123830  34.5945700
  96.6586060  74.8539800  34.4925580  97.8310550  74.3124150  33.7026530
  95.5102370  77.1129480  40.4785400  96.0818480  76.3451680  40.4789040
  95.5103910  77.4118240  39.5692010 105.3682320  85.9320330  38.3330670
 104.7493760  86.3877830  37.7625110 106.2234100  86.0871790  37.9320370
 104.5620570  81.9159320  39.9397710 104.4928850  80.9749260  39.7786840
 105.3240430  82.0060730  40.5120280  96.7527240  72.5213840  42.2654330
  96.5730080  71.6239590  42.5457090  96.3507320  73.0685710  42.9401280
  99.7230750  73.0955330  35.6284080  99.8297500  73.9959060  35.9352840
  98.8123110  73.0473300  35.3378730  97.3713910  75.0174340  40.8736670
  98.0524020  75.2812710  41.4924070  97.0561960  74.1775210  41.2074680
 106.2345670  80.8159570  35.7262580 105.6162940  81.2809020  35.1625300
 106.7468920  81.5087050  36.1432090 101.0977430  80.3435440  42.4046180
 100.7646810  80.9704360  43.0467250 101.2744110  80.8697320  41.6247850
 109.6111340  74.1580520  39.8722520 108.9066910  74.4465410  40.4525630
 109.9723500  74.9680630  39.5122080 100.3096530  82.3116240  44.2195360
 100.9270530  82.9867320  43.9379810  99.4489650  82.7204220  44.1282860
 111.2274120  83.7755650  42.1350000 110.5437640  84.4454760  42.1266670
 111.7668410  83.9736300  41.3694860 112.6798260  73.6035310  40.2631730
 111.7323170  73.6374290  40.3947160 113.0048250  74.4174260  40.6481090
 108.7632860  85.6199780  40.8495180 108.7760020  85.2162070  39.9817440
 108.2108080  86.3947070  40.7456610 110.0578280  82.3416000  35.9385350
 109.9474610  81.3990330  36.0634770 110.0546530  82.7031640  36.8248110
 105.5998560  77.9681320  35.2947840 104.6727840  77.9018700  35.5236310
 105.7523380  78.9061450  35.1803080 109.6295850  79.5301620  35.7983090
 109.0108270  79.1921170  35.1509390 109.6120300  78.8861380  36.5062280
 101.6736900  82.1813620  40.2406780 101.3765190  81.5759090  39.5614560
 102.6236720  82.2190930  40.1296140 109.7622510  85.7545490  43.9029880
 109.2853070  86.5617680  43.7102490 109.0784300  85.1023820  44.0556090
 107.8060550  78.7688430  32.8055840 108.2453830  77.9310860  32.6593660
 108.5188970  79.4017830  32.8919980  99.5926550  78.7908630  45.4671950
  99.4534320  79.6631430  45.8359350  98.7107910  78.4481440  45.3219890
 105.9155930  83.7084500  36.7737080 106.3551840  84.4508830  36.3592470
 105.8542820  83.9511070  37.6976040 101.3906900  84.7330330  47.6757100
 101.3622330  85.1373280  46.8085530 101.2271870  83.8040690  47.5128700
  97.9059830  77.3891040  35.5774220  97.7857430  78.1153130  34.9655490
  97.5960720  76.6193950  35.1002130  95.5445200  80.5606180  41.3842860
  95.6225620  80.6954950  40.4398580  96.1586880  79.8522070  41.5770980
 112.7454970  82.7070280  46.1321280 112.8718030  82.4682160  45.2138460
 112.7876350  81.8754820  46.6043360 106.6071710  86.4098280  44.7016090
 107.1216380  86.3206290  45.5038520 105.7640790  86.7557980  44.9944000
 107.8502170  85.8303890  36.7646580 108.3059120  85.0493270  37.0785200
 108.1894690  86.5410710  37.3087760 100.3723490  70.7326110  38.9597890
  99.9291640  71.5135650  38.6282410 100.9308480  71.0556000  39.6668830
 100.1637710  75.8559680  36.6879140  99.9378630  75.6396850  37.5925760
  99.3830240  76.2888140  36.3425110 107.3935470  75.8623050  35.2869790
 106.7944360  76.5858850  35.1033410 107.9415080  75.7999830  34.5046240
 106.0000340  74.4986590  37.3173070 106.3929910  74.8158790  36.5041760
 106.3617190  73.6198470  37.4317590  97.7347460  73.1658930  45.5073190
  97.3410850  74.0134140  45.7145970  97.0465860  72.5285300  45.6981830
 104.3092510  73.2493900  48.5769930 103.6190830  73.0566100  49.2116020
 105.0524810  73.5328540  49.1094230  95.0364510  71.0887390  39.5403270
  94.7477560  71.6590250  40.2528250  95.7810270  70.6091840  39.9034500
  95.2234740  75.0307510  30.7505990  95.1409410  75.9738270  30.8920980
  94.8717800  74.8882420  29.8718340  98.8735250  73.6473030  38.7770550
  98.5335300  74.1248260  39.5337600  98.1112570  73.1938150  38.4171650
  96.1881330  72.5692010  37.6935220  95.9028250  72.2047680  38.5313840
  96.1260190  71.8372470  37.0798360 105.7828780  80.1392370  46.1588200
 105.7166090  79.2188040  45.9045790 105.1533920  80.2367810  46.8732840
 108.5768310  75.8340920  32.7110750 109.4647930  76.1458150  32.5362090
 108.5473400  74.9613170  32.3191330 105.7145510  82.9612940  45.9092000
 105.7290050  82.0293900  45.6910910 105.0070610  83.0472700  46.5481770
 110.8482580  77.1452760  32.1790610 110.7646300  77.5766980  31.3287050
 111.5676770  77.6051110  32.6117430 107.4556310  81.3280450  38.7544430
 107.8080130  80.7308580  38.0945800 106.5718640  81.0024680  38.9252680
 105.1479410  84.6030510  43.0032500 105.7921630  84.8089890  43.6805920
 105.5108850  83.8418910  42.5503350 106.4211490  82.6062860  41.7209950
 107.0633720  81.9056020  41.8342120 106.9460840  83.3861300  41.5406840
 108.1949110  83.4057760  44.9246010 108.5305350  83.9924450  45.6023930
 107.2749450  83.2750470  45.1543800  96.0483240  86.9178340  32.2193550
  96.4080880  87.5167680  31.5650820  95.9075580  87.4638230  32.9928580
  95.7452510  71.1952940  45.7069420  95.0311030  71.3949860  46.3122030
  96.1647550  70.4192510  46.0784220 109.8483460  80.8083420  33.1063250
 109.5605160  81.2696110  33.8941130 110.6435630  80.3481190  33.3747470
 104.0237690  83.4549090  48.0934070 103.7034560  82.7358330  48.6379760
 103.3496050  84.1304160  48.1670130 105.0511460  84.3637780  31.6992410
 105.1523440  84.1601770  30.7694390 104.1513200  84.1096060  31.9040190
 102.5737350  74.9218140  35.6816310 101.8653500  75.3904480  36.1229920
 102.8581830  74.2640150  36.3161500 111.7007730  84.9724830  39.6452850
 111.8255150  85.7956000  40.1176660 112.5673290  84.7615560  39.2977000
 102.2827570  86.2386350  31.1395550 103.0756180  86.5275180  30.6877340
 101.7631920  85.8078520  30.4608030 107.0148170  82.3581980  48.4530970
 106.4086330  82.3813580  47.7126720 106.7102280  81.6265020  48.9898220
 108.4448540  86.0862270  47.0640380 109.3970290  86.0020290  47.0140620
 108.2976760  86.7503980  47.7374170 106.0407700  80.5209790  31.6079890
 105.4917800  80.9679090  32.2522630 106.6626960  80.0159040  32.1317560
 110.0942640  81.8751890  47.5402150 110.8352110  82.2127650  47.0369610
 109.3315320  82.0443950  46.9871920  99.8710240  75.4597260  46.3116170
  99.3406700  74.9688210  45.6839510 100.5398310  75.8881460  45.7774100
 108.7688300  79.9266720  46.0757360 109.1829320  80.0811800  46.9247780
 107.8339300  80.0521940  46.2383140 103.5303530  79.8787200  44.0453290
 103.9491640  80.7219930  43.8729530 102.6112160  80.0159240  43.8160070
 101.3810950  86.1840210  45.1611020 100.8432040  86.9086270  44.8419720
 101.6344910  85.7070550  44.3708360 104.2373160  87.4191420  45.4197670
 104.1631860  88.3226560  45.7270040 103.3352000  87.1003320  45.3919740
  95.6400450  84.7466010  38.7231290  95.9703460  83.8787070  38.4909930
  96.0691450  84.9524530  39.5536250  96.1290660  85.6136600  41.4612920
  95.6921650  85.7937400  42.2937070  96.6968340  86.3711220  41.3194640
 111.7652840  85.1153600  45.7490230 111.1654830  85.1746160  45.0054150
 111.8946740  84.1758580  45.8787080 112.4610750  79.6018900  33.5894140
 113.2229660  80.1715550  33.6953830 112.4765120  79.0346100  34.3602450
  95.9615090  78.1256830  37.8201800  95.3063930  77.8568470  37.1761500
  96.7993040  78.0161310  37.3703780 112.5129920  79.8953270  30.7466660
 112.7878760  80.8032150  30.6185880 112.3240660  79.8315800  31.6828650
  96.9991020  78.5109400  42.3605140  97.3664060  78.4236800  43.2401160
  96.4301840  77.7475950  42.2612000  96.5507020  75.4218490  46.2663560
  95.6563070  75.3885250  46.6057270  97.0904570  75.6205280  47.0314810
  95.1753170  75.3355760  33.7627130  94.2717250  75.5985960  33.5878790
  95.6593790  75.6066930  32.9827090 111.6846220  76.0579750  39.0403330
 112.2083700  75.5642400  38.4093500 112.2705640  76.1930110  39.7850900
  97.3654540  70.4460630  30.7124160  98.0882670  70.9869570  31.0305380
  97.6379060  70.1724050  29.8365700 111.1746190  75.3153100  34.9795740
 111.6705310  75.0823970  35.7644620 110.9762260  74.4764940  34.5633380
  97.0546730  69.6966820  40.6146780  97.7022920  69.1464200  40.1741940
  97.4748570  69.9509970  41.4362590 112.6033350  73.9514050  37.5133420
 112.4932630  73.7970090  38.4515690 113.3640940  73.4234990  37.2708830
 113.4923620  71.7821970  30.7539560 114.4172930  71.6503150  30.5457850
 113.4699410  71.8614790  31.7076010 110.5080530  86.5924180  37.3734660
 111.1039600  86.2708750  36.6969080 110.7658680  86.1196000  38.1647930
  96.8078730  69.8522490  43.3572100  96.4593550  70.3086310  44.1230280
  96.4766430  68.9579620  43.4394530 102.1149130  84.5801680  43.1235010
 101.8740490  84.8476240  42.2365530 103.0551770  84.7507410  43.1785870
 113.3753290  86.5996060  43.9245650 112.8811570  86.9964930  43.2072780
 112.7666580  85.9745270  44.3182930  97.4799370  69.3798690  46.6322870
  98.0282360  69.1986740  45.8688980  97.5454680  68.5892800  47.1679180
  98.2531130  85.9704340  44.6423070  97.6591450  85.8389040  45.3813110
  98.2454970  85.1342480  44.1765170 107.6986150  69.2636570  42.8453100
 106.8245990  69.5971680  42.6426030 107.5896900  68.7909750  43.6704970
 111.0592740  87.2419480  41.2032390 110.5995710  87.9935290  40.8290410
 110.4305200  86.5225950  41.1447190  97.8843360  83.3362720  43.5931110
  97.1577420  82.7168010  43.5257060  97.9452510  83.7303330  42.7229190
 104.2283960  86.4416210  41.2049500 104.5161770  86.1870510  40.3282510
 104.7407180  85.8893570  41.7955070 105.4460970  70.1806410  41.7846010
 104.6632760  70.6551910  42.0642770 105.1523900  69.2761240  41.6759190
  96.1673360  86.6537110  36.8027870  95.9995400  86.0207790  37.5009760
  95.3007870  86.8596510  36.4522060  96.7901380  70.4853890  34.3059730
  97.5480740  70.5982770  33.7323760  96.3278550  71.3223090  34.2603160
  99.1626530  71.0117940  32.8461700  99.6919290  70.2247740  32.7169650
  99.7954850  71.6909130  33.0797230 104.2956320  87.3632310  48.5717700
 105.2223630  87.1276580  48.6153660 104.2806750  88.1904310  48.0903730
 108.0835390  69.4430640  48.9140050 107.9700840  69.7625250  49.8091570
 108.9005130  69.8443150  48.6177330 110.8633880  86.5902170  48.3958740
 111.6559200  86.0951400  48.1884700 111.1567030  87.2692310  49.0034350
 106.9893540  77.4623110  19.2774790 106.9087590  76.5477720  19.0066500
 106.5757960  77.9590180  18.5714500 105.1211580  79.2402130  21.1584060
 104.3453680  78.7602570  21.4482630 105.7724510  78.5607780  20.9840220
 109.1419010  83.6462320  19.9383190 108.6800540  82.8749560  20.2670360
 109.9544560  83.6728390  20.4435640  97.5469360  74.5123830  15.8202210
  96.6586060  74.8539800  15.7182090  97.8310550  74.3124150  14.9283040
  95.5102370  77.1129480  21.7041910  96.0818480  76.3451680  21.7045550
  95.5103910  77.4118240  20.7948520 105.3682320  85.9320330  19.5587180
 104.7493760  86.3877830  18.9881620 106.2234100  86.0871790  19.1576880
  96.7527240  72.5213840  23.4910840  96.5730080  71.6239590  23.7713600
  96.3507320  73.0685710  24.1657790 105.5925740  74.7229700  21.3923150
 105.9690560  73.8501580  21.2796820 105.4945250  75.0588400  20.5013590
  99.7230750  73.0955330  16.8540590  99.8297500  73.9959060  17.1609350
  98.8123110  73.0473300  16.5635240 109.3749860  72.2180140  18.3251490
 110.1959480  71.7276710  18.3676970 109.4083940  72.8077800  19.0783330
  97.3713910  75.0174340  22.0993180  98.0524020  75.2812710  22.7180580
  97.0561960  74.1775210  22.4331190 101.5638480  76.0641700  21.1865770
 102.0716700  76.5622670  21.8270790 102.0951720  75.2876900  21.0105130
 106.2345670  80.8159570  16.9519090 105.6162940  81.2809020  16.3881810
 106.7468920  81.5087050  17.3688600 109.6111340  74.1580520  21.0979030
 108.9066910  74.4465410  21.6782140 109.9723500  74.9680630  20.7378590
  99.5289910  72.4150220  23.4599640  99.8706720  73.2592270  23.1653510
  98.5905720  72.5633960  23.5764980 111.2274120  83.7755650  23.3606510
 110.5437640  84.4454760  23.3523180 111.7668410  83.9736300  22.5951370
 103.2117800  69.9032490  19.7844230 103.5192780  69.3479380  19.0679730
 102.2818500  70.0376950  19.6017220 108.7632860  85.6199780  22.0751690
 108.7760020  85.2162070  21.2073950 108.2108080  86.3947070  21.9713120
 110.0578280  82.3416000  17.1641860 109.9474610  81.3990330  17.2891280
 110.0546530  82.7031640  18.0504620 108.1618300  80.5229620  23.4034300
 108.5787090  80.3089730  22.5687760 108.8858120  80.7802410  23.9742920
 105.5998560  77.9681320  16.5204350 104.6727840  77.9018700  16.7492820
 105.7523380  78.9061450  16.4059590 105.5867640  74.2398320  13.5171510
 104.6471310  74.4012280  13.6023970 105.9050900  74.9584000  12.9707500
 112.1080400  78.9216840  23.4950540 111.2799030  78.9909930  23.0200670
 112.7030880  79.5071150  23.0266370 109.6295850  79.5301620  17.0239600
 109.0108270  79.1921170  16.3765900 109.6120300  78.8861380  17.7318790
 109.0722410  75.7086160  24.4405410 108.6593590  76.5339870  24.6945400
 108.3398360  75.1231200  24.2481770 101.2055200  78.4946060  19.3024080
 100.8012200  77.7823310  18.8069980 101.2918320  78.1499300  20.1912120
  99.9183820  75.2689270  23.0823120 100.4698410  75.3784610  22.3076370
 100.4327330  75.6426870  23.7978350 109.7622510  85.7545490  25.1286390
 109.2853070  86.5617680  24.9359000 109.0784300  85.1023820  25.2812600
 107.8060550  78.7688430  14.0312350 108.2453830  77.9310860  13.8850170
 108.5188970  79.4017830  14.1176490 105.9155930  83.7084500  17.9993590
 106.3551840  84.4508830  17.5848980 105.8542820  83.9511070  18.9232550
 111.3877690  70.0231240  12.3453390 111.0750350  70.1158070  13.2452460
 112.1490160  70.6012270  12.2950820  97.9059830  77.3891040  16.8030730
  97.7857430  78.1153130  16.1912000  97.5960720  76.6193950  16.3258640
  95.5445200  80.5606180  22.6099370  95.6225620  80.6954950  21.6655090
  96.1586880  79.8522070  22.8027490 112.7454970  82.7070280  27.3577790
 112.8718030  82.4682160  26.4394970 112.7876350  81.8754820  27.8299870
 106.6071710  86.4098280  25.9272600 107.1216380  86.3206290  26.7295030
 105.7640790  86.7557980  26.2200510 108.5826110  86.6953620  15.3556600
 108.4227250  86.4056560  16.2538430 108.4172820  85.9193750  14.8201830
 108.2852240  84.2041180  13.9154600 107.5917400  84.2018470  13.2556880
 109.0275100  83.7800500  13.4848770 107.8502170  85.8303890  17.9903090
 108.3059120  85.0493270  18.3041710 108.1894690  86.5410710  18.5344270
 112.5978980  74.7602740  28.3227530 111.9823250  75.2682410  27.7942990
 112.2775400  73.8601070  28.2653470 100.3723490  70.7326110  20.1854400
  99.9291640  71.5135650  19.8538920 100.9308480  71.0556000  20.8925340
 109.6597810  74.8203580  26.9186380 108.8091400  74.5209330  27.2395450
 109.4999600  75.0645590  26.0070200 106.7547520  76.3205330  29.0185170
 107.0800930  75.4869080  28.6787400 107.5427850  76.8433850  29.1663500
 103.4882310  70.3536810  15.0660230 102.8636490  70.3496680  15.7913540
 103.4012430  69.4867770  14.6696200 100.1637710  75.8559680  17.9135650
  99.9378630  75.6396850  18.8182270  99.3830240  76.2888140  17.5681620
 107.3935470  75.8623050  16.5126300 106.7944360  76.5858850  16.3289920
 107.9415080  75.7999830  15.7302750 106.0000340  74.4986590  18.5429580
 106.3929910  74.8158790  17.7298270 106.3617190  73.6198470  18.6574100
  95.0364510  71.0887390  20.7659780  94.7477560  71.6590250  21.4784760
  95.7810270  70.6091840  21.1291010  95.2234740  75.0307510  11.9762500
  95.1409410  75.9738270  12.1177490  94.8717800  74.8882420  11.0974850
 106.5855480  77.0892340  22.6380360 105.8536600  77.5979150  22.9870460
 106.1879820  76.2722320  22.3369140 103.0232870  73.7646540  21.0432850
 103.0268930  73.3236490  20.1937390 103.9183990  74.0863870  21.1504670
  98.8735250  73.6473030  20.0027060  98.5335300  74.1248260  20.7594110
  98.1112570  73.1938150  19.6428160 103.0853020  74.7658620  14.0339610
 103.2065840  74.7245100  14.9825430 102.7001530  75.6282770  13.8786340
 107.0481390  72.5426020  22.0503300 107.0654130  72.9934670  22.8945150
 106.7996970  71.6431660  22.2636740 102.0974520  77.0759760  13.4322910
 101.5291420  76.6278010  12.8058820 102.8063520  77.4352540  12.8988060
 110.4752140  69.9558200  27.8889680 110.7997910  69.2247860  28.4147660
 110.5108650  69.6371840  26.9870670 103.3240840  77.8248320  22.7898260
 103.6910970  77.3506890  23.5359600 103.1345900  78.6989890  23.1306600
  96.1881330  72.5692010  18.9191730  95.9028250  72.2047680  19.7570350
  96.1260190  71.8372470  18.3054870 110.4009980  80.0683310  21.4975710
 111.1209100  80.5638600  21.1071820 110.1991800  79.3901200  20.8529580
 105.8619920  71.4621270  15.6405100 105.0484530  70.9634440  15.5650410
 105.6681870  72.3019520  15.2241450 105.7828780  80.1392370  27.3844710
 105.7166090  79.2188040  27.1302300 105.1533920  80.2367810  28.0989350
 108.5768310  75.8340920  13.9367260 109.4647930  76.1458150  13.7618600
 108.5473400  74.9613170  13.5447840 104.5728900  82.0064610  14.6155430
 104.9144600  82.7506840  14.1198750 103.7441610  82.3195730  14.9780260
 105.7145510  82.9612940  27.1348510 105.7290050  82.0293900  26.9167420
 105.0070610  83.0472700  27.7738280 110.8482580  77.1452760  13.4047120
 110.7646300  77.5766980  12.5543560 111.5676770  77.6051110  13.8373940
 111.9256720  79.6020280  26.4817090 111.2004910  80.1949060  26.2846480
 112.4532180  79.5943820  25.6830460 111.8769830  83.9995020  16.1329250
 111.2345990  83.3450640  16.4072970 111.4900490  84.4050110  15.3569920
 107.4556310  81.3280450  19.9800940 107.8080130  80.7308580  19.3202310
 106.5718640  81.0024680  20.1509190 103.5419590  82.0878140  17.3871350
 104.2290720  82.6347350  17.7678940 102.7552010  82.6318870  17.4220960
  95.6811990  77.7050960  12.8788430  96.5506840  77.9875760  13.1624350
  95.1902310  78.5186830  12.7637240 102.8446800  79.0924170  16.9996710
 103.3009580  79.9029420  17.2256900 102.4935010  78.7747310  17.8315200
 105.1479410  84.6030510  24.2289010 105.7921630  84.8089890  24.9062430
 105.5108850  83.8418910  23.7759860  98.7458580  69.4361820  17.4719230
  98.6173210  69.4279720  18.4204150  97.9220600  69.7744910  17.1210240
 106.4211490  82.6062860  22.9466460 107.0633720  81.9056020  23.0598630
 106.9460840  83.3861300  22.7663350 110.2667210  82.8911480  12.6705600
 110.0404790  82.1741920  13.2630240 109.8763410  82.6423920  11.8327350
 109.8483460  80.8083420  14.3319760 109.5605160  81.2696110  15.1197640
 110.6435630  80.3481190  14.6003980 102.0651860  84.3009540  14.2623730
 102.0561960  85.0339230  13.6468240 101.1450220  84.0541120  14.3550690
 107.2391290  73.6875250  24.6827380 107.6072110  72.8670460  25.0106950
 106.3789490  73.7477140  25.0983030 110.6053320  72.6432190  15.4914940
 109.9766480  72.7477860  14.7773170 110.1105240  72.8628970  16.2808820
 105.0511460  84.3637780  12.9248920 105.1523440  84.1601770  11.9950900
 104.1513200  84.1096060  13.1296700 102.5737350  74.9218140  16.9072820
 101.8653500  75.3904480  17.3486430 102.8581830  74.2640150  17.5418010
 104.1993280  76.3414840  24.9065350 104.6978530  76.8160660  25.5717200
 104.3416230  75.4178360  25.1135380 106.6052780  71.6468800  18.3468610
 106.4820560  71.6654930  17.3978120 107.5537340  71.6947740  18.4667010
 103.6929570  86.8824100  17.6196590 103.9471070  86.8445490  16.6975960
 102.7442050  86.7557430  17.6124840 100.7772370  73.2303220  14.2823530
 101.6262900  73.6673370  14.2163720 100.4103640  73.5423480  15.1095590
 109.6982150  77.8015980  19.1955100 108.7572290  77.8166210  19.3702790
 110.0126220  77.0151940  19.6415400  99.6763790  79.4835580  12.7559060
 100.4427060  79.3716940  13.3184490  99.7538480  78.7873550  12.1035830
  98.3710550  76.9160650  13.4391950  98.4514140  75.9688160  13.5509350
  99.2630300  77.2467530  13.5452610 111.7007730  84.9724830  20.8709360
 111.8255150  85.7956000  21.3433170 112.5673290  84.7615560  20.5233510
  99.1725260  87.0656040  20.5426490  99.9087740  86.5171500  20.8135060
  99.5566180  87.9312050  20.4032480 102.2827570  86.2386350  12.3652060
 103.0756180  86.5275180  11.9133850 101.7631920  85.8078520  11.6864540
 111.3357740  85.4656480  13.7888800 111.0499250  85.0521620  12.9742980
 111.1377290  86.3944190  13.6689320 102.8004970  81.4589760  12.2294410
 102.6955610  80.8442110  12.9555790 102.6329190  80.9355650  11.4457420
 106.0407700  80.5209790  12.8336400 105.4917800  80.9679090  13.4779140
 106.6626960  80.0159040  13.3574070 101.7082820  79.4800710  14.7301700
 102.1299240  79.3140580  15.5733090 101.8333660  78.6700940  14.2356840
 104.2210460  78.5038320  11.9778800 104.7416120  77.7887340  11.6119950
 104.8678860  79.1424190  12.2779310 108.7688300  79.9266720  27.3013870
 109.1829320  80.0811800  28.1504290 107.8339300  80.0521940  27.4639650
 109.2410470  77.2662880  29.3053020 109.8231240  76.5115200  29.2173500
 109.4172240  77.7970320  28.5284500 105.8667430  77.6103380  26.6547640
 105.9863640  77.0144520  27.3942480 106.7261430  77.6473070  26.2348940
 108.2055330  78.1640570  25.2310150 107.6790550  78.6883190  24.6275290
 108.5486670  78.7967960  25.8619880 100.6041720  75.5533940  11.6759860
 100.4030780  74.6901300  12.0373200 100.4333770  75.4667300  10.7381460
 101.3810950  86.1840210  26.3867530 100.8432040  86.9086270  26.0676230
 101.6344910  85.7070550  25.5964870 108.0830030  70.3642170  14.2046740
 108.3632320  69.5210070  14.5606160 107.3095760  70.5965280  14.7185490
  99.4024520  72.6534560  11.6637740  99.7050420  72.6601990  10.7556890
 100.1419110  72.3032420  12.1605400 104.2373160  87.4191420  26.6454180
 104.1631860  88.3226560  26.9526550 103.3352000  87.1003320  26.6176250
 102.6209450  71.5969180  12.6493940 102.2731450  70.9193170  12.0696390
 102.8222220  71.1358690  13.4637330 104.7858490  86.5849930  14.2680540
 105.6809280  86.9234900  14.2899300 104.8176120  85.8629340  13.6404820
  98.4254650  81.9576980  12.4967540  98.8629520  82.5006650  13.1525120
  98.9102380  81.1323930  12.5063880  95.6400450  84.7466010  19.9487800
  95.9703460  83.8787070  19.7166440  96.0691450  84.9524530  20.7792760
  96.1290660  85.6136600  22.6869430  95.6921650  85.7937400  23.5193580
  96.6968340  86.3711220  22.5451150 113.0054290  82.8571420  12.3116450
 112.1747250  82.9248070  12.7823680 113.1826120  83.7475540  12.0083310
 112.4610750  79.6018900  14.8150650 113.2229660  80.1715550  14.9210340
 112.4765120  79.0346100  15.5858960  95.9615090  78.1256830  19.0458310
  95.3063930  77.8568470  18.4018010  96.7993040  78.0161310  18.5960290
 113.4670720  80.4569000  19.6592580 113.8379550  79.6736320  19.2528550
 114.1072650  81.1458100  19.4809880 110.4504480  81.8405580  25.0722900
 109.6364320  82.2702740  25.3348690 110.8578680  82.4523990  24.4591950
 112.5129920  79.8953270  11.9723170 112.7878760  80.8032150  11.8442390
 112.3240660  79.8315800  12.9085160 108.9105530  72.9198120  13.2676800
 109.3290410  72.7329100  12.4273460 108.6041590  72.0677170  13.5779730
 112.4095260  77.8322260  16.9652600 112.0338860  77.0650190  16.5333890
 111.6798380  78.2144960  17.4527530  96.9991020  78.5109400  23.5861650
  97.3664060  78.4236800  24.4657670  96.4301840  77.7475950  23.4868510
 111.7994880  76.9793780  26.5992120 111.5680970  76.7506530  25.6990070
 112.0599430  77.8993330  26.5537010  96.5507020  75.4218490  27.4920070
  95.6563070  75.3885250  27.8313780  97.0904570  75.6205280  28.2571320
 110.2382950  72.2050210  29.3771820 111.1153130  72.2133610  29.7605820
 110.2503790  71.4681050  28.7664170  95.1753170  75.3355760  14.9883640
  94.2717250  75.5985960  14.8135300  95.6593790  75.6066930  14.2083600
 111.6846220  76.0579750  20.2659840 112.2083700  75.5642400  19.6350010
 112.2705640  76.1930110  21.0107410  97.7180380  74.3921300  12.8978020
  98.4272080  73.9704520  12.4125300  97.0020320  74.4596530  12.2661370
  97.3654540  70.4460630  11.9380670  98.0882670  70.9869570  12.2561890
  97.6379060  70.1724050  11.0622210 111.1746190  75.3153100  16.2052250
 111.6705310  75.0823970  16.9901130 110.9762260  74.4764940  15.7889890
  97.0546730  69.6966820  21.8403290  97.7022920  69.1464200  21.3998450
  97.4748570  69.9509970  22.6619100 112.6033350  73.9514050  18.7389930
 112.4932630  73.7970090  19.6772200 113.3640940  73.4234990  18.4965340
 113.4923620  71.7821970  11.9796070 114.4172930  71.6503150  11.7714360
 113.4699410  71.8614790  12.9332520 113.5662110  72.5532630  14.6052780
 112.7713610  72.4877750  15.1345690 113.7705390  73.4883270  14.5938130
 110.5080530  86.5924180  18.5991170 111.1039600  86.2708750  17.9225590
 110.7658680  86.1196000  19.3904440  97.4799370  69.3798690  27.8579380
  98.0282360  69.1986740  27.0945490  97.5454680  68.5892800  28.3935690
 111.0592740  87.2419480  22.4288900 110.5995710  87.9935290  22.0546920
 110.4305200  86.5225950  22.3703700 101.4888460  85.5507720  21.6037030
 102.0053480  84.9395080  21.0785290 102.1385840  86.0536500  22.0948040
 104.2283960  86.4416210  22.4306010 104.5161770  86.1870510  21.5539020
 104.7407180  85.8893570  23.0211580 109.9982040  70.8829510  21.0551610
 110.4390130  70.8274610  20.2073210 109.7289630  71.7987520  21.1261790
 111.8620610  70.5144750  19.0660430 111.8009010  69.5705970  18.9191450
 112.6412640  70.6224840  19.6113890  96.7901380  70.4853890  15.5316240
  97.5480740  70.5982770  14.9580270  96.3278550  71.3223090  15.4859670
 103.3315190  72.5993160  18.5218550 102.5189700  72.2250050  18.1814430
 103.8356830  71.8438240  18.8239740 107.8340170  69.2635610  19.7601620
 108.4369540  69.8355820  20.2350140 107.0933160  69.8275050  19.5375520
 110.9774770  69.6657170  15.0341900 111.1725400  70.5640620  15.3009330
 110.1904640  69.4344250  15.5274850  99.1626530  71.0117940  14.0718210
  99.6919290  70.2247740  13.9426160  99.7954850  71.6909130  14.3053740
 101.3564370  70.7493080  17.1263600 100.7267110  70.0480390  17.2933730
 100.8169510  71.5097210  16.9096760 104.2956320  87.3632310  29.7974210
 105.2223630  87.1276580  29.8410170 104.2806750  88.1904310  29.3160240
 112.5301380  86.9057880  16.7948460 112.7053570  86.2195620  16.1509380
 111.8322950  87.4304930  16.4025130 108.0835390  69.4430640  30.1396560
 107.9700840  69.7625250  31.0348080 108.9005130  69.8443150  29.8433840
 105.1211580  79.2402130   2.3840570 104.3453680  78.7602570   2.6739140
 105.7724510  78.5607780   2.2096730  99.1377410  79.5521940   3.2616330
  98.3062290  79.2970650   3.6612840  99.7458390  79.6232710   3.9974250
  99.1178670  83.5862030   3.4574350  99.4206710  82.6959770   3.2784570
  99.8622260  84.1432250   3.2296600  95.5102370  77.1129480   2.9298420
  96.0818480  76.3451680   2.9302060  95.5103910  77.4118240   2.0205030
 104.5620570  81.9159320   2.3910730 104.4928850  80.9749260   2.2299860
 105.3240430  82.0060730   2.9633300  96.7527240  72.5213840   4.7167350
  96.5730080  71.6239590   4.9970110  96.3507320  73.0685710   5.3914300
 105.5925740  74.7229700   2.6179660 105.9690560  73.8501580   2.5053330
 105.4945250  75.0588400   1.7270100  97.3713910  75.0174340   3.3249690
  98.0524020  75.2812710   3.9437090  97.0561960  74.1775210   3.6587700
 101.5638480  76.0641700   2.4122280 102.0716700  76.5622670   3.0527300
 102.0951720  75.2876900   2.2361640 113.6649410  74.2346890   6.1151630
 112.9601580  74.6228600   5.5966740 113.9307330  74.9297180   6.7172560
  99.8474580  70.7040260   6.6785700  99.8493020  71.2212650   5.8731600
  99.0178890  70.2270440   6.6555630 101.0977430  80.3435440   4.8559200
 100.7646810  80.9704360   5.4980270 101.2744110  80.8697320   4.0760870
 109.6111340  74.1580520   2.3235540 108.9066910  74.4465410   2.9038650
 109.9723500  74.9680630   1.9635100  99.5289910  72.4150220   4.6856150
  99.8706720  73.2592270   4.3910020  98.5905720  72.5633960   4.8021490
 100.3096530  82.3116240   6.6708380 100.9270530  82.9867320   6.3892830
  99.4489650  82.7204220   6.5795880 111.2274120  83.7755650   4.5863020
 110.5437640  84.4454760   4.5779690 111.7668410  83.9736300   3.8207880
 112.6798260  73.6035310   2.7144750 111.7323170  73.6374290   2.8460180
 113.0048250  74.4174260   3.0994110 108.7632860  85.6199780   3.3008200
 108.7760020  85.2162070   2.4330460 108.2108080  86.3947070   3.1969630
 108.1618300  80.5229620   4.6290810 108.5787090  80.3089730   3.7944270
 108.8858120  80.7802410   5.1999430 112.1080400  78.9216840   4.7207050
 111.2799030  78.9909930   4.2457180 112.7030880  79.5071150   4.2522880
 109.0722410  75.7086160   5.6661920 108.6593590  76.5339870   5.9201910
 108.3398360  75.1231200   5.4738280 101.6736900  82.1813620   2.6919800
 101.3765190  81.5759090   2.0127580 102.6236720  82.2190930   2.5809160
  99.9183820  75.2689270   4.3079630 100.4698410  75.3784610   3.5332880
 100.4327330  75.6426870   5.0234860 109.7622510  85.7545490   6.3542900
 109.2853070  86.5617680   6.1615510 109.0784300  85.1023820   6.5069110
 100.7655330  81.9195310   9.3427600  99.8683860  82.1435280   9.5901000
 100.7908200  82.0430250   8.3939000  99.5926550  78.7908630   7.9184970
  99.4534320  79.6631430   8.2872370  98.7107910  78.4481440   7.7732910
 101.3906900  84.7330330  10.1270120 101.3622330  85.1373280   9.2598550
 101.2271870  83.8040690   9.9641720 113.3421720  85.5157430  11.4234290
 113.8181440  85.9940320  12.1023370 113.9628880  85.4474920  10.6979790
  95.5445200  80.5606180   3.8355880  95.6225620  80.6954950   2.8911600
  96.1586880  79.8522070   4.0284000 112.7454970  82.7070280   8.5834300
 112.8718030  82.4682160   7.6651480 112.7876350  81.8754820   9.0556380
 106.6071710  86.4098280   7.1529110 107.1216380  86.3206290   7.9551540
 105.7640790  86.7557980   7.4457020 112.5978980  74.7602740   9.5484040
 111.9823250  75.2682410   9.0199500 112.2775400  73.8601070   9.4909980
  95.6004720  81.6020350   6.3750340  95.7635760  81.1325710   5.5569710
  96.0657170  81.0943910   7.0399180 104.6593300  73.5994630   7.0146230
 104.1972670  73.8077650   7.8266170 104.2571410  72.7853980   6.7116900
 109.6597810  74.8203580   8.1442890 108.8091400  74.5209330   8.4651960
 109.4999600  75.0645590   7.2326710 106.7547520  76.3205330  10.2441680
 107.0800930  75.4869080   9.9043910 107.5427850  76.8433850  10.3920010
 102.4099390  71.2773440   3.2700510 102.7071720  72.1836270   3.1892530
 102.9584950  70.7892220   2.6560080 102.6036920  76.7545260   9.8052430
 102.5080520  75.8139990   9.6552830 103.4468900  76.9760330   9.4100500
  97.7347460  73.1658930   7.9586210  97.3410850  74.0134140   8.1658990
  97.0465860  72.5285300   8.1494850 104.3092510  73.2493900  11.0282950
 103.6190830  73.0566100  11.6629040 105.0524810  73.5328540  11.5607250
  95.0364510  71.0887390   1.9916290  94.7477560  71.6590250   2.7041270
  95.7810270  70.6091840   2.3547520 106.5855480  77.0892340   3.8636870
 105.8536600  77.5979150   4.2126970 106.1879820  76.2722320   3.5625650
 103.0232870  73.7646540   2.2689360 103.0268930  73.3236490   1.4193900
 103.9183990  74.0863870   2.3761180 107.0481390  72.5426020   3.2759810
 107.0654130  72.9934670   4.1201660 106.7996970  71.6431660   3.4893250
 110.4752140  69.9558200   9.1146190 110.7997910  69.2247860   9.6404170
 110.5108650  69.6371840   8.2127180  97.1743700  80.9771780   8.5346150
  96.7898490  80.3365450   9.1329110  97.4855890  81.6807900   9.1040880
 103.3240840  77.8248320   4.0154770 103.6910970  77.3506890   4.7616110
 103.1345900  78.6989890   4.3563110 101.1140210  76.8656960   6.3338980
 100.8097280  77.7448940   6.5589340 102.0686670  76.9256750   6.3696420
 110.4009980  80.0683310   2.7232220 111.1209100  80.5638600   2.3328330
 110.1991800  79.3901200   2.0786090 105.7828780  80.1392370   8.6101220
 105.7166090  79.2188040   8.3558810 105.1533920  80.2367810   9.3245860
  97.1703940  77.7059700   7.4810340  96.8118880  78.3713550   8.0683680
  96.8758500  76.8743250   7.8522960 100.3717060  78.1643940  10.3649890
 100.0717200  78.3101120   9.4677710 101.1428300  77.6049230  10.2723280
 105.7145510  82.9612940   8.3605020 105.7290050  82.0293900   8.1423930
 105.0070610  83.0472700   8.9994790 111.9256720  79.6020280   7.7073600
 111.2004910  80.1949060   7.5102990 112.4532180  79.5943820   6.9086970
 105.1479410  84.6030510   5.4545520 105.7921630  84.8089890   6.1318940
 105.5108850  83.8418910   5.0016370 106.4211490  82.6062860   4.1722970
 107.0633720  81.9056020   4.2855140 106.9460840  83.3861300   3.9919860
 108.1949110  83.4057760   7.3759030 108.5305350  83.9924450   8.0536950
 107.2749450  83.2750470   7.6056820  95.7452510  71.1952940   8.1582440
  95.0311030  71.3949860   8.7635050  96.1647550  70.4192510   8.5297240
  96.0325100  85.1833200   9.1448970  96.1416220  84.2427940   9.0044360
  95.3805660  85.4487950   8.4962700 104.0237690  83.4549090  10.5447090
 103.7034560  82.7358330  11.0892780 103.3496050  84.1304160  10.6183150
 107.2391290  73.6875250   5.9083890 107.6072110  72.8670460   6.2363460
 106.3789490  73.7477140   6.3239540 104.1993280  76.3414840   6.1321860
 104.6978530  76.8160660   6.7973710 104.3416230  75.4178360   6.3391890
 111.4060140  72.5582800   6.9750250 110.9033740  73.2988200   7.3144060
 112.2216800  72.9466800   6.6587040 111.7007730  84.9724830   2.0965870
 111.8255150  85.7956000   2.5689680 112.5673290  84.7615560   1.7490020
  99.1725260  87.0656040   1.7683000  99.9087740  86.5171500   2.0391570
  99.5566180  87.9312050   1.6288990  98.1783540  86.2502110  10.9568580
  98.9796270  86.5714160  11.3703980  97.6635360  85.8897690  11.6788490
 107.0148170  82.3581980  10.9043990 106.4086330  82.3813580  10.1639740
 106.7102280  81.6265020  11.4411240 108.4448540  86.0862270   9.5153400
 109.3970290  86.0020290   9.4653640 108.2976760  86.7503980  10.1887190
  95.8981350  78.7375570   9.9004630  96.4020370  78.1582850  10.4720860
  95.1588770  79.0215800  10.4381000 102.9519290  80.1446560   9.4340150
 102.1864960  80.7131560   9.3494820 103.1335250  79.8522770   8.5408380
 110.0942640  81.8751890   9.9915170 110.8352110  82.2127650   9.4882630
 109.3315320  82.0443950   9.4384940  97.9304430  76.8805160  10.7954700
  97.9709770  76.5819030  11.7039930  98.7849930  77.2812770  10.6362220
  99.8710240  75.4597260   8.7629190  99.3406700  74.9688210   8.1352530
 100.5398310  75.8881460   8.2287120 108.7688300  79.9266720   8.5270380
 109.1829320  80.0811800   9.3760800 107.8339300  80.0521940   8.6896160
 109.2410470  77.2662880  10.5309530 109.8231240  76.5115200  10.4430010
 109.4172240  77.7970320   9.7541010 100.3582540  72.4259630   8.8426480
 100.2639410  71.8080380   8.1177350  99.7779930  73.1525920   8.6156390
 103.1243980  70.9832870   5.8753870 102.6761280  71.0057130   5.0299420
 102.4909180  70.5851890   6.4724170 103.5303530  79.8787200   6.4966310
 103.9491640  80.7219930   6.3242550 102.6112160  80.0159240   6.2673090
 105.8667430  77.6103380   7.8804150 105.9863640  77.0144520   8.6198990
 106.7261430  77.6473070   7.4605450 108.2055330  78.1640570   6.4566660
 107.6790550  78.6883190   5.8531800 108.5486670  78.7967960   7.0876390
 101.3810950  86.1840210   7.6124040 100.8432040  86.9086270   7.2932740
 101.6344910  85.7070550   6.8221380 102.6336200  74.1524730   9.1379970
 103.2235890  73.8440580   9.8257790 101.8156440  73.6804480   9.2939870
 107.4529630  73.7690540   9.3712990 106.7645150  73.1072080   9.3062980
 108.1735650  73.3228810   9.8161450 104.2373160  87.4191420   7.8710690
 104.1631860  88.3226560   8.1783060 103.3352000  87.1003320   7.8432760
  96.1290660  85.6136600   3.9125940  95.6921650  85.7937400   4.7450090
  96.6968340  86.3711220   3.7707660 111.7652840  85.1153600   8.2003250
 111.1654830  85.1746160   7.4567170 111.8946740  84.1758580   8.3300100
 110.4504480  81.8405580   6.2979410 109.6364320  82.2702740   6.5605200
 110.8578680  82.4523990   5.6848460  96.9991020  78.5109400   4.8118160
  97.3664060  78.4236800   5.6914180  96.4301840  77.7475950   4.7125020
 111.7994880  76.9793780   7.8248630 111.5680970  76.7506530   6.9246580
 112.0599430  77.8993330   7.7793520  96.5507020  75.4218490   8.7176580
  95.6563070  75.3885250   9.0570290  97.0904570  75.6205280   9.4827830
 110.2382950  72.2050210  10.6028330 111.1153130  72.2133610  10.9862330
 110.2503790  71.4681050   9.9920680 111.8635940  76.1419620   5.0135900
 110.9138650  76.1083160   5.1280890 112.0448950  77.0519730   4.7785670
  97.0546730  69.6966820   3.0659800  97.7022920  69.1464200   2.6254960
  97.4748570  69.9509970   3.8875610 110.9499070  69.8908180   6.4229440
 111.5871290  70.5042320   6.7888630 111.0973960  69.9268840   5.4778670
  96.8078730  69.8522490   5.8085120  96.4593550  70.3086310   6.5743300
  96.4766430  68.9579620   5.8907550  98.4143100  83.0242090   9.9738310
  98.3712730  82.6535000  10.8552770  98.5454110  83.9619660  10.1140130
 102.1149130  84.5801680   5.5748030 101.8740490  84.8476240   4.6878550
 103.0551770  84.7507410   5.6298890 104.3203550  71.0434370   9.3304540
 104.2592440  71.6356200  10.0799950 105.2603930  70.9360330   9.1854800
 106.9578110  70.7004430   8.9696830 107.5718520  71.0183720   8.3077910
 107.5027670  70.2153020   9.5892690 113.3753290  86.5996060   6.3758670
 112.8811570  86.9964930   5.6585800 112.7666580  85.9745270   6.7695950
  97.4799370  69.3798690   9.0835890  98.0282360  69.1986740   8.3202000
  97.5454680  68.5892800   9.6192200  98.2531130  85.9704340   7.0936090
  97.6591450  85.8389040   7.8326130  98.2454970  85.1342480   6.6278190
 107.6986150  69.2636570   5.2966120 106.8245990  69.5971680   5.0939050
 107.5896900  68.7909750   6.1217990 108.6058130  71.4707440   6.6807840
 108.2771490  70.6559200   6.3009570 109.5540430  71.4277250   6.5573530
 111.0592740  87.2419480   3.6545410 110.5995710  87.9935290   3.2803430
 110.4305200  86.5225950   3.5960210  97.8843360  83.3362720   6.0444130
  97.1577420  82.7168010   5.9770080  97.9452510  83.7303330   5.1742210
 101.4888460  85.5507720   2.8293540 102.0053480  84.9395080   2.3041800
 102.1385840  86.0536500   3.3204550 104.2283960  86.4416210   3.6562520
 104.5161770  86.1870510   2.7795530 104.7407180  85.8893570   4.2468090
 105.4460970  70.1806410   4.2359030 104.6632760  70.6551910   4.5155790
 105.1523900  69.2761240   4.1272210 109.9982040  70.8829510   2.2808120
 110.4390130  70.8274610   1.4329720 109.7289630  71.7987520   2.3518300
 104.2956320  87.3632310  11.0230720 105.2223630  87.1276580  11.0666680
 104.2806750  88.1904310  10.5416750 101.4819930  70.0277060  10.7872600
 101.2004200  70.5310660  10.0233420 101.8639630  69.2298810  10.4214730
 108.0835390  69.4430640  11.3653070 107.9700840  69.7625250  12.2604590
 108.9005130  69.8443150  11.0690350 110.8633880  86.5902170  10.8471760
 111.6559200  86.0951400  10.6397720 111.1567030  87.2692310  11.4547370
 106.9893540  58.6879620 150.6979220 106.9087590  57.7734230 150.4270930
 106.5757960  59.1846690 149.9918930 105.1211580  60.4658640 152.5788490
 104.3453680  59.9859080 152.8687060 105.7724510  59.7864290 152.4044650
 109.1419010  64.8718830 151.3587620 108.6800540  64.1006070 151.6874790
 109.9544560  64.8984900 151.8640070  97.5469360  55.7380340 147.2406640
  96.6586060  56.0796310 147.1386520  97.8310550  55.5380660 146.3487470
  95.5102370  58.3385990 153.1246340  96.0818480  57.5708190 153.1249980
  95.5103910  58.6374750 152.2152950 105.3682320  67.1576840 150.9791610
 104.7493760  67.6134340 150.4086050 106.2234100  67.3128300 150.5781310
 104.5620570  63.1415830 152.5858650 104.4928850  62.2005770 152.4247780
 105.3240430  63.2317240 153.1581220 105.5925740  55.9486210 152.8127580
 105.9690560  55.0758090 152.7001250 105.4945250  56.2844910 151.9218020
  99.7230750  54.3211840 148.2745020  99.8297500  55.2215570 148.5813780
  98.8123110  54.2729810 147.9839670 109.3749860  53.4436650 149.7455920
 110.1959480  52.9533220 149.7881400 109.4083940  54.0334310 150.4987760
 106.2345670  62.0416080 148.3723520 105.6162940  62.5065530 147.8086240
 106.7468920  62.7343560 148.7893030 109.6111340  55.3837030 152.5183460
 108.9066910  55.6721920 153.0986570 109.9723500  56.1937140 152.1583020
  95.6028870  62.7272610 145.7463150  95.2256850  63.2159710 145.0148050
  95.8601940  63.3997890 146.3769680 103.2117800  51.1289000 151.2048660
 103.5192780  50.5735890 150.4884160 102.2818500  51.2633460 151.0221650
 110.0578280  63.5672510 148.5846290 109.9474610  62.6246840 148.7095710
 110.0546530  63.9288150 149.4709050 105.5998560  59.1937830 147.9408780
 104.6727840  59.1275210 148.1697250 105.7523380  60.1317960 147.8264020
 105.5867640  55.4654830 144.9375940 104.6471310  55.6268790 145.0228400
 105.9050900  56.1840510 144.3911930 109.6295850  60.7558130 148.4444030
 109.0108270  60.4177680 147.7970330 109.6120300  60.1117890 149.1523220
 101.2055200  59.7202570 150.7228510 100.8012200  59.0079820 150.2274410
 101.2918320  59.3755810 151.6116550 101.6736900  63.4070130 152.8867720
 101.3765190  62.8015600 152.2075500 102.6236720  63.4447440 152.7757080
 107.8060550  59.9944940 145.4516780 108.2453830  59.1567370 145.3054600
 108.5188970  60.6274340 145.5380920 105.9155930  64.9341010 149.4198020
 106.3551840  65.6765340 149.0053410 105.8542820  65.1767580 150.3436980
 111.3877690  51.2487750 143.7657820 111.0750350  51.3414580 144.6656890
 112.1490160  51.8268780 143.7155250  97.9059830  58.6147550 148.2235160
  97.7857430  59.3409640 147.6116430  97.5960720  57.8450460 147.7463070
  96.7892830  63.4862880 150.4409980  96.3820910  63.6277470 149.5863580
  97.6805840  63.2023040 150.2381190 108.5826110  67.9210130 146.7761030
 108.4227250  67.6313070 147.6742860 108.4172820  67.1450260 146.2406260
 101.0614490  67.7008660 148.5532650 100.8856970  66.7844200 148.3400450
 100.2070230  68.0595950 148.7930450 108.2852240  65.4297690 145.3359030
 107.5917400  65.4274980 144.6761310 109.0275100  65.0057010 144.9053200
 107.8502170  67.0560400 149.4107520 108.3059120  66.2749780 149.7246140
 108.1894690  67.7667220 149.9548700 100.3723490  51.9582620 151.6058830
  99.9291640  52.7392160 151.2743350 100.9308480  52.2812510 152.3129770
 103.4882310  51.5793320 146.4864660 102.8636490  51.5753190 147.2117970
 103.4012430  50.7124280 146.0900630 100.1637710  57.0816190 149.3340080
  99.9378630  56.8653360 150.2386700  99.3830240  57.5144650 148.9886050
 107.3935470  57.0879560 147.9330730 106.7944360  57.8115360 147.7494350
 107.9415080  57.0256340 147.1507180 106.0000340  55.7243100 149.9634010
 106.3929910  56.0415300 149.1502700 106.3617190  54.8454980 150.0778530
  95.0364510  52.3143900 152.1864210  94.7477560  52.8846760 152.8989190
  95.7810270  51.8348350 152.5495440  95.2234740  56.2564020 143.3966930
  95.1409410  57.1994780 143.5381920  94.8717800  56.1138930 142.5179280
 103.0232870  54.9903050 152.4637280 103.0268930  54.5493000 151.6141820
 103.9183990  55.3120380 152.5709100  98.8735250  54.8729540 151.4231490
  98.5335300  55.3504770 152.1798540  98.1112570  54.4194660 151.0632590
 103.0853020  55.9915130 145.4544040 103.2065840  55.9501610 146.4029860
 102.7001530  56.8539280 145.2990770 102.0974520  58.3016270 144.8527340
 101.5291420  57.8534520 144.2263250 102.8063520  58.6609050 144.3192490
  96.1881330  53.7948520 150.3396160  95.9028250  53.4304190 151.1774780
  96.1260190  53.0628980 149.7259300  99.6422000  62.2974460 147.1253750
  98.8684260  61.7572080 146.9652470 100.3716630  61.7781070 146.7871510
 110.4009980  61.2939820 152.9180140 111.1209100  61.7895110 152.5276250
 110.1991800  60.6157710 152.2734010 105.8619920  52.6877780 147.0609530
 105.0484530  52.1890950 146.9854840 105.6681870  53.5276030 146.6445880
 108.5768310  57.0597430 145.3571690 109.4647930  57.3714660 145.1823030
 108.5473400  56.1869680 144.9652270  99.6859400  61.9654840 150.7632560
 100.2038070  61.1623100 150.7089450  99.2343420  61.9033980 151.6049390
 104.5728900  63.2321120 146.0359860 104.9144600  63.9763350 145.5403180
 103.7441610  63.5452240 146.3984690 110.8482580  58.3709270 144.8251550
 110.7646300  58.8023490 143.9747990 111.5676770  58.8307620 145.2578370
 111.8769830  65.2251530 147.5533680 111.2345990  64.5707150 147.8277400
 111.4900490  65.6306620 146.7774350 107.4556310  62.5536960 151.4005370
 107.8080130  61.9565090 150.7406740 106.5718640  62.2281190 151.5713620
 103.5419590  63.3134650 148.8075780 104.2290720  63.8603860 149.1883370
 102.7552010  63.8575380 148.8425390  95.6811990  58.9307470 144.2992860
  96.5506840  59.2132270 144.5828780  95.1902310  59.7443340 144.1841670
 102.8446800  60.3180680 148.4201140 103.3009580  61.1285930 148.6461330
 102.4935010  60.0003820 149.2519630  98.7458580  50.6618330 148.8923660
  98.6173210  50.6536230 149.8408580  97.9220600  51.0001420 148.5414670
 110.2667210  64.1167990 144.0910030 110.0404790  63.3998430 144.6834670
 109.8763410  63.8680430 143.2531780  96.0483240  68.1434850 144.8654490
  96.4080880  68.7424190 144.2111760  95.9075580  68.6894740 145.6389520
 109.8483460  62.0339930 145.7524190 109.5605160  62.4952620 146.5402070
 110.6435630  61.5737700 146.0208410 102.0651860  65.5266050 145.6828160
 102.0561960  66.2595740 145.0672670 101.1450220  65.2797630 145.7755120
  97.6658500  60.7480940 146.4274920  97.0586450  61.4879840 146.4370220
  98.1407850  60.8380300 145.6013120 110.6053320  53.8688700 146.9119370
 109.9766480  53.9734370 146.1977600 110.1105240  54.0885480 147.7013250
 105.0511460  65.5894290 144.3453350 105.1523440  65.3858280 143.4155330
 104.1513200  65.3352570 144.5501130 102.5737350  56.1474650 148.3277250
 101.8653500  56.6160990 148.7690860 102.8581830  55.4896660 148.9622440
 106.6052780  52.8725310 149.7673040 106.4820560  52.8911440 148.8182550
 107.5537340  52.9204250 149.8871440 103.6929570  68.1080610 149.0401020
 103.9471070  68.0702000 148.1180390 102.7442050  67.9813940 149.0329270
 100.7772370  54.4559730 145.7027960 101.6262900  54.8929880 145.6368150
 100.4103640  54.7679990 146.5300020 109.6982150  59.0272490 150.6159530
 108.7572290  59.0422720 150.7907220 110.0126220  58.2408450 151.0619830
  99.6763790  60.7092090 144.1763490 100.4427060  60.5973450 144.7388920
  99.7538480  60.0130060 143.5240260  98.3710550  58.1417160 144.8596380
  98.4514140  57.1944670 144.9713780  99.2630300  58.4724040 144.9657040
 111.7007730  66.1981340 152.2913790 111.8255150  67.0212510 152.7637600
 112.5673290  65.9872070 151.9437940  99.1725260  68.2912550 151.9630920
  99.9087740  67.7428010 152.2339490  99.5566180  69.1568560 151.8236910
  96.0570740  64.3586120 147.8372430  95.1310520  64.6007260 147.8277840
  96.5227170  65.1860380 147.7157180 102.2827570  67.4642860 143.7856490
 103.0756180  67.7531690 143.3338280 101.7631920  67.0335030 143.1068970
 111.3357740  66.6912990 145.2093230 111.0499250  66.2778130 144.3947410
 111.1377290  67.6200700 145.0893750 102.8004970  62.6846270 143.6498840
 102.6955610  62.0698620 144.3760220 102.6329190  62.1612160 142.8661850
 106.0407700  61.7466300 144.2540830 105.4917800  62.1935600 144.8983570
 106.6626960  61.2415550 144.7778500 101.7082820  60.7057220 146.1506130
 102.1299240  60.5397090 146.9937520 101.8333660  59.8957450 145.6561270
 104.2210460  59.7294830 143.3983230 104.7416120  59.0143850 143.0324380
 104.8678860  60.3680700 143.6983740 100.6041720  56.7790450 143.0964290
 100.4030780  55.9157810 143.4577630 100.4333770  56.6923810 142.1585890
 108.0830030  51.5898680 145.6251170 108.3632320  50.7466580 145.9810590
 107.3095760  51.8221790 146.1389920  99.4024520  53.8791070 143.0842170
  99.7050420  53.8858500 142.1761320 100.1419110  53.5288930 143.5809830
 102.6209450  52.8225690 144.0698370 102.2731450  52.1449680 143.4900820
 102.8222220  52.3615200 144.8841760 104.7858490  67.8106440 145.6884970
 105.6809280  68.1491410 145.7103730 104.8176120  67.0885850 145.0609250
  98.4254650  63.1833490 143.9171970  98.8629520  63.7263160 144.5729550
  98.9102380  62.3580440 143.9268310  95.6400450  65.9722520 151.3692230
  95.9703460  65.1043580 151.1370870  96.0691450  66.1781040 152.1997190
 100.2362370  64.3031530 149.0294200  99.9357910  64.1796500 149.9298110
 100.1299860  63.4440120 148.6209930 113.0054290  64.0827930 143.7320880
 112.1747250  64.1504580 144.2028110 113.1826120  64.9732050 143.4287740
 112.4610750  60.8275410 146.2355080 113.2229660  61.3972060 146.3414770
 112.4765120  60.2602610 147.0063390  95.9615090  59.3513340 150.4662740
  95.3063930  59.0824980 149.8222440  96.7993040  59.2417820 150.0164720
 113.4670720  61.6825510 151.0797010 113.8379550  60.8992830 150.6732980
 114.1072650  62.3714610 150.9014310 112.5129920  61.1209780 143.3927600
 112.7878760  62.0288660 143.2646820 112.3240660  61.0572310 144.3289590
 108.9105530  54.1454630 144.6881230 109.3290410  53.9585610 143.8477890
 108.6041590  53.2933680 144.9984160 112.4095260  59.0578770 148.3857030
 112.0338860  58.2906700 147.9538320 111.6798380  59.4401470 148.8731960
  95.1753170  56.5612270 146.4088070  94.2717250  56.8242470 146.2339730
  95.6593790  56.8323440 145.6288030 111.6846220  57.2836260 151.6864270
 112.2083700  56.7898910 151.0554440 112.2705640  57.4186620 152.4311840
  97.7180380  55.6177810 144.3182450  98.4272080  55.1961030 143.8329730
  97.0020320  55.6853040 143.6865800  97.3654540  51.6717140 143.3585100
  98.0882670  52.2126080 143.6766320  97.6379060  51.3980560 142.4826640
 111.1746190  56.5409610 147.6256680 111.6705310  56.3080480 148.4105560
 110.9762260  55.7021450 147.2094320 112.6033350  55.1770560 150.1594360
 112.4932630  55.0226600 151.0976630 113.3640940  54.6491500 149.9169770
 113.4923620  53.0078480 143.4000500 114.4172930  52.8759660 143.1918790
 113.4699410  53.0871300 144.3536950 113.5662110  53.7789140 146.0257210
 112.7713610  53.7134260 146.5550120 113.7705390  54.7139780 146.0142560
 110.5080530  67.8180690 150.0195600 111.1039600  67.4965260 149.3430020
 110.7658680  67.3452510 150.8108870 109.9982040  52.1086020 152.4756040
 110.4390130  52.0531120 151.6277640 109.7289630  53.0244030 152.5466220
 111.8620610  51.7401260 150.4864860 111.8009010  50.7962480 150.3395880
 112.6412640  51.8481350 151.0318320  96.1673360  67.8793620 149.4488810
  95.9995400  67.2464300 150.1470700  95.3007870  68.0853020 149.0983000
  96.7901380  51.7110400 146.9520670  97.5480740  51.8239280 146.3784700
  96.3278550  52.5479600 146.9064100 103.3315190  53.8249670 149.9422980
 102.5189700  53.4506560 149.6018860 103.8356830  53.0694750 150.2444170
 107.8340170  50.4892120 151.1806050 108.4369540  51.0612330 151.6554570
 107.0933160  51.0531560 150.9579950 110.9774770  50.8913680 146.4546330
 111.1725400  51.7897130 146.7213760 110.1904640  50.6600760 146.9479280
  97.7736060  66.5726850 146.8938950  97.2483680  66.9534880 146.1900910
  97.6980640  67.1977620 147.6148660  99.1626530  52.2374450 145.4922640
  99.6919290  51.4504250 145.3630590  99.7954850  52.9165640 145.7258170
 101.3564370  51.9749590 148.5468030 100.7267110  51.2736900 148.7138160
 100.8169510  52.7353720 148.3301190 112.5301380  68.1314390 148.2152890
 112.7053570  67.4452130 147.5713810 111.8322950  68.6561440 147.8229560
 100.3729030  68.5209230 145.7688200 101.1047850  68.2368510 145.2212090
 100.6322700  68.2822510 146.6587580  99.5343820  64.6373960 145.7734530
  98.9052700  65.1059060 146.3220360  99.6491650  63.7923180 146.2080720
 106.9893540  58.6879620 131.9235730 106.9087590  57.7734230 131.6527440
 106.5757960  59.1846690 131.2175440 105.1211580  60.4658640 133.8045000
 104.3453680  59.9859080 134.0943570 105.7724510  59.7864290 133.6301160
 109.1419010  64.8718830 132.5844130 108.6800540  64.1006070 132.9131300
 109.9544560  64.8984900 133.0896580  99.1178670  64.8118540 134.8778780
  99.4206710  63.9216280 134.6989000  99.8622260  65.3688760 134.6501030
  97.5469360  55.7380340 128.4663150  96.6586060  56.0796310 128.3643030
  97.8310550  55.5380660 127.5743980  95.5102370  58.3385990 134.3502850
  96.0818480  57.5708190 134.3506490  95.5103910  58.6374750 133.4409460
 105.3682320  67.1576840 132.2048120 104.7493760  67.6134340 131.6342560
 106.2234100  67.3128300 131.8037820 104.5620570  63.1415830 133.8115160
 104.4928850  62.2005770 133.6504290 105.3240430  63.2317240 134.3837730
  96.7527240  53.7470350 136.1371780  96.5730080  52.8496100 136.4174540
  96.3507320  54.2942220 136.8118730 105.5925740  55.9486210 134.0384090
 105.9690560  55.0758090 133.9257760 105.4945250  56.2844910 133.1474530
 109.3749860  53.4436650 130.9712430 110.1959480  52.9533220 131.0137910
 109.4083940  54.0334310 131.7244270  97.3713910  56.2430850 134.7454120
  98.0524020  56.5069220 135.3641520  97.0561960  55.4031720 135.0792130
 101.5638480  57.2898210 133.8326710 102.0716700  57.7879180 134.4731730
 102.0951720  56.5133410 133.6566070 113.6649410  55.4603400 137.5356060
 112.9601580  55.8485110 137.0171170 113.9307330  56.1553690 138.1376990
  99.8474580  51.9296770 138.0990130  99.8493020  52.4469160 137.2936030
  99.0178890  51.4526950 138.0760060 101.0977430  61.5691950 136.2763630
 100.7646810  62.1960870 136.9184700 101.2744110  62.0953830 135.4965300
 109.6111340  55.3837030 133.7439970 108.9066910  55.6721920 134.3243080
 109.9723500  56.1937140 133.3839530  99.5289910  53.6406730 136.1060580
  99.8706720  54.4848780 135.8114450  98.5905720  53.7890470 136.2225920
 100.3096530  63.5372750 138.0912810 100.9270530  64.2123830 137.8097260
  99.4489650  63.9460730 138.0000310  95.6028870  62.7272610 126.9719660
  95.2256850  63.2159710 126.2404560  95.8601940  63.3997890 127.6026190
 111.2274120  65.0012160 136.0067450 110.5437640  65.6711270 135.9984120
 111.7668410  65.1992810 135.2412310 112.6798260  54.8291820 134.1349180
 111.7323170  54.8630800 134.2664610 113.0048250  55.6430770 134.5198540
 103.2117800  51.1289000 132.4305170 103.5192780  50.5735890 131.7140670
 102.2818500  51.2633460 132.2478160 108.7632860  66.8456290 134.7212630
 108.7760020  66.4418580 133.8534890 108.2108080  67.6203580 134.6174060
 110.0578280  63.5672510 129.8102800 109.9474610  62.6246840 129.9352220
 110.0546530  63.9288150 130.6965560 108.1618300  61.7486130 136.0495240
 108.5787090  61.5346240 135.2148700 108.8858120  62.0058920 136.6203860
 105.5867640  55.4654830 126.1632450 104.6471310  55.6268790 126.2484910
 105.9050900  56.1840510 125.6168440 112.1080400  60.1473350 136.1411480
 111.2799030  60.2166440 135.6661610 112.7030880  60.7327660 135.6727310
 109.6295850  60.7558130 129.6700540 109.0108270  60.4177680 129.0226840
 109.6120300  60.1117890 130.3779730 109.0722410  56.9342670 137.0866350
 108.6593590  57.7596380 137.3406340 108.3398360  56.3487710 136.8942710
  99.9183820  56.4945780 135.7284060 100.4698410  56.6041120 134.9537310
 100.4327330  56.8683380 136.4439290 109.7622510  66.9802000 137.7747330
 109.2853070  67.7874190 137.5819940 109.0784300  66.3280330 137.9273540
 100.7655330  63.1451820 140.7632030  99.8683860  63.3691790 141.0105430
 100.7908200  63.2686760 139.8143430  99.5926550  60.0165140 139.3389400
  99.4534320  60.8887940 139.7076800  98.7107910  59.6737950 139.1937340
 105.9155930  64.9341010 130.6454530 106.3551840  65.6765340 130.2309920
 105.8542820  65.1767580 131.5693490 101.3906900  65.9586840 141.5474550
 101.3622330  66.3629790 140.6802980 101.2271870  65.0297200 141.3846150
 111.3877690  51.2487750 124.9914330 111.0750350  51.3414580 125.8913400
 112.1490160  51.8268780 124.9411760 113.3421720  66.7413940 142.8438720
 113.8181440  67.2196830 143.5227800 113.9628880  66.6731430 142.1184220
  96.7892830  63.4862880 131.6666490  96.3820910  63.6277470 130.8120090
  97.6805840  63.2023040 131.4637700 112.7454970  63.9326790 140.0038730
 112.8718030  63.6938670 139.0855910 112.7876350  63.1011330 140.4760810
 106.6071710  67.6354790 138.5733540 107.1216380  67.5462800 139.3755970
 105.7640790  67.9814490 138.8661450 101.0614490  67.7008660 129.7789160
 100.8856970  66.7844200 129.5656960 100.2070230  68.0595950 130.0186960
 107.8502170  67.0560400 130.6364030 108.3059120  66.2749780 130.9502650
 108.1894690  67.7667220 131.1805210 112.5978980  55.9859250 140.9688470
 111.9823250  56.4938920 140.4403930 112.2775400  55.0857580 140.9114410
 104.6593300  54.8251140 138.4350660 104.1972670  55.0334160 139.2470600
 104.2571410  54.0110490 138.1321330 109.6597810  56.0460090 139.5647320
 108.8091400  55.7465840 139.8856390 109.4999600  56.2902100 138.6531140
 106.7547520  57.5461840 141.6646110 107.0800930  56.7125590 141.3248340
 107.5427850  58.0690360 141.8124440 102.4099390  52.5029950 134.6904940
 102.7071720  53.4092780 134.6096960 102.9584950  52.0148730 134.0764510
 107.3935470  57.0879560 129.1587240 106.7944360  57.8115360 128.9750860
 107.9415080  57.0256340 128.3763690 102.6036920  57.9801770 141.2256860
 102.5080520  57.0396500 141.0757260 103.4468900  58.2016840 140.8304930
 106.0000340  55.7243100 131.1890520 106.3929910  56.0415300 130.3759210
 106.3617190  54.8454980 131.3035040  97.7347460  54.3915440 139.3790640
  97.3410850  55.2390650 139.5863420  97.0465860  53.7541810 139.5699280
 104.3092510  54.4750410 142.4487380 103.6190830  54.2822610 143.0833470
 105.0524810  54.7585050 142.9811680  95.0364510  52.3143900 133.4120720
  94.7477560  52.8846760 134.1245700  95.7810270  51.8348350 133.7751950
  95.2234740  56.2564020 124.6223440  95.1409410  57.1994780 124.7638430
  94.8717800  56.1138930 123.7435790 106.5855480  58.3148850 135.2841300
 105.8536600  58.8235660 135.6331400 106.1879820  57.4978830 134.9830080
 103.0232870  54.9903050 133.6893790 103.0268930  54.5493000 132.8398330
 103.9183990  55.3120380 133.7965610 103.0853020  55.9915130 126.6800550
 103.2065840  55.9501610 127.6286370 102.7001530  56.8539280 126.5247280
 107.0481390  53.7682530 134.6964240 107.0654130  54.2191180 135.5406090
 106.7996970  52.8688170 134.9097680 102.0974520  58.3016270 126.0783850
 101.5291420  57.8534520 125.4519760 102.8063520  58.6609050 125.5449000
 110.4752140  51.1814710 140.5350620 110.7997910  50.4504370 141.0608600
 110.5108650  50.8628350 139.6331610  97.1743700  62.2028290 139.9550580
  96.7898490  61.5621960 140.5533540  97.4855890  62.9064410 140.5245310
 103.3240840  59.0504830 135.4359200 103.6910970  58.5763400 136.1820540
 103.1345900  59.9246400 135.7767540  96.1881330  53.7948520 131.5652670
  95.9028250  53.4304190 132.4031290  96.1260190  53.0628980 130.9515810
 101.1140210  58.0913470 137.7543410 100.8097280  58.9705450 137.9793770
 102.0686670  58.1513260 137.7900850 110.4009980  61.2939820 134.1436650
 111.1209100  61.7895110 133.7532760 110.1991800  60.6157710 133.4990520
 105.8619920  52.6877780 128.2866040 105.0484530  52.1890950 128.2111350
 105.6681870  53.5276030 127.8702390 105.7828780  61.3648880 140.0305650
 105.7166090  60.4444550 139.7763240 105.1533920  61.4624320 140.7450290
 108.5768310  57.0597430 126.5828200 109.4647930  57.3714660 126.4079540
 108.5473400  56.1869680 126.1908780  97.1703940  58.9316210 138.9014770
  96.8118880  59.5970060 139.4888110  96.8758500  58.0999760 139.2727390
 100.3717060  59.3900450 141.7854320 100.0717200  59.5357630 140.8882140
 101.1428300  58.8305740 141.6927710 105.7145510  64.1869450 139.7809450
 105.7290050  63.2550410 139.5628360 105.0070610  64.2729210 140.4199220
 110.8482580  58.3709270 126.0508060 110.7646300  58.8023490 125.2004500
 111.5676770  58.8307620 126.4834880 111.9256720  60.8276790 139.1278030
 111.2004910  61.4205570 138.9307420 112.4532180  60.8200330 138.3291400
 107.4556310  62.5536960 132.6261880 107.8080130  61.9565090 131.9663250
 106.5718640  62.2281190 132.7970130  95.6811990  58.9307470 125.5249370
  96.5506840  59.2132270 125.8085290  95.1902310  59.7443340 125.4098180
 105.1479410  65.8287020 136.8749950 105.7921630  66.0346400 137.5523370
 105.5108850  65.0675420 136.4220800  98.7458580  50.6618330 130.1180170
  98.6173210  50.6536230 131.0665090  97.9220600  51.0001420 129.7671180
 106.4211490  63.8319370 135.5927400 107.0633720  63.1312530 135.7059570
 106.9460840  64.6117810 135.4124290 110.2667210  64.1167990 125.3166540
 110.0404790  63.3998430 125.9091180 109.8763410  63.8680430 124.4788290
 108.1949110  64.6314270 138.7963460 108.5305350  65.2180960 139.4741380
 107.2749450  64.5006980 139.0261250  96.0483240  68.1434850 126.0911000
  96.4080880  68.7424190 125.4368270  95.9075580  68.6894740 126.8646030
  95.7452510  52.4209450 139.5786870  95.0311030  52.6206370 140.1839480
  96.1647550  51.6449020 139.9501670  96.0325100  66.4089710 140.5653400
  96.1416220  65.4684450 140.4248790  95.3805660  66.6744460 139.9167130
 104.0237690  64.6805600 141.9651520 103.7034560  63.9614840 142.5097210
 103.3496050  65.3560670 142.0387580 107.2391290  54.9131760 137.3288320
 107.6072110  54.0926970 137.6567890 106.3789490  54.9733650 137.7443970
 110.6053320  53.8688700 128.1375880 109.9766480  53.9734370 127.4234110
 110.1105240  54.0885480 128.9269760 102.5737350  56.1474650 129.5533760
 101.8653500  56.6160990 129.9947370 102.8581830  55.4896660 130.1878950
 104.1993280  57.5671350 137.5526290 104.6978530  58.0417170 138.2178140
 104.3416230  56.6434870 137.7596320 106.6052780  52.8725310 130.9929550
 106.4820560  52.8911440 130.0439060 107.5537340  52.9204250 131.1127950
 103.6929570  68.1080610 130.2657530 103.9471070  68.0702000 129.3436900
 102.7442050  67.9813940 130.2585780 100.7772370  54.4559730 126.9284470
 101.6262900  54.8929880 126.8624660 100.4103640  54.7679990 127.7556530
 111.4060140  53.7839310 138.3954680 110.9033740  54.5244710 138.7348490
 112.2216800  54.1723310 138.0791470 109.6982150  59.0272490 131.8416040
 108.7572290  59.0422720 132.0163730 110.0126220  58.2408450 132.2876340
  99.6763790  60.7092090 125.4020000 100.4427060  60.5973450 125.9645430
  99.7538480  60.0130060 124.7496770  98.3710550  58.1417160 126.0852890
  98.4514140  57.1944670 126.1970290  99.2630300  58.4724040 126.1913550
 111.7007730  66.1981340 133.5170300 111.8255150  67.0212510 133.9894110
 112.5673290  65.9872070 133.1694450  99.1725260  68.2912550 133.1887430
  99.9087740  67.7428010 133.4596000  99.5566180  69.1568560 133.0493420
  96.0570740  64.3586120 129.0628940  95.1310520  64.6007260 129.0534350
  96.5227170  65.1860380 128.9413690  98.1783540  67.4758620 142.3773010
  98.9796270  67.7970670 142.7908410  97.6635360  67.1154200 143.0992920
 107.0148170  63.5838490 142.3248420 106.4086330  63.6070090 141.5844170
 106.7102280  62.8521530 142.8615670 108.4448540  67.3118780 140.9357830
 109.3970290  67.2276800 140.8858070 108.2976760  67.9760490 141.6091620
  95.8981350  59.9632080 141.3209060  96.4020370  59.3839360 141.8925290
  95.1588770  60.2472310 141.8585430 102.9519290  61.3703070 140.8544580
 102.1864960  61.9388070 140.7699250 103.1335250  61.0779280 139.9612810
 110.0942640  63.1008400 141.4119600 110.8352110  63.4384160 140.9087060
 109.3315320  63.2700460 140.8589370  97.9304430  58.1061670 142.2159130
  97.9709770  57.8075540 143.1244360  98.7849930  58.5069280 142.0566650
  99.8710240  56.6853770 140.1833620  99.3406700  56.1944720 139.5556960
 100.5398310  57.1137970 139.6491550 108.7688300  61.1523230 139.9474810
 109.1829320  61.3068310 140.7965230 107.8339300  61.2778450 140.1100590
 109.2410470  58.4919390 141.9513960 109.8231240  57.7371710 141.8634440
 109.4172240  59.0226830 141.1745440 100.3582540  53.6516140 140.2630910
 100.2639410  53.0336890 139.5381780  99.7779930  54.3782430 140.0360820
 103.1243980  52.2089380 137.2958300 102.6761280  52.2313640 136.4503850
 102.4909180  51.8108400 137.8928600 103.5303530  61.1043710 137.9170740
 103.9491640  61.9476440 137.7446980 102.6112160  61.2415750 137.6877520
 105.8667430  58.8359890 139.3008580 105.9863640  58.2401030 140.0403420
 106.7261430  58.8729580 138.8809880 108.2055330  59.3897080 137.8771090
 107.6790550  59.9139700 137.2736230 108.5486670  60.0224470 138.5080820
 100.6041720  56.7790450 124.3220800 100.4030780  55.9157810 124.6834140
 100.4333770  56.6923810 123.3842400 101.3810950  67.4096720 139.0328470
 100.8432040  68.1342780 138.7137170 101.6344910  66.9327060 138.2425810
 102.6336200  55.3781240 140.5584400 103.2235890  55.0697090 141.2462220
 101.8156440  54.9060990 140.7144300 107.4529630  54.9947050 140.7917420
 106.7645150  54.3328590 140.7267410 108.1735650  54.5485320 141.2365880
  99.4024520  53.8791070 124.3098680  99.7050420  53.8858500 123.4017830
 100.1419110  53.5288930 124.8066340 104.2373160  68.6447930 139.2915120
 104.1631860  69.5483070 139.5987490 103.3352000  68.3259830 139.2637190
  98.4254650  63.1833490 125.1428480  98.8629520  63.7263160 125.7986060
  98.9102380  62.3580440 125.1524820 111.7652840  66.3410110 139.6207680
 111.1654830  66.4002670 138.8771600 111.8946740  65.4015090 139.7504530
 112.4610750  60.8275410 127.4611590 113.2229660  61.3972060 127.5671280
 112.4765120  60.2602610 128.2319900 113.4670720  61.6825510 132.3053520
 113.8379550  60.8992830 131.8989490 114.1072650  62.3714610 132.1270820
 110.4504480  63.0662090 137.7183840 109.6364320  63.4959250 137.9809630
 110.8578680  63.6780500 137.1052890 112.5129920  61.1209780 124.6184110
 112.7878760  62.0288660 124.4903330 112.3240660  61.0572310 125.5546100
 108.9105530  54.1454630 125.9137740 109.3290410  53.9585610 125.0734400
 108.6041590  53.2933680 126.2240670 112.4095260  59.0578770 129.6113540
 112.0338860  58.2906700 129.1794830 111.6798380  59.4401470 130.0988470
  96.9991020  59.7365910 136.2322590  97.3664060  59.6493310 137.1118610
  96.4301840  58.9732460 136.1329450 111.7994880  58.2050290 139.2453060
 111.5680970  57.9763040 138.3451010 112.0599430  59.1249840 139.1997950
  96.5507020  56.6475000 140.1381010  95.6563070  56.6141760 140.4774720
  97.0904570  56.8461790 140.9032260 110.2382950  53.4306720 142.0232760
 111.1153130  53.4390120 142.4066760 110.2503790  52.6937560 141.4125110
  95.1753170  56.5612270 127.6344580  94.2717250  56.8242470 127.4596240
  95.6593790  56.8323440 126.8544540 111.6846220  57.2836260 132.9120780
 112.2083700  56.7898910 132.2810950 112.2705640  57.4186620 133.6568350
 111.8635940  57.3676130 136.4340330 110.9138650  57.3339670 136.5485320
 112.0448950  58.2776240 136.1990100  97.7180380  55.6177810 125.5438960
  98.4272080  55.1961030 125.0586240  97.0020320  55.6853040 124.9122310
  97.3654540  51.6717140 124.5841610  98.0882670  52.2126080 124.9022830
  97.6379060  51.3980560 123.7083150 111.1746190  56.5409610 128.8513190
 111.6705310  56.3080480 129.6362070 110.9762260  55.7021450 128.4350830
  97.0546730  50.9223330 134.4864230  97.7022920  50.3720710 134.0459390
  97.4748570  51.1766480 135.3080040 112.6033350  55.1770560 131.3850870
 112.4932630  55.0226600 132.3233140 113.3640940  54.6491500 131.1426280
 110.9499070  51.1164690 137.8433870 111.5871290  51.7298830 138.2093060
 111.0973960  51.1525350 136.8983100 113.4923620  53.0078480 124.6257010
 114.4172930  52.8759660 124.4175300 113.4699410  53.0871300 125.5793460
 113.5662110  53.7789140 127.2513720 112.7713610  53.7134260 127.7806630
 113.7705390  54.7139780 127.2399070 110.5080530  67.8180690 131.2452110
 111.1039600  67.4965260 130.5686530 110.7658680  67.3452510 132.0365380
  96.8078730  51.0779000 137.2289550  96.4593550  51.5342820 137.9947730
  96.4766430  50.1836130 137.3111980  98.4143100  64.2498600 141.3942740
  98.3712730  63.8791510 142.2757200  98.5454110  65.1876170 141.5344560
 102.1149130  65.8058190 136.9952460 101.8740490  66.0732750 136.1082980
 103.0551770  65.9763920 137.0503320 104.3203550  52.2690880 140.7508970
 104.2592440  52.8612710 141.5004380 105.2603930  52.1616840 140.6059230
 106.9578110  51.9260940 140.3901260 107.5718520  52.2440230 139.7282340
 107.5027670  51.4409530 141.0097120 113.3753290  67.8252570 137.7963100
 112.8811570  68.2221440 137.0790230 112.7666580  67.2001780 138.1900380
  97.4799370  50.6055200 140.5040320  98.0282360  50.4243250 139.7406430
  97.5454680  49.8149310 141.0396630  98.2531130  67.1960850 138.5140520
  97.6591450  67.0645550 139.2530560  98.2454970  66.3598990 138.0482620
 107.6986150  50.4893080 136.7170550 106.8245990  50.8228190 136.5143480
 107.5896900  50.0166260 137.5422420 108.6058130  52.6963950 138.1012270
 108.2771490  51.8815710 137.7214000 109.5540430  52.6533760 137.9777960
 111.0592740  68.4675990 135.0749840 110.5995710  69.2191800 134.7007860
 110.4305200  67.7482460 135.0164640 101.4888460  66.7764230 134.2497970
 102.0053480  66.1651590 133.7246230 102.1385840  67.2793010 134.7408980
 104.2283960  67.6672720 135.0766950 104.5161770  67.4127020 134.1999960
 104.7407180  67.1150080 135.6672520 105.4460970  51.4062920 135.6563460
 104.6632760  51.8808420 135.9360220 105.1523900  50.5017750 135.5476640
 109.9982040  52.1086020 133.7012550 110.4390130  52.0531120 132.8534150
 109.7289630  53.0244030 133.7722730 111.8620610  51.7401260 131.7121370
 111.8009010  50.7962480 131.5652390 112.6412640  51.8481350 132.2574830
  96.1673360  67.8793620 130.6745320  95.9995400  67.2464300 131.3727210
  95.3007870  68.0853020 130.3239510  96.7901380  51.7110400 128.1777180
  97.5480740  51.8239280 127.6041210  96.3278550  52.5479600 128.1320610
 103.3315190  53.8249670 131.1679490 102.5189700  53.4506560 130.8275370
 103.8356830  53.0694750 131.4700680 107.8340170  50.4892120 132.4062560
 108.4369540  51.0612330 132.8811080 107.0933160  51.0531560 132.1836460
 110.9774770  50.8913680 127.6802840 111.1725400  51.7897130 127.9470270
 110.1904640  50.6600760 128.1735790  97.7736060  66.5726850 128.1195460
  97.2483680  66.9534880 127.4157420  97.6980640  67.1977620 128.8405170
  99.1626530  52.2374450 126.7179150  99.6919290  51.4504250 126.5887100
  99.7954850  52.9165640 126.9514680 101.3564370  51.9749590 129.7724540
 100.7267110  51.2736900 129.9394670 100.8169510  52.7353720 129.5557700
 104.2956320  68.5888820 142.4435150 105.2223630  68.3533090 142.4871110
 104.2806750  69.4160820 141.9621180 101.4819930  51.2533570 142.2077030
 101.2004200  51.7567170 141.4437850 101.8639630  50.4555320 141.8419160
 100.3729030  68.5209230 126.9944710 101.1047850  68.2368510 126.4468600
 100.6322700  68.2822510 127.8844090  99.5343820  64.6373960 126.9991040
  98.9052700  65.1059060 127.5476870  99.6491650  63.7923180 127.4337230
 108.0835390  50.6687150 142.7857500 107.9700840  50.9881760 143.6809020
 108.9005130  51.0699660 142.4894780 110.8633880  67.8158680 142.2676190
 111.6559200  67.3207910 142.0602150 111.1567030  68.4948820 142.8751800
  99.1377410  60.7778450 115.9077270  98.3062290  60.5227160 116.3073780
  99.7458390  60.8489220 116.6435190  99.1178670  64.8118540 116.1035290
  99.4206710  63.9216280 115.9245510  99.8622260  65.3688760 115.8757540
  97.5469360  55.7380340 109.6919660  96.6586060  56.0796310 109.5899540
  97.8310550  55.5380660 108.8000490 105.3682320  67.1576840 113.4304630
 104.7493760  67.6134340 112.8599070 106.2234100  67.3128300 113.0294330
  99.8474580  51.9296770 119.3246640  99.8493020  52.4469160 118.5192540
  99.0178890  51.4526950 119.3016570 101.0977430  61.5691950 117.5020140
 100.7646810  62.1960870 118.1441210 101.2744110  62.0953830 116.7221810
 100.3096530  63.5372750 119.3169320 100.9270530  64.2123830 119.0353770
  99.4489650  63.9460730 119.2256820  95.6028870  62.7272610 108.1976170
  95.2256850  63.2159710 107.4661070  95.8601940  63.3997890 108.8282700
 111.2274120  65.0012160 117.2323960 110.5437640  65.6711270 117.2240630
 111.7668410  65.1992810 116.4668820 108.7632860  66.8456290 115.9469140
 108.7760020  66.4418580 115.0791400 108.2108080  67.6203580 115.8430570
 109.0722410  56.9342670 118.3122860 108.6593590  57.7596380 118.5662850
 108.3398360  56.3487710 118.1199220 101.6736900  63.4070130 115.3380740
 101.3765190  62.8015600 114.6588520 102.6236720  63.4447440 115.2270100
  99.9183820  56.4945780 116.9540570 100.4698410  56.6041120 116.1793820
 100.4327330  56.8683380 117.6695800 109.7622510  66.9802000 119.0003840
 109.2853070  67.7874190 118.8076450 109.0784300  66.3280330 119.1530050
 100.7655330  63.1451820 121.9888540  99.8683860  63.3691790 122.2361940
 100.7908200  63.2686760 121.0399940  99.5926550  60.0165140 120.5645910
  99.4534320  60.8887940 120.9333310  98.7107910  59.6737950 120.4193850
 101.3906900  65.9586840 122.7731060 101.3622330  66.3629790 121.9059490
 101.2271870  65.0297200 122.6102660  97.9059830  58.6147550 110.6748180
  97.7857430  59.3409640 110.0629450  97.5960720  57.8450460 110.1976090
  95.5445200  61.7862690 116.4816820  95.6225620  61.9211460 115.5372540
  96.1586880  61.0778580 116.6744940  96.7892830  63.4862880 112.8923000
  96.3820910  63.6277470 112.0376600  97.6805840  63.2023040 112.6894210
 112.7454970  63.9326790 121.2295240 112.8718030  63.6938670 120.3112420
 112.7876350  63.1011330 121.7017320 101.0614490  67.7008660 111.0045670
 100.8856970  66.7844200 110.7913470 100.2070230  68.0595950 111.2443470
 107.8502170  67.0560400 111.8620540 108.3059120  66.2749780 112.1759160
 108.1894690  67.7667220 112.4061720 112.5978980  55.9859250 122.1944980
 111.9823250  56.4938920 121.6660440 112.2775400  55.0857580 122.1370920
  95.6004720  62.8276860 119.0211280  95.7635760  62.3582220 118.2030650
  96.0657170  62.3200420 119.6860120 104.6593300  54.8251140 119.6607170
 104.1972670  55.0334160 120.4727110 104.2571410  54.0110490 119.3577840
 109.6597810  56.0460090 120.7903830 108.8091400  55.7465840 121.1112900
 109.4999600  56.2902100 119.8787650 102.6036920  57.9801770 122.4513370
 102.5080520  57.0396500 122.3013770 103.4468900  58.2016840 122.0561440
  97.7347460  54.3915440 120.6047150  97.3410850  55.2390650 120.8119930
  97.0465860  53.7541810 120.7955790 106.5855480  58.3148850 116.5097810
 105.8536600  58.8235660 116.8587910 106.1879820  57.4978830 116.2086590
 110.4752140  51.1814710 121.7607130 110.7997910  50.4504370 122.2865110
 110.5108650  50.8628350 120.8588120 103.3240840  59.0504830 116.6615710
 103.6910970  58.5763400 117.4077050 103.1345900  59.9246400 117.0024050
 101.1140210  58.0913470 118.9799920 100.8097280  58.9705450 119.2050280
 102.0686670  58.1513260 119.0157360  99.6422000  62.2974460 109.5766770
  98.8684260  61.7572080 109.4165490 100.3716630  61.7781070 109.2384530
 108.5768310  57.0597430 107.8084710 109.4647930  57.3714660 107.6336050
 108.5473400  56.1869680 107.4165290  99.6859400  61.9654840 113.2145580
 100.2038070  61.1623100 113.1602470  99.2343420  61.9033980 114.0562410
  97.1703940  58.9316210 120.1271280  96.8118880  59.5970060 120.7144620
  96.8758500  58.0999760 120.4983900 100.3717060  59.3900450 123.0110830
 100.0717200  59.5357630 122.1138650 101.1428300  58.8305740 122.9184220
 105.7145510  64.1869450 121.0065960 105.7290050  63.2550410 120.7884870
 105.0070610  64.2729210 121.6455730 110.8482580  58.3709270 107.2764570
 110.7646300  58.8023490 106.4261010 111.5676770  58.8307620 107.7091390
 111.9256720  60.8276790 120.3534540 111.2004910  61.4205570 120.1563930
 112.4532180  60.8200330 119.5547910 111.8769830  65.2251530 110.0046700
 111.2345990  64.5707150 110.2790420 111.4900490  65.6306620 109.2287370
  95.6811990  58.9307470 106.7505880  96.5506840  59.2132270 107.0341800
  95.1902310  59.7443340 106.6354690 105.1479410  65.8287020 118.1006460
 105.7921630  66.0346400 118.7779880 105.5108850  65.0675420 117.6477310
 108.1949110  64.6314270 120.0219970 108.5305350  65.2180960 120.6997890
 107.2749450  64.5006980 120.2517760  96.0483240  68.1434850 107.3167510
  96.4080880  68.7424190 106.6624780  95.9075580  68.6894740 108.0902540
  95.7452510  52.4209450 120.8043380  95.0311030  52.6206370 121.4095990
  96.1647550  51.6449020 121.1758180 109.8483460  62.0339930 108.2037210
 109.5605160  62.4952620 108.9915090 110.6435630  61.5737700 108.4721430
  96.0325100  66.4089710 121.7909910  96.1416220  65.4684450 121.6505300
  95.3805660  66.6744460 121.1423640 102.0651860  65.5266050 108.1341180
 102.0561960  66.2595740 107.5185690 101.1450220  65.2797630 108.2268140
  97.6658500  60.7480940 108.8787940  97.0586450  61.4879840 108.8883240
  98.1407850  60.8380300 108.0526140 104.1993280  57.5671350 118.7782800
 104.6978530  58.0417170 119.4434650 104.3416230  56.6434870 118.9852830
 103.6929570  68.1080610 111.4914040 103.9471070  68.0702000 110.5693410
 102.7442050  67.9813940 111.4842290  99.6763790  60.7092090 106.6276510
 100.4427060  60.5973450 107.1901940  99.7538480  60.0130060 105.9753280
  98.3710550  58.1417160 107.3109400  98.4514140  57.1944670 107.4226800
  99.2630300  58.4724040 107.4170060 111.7007730  66.1981340 114.7426810
 111.8255150  67.0212510 115.2150620 112.5673290  65.9872070 114.3950960
  99.1725260  68.2912550 114.4143940  99.9087740  67.7428010 114.6852510
  99.5566180  69.1568560 114.2749930  96.0570740  64.3586120 110.2885450
  95.1310520  64.6007260 110.2790860  96.5227170  65.1860380 110.1670200
  98.1783540  67.4758620 123.6029520  98.9796270  67.7970670 124.0164920
  97.6635360  67.1154200 124.3249430 108.4448540  67.3118780 122.1614340
 109.3970290  67.2276800 122.1114580 108.2976760  67.9760490 122.8348130
 111.3357740  66.6912990 107.6606250 111.0499250  66.2778130 106.8460430
 111.1377290  67.6200700 107.5406770 102.8004970  62.6846270 106.1011860
 102.6955610  62.0698620 106.8273240 102.6329190  62.1612160 105.3174870
 110.0942640  63.1008400 122.6376110 110.8352110  63.4384160 122.1343570
 109.3315320  63.2700460 122.0845880  97.9304430  58.1061670 123.4415640
  97.9709770  57.8075540 124.3500870  98.7849930  58.5069280 123.2823160
  99.8710240  56.6853770 121.4090130  99.3406700  56.1944720 120.7813470
 100.5398310  57.1137970 120.8748060 108.7688300  61.1523230 121.1731320
 109.1829320  61.3068310 122.0221740 107.8339300  61.2778450 121.3357100
 109.2410470  58.4919390 123.1770470 109.8231240  57.7371710 123.0890950
 109.4172240  59.0226830 122.4001950 100.3582540  53.6516140 121.4887420
 100.2639410  53.0336890 120.7638290  99.7779930  54.3782430 121.2617330
 103.1243980  52.2089380 118.5214810 102.6761280  52.2313640 117.6760360
 102.4909180  51.8108400 119.1185110 103.5303530  61.1043710 119.1427250
 103.9491640  61.9476440 118.9703490 102.6112160  61.2415750 118.9134030
 105.8667430  58.8359890 120.5265090 105.9863640  58.2401030 121.2659930
 106.7261430  58.8729580 120.1066390 108.2055330  59.3897080 119.1027600
 107.6790550  59.9139700 118.4992740 108.5486670  60.0224470 119.7337330
 102.6336200  55.3781240 121.7840910 103.2235890  55.0697090 122.4718730
 101.8156440  54.9060990 121.9400810 107.4529630  54.9947050 122.0173930
 106.7645150  54.3328590 121.9523920 108.1735650  54.5485320 122.4622390
 108.0830030  51.5898680 108.0764190 108.3632320  50.7466580 108.4323610
 107.3095760  51.8221790 108.5902940 104.7858490  67.8106440 108.1397990
 105.6809280  68.1491410 108.1616750 104.8176120  67.0885850 107.5122270
  98.4254650  63.1833490 106.3684990  98.8629520  63.7263160 107.0242570
  98.9102380  62.3580440 106.3781330  95.6400450  65.9722520 113.8205250
  95.9703460  65.1043580 113.5883890  96.0691450  66.1781040 114.6510210
 100.2362370  64.3031530 111.4807220  99.9357910  64.1796500 112.3811130
 100.1299860  63.4440120 111.0722950  96.1290660  66.8393110 116.5586880
  95.6921650  67.0193910 117.3911030  96.6968340  67.5967730 116.4168600
 111.7652840  66.3410110 120.8464190 111.1654830  66.4002670 120.1028110
 111.8946740  65.4015090 120.9761040 113.0054290  64.0827930 106.1833900
 112.1747250  64.1504580 106.6541130 113.1826120  64.9732050 105.8800760
 112.4610750  60.8275410 108.6868100 113.2229660  61.3972060 108.7927790
 112.4765120  60.2602610 109.4576410 113.4670720  61.6825510 113.5310030
 113.8379550  60.8992830 113.1246000 114.1072650  62.3714610 113.3527330
 110.4504480  63.0662090 118.9440350 109.6364320  63.4959250 119.2066140
 110.8578680  63.6780500 118.3309400 112.5129920  61.1209780 105.8440620
 112.7878760  62.0288660 105.7159840 112.3240660  61.0572310 106.7802610
 112.4095260  59.0578770 110.8370050 112.0338860  58.2906700 110.4051340
 111.6798380  59.4401470 111.3244980  96.9991020  59.7365910 117.4579100
  97.3664060  59.6493310 118.3375120  96.4301840  58.9732460 117.3585960
 111.7994880  58.2050290 120.4709570 111.5680970  57.9763040 119.5707520
 112.0599430  59.1249840 120.4254460  96.5507020  56.6475000 121.3637520
  95.6563070  56.6141760 121.7031230  97.0904570  56.8461790 122.1288770
 110.2382950  53.4306720 123.2489270 111.1153130  53.4390120 123.6323270
 110.2503790  52.6937560 122.6381620 111.6846220  57.2836260 114.1377290
 112.2083700  56.7898910 113.5067460 112.2705640  57.4186620 114.8824860
 111.8635940  57.3676130 117.6596840 110.9138650  57.3339670 117.7741830
 112.0448950  58.2776240 117.4246610 111.1746190  56.5409610 110.0769700
 111.6705310  56.3080480 110.8618580 110.9762260  55.7021450 109.6607340
 113.4923620  53.0078480 105.8513520 114.4172930  52.8759660 105.6431810
 113.4699410  53.0871300 106.8049970  96.8078730  51.0779000 118.4546060
  96.4593550  51.5342820 119.2204240  96.4766430  50.1836130 118.5368490
  98.4143100  64.2498600 122.6199250  98.3712730  63.8791510 123.5013710
  98.5454110  65.1876170 122.7601070 102.1149130  65.8058190 118.2208970
 101.8740490  66.0732750 117.3339490 103.0551770  65.9763920 118.2759830
 104.3203550  52.2690880 121.9765480 104.2592440  52.8612710 122.7260890
 105.2603930  52.1616840 121.8315740 106.9578110  51.9260940 121.6157770
 107.5718520  52.2440230 120.9538850 107.5027670  51.4409530 122.2353630
  97.4799370  50.6055200 121.7296830  98.0282360  50.4243250 120.9662940
  97.5454680  49.8149310 122.2653140  98.2531130  67.1960850 119.7397030
  97.6591450  67.0645550 120.4787070  98.2454970  66.3598990 119.2739130
 111.0592740  68.4675990 116.3006350 110.5995710  69.2191800 115.9264370
 110.4305200  67.7482460 116.2421150  97.8843360  64.5619230 118.6905070
  97.1577420  63.9424520 118.6231020  97.9452510  64.9559840 117.8203150
 101.4888460  66.7764230 115.4754480 102.0053480  66.1651590 114.9502740
 102.1385840  67.2793010 115.9665490  96.1673360  67.8793620 111.9001830
  95.9995400  67.2464300 112.5983720  95.3007870  68.0853020 111.5496020
  97.7736060  66.5726850 109.3451970  97.2483680  66.9534880 108.6413930
  97.6980640  67.1977620 110.0661680 101.4819930  51.2533570 123.4333540
 101.2004200  51.7567170 122.6694360 101.8639630  50.4555320 123.0675670
 100.3729030  68.5209230 108.2201220 101.1047850  68.2368510 107.6725110
 100.6322700  68.2822510 109.1100600  99.5343820  64.6373960 108.2247550
  98.9052700  65.1059060 108.7733380  99.6491650  63.7923180 108.6593740
 110.8633880  67.8158680 123.4932700 111.6559200  67.3207910 123.2858660
 111.1567030  68.4948820 124.1008310 105.1211580  60.4658640  96.2558020
 104.3453680  59.9859080  96.5456590 105.7724510  59.7864290  96.0814180
 109.1419010  64.8718830  95.0357150 108.6800540  64.1006070  95.3644320
 109.9544560  64.8984900  95.5409600  97.5469360  55.7380340  90.9176170
  96.6586060  56.0796310  90.8156050  97.8310550  55.5380660  90.0257000
 105.3682320  67.1576840  94.6561140 104.7493760  67.6134340  94.0855580
 106.2234100  67.3128300  94.2550840 104.5620570  63.1415830  96.2628180
 104.4928850  62.2005770  96.1017310 105.3240430  63.2317240  96.8350750
  96.7527240  53.7470350  98.5884800  96.5730080  52.8496100  98.8687560
  96.3507320  54.2942220  99.2631750 105.5925740  55.9486210  96.4897110
 105.9690560  55.0758090  96.3770780 105.4945250  56.2844910  95.5987550
  99.7230750  54.3211840  91.9514550  99.8297500  55.2215570  92.2583310
  98.8123110  54.2729810  91.6609200 109.3749860  53.4436650  93.4225450
 110.1959480  52.9533220  93.4650930 109.4083940  54.0334310  94.1757290
  99.8474580  51.9296770 100.5503150  99.8493020  52.4469160  99.7449050
  99.0178890  51.4526950 100.5273080 109.6111340  55.3837030  96.1952990
 108.9066910  55.6721920  96.7756100 109.9723500  56.1937140  95.8352550
 112.6798260  54.8291820  96.5862200 111.7323170  54.8630800  96.7177630
 113.0048250  55.6430770  96.9711560 108.7632860  66.8456290  97.1725650
 108.7760020  66.4418580  96.3047910 108.2108080  67.6203580  97.0687080
 108.1618300  61.7486130  98.5008260 108.5787090  61.5346240  97.6661720
 108.8858120  62.0058920  99.0716880 105.5998560  59.1937830  91.6178310
 104.6727840  59.1275210  91.8466780 105.7523380  60.1317960  91.5033550
 112.1080400  60.1473350  98.5924500 111.2799030  60.2166440  98.1174630
 112.7030880  60.7327660  98.1240330 100.7655330  63.1451820 103.2145050
  99.8683860  63.3691790 103.4618450 100.7908200  63.2686760 102.2656450
 105.9155930  64.9341010  93.0967550 106.3551840  65.6765340  92.6822940
 105.8542820  65.1767580  94.0206510 101.3906900  65.9586840 103.9987570
 101.3622330  66.3629790 103.1316000 101.2271870  65.0297200 103.8359170
  97.9059830  58.6147550  91.9004690  97.7857430  59.3409640  91.2885960
  97.5960720  57.8450460  91.4232600 113.3421720  66.7413940 105.2951740
 113.8181440  67.2196830 105.9740820 113.9628880  66.6731430 104.5697240
 112.7454970  63.9326790 102.4551750 112.8718030  63.6938670 101.5368930
 112.7876350  63.1011330 102.9273830 106.6071710  67.6354790 101.0246560
 107.1216380  67.5462800 101.8268990 105.7640790  67.9814490 101.3174470
 101.0614490  67.7008660  92.2302180 100.8856970  66.7844200  92.0169980
 100.2070230  68.0595950  92.4699980 107.8502170  67.0560400  93.0877050
 108.3059120  66.2749780  93.4015670 108.1894690  67.7667220  93.6318230
 104.6593300  54.8251140 100.8863680 104.1972670  55.0334160 101.6983620
 104.2571410  54.0110490 100.5834350 100.1637710  57.0816190  93.0109610
  99.9378630  56.8653360  93.9156230  99.3830240  57.5144650  92.6655580
 102.6036920  57.9801770 103.6769880 102.5080520  57.0396500 103.5270280
 103.4468900  58.2016840 103.2817950  97.7347460  54.3915440 101.8303660
  97.3410850  55.2390650 102.0376440  97.0465860  53.7541810 102.0212300
  95.0364510  52.3143900  95.8633740  94.7477560  52.8846760  96.5758720
  95.7810270  51.8348350  96.2264970  95.2234740  56.2564020  87.0736460
  95.1409410  57.1994780  87.2151450  94.8717800  56.1138930  86.1948810
 106.5855480  58.3148850  97.7354320 105.8536600  58.8235660  98.0844420
 106.1879820  57.4978830  97.4343100 103.0232870  54.9903050  96.1406810
 103.0268930  54.5493000  95.2911350 103.9183990  55.3120380  96.2478630
  98.8735250  54.8729540  95.1001020  98.5335300  55.3504770  95.8568070
  98.1112570  54.4194660  94.7402120 103.0853020  55.9915130  89.1313570
 103.2065840  55.9501610  90.0799390 102.7001530  56.8539280  88.9760300
 107.0481390  53.7682530  97.1477260 107.0654130  54.2191180  97.9919110
 106.7996970  52.8688170  97.3610700 102.0974520  58.3016270  88.5296870
 101.5291420  57.8534520  87.9032780 102.8063520  58.6609050  87.9962020
 110.4752140  51.1814710 102.9863640 110.7997910  50.4504370 103.5121620
 110.5108650  50.8628350 102.0844630  96.1881330  53.7948520  94.0165690
  95.9028250  53.4304190  94.8544310  96.1260190  53.0628980  93.4028830
  99.6422000  62.2974460  90.8023280  98.8684260  61.7572080  90.6422000
 100.3716630  61.7781070  90.4641040 110.4009980  61.2939820  96.5949670
 111.1209100  61.7895110  96.2045780 110.1991800  60.6157710  95.9503540
 100.3717060  59.3900450 104.2367340 100.0717200  59.5357630 103.3395160
 101.1428300  58.8305740 104.1440730 111.9256720  60.8276790 101.5791050
 111.2004910  61.4205570 101.3820440 112.4532180  60.8200330 100.7804420
 111.8769830  65.2251530  91.2303210 111.2345990  64.5707150  91.5046930
 111.4900490  65.6306620  90.4543880 107.4556310  62.5536960  95.0774900
 107.8080130  61.9565090  94.4176270 106.5718640  62.2281190  95.2483150
 103.5419590  63.3134650  92.4845310 104.2290720  63.8603860  92.8652900
 102.7552010  63.8575380  92.5194920  95.6811990  58.9307470  87.9762390
  96.5506840  59.2132270  88.2598310  95.1902310  59.7443340  87.8611200
 102.8446800  60.3180680  92.0970670 103.3009580  61.1285930  92.3230860
 102.4935010  60.0003820  92.9289160 105.1479410  65.8287020  99.3262970
 105.7921630  66.0346400 100.0036390 105.5108850  65.0675420  98.8733820
  98.7458580  50.6618330  92.5693190  98.6173210  50.6536230  93.5178110
  97.9220600  51.0001420  92.2184200 106.4211490  63.8319370  98.0440420
 107.0633720  63.1312530  98.1572590 106.9460840  64.6117810  97.8637310
  96.0325100  66.4089710 103.0166420  96.1416220  65.4684450 102.8761810
  95.3805660  66.6744460 102.3680150 102.0651860  65.5266050  89.3597690
 102.0561960  66.2595740  88.7442200 101.1450220  65.2797630  89.4524650
  97.6658500  60.7480940  90.1044450  97.0586450  61.4879840  90.1139750
  98.1407850  60.8380300  89.2782650 107.2391290  54.9131760  99.7801340
 107.6072110  54.0926970 100.1080910 106.3789490  54.9733650 100.1956990
 110.6053320  53.8688700  90.5888900 109.9766480  53.9734370  89.8747130
 110.1105240  54.0885480  91.3782780 102.5737350  56.1474650  92.0046780
 101.8653500  56.6160990  92.4460390 102.8581830  55.4896660  92.6391970
 104.1993280  57.5671350 100.0039310 104.6978530  58.0417170 100.6691160
 104.3416230  56.6434870 100.2109340 106.6052780  52.8725310  93.4442570
 106.4820560  52.8911440  92.4952080 107.5537340  52.9204250  93.5640970
 103.6929570  68.1080610  92.7170550 103.9471070  68.0702000  91.7949920
 102.7442050  67.9813940  92.7098800 100.7772370  54.4559730  89.3797490
 101.6262900  54.8929880  89.3137680 100.4103640  54.7679990  90.2069550
 109.6982150  59.0272490  94.2929060 108.7572290  59.0422720  94.4676750
 110.0126220  58.2408450  94.7389360  99.6763790  60.7092090  87.8533020
 100.4427060  60.5973450  88.4158450  99.7538480  60.0130060  87.2009790
  98.3710550  58.1417160  88.5365910  98.4514140  57.1944670  88.6483310
  99.2630300  58.4724040  88.6426570 111.7007730  66.1981340  95.9683320
 111.8255150  67.0212510  96.4407130 112.5673290  65.9872070  95.6207470
  99.1725260  68.2912550  95.6400450  99.9087740  67.7428010  95.9109020
  99.5566180  69.1568560  95.5006440  96.0570740  64.3586120  91.5141960
  95.1310520  64.6007260  91.5047370  96.5227170  65.1860380  91.3926710
  98.1783540  67.4758620 104.8286030  98.9796270  67.7970670 105.2421430
  97.6635360  67.1154200 105.5505940 102.2827570  67.4642860  87.4626020
 103.0756180  67.7531690  87.0107810 101.7631920  67.0335030  86.7838500
 108.4448540  67.3118780 103.3870850 109.3970290  67.2276800 103.3371090
 108.2976760  67.9760490 104.0604640 111.3357740  66.6912990  88.8862760
 111.0499250  66.2778130  88.0716940 111.1377290  67.6200700  88.7663280
  95.8981350  59.9632080 103.7722080  96.4020370  59.3839360 104.3438310
  95.1588770  60.2472310 104.3098450 102.8004970  62.6846270  87.3268370
 102.6955610  62.0698620  88.0529750 102.6329190  62.1612160  86.5431380
  97.9304430  58.1061670 104.6672150  97.9709770  57.8075540 105.5757380
  98.7849930  58.5069280 104.5079670 101.7082820  60.7057220  89.8275660
 102.1299240  60.5397090  90.6707050 101.8333660  59.8957450  89.3330800
 100.3582540  53.6516140 102.7143930 100.2639410  53.0336890 101.9894800
  99.7779930  54.3782430 102.4873840 108.2055330  59.3897080 100.3284110
 107.6790550  59.9139700  99.7249250 108.5486670  60.0224470 100.9593840
 100.6041720  56.7790450  86.7733820 100.4030780  55.9157810  87.1347160
 100.4333770  56.6923810  85.8355420 101.3810950  67.4096720 101.4841490
 100.8432040  68.1342780 101.1650190 101.6344910  66.9327060 100.6938830
 102.6336200  55.3781240 103.0097420 103.2235890  55.0697090 103.6975240
 101.8156440  54.9060990 103.1657320 107.4529630  54.9947050 103.2430440
 106.7645150  54.3328590 103.1780430 108.1735650  54.5485320 103.6878900
  99.4024520  53.8791070  86.7611700  99.7050420  53.8858500  85.8530850
 100.1419110  53.5288930  87.2579360  98.4254650  63.1833490  87.5941500
  98.8629520  63.7263160  88.2499080  98.9102380  62.3580440  87.6037840
 100.2362370  64.3031530  92.7063730  99.9357910  64.1796500  93.6067640
 100.1299860  63.4440120  92.2979460 111.7652840  66.3410110 102.0720700
 111.1654830  66.4002670 101.3284620 111.8946740  65.4015090 102.2017550
 113.0054290  64.0827930  87.4090410 112.1747250  64.1504580  87.8797640
 113.1826120  64.9732050  87.1057270 112.4610750  60.8275410  89.9124610
 113.2229660  61.3972060  90.0184300 112.4765120  60.2602610  90.6832920
  95.9615090  59.3513340  94.1432270  95.3063930  59.0824980  93.4991970
  96.7993040  59.2417820  93.6934250 113.4670720  61.6825510  94.7566540
 113.8379550  60.8992830  94.3502510 114.1072650  62.3714610  94.5783840
 110.4504480  63.0662090 100.1696860 109.6364320  63.4959250 100.4322650
 110.8578680  63.6780500  99.5565910 112.5129920  61.1209780  87.0697130
 112.7878760  62.0288660  86.9416350 112.3240660  61.0572310  88.0059120
 112.4095260  59.0578770  92.0626560 112.0338860  58.2906700  91.6307850
 111.6798380  59.4401470  92.5501490 110.2382950  53.4306720 104.4745780
 111.1153130  53.4390120 104.8579780 110.2503790  52.6937560 103.8638130
  95.1753170  56.5612270  90.0857600  94.2717250  56.8242470  89.9109260
  95.6593790  56.8323440  89.3057560 111.6846220  57.2836260  95.3633800
 112.2083700  56.7898910  94.7323970 112.2705640  57.4186620  96.1081370
  97.7180380  55.6177810  87.9951980  98.4272080  55.1961030  87.5099260
  97.0020320  55.6853040  87.3635330  97.3654540  51.6717140  87.0354630
  98.0882670  52.2126080  87.3535850  97.6379060  51.3980560  86.1596170
  97.0546730  50.9223330  96.9377250  97.7022920  50.3720710  96.4972410
  97.4748570  51.1766480  97.7593060 112.6033350  55.1770560  93.8363890
 112.4932630  55.0226600  94.7746160 113.3640940  54.6491500  93.5939300
 110.9499070  51.1164690 100.2946890 111.5871290  51.7298830 100.6606080
 111.0973960  51.1525350  99.3496120 113.4923620  53.0078480  87.0770030
 114.4172930  52.8759660  86.8688320 113.4699410  53.0871300  88.0306480
 113.5662110  53.7789140  89.7026740 112.7713610  53.7134260  90.2319650
 113.7705390  54.7139780  89.6912090 110.5080530  67.8180690  93.6965130
 111.1039600  67.4965260  93.0199550 110.7658680  67.3452510  94.4878400
  98.4143100  64.2498600 103.8455760  98.3712730  63.8791510 104.7270220
  98.5454110  65.1876170 103.9857580 102.1149130  65.8058190  99.4465480
 101.8740490  66.0732750  98.5596000 103.0551770  65.9763920  99.5016340
 104.3203550  52.2690880 103.2021990 104.2592440  52.8612710 103.9517400
 105.2603930  52.1616840 103.0572250 106.9578110  51.9260940 102.8414280
 107.5718520  52.2440230 102.1795360 107.5027670  51.4409530 103.4610140
  97.4799370  50.6055200 102.9553340  98.0282360  50.4243250 102.1919450
  97.5454680  49.8149310 103.4909650 108.6058130  52.6963950 100.5525290
 108.2771490  51.8815710 100.1727020 109.5540430  52.6533760 100.4290980
 111.0592740  68.4675990  97.5262860 110.5995710  69.2191800  97.1520880
 110.4305200  67.7482460  97.4677660 101.4888460  66.7764230  96.7010990
 102.0053480  66.1651590  96.1759250 102.1385840  67.2793010  97.1922000
 104.2283960  67.6672720  97.5279970 104.5161770  67.4127020  96.6512980
 104.7407180  67.1150080  98.1185540 105.4460970  51.4062920  98.1076480
 104.6632760  51.8808420  98.3873240 105.1523900  50.5017750  97.9989660
 109.9982040  52.1086020  96.1525570 110.4390130  52.0531120  95.3047170
 109.7289630  53.0244030  96.2235750 111.8620610  51.7401260  94.1634390
 111.8009010  50.7962480  94.0165410 112.6412640  51.8481350  94.7087850
  96.1673360  67.8793620  93.1258340  95.9995400  67.2464300  93.8240230
  95.3007870  68.0853020  92.7752530  96.7901380  51.7110400  90.6290200
  97.5480740  51.8239280  90.0554230  96.3278550  52.5479600  90.5833630
 103.3315190  53.8249670  93.6192510 102.5189700  53.4506560  93.2788390
 103.8356830  53.0694750  93.9213700 110.9774770  50.8913680  90.1315860
 111.1725400  51.7897130  90.3983290 110.1904640  50.6600760  90.6248810
  97.7736060  66.5726850  90.5708480  97.2483680  66.9534880  89.8670440
  97.6980640  67.1977620  91.2918190  99.1626530  52.2374450  89.1692170
  99.6919290  51.4504250  89.0400120  99.7954850  52.9165640  89.4027700
 101.3564370  51.9749590  92.2237560 100.7267110  51.2736900  92.3907690
 100.8169510  52.7353720  92.0070720 112.5301380  68.1314390  91.8922420
 112.7053570  67.4452130  91.2483340 111.8322950  68.6561440  91.4999090
 101.4819930  51.2533570 104.6590050 101.2004200  51.7567170 103.8950870
 101.8639630  50.4555320 104.2932180 100.3729030  68.5209230  89.4457730
 101.1047850  68.2368510  88.8981620 100.6322700  68.2822510  90.3357110
  99.5343820  64.6373960  89.4504060  98.9052700  65.1059060  89.9989890
  99.6491650  63.7923180  89.8850250 108.0835390  50.6687150 105.2370520
 107.9700840  50.9881760 106.1322040 108.9005130  51.0699660 104.9407800
 110.8633880  67.8158680 104.7189210 111.6559200  67.3207910 104.5115170
 111.1567030  68.4948820 105.3264820 106.9893540  58.6879620  75.6005260
 106.9087590  57.7734230  75.3296970 106.5757960  59.1846690  74.8944970
 105.1211580  60.4658640  77.4814530 104.3453680  59.9859080  77.7713100
 105.7724510  59.7864290  77.3070690  99.1377410  60.7778450  78.3590290
  98.3062290  60.5227160  78.7586800  99.7458390  60.8489220  79.0948210
 109.1419010  64.8718830  76.2613660 108.6800540  64.1006070  76.5900830
 109.9544560  64.8984900  76.7666110  99.1178670  64.8118540  78.5548310
  99.4206710  63.9216280  78.3758530  99.8622260  65.3688760  78.3270560
 104.5620570  63.1415830  77.4884690 104.4928850  62.2005770  77.3273820
 105.3240430  63.2317240  78.0607260  96.7527240  53.7470350  79.8141310
  96.5730080  52.8496100  80.0944070  96.3507320  54.2942220  80.4888260
 105.5925740  55.9486210  77.7153620 105.9690560  55.0758090  77.6027290
 105.4945250  56.2844910  76.8244060  99.7230750  54.3211840  73.1771060
  99.8297500  55.2215570  73.4839820  98.8123110  54.2729810  72.8865710
 109.3749860  53.4436650  74.6481960 110.1959480  52.9533220  74.6907440
 109.4083940  54.0334310  75.4013800  97.3713910  56.2430850  78.4223650
  98.0524020  56.5069220  79.0411050  97.0561960  55.4031720  78.7561660
 101.5638480  57.2898210  77.5096240 102.0716700  57.7879180  78.1501260
 102.0951720  56.5133410  77.3335600  99.8474580  51.9296770  81.7759660
  99.8493020  52.4469160  80.9705560  99.0178890  51.4526950  81.7529590
 106.2345670  62.0416080  73.2749560 105.6162940  62.5065530  72.7112280
 106.7468920  62.7343560  73.6919070 101.0977430  61.5691950  79.9533160
 100.7646810  62.1960870  80.5954230 101.2744110  62.0953830  79.1734830
 109.6111340  55.3837030  77.4209500 108.9066910  55.6721920  78.0012610
 109.9723500  56.1937140  77.0609060  99.5289910  53.6406730  79.7830110
  99.8706720  54.4848780  79.4883980  98.5905720  53.7890470  79.8995450
 100.3096530  63.5372750  81.7682340 100.9270530  64.2123830  81.4866790
  99.4489650  63.9460730  81.6769840 108.7632860  66.8456290  78.3982160
 108.7760020  66.4418580  77.5304420 108.2108080  67.6203580  78.2943590
 110.0578280  63.5672510  73.4872330 109.9474610  62.6246840  73.6121750
 110.0546530  63.9288150  74.3735090 108.1618300  61.7486130  79.7264770
 108.5787090  61.5346240  78.8918230 108.8858120  62.0058920  80.2973390
 105.5998560  59.1937830  72.8434820 104.6727840  59.1275210  73.0723290
 105.7523380  60.1317960  72.7290060 105.5867640  55.4654830  69.8401980
 104.6471310  55.6268790  69.9254440 105.9050900  56.1840510  69.2937970
 101.2055200  59.7202570  75.6254550 100.8012200  59.0079820  75.1300450
 101.2918320  59.3755810  76.5142590 101.6736900  63.4070130  77.7893760
 101.3765190  62.8015600  77.1101540 102.6236720  63.4447440  77.6783120
  99.9183820  56.4945780  79.4053590 100.4698410  56.6041120  78.6306840
 100.4327330  56.8683380  80.1208820 109.7622510  66.9802000  81.4516860
 109.2853070  67.7874190  81.2589470 109.0784300  66.3280330  81.6043070
 100.7655330  63.1451820  84.4401560  99.8683860  63.3691790  84.6874960
 100.7908200  63.2686760  83.4912960  99.5926550  60.0165140  83.0158930
  99.4534320  60.8887940  83.3846330  98.7107910  59.6737950  82.8706870
 105.9155930  64.9341010  74.3224060 106.3551840  65.6765340  73.9079450
 105.8542820  65.1767580  75.2463020 101.3906900  65.9586840  85.2244080
 101.3622330  66.3629790  84.3572510 101.2271870  65.0297200  85.0615680
 111.3877690  51.2487750  68.6683860 111.0750350  51.3414580  69.5682930
 112.1490160  51.8268780  68.6181290 113.3421720  66.7413940  86.5208250
 113.8181440  67.2196830  87.1997330 113.9628880  66.6731430  85.7953750
  96.7892830  63.4862880  75.3436020  96.3820910  63.6277470  74.4889620
  97.6805840  63.2023040  75.1407230 108.5826110  67.9210130  71.6787070
 108.4227250  67.6313070  72.5768900 108.4172820  67.1450260  71.1432300
 101.0614490  67.7008660  73.4558690 100.8856970  66.7844200  73.2426490
 100.2070230  68.0595950  73.6956490 108.2852240  65.4297690  70.2385070
 107.5917400  65.4274980  69.5787350 109.0275100  65.0057010  69.8079240
 107.8502170  67.0560400  74.3133560 108.3059120  66.2749780  74.6272180
 108.1894690  67.7667220  74.8574740 100.3723490  51.9582620  76.5084870
  99.9291640  52.7392160  76.1769390 100.9308480  52.2812510  77.2155810
 104.6593300  54.8251140  82.1120190 104.1972670  55.0334160  82.9240130
 104.2571410  54.0110490  81.8090860 106.7547520  57.5461840  85.3415640
 107.0800930  56.7125590  85.0017870 107.5427850  58.0690360  85.4893970
 103.4882310  51.5793320  71.3890700 102.8636490  51.5753190  72.1144010
 103.4012430  50.7124280  70.9926670 100.1637710  57.0816190  74.2366120
  99.9378630  56.8653360  75.1412740  99.3830240  57.5144650  73.8912090
 107.3935470  57.0879560  72.8356770 106.7944360  57.8115360  72.6520390
 107.9415080  57.0256340  72.0533220 102.6036920  57.9801770  84.9026390
 102.5080520  57.0396500  84.7526790 103.4468900  58.2016840  84.5074460
 106.0000340  55.7243100  74.8660050 106.3929910  56.0415300  74.0528740
 106.3617190  54.8454980  74.9804570  97.7347460  54.3915440  83.0560170
  97.3410850  55.2390650  83.2632950  97.0465860  53.7541810  83.2468810
  95.0364510  52.3143900  77.0890250  94.7477560  52.8846760  77.8015230
  95.7810270  51.8348350  77.4521480 106.5855480  58.3148850  78.9610830
 105.8536600  58.8235660  79.3100930 106.1879820  57.4978830  78.6599610
 103.0232870  54.9903050  77.3663320 103.0268930  54.5493000  76.5167860
 103.9183990  55.3120380  77.4735140  98.8735250  54.8729540  76.3257530
  98.5335300  55.3504770  77.0824580  98.1112570  54.4194660  75.9658630
 103.0853020  55.9915130  70.3570080 103.2065840  55.9501610  71.3055900
 102.7001530  56.8539280  70.2016810 102.0974520  58.3016270  69.7553380
 101.5291420  57.8534520  69.1289290 102.8063520  58.6609050  69.2218530
 110.4752140  51.1814710  84.2120150 110.7997910  50.4504370  84.7378130
 110.5108650  50.8628350  83.3101140 103.3240840  59.0504830  79.1128730
 103.6910970  58.5763400  79.8590070 103.1345900  59.9246400  79.4537070
  96.1881330  53.7948520  75.2422200  95.9028250  53.4304190  76.0800820
  96.1260190  53.0628980  74.6285340 101.1140210  58.0913470  81.4312940
 100.8097280  58.9705450  81.6563300 102.0686670  58.1513260  81.4670380
  99.6422000  62.2974460  72.0279790  98.8684260  61.7572080  71.8678510
 100.3716630  61.7781070  71.6897550 110.4009980  61.2939820  77.8206180
 111.1209100  61.7895110  77.4302290 110.1991800  60.6157710  77.1760050
 105.8619920  52.6877780  71.9635570 105.0484530  52.1890950  71.8880880
 105.6681870  53.5276030  71.5471920  99.6859400  61.9654840  75.6658600
 100.2038070  61.1623100  75.6115490  99.2343420  61.9033980  76.5075430
 104.5728900  63.2321120  70.9385900 104.9144600  63.9763350  70.4429220
 103.7441610  63.5452240  71.3010730 100.3717060  59.3900450  85.4623850
 100.0717200  59.5357630  84.5651670 101.1428300  58.8305740  85.3697240
 105.7145510  64.1869450  83.4578980 105.7290050  63.2550410  83.2397890
 105.0070610  64.2729210  84.0968750 111.8769830  65.2251530  72.4559720
 111.2345990  64.5707150  72.7303440 111.4900490  65.6306620  71.6800390
 107.4556310  62.5536960  76.3031410 107.8080130  61.9565090  75.6432780
 106.5718640  62.2281190  76.4739660 103.5419590  63.3134650  73.7101820
 104.2290720  63.8603860  74.0909410 102.7552010  63.8575380  73.7451430
 102.8446800  60.3180680  73.3227180 103.3009580  61.1285930  73.5487370
 102.4935010  60.0003820  74.1545670 105.1479410  65.8287020  80.5519480
 105.7921630  66.0346400  81.2292900 105.5108850  65.0675420  80.0990330
  98.7458580  50.6618330  73.7949700  98.6173210  50.6536230  74.7434620
  97.9220600  51.0001420  73.4440710 106.4211490  63.8319370  79.2696930
 107.0633720  63.1312530  79.3829100 106.9460840  64.6117810  79.0893820
  95.7452510  52.4209450  83.2556400  95.0311030  52.6206370  83.8609010
  96.1647550  51.6449020  83.6271200 104.0237690  64.6805600  85.6421050
 103.7034560  63.9614840  86.1866740 103.3496050  65.3560670  85.7157110
 102.0651860  65.5266050  70.5854200 102.0561960  66.2595740  69.9698710
 101.1450220  65.2797630  70.6781160 110.6053320  53.8688700  71.8145410
 109.9766480  53.9734370  71.1003640 110.1105240  54.0885480  72.6039290
 105.0511460  65.5894290  69.2479390 105.1523440  65.3858280  68.3181370
 104.1513200  65.3352570  69.4527170 102.5737350  56.1474650  73.2303290
 101.8653500  56.6160990  73.6716900 102.8581830  55.4896660  73.8648480
 104.1993280  57.5671350  81.2295820 104.6978530  58.0417170  81.8947670
 104.3416230  56.6434870  81.4365850 106.6052780  52.8725310  74.6699080
 106.4820560  52.8911440  73.7208590 107.5537340  52.9204250  74.7897480
 100.7772370  54.4559730  70.6054000 101.6262900  54.8929880  70.5394190
 100.4103640  54.7679990  71.4326060 109.6982150  59.0272490  75.5185570
 108.7572290  59.0422720  75.6933260 110.0126220  58.2408450  75.9645870
 111.7007730  66.1981340  77.1939830 111.8255150  67.0212510  77.6663640
 112.5673290  65.9872070  76.8463980  99.1725260  68.2912550  76.8656960
  99.9087740  67.7428010  77.1365530  99.5566180  69.1568560  76.7262950
  98.1783540  67.4758620  86.0542540  98.9796270  67.7970670  86.4677940
  97.6635360  67.1154200  86.7762450 102.2827570  67.4642860  68.6882530
 103.0756180  67.7531690  68.2364320 101.7631920  67.0335030  68.0095010
 111.3357740  66.6912990  70.1119270 111.0499250  66.2778130  69.2973450
 111.1377290  67.6200700  69.9919790 102.8004970  62.6846270  68.5524880
 102.6955610  62.0698620  69.2786260 102.6329190  62.1612160  67.7687890
 102.9519290  61.3703070  84.5314110 102.1864960  61.9388070  84.4468780
 103.1335250  61.0779280  83.6382340 106.0407700  61.7466300  69.1566870
 105.4917800  62.1935600  69.8009610 106.6626960  61.2415550  69.6804540
 110.0942640  63.1008400  85.0889130 110.8352110  63.4384160  84.5856590
 109.3315320  63.2700460  84.5358900  97.9304430  58.1061670  85.8928660
  97.9709770  57.8075540  86.8013890  98.7849930  58.5069280  85.7336180
 101.7082820  60.7057220  71.0532170 102.1299240  60.5397090  71.8963560
 101.8333660  59.8957450  70.5587310  99.8710240  56.6853770  83.8603150
  99.3406700  56.1944720  83.2326490 100.5398310  57.1137970  83.3261080
 104.2210460  59.7294830  68.3009270 104.7416120  59.0143850  67.9350420
 104.8678860  60.3680700  68.6009780 100.3582540  53.6516140  83.9400440
 100.2639410  53.0336890  83.2151310  99.7779930  54.3782430  83.7130350
 103.5303530  61.1043710  81.5940270 103.9491640  61.9476440  81.4216510
 102.6112160  61.2415750  81.3647050 105.8667430  58.8359890  82.9778110
 105.9863640  58.2401030  83.7172950 106.7261430  58.8729580  82.5579410
 108.2055330  59.3897080  81.5540620 107.6790550  59.9139700  80.9505760
 108.5486670  60.0224470  82.1850350 100.6041720  56.7790450  67.9990330
 100.4030780  55.9157810  68.3603670 100.4333770  56.6923810  67.0611930
 101.3810950  67.4096720  82.7098000 100.8432040  68.1342780  82.3906700
 101.6344910  66.9327060  81.9195340 102.6336200  55.3781240  84.2353930
 103.2235890  55.0697090  84.9231750 101.8156440  54.9060990  84.3913830
 107.4529630  54.9947050  84.4686950 106.7645150  54.3328590  84.4036940
 108.1735650  54.5485320  84.9135410 108.0830030  51.5898680  70.5277210
 108.3632320  50.7466580  70.8836630 107.3095760  51.8221790  71.0415960
 102.6209450  52.8225690  68.9724410 102.2731450  52.1449680  68.3926860
 102.8222220  52.3615200  69.7867800  95.6400450  65.9722520  76.2718270
  95.9703460  65.1043580  76.0396910  96.0691450  66.1781040  77.1023230
 100.2362370  64.3031530  73.9320240  99.9357910  64.1796500  74.8324150
 100.1299860  63.4440120  73.5235970 111.7652840  66.3410110  83.2977210
 111.1654830  66.4002670  82.5541130 111.8946740  65.4015090  83.4274060
 113.4670720  61.6825510  75.9823050 113.8379550  60.8992830  75.5759020
 114.1072650  62.3714610  75.8040350 108.9105530  54.1454630  69.5907270
 109.3290410  53.9585610  68.7503930 108.6041590  53.2933680  69.9010200
  96.9991020  59.7365910  79.9092120  97.3664060  59.6493310  80.7888140
  96.4301840  58.9732460  79.8098980  96.5507020  56.6475000  83.8150540
  95.6563070  56.6141760  84.1544250  97.0904570  56.8461790  84.5801790
 111.6846220  57.2836260  76.5890310 112.2083700  56.7898910  75.9580480
 112.2705640  57.4186620  77.3337880  97.3654540  51.6717140  68.2611140
  98.0882670  52.2126080  68.5792360  97.6379060  51.3980560  67.3852680
 111.1746190  56.5409610  72.5282720 111.6705310  56.3080480  73.3131600
 110.9762260  55.7021450  72.1120360  97.0546730  50.9223330  78.1633760
  97.7022920  50.3720710  77.7228920  97.4748570  51.1766480  78.9849570
 112.6033350  55.1770560  75.0620400 112.4932630  55.0226600  76.0002670
 113.3640940  54.6491500  74.8195810 113.4923620  53.0078480  68.3026540
 114.4172930  52.8759660  68.0944830 113.4699410  53.0871300  69.2562990
 113.5662110  53.7789140  70.9283250 112.7713610  53.7134260  71.4576160
 113.7705390  54.7139780  70.9168600 110.5080530  67.8180690  74.9221640
 111.1039600  67.4965260  74.2456060 110.7658680  67.3452510  75.7134910
  96.8078730  51.0779000  80.9059080  96.4593550  51.5342820  81.6717260
  96.4766430  50.1836130  80.9881510  98.4143100  64.2498600  85.0712270
  98.3712730  63.8791510  85.9526730  98.5454110  65.1876170  85.2114090
 102.1149130  65.8058190  80.6721990 101.8740490  66.0732750  79.7852510
 103.0551770  65.9763920  80.7272850 113.3753290  67.8252570  81.4732630
 112.8811570  68.2221440  80.7559760 112.7666580  67.2001780  81.8669910
  97.4799370  50.6055200  84.1809850  98.0282360  50.4243250  83.4175960
  97.5454680  49.8149310  84.7166160 111.0592740  68.4675990  78.7519370
 110.5995710  69.2191800  78.3777390 110.4305200  67.7482460  78.6934170
 101.4888460  66.7764230  77.9267500 102.0053480  66.1651590  77.4015760
 102.1385840  67.2793010  78.4178510 104.2283960  67.6672720  78.7536480
 104.5161770  67.4127020  77.8769490 104.7407180  67.1150080  79.3442050
  96.1673360  67.8793620  74.3514850  95.9995400  67.2464300  75.0496740
  95.3007870  68.0853020  74.0009040  96.7901380  51.7110400  71.8546710
  97.5480740  51.8239280  71.2810740  96.3278550  52.5479600  71.8090140
 103.3315190  53.8249670  74.8449020 102.5189700  53.4506560  74.5044900
 103.8356830  53.0694750  75.1470210 107.8340170  50.4892120  76.0832090
 108.4369540  51.0612330  76.5580610 107.0933160  51.0531560  75.8605990
 110.9774770  50.8913680  71.3572370 111.1725400  51.7897130  71.6239800
 110.1904640  50.6600760  71.8505320  97.7736060  66.5726850  71.7964990
  97.2483680  66.9534880  71.0926950  97.6980640  67.1977620  72.5174700
  99.1626530  52.2374450  70.3948680  99.6919290  51.4504250  70.2656630
  99.7954850  52.9165640  70.6284210 101.3564370  51.9749590  73.4494070
 100.7267110  51.2736900  73.6164200 100.8169510  52.7353720  73.2327230
 112.5301380  68.1314390  73.1178930 112.7053570  67.4452130  72.4739850
 111.8322950  68.6561440  72.7255600 101.4819930  51.2533570  85.8846560
 101.2004200  51.7567170  85.1207380 101.8639630  50.4555320  85.5188690
 100.3729030  68.5209230  70.6714240 101.1047850  68.2368510  70.1238130
 100.6322700  68.2822510  71.5613620 106.9893540  58.6879620  56.8261770
 106.9087590  57.7734230  56.5553480 106.5757960  59.1846690  56.1201480
 105.1211580  60.4658640  58.7071040 104.3453680  59.9859080  58.9969610
 105.7724510  59.7864290  58.5327200  97.5469360  55.7380340  53.3689190
  96.6586060  56.0796310  53.2669070  97.8310550  55.5380660  52.4770020
 105.3682320  67.1576840  57.1074160 104.7493760  67.6134340  56.5368600
 106.2234100  67.3128300  56.7063860 104.5620570  63.1415830  58.7141200
 104.4928850  62.2005770  58.5530330 105.3240430  63.2317240  59.2863770
 105.5925740  55.9486210  58.9410130 105.9690560  55.0758090  58.8283800
 105.4945250  56.2844910  58.0500570  99.7230750  54.3211840  54.4027570
  99.8297500  55.2215570  54.7096330  98.8123110  54.2729810  54.1122220
 113.6649410  55.4603400  62.4382100 112.9601580  55.8485110  61.9197210
 113.9307330  56.1553690  63.0403030 106.2345670  62.0416080  54.5006070
 105.6162940  62.5065530  53.9368790 106.7468920  62.7343560  54.9175580
 101.0977430  61.5691950  61.1789670 100.7646810  62.1960870  61.8210740
 101.2744110  62.0953830  60.3991340  95.6028870  62.7272610  51.8745700
  95.2256850  63.2159710  51.1430600  95.8601940  63.3997890  52.5052230
 103.2117800  51.1289000  57.3331210 103.5192780  50.5735890  56.6166710
 102.2818500  51.2633460  57.1504200 110.0578280  63.5672510  54.7128840
 109.9474610  62.6246840  54.8378260 110.0546530  63.9288150  55.5991600
 109.6295850  60.7558130  54.5726580 109.0108270  60.4177680  53.9252880
 109.6120300  60.1117890  55.2805770 109.0722410  56.9342670  61.9892390
 108.6593590  57.7596380  62.2432380 108.3398360  56.3487710  61.7968750
 101.2055200  59.7202570  56.8511060 100.8012200  59.0079820  56.3556960
 101.2918320  59.3755810  57.7399100 101.6736900  63.4070130  59.0150270
 101.3765190  62.8015600  58.3358050 102.6236720  63.4447440  58.9039630
 107.8060550  59.9944940  51.5799330 108.2453830  59.1567370  51.4337150
 108.5188970  60.6274340  51.6663470 105.9155930  64.9341010  55.5480570
 106.3551840  65.6765340  55.1335960 105.8542820  65.1767580  56.4719530
 111.3877690  51.2487750  49.8940370 111.0750350  51.3414580  50.7939440
 112.1490160  51.8268780  49.8437800 113.3421720  66.7413940  67.7464760
 113.8181440  67.2196830  68.4253840 113.9628880  66.6731430  67.0210260
 106.6071710  67.6354790  63.4759580 107.1216380  67.5462800  64.2782010
 105.7640790  67.9814490  63.7687490 101.0614490  67.7008660  54.6815200
 100.8856970  66.7844200  54.4683000 100.2070230  68.0595950  54.9213000
 108.2852240  65.4297690  51.4641580 107.5917400  65.4274980  50.8043860
 109.0275100  65.0057010  51.0335750 107.8502170  67.0560400  55.5390070
 108.3059120  66.2749780  55.8528690 108.1894690  67.7667220  56.0831250
 112.5978980  55.9859250  65.8714510 111.9823250  56.4938920  65.3429970
 112.2775400  55.0857580  65.8140450 109.6597810  56.0460090  64.4673360
 108.8091400  55.7465840  64.7882430 109.4999600  56.2902100  63.5557180
 106.7547520  57.5461840  66.5672150 107.0800930  56.7125590  66.2274380
 107.5427850  58.0690360  66.7150480 103.4882310  51.5793320  52.6147210
 102.8636490  51.5753190  53.3400520 103.4012430  50.7124280  52.2183180
 102.4099390  52.5029950  59.5930980 102.7071720  53.4092780  59.5123000
 102.9584950  52.0148730  58.9790550 100.1637710  57.0816190  55.4622630
  99.9378630  56.8653360  56.3669250  99.3830240  57.5144650  55.1168600
 102.6036920  57.9801770  66.1282900 102.5080520  57.0396500  65.9783300
 103.4468900  58.2016840  65.7330970 104.3092510  54.4750410  67.3513420
 103.6190830  54.2822610  67.9859510 105.0524810  54.7585050  67.8837720
  95.2234740  56.2564020  49.5249480  95.1409410  57.1994780  49.6664470
  94.8717800  56.1138930  48.6461830 106.5855480  58.3148850  60.1867340
 105.8536600  58.8235660  60.5357440 106.1879820  57.4978830  59.8856120
 103.0232870  54.9903050  58.5919830 103.0268930  54.5493000  57.7424370
 103.9183990  55.3120380  58.6991650 103.0853020  55.9915130  51.5826590
 103.2065840  55.9501610  52.5312410 102.7001530  56.8539280  51.4273320
 102.0974520  58.3016270  50.9809890 101.5291420  57.8534520  50.3545800
 102.8063520  58.6609050  50.4475040 110.4752140  51.1814710  65.4376660
 110.7997910  50.4504370  65.9634640 110.5108650  50.8628350  64.5357650
 103.3240840  59.0504830  60.3385240 103.6910970  58.5763400  61.0846580
 103.1345900  59.9246400  60.6793580  99.6422000  62.2974460  53.2536300
  98.8684260  61.7572080  53.0935020 100.3716630  61.7781070  52.9154060
 105.8619920  52.6877780  53.1892080 105.0484530  52.1890950  53.1137390
 105.6681870  53.5276030  52.7728430 104.5728900  63.2321120  52.1642410
 104.9144600  63.9763350  51.6685730 103.7441610  63.5452240  52.5267240
 110.8482580  58.3709270  50.9534100 110.7646300  58.8023490  50.1030540
 111.5676770  58.8307620  51.3860920 111.9256720  60.8276790  64.0304070
 111.2004910  61.4205570  63.8333460 112.4532180  60.8200330  63.2317440
 103.5419590  63.3134650  54.9358330 104.2290720  63.8603860  55.3165920
 102.7552010  63.8575380  54.9707940 102.8446800  60.3180680  54.5483690
 103.3009580  61.1285930  54.7743880 102.4935010  60.0003820  55.3802180
 105.1479410  65.8287020  61.7775990 105.7921630  66.0346400  62.4549410
 105.5108850  65.0675420  61.3246840  96.0483240  68.1434850  50.9937040
  96.4080880  68.7424190  50.3394310  95.9075580  68.6894740  51.7672070
 109.8483460  62.0339930  51.8806740 109.5605160  62.4952620  52.6684620
 110.6435630  61.5737700  52.1490960 104.0237690  64.6805600  66.8677560
 103.7034560  63.9614840  67.4123250 103.3496050  65.3560670  66.9413620
 102.0651860  65.5266050  51.8110710 102.0561960  66.2595740  51.1955220
 101.1450220  65.2797630  51.9037670  97.6658500  60.7480940  52.5557470
  97.0586450  61.4879840  52.5652770  98.1407850  60.8380300  51.7295670
 107.2391290  54.9131760  62.2314360 107.6072110  54.0926970  62.5593930
 106.3789490  54.9733650  62.6470010 110.6053320  53.8688700  53.0401920
 109.9766480  53.9734370  52.3260150 110.1105240  54.0885480  53.8295800
 105.0511460  65.5894290  50.4735900 105.1523440  65.3858280  49.5437880
 104.1513200  65.3352570  50.6783680 102.5737350  56.1474650  54.4559800
 101.8653500  56.6160990  54.8973410 102.8581830  55.4896660  55.0904990
 104.1993280  57.5671350  62.4552330 104.6978530  58.0417170  63.1204180
 104.3416230  56.6434870  62.6622360 100.7772370  54.4559730  51.8310510
 101.6262900  54.8929880  51.7650700 100.4103640  54.7679990  52.6582570
 111.4060140  53.7839310  63.2980720 110.9033740  54.5244710  63.6374530
 112.2216800  54.1723310  62.9817510  99.6763790  60.7092090  50.3046040
 100.4427060  60.5973450  50.8671470  99.7538480  60.0130060  49.6522810
  98.3710550  58.1417160  50.9878930  98.4514140  57.1944670  51.0996330
  99.2630300  58.4724040  51.0939590  99.1725260  68.2912550  58.0913470
  99.9087740  67.7428010  58.3622040  99.5566180  69.1568560  57.9519460
  96.0570740  64.3586120  53.9654980  95.1310520  64.6007260  53.9560390
  96.5227170  65.1860380  53.8439730 111.3357740  66.6912990  51.3375780
 111.0499250  66.2778130  50.5229960 111.1377290  67.6200700  51.2176300
 102.8004970  62.6846270  49.7781390 102.6955610  62.0698620  50.5042770
 102.6329190  62.1612160  48.9944400 102.9519290  61.3703070  65.7570620
 102.1864960  61.9388070  65.6725290 103.1335250  61.0779280  64.8638850
 101.7082820  60.7057220  52.2788680 102.1299240  60.5397090  53.1220070
 101.8333660  59.8957450  51.7843820 103.1243980  52.2089380  62.1984340
 102.6761280  52.2313640  61.3529890 102.4909180  51.8108400  62.7954640
 103.5303530  61.1043710  62.8196780 103.9491640  61.9476440  62.6473020
 102.6112160  61.2415750  62.5903560 105.8667430  58.8359890  64.2034620
 105.9863640  58.2401030  64.9429460 106.7261430  58.8729580  63.7835920
 100.6041720  56.7790450  49.2246840 100.4030780  55.9157810  49.5860180
 100.4333770  56.6923810  48.2868440 101.3810950  67.4096720  63.9354510
 100.8432040  68.1342780  63.6163210 101.6344910  66.9327060  63.1451850
 107.4529630  54.9947050  65.6943460 106.7645150  54.3328590  65.6293450
 108.1735650  54.5485320  66.1391920 108.0830030  51.5898680  51.7533720
 108.3632320  50.7466580  52.1093140 107.3095760  51.8221790  52.2672470
  99.4024520  53.8791070  49.2124720  99.7050420  53.8858500  48.3043870
 100.1419110  53.5288930  49.7092380 104.2373160  68.6447930  64.1941160
 104.1631860  69.5483070  64.5013530 103.3352000  68.3259830  64.1663230
 102.6209450  52.8225690  50.1980920 102.2731450  52.1449680  49.6183370
 102.8222220  52.3615200  51.0124310  98.4254650  63.1833490  50.0454520
  98.8629520  63.7263160  50.7012100  98.9102380  62.3580440  50.0550860
 100.2362370  64.3031530  55.1576750  99.9357910  64.1796500  56.0580660
 100.1299860  63.4440120  54.7492480 108.9105530  54.1454630  50.8163780
 109.3290410  53.9585610  49.9760440 108.6041590  53.2933680  51.1266710
 111.7994880  58.2050290  64.1479100 111.5680970  57.9763040  63.2477050
 112.0599430  59.1249840  64.1023990 110.2382950  53.4306720  66.9258800
 111.1153130  53.4390120  67.3092800 110.2503790  52.6937560  66.3151150
  97.7180380  55.6177810  50.4465000  98.4272080  55.1961030  49.9612280
  97.0020320  55.6853040  49.8148350  97.3654540  51.6717140  49.4867650
  98.0882670  52.2126080  49.8048870  97.6379060  51.3980560  48.6109190
 110.9499070  51.1164690  62.7459910 111.5871290  51.7298830  63.1119100
 111.0973960  51.1525350  61.8009140 113.5662110  53.7789140  52.1539760
 112.7713610  53.7134260  52.6832670 113.7705390  54.7139780  52.1425110
 110.5080530  67.8180690  56.1478150 111.1039600  67.4965260  55.4712570
 110.7658680  67.3452510  56.9391420 102.1149130  65.8058190  61.8978500
 101.8740490  66.0732750  61.0109020 103.0551770  65.9763920  61.9529360
 104.3203550  52.2690880  65.6535010 104.2592440  52.8612710  66.4030420
 105.2603930  52.1616840  65.5085270 106.9578110  51.9260940  65.2927300
 107.5718520  52.2440230  64.6308380 107.5027670  51.4409530  65.9123160
 107.6986150  50.4893080  61.6196590 106.8245990  50.8228190  61.4169520
 107.5896900  50.0166260  62.4448460 108.6058130  52.6963950  63.0038310
 108.2771490  51.8815710  62.6240040 109.5540430  52.6533760  62.8804000
 101.4888460  66.7764230  59.1524010 102.0053480  66.1651590  58.6272270
 102.1385840  67.2793010  59.6435020 104.2283960  67.6672720  59.9792990
 104.5161770  67.4127020  59.1026000 104.7407180  67.1150080  60.5698560
 105.4460970  51.4062920  60.5589500 104.6632760  51.8808420  60.8386260
 105.1523900  50.5017750  60.4502680  96.1673360  67.8793620  55.5771360
  95.9995400  67.2464300  56.2753250  95.3007870  68.0853020  55.2265550
 103.3315190  53.8249670  56.0705530 102.5189700  53.4506560  55.7301410
 103.8356830  53.0694750  56.3726720  97.7736060  66.5726850  53.0221500
  97.2483680  66.9534880  52.3183460  97.6980640  67.1977620  53.7431210
  99.1626530  52.2374450  51.6205190  99.6919290  51.4504250  51.4913140
  99.7954850  52.9165640  51.8540720 104.2956320  68.5888820  67.3461190
 105.2223630  68.3533090  67.3897150 104.2806750  69.4160820  66.8647220
 101.4819930  51.2533570  67.1103070 101.2004200  51.7567170  66.3463890
 101.8639630  50.4555320  66.7445200  99.5343820  64.6373960  51.9017080
  98.9052700  65.1059060  52.4502910  99.6491650  63.7923180  52.3363270
 108.0835390  50.6687150  67.6883540 107.9700840  50.9881760  68.5835060
 108.9005130  51.0699660  67.3920820 110.8633880  67.8158680  67.1702230
 111.6559200  67.3207910  66.9628190 111.1567030  68.4948820  67.7777840
  95.5102370  58.3385990  40.4785400  96.0818480  57.5708190  40.4789040
  95.5103910  58.6374750  39.5692010  96.7527240  53.7470350  42.2654330
  96.5730080  52.8496100  42.5457090  96.3507320  54.2942220  42.9401280
 105.5925740  55.9486210  40.1666640 105.9690560  55.0758090  40.0540310
 105.4945250  56.2844910  39.2757080 109.3749860  53.4436650  37.0994980
 110.1959480  52.9533220  37.1420460 109.4083940  54.0334310  37.8526820
  97.3713910  56.2430850  40.8736670  98.0524020  56.5069220  41.4924070
  97.0561960  55.4031720  41.2074680 101.5638480  57.2898210  39.9609260
 102.0716700  57.7879180  40.6014280 102.0951720  56.5133410  39.7848620
  99.8474580  51.9296770  44.2272680  99.8493020  52.4469160  43.4218580
  99.0178890  51.4526950  44.2042610 109.6111340  55.3837030  39.8722520
 108.9066910  55.6721920  40.4525630 109.9723500  56.1937140  39.5122080
  99.5289910  53.6406730  42.2343130  99.8706720  54.4848780  41.9397000
  98.5905720  53.7890470  42.3508470 100.3096530  63.5372750  44.2195360
 100.9270530  64.2123830  43.9379810  99.4489650  63.9460730  44.1282860
 112.6798260  54.8291820  40.2631730 111.7323170  54.8630800  40.3947160
 113.0048250  55.6430770  40.6481090 103.2117800  51.1289000  38.5587720
 103.5192780  50.5735890  37.8423220 102.2818500  51.2633460  38.3760710
 109.0722410  56.9342670  43.2148900 108.6593590  57.7596380  43.4688890
 108.3398360  56.3487710  43.0225260  99.9183820  56.4945780  41.8566610
 100.4698410  56.6041120  41.0819860 100.4327330  56.8683380  42.5721840
 100.7655330  63.1451820  46.8914580  99.8683860  63.3691790  47.1387980
 100.7908200  63.2686760  45.9425980  99.5926550  60.0165140  45.4671950
  99.4534320  60.8887940  45.8359350  98.7107910  59.6737950  45.3219890
 111.3877690  51.2487750  31.1196880 111.0750350  51.3414580  32.0195950
 112.1490160  51.8268780  31.0694310  95.5445200  61.7862690  41.3842860
  95.6225620  61.9211460  40.4398580  96.1586880  61.0778580  41.5770980
 106.6071710  67.6354790  44.7016090 107.1216380  67.5462800  45.5038520
 105.7640790  67.9814490  44.9944000 108.2852240  65.4297690  32.6898090
 107.5917400  65.4274980  32.0300370 109.0275100  65.0057010  32.2592260
 107.8502170  67.0560400  36.7646580 108.3059120  66.2749780  37.0785200
 108.1894690  67.7667220  37.3087760  95.6004720  62.8276860  43.9237320
  95.7635760  62.3582220  43.1056690  96.0657170  62.3200420  44.5886160
 100.3723490  51.9582620  38.9597890  99.9291640  52.7392160  38.6282410
 100.9308480  52.2812510  39.6668830 102.4099390  52.5029950  40.8187490
 102.7071720  53.4092780  40.7379510 102.9584950  52.0148730  40.2047060
 102.6036920  57.9801770  47.3539410 102.5080520  57.0396500  47.2039810
 103.4468900  58.2016840  46.9587480  97.7347460  54.3915440  45.5073190
  97.3410850  55.2390650  45.7145970  97.0465860  53.7541810  45.6981830
 104.3092510  54.4750410  48.5769930 103.6190830  54.2822610  49.2116020
 105.0524810  54.7585050  49.1094230  95.0364510  52.3143900  39.5403270
  94.7477560  52.8846760  40.2528250  95.7810270  51.8348350  39.9034500
  95.2234740  56.2564020  30.7505990  95.1409410  57.1994780  30.8920980
  94.8717800  56.1138930  29.8718340  98.8735250  54.8729540  38.7770550
  98.5335300  55.3504770  39.5337600  98.1112570  54.4194660  38.4171650
 107.0481390  53.7682530  40.8246790 107.0654130  54.2191180  41.6688640
 106.7996970  52.8688170  41.0380230 110.4752140  51.1814710  46.6633170
 110.7997910  50.4504370  47.1891150 110.5108650  50.8628350  45.7614160
  97.1743700  62.2028290  46.0833130  96.7898490  61.5621960  46.6816090
  97.4855890  62.9064410  46.6527860 103.3240840  59.0504830  41.5641750
 103.6910970  58.5763400  42.3103090 103.1345900  59.9246400  41.9050090
  96.1881330  53.7948520  37.6935220  95.9028250  53.4304190  38.5313840
  96.1260190  53.0628980  37.0798360 101.1140210  58.0913470  43.8825960
 100.8097280  58.9705450  44.1076320 102.0686670  58.1513260  43.9183400
  99.6422000  62.2974460  34.4792810  98.8684260  61.7572080  34.3191530
 100.3716630  61.7781070  34.1410570  97.1703940  58.9316210  45.0297320
  96.8118880  59.5970060  45.6170660  96.8758500  58.0999760  45.4009940
 100.3717060  59.3900450  47.9136870 100.0717200  59.5357630  47.0164690
 101.1428300  58.8305740  47.8210260 111.8769830  65.2251530  34.9072740
 111.2345990  64.5707150  35.1816460 111.4900490  65.6306620  34.1313410
 105.1479410  65.8287020  43.0032500 105.7921630  66.0346400  43.6805920
 105.5108850  65.0675420  42.5503350  98.7458580  50.6618330  36.2462720
  98.6173210  50.6536230  37.1947640  97.9220600  51.0001420  35.8953730
  96.0483240  68.1434850  32.2193550  96.4080880  68.7424190  31.5650820
  95.9075580  68.6894740  32.9928580  95.7452510  52.4209450  45.7069420
  95.0311030  52.6206370  46.3122030  96.1647550  51.6449020  46.0784220
 109.8483460  62.0339930  33.1063250 109.5605160  62.4952620  33.8941130
 110.6435630  61.5737700  33.3747470  96.0325100  66.4089710  46.6935950
  96.1416220  65.4684450  46.5531340  95.3805660  66.6744460  46.0449680
 107.2391290  54.9131760  43.4570870 107.6072110  54.0926970  43.7850440
 106.3789490  54.9733650  43.8726520 105.0511460  65.5894290  31.6992410
 105.1523440  65.3858280  30.7694390 104.1513200  65.3352570  31.9040190
 104.1993280  57.5671350  43.6808840 104.6978530  58.0417170  44.3460690
 104.3416230  56.6434870  43.8878870 106.6052780  52.8725310  37.1212100
 106.4820560  52.8911440  36.1721610 107.5537340  52.9204250  37.2410500
  96.0570740  64.3586120  35.1911490  95.1310520  64.6007260  35.1816900
  96.5227170  65.1860380  35.0696240  98.1783540  67.4758620  48.5055560
  98.9796270  67.7970670  48.9190960  97.6635360  67.1154200  49.2275470
 102.2827570  67.4642860  31.1395550 103.0756180  67.7531690  30.6877340
 101.7631920  67.0335030  30.4608030 111.3357740  66.6912990  32.5632290
 111.0499250  66.2778130  31.7486470 111.1377290  67.6200700  32.4432810
  95.8981350  59.9632080  47.4491610  96.4020370  59.3839360  48.0207840
  95.1588770  60.2472310  47.9867980 102.8004970  62.6846270  31.0037900
 102.6955610  62.0698620  31.7299280 102.6329190  62.1612160  30.2200910
 106.0407700  61.7466300  31.6079890 105.4917800  62.1935600  32.2522630
 106.6626960  61.2415550  32.1317560  97.9304430  58.1061670  48.3441680
  97.9709770  57.8075540  49.2526910  98.7849930  58.5069280  48.1849200
  99.8710240  56.6853770  46.3116170  99.3406700  56.1944720  45.6839510
 100.5398310  57.1137970  45.7774100 100.3582540  53.6516140  46.3913460
 100.2639410  53.0336890  45.6664330  99.7779930  54.3782430  46.1643370
 103.5303530  61.1043710  44.0453290 103.9491640  61.9476440  43.8729530
 102.6112160  61.2415750  43.8160070 102.6336200  55.3781240  46.6866950
 103.2235890  55.0697090  47.3744770 101.8156440  54.9060990  46.8426850
 107.4529630  54.9947050  46.9199970 106.7645150  54.3328590  46.8549960
 108.1735650  54.5485320  47.3648430 108.0830030  51.5898680  32.9790230
 108.3632320  50.7466580  33.3349650 107.3095760  51.8221790  33.4928980
 102.6209450  52.8225690  31.4237430 102.2731450  52.1449680  30.8439880
 102.8222220  52.3615200  32.2380820  95.6400450  65.9722520  38.7231290
  95.9703460  65.1043580  38.4909930  96.0691450  66.1781040  39.5536250
  96.1290660  66.8393110  41.4612920  95.6921650  67.0193910  42.2937070
  96.6968340  67.5967730  41.3194640  95.9615090  59.3513340  37.8201800
  95.3063930  59.0824980  37.1761500  96.7993040  59.2417820  37.3703780
 113.4670720  61.6825510  38.4336070 113.8379550  60.8992830  38.0272040
 114.1072650  62.3714610  38.2553370  96.5507020  56.6475000  46.2663560
  95.6563070  56.6141760  46.6057270  97.0904570  56.8461790  47.0314810
  95.1753170  56.5612270  33.7627130  94.2717250  56.8242470  33.5878790
  95.6593790  56.8323440  32.9827090 111.8635940  57.3676130  42.5622880
 110.9138650  57.3339670  42.6767870 112.0448950  58.2776240  42.3272650
  97.3654540  51.6717140  30.7124160  98.0882670  52.2126080  31.0305380
  97.6379060  51.3980560  29.8365700 113.4923620  53.0078480  30.7539560
 114.4172930  52.8759660  30.5457850 113.4699410  53.0871300  31.7076010
  96.8078730  51.0779000  43.3572100  96.4593550  51.5342820  44.1230280
  96.4766430  50.1836130  43.4394530  98.4143100  64.2498600  47.5225290
  98.3712730  63.8791510  48.4039750  98.5454110  65.1876170  47.6627110
 102.1149130  65.8058190  43.1235010 101.8740490  66.0732750  42.2365530
 103.0551770  65.9763920  43.1785870 104.3203550  52.2690880  46.8791520
 104.2592440  52.8612710  47.6286930 105.2603930  52.1616840  46.7341780
 106.9578110  51.9260940  46.5183810 107.5718520  52.2440230  45.8564890
 107.5027670  51.4409530  47.1379670 113.3753290  67.8252570  43.9245650
 112.8811570  68.2221440  43.2072780 112.7666580  67.2001780  44.3182930
  97.4799370  50.6055200  46.6322870  98.0282360  50.4243250  45.8688980
  97.5454680  49.8149310  47.1679180  98.2531130  67.1960850  44.6423070
  97.6591450  67.0645550  45.3813110  98.2454970  66.3598990  44.1765170
 107.6986150  50.4893080  42.8453100 106.8245990  50.8228190  42.6426030
 107.5896900  50.0166260  43.6704970 108.6058130  52.6963950  44.2294820
 108.2771490  51.8815710  43.8496550 109.5540430  52.6533760  44.1060510
  97.8843360  64.5619230  43.5931110  97.1577420  63.9424520  43.5257060
  97.9452510  64.9559840  42.7229190 105.4460970  51.4062920  41.7846010
 104.6632760  51.8808420  42.0642770 105.1523900  50.5017750  41.6759190
 109.9982040  52.1086020  39.8295100 110.4390130  52.0531120  38.9816700
 109.7289630  53.0244030  39.9005280 111.8620610  51.7401260  37.8403920
 111.8009010  50.7962480  37.6934940 112.6412640  51.8481350  38.3857380
  96.1673360  67.8793620  36.8027870  95.9995400  67.2464300  37.5009760
  95.3007870  68.0853020  36.4522060  96.7901380  51.7110400  34.3059730
  97.5480740  51.8239280  33.7323760  96.3278550  52.5479600  34.2603160
 107.8340170  50.4892120  38.5345110 108.4369540  51.0612330  39.0093630
 107.0933160  51.0531560  38.3119010 110.9774770  50.8913680  33.8085390
 111.1725400  51.7897130  34.0752820 110.1904640  50.6600760  34.3018340
 101.3564370  51.9749590  35.9007090 100.7267110  51.2736900  36.0677220
 100.8169510  52.7353720  35.6840250 101.4819930  51.2533570  48.3359580
 101.2004200  51.7567170  47.5720400 101.8639630  50.4555320  47.9701710
 108.0835390  50.6687150  48.9140050 107.9700840  50.9881760  49.8091570
 108.9005130  51.0699660  48.6177330 110.8633880  67.8158680  48.3958740
 111.6559200  67.3207910  48.1884700 111.1567030  68.4948820  49.0034350
 106.9893540  58.6879620  19.2774790 106.9087590  57.7734230  19.0066500
 106.5757960  59.1846690  18.5714500 105.1211580  60.4658640  21.1584060
 104.3453680  59.9859080  21.4482630 105.7724510  59.7864290  20.9840220
  99.1377410  60.7778450  22.0359820  98.3062290  60.5227160  22.4356330
  99.7458390  60.8489220  22.7717740 109.1419010  64.8718830  19.9383190
 108.6800540  64.1006070  20.2670360 109.9544560  64.8984900  20.4435640
  99.1178670  64.8118540  22.2317840  99.4206710  63.9216280  22.0528060
  99.8622260  65.3688760  22.0040090  97.5469360  55.7380340  15.8202210
  96.6586060  56.0796310  15.7182090  97.8310550  55.5380660  14.9283040
  95.5102370  58.3385990  21.7041910  96.0818480  57.5708190  21.7045550
  95.5103910  58.6374750  20.7948520 105.3682320  67.1576840  19.5587180
 104.7493760  67.6134340  18.9881620 106.2234100  67.3128300  19.1576880
 104.5620570  63.1415830  21.1654220 104.4928850  62.2005770  21.0043350
 105.3240430  63.2317240  21.7376790 105.5925740  55.9486210  21.3923150
 105.9690560  55.0758090  21.2796820 105.4945250  56.2844910  20.5013590
  99.7230750  54.3211840  16.8540590  99.8297500  55.2215570  17.1609350
  98.8123110  54.2729810  16.5635240 109.3749860  53.4436650  18.3251490
 110.1959480  52.9533220  18.3676970 109.4083940  54.0334310  19.0783330
 113.6649410  55.4603400  24.8895120 112.9601580  55.8485110  24.3710230
 113.9307330  56.1553690  25.4916050 106.2345670  62.0416080  16.9519090
 105.6162940  62.5065530  16.3881810 106.7468920  62.7343560  17.3688600
 101.0977430  61.5691950  23.6302690 100.7646810  62.1960870  24.2723760
 101.2744110  62.0953830  22.8504360 109.6111340  55.3837030  21.0979030
 108.9066910  55.6721920  21.6782140 109.9723500  56.1937140  20.7378590
 100.3096530  63.5372750  25.4451870 100.9270530  64.2123830  25.1636320
  99.4489650  63.9460730  25.3539370  95.6028870  62.7272610  14.3258720
  95.2256850  63.2159710  13.5943620  95.8601940  63.3997890  14.9565250
 111.2274120  65.0012160  23.3606510 110.5437640  65.6711270  23.3523180
 111.7668410  65.1992810  22.5951370 112.6798260  54.8291820  21.4888240
 111.7323170  54.8630800  21.6203670 113.0048250  55.6430770  21.8737600
 108.7632860  66.8456290  22.0751690 108.7760020  66.4418580  21.2073950
 108.2108080  67.6203580  21.9713120 110.0578280  63.5672510  17.1641860
 109.9474610  62.6246840  17.2891280 110.0546530  63.9288150  18.0504620
 108.1618300  61.7486130  23.4034300 108.5787090  61.5346240  22.5687760
 108.8858120  62.0058920  23.9742920 105.5998560  59.1937830  16.5204350
 104.6727840  59.1275210  16.7492820 105.7523380  60.1317960  16.4059590
 105.5867640  55.4654830  13.5171510 104.6471310  55.6268790  13.6023970
 105.9050900  56.1840510  12.9707500 112.1080400  60.1473350  23.4950540
 111.2799030  60.2166440  23.0200670 112.7030880  60.7327660  23.0266370
 109.6295850  60.7558130  17.0239600 109.0108270  60.4177680  16.3765900
 109.6120300  60.1117890  17.7318790 101.2055200  59.7202570  19.3024080
 100.8012200  59.0079820  18.8069980 101.2918320  59.3755810  20.1912120
 101.6736900  63.4070130  21.4663290 101.3765190  62.8015600  20.7871070
 102.6236720  63.4447440  21.3552650 107.8060550  59.9944940  14.0312350
 108.2453830  59.1567370  13.8850170 108.5188970  60.6274340  14.1176490
 105.9155930  64.9341010  17.9993590 106.3551840  65.6765340  17.5848980
 105.8542820  65.1767580  18.9232550 101.3906900  65.9586840  28.9013610
 101.3622330  66.3629790  28.0342040 101.2271870  65.0297200  28.7385210
 111.3877690  51.2487750  12.3453390 111.0750350  51.3414580  13.2452460
 112.1490160  51.8268780  12.2950820  97.9059830  58.6147550  16.8030730
  97.7857430  59.3409640  16.1912000  97.5960720  57.8450460  16.3258640
  96.7892830  63.4862880  19.0205550  96.3820910  63.6277470  18.1659150
  97.6805840  63.2023040  18.8176760 112.7454970  63.9326790  27.3577790
 112.8718030  63.6938670  26.4394970 112.7876350  63.1011330  27.8299870
 108.5826110  67.9210130  15.3556600 108.4227250  67.6313070  16.2538430
 108.4172820  67.1450260  14.8201830 101.0614490  67.7008660  17.1328220
 100.8856970  66.7844200  16.9196020 100.2070230  68.0595950  17.3726020
 108.2852240  65.4297690  13.9154600 107.5917400  65.4274980  13.2556880
 109.0275100  65.0057010  13.4848770 107.8502170  67.0560400  17.9903090
 108.3059120  66.2749780  18.3041710 108.1894690  67.7667220  18.5344270
 103.4882310  51.5793320  15.0660230 102.8636490  51.5753190  15.7913540
 103.4012430  50.7124280  14.6696200 100.1637710  57.0816190  17.9135650
  99.9378630  56.8653360  18.8182270  99.3830240  57.5144650  17.5681620
 107.3935470  57.0879560  16.5126300 106.7944360  57.8115360  16.3289920
 107.9415080  57.0256340  15.7302750 106.0000340  55.7243100  18.5429580
 106.3929910  56.0415300  17.7298270 106.3617190  54.8454980  18.6574100
  95.0364510  52.3143900  20.7659780  94.7477560  52.8846760  21.4784760
  95.7810270  51.8348350  21.1291010  95.2234740  56.2564020  11.9762500
  95.1409410  57.1994780  12.1177490  94.8717800  56.1138930  11.0974850
 106.5855480  58.3148850  22.6380360 105.8536600  58.8235660  22.9870460
 106.1879820  57.4978830  22.3369140 103.0853020  55.9915130  14.0339610
 103.2065840  55.9501610  14.9825430 102.7001530  56.8539280  13.8786340
 107.0481390  53.7682530  22.0503300 107.0654130  54.2191180  22.8945150
 106.7996970  52.8688170  22.2636740 102.0974520  58.3016270  13.4322910
 101.5291420  57.8534520  12.8058820 102.8063520  58.6609050  12.8988060
 103.3240840  59.0504830  22.7898260 103.6910970  58.5763400  23.5359600
 103.1345900  59.9246400  23.1306600  96.1881330  53.7948520  18.9191730
  95.9028250  53.4304190  19.7570350  96.1260190  53.0628980  18.3054870
 101.1140210  58.0913470  25.1082470 100.8097280  58.9705450  25.3332830
 102.0686670  58.1513260  25.1439910  99.6422000  62.2974460  15.7049320
  98.8684260  61.7572080  15.5448040 100.3716630  61.7781070  15.3667080
 110.4009980  61.2939820  21.4975710 111.1209100  61.7895110  21.1071820
 110.1991800  60.6157710  20.8529580 105.8619920  52.6877780  15.6405100
 105.0484530  52.1890950  15.5650410 105.6681870  53.5276030  15.2241450
 105.7828780  61.3648880  27.3844710 105.7166090  60.4444550  27.1302300
 105.1533920  61.4624320  28.0989350 108.5768310  57.0597430  13.9367260
 109.4647930  57.3714660  13.7618600 108.5473400  56.1869680  13.5447840
  99.6859400  61.9654840  19.3428130 100.2038070  61.1623100  19.2885020
  99.2343420  61.9033980  20.1844960 104.5728900  63.2321120  14.6155430
 104.9144600  63.9763350  14.1198750 103.7441610  63.5452240  14.9780260
 105.7145510  64.1869450  27.1348510 105.7290050  63.2550410  26.9167420
 105.0070610  64.2729210  27.7738280 110.8482580  58.3709270  13.4047120
 110.7646300  58.8023490  12.5543560 111.5676770  58.8307620  13.8373940
 111.9256720  60.8276790  26.4817090 111.2004910  61.4205570  26.2846480
 112.4532180  60.8200330  25.6830460 111.8769830  65.2251530  16.1329250
 111.2345990  64.5707150  16.4072970 111.4900490  65.6306620  15.3569920
 107.4556310  62.5536960  19.9800940 107.8080130  61.9565090  19.3202310
 106.5718640  62.2281190  20.1509190 103.5419590  63.3134650  17.3871350
 104.2290720  63.8603860  17.7678940 102.7552010  63.8575380  17.4220960
  95.6811990  58.9307470  12.8788430  96.5506840  59.2132270  13.1624350
  95.1902310  59.7443340  12.7637240 102.8446800  60.3180680  16.9996710
 103.3009580  61.1285930  17.2256900 102.4935010  60.0003820  17.8315200
  98.7458580  50.6618330  17.4719230  98.6173210  50.6536230  18.4204150
  97.9220600  51.0001420  17.1210240 106.4211490  63.8319370  22.9466460
 107.0633720  63.1312530  23.0598630 106.9460840  64.6117810  22.7663350
 110.2667210  64.1167990  12.6705600 110.0404790  63.3998430  13.2630240
 109.8763410  63.8680430  11.8327350 108.1949110  64.6314270  26.1502520
 108.5305350  65.2180960  26.8280440 107.2749450  64.5006980  26.3800310
  96.0483240  68.1434850  13.4450060  96.4080880  68.7424190  12.7907330
  95.9075580  68.6894740  14.2185090 109.8483460  62.0339930  14.3319760
 109.5605160  62.4952620  15.1197640 110.6435630  61.5737700  14.6003980
 104.0237690  64.6805600  29.3190580 103.7034560  63.9614840  29.8636270
 103.3496050  65.3560670  29.3926640 102.0651860  65.5266050  14.2623730
 102.0561960  66.2595740  13.6468240 101.1450220  65.2797630  14.3550690
  97.6658500  60.7480940  15.0070490  97.0586450  61.4879840  15.0165790
  98.1407850  60.8380300  14.1808690 110.6053320  53.8688700  15.4914940
 109.9766480  53.9734370  14.7773170 110.1105240  54.0885480  16.2808820
 105.0511460  65.5894290  12.9248920 105.1523440  65.3858280  11.9950900
 104.1513200  65.3352570  13.1296700 102.5737350  56.1474650  16.9072820
 101.8653500  56.6160990  17.3486430 102.8581830  55.4896660  17.5418010
 106.6052780  52.8725310  18.3468610 106.4820560  52.8911440  17.3978120
 107.5537340  52.9204250  18.4667010 103.6929570  68.1080610  17.6196590
 103.9471070  68.0702000  16.6975960 102.7442050  67.9813940  17.6124840
 100.7772370  54.4559730  14.2823530 101.6262900  54.8929880  14.2163720
 100.4103640  54.7679990  15.1095590 109.6982150  59.0272490  19.1955100
 108.7572290  59.0422720  19.3702790 110.0126220  58.2408450  19.6415400
  99.6763790  60.7092090  12.7559060 100.4427060  60.5973450  13.3184490
  99.7538480  60.0130060  12.1035830  98.3710550  58.1417160  13.4391950
  98.4514140  57.1944670  13.5509350  99.2630300  58.4724040  13.5452610
 111.7007730  66.1981340  20.8709360 111.8255150  67.0212510  21.3433170
 112.5673290  65.9872070  20.5233510  99.1725260  68.2912550  20.5426490
  99.9087740  67.7428010  20.8135060  99.5566180  69.1568560  20.4032480
  96.0570740  64.3586120  16.4168000  95.1310520  64.6007260  16.4073410
  96.5227170  65.1860380  16.2952750  98.1783540  67.4758620  29.7312070
  98.9796270  67.7970670  30.1447470  97.6635360  67.1154200  30.4531980
 102.2827570  67.4642860  12.3652060 103.0756180  67.7531690  11.9133850
 101.7631920  67.0335030  11.6864540 107.0148170  63.5838490  29.6787480
 106.4086330  63.6070090  28.9383230 106.7102280  62.8521530  30.2154730
 108.4448540  67.3118780  28.2896890 109.3970290  67.2276800  28.2397130
 108.2976760  67.9760490  28.9630680 111.3357740  66.6912990  13.7888800
 111.0499250  66.2778130  12.9742980 111.1377290  67.6200700  13.6689320
 102.8004970  62.6846270  12.2294410 102.6955610  62.0698620  12.9555790
 102.6329190  62.1612160  11.4457420 102.9519290  61.3703070  28.2083640
 102.1864960  61.9388070  28.1238310 103.1335250  61.0779280  27.3151870
 106.0407700  61.7466300  12.8336400 105.4917800  62.1935600  13.4779140
 106.6626960  61.2415550  13.3574070 110.0942640  63.1008400  28.7658660
 110.8352110  63.4384160  28.2626120 109.3315320  63.2700460  28.2128430
 101.7082820  60.7057220  14.7301700 102.1299240  60.5397090  15.5733090
 101.8333660  59.8957450  14.2356840 104.2210460  59.7294830  11.9778800
 104.7416120  59.0143850  11.6119950 104.8678860  60.3680700  12.2779310
 108.7688300  61.1523230  27.3013870 109.1829320  61.3068310  28.1504290
 107.8339300  61.2778450  27.4639650 103.5303530  61.1043710  25.2709800
 103.9491640  61.9476440  25.0986040 102.6112160  61.2415750  25.0416580
 100.6041720  56.7790450  11.6759860 100.4030780  55.9157810  12.0373200
 100.4333770  56.6923810  10.7381460 108.0830030  51.5898680  14.2046740
 108.3632320  50.7466580  14.5606160 107.3095760  51.8221790  14.7185490
  99.4024520  53.8791070  11.6637740  99.7050420  53.8858500  10.7556890
 100.1419110  53.5288930  12.1605400 102.6209450  52.8225690  12.6493940
 102.2731450  52.1449680  12.0696390 102.8222220  52.3615200  13.4637330
 104.7858490  67.8106440  14.2680540 105.6809280  68.1491410  14.2899300
 104.8176120  67.0885850  13.6404820  98.4254650  63.1833490  12.4967540
  98.8629520  63.7263160  13.1525120  98.9102380  62.3580440  12.5063880
  95.6400450  65.9722520  19.9487800  95.9703460  65.1043580  19.7166440
  96.0691450  66.1781040  20.7792760 100.2362370  64.3031530  17.6089770
  99.9357910  64.1796500  18.5093680 100.1299860  63.4440120  17.2005500
 111.7652840  66.3410110  26.9746740 111.1654830  66.4002670  26.2310660
 111.8946740  65.4015090  27.1043590 113.0054290  64.0827930  12.3116450
 112.1747250  64.1504580  12.7823680 113.1826120  64.9732050  12.0083310
 112.4610750  60.8275410  14.8150650 113.2229660  61.3972060  14.9210340
 112.4765120  60.2602610  15.5858960  95.9615090  59.3513340  19.0458310
  95.3063930  59.0824980  18.4018010  96.7993040  59.2417820  18.5960290
 113.4670720  61.6825510  19.6592580 113.8379550  60.8992830  19.2528550
 114.1072650  62.3714610  19.4809880 110.4504480  63.0662090  25.0722900
 109.6364320  63.4959250  25.3348690 110.8578680  63.6780500  24.4591950
 112.5129920  61.1209780  11.9723170 112.7878760  62.0288660  11.8442390
 112.3240660  61.0572310  12.9085160 108.9105530  54.1454630  13.2676800
 109.3290410  53.9585610  12.4273460 108.6041590  53.2933680  13.5779730
 112.4095260  59.0578770  16.9652600 112.0338860  58.2906700  16.5333890
 111.6798380  59.4401470  17.4527530  96.9991020  59.7365910  23.5861650
  97.3664060  59.6493310  24.4657670  96.4301840  58.9732460  23.4868510
 111.7994880  58.2050290  26.5992120 111.5680970  57.9763040  25.6990070
 112.0599430  59.1249840  26.5537010  95.1753170  56.5612270  14.9883640
  94.2717250  56.8242470  14.8135300  95.6593790  56.8323440  14.2083600
 111.6846220  57.2836260  20.2659840 112.2083700  56.7898910  19.6350010
 112.2705640  57.4186620  21.0107410 111.8635940  57.3676130  23.7879390
 110.9138650  57.3339670  23.9024380 112.0448950  58.2776240  23.5529160
  97.7180380  55.6177810  12.8978020  98.4272080  55.1961030  12.4125300
  97.0020320  55.6853040  12.2661370  97.3654540  51.6717140  11.9380670
  98.0882670  52.2126080  12.2561890  97.6379060  51.3980560  11.0622210
 111.1746190  56.5409610  16.2052250 111.6705310  56.3080480  16.9901130
 110.9762260  55.7021450  15.7889890 112.6033350  55.1770560  18.7389930
 112.4932630  55.0226600  19.6772200 113.3640940  54.6491500  18.4965340
 113.4923620  53.0078480  11.9796070 114.4172930  52.8759660  11.7714360
 113.4699410  53.0871300  12.9332520 113.5662110  53.7789140  14.6052780
 112.7713610  53.7134260  15.1345690 113.7705390  54.7139780  14.5938130
 110.5080530  67.8180690  18.5991170 111.1039600  67.4965260  17.9225590
 110.7658680  67.3452510  19.3904440 102.1149130  65.8058190  24.3491520
 101.8740490  66.0732750  23.4622040 103.0551770  65.9763920  24.4042380
 104.3203550  52.2690880  28.1048030 104.2592440  52.8612710  28.8543440
 105.2603930  52.1616840  27.9598290 113.3753290  67.8252570  25.1502160
 112.8811570  68.2221440  24.4329290 112.7666580  67.2001780  25.5439440
  97.4799370  50.6055200  27.8579380  98.0282360  50.4243250  27.0945490
  97.5454680  49.8149310  28.3935690  98.2531130  67.1960850  25.8679580
  97.6591450  67.0645550  26.6069620  98.2454970  66.3598990  25.4021680
 107.6986150  50.4893080  24.0709610 106.8245990  50.8228190  23.8682540
 107.5896900  50.0166260  24.8961480 101.4888460  66.7764230  21.6037030
 102.0053480  66.1651590  21.0785290 102.1385840  67.2793010  22.0948040
 105.4460970  51.4062920  23.0102520 104.6632760  51.8808420  23.2899280
 105.1523900  50.5017750  22.9015700 109.9982040  52.1086020  21.0551610
 110.4390130  52.0531120  20.2073210 109.7289630  53.0244030  21.1261790
 111.8620610  51.7401260  19.0660430 111.8009010  50.7962480  18.9191450
 112.6412640  51.8481350  19.6113890  96.1673360  67.8793620  18.0284380
  95.9995400  67.2464300  18.7266270  95.3007870  68.0853020  17.6778570
  96.7901380  51.7110400  15.5316240  97.5480740  51.8239280  14.9580270
  96.3278550  52.5479600  15.4859670 103.3315190  53.8249670  18.5218550
 102.5189700  53.4506560  18.1814430 103.8356830  53.0694750  18.8239740
 107.8340170  50.4892120  19.7601620 108.4369540  51.0612330  20.2350140
 107.0933160  51.0531560  19.5375520 110.9774770  50.8913680  15.0341900
 111.1725400  51.7897130  15.3009330 110.1904640  50.6600760  15.5274850
  97.7736060  66.5726850  15.4734520  97.2483680  66.9534880  14.7696480
  97.6980640  67.1977620  16.1944230  99.1626530  52.2374450  14.0718210
  99.6919290  51.4504250  13.9426160  99.7954850  52.9165640  14.3053740
 101.3564370  51.9749590  17.1263600 100.7267110  51.2736900  17.2933730
 100.8169510  52.7353720  16.9096760 112.5301380  68.1314390  16.7948460
 112.7053570  67.4452130  16.1509380 111.8322950  68.6561440  16.4025130
 101.4819930  51.2533570  29.5616090 101.2004200  51.7567170  28.7976910
 101.8639630  50.4555320  29.1958220 100.3729030  68.5209230  14.3483770
 101.1047850  68.2368510  13.8007660 100.6322700  68.2822510  15.2383150
  99.5343820  64.6373960  14.3530100  98.9052700  65.1059060  14.9015930
  99.6491650  63.7923180  14.7876290 108.0835390  50.6687150  30.1396560
 107.9700840  50.9881760  31.0348080 108.9005130  51.0699660  29.8433840
 110.8633880  67.8158680  29.6215250 111.6559200  67.3207910  29.4141210
 111.1567030  68.4948820  30.2290860 105.1211580  60.4658640   2.3840570
 104.3453680  59.9859080   2.6739140 105.7724510  59.7864290   2.2096730
  99.1377410  60.7778450   3.2616330  98.3062290  60.5227160   3.6612840
  99.7458390  60.8489220   3.9974250  99.1178670  64.8118540   3.4574350
  99.4206710  63.9216280   3.2784570  99.8622260  65.3688760   3.2296600
  95.5102370  58.3385990   2.9298420  96.0818480  57.5708190   2.9302060
  95.5103910  58.6374750   2.0205030 104.5620570  63.1415830   2.3910730
 104.4928850  62.2005770   2.2299860 105.3240430  63.2317240   2.9633300
  96.7527240  53.7470350   4.7167350  96.5730080  52.8496100   4.9970110
  96.3507320  54.2942220   5.3914300 105.5925740  55.9486210   2.6179660
 105.9690560  55.0758090   2.5053330 105.4945250  56.2844910   1.7270100
  97.3713910  56.2430850   3.3249690  98.0524020  56.5069220   3.9437090
  97.0561960  55.4031720   3.6587700 101.5638480  57.2898210   2.4122280
 102.0716700  57.7879180   3.0527300 102.0951720  56.5133410   2.2361640
 113.6649410  55.4603400   6.1151630 112.9601580  55.8485110   5.5966740
 113.9307330  56.1553690   6.7172560  99.8474580  51.9296770   6.6785700
  99.8493020  52.4469160   5.8731600  99.0178890  51.4526950   6.6555630
 101.0977430  61.5691950   4.8559200 100.7646810  62.1960870   5.4980270
 101.2744110  62.0953830   4.0760870 109.6111340  55.3837030   2.3235540
 108.9066910  55.6721920   2.9038650 109.9723500  56.1937140   1.9635100
  99.5289910  53.6406730   4.6856150  99.8706720  54.4848780   4.3910020
  98.5905720  53.7890470   4.8021490 100.3096530  63.5372750   6.6708380
 100.9270530  64.2123830   6.3892830  99.4489650  63.9460730   6.5795880
 111.2274120  65.0012160   4.5863020 110.5437640  65.6711270   4.5779690
 111.7668410  65.1992810   3.8207880 112.6798260  54.8291820   2.7144750
 111.7323170  54.8630800   2.8460180 113.0048250  55.6430770   3.0994110
 108.7632860  66.8456290   3.3008200 108.7760020  66.4418580   2.4330460
 108.2108080  67.6203580   3.1969630 108.1618300  61.7486130   4.6290810
 108.5787090  61.5346240   3.7944270 108.8858120  62.0058920   5.1999430
 112.1080400  60.1473350   4.7207050 111.2799030  60.2166440   4.2457180
 112.7030880  60.7327660   4.2522880 109.0722410  56.9342670   5.6661920
 108.6593590  57.7596380   5.9201910 108.3398360  56.3487710   5.4738280
 101.6736900  63.4070130   2.6919800 101.3765190  62.8015600   2.0127580
 102.6236720  63.4447440   2.5809160  99.9183820  56.4945780   4.3079630
 100.4698410  56.6041120   3.5332880 100.4327330  56.8683380   5.0234860
 109.7622510  66.9802000   6.3542900 109.2853070  67.7874190   6.1615510
 109.0784300  66.3280330   6.5069110 100.7655330  63.1451820   9.3427600
  99.8683860  63.3691790   9.5901000 100.7908200  63.2686760   8.3939000
  99.5926550  60.0165140   7.9184970  99.4534320  60.8887940   8.2872370
  98.7107910  59.6737950   7.7732910 101.3906900  65.9586840  10.1270120
 101.3622330  66.3629790   9.2598550 101.2271870  65.0297200   9.9641720
 113.3421720  66.7413940  11.4234290 113.8181440  67.2196830  12.1023370
 113.9628880  66.6731430  10.6979790  95.5445200  61.7862690   3.8355880
  95.6225620  61.9211460   2.8911600  96.1586880  61.0778580   4.0284000
 112.7454970  63.9326790   8.5834300 112.8718030  63.6938670   7.6651480
 112.7876350  63.1011330   9.0556380 106.6071710  67.6354790   7.1529110
 107.1216380  67.5462800   7.9551540 105.7640790  67.9814490   7.4457020
 112.5978980  55.9859250   9.5484040 111.9823250  56.4938920   9.0199500
 112.2775400  55.0857580   9.4909980  95.6004720  62.8276860   6.3750340
  95.7635760  62.3582220   5.5569710  96.0657170  62.3200420   7.0399180
 104.6593300  54.8251140   7.0146230 104.1972670  55.0334160   7.8266170
 104.2571410  54.0110490   6.7116900 109.6597810  56.0460090   8.1442890
 108.8091400  55.7465840   8.4651960 109.4999600  56.2902100   7.2326710
 106.7547520  57.5461840  10.2441680 107.0800930  56.7125590   9.9043910
 107.5427850  58.0690360  10.3920010 102.4099390  52.5029950   3.2700510
 102.7071720  53.4092780   3.1892530 102.9584950  52.0148730   2.6560080
 102.6036920  57.9801770   9.8052430 102.5080520  57.0396500   9.6552830
 103.4468900  58.2016840   9.4100500  97.7347460  54.3915440   7.9586210
  97.3410850  55.2390650   8.1658990  97.0465860  53.7541810   8.1494850
 104.3092510  54.4750410  11.0282950 103.6190830  54.2822610  11.6629040
 105.0524810  54.7585050  11.5607250  95.0364510  52.3143900   1.9916290
  94.7477560  52.8846760   2.7041270  95.7810270  51.8348350   2.3547520
 106.5855480  58.3148850   3.8636870 105.8536600  58.8235660   4.2126970
 106.1879820  57.4978830   3.5625650 103.0232870  54.9903050   2.2689360
 103.0268930  54.5493000   1.4193900 103.9183990  55.3120380   2.3761180
 107.0481390  53.7682530   3.2759810 107.0654130  54.2191180   4.1201660
 106.7996970  52.8688170   3.4893250 110.4752140  51.1814710   9.1146190
 110.7997910  50.4504370   9.6404170 110.5108650  50.8628350   8.2127180
  97.1743700  62.2028290   8.5346150  96.7898490  61.5621960   9.1329110
  97.4855890  62.9064410   9.1040880 103.3240840  59.0504830   4.0154770
 103.6910970  58.5763400   4.7616110 103.1345900  59.9246400   4.3563110
 101.1140210  58.0913470   6.3338980 100.8097280  58.9705450   6.5589340
 102.0686670  58.1513260   6.3696420 110.4009980  61.2939820   2.7232220
 111.1209100  61.7895110   2.3328330 110.1991800  60.6157710   2.0786090
 105.7828780  61.3648880   8.6101220 105.7166090  60.4444550   8.3558810
 105.1533920  61.4624320   9.3245860  97.1703940  58.9316210   7.4810340
  96.8118880  59.5970060   8.0683680  96.8758500  58.0999760   7.8522960
 100.3717060  59.3900450  10.3649890 100.0717200  59.5357630   9.4677710
 101.1428300  58.8305740  10.2723280 105.7145510  64.1869450   8.3605020
 105.7290050  63.2550410   8.1423930 105.0070610  64.2729210   8.9994790
 111.9256720  60.8276790   7.7073600 111.2004910  61.4205570   7.5102990
 112.4532180  60.8200330   6.9086970 105.1479410  65.8287020   5.4545520
 105.7921630  66.0346400   6.1318940 105.5108850  65.0675420   5.0016370
 106.4211490  63.8319370   4.1722970 107.0633720  63.1312530   4.2855140
 106.9460840  64.6117810   3.9919860 108.1949110  64.6314270   7.3759030
 108.5305350  65.2180960   8.0536950 107.2749450  64.5006980   7.6056820
  95.7452510  52.4209450   8.1582440  95.0311030  52.6206370   8.7635050
  96.1647550  51.6449020   8.5297240  96.0325100  66.4089710   9.1448970
  96.1416220  65.4684450   9.0044360  95.3805660  66.6744460   8.4962700
 104.0237690  64.6805600  10.5447090 103.7034560  63.9614840  11.0892780
 103.3496050  65.3560670  10.6183150 107.2391290  54.9131760   5.9083890
 107.6072110  54.0926970   6.2363460 106.3789490  54.9733650   6.3239540
 104.1993280  57.5671350   6.1321860 104.6978530  58.0417170   6.7973710
 104.3416230  56.6434870   6.3391890 111.4060140  53.7839310   6.9750250
 110.9033740  54.5244710   7.3144060 112.2216800  54.1723310   6.6587040
 111.7007730  66.1981340   2.0965870 111.8255150  67.0212510   2.5689680
 112.5673290  65.9872070   1.7490020  99.1725260  68.2912550   1.7683000
  99.9087740  67.7428010   2.0391570  99.5566180  69.1568560   1.6288990
  98.1783540  67.4758620  10.9568580  98.9796270  67.7970670  11.3703980
  97.6635360  67.1154200  11.6788490 107.0148170  63.5838490  10.9043990
 106.4086330  63.6070090  10.1639740 106.7102280  62.8521530  11.4411240
 108.4448540  67.3118780   9.5153400 109.3970290  67.2276800   9.4653640
 108.2976760  67.9760490  10.1887190  95.8981350  59.9632080   9.9004630
  96.4020370  59.3839360  10.4720860  95.1588770  60.2472310  10.4381000
 102.9519290  61.3703070   9.4340150 102.1864960  61.9388070   9.3494820
 103.1335250  61.0779280   8.5408380 110.0942640  63.1008400   9.9915170
 110.8352110  63.4384160   9.4882630 109.3315320  63.2700460   9.4384940
  97.9304430  58.1061670  10.7954700  97.9709770  57.8075540  11.7039930
  98.7849930  58.5069280  10.6362220  99.8710240  56.6853770   8.7629190
  99.3406700  56.1944720   8.1352530 100.5398310  57.1137970   8.2287120
 108.7688300  61.1523230   8.5270380 109.1829320  61.3068310   9.3760800
 107.8339300  61.2778450   8.6896160 109.2410470  58.4919390  10.5309530
 109.8231240  57.7371710  10.4430010 109.4172240  59.0226830   9.7541010
 100.3582540  53.6516140   8.8426480 100.2639410  53.0336890   8.1177350
  99.7779930  54.3782430   8.6156390 103.1243980  52.2089380   5.8753870
 102.6761280  52.2313640   5.0299420 102.4909180  51.8108400   6.4724170
 103.5303530  61.1043710   6.4966310 103.9491640  61.9476440   6.3242550
 102.6112160  61.2415750   6.2673090 105.8667430  58.8359890   7.8804150
 105.9863640  58.2401030   8.6198990 106.7261430  58.8729580   7.4605450
 108.2055330  59.3897080   6.4566660 107.6790550  59.9139700   5.8531800
 108.5486670  60.0224470   7.0876390 101.3810950  67.4096720   7.6124040
 100.8432040  68.1342780   7.2932740 101.6344910  66.9327060   6.8221380
 102.6336200  55.3781240   9.1379970 103.2235890  55.0697090   9.8257790
 101.8156440  54.9060990   9.2939870 107.4529630  54.9947050   9.3712990
 106.7645150  54.3328590   9.3062980 108.1735650  54.5485320   9.8161450
 104.2373160  68.6447930   7.8710690 104.1631860  69.5483070   8.1783060
 103.3352000  68.3259830   7.8432760  96.1290660  66.8393110   3.9125940
  95.6921650  67.0193910   4.7450090  96.6968340  67.5967730   3.7707660
 111.7652840  66.3410110   8.2003250 111.1654830  66.4002670   7.4567170
 111.8946740  65.4015090   8.3300100 110.4504480  63.0662090   6.2979410
 109.6364320  63.4959250   6.5605200 110.8578680  63.6780500   5.6848460
  96.9991020  59.7365910   4.8118160  97.3664060  59.6493310   5.6914180
  96.4301840  58.9732460   4.7125020 111.7994880  58.2050290   7.8248630
 111.5680970  57.9763040   6.9246580 112.0599430  59.1249840   7.7793520
  96.5507020  56.6475000   8.7176580  95.6563070  56.6141760   9.0570290
  97.0904570  56.8461790   9.4827830 110.2382950  53.4306720  10.6028330
 111.1153130  53.4390120  10.9862330 110.2503790  52.6937560   9.9920680
 111.8635940  57.3676130   5.0135900 110.9138650  57.3339670   5.1280890
 112.0448950  58.2776240   4.7785670  97.0546730  50.9223330   3.0659800
  97.7022920  50.3720710   2.6254960  97.4748570  51.1766480   3.8875610
 110.9499070  51.1164690   6.4229440 111.5871290  51.7298830   6.7888630
 111.0973960  51.1525350   5.4778670  96.8078730  51.0779000   5.8085120
  96.4593550  51.5342820   6.5743300  96.4766430  50.1836130   5.8907550
  98.4143100  64.2498600   9.9738310  98.3712730  63.8791510  10.8552770
  98.5454110  65.1876170  10.1140130 102.1149130  65.8058190   5.5748030
 101.8740490  66.0732750   4.6878550 103.0551770  65.9763920   5.6298890
 104.3203550  52.2690880   9.3304540 104.2592440  52.8612710  10.0799950
 105.2603930  52.1616840   9.1854800 106.9578110  51.9260940   8.9696830
 107.5718520  52.2440230   8.3077910 107.5027670  51.4409530   9.5892690
 113.3753290  67.8252570   6.3758670 112.8811570  68.2221440   5.6585800
 112.7666580  67.2001780   6.7695950  97.4799370  50.6055200   9.0835890
  98.0282360  50.4243250   8.3202000  97.5454680  49.8149310   9.6192200
  98.2531130  67.1960850   7.0936090  97.6591450  67.0645550   7.8326130
  98.2454970  66.3598990   6.6278190 107.6986150  50.4893080   5.2966120
 106.8245990  50.8228190   5.0939050 107.5896900  50.0166260   6.1217990
 108.6058130  52.6963950   6.6807840 108.2771490  51.8815710   6.3009570
 109.5540430  52.6533760   6.5573530 111.0592740  68.4675990   3.6545410
 110.5995710  69.2191800   3.2803430 110.4305200  67.7482460   3.5960210
  97.8843360  64.5619230   6.0444130  97.1577420  63.9424520   5.9770080
  97.9452510  64.9559840   5.1742210 101.4888460  66.7764230   2.8293540
 102.0053480  66.1651590   2.3041800 102.1385840  67.2793010   3.3204550
 104.2283960  67.6672720   3.6562520 104.5161770  67.4127020   2.7795530
 104.7407180  67.1150080   4.2468090 105.4460970  51.4062920   4.2359030
 104.6632760  51.8808420   4.5155790 105.1523900  50.5017750   4.1272210
 109.9982040  52.1086020   2.2808120 110.4390130  52.0531120   1.4329720
 109.7289630  53.0244030   2.3518300 104.2956320  68.5888820  11.0230720
 105.2223630  68.3533090  11.0666680 104.2806750  69.4160820  10.5416750
 101.4819930  51.2533570  10.7872600 101.2004200  51.7567170  10.0233420
 101.8639630  50.4555320  10.4214730 108.0835390  50.6687150  11.3653070
 107.9700840  50.9881760  12.2604590 108.9005130  51.0699660  11.0690350
 110.8633880  67.8158680  10.8471760 111.6559200  67.3207910  10.6397720
 111.1567030  68.4948820  11.4547370 106.9893540  39.9136130 150.6979220
 106.9087590  38.9990740 150.4270930 106.5757960  40.4103200 149.9918930
 105.1211580  41.6915150 152.5788490 104.3453680  41.2115590 152.8687060
 105.7724510  41.0120800 152.4044650 109.1419010  46.0975340 151.3587620
 108.6800540  45.3262580 151.6874790 109.9544560  46.1241410 151.8640070
  97.5469360  36.9636850 147.2406640  96.6586060  37.3052820 147.1386520
  97.8310550  36.7637170 146.3487470  95.5102370  39.5642500 153.1246340
  96.0818480  38.7964700 153.1249980  95.5103910  39.8631260 152.2152950
 105.3682320  48.3833350 150.9791610 104.7493760  48.8390850 150.4086050
 106.2234100  48.5384810 150.5781310 104.5620570  44.3672340 152.5858650
 104.4928850  43.4262280 152.4247780 105.3240430  44.4573750 153.1581220
 105.5925740  37.1742720 152.8127580 105.9690560  36.3014600 152.7001250
 105.4945250  37.5101420 151.9218020  99.7230750  35.5468350 148.2745020
  99.8297500  36.4472080 148.5813780  98.8123110  35.4986320 147.9839670
 109.3749860  34.6693160 149.7455920 110.1959480  34.1789730 149.7881400
 109.4083940  35.2590820 150.4987760 106.2345670  43.2672590 148.3723520
 105.6162940  43.7322040 147.8086240 106.7468920  43.9600070 148.7893030
 109.6111340  36.6093540 152.5183460 108.9066910  36.8978430 153.0986570
 109.9723500  37.4193650 152.1583020  95.6028870  43.9529120 145.7463150
  95.2256850  44.4416220 145.0148050  95.8601940  44.6254400 146.3769680
 103.2117800  32.3545510 151.2048660 103.5192780  31.7992400 150.4884160
 102.2818500  32.4889970 151.0221650 110.0578280  44.7929020 148.5846290
 109.9474610  43.8503350 148.7095710 110.0546530  45.1544660 149.4709050
 105.5998560  40.4194340 147.9408780 104.6727840  40.3531720 148.1697250
 105.7523380  41.3574470 147.8264020 105.5867640  36.6911340 144.9375940
 104.6471310  36.8525300 145.0228400 105.9050900  37.4097020 144.3911930
 109.6295850  41.9814640 148.4444030 109.0108270  41.6434190 147.7970330
 109.6120300  41.3374400 149.1523220 101.2055200  40.9459080 150.7228510
 100.8012200  40.2336330 150.2274410 101.2918320  40.6012320 151.6116550
 101.6736900  44.6326640 152.8867720 101.3765190  44.0272110 152.2075500
 102.6236720  44.6703950 152.7757080 107.8060550  41.2201450 145.4516780
 108.2453830  40.3823880 145.3054600 108.5188970  41.8530850 145.5380920
 105.9155930  46.1597520 149.4198020 106.3551840  46.9021850 149.0053410
 105.8542820  46.4024090 150.3436980 111.3877690  32.4744260 143.7657820
 111.0750350  32.5671090 144.6656890 112.1490160  33.0525290 143.7155250
  97.9059830  39.8404060 148.2235160  97.7857430  40.5666150 147.6116430
  97.5960720  39.0706970 147.7463070  96.7892830  44.7119390 150.4409980
  96.3820910  44.8533980 149.5863580  97.6805840  44.4279550 150.2381190
 108.5826110  49.1466640 146.7761030 108.4227250  48.8569580 147.6742860
 108.4172820  48.3706770 146.2406260 101.0614490  48.9265170 148.5532650
 100.8856970  48.0100710 148.3400450 100.2070230  49.2852460 148.7930450
 108.2852240  46.6554200 145.3359030 107.5917400  46.6531490 144.6761310
 109.0275100  46.2313520 144.9053200 107.8502170  48.2816910 149.4107520
 108.3059120  47.5006290 149.7246140 108.1894690  48.9923730 149.9548700
 100.3723490  33.1839130 151.6058830  99.9291640  33.9648670 151.2743350
 100.9308480  33.5069020 152.3129770 103.4882310  32.8049830 146.4864660
 102.8636490  32.8009700 147.2117970 103.4012430  31.9380790 146.0900630
 100.1637710  38.3072700 149.3340080  99.9378630  38.0909870 150.2386700
  99.3830240  38.7401160 148.9886050 107.3935470  38.3136070 147.9330730
 106.7944360  39.0371870 147.7494350 107.9415080  38.2512850 147.1507180
 106.0000340  36.9499610 149.9634010 106.3929910  37.2671810 149.1502700
 106.3617190  36.0711490 150.0778530  95.0364510  33.5400410 152.1864210
  94.7477560  34.1103270 152.8989190  95.7810270  33.0604860 152.5495440
  95.2234740  37.4820530 143.3966930  95.1409410  38.4251290 143.5381920
  94.8717800  37.3395440 142.5179280 103.0232870  36.2159560 152.4637280
 103.0268930  35.7749510 151.6141820 103.9183990  36.5376890 152.5709100
  98.8735250  36.0986050 151.4231490  98.5335300  36.5761280 152.1798540
  98.1112570  35.6451170 151.0632590 103.0853020  37.2171640 145.4544040
 103.2065840  37.1758120 146.4029860 102.7001530  38.0795790 145.2990770
 102.0974520  39.5272780 144.8527340 101.5291420  39.0791030 144.2263250
 102.8063520  39.8865560 144.3192490  96.1881330  35.0205030 150.3396160
  95.9028250  34.6560700 151.1774780  96.1260190  34.2885490 149.7259300
  99.6422000  43.5230970 147.1253750  98.8684260  42.9828590 146.9652470
 100.3716630  43.0037580 146.7871510 110.4009980  42.5196330 152.9180140
 111.1209100  43.0151620 152.5276250 110.1991800  41.8414220 152.2734010
 105.8619920  33.9134290 147.0609530 105.0484530  33.4147460 146.9854840
 105.6681870  34.7532540 146.6445880 108.5768310  38.2853940 145.3571690
 109.4647930  38.5971170 145.1823030 108.5473400  37.4126190 144.9652270
  99.6859400  43.1911350 150.7632560 100.2038070  42.3879610 150.7089450
  99.2343420  43.1290490 151.6049390 104.5728900  44.4577630 146.0359860
 104.9144600  45.2019860 145.5403180 103.7441610  44.7708750 146.3984690
 110.8482580  39.5965780 144.8251550 110.7646300  40.0280000 143.9747990
 111.5676770  40.0564130 145.2578370 111.8769830  46.4508040 147.5533680
 111.2345990  45.7963660 147.8277400 111.4900490  46.8563130 146.7774350
 107.4556310  43.7793470 151.4005370 107.8080130  43.1821600 150.7406740
 106.5718640  43.4537700 151.5713620 103.5419590  44.5391160 148.8075780
 104.2290720  45.0860370 149.1883370 102.7552010  45.0831890 148.8425390
  95.6811990  40.1563980 144.2992860  96.5506840  40.4388780 144.5828780
  95.1902310  40.9699850 144.1841670 102.8446800  41.5437190 148.4201140
 103.3009580  42.3542440 148.6461330 102.4935010  41.2260330 149.2519630
  98.7458580  31.8874840 148.8923660  98.6173210  31.8792740 149.8408580
  97.9220600  32.2257930 148.5414670 110.2667210  45.3424500 144.0910030
 110.0404790  44.6254940 144.6834670 109.8763410  45.0936940 143.2531780
  96.0483240  49.3691360 144.8654490  96.4080880  49.9680700 144.2111760
  95.9075580  49.9151250 145.6389520 109.8483460  43.2596440 145.7524190
 109.5605160  43.7209130 146.5402070 110.6435630  42.7994210 146.0208410
 102.0651860  46.7522560 145.6828160 102.0561960  47.4852250 145.0672670
 101.1450220  46.5054140 145.7755120  97.6658500  41.9737450 146.4274920
  97.0586450  42.7136350 146.4370220  98.1407850  42.0636810 145.6013120
 110.6053320  35.0945210 146.9119370 109.9766480  35.1990880 146.1977600
 110.1105240  35.3141990 147.7013250 105.0511460  46.8150800 144.3453350
 105.1523440  46.6114790 143.4155330 104.1513200  46.5609080 144.5501130
 102.5737350  37.3731160 148.3277250 101.8653500  37.8417500 148.7690860
 102.8581830  36.7153170 148.9622440 106.6052780  34.0981820 149.7673040
 106.4820560  34.1167950 148.8182550 107.5537340  34.1460760 149.8871440
 103.6929570  49.3337120 149.0401020 103.9471070  49.2958510 148.1180390
 102.7442050  49.2070450 149.0329270 100.7772370  35.6816240 145.7027960
 101.6262900  36.1186390 145.6368150 100.4103640  35.9936500 146.5300020
 109.6982150  40.2529000 150.6159530 108.7572290  40.2679230 150.7907220
 110.0126220  39.4664960 151.0619830  99.6763790  41.9348600 144.1763490
 100.4427060  41.8229960 144.7388920  99.7538480  41.2386570 143.5240260
  98.3710550  39.3673670 144.8596380  98.4514140  38.4201180 144.9713780
  99.2630300  39.6980550 144.9657040 111.7007730  47.4237850 152.2913790
 111.8255150  48.2469020 152.7637600 112.5673290  47.2128580 151.9437940
  99.1725260  49.5169060 151.9630920  99.9087740  48.9684520 152.2339490
  99.5566180  50.3825070 151.8236910  96.0570740  45.5842630 147.8372430
  95.1310520  45.8263770 147.8277840  96.5227170  46.4116890 147.7157180
 102.2827570  48.6899370 143.7856490 103.0756180  48.9788200 143.3338280
 101.7631920  48.2591540 143.1068970 111.3357740  47.9169500 145.2093230
 111.0499250  47.5034640 144.3947410 111.1377290  48.8457210 145.0893750
 102.8004970  43.9102780 143.6498840 102.6955610  43.2955130 144.3760220
 102.6329190  43.3868670 142.8661850 106.0407700  42.9722810 144.2540830
 105.4917800  43.4192110 144.8983570 106.6626960  42.4672060 144.7778500
 101.7082820  41.9313730 146.1506130 102.1299240  41.7653600 146.9937520
 101.8333660  41.1213960 145.6561270 104.2210460  40.9551340 143.3983230
 104.7416120  40.2400360 143.0324380 104.8678860  41.5937210 143.6983740
 100.6041720  38.0046960 143.0964290 100.4030780  37.1414320 143.4577630
 100.4333770  37.9180320 142.1585890 108.0830030  32.8155190 145.6251170
 108.3632320  31.9723090 145.9810590 107.3095760  33.0478300 146.1389920
  99.4024520  35.1047580 143.0842170  99.7050420  35.1115010 142.1761320
 100.1419110  34.7545440 143.5809830 102.6209450  34.0482200 144.0698370
 102.2731450  33.3706190 143.4900820 102.8222220  33.5871710 144.8841760
 104.7858490  49.0362950 145.6884970 105.6809280  49.3747920 145.7103730
 104.8176120  48.3142360 145.0609250  98.4254650  44.4090000 143.9171970
  98.8629520  44.9519670 144.5729550  98.9102380  43.5836950 143.9268310
  95.6400450  47.1979030 151.3692230  95.9703460  46.3300090 151.1370870
  96.0691450  47.4037550 152.1997190 100.2362370  45.5288040 149.0294200
  99.9357910  45.4053010 149.9298110 100.1299860  44.6696630 148.6209930
 113.0054290  45.3084440 143.7320880 112.1747250  45.3761090 144.2028110
 113.1826120  46.1988560 143.4287740 112.4610750  42.0531920 146.2355080
 113.2229660  42.6228570 146.3414770 112.4765120  41.4859120 147.0063390
  95.9615090  40.5769850 150.4662740  95.3063930  40.3081490 149.8222440
  96.7993040  40.4674330 150.0164720 113.4670720  42.9082020 151.0797010
 113.8379550  42.1249340 150.6732980 114.1072650  43.5971120 150.9014310
 112.5129920  42.3466290 143.3927600 112.7878760  43.2545170 143.2646820
 112.3240660  42.2828820 144.3289590 108.9105530  35.3711140 144.6881230
 109.3290410  35.1842120 143.8477890 108.6041590  34.5190190 144.9984160
 112.4095260  40.2835280 148.3857030 112.0338860  39.5163210 147.9538320
 111.6798380  40.6657980 148.8731960  95.1753170  37.7868780 146.4088070
  94.2717250  38.0498980 146.2339730  95.6593790  38.0579950 145.6288030
 111.6846220  38.5092770 151.6864270 112.2083700  38.0155420 151.0554440
 112.2705640  38.6443130 152.4311840  97.7180380  36.8434320 144.3182450
  98.4272080  36.4217540 143.8329730  97.0020320  36.9109550 143.6865800
  97.3654540  32.8973650 143.3585100  98.0882670  33.4382590 143.6766320
  97.6379060  32.6237070 142.4826640 111.1746190  37.7666120 147.6256680
 111.6705310  37.5336990 148.4105560 110.9762260  36.9277960 147.2094320
 112.6033350  36.4027070 150.1594360 112.4932630  36.2483110 151.0976630
 113.3640940  35.8748010 149.9169770 113.4923620  34.2334990 143.4000500
 114.4172930  34.1016170 143.1918790 113.4699410  34.3127810 144.3536950
 113.5662110  35.0045650 146.0257210 112.7713610  34.9390770 146.5550120
 113.7705390  35.9396290 146.0142560 110.5080530  49.0437200 150.0195600
 111.1039600  48.7221770 149.3430020 110.7658680  48.5709020 150.8108870
 109.9982040  33.3342530 152.4756040 110.4390130  33.2787630 151.6277640
 109.7289630  34.2500540 152.5466220 111.8620610  32.9657770 150.4864860
 111.8009010  32.0218990 150.3395880 112.6412640  33.0737860 151.0318320
  96.1673360  49.1050130 149.4488810  95.9995400  48.4720810 150.1470700
  95.3007870  49.3109530 149.0983000  96.7901380  32.9366910 146.9520670
  97.5480740  33.0495790 146.3784700  96.3278550  33.7736110 146.9064100
 103.3315190  35.0506180 149.9422980 102.5189700  34.6763070 149.6018860
 103.8356830  34.2951260 150.2444170 107.8340170  31.7148630 151.1806050
 108.4369540  32.2868840 151.6554570 107.0933160  32.2788070 150.9579950
 110.9774770  32.1170190 146.4546330 111.1725400  33.0153640 146.7213760
 110.1904640  31.8857270 146.9479280  97.7736060  47.7983360 146.8938950
  97.2483680  48.1791390 146.1900910  97.6980640  48.4234130 147.6148660
  99.1626530  33.4630960 145.4922640  99.6919290  32.6760760 145.3630590
  99.7954850  34.1422150 145.7258170 101.3564370  33.2006100 148.5468030
 100.7267110  32.4993410 148.7138160 100.8169510  33.9610230 148.3301190
 112.5301380  49.3570900 148.2152890 112.7053570  48.6708640 147.5713810
 111.8322950  49.8817950 147.8229560 100.3729030  49.7465740 145.7688200
 101.1047850  49.4625020 145.2212090 100.6322700  49.5079020 146.6587580
  99.5343820  45.8630470 145.7734530  98.9052700  46.3315570 146.3220360
  99.6491650  45.0179690 146.2080720 106.9893540  39.9136130 131.9235730
 106.9087590  38.9990740 131.6527440 106.5757960  40.4103200 131.2175440
 105.1211580  41.6915150 133.8045000 104.3453680  41.2115590 134.0943570
 105.7724510  41.0120800 133.6301160  99.1377410  42.0034960 134.6820760
  98.3062290  41.7483670 135.0817270  99.7458390  42.0745730 135.4178680
 109.1419010  46.0975340 132.5844130 108.6800540  45.3262580 132.9131300
 109.9544560  46.1241410 133.0896580  99.1178670  46.0375050 134.8778780
  99.4206710  45.1472790 134.6989000  99.8622260  46.5945270 134.6501030
  97.5469360  36.9636850 128.4663150  96.6586060  37.3052820 128.3643030
  97.8310550  36.7637170 127.5743980  95.5102370  39.5642500 134.3502850
  96.0818480  38.7964700 134.3506490  95.5103910  39.8631260 133.4409460
 105.3682320  48.3833350 132.2048120 104.7493760  48.8390850 131.6342560
 106.2234100  48.5384810 131.8037820 104.5620570  44.3672340 133.8115160
 104.4928850  43.4262280 133.6504290 105.3240430  44.4573750 134.3837730
  96.7527240  34.9726860 136.1371780  96.5730080  34.0752610 136.4174540
  96.3507320  35.5198730 136.8118730 105.5925740  37.1742720 134.0384090
 105.9690560  36.3014600 133.9257760 105.4945250  37.5101420 133.1474530
  99.7230750  35.5468350 129.5001530  99.8297500  36.4472080 129.8070290
  98.8123110  35.4986320 129.2096180 109.3749860  34.6693160 130.9712430
 110.1959480  34.1789730 131.0137910 109.4083940  35.2590820 131.7244270
  97.3713910  37.4687360 134.7454120  98.0524020  37.7325730 135.3641520
  97.0561960  36.6288230 135.0792130 101.5638480  38.5154720 133.8326710
 102.0716700  39.0135690 134.4731730 102.0951720  37.7389920 133.6566070
 113.6649410  36.6859910 137.5356060 112.9601580  37.0741620 137.0171170
 113.9307330  37.3810200 138.1376990  99.8474580  33.1553280 138.0990130
  99.8493020  33.6725670 137.2936030  99.0178890  32.6783460 138.0760060
 106.2345670  43.2672590 129.5980030 105.6162940  43.7322040 129.0342750
 106.7468920  43.9600070 130.0149540 101.0977430  42.7948460 136.2763630
 100.7646810  43.4217380 136.9184700 101.2744110  43.3210340 135.4965300
 109.6111340  36.6093540 133.7439970 108.9066910  36.8978430 134.3243080
 109.9723500  37.4193650 133.3839530  99.5289910  34.8663240 136.1060580
  99.8706720  35.7105290 135.8114450  98.5905720  35.0146980 136.2225920
 100.3096530  44.7629260 138.0912810 100.9270530  45.4380340 137.8097260
  99.4489650  45.1717240 138.0000310  95.6028870  43.9529120 126.9719660
  95.2256850  44.4416220 126.2404560  95.8601940  44.6254400 127.6026190
 111.2274120  46.2268670 136.0067450 110.5437640  46.8967780 135.9984120
 111.7668410  46.4249320 135.2412310 112.6798260  36.0548330 134.1349180
 111.7323170  36.0887310 134.2664610 113.0048250  36.8687280 134.5198540
 103.2117800  32.3545510 132.4305170 103.5192780  31.7992400 131.7140670
 102.2818500  32.4889970 132.2478160 108.7632860  48.0712800 134.7212630
 108.7760020  47.6675090 133.8534890 108.2108080  48.8460090 134.6174060
 110.0578280  44.7929020 129.8102800 109.9474610  43.8503350 129.9352220
 110.0546530  45.1544660 130.6965560 108.1618300  42.9742640 136.0495240
 108.5787090  42.7602750 135.2148700 108.8858120  43.2315430 136.6203860
 105.5998560  40.4194340 129.1665290 104.6727840  40.3531720 129.3953760
 105.7523380  41.3574470 129.0520530 105.5867640  36.6911340 126.1632450
 104.6471310  36.8525300 126.2484910 105.9050900  37.4097020 125.6168440
 112.1080400  41.3729860 136.1411480 111.2799030  41.4422950 135.6661610
 112.7030880  41.9584170 135.6727310 109.6295850  41.9814640 129.6700540
 109.0108270  41.6434190 129.0226840 109.6120300  41.3374400 130.3779730
 109.0722410  38.1599180 137.0866350 108.6593590  38.9852890 137.3406340
 108.3398360  37.5744220 136.8942710 101.2055200  40.9459080 131.9485020
 100.8012200  40.2336330 131.4530920 101.2918320  40.6012320 132.8373060
 101.6736900  44.6326640 134.1124230 101.3765190  44.0272110 133.4332010
 102.6236720  44.6703950 134.0013590  99.9183820  37.7202290 135.7284060
 100.4698410  37.8297630 134.9537310 100.4327330  38.0939890 136.4439290
 109.7622510  48.2058510 137.7747330 109.2853070  49.0130700 137.5819940
 109.0784300  47.5536840 137.9273540 100.7655330  44.3708330 140.7632030
  99.8683860  44.5948300 141.0105430 100.7908200  44.4943270 139.8143430
 107.8060550  41.2201450 126.6773290 108.2453830  40.3823880 126.5311110
 108.5188970  41.8530850 126.7637430  99.5926550  41.2421650 139.3389400
  99.4534320  42.1144450 139.7076800  98.7107910  40.8994460 139.1937340
 105.9155930  46.1597520 130.6454530 106.3551840  46.9021850 130.2309920
 105.8542820  46.4024090 131.5693490 101.3906900  47.1843350 141.5474550
 101.3622330  47.5886300 140.6802980 101.2271870  46.2553710 141.3846150
 111.3877690  32.4744260 124.9914330 111.0750350  32.5671090 125.8913400
 112.1490160  33.0525290 124.9411760  97.9059830  39.8404060 129.4491670
  97.7857430  40.5666150 128.8372940  97.5960720  39.0706970 128.9719580
 113.3421720  47.9670450 142.8438720 113.8181440  48.4453340 143.5227800
 113.9628880  47.8987940 142.1184220  95.5445200  43.0119200 135.2560310
  95.6225620  43.1467970 134.3116030  96.1586880  42.3035090 135.4488430
  96.7892830  44.7119390 131.6666490  96.3820910  44.8533980 130.8120090
  97.6805840  44.4279550 131.4637700 112.7454970  45.1583300 140.0038730
 112.8718030  44.9195180 139.0855910 112.7876350  44.3267840 140.4760810
 106.6071710  48.8611300 138.5733540 107.1216380  48.7719310 139.3755970
 105.7640790  49.2071000 138.8661450 108.5826110  49.1466640 128.0017540
 108.4227250  48.8569580 128.8999370 108.4172820  48.3706770 127.4662770
 101.0614490  48.9265170 129.7789160 100.8856970  48.0100710 129.5656960
 100.2070230  49.2852460 130.0186960 108.2852240  46.6554200 126.5615540
 107.5917400  46.6531490 125.9017820 109.0275100  46.2313520 126.1309710
 107.8502170  48.2816910 130.6364030 108.3059120  47.5006290 130.9502650
 108.1894690  48.9923730 131.1805210 112.5978980  37.2115760 140.9688470
 111.9823250  37.7195430 140.4403930 112.2775400  36.3114090 140.9114410
  95.6004720  44.0533370 137.7954770  95.7635760  43.5838730 136.9774140
  96.0657170  43.5456930 138.4603610 100.3723490  33.1839130 132.8315340
  99.9291640  33.9648670 132.4999860 100.9308480  33.5069020 133.5386280
 104.6593300  36.0507650 138.4350660 104.1972670  36.2590670 139.2470600
 104.2571410  35.2367000 138.1321330 109.6597810  37.2716600 139.5647320
 108.8091400  36.9722350 139.8856390 109.4999600  37.5158610 138.6531140
 106.7547520  38.7718350 141.6646110 107.0800930  37.9382100 141.3248340
 107.5427850  39.2946870 141.8124440 103.4882310  32.8049830 127.7121170
 102.8636490  32.8009700 128.4374480 103.4012430  31.9380790 127.3157140
 102.4099390  33.7286460 134.6904940 102.7071720  34.6349290 134.6096960
 102.9584950  33.2405240 134.0764510 100.1637710  38.3072700 130.5596590
  99.9378630  38.0909870 131.4643210  99.3830240  38.7401160 130.2142560
 107.3935470  38.3136070 129.1587240 106.7944360  39.0371870 128.9750860
 107.9415080  38.2512850 128.3763690 102.6036920  39.2058280 141.2256860
 102.5080520  38.2653010 141.0757260 103.4468900  39.4273350 140.8304930
 106.0000340  36.9499610 131.1890520 106.3929910  37.2671810 130.3759210
 106.3617190  36.0711490 131.3035040  97.7347460  35.6171950 139.3790640
  97.3410850  36.4647160 139.5863420  97.0465860  34.9798320 139.5699280
 104.3092510  35.7006920 142.4487380 103.6190830  35.5079120 143.0833470
 105.0524810  35.9841560 142.9811680  95.0364510  33.5400410 133.4120720
  94.7477560  34.1103270 134.1245700  95.7810270  33.0604860 133.7751950
  95.2234740  37.4820530 124.6223440  95.1409410  38.4251290 124.7638430
  94.8717800  37.3395440 123.7435790 106.5855480  39.5405360 135.2841300
 105.8536600  40.0492170 135.6331400 106.1879820  38.7235340 134.9830080
 103.0232870  36.2159560 133.6893790 103.0268930  35.7749510 132.8398330
 103.9183990  36.5376890 133.7965610  98.8735250  36.0986050 132.6488000
  98.5335300  36.5761280 133.4055050  98.1112570  35.6451170 132.2889100
 103.0853020  37.2171640 126.6800550 103.2065840  37.1758120 127.6286370
 102.7001530  38.0795790 126.5247280 107.0481390  34.9939040 134.6964240
 107.0654130  35.4447690 135.5406090 106.7996970  34.0944680 134.9097680
 102.0974520  39.5272780 126.0783850 101.5291420  39.0791030 125.4519760
 102.8063520  39.8865560 125.5449000 110.4752140  32.4071220 140.5350620
 110.7997910  31.6760880 141.0608600 110.5108650  32.0884860 139.6331610
  97.1743700  43.4284800 139.9550580  96.7898490  42.7878470 140.5533540
  97.4855890  44.1320920 140.5245310 103.3240840  40.2761340 135.4359200
 103.6910970  39.8019910 136.1820540 103.1345900  41.1502910 135.7767540
  96.1881330  35.0205030 131.5652670  95.9028250  34.6560700 132.4031290
  96.1260190  34.2885490 130.9515810 101.1140210  39.3169980 137.7543410
 100.8097280  40.1961960 137.9793770 102.0686670  39.3769770 137.7900850
  99.6422000  43.5230970 128.3510260  98.8684260  42.9828590 128.1908980
 100.3716630  43.0037580 128.0128020 110.4009980  42.5196330 134.1436650
 111.1209100  43.0151620 133.7532760 110.1991800  41.8414220 133.4990520
 105.8619920  33.9134290 128.2866040 105.0484530  33.4147460 128.2111350
 105.6681870  34.7532540 127.8702390 105.7828780  42.5905390 140.0305650
 105.7166090  41.6701060 139.7763240 105.1533920  42.6880830 140.7450290
 108.5768310  38.2853940 126.5828200 109.4647930  38.5971170 126.4079540
 108.5473400  37.4126190 126.1908780  99.6859400  43.1911350 131.9889070
 100.2038070  42.3879610 131.9345960  99.2343420  43.1290490 132.8305900
 104.5728900  44.4577630 127.2616370 104.9144600  45.2019860 126.7659690
 103.7441610  44.7708750 127.6241200  97.1703940  40.1572720 138.9014770
  96.8118880  40.8226570 139.4888110  96.8758500  39.3256270 139.2727390
 100.3717060  40.6156960 141.7854320 100.0717200  40.7614140 140.8882140
 101.1428300  40.0562250 141.6927710 105.7145510  45.4125960 139.7809450
 105.7290050  44.4806920 139.5628360 105.0070610  45.4985720 140.4199220
 110.8482580  39.5965780 126.0508060 110.7646300  40.0280000 125.2004500
 111.5676770  40.0564130 126.4834880 111.9256720  42.0533300 139.1278030
 111.2004910  42.6462080 138.9307420 112.4532180  42.0456840 138.3291400
 111.8769830  46.4508040 128.7790190 111.2345990  45.7963660 129.0533910
 111.4900490  46.8563130 128.0030860 107.4556310  43.7793470 132.6261880
 107.8080130  43.1821600 131.9663250 106.5718640  43.4537700 132.7970130
 103.5419590  44.5391160 130.0332290 104.2290720  45.0860370 130.4139880
 102.7552010  45.0831890 130.0681900  95.6811990  40.1563980 125.5249370
  96.5506840  40.4388780 125.8085290  95.1902310  40.9699850 125.4098180
 102.8446800  41.5437190 129.6457650 103.3009580  42.3542440 129.8717840
 102.4935010  41.2260330 130.4776140 105.1479410  47.0543530 136.8749950
 105.7921630  47.2602910 137.5523370 105.5108850  46.2931930 136.4220800
  98.7458580  31.8874840 130.1180170  98.6173210  31.8792740 131.0665090
  97.9220600  32.2257930 129.7671180 106.4211490  45.0575880 135.5927400
 107.0633720  44.3569040 135.7059570 106.9460840  45.8374320 135.4124290
 110.2667210  45.3424500 125.3166540 110.0404790  44.6254940 125.9091180
 109.8763410  45.0936940 124.4788290 108.1949110  45.8570780 138.7963460
 108.5305350  46.4437470 139.4741380 107.2749450  45.7263490 139.0261250
  96.0483240  49.3691360 126.0911000  96.4080880  49.9680700 125.4368270
  95.9075580  49.9151250 126.8646030  95.7452510  33.6465960 139.5786870
  95.0311030  33.8462880 140.1839480  96.1647550  32.8705530 139.9501670
 109.8483460  43.2596440 126.9780700 109.5605160  43.7209130 127.7658580
 110.6435630  42.7994210 127.2464920  96.0325100  47.6346220 140.5653400
  96.1416220  46.6940960 140.4248790  95.3805660  47.9000970 139.9167130
 104.0237690  45.9062110 141.9651520 103.7034560  45.1871350 142.5097210
 103.3496050  46.5817180 142.0387580 102.0651860  46.7522560 126.9084670
 102.0561960  47.4852250 126.2929180 101.1450220  46.5054140 127.0011630
  97.6658500  41.9737450 127.6531430  97.0586450  42.7136350 127.6626730
  98.1407850  42.0636810 126.8269630 107.2391290  36.1388270 137.3288320
 107.6072110  35.3183480 137.6567890 106.3789490  36.1990160 137.7443970
 110.6053320  35.0945210 128.1375880 109.9766480  35.1990880 127.4234110
 110.1105240  35.3141990 128.9269760 105.0511460  46.8150800 125.5709860
 105.1523440  46.6114790 124.6411840 104.1513200  46.5609080 125.7757640
 102.5737350  37.3731160 129.5533760 101.8653500  37.8417500 129.9947370
 102.8581830  36.7153170 130.1878950 104.1993280  38.7927860 137.5526290
 104.6978530  39.2673680 138.2178140 104.3416230  37.8691380 137.7596320
 106.6052780  34.0981820 130.9929550 106.4820560  34.1167950 130.0439060
 107.5537340  34.1460760 131.1127950 103.6929570  49.3337120 130.2657530
 103.9471070  49.2958510 129.3436900 102.7442050  49.2070450 130.2585780
 100.7772370  35.6816240 126.9284470 101.6262900  36.1186390 126.8624660
 100.4103640  35.9936500 127.7556530 111.4060140  35.0095820 138.3954680
 110.9033740  35.7501220 138.7348490 112.2216800  35.3979820 138.0791470
 109.6982150  40.2529000 131.8416040 108.7572290  40.2679230 132.0163730
 110.0126220  39.4664960 132.2876340  99.6763790  41.9348600 125.4020000
 100.4427060  41.8229960 125.9645430  99.7538480  41.2386570 124.7496770
  98.3710550  39.3673670 126.0852890  98.4514140  38.4201180 126.1970290
  99.2630300  39.6980550 126.1913550 111.7007730  47.4237850 133.5170300
 111.8255150  48.2469020 133.9894110 112.5673290  47.2128580 133.1694450
  99.1725260  49.5169060 133.1887430  99.9087740  48.9684520 133.4596000
  99.5566180  50.3825070 133.0493420  96.0570740  45.5842630 129.0628940
  95.1310520  45.8263770 129.0534350  96.5227170  46.4116890 128.9413690
  98.1783540  48.7015130 142.3773010  98.9796270  49.0227180 142.7908410
  97.6635360  48.3410710 143.0992920 102.2827570  48.6899370 125.0113000
 103.0756180  48.9788200 124.5594790 101.7631920  48.2591540 124.3325480
 107.0148170  44.8095000 142.3248420 106.4086330  44.8326600 141.5844170
 106.7102280  44.0778040 142.8615670 108.4448540  48.5375290 140.9357830
 109.3970290  48.4533310 140.8858070 108.2976760  49.2017000 141.6091620
 111.3357740  47.9169500 126.4349740 111.0499250  47.5034640 125.6203920
 111.1377290  48.8457210 126.3150260  95.8981350  41.1888590 141.3209060
  96.4020370  40.6095870 141.8925290  95.1588770  41.4728820 141.8585430
 102.8004970  43.9102780 124.8755350 102.6955610  43.2955130 125.6016730
 102.6329190  43.3868670 124.0918360 102.9519290  42.5959580 140.8544580
 102.1864960  43.1644580 140.7699250 103.1335250  42.3035790 139.9612810
 106.0407700  42.9722810 125.4797340 105.4917800  43.4192110 126.1240080
 106.6626960  42.4672060 126.0035010 110.0942640  44.3264910 141.4119600
 110.8352110  44.6640670 140.9087060 109.3315320  44.4956970 140.8589370
  97.9304430  39.3318180 142.2159130  97.9709770  39.0332050 143.1244360
  98.7849930  39.7325790 142.0566650 101.7082820  41.9313730 127.3762640
 102.1299240  41.7653600 128.2194030 101.8333660  41.1213960 126.8817780
  99.8710240  37.9110280 140.1833620  99.3406700  37.4201230 139.5556960
 100.5398310  38.3394480 139.6491550 104.2210460  40.9551340 124.6239740
 104.7416120  40.2400360 124.2580890 104.8678860  41.5937210 124.9240250
 108.7688300  42.3779740 139.9474810 109.1829320  42.5324820 140.7965230
 107.8339300  42.5034960 140.1100590 109.2410470  39.7175900 141.9513960
 109.8231240  38.9628220 141.8634440 109.4172240  40.2483340 141.1745440
 100.3582540  34.8772650 140.2630910 100.2639410  34.2593400 139.5381780
  99.7779930  35.6038940 140.0360820 103.1243980  33.4345890 137.2958300
 102.6761280  33.4570150 136.4503850 102.4909180  33.0364910 137.8928600
 103.5303530  42.3300220 137.9170740 103.9491640  43.1732950 137.7446980
 102.6112160  42.4672260 137.6877520 105.8667430  40.0616400 139.3008580
 105.9863640  39.4657540 140.0403420 106.7261430  40.0986090 138.8809880
 108.2055330  40.6153590 137.8771090 107.6790550  41.1396210 137.2736230
 108.5486670  41.2480980 138.5080820 100.6041720  38.0046960 124.3220800
 100.4030780  37.1414320 124.6834140 100.4333770  37.9180320 123.3842400
 101.3810950  48.6353230 139.0328470 100.8432040  49.3599290 138.7137170
 101.6344910  48.1583570 138.2425810 102.6336200  36.6037750 140.5584400
 103.2235890  36.2953600 141.2462220 101.8156440  36.1317500 140.7144300
 107.4529630  36.2203560 140.7917420 106.7645150  35.5585100 140.7267410
 108.1735650  35.7741830 141.2365880 108.0830030  32.8155190 126.8507680
 108.3632320  31.9723090 127.2067100 107.3095760  33.0478300 127.3646430
  99.4024520  35.1047580 124.3098680  99.7050420  35.1115010 123.4017830
 100.1419110  34.7545440 124.8066340 104.2373160  49.8704440 139.2915120
 104.1631860  50.7739580 139.5987490 103.3352000  49.5516340 139.2637190
 102.6209450  34.0482200 125.2954880 102.2731450  33.3706190 124.7157330
 102.8222220  33.5871710 126.1098270 104.7858490  49.0362950 126.9141480
 105.6809280  49.3747920 126.9360240 104.8176120  48.3142360 126.2865760
  98.4254650  44.4090000 125.1428480  98.8629520  44.9519670 125.7986060
  98.9102380  43.5836950 125.1524820  95.6400450  47.1979030 132.5948740
  95.9703460  46.3300090 132.3627380  96.0691450  47.4037550 133.4253700
 100.2362370  45.5288040 130.2550710  99.9357910  45.4053010 131.1554620
 100.1299860  44.6696630 129.8466440  96.1290660  48.0649620 135.3330370
  95.6921650  48.2450420 136.1654520  96.6968340  48.8224240 135.1912090
 111.7652840  47.5666620 139.6207680 111.1654830  47.6259180 138.8771600
 111.8946740  46.6271600 139.7504530 113.0054290  45.3084440 124.9577390
 112.1747250  45.3761090 125.4284620 113.1826120  46.1988560 124.6544250
 112.4610750  42.0531920 127.4611590 113.2229660  42.6228570 127.5671280
 112.4765120  41.4859120 128.2319900  95.9615090  40.5769850 131.6919250
  95.3063930  40.3081490 131.0478950  96.7993040  40.4674330 131.2421230
 113.4670720  42.9082020 132.3053520 113.8379550  42.1249340 131.8989490
 114.1072650  43.5971120 132.1270820 110.4504480  44.2918600 137.7183840
 109.6364320  44.7215760 137.9809630 110.8578680  44.9037010 137.1052890
 112.5129920  42.3466290 124.6184110 112.7878760  43.2545170 124.4903330
 112.3240660  42.2828820 125.5546100 108.9105530  35.3711140 125.9137740
 109.3290410  35.1842120 125.0734400 108.6041590  34.5190190 126.2240670
 112.4095260  40.2835280 129.6113540 112.0338860  39.5163210 129.1794830
 111.6798380  40.6657980 130.0988470  96.9991020  40.9622420 136.2322590
  97.3664060  40.8749820 137.1118610  96.4301840  40.1988970 136.1329450
 111.7994880  39.4306800 139.2453060 111.5680970  39.2019550 138.3451010
 112.0599430  40.3506350 139.1997950  96.5507020  37.8731510 140.1381010
  95.6563070  37.8398270 140.4774720  97.0904570  38.0718300 140.9032260
 110.2382950  34.6563230 142.0232760 111.1153130  34.6646630 142.4066760
 110.2503790  33.9194070 141.4125110  95.1753170  37.7868780 127.6344580
  94.2717250  38.0498980 127.4596240  95.6593790  38.0579950 126.8544540
 111.6846220  38.5092770 132.9120780 112.2083700  38.0155420 132.2810950
 112.2705640  38.6443130 133.6568350 111.8635940  38.5932640 136.4340330
 110.9138650  38.5596180 136.5485320 112.0448950  39.5032750 136.1990100
  97.7180380  36.8434320 125.5438960  98.4272080  36.4217540 125.0586240
  97.0020320  36.9109550 124.9122310  97.3654540  32.8973650 124.5841610
  98.0882670  33.4382590 124.9022830  97.6379060  32.6237070 123.7083150
 111.1746190  37.7666120 128.8513190 111.6705310  37.5336990 129.6362070
 110.9762260  36.9277960 128.4350830  97.0546730  32.1479840 134.4864230
  97.7022920  31.5977220 134.0459390  97.4748570  32.4022990 135.3080040
 112.6033350  36.4027070 131.3850870 112.4932630  36.2483110 132.3233140
 113.3640940  35.8748010 131.1426280 110.9499070  32.3421200 137.8433870
 111.5871290  32.9555340 138.2093060 111.0973960  32.3781860 136.8983100
 113.4923620  34.2334990 124.6257010 114.4172930  34.1016170 124.4175300
 113.4699410  34.3127810 125.5793460 113.5662110  35.0045650 127.2513720
 112.7713610  34.9390770 127.7806630 113.7705390  35.9396290 127.2399070
 110.5080530  49.0437200 131.2452110 111.1039600  48.7221770 130.5686530
 110.7658680  48.5709020 132.0365380  96.8078730  32.3035510 137.2289550
  96.4593550  32.7599330 137.9947730  96.4766430  31.4092640 137.3111980
  98.4143100  45.4755110 141.3942740  98.3712730  45.1048020 142.2757200
  98.5454110  46.4132680 141.5344560 102.1149130  47.0314700 136.9952460
 101.8740490  47.2989260 136.1082980 103.0551770  47.2020430 137.0503320
 104.3203550  33.4947390 140.7508970 104.2592440  34.0869220 141.5004380
 105.2603930  33.3873350 140.6059230 106.9578110  33.1517450 140.3901260
 107.5718520  33.4696740 139.7282340 107.5027670  32.6666040 141.0097120
 113.3753290  49.0509080 137.7963100 112.8811570  49.4477950 137.0790230
 112.7666580  48.4258290 138.1900380  97.4799370  31.8311710 140.5040320
  98.0282360  31.6499760 139.7406430  97.5454680  31.0405820 141.0396630
  98.2531130  48.4217360 138.5140520  97.6591450  48.2902060 139.2530560
  98.2454970  47.5855500 138.0482620 107.6986150  31.7149590 136.7170550
 106.8245990  32.0484700 136.5143480 107.5896900  31.2422770 137.5422420
 108.6058130  33.9220460 138.1012270 108.2771490  33.1072220 137.7214000
 109.5540430  33.8790270 137.9777960 111.0592740  49.6932500 135.0749840
 110.5995710  50.4448310 134.7007860 110.4305200  48.9738970 135.0164640
  97.8843360  45.7875740 137.4648560  97.1577420  45.1681030 137.3974510
  97.9452510  46.1816350 136.5946640 101.4888460  48.0020740 134.2497970
 102.0053480  47.3908100 133.7246230 102.1385840  48.5049520 134.7408980
 104.2283960  48.8929230 135.0766950 104.5161770  48.6383530 134.1999960
 104.7407180  48.3406590 135.6672520 105.4460970  32.6319430 135.6563460
 104.6632760  33.1064930 135.9360220 105.1523900  31.7274260 135.5476640
 109.9982040  33.3342530 133.7012550 110.4390130  33.2787630 132.8534150
 109.7289630  34.2500540 133.7722730 111.8620610  32.9657770 131.7121370
 111.8009010  32.0218990 131.5652390 112.6412640  33.0737860 132.2574830
  96.1673360  49.1050130 130.6745320  95.9995400  48.4720810 131.3727210
  95.3007870  49.3109530 130.3239510  96.7901380  32.9366910 128.1777180
  97.5480740  33.0495790 127.6041210  96.3278550  33.7736110 128.1320610
 103.3315190  35.0506180 131.1679490 102.5189700  34.6763070 130.8275370
 103.8356830  34.2951260 131.4700680 107.8340170  31.7148630 132.4062560
 108.4369540  32.2868840 132.8811080 107.0933160  32.2788070 132.1836460
 110.9774770  32.1170190 127.6802840 111.1725400  33.0153640 127.9470270
 110.1904640  31.8857270 128.1735790  97.7736060  47.7983360 128.1195460
  97.2483680  48.1791390 127.4157420  97.6980640  48.4234130 128.8405170
  99.1626530  33.4630960 126.7179150  99.6919290  32.6760760 126.5887100
  99.7954850  34.1422150 126.9514680 101.3564370  33.2006100 129.7724540
 100.7267110  32.4993410 129.9394670 100.8169510  33.9610230 129.5557700
 104.2956320  49.8145330 142.4435150 105.2223630  49.5789600 142.4871110
 104.2806750  50.6417330 141.9621180 112.5301380  49.3570900 129.4409400
 112.7053570  48.6708640 128.7970320 111.8322950  49.8817950 129.0486070
 101.4819930  32.4790080 142.2077030 101.2004200  32.9823680 141.4437850
 101.8639630  31.6811830 141.8419160 100.3729030  49.7465740 126.9944710
 101.1047850  49.4625020 126.4468600 100.6322700  49.5079020 127.8844090
  99.5343820  45.8630470 126.9991040  98.9052700  46.3315570 127.5476870
  99.6491650  45.0179690 127.4337230 108.0835390  31.8943660 142.7857500
 107.9700840  32.2138270 143.6809020 108.9005130  32.2956170 142.4894780
 110.8633880  49.0415190 142.2676190 111.6559200  48.5464420 142.0602150
 111.1567030  49.7205330 142.8751800  99.1377410  42.0034960 115.9077270
  98.3062290  41.7483670 116.3073780  99.7458390  42.0745730 116.6435190
 109.1419010  46.0975340 113.8100640 108.6800540  45.3262580 114.1387810
 109.9544560  46.1241410 114.3153090  99.1178670  46.0375050 116.1035290
  99.4206710  45.1472790 115.9245510  99.8622260  46.5945270 115.8757540
 104.5620570  44.3672340 115.0371670 104.4928850  43.4262280 114.8760800
 105.3240430  44.4573750 115.6094240  96.7527240  34.9726860 117.3628290
  96.5730080  34.0752610 117.6431050  96.3507320  35.5198730 118.0375240
 105.5925740  37.1742720 115.2640600 105.9690560  36.3014600 115.1514270
 105.4945250  37.5101420 114.3731040  97.3713910  37.4687360 115.9710630
  98.0524020  37.7325730 116.5898030  97.0561960  36.6288230 116.3048640
 101.5638480  38.5154720 115.0583220 102.0716700  39.0135690 115.6988240
 102.0951720  37.7389920 114.8822580 113.6649410  36.6859910 118.7612570
 112.9601580  37.0741620 118.2427680 113.9307330  37.3810200 119.3633500
  99.8474580  33.1553280 119.3246640  99.8493020  33.6725670 118.5192540
  99.0178890  32.6783460 119.3016570 106.2345670  43.2672590 110.8236540
 105.6162940  43.7322040 110.2599260 106.7468920  43.9600070 111.2406050
 101.0977430  42.7948460 117.5020140 100.7646810  43.4217380 118.1441210
 101.2744110  43.3210340 116.7221810  99.5289910  34.8663240 117.3317090
  99.8706720  35.7105290 117.0370960  98.5905720  35.0146980 117.4482430
 100.3096530  44.7629260 119.3169320 100.9270530  45.4380340 119.0353770
  99.4489650  45.1717240 119.2256820 111.2274120  46.2268670 117.2323960
 110.5437640  46.8967780 117.2240630 111.7668410  46.4249320 116.4668820
 112.6798260  36.0548330 115.3605690 111.7323170  36.0887310 115.4921120
 113.0048250  36.8687280 115.7455050 110.0578280  44.7929020 111.0359310
 109.9474610  43.8503350 111.1608730 110.0546530  45.1544660 111.9222070
 105.5998560  40.4194340 110.3921800 104.6727840  40.3531720 110.6210270
 105.7523380  41.3574470 110.2777040 109.6295850  41.9814640 110.8957050
 109.0108270  41.6434190 110.2483350 109.6120300  41.3374400 111.6036240
 101.2055200  40.9459080 113.1741530 100.8012200  40.2336330 112.6787430
 101.2918320  40.6012320 114.0629570 101.6736900  44.6326640 115.3380740
 101.3765190  44.0272110 114.6588520 102.6236720  44.6703950 115.2270100
  99.9183820  37.7202290 116.9540570 100.4698410  37.8297630 116.1793820
 100.4327330  38.0939890 117.6695800 109.7622510  48.2058510 119.0003840
 109.2853070  49.0130700 118.8076450 109.0784300  47.5536840 119.1530050
 100.7655330  44.3708330 121.9888540  99.8683860  44.5948300 122.2361940
 100.7908200  44.4943270 121.0399940 107.8060550  41.2201450 107.9029800
 108.2453830  40.3823880 107.7567620 108.5188970  41.8530850 107.9893940
  99.5926550  41.2421650 120.5645910  99.4534320  42.1144450 120.9333310
  98.7107910  40.8994460 120.4193850 105.9155930  46.1597520 111.8711040
 106.3551840  46.9021850 111.4566430 105.8542820  46.4024090 112.7950000
 101.3906900  47.1843350 122.7731060 101.3622330  47.5886300 121.9059490
 101.2271870  46.2553710 122.6102660 111.3877690  32.4744260 106.2170840
 111.0750350  32.5671090 107.1169910 112.1490160  33.0525290 106.1668270
  97.9059830  39.8404060 110.6748180  97.7857430  40.5666150 110.0629450
  97.5960720  39.0706970 110.1976090 113.3421720  47.9670450 124.0695230
 113.8181440  48.4453340 124.7484310 113.9628880  47.8987940 123.3440730
 112.7454970  45.1583300 121.2295240 112.8718030  44.9195180 120.3112420
 112.7876350  44.3267840 121.7017320 106.6071710  48.8611300 119.7990050
 107.1216380  48.7719310 120.6012480 105.7640790  49.2071000 120.0917960
 108.5826110  49.1466640 109.2274050 108.4227250  48.8569580 110.1255880
 108.4172820  48.3706770 108.6919280 108.2852240  46.6554200 107.7872050
 107.5917400  46.6531490 107.1274330 109.0275100  46.2313520 107.3566220
 107.8502170  48.2816910 111.8620540 108.3059120  47.5006290 112.1759160
 108.1894690  48.9923730 112.4061720 112.5978980  37.2115760 122.1944980
 111.9823250  37.7195430 121.6660440 112.2775400  36.3114090 122.1370920
 100.3723490  33.1839130 114.0571850  99.9291640  33.9648670 113.7256370
 100.9308480  33.5069020 114.7642790 104.6593300  36.0507650 119.6607170
 104.1972670  36.2590670 120.4727110 104.2571410  35.2367000 119.3577840
 109.6597810  37.2716600 120.7903830 108.8091400  36.9722350 121.1112900
 109.4999600  37.5158610 119.8787650 106.7547520  38.7718350 122.8902620
 107.0800930  37.9382100 122.5504850 107.5427850  39.2946870 123.0380950
 103.4882310  32.8049830 108.9377680 102.8636490  32.8009700 109.6630990
 103.4012430  31.9380790 108.5413650 100.1637710  38.3072700 111.7853100
  99.9378630  38.0909870 112.6899720  99.3830240  38.7401160 111.4399070
 102.6036920  39.2058280 122.4513370 102.5080520  38.2653010 122.3013770
 103.4468900  39.4273350 122.0561440 106.0000340  36.9499610 112.4147030
 106.3929910  37.2671810 111.6015720 106.3617190  36.0711490 112.5291550
  97.7347460  35.6171950 120.6047150  97.3410850  36.4647160 120.8119930
  97.0465860  34.9798320 120.7955790 104.3092510  35.7006920 123.6743890
 103.6190830  35.5079120 124.3089980 105.0524810  35.9841560 124.2068190
  98.8735250  36.0986050 113.8744510  98.5335300  36.5761280 114.6311560
  98.1112570  35.6451170 113.5145610 103.0853020  37.2171640 107.9057060
 103.2065840  37.1758120 108.8542880 102.7001530  38.0795790 107.7503790
 107.0481390  34.9939040 115.9220750 107.0654130  35.4447690 116.7662600
 106.7996970  34.0944680 116.1354190 102.0974520  39.5272780 107.3040360
 101.5291420  39.0791030 106.6776270 102.8063520  39.8865560 106.7705510
 110.4752140  32.4071220 121.7607130 110.7997910  31.6760880 122.2865110
 110.5108650  32.0884860 120.8588120  97.1743700  43.4284800 121.1807090
  96.7898490  42.7878470 121.7790050  97.4855890  44.1320920 121.7501820
 103.3240840  40.2761340 116.6615710 103.6910970  39.8019910 117.4077050
 103.1345900  41.1502910 117.0024050 101.1140210  39.3169980 118.9799920
 100.8097280  40.1961960 119.2050280 102.0686670  39.3769770 119.0157360
  99.6422000  43.5230970 109.5766770  98.8684260  42.9828590 109.4165490
 100.3716630  43.0037580 109.2384530 105.7828780  42.5905390 121.2562160
 105.7166090  41.6701060 121.0019750 105.1533920  42.6880830 121.9706800
  99.6859400  43.1911350 113.2145580 100.2038070  42.3879610 113.1602470
  99.2343420  43.1290490 114.0562410  97.1703940  40.1572720 120.1271280
  96.8118880  40.8226570 120.7144620  96.8758500  39.3256270 120.4983900
 100.3717060  40.6156960 123.0110830 100.0717200  40.7614140 122.1138650
 101.1428300  40.0562250 122.9184220 105.7145510  45.4125960 121.0065960
 105.7290050  44.4806920 120.7884870 105.0070610  45.4985720 121.6455730
 111.9256720  42.0533300 120.3534540 111.2004910  42.6462080 120.1563930
 112.4532180  42.0456840 119.5547910 111.8769830  46.4508040 110.0046700
 111.2345990  45.7963660 110.2790420 111.4900490  46.8563130 109.2287370
 107.4556310  43.7793470 113.8518390 107.8080130  43.1821600 113.1919760
 106.5718640  43.4537700 114.0226640 103.5419590  44.5391160 111.2588800
 104.2290720  45.0860370 111.6396390 102.7552010  45.0831890 111.2938410
  95.6811990  40.1563980 106.7505880  96.5506840  40.4388780 107.0341800
  95.1902310  40.9699850 106.6354690 102.8446800  41.5437190 110.8714160
 103.3009580  42.3542440 111.0974350 102.4935010  41.2260330 111.7032650
 105.1479410  47.0543530 118.1006460 105.7921630  47.2602910 118.7779880
 105.5108850  46.2931930 117.6477310 108.1949110  45.8570780 120.0219970
 108.5305350  46.4437470 120.6997890 107.2749450  45.7263490 120.2517760
  95.7452510  33.6465960 120.8043380  95.0311030  33.8462880 121.4095990
  96.1647550  32.8705530 121.1758180 109.8483460  43.2596440 108.2037210
 109.5605160  43.7209130 108.9915090 110.6435630  42.7994210 108.4721430
  96.0325100  47.6346220 121.7909910  96.1416220  46.6940960 121.6505300
  95.3805660  47.9000970 121.1423640 104.0237690  45.9062110 123.1908030
 103.7034560  45.1871350 123.7353720 103.3496050  46.5817180 123.2644090
 107.2391290  36.1388270 118.5544830 107.6072110  35.3183480 118.8824400
 106.3789490  36.1990160 118.9700480 102.5737350  37.3731160 110.7790270
 101.8653500  37.8417500 111.2203880 102.8581830  36.7153170 111.4135460
 104.1993280  38.7927860 118.7782800 104.6978530  39.2673680 119.4434650
 104.3416230  37.8691380 118.9852830 111.4060140  35.0095820 119.6211190
 110.9033740  35.7501220 119.9605000 112.2216800  35.3979820 119.3047980
  98.3710550  39.3673670 107.3109400  98.4514140  38.4201180 107.4226800
  99.2630300  39.6980550 107.4170060 111.7007730  47.4237850 114.7426810
 111.8255150  48.2469020 115.2150620 112.5673290  47.2128580 114.3950960
  99.1725260  49.5169060 114.4143940  99.9087740  48.9684520 114.6852510
  99.5566180  50.3825070 114.2749930  98.1783540  48.7015130 123.6029520
  98.9796270  49.0227180 124.0164920  97.6635360  48.3410710 124.3249430
 107.0148170  44.8095000 123.5504930 106.4086330  44.8326600 122.8100680
 106.7102280  44.0778040 124.0872180 108.4448540  48.5375290 122.1614340
 109.3970290  48.4533310 122.1114580 108.2976760  49.2017000 122.8348130
 111.3357740  47.9169500 107.6606250 111.0499250  47.5034640 106.8460430
 111.1377290  48.8457210 107.5406770  95.8981350  41.1888590 122.5465570
  96.4020370  40.6095870 123.1181800  95.1588770  41.4728820 123.0841940
 102.8004970  43.9102780 106.1011860 102.6955610  43.2955130 106.8273240
 102.6329190  43.3868670 105.3174870 102.9519290  42.5959580 122.0801090
 102.1864960  43.1644580 121.9955760 103.1335250  42.3035790 121.1869320
 106.0407700  42.9722810 106.7053850 105.4917800  43.4192110 107.3496590
 106.6626960  42.4672060 107.2291520 110.0942640  44.3264910 122.6376110
 110.8352110  44.6640670 122.1343570 109.3315320  44.4956970 122.0845880
  97.9304430  39.3318180 123.4415640  97.9709770  39.0332050 124.3500870
  98.7849930  39.7325790 123.2823160 101.7082820  41.9313730 108.6019150
 102.1299240  41.7653600 109.4450540 101.8333660  41.1213960 108.1074290
  99.8710240  37.9110280 121.4090130  99.3406700  37.4201230 120.7813470
 100.5398310  38.3394480 120.8748060 104.2210460  40.9551340 105.8496250
 104.7416120  40.2400360 105.4837400 104.8678860  41.5937210 106.1496760
 109.2410470  39.7175900 123.1770470 109.8231240  38.9628220 123.0890950
 109.4172240  40.2483340 122.4001950 100.3582540  34.8772650 121.4887420
 100.2639410  34.2593400 120.7638290  99.7779930  35.6038940 121.2617330
 103.1243980  33.4345890 118.5214810 102.6761280  33.4570150 117.6760360
 102.4909180  33.0364910 119.1185110 103.5303530  42.3300220 119.1427250
 103.9491640  43.1732950 118.9703490 102.6112160  42.4672260 118.9134030
 100.6041720  38.0046960 105.5477310 100.4030780  37.1414320 105.9090650
 100.4333770  37.9180320 104.6098910 101.3810950  48.6353230 120.2584980
 100.8432040  49.3599290 119.9393680 101.6344910  48.1583570 119.4682320
 102.6336200  36.6037750 121.7840910 103.2235890  36.2953600 122.4718730
 101.8156440  36.1317500 121.9400810 107.4529630  36.2203560 122.0173930
 106.7645150  35.5585100 121.9523920 108.1735650  35.7741830 122.4622390
 104.2373160  49.8704440 120.5171630 104.1631860  50.7739580 120.8244000
 103.3352000  49.5516340 120.4893700 102.6209450  34.0482200 106.5211390
 102.2731450  33.3706190 105.9413840 102.8222220  33.5871710 107.3354780
  95.6400450  47.1979030 113.8205250  95.9703460  46.3300090 113.5883890
  96.0691450  47.4037550 114.6510210 111.7652840  47.5666620 120.8464190
 111.1654830  47.6259180 120.1028110 111.8946740  46.6271600 120.9761040
 112.4610750  42.0531920 108.6868100 113.2229660  42.6228570 108.7927790
 112.4765120  41.4859120 109.4576410 113.4670720  42.9082020 113.5310030
 113.8379550  42.1249340 113.1246000 114.1072650  43.5971120 113.3527330
 110.4504480  44.2918600 118.9440350 109.6364320  44.7215760 119.2066140
 110.8578680  44.9037010 118.3309400 112.4095260  40.2835280 110.8370050
 112.0338860  39.5163210 110.4051340 111.6798380  40.6657980 111.3244980
  96.9991020  40.9622420 117.4579100  97.3664060  40.8749820 118.3375120
  96.4301840  40.1988970 117.3585960  96.5507020  37.8731510 121.3637520
  95.6563070  37.8398270 121.7031230  97.0904570  38.0718300 122.1288770
 110.2382950  34.6563230 123.2489270 111.1153130  34.6646630 123.6323270
 110.2503790  33.9194070 122.6381620  95.1753170  37.7868780 108.8601090
  94.2717250  38.0498980 108.6852750  95.6593790  38.0579950 108.0801050
  97.7180380  36.8434320 106.7695470  98.4272080  36.4217540 106.2842750
  97.0020320  36.9109550 106.1378820  97.0546730  32.1479840 115.7120740
  97.7022920  31.5977220 115.2715900  97.4748570  32.4022990 116.5336550
 112.6033350  36.4027070 112.6107380 112.4932630  36.2483110 113.5489650
 113.3640940  35.8748010 112.3682790 110.9499070  32.3421200 119.0690380
 111.5871290  32.9555340 119.4349570 111.0973960  32.3781860 118.1239610
 113.4923620  34.2334990 105.8513520 114.4172930  34.1016170 105.6431810
 113.4699410  34.3127810 106.8049970 113.5662110  35.0045650 108.4770230
 112.7713610  34.9390770 109.0063140 113.7705390  35.9396290 108.4655580
 110.5080530  49.0437200 112.4708620 111.1039600  48.7221770 111.7943040
 110.7658680  48.5709020 113.2621890  96.8078730  32.3035510 118.4546060
  96.4593550  32.7599330 119.2204240  96.4766430  31.4092640 118.5368490
  98.4143100  45.4755110 122.6199250  98.3712730  45.1048020 123.5013710
  98.5454110  46.4132680 122.7601070 102.1149130  47.0314700 118.2208970
 101.8740490  47.2989260 117.3339490 103.0551770  47.2020430 118.2759830
 104.3203550  33.4947390 121.9765480 104.2592440  34.0869220 122.7260890
 105.2603930  33.3873350 121.8315740 106.9578110  33.1517450 121.6157770
 107.5718520  33.4696740 120.9538850 107.5027670  32.6666040 122.2353630
 113.3753290  49.0509080 119.0219610 112.8811570  49.4477950 118.3046740
 112.7666580  48.4258290 119.4156890  97.4799370  31.8311710 121.7296830
  98.0282360  31.6499760 120.9662940  97.5454680  31.0405820 122.2653140
 107.6986150  31.7149590 117.9427060 106.8245990  32.0484700 117.7399990
 107.5896900  31.2422770 118.7678930 108.6058130  33.9220460 119.3268780
 108.2771490  33.1072220 118.9470510 109.5540430  33.8790270 119.2034470
 101.4888460  48.0020740 115.4754480 102.0053480  47.3908100 114.9502740
 102.1385840  48.5049520 115.9665490 105.4460970  32.6319430 116.8819970
 104.6632760  33.1064930 117.1616730 105.1523900  31.7274260 116.7733150
 109.9982040  33.3342530 114.9269060 110.4390130  33.2787630 114.0790660
 109.7289630  34.2500540 114.9979240 111.8620610  32.9657770 112.9377880
 111.8009010  32.0218990 112.7908900 112.6412640  33.0737860 113.4831340
  96.1673360  49.1050130 111.9001830  95.9995400  48.4720810 112.5983720
  95.3007870  49.3109530 111.5496020 107.8340170  31.7148630 113.6319070
 108.4369540  32.2868840 114.1067590 107.0933160  32.2788070 113.4092970
 104.2956320  49.8145330 123.6691660 105.2223630  49.5789600 123.7127620
 104.2806750  50.6417330 123.1877690 112.5301380  49.3570900 110.6665910
 112.7053570  48.6708640 110.0226830 111.8322950  49.8817950 110.2742580
 101.4819930  32.4790080 123.4333540 101.2004200  32.9823680 122.6694360
 101.8639630  31.6811830 123.0675670 108.0835390  31.8943660 124.0114010
 107.9700840  32.2138270 124.9065530 108.9005130  32.2956170 123.7151290
 110.8633880  49.0415190 123.4932700 111.6559200  48.5464420 123.2858660
 111.1567030  49.7205330 124.1008310 106.9893540  39.9136130  94.3748750
 106.9087590  38.9990740  94.1040460 106.5757960  40.4103200  93.6688460
 105.1211580  41.6915150  96.2558020 104.3453680  41.2115590  96.5456590
 105.7724510  41.0120800  96.0814180  97.5469360  36.9636850  90.9176170
  96.6586060  37.3052820  90.8156050  97.8310550  36.7637170  90.0257000
  95.5102370  39.5642500  96.8015870  96.0818480  38.7964700  96.8019510
  95.5103910  39.8631260  95.8922480  96.7527240  34.9726860  98.5884800
  96.5730080  34.0752610  98.8687560  96.3507320  35.5198730  99.2631750
 105.5925740  37.1742720  96.4897110 105.9690560  36.3014600  96.3770780
 105.4945250  37.5101420  95.5987550  99.7230750  35.5468350  91.9514550
  99.8297500  36.4472080  92.2583310  98.8123110  35.4986320  91.6609200
  97.3713910  37.4687360  97.1967140  98.0524020  37.7325730  97.8154540
  97.0561960  36.6288230  97.5305150 101.5638480  38.5154720  96.2839730
 102.0716700  39.0135690  96.9244750 102.0951720  37.7389920  96.1079090
  99.5289910  34.8663240  98.5573600  99.8706720  35.7105290  98.2627470
  98.5905720  35.0146980  98.6738940 100.3096530  44.7629260 100.5425830
 100.9270530  45.4380340 100.2610280  99.4489650  45.1717240 100.4513330
  95.6028870  43.9529120  89.4232680  95.2256850  44.4416220  88.6917580
  95.8601940  44.6254400  90.0539210 111.2274120  46.2268670  98.4580470
 110.5437640  46.8967780  98.4497140 111.7668410  46.4249320  97.6925330
 103.2117800  32.3545510  94.8818190 103.5192780  31.7992400  94.1653690
 102.2818500  32.4889970  94.6991180 108.1618300  42.9742640  98.5008260
 108.5787090  42.7602750  97.6661720 108.8858120  43.2315430  99.0716880
 105.5998560  40.4194340  91.6178310 104.6727840  40.3531720  91.8466780
 105.7523380  41.3574470  91.5033550 112.1080400  41.3729860  98.5924500
 111.2799030  41.4422950  98.1174630 112.7030880  41.9584170  98.1240330
 101.2055200  40.9459080  94.3998040 100.8012200  40.2336330  93.9043940
 101.2918320  40.6012320  95.2886080  99.9183820  37.7202290  98.1797080
 100.4698410  37.8297630  97.4050330 100.4327330  38.0939890  98.8952310
 100.7655330  44.3708330 103.2145050  99.8683860  44.5948300 103.4618450
 100.7908200  44.4943270 102.2656450 107.8060550  41.2201450  89.1286310
 108.2453830  40.3823880  88.9824130 108.5188970  41.8530850  89.2150450
  99.5926550  41.2421650 101.7902420  99.4534320  42.1144450 102.1589820
  98.7107910  40.8994460 101.6450360 101.3906900  47.1843350 103.9987570
 101.3622330  47.5886300 103.1316000 101.2271870  46.2553710 103.8359170
 113.3421720  47.9670450 105.2951740 113.8181440  48.4453340 105.9740820
 113.9628880  47.8987940 104.5697240 101.0614490  48.9265170  92.2302180
 100.8856970  48.0100710  92.0169980 100.2070230  49.2852460  92.4699980
  95.6004720  44.0533370 100.2467790  95.7635760  43.5838730  99.4287160
  96.0657170  43.5456930 100.9116630 100.3723490  33.1839130  95.2828360
  99.9291640  33.9648670  94.9512880 100.9308480  33.5069020  95.9899300
 104.6593300  36.0507650 100.8863680 104.1972670  36.2590670 101.6983620
 104.2571410  35.2367000 100.5834350 106.7547520  38.7718350 104.1159130
 107.0800930  37.9382100 103.7761360 107.5427850  39.2946870 104.2637460
 102.4099390  33.7286460  97.1417960 102.7071720  34.6349290  97.0609980
 102.9584950  33.2405240  96.5277530 100.1637710  38.3072700  93.0109610
  99.9378630  38.0909870  93.9156230  99.3830240  38.7401160  92.6655580
 102.6036920  39.2058280 103.6769880 102.5080520  38.2653010 103.5270280
 103.4468900  39.4273350 103.2817950 104.3092510  35.7006920 104.9000400
 103.6190830  35.5079120 105.5346490 105.0524810  35.9841560 105.4324700
  95.0364510  33.5400410  95.8633740  94.7477560  34.1103270  96.5758720
  95.7810270  33.0604860  96.2264970  95.2234740  37.4820530  87.0736460
  95.1409410  38.4251290  87.2151450  94.8717800  37.3395440  86.1948810
 106.5855480  39.5405360  97.7354320 105.8536600  40.0492170  98.0844420
 106.1879820  38.7235340  97.4343100 103.0232870  36.2159560  96.1406810
 103.0268930  35.7749510  95.2911350 103.9183990  36.5376890  96.2478630
  98.8735250  36.0986050  95.1001020  98.5335300  36.5761280  95.8568070
  98.1112570  35.6451170  94.7402120 103.0853020  37.2171640  89.1313570
 103.2065840  37.1758120  90.0799390 102.7001530  38.0795790  88.9760300
 102.0974520  39.5272780  88.5296870 101.5291420  39.0791030  87.9032780
 102.8063520  39.8865560  87.9962020 110.4752140  32.4071220 102.9863640
 110.7997910  31.6760880 103.5121620 110.5108650  32.0884860 102.0844630
  97.1743700  43.4284800 102.4063600  96.7898490  42.7878470 103.0046560
  97.4855890  44.1320920 102.9758330 103.3240840  40.2761340  97.8872220
 103.6910970  39.8019910  98.6333560 103.1345900  41.1502910  98.2280560
  96.1881330  35.0205030  94.0165690  95.9028250  34.6560700  94.8544310
  96.1260190  34.2885490  93.4028830 101.1140210  39.3169980 100.2056430
 100.8097280  40.1961960 100.4306790 102.0686670  39.3769770 100.2413870
  99.6422000  43.5230970  90.8023280  98.8684260  42.9828590  90.6422000
 100.3716630  43.0037580  90.4641040 105.7828780  42.5905390 102.4818670
 105.7166090  41.6701060 102.2276260 105.1533920  42.6880830 103.1963310
 108.5768310  38.2853940  89.0341220 109.4647930  38.5971170  88.8592560
 108.5473400  37.4126190  88.6421800  97.1703940  40.1572720 101.3527790
  96.8118880  40.8226570 101.9401130  96.8758500  39.3256270 101.7240410
 100.3717060  40.6156960 104.2367340 100.0717200  40.7614140 103.3395160
 101.1428300  40.0562250 104.1440730 110.8482580  39.5965780  88.5021080
 110.7646300  40.0280000  87.6517520 111.5676770  40.0564130  88.9347900
  95.6811990  40.1563980  87.9762390  96.5506840  40.4388780  88.2598310
  95.1902310  40.9699850  87.8611200 102.8446800  41.5437190  92.0970670
 103.3009580  42.3542440  92.3230860 102.4935010  41.2260330  92.9289160
  98.7458580  31.8874840  92.5693190  98.6173210  31.8792740  93.5178110
  97.9220600  32.2257930  92.2184200  96.0483240  49.3691360  88.5424020
  96.4080880  49.9680700  87.8881290  95.9075580  49.9151250  89.3159050
  95.7452510  33.6465960 102.0299890  95.0311030  33.8462880 102.6352500
  96.1647550  32.8705530 102.4014690  96.0325100  47.6346220 103.0166420
  96.1416220  46.6940960 102.8761810  95.3805660  47.9000970 102.3680150
 107.2391290  36.1388270  99.7801340 107.6072110  35.3183480 100.1080910
 106.3789490  36.1990160 100.1956990 104.1993280  38.7927860 100.0039310
 104.6978530  39.2673680 100.6691160 104.3416230  37.8691380 100.2109340
 100.7772370  35.6816240  89.3797490 101.6262900  36.1186390  89.3137680
 100.4103640  35.9936500  90.2069550 111.4060140  35.0095820 100.8467700
 110.9033740  35.7501220 101.1861510 112.2216800  35.3979820 100.5304490
  99.1725260  49.5169060  95.6400450  99.9087740  48.9684520  95.9109020
  99.5566180  50.3825070  95.5006440  96.0570740  45.5842630  91.5141960
  95.1310520  45.8263770  91.5047370  96.5227170  46.4116890  91.3926710
  98.1783540  48.7015130 104.8286030  98.9796270  49.0227180 105.2421430
  97.6635360  48.3410710 105.5505940 107.0148170  44.8095000 104.7761440
 106.4086330  44.8326600 104.0357190 106.7102280  44.0778040 105.3128690
  95.8981350  41.1888590 103.7722080  96.4020370  40.6095870 104.3438310
  95.1588770  41.4728820 104.3098450 102.9519290  42.5959580 103.3057600
 102.1864960  43.1644580 103.2212270 103.1335250  42.3035790 102.4125830
 106.0407700  42.9722810  87.9310360 105.4917800  43.4192110  88.5753100
 106.6626960  42.4672060  88.4548030  97.9304430  39.3318180 104.6672150
  97.9709770  39.0332050 105.5757380  98.7849930  39.7325790 104.5079670
 101.7082820  41.9313730  89.8275660 102.1299240  41.7653600  90.6707050
 101.8333660  41.1213960  89.3330800  99.8710240  37.9110280 102.6346640
  99.3406700  37.4201230 102.0069980 100.5398310  38.3394480 102.1004570
 104.2210460  40.9551340  87.0752760 104.7416120  40.2400360  86.7093910
 104.8678860  41.5937210  87.3753270 108.7688300  42.3779740 102.3987830
 109.1829320  42.5324820 103.2478250 107.8339300  42.5034960 102.5613610
 109.2410470  39.7175900 104.4026980 109.8231240  38.9628220 104.3147460
 109.4172240  40.2483340 103.6258460 103.5303530  42.3300220 100.3683760
 103.9491640  43.1732950 100.1960000 102.6112160  42.4672260 100.1390540
 100.6041720  38.0046960  86.7733820 100.4030780  37.1414320  87.1347160
 100.4333770  37.9180320  85.8355420 101.3810950  48.6353230 101.4841490
 100.8432040  49.3599290 101.1650190 101.6344910  48.1583570 100.6938830
 107.4529630  36.2203560 103.2430440 106.7645150  35.5585100 103.1780430
 108.1735650  35.7741830 103.6878900 108.0830030  32.8155190  89.3020700
 108.3632320  31.9723090  89.6580120 107.3095760  33.0478300  89.8159450
  99.4024520  35.1047580  86.7611700  99.7050420  35.1115010  85.8530850
 100.1419110  34.7545440  87.2579360 104.2373160  49.8704440 101.7428140
 104.1631860  50.7739580 102.0500510 103.3352000  49.5516340 101.7150210
 102.6209450  34.0482200  87.7467900 102.2731450  33.3706190  87.1670350
 102.8222220  33.5871710  88.5611290 100.2362370  45.5288040  92.7063730
  99.9357910  45.4053010  93.6067640 100.1299860  44.6696630  92.2979460
  95.9615090  40.5769850  94.1432270  95.3063930  40.3081490  93.4991970
  96.7993040  40.4674330  93.6934250  96.9991020  40.9622420  98.6835610
  97.3664060  40.8749820  99.5631630  96.4301840  40.1988970  98.5842470
  96.5507020  37.8731510 102.5894030  95.6563070  37.8398270 102.9287740
  97.0904570  38.0718300 103.3545280  95.1753170  37.7868780  90.0857600
  94.2717250  38.0498980  89.9109260  95.6593790  38.0579950  89.3057560
 111.6846220  38.5092770  95.3633800 112.2083700  38.0155420  94.7323970
 112.2705640  38.6443130  96.1081370 111.8635940  38.5932640  98.8853350
 110.9138650  38.5596180  98.9998340 112.0448950  39.5032750  98.6503120
  97.7180380  36.8434320  87.9951980  98.4272080  36.4217540  87.5099260
  97.0020320  36.9109550  87.3635330  97.3654540  32.8973650  87.0354630
  98.0882670  33.4382590  87.3535850  97.6379060  32.6237070  86.1596170
 111.1746190  37.7666120  91.3026210 111.6705310  37.5336990  92.0875090
 110.9762260  36.9277960  90.8863850  97.0546730  32.1479840  96.9377250
  97.7022920  31.5977220  96.4972410  97.4748570  32.4022990  97.7593060
 112.6033350  36.4027070  93.8363890 112.4932630  36.2483110  94.7746160
 113.3640940  35.8748010  93.5939300 113.4923620  34.2334990  87.0770030
 114.4172930  34.1016170  86.8688320 113.4699410  34.3127810  88.0306480
  96.8078730  32.3035510  99.6802570  96.4593550  32.7599330 100.4460750
  96.4766430  31.4092640  99.7625000 102.1149130  47.0314700  99.4465480
 101.8740490  47.2989260  98.5596000 103.0551770  47.2020430  99.5016340
 106.9578110  33.1517450 102.8414280 107.5718520  33.4696740 102.1795360
 107.5027670  32.6666040 103.4610140 113.3753290  49.0509080 100.2476120
 112.8811570  49.4477950  99.5303250 112.7666580  48.4258290 100.6413400
  98.2531130  48.4217360 100.9653540  97.6591450  48.2902060 101.7043580
  98.2454970  47.5855500 100.4995640 108.6058130  33.9220460 100.5525290
 108.2771490  33.1072220 100.1727020 109.5540430  33.8790270 100.4290980
 111.0592740  49.6932500  97.5262860 110.5995710  50.4448310  97.1520880
 110.4305200  48.9738970  97.4677660  97.8843360  45.7875740  99.9161580
  97.1577420  45.1681030  99.8487530  97.9452510  46.1816350  99.0459660
 101.4888460  48.0020740  96.7010990 102.0053480  47.3908100  96.1759250
 102.1385840  48.5049520  97.1922000  96.7901380  32.9366910  90.6290200
  97.5480740  33.0495790  90.0554230  96.3278550  33.7736110  90.5833630
  97.7736060  47.7983360  90.5708480  97.2483680  48.1791390  89.8670440
  97.6980640  48.4234130  91.2918190  99.1626530  33.4630960  89.1692170
  99.6919290  32.6760760  89.0400120  99.7954850  34.1422150  89.4027700
 101.3564370  33.2006100  92.2237560 100.7267110  32.4993410  92.3907690
 100.8169510  33.9610230  92.0070720 112.5301380  49.3570900  91.8922420
 112.7053570  48.6708640  91.2483340 111.8322950  49.8817950  91.4999090
 100.3729030  49.7465740  89.4457730 101.1047850  49.4625020  88.8981620
 100.6322700  49.5079020  90.3357110 106.9893540  39.9136130  75.6005260
 106.9087590  38.9990740  75.3296970 106.5757960  40.4103200  74.8944970
  99.1377410  42.0034960  78.3590290  98.3062290  41.7483670  78.7586800
  99.7458390  42.0745730  79.0948210 109.1419010  46.0975340  76.2613660
 108.6800540  45.3262580  76.5900830 109.9544560  46.1241410  76.7666110
  99.1178670  46.0375050  78.5548310  99.4206710  45.1472790  78.3758530
  99.8622260  46.5945270  78.3270560  97.5469360  36.9636850  72.1432680
  96.6586060  37.3052820  72.0412560  97.8310550  36.7637170  71.2513510
  95.5102370  39.5642500  78.0272380  96.0818480  38.7964700  78.0276020
  95.5103910  39.8631260  77.1178990 105.3682320  48.3833350  75.8817650
 104.7493760  48.8390850  75.3112090 106.2234100  48.5384810  75.4807350
 105.5925740  37.1742720  77.7153620 105.9690560  36.3014600  77.6027290
 105.4945250  37.5101420  76.8244060  99.7230750  35.5468350  73.1771060
  99.8297500  36.4472080  73.4839820  98.8123110  35.4986320  72.8865710
 109.3749860  34.6693160  74.6481960 110.1959480  34.1789730  74.6907440
 109.4083940  35.2590820  75.4013800 101.5638480  38.5154720  77.5096240
 102.0716700  39.0135690  78.1501260 102.0951720  37.7389920  77.3335600
 113.6649410  36.6859910  81.2125590 112.9601580  37.0741620  80.6940700
 113.9307330  37.3810200  81.8146520 106.2345670  43.2672590  73.2749560
 105.6162940  43.7322040  72.7112280 106.7468920  43.9600070  73.6919070
 101.0977430  42.7948460  79.9533160 100.7646810  43.4217380  80.5954230
 101.2744110  43.3210340  79.1734830  95.6028870  43.9529120  70.6489190
  95.2256850  44.4416220  69.9174090  95.8601940  44.6254400  71.2795720
 111.2274120  46.2268670  79.6836980 110.5437640  46.8967780  79.6753650
 111.7668410  46.4249320  78.9181840 112.6798260  36.0548330  77.8118710
 111.7323170  36.0887310  77.9434140 113.0048250  36.8687280  78.1968070
 108.7632860  48.0712800  78.3982160 108.7760020  47.6675090  77.5304420
 108.2108080  48.8460090  78.2943590 105.5998560  40.4194340  72.8434820
 104.6727840  40.3531720  73.0723290 105.7523380  41.3574470  72.7290060
 105.5867640  36.6911340  69.8401980 104.6471310  36.8525300  69.9254440
 105.9050900  37.4097020  69.2937970 109.6295850  41.9814640  73.3470070
 109.0108270  41.6434190  72.6996370 109.6120300  41.3374400  74.0549260
 101.2055200  40.9459080  75.6254550 100.8012200  40.2336330  75.1300450
 101.2918320  40.6012320  76.5142590 101.6736900  44.6326640  77.7893760
 101.3765190  44.0272110  77.1101540 102.6236720  44.6703950  77.6783120
 109.7622510  48.2058510  81.4516860 109.2853070  49.0130700  81.2589470
 109.0784300  47.5536840  81.6043070 107.8060550  41.2201450  70.3542820
 108.2453830  40.3823880  70.2080640 108.5188970  41.8530850  70.4406960
 105.9155930  46.1597520  74.3224060 106.3551840  46.9021850  73.9079450
 105.8542820  46.4024090  75.2463020 111.3877690  32.4744260  68.6683860
 111.0750350  32.5671090  69.5682930 112.1490160  33.0525290  68.6181290
  97.9059830  39.8404060  73.1261200  97.7857430  40.5666150  72.5142470
  97.5960720  39.0706970  72.6489110 113.3421720  47.9670450  86.5208250
 113.8181440  48.4453340  87.1997330 113.9628880  47.8987940  85.7953750
  95.5445200  43.0119200  78.9329840  95.6225620  43.1467970  77.9885560
  96.1586880  42.3035090  79.1257960  96.7892830  44.7119390  75.3436020
  96.3820910  44.8533980  74.4889620  97.6805840  44.4279550  75.1407230
 112.7454970  45.1583300  83.6808260 112.8718030  44.9195180  82.7625440
 112.7876350  44.3267840  84.1530340 108.5826110  49.1466640  71.6787070
 108.4227250  48.8569580  72.5768900 108.4172820  48.3706770  71.1432300
 101.0614490  48.9265170  73.4558690 100.8856970  48.0100710  73.2426490
 100.2070230  49.2852460  73.6956490 107.8502170  48.2816910  74.3133560
 108.3059120  47.5006290  74.6272180 108.1894690  48.9923730  74.8574740
  95.6004720  44.0533370  81.4724300  95.7635760  43.5838730  80.6543670
  96.0657170  43.5456930  82.1373140 103.4882310  32.8049830  71.3890700
 102.8636490  32.8009700  72.1144010 103.4012430  31.9380790  70.9926670
 100.1637710  38.3072700  74.2366120  99.9378630  38.0909870  75.1412740
  99.3830240  38.7401160  73.8912090 107.3935470  38.3136070  72.8356770
 106.7944360  39.0371870  72.6520390 107.9415080  38.2512850  72.0533220
 106.0000340  36.9499610  74.8660050 106.3929910  37.2671810  74.0528740
 106.3617190  36.0711490  74.9804570 104.3092510  35.7006920  86.1256910
 103.6190830  35.5079120  86.7603000 105.0524810  35.9841560  86.6581210
  95.0364510  33.5400410  77.0890250  94.7477560  34.1103270  77.8015230
  95.7810270  33.0604860  77.4521480 103.0232870  36.2159560  77.3663320
 103.0268930  35.7749510  76.5167860 103.9183990  36.5376890  77.4735140
 103.0853020  37.2171640  70.3570080 103.2065840  37.1758120  71.3055900
 102.7001530  38.0795790  70.2016810 102.0974520  39.5272780  69.7553380
 101.5291420  39.0791030  69.1289290 102.8063520  39.8865560  69.2218530
  97.1743700  43.4284800  83.6320110  96.7898490  42.7878470  84.2303070
  97.4855890  44.1320920  84.2014840  96.1881330  35.0205030  75.2422200
  95.9028250  34.6560700  76.0800820  96.1260190  34.2885490  74.6285340
  99.6422000  43.5230970  72.0279790  98.8684260  42.9828590  71.8678510
 100.3716630  43.0037580  71.6897550 105.8619920  33.9134290  71.9635570
 105.0484530  33.4147460  71.8880880 105.6681870  34.7532540  71.5471920
 108.5768310  38.2853940  70.2597730 109.4647930  38.5971170  70.0849070
 108.5473400  37.4126190  69.8678310  99.6859400  43.1911350  75.6658600
 100.2038070  42.3879610  75.6115490  99.2343420  43.1290490  76.5075430
 104.5728900  44.4577630  70.9385900 104.9144600  45.2019860  70.4429220
 103.7441610  44.7708750  71.3010730  97.1703940  40.1572720  82.5784300
  96.8118880  40.8226570  83.1657640  96.8758500  39.3256270  82.9496920
 110.8482580  39.5965780  69.7277590 110.7646300  40.0280000  68.8774030
 111.5676770  40.0564130  70.1604410 111.9256720  42.0533300  82.8047560
 111.2004910  42.6462080  82.6076950 112.4532180  42.0456840  82.0060930
 107.4556310  43.7793470  76.3031410 107.8080130  43.1821600  75.6432780
 106.5718640  43.4537700  76.4739660 103.5419590  44.5391160  73.7101820
 104.2290720  45.0860370  74.0909410 102.7552010  45.0831890  73.7451430
 102.8446800  41.5437190  73.3227180 103.3009580  42.3542440  73.5487370
 102.4935010  41.2260330  74.1545670  98.7458580  31.8874840  73.7949700
  98.6173210  31.8792740  74.7434620  97.9220600  32.2257930  73.4440710
  96.0325100  47.6346220  84.2422930  96.1416220  46.6940960  84.1018320
  95.3805660  47.9000970  83.5936660 102.0651860  46.7522560  70.5854200
 102.0561960  47.4852250  69.9698710 101.1450220  46.5054140  70.6781160
  97.6658500  41.9737450  71.3300960  97.0586450  42.7136350  71.3396260
  98.1407850  42.0636810  70.5039160 110.6053320  35.0945210  71.8145410
 109.9766480  35.1990880  71.1003640 110.1105240  35.3141990  72.6039290
 105.0511460  46.8150800  69.2479390 105.1523440  46.6114790  68.3181370
 104.1513200  46.5609080  69.4527170 102.5737350  37.3731160  73.2303290
 101.8653500  37.8417500  73.6716900 102.8581830  36.7153170  73.8648480
 106.6052780  34.0981820  74.6699080 106.4820560  34.1167950  73.7208590
 107.5537340  34.1460760  74.7897480 103.6929570  49.3337120  73.9427060
 103.9471070  49.2958510  73.0206430 102.7442050  49.2070450  73.9355310
 100.7772370  35.6816240  70.6054000 101.6262900  36.1186390  70.5394190
 100.4103640  35.9936500  71.4326060 109.6982150  40.2529000  75.5185570
 108.7572290  40.2679230  75.6933260 110.0126220  39.4664960  75.9645870
  99.6763790  41.9348600  69.0789530 100.4427060  41.8229960  69.6414960
  99.7538480  41.2386570  68.4266300  99.1725260  49.5169060  76.8656960
  99.9087740  48.9684520  77.1365530  99.5566180  50.3825070  76.7262950
  96.0570740  45.5842630  72.7398470  95.1310520  45.8263770  72.7303880
  96.5227170  46.4116890  72.6183220 102.2827570  48.6899370  68.6882530
 103.0756180  48.9788200  68.2364320 101.7631920  48.2591540  68.0095010
 108.4448540  48.5375290  84.6127360 109.3970290  48.4533310  84.5627600
 108.2976760  49.2017000  85.2861150 111.3357740  47.9169500  70.1119270
 111.0499250  47.5034640  69.2973450 111.1377290  48.8457210  69.9919790
  95.8981350  41.1888590  84.9978590  96.4020370  40.6095870  85.5694820
  95.1588770  41.4728820  85.5354960 102.8004970  43.9102780  68.5524880
 102.6955610  43.2955130  69.2786260 102.6329190  43.3868670  67.7687890
 106.0407700  42.9722810  69.1566870 105.4917800  43.4192110  69.8009610
 106.6626960  42.4672060  69.6804540 110.0942640  44.3264910  85.0889130
 110.8352110  44.6640670  84.5856590 109.3315320  44.4956970  84.5358900
  97.9304430  39.3318180  85.8928660  97.9709770  39.0332050  86.8013890
  98.7849930  39.7325790  85.7336180 101.7082820  41.9313730  71.0532170
 102.1299240  41.7653600  71.8963560 101.8333660  41.1213960  70.5587310
 104.2210460  40.9551340  68.3009270 104.7416120  40.2400360  67.9350420
 104.8678860  41.5937210  68.6009780 108.7688300  42.3779740  83.6244340
 109.1829320  42.5324820  84.4734760 107.8339300  42.5034960  83.7870120
 100.3582540  34.8772650  83.9400440 100.2639410  34.2593400  83.2151310
  99.7779930  35.6038940  83.7130350 108.0830030  32.8155190  70.5277210
 108.3632320  31.9723090  70.8836630 107.3095760  33.0478300  71.0415960
 102.6209450  34.0482200  68.9724410 102.2731450  33.3706190  68.3926860
 102.8222220  33.5871710  69.7867800 104.7858490  49.0362950  70.5911010
 105.6809280  49.3747920  70.6129770 104.8176120  48.3142360  69.9635290
  98.4254650  44.4090000  68.8198010  98.8629520  44.9519670  69.4755590
  98.9102380  43.5836950  68.8294350  95.6400450  47.1979030  76.2718270
  95.9703460  46.3300090  76.0396910  96.0691450  47.4037550  77.1023230
 100.2362370  45.5288040  73.9320240  99.9357910  45.4053010  74.8324150
 100.1299860  44.6696630  73.5235970  96.1290660  48.0649620  79.0099900
  95.6921650  48.2450420  79.8424050  96.6968340  48.8224240  78.8681620
 111.7652840  47.5666620  83.2977210 111.1654830  47.6259180  82.5541130
 111.8946740  46.6271600  83.4274060 113.0054290  45.3084440  68.6346920
 112.1747250  45.3761090  69.1054150 113.1826120  46.1988560  68.3313780
 112.4610750  42.0531920  71.1381120 113.2229660  42.6228570  71.2440810
 112.4765120  41.4859120  71.9089430  95.9615090  40.5769850  75.3688780
  95.3063930  40.3081490  74.7248480  96.7993040  40.4674330  74.9190760
 110.4504480  44.2918600  81.3953370 109.6364320  44.7215760  81.6579160
 110.8578680  44.9037010  80.7822420 112.5129920  42.3466290  68.2953640
 112.7878760  43.2545170  68.1672860 112.3240660  42.2828820  69.2315630
 108.9105530  35.3711140  69.5907270 109.3290410  35.1842120  68.7503930
 108.6041590  34.5190190  69.9010200 112.4095260  40.2835280  73.2883070
 112.0338860  39.5163210  72.8564360 111.6798380  40.6657980  73.7758000
  96.9991020  40.9622420  79.9092120  97.3664060  40.8749820  80.7888140
  96.4301840  40.1988970  79.8098980  96.5507020  37.8731510  83.8150540
  95.6563070  37.8398270  84.1544250  97.0904570  38.0718300  84.5801790
 111.6846220  38.5092770  76.5890310 112.2083700  38.0155420  75.9580480
 112.2705640  38.6443130  77.3337880 111.1746190  37.7666120  72.5282720
 111.6705310  37.5336990  73.3131600 110.9762260  36.9277960  72.1120360
  97.0546730  32.1479840  78.1633760  97.7022920  31.5977220  77.7228920
  97.4748570  32.4022990  78.9849570 112.6033350  36.4027070  75.0620400
 112.4932630  36.2483110  76.0002670 113.3640940  35.8748010  74.8195810
 113.4923620  34.2334990  68.3026540 114.4172930  34.1016170  68.0944830
 113.4699410  34.3127810  69.2562990 113.5662110  35.0045650  70.9283250
 112.7713610  34.9390770  71.4576160 113.7705390  35.9396290  70.9168600
 110.5080530  49.0437200  74.9221640 111.1039600  48.7221770  74.2456060
 110.7658680  48.5709020  75.7134910  96.8078730  32.3035510  80.9059080
  96.4593550  32.7599330  81.6717260  96.4766430  31.4092640  80.9881510
  97.4799370  31.8311710  84.1809850  98.0282360  31.6499760  83.4175960
  97.5454680  31.0405820  84.7166160 107.6986150  31.7149590  80.3940080
 106.8245990  32.0484700  80.1913010 107.5896900  31.2422770  81.2191950
 101.4888460  48.0020740  77.9267500 102.0053480  47.3908100  77.4015760
 102.1385840  48.5049520  78.4178510 109.9982040  33.3342530  77.3782080
 110.4390130  33.2787630  76.5303680 109.7289630  34.2500540  77.4492260
 111.8620610  32.9657770  75.3890900 111.8009010  32.0218990  75.2421920
 112.6412640  33.0737860  75.9344360  96.1673360  49.1050130  74.3514850
  95.9995400  48.4720810  75.0496740  95.3007870  49.3109530  74.0009040
 107.8340170  31.7148630  76.0832090 108.4369540  32.2868840  76.5580610
 107.0933160  32.2788070  75.8605990 110.9774770  32.1170190  71.3572370
 111.1725400  33.0153640  71.6239800 110.1904640  31.8857270  71.8505320
  97.7736060  47.7983360  71.7964990  97.2483680  48.1791390  71.0926950
  97.6980640  48.4234130  72.5174700  99.1626530  33.4630960  70.3948680
  99.6919290  32.6760760  70.2656630  99.7954850  34.1422150  70.6284210
 112.5301380  49.3570900  73.1178930 112.7053570  48.6708640  72.4739850
 111.8322950  49.8817950  72.7255600 101.4819930  32.4790080  85.8846560
 101.2004200  32.9823680  85.1207380 101.8639630  31.6811830  85.5188690
 100.3729030  49.7465740  70.6714240 101.1047850  49.4625020  70.1238130
 100.6322700  49.5079020  71.5613620  99.5343820  45.8630470  70.6760570
  98.9052700  46.3315570  71.2246400  99.6491650  45.0179690  71.1106760
 110.8633880  49.0415190  85.9445720 111.6559200  48.5464420  85.7371680
 111.1567030  49.7205330  86.5521330 106.9893540  39.9136130  56.8261770
 106.9087590  38.9990740  56.5553480 106.5757960  40.4103200  56.1201480
 105.1211580  41.6915150  58.7071040 104.3453680  41.2115590  58.9969610
 105.7724510  41.0120800  58.5327200  99.1377410  42.0034960  59.5846800
  98.3062290  41.7483670  59.9843310  99.7458390  42.0745730  60.3204720
 109.1419010  46.0975340  57.4870170 108.6800540  45.3262580  57.8157340
 109.9544560  46.1241410  57.9922620 105.3682320  48.3833350  57.1074160
 104.7493760  48.8390850  56.5368600 106.2234100  48.5384810  56.7063860
 104.5620570  44.3672340  58.7141200 104.4928850  43.4262280  58.5530330
 105.3240430  44.4573750  59.2863770 101.5638480  38.5154720  58.7352750
 102.0716700  39.0135690  59.3757770 102.0951720  37.7389920  58.5592110
  99.8474580  33.1553280  63.0016170  99.8493020  33.6725670  62.1962070
  99.0178890  32.6783460  62.9786100 106.2345670  43.2672590  54.5006070
 105.6162940  43.7322040  53.9368790 106.7468920  43.9600070  54.9175580
 101.0977430  42.7948460  61.1789670 100.7646810  43.4217380  61.8210740
 101.2744110  43.3210340  60.3991340  99.5289910  34.8663240  61.0086620
  99.8706720  35.7105290  60.7140490  98.5905720  35.0146980  61.1251960
 100.3096530  44.7629260  62.9938850 100.9270530  45.4380340  62.7123300
  99.4489650  45.1717240  62.9026350  95.6028870  43.9529120  51.8745700
  95.2256850  44.4416220  51.1430600  95.8601940  44.6254400  52.5052230
 111.2274120  46.2268670  60.9093490 110.5437640  46.8967780  60.9010160
 111.7668410  46.4249320  60.1438350 103.2117800  32.3545510  57.3331210
 103.5192780  31.7992400  56.6166710 102.2818500  32.4889970  57.1504200
 108.7632860  48.0712800  59.6238670 108.7760020  47.6675090  58.7560930
 108.2108080  48.8460090  59.5200100 110.0578280  44.7929020  54.7128840
 109.9474610  43.8503350  54.8378260 110.0546530  45.1544660  55.5991600
 108.1618300  42.9742640  60.9521280 108.5787090  42.7602750  60.1174740
 108.8858120  43.2315430  61.5229900 105.5998560  40.4194340  54.0691330
 104.6727840  40.3531720  54.2979800 105.7523380  41.3574470  53.9546570
 105.5867640  36.6911340  51.0658490 104.6471310  36.8525300  51.1510950
 105.9050900  37.4097020  50.5194480 112.1080400  41.3729860  61.0437520
 111.2799030  41.4422950  60.5687650 112.7030880  41.9584170  60.5753350
 109.6295850  41.9814640  54.5726580 109.0108270  41.6434190  53.9252880
 109.6120300  41.3374400  55.2805770 101.2055200  40.9459080  56.8511060
 100.8012200  40.2336330  56.3556960 101.2918320  40.6012320  57.7399100
 101.6736900  44.6326640  59.0150270 101.3765190  44.0272110  58.3358050
 102.6236720  44.6703950  58.9039630  99.9183820  37.7202290  60.6310100
 100.4698410  37.8297630  59.8563350 100.4327330  38.0939890  61.3465330
 109.7622510  48.2058510  62.6773370 109.2853070  49.0130700  62.4845980
 109.0784300  47.5536840  62.8299580 100.7655330  44.3708330  65.6658070
  99.8683860  44.5948300  65.9131470 100.7908200  44.4943270  64.7169470
 107.8060550  41.2201450  51.5799330 108.2453830  40.3823880  51.4337150
 108.5188970  41.8530850  51.6663470  99.5926550  41.2421650  64.2415440
  99.4534320  42.1144450  64.6102840  98.7107910  40.8994460  64.0963380
 105.9155930  46.1597520  55.5480570 106.3551840  46.9021850  55.1335960
 105.8542820  46.4024090  56.4719530 101.3906900  47.1843350  66.4500590
 101.3622330  47.5886300  65.5829020 101.2271870  46.2553710  66.2872190
 111.3877690  32.4744260  49.8940370 111.0750350  32.5671090  50.7939440
 112.1490160  33.0525290  49.8437800  97.9059830  39.8404060  54.3517710
  97.7857430  40.5666150  53.7398980  97.5960720  39.0706970  53.8745620
 113.3421720  47.9670450  67.7464760 113.8181440  48.4453340  68.4253840
 113.9628880  47.8987940  67.0210260  95.5445200  43.0119200  60.1586350
  95.6225620  43.1467970  59.2142070  96.1586880  42.3035090  60.3514470
 112.7454970  45.1583300  64.9064770 112.8718030  44.9195180  63.9881950
 112.7876350  44.3267840  65.3786850 106.6071710  48.8611300  63.4759580
 107.1216380  48.7719310  64.2782010 105.7640790  49.2071000  63.7687490
 108.5826110  49.1466640  52.9043580 108.4227250  48.8569580  53.8025410
 108.4172820  48.3706770  52.3688810 107.8502170  48.2816910  55.5390070
 108.3059120  47.5006290  55.8528690 108.1894690  48.9923730  56.0831250
 100.3723490  33.1839130  57.7341380  99.9291640  33.9648670  57.4025900
 100.9308480  33.5069020  58.4412320 104.6593300  36.0507650  63.3376700
 104.1972670  36.2590670  64.1496640 104.2571410  35.2367000  63.0347370
 106.7547520  38.7718350  66.5672150 107.0800930  37.9382100  66.2274380
 107.5427850  39.2946870  66.7150480 103.4882310  32.8049830  52.6147210
 102.8636490  32.8009700  53.3400520 103.4012430  31.9380790  52.2183180
 102.4099390  33.7286460  59.5930980 102.7071720  34.6349290  59.5123000
 102.9584950  33.2405240  58.9790550 100.1637710  38.3072700  55.4622630
  99.9378630  38.0909870  56.3669250  99.3830240  38.7401160  55.1168600
 107.3935470  38.3136070  54.0613280 106.7944360  39.0371870  53.8776900
 107.9415080  38.2512850  53.2789730 102.6036920  39.2058280  66.1282900
 102.5080520  38.2653010  65.9783300 103.4468900  39.4273350  65.7330970
 104.3092510  35.7006920  67.3513420 103.6190830  35.5079120  67.9859510
 105.0524810  35.9841560  67.8837720 106.5855480  39.5405360  60.1867340
 105.8536600  40.0492170  60.5357440 106.1879820  38.7235340  59.8856120
 103.0232870  36.2159560  58.5919830 103.0268930  35.7749510  57.7424370
 103.9183990  36.5376890  58.6991650  98.8735250  36.0986050  57.5514040
  98.5335300  36.5761280  58.3081090  98.1112570  35.6451170  57.1915140
 103.0853020  37.2171640  51.5826590 103.2065840  37.1758120  52.5312410
 102.7001530  38.0795790  51.4273320  97.1743700  43.4284800  64.8576620
  96.7898490  42.7878470  65.4559580  97.4855890  44.1320920  65.4271350
 103.3240840  40.2761340  60.3385240 103.6910970  39.8019910  61.0846580
 103.1345900  41.1502910  60.6793580  96.1881330  35.0205030  56.4678710
  95.9028250  34.6560700  57.3057330  96.1260190  34.2885490  55.8541850
 101.1140210  39.3169980  62.6569450 100.8097280  40.1961960  62.8819810
 102.0686670  39.3769770  62.6926890  99.6422000  43.5230970  53.2536300
  98.8684260  42.9828590  53.0935020 100.3716630  43.0037580  52.9154060
 110.4009980  42.5196330  59.0462690 111.1209100  43.0151620  58.6558800
 110.1991800  41.8414220  58.4016560 108.5768310  38.2853940  51.4854240
 109.4647930  38.5971170  51.3105580 108.5473400  37.4126190  51.0934820
  99.6859400  43.1911350  56.8915110 100.2038070  42.3879610  56.8372000
  99.2343420  43.1290490  57.7331940 104.5728900  44.4577630  52.1642410
 104.9144600  45.2019860  51.6685730 103.7441610  44.7708750  52.5267240
 100.3717060  40.6156960  66.6880360 100.0717200  40.7614140  65.7908180
 101.1428300  40.0562250  66.5953750 105.7145510  45.4125960  64.6835490
 105.7290050  44.4806920  64.4654400 105.0070610  45.4985720  65.3225260
 111.9256720  42.0533300  64.0304070 111.2004910  42.6462080  63.8333460
 112.4532180  42.0456840  63.2317440 107.4556310  43.7793470  57.5287920
 107.8080130  43.1821600  56.8689290 106.5718640  43.4537700  57.6996170
 103.5419590  44.5391160  54.9358330 104.2290720  45.0860370  55.3165920
 102.7552010  45.0831890  54.9707940 102.8446800  41.5437190  54.5483690
 103.3009580  42.3542440  54.7743880 102.4935010  41.2260330  55.3802180
 105.1479410  47.0543530  61.7775990 105.7921630  47.2602910  62.4549410
 105.5108850  46.2931930  61.3246840  98.7458580  31.8874840  55.0206210
  98.6173210  31.8792740  55.9691130  97.9220600  32.2257930  54.6697220
 106.4211490  45.0575880  60.4953440 107.0633720  44.3569040  60.6085610
 106.9460840  45.8374320  60.3150330 108.1949110  45.8570780  63.6989500
 108.5305350  46.4437470  64.3767420 107.2749450  45.7263490  63.9287290
 104.0237690  45.9062110  66.8677560 103.7034560  45.1871350  67.4123250
 103.3496050  46.5817180  66.9413620 102.0651860  46.7522560  51.8110710
 102.0561960  47.4852250  51.1955220 101.1450220  46.5054140  51.9037670
  97.6658500  41.9737450  52.5557470  97.0586450  42.7136350  52.5652770
  98.1407850  42.0636810  51.7295670 110.6053320  35.0945210  53.0401920
 109.9766480  35.1990880  52.3260150 110.1105240  35.3141990  53.8295800
 105.0511460  46.8150800  50.4735900 105.1523440  46.6114790  49.5437880
 104.1513200  46.5609080  50.6783680 104.1993280  38.7927860  62.4552330
 104.6978530  39.2673680  63.1204180 104.3416230  37.8691380  62.6622360
 103.6929570  49.3337120  55.1683570 103.9471070  49.2958510  54.2462940
 102.7442050  49.2070450  55.1611820 100.7772370  35.6816240  51.8310510
 101.6262900  36.1186390  51.7650700 100.4103640  35.9936500  52.6582570
 102.2827570  48.6899370  49.9139040 103.0756180  48.9788200  49.4620830
 101.7631920  48.2591540  49.2351520 107.0148170  44.8095000  67.2274460
 106.4086330  44.8326600  66.4870210 106.7102280  44.0778040  67.7641710
 108.4448540  48.5375290  65.8383870 109.3970290  48.4533310  65.7884110
 108.2976760  49.2017000  66.5117660  95.8981350  41.1888590  66.2235100
  96.4020370  40.6095870  66.7951330  95.1588770  41.4728820  66.7611470
 102.8004970  43.9102780  49.7781390 102.6955610  43.2955130  50.5042770
 102.6329190  43.3868670  48.9944400 102.9519290  42.5959580  65.7570620
 102.1864960  43.1644580  65.6725290 103.1335250  42.3035790  64.8638850
 106.0407700  42.9722810  50.3823380 105.4917800  43.4192110  51.0266120
 106.6626960  42.4672060  50.9061050 110.0942640  44.3264910  66.3145640
 110.8352110  44.6640670  65.8113100 109.3315320  44.4956970  65.7615410
 101.7082820  41.9313730  52.2788680 102.1299240  41.7653600  53.1220070
 101.8333660  41.1213960  51.7843820 104.2210460  40.9551340  49.5265780
 104.7416120  40.2400360  49.1606930 104.8678860  41.5937210  49.8266290
 103.1243980  33.4345890  62.1984340 102.6761280  33.4570150  61.3529890
 102.4909180  33.0364910  62.7954640 103.5303530  42.3300220  62.8196780
 103.9491640  43.1732950  62.6473020 102.6112160  42.4672260  62.5903560
 101.3810950  48.6353230  63.9354510 100.8432040  49.3599290  63.6163210
 101.6344910  48.1583570  63.1451850 102.6336200  36.6037750  65.4610440
 103.2235890  36.2953600  66.1488260 101.8156440  36.1317500  65.6170340
 108.0830030  32.8155190  51.7533720 108.3632320  31.9723090  52.1093140
 107.3095760  33.0478300  52.2672470  99.4024520  35.1047580  49.2124720
  99.7050420  35.1115010  48.3043870 100.1419110  34.7545440  49.7092380
 104.2373160  49.8704440  64.1941160 104.1631860  50.7739580  64.5013530
 103.3352000  49.5516340  64.1663230 102.6209450  34.0482200  50.1980920
 102.2731450  33.3706190  49.6183370 102.8222220  33.5871710  51.0124310
 104.7858490  49.0362950  51.8167520 105.6809280  49.3747920  51.8386280
 104.8176120  48.3142360  51.1891800  98.4254650  44.4090000  50.0454520
  98.8629520  44.9519670  50.7012100  98.9102380  43.5836950  50.0550860
 100.2362370  45.5288040  55.1576750  99.9357910  45.4053010  56.0580660
 100.1299860  44.6696630  54.7492480 111.7652840  47.5666620  64.5233720
 111.1654830  47.6259180  63.7797640 111.8946740  46.6271600  64.6530570
  95.9615090  40.5769850  56.5945290  95.3063930  40.3081490  55.9504990
  96.7993040  40.4674330  56.1447270 113.4670720  42.9082020  57.2079560
 113.8379550  42.1249340  56.8015530 114.1072650  43.5971120  57.0296860
 110.4504480  44.2918600  62.6209880 109.6364320  44.7215760  62.8835670
 110.8578680  44.9037010  62.0078930 108.9105530  35.3711140  50.8163780
 109.3290410  35.1842120  49.9760440 108.6041590  34.5190190  51.1266710
  97.3654540  32.8973650  49.4867650  98.0882670  33.4382590  49.8048870
  97.6379060  32.6237070  48.6109190 111.1746190  37.7666120  53.7539230
 111.6705310  37.5336990  54.5388110 110.9762260  36.9277960  53.3376870
  97.0546730  32.1479840  59.3890270  97.7022920  31.5977220  58.9485430
  97.4748570  32.4022990  60.2106080 113.4923620  34.2334990  49.5283050
 114.4172930  34.1016170  49.3201340 113.4699410  34.3127810  50.4819500
 113.5662110  35.0045650  52.1539760 112.7713610  34.9390770  52.6832670
 113.7705390  35.9396290  52.1425110 102.1149130  47.0314700  61.8978500
 101.8740490  47.2989260  61.0109020 103.0551770  47.2020430  61.9529360
 104.3203550  33.4947390  65.6535010 104.2592440  34.0869220  66.4030420
 105.2603930  33.3873350  65.5085270 113.3753290  49.0509080  62.6989140
 112.8811570  49.4477950  61.9816270 112.7666580  48.4258290  63.0926420
  97.4799370  31.8311710  65.4066360  98.0282360  31.6499760  64.6432470
  97.5454680  31.0405820  65.9422670 101.4888460  48.0020740  59.1524010
 102.0053480  47.3908100  58.6272270 102.1385840  48.5049520  59.6435020
 104.2283960  48.8929230  59.9792990 104.5161770  48.6383530  59.1026000
 104.7407180  48.3406590  60.5698560 105.4460970  32.6319430  60.5589500
 104.6632760  33.1064930  60.8386260 105.1523900  31.7274260  60.4502680
  96.7901380  32.9366910  53.0803220  97.5480740  33.0495790  52.5067250
  96.3278550  33.7736110  53.0346650 110.9774770  32.1170190  52.5828880
 111.1725400  33.0153640  52.8496310 110.1904640  31.8857270  53.0761830
  99.1626530  33.4630960  51.6205190  99.6919290  32.6760760  51.4913140
  99.7954850  34.1422150  51.8540720 104.2956320  49.8145330  67.3461190
 105.2223630  49.5789600  67.3897150 104.2806750  50.6417330  66.8647220
 101.4819930  32.4790080  67.1103070 101.2004200  32.9823680  66.3463890
 101.8639630  31.6811830  66.7445200 100.3729030  49.7465740  51.8970750
 101.1047850  49.4625020  51.3494640 100.6322700  49.5079020  52.7870130
  99.5343820  45.8630470  51.9017080  98.9052700  46.3315570  52.4502910
  99.6491650  45.0179690  52.3363270 110.8633880  49.0415190  67.1702230
 111.6559200  48.5464420  66.9628190 111.1567030  49.7205330  67.7777840
 105.3682320  48.3833350  38.3330670 104.7493760  48.8390850  37.7625110
 106.2234100  48.5384810  37.9320370 104.5620570  44.3672340  39.9397710
 104.4928850  43.4262280  39.7786840 105.3240430  44.4573750  40.5120280
 105.5925740  37.1742720  40.1666640 105.9690560  36.3014600  40.0540310
 105.4945250  37.5101420  39.2757080 109.3749860  34.6693160  37.0994980
 110.1959480  34.1789730  37.1420460 109.4083940  35.2590820  37.8526820
 101.5638480  38.5154720  39.9609260 102.0716700  39.0135690  40.6014280
 102.0951720  37.7389920  39.7848620  99.8474580  33.1553280  44.2272680
  99.8493020  33.6725670  43.4218580  99.0178890  32.6783460  44.2042610
 109.6111340  36.6093540  39.8722520 108.9066910  36.8978430  40.4525630
 109.9723500  37.4193650  39.5122080  99.5289910  34.8663240  42.2343130
  99.8706720  35.7105290  41.9397000  98.5905720  35.0146980  42.3508470
  95.6028870  43.9529120  33.1002210  95.2256850  44.4416220  32.3687110
  95.8601940  44.6254400  33.7308740 111.2274120  46.2268670  42.1350000
 110.5437640  46.8967780  42.1266670 111.7668410  46.4249320  41.3694860
 112.6798260  36.0548330  40.2631730 111.7323170  36.0887310  40.3947160
 113.0048250  36.8687280  40.6481090 103.2117800  32.3545510  38.5587720
 103.5192780  31.7992400  37.8423220 102.2818500  32.4889970  38.3760710
 108.7632860  48.0712800  40.8495180 108.7760020  47.6675090  39.9817440
 108.2108080  48.8460090  40.7456610 105.5867640  36.6911340  32.2915000
 104.6471310  36.8525300  32.3767460 105.9050900  37.4097020  31.7450990
 101.2055200  40.9459080  38.0767570 100.8012200  40.2336330  37.5813470
 101.2918320  40.6012320  38.9655610  99.9183820  37.7202290  41.8566610
 100.4698410  37.8297630  41.0819860 100.4327330  38.0939890  42.5721840
 109.7622510  48.2058510  43.9029880 109.2853070  49.0130700  43.7102490
 109.0784300  47.5536840  44.0556090 107.8060550  41.2201450  32.8055840
 108.2453830  40.3823880  32.6593660 108.5188970  41.8530850  32.8919980
  99.5926550  41.2421650  45.4671950  99.4534320  42.1144450  45.8359350
  98.7107910  40.8994460  45.3219890 105.9155930  46.1597520  36.7737080
 106.3551840  46.9021850  36.3592470 105.8542820  46.4024090  37.6976040
 111.3877690  32.4744260  31.1196880 111.0750350  32.5671090  32.0195950
 112.1490160  33.0525290  31.0694310  96.7892830  44.7119390  37.7949040
  96.3820910  44.8533980  36.9402640  97.6805840  44.4279550  37.5920250
 108.5826110  49.1466640  34.1300090 108.4227250  48.8569580  35.0281920
 108.4172820  48.3706770  33.5945320 101.0614490  48.9265170  35.9071710
 100.8856970  48.0100710  35.6939510 100.2070230  49.2852460  36.1469510
 108.2852240  46.6554200  32.6898090 107.5917400  46.6531490  32.0300370
 109.0275100  46.2313520  32.2592260 107.8502170  48.2816910  36.7646580
 108.3059120  47.5006290  37.0785200 108.1894690  48.9923730  37.3087760
 100.3723490  33.1839130  38.9597890  99.9291640  33.9648670  38.6282410
 100.9308480  33.5069020  39.6668830 104.6593300  36.0507650  44.5633210
 104.1972670  36.2590670  45.3753150 104.2571410  35.2367000  44.2603880
 106.7547520  38.7718350  47.7928660 107.0800930  37.9382100  47.4530890
 107.5427850  39.2946870  47.9406990 103.4882310  32.8049830  33.8403720
 102.8636490  32.8009700  34.5657030 103.4012430  31.9380790  33.4439690
 102.4099390  33.7286460  40.8187490 102.7071720  34.6349290  40.7379510
 102.9584950  33.2405240  40.2047060 102.6036920  39.2058280  47.3539410
 102.5080520  38.2653010  47.2039810 103.4468900  39.4273350  46.9587480
 106.0000340  36.9499610  37.3173070 106.3929910  37.2671810  36.5041760
 106.3617190  36.0711490  37.4317590  97.7347460  35.6171950  45.5073190
  97.3410850  36.4647160  45.7145970  97.0465860  34.9798320  45.6981830
 104.3092510  35.7006920  48.5769930 103.6190830  35.5079120  49.2116020
 105.0524810  35.9841560  49.1094230 103.0232870  36.2159560  39.8176340
 103.0268930  35.7749510  38.9680880 103.9183990  36.5376890  39.9248160
  98.8735250  36.0986050  38.7770550  98.5335300  36.5761280  39.5337600
  98.1112570  35.6451170  38.4171650 103.0853020  37.2171640  32.8083100
 103.2065840  37.1758120  33.7568920 102.7001530  38.0795790  32.6529830
 107.0481390  34.9939040  40.8246790 107.0654130  35.4447690  41.6688640
 106.7996970  34.0944680  41.0380230 102.0974520  39.5272780  32.2066400
 101.5291420  39.0791030  31.5802310 102.8063520  39.8865560  31.6731550
 110.4752140  32.4071220  46.6633170 110.7997910  31.6760880  47.1891150
 110.5108650  32.0884860  45.7614160  96.1881330  35.0205030  37.6935220
  95.9028250  34.6560700  38.5313840  96.1260190  34.2885490  37.0798360
  99.6422000  43.5230970  34.4792810  98.8684260  42.9828590  34.3191530
 100.3716630  43.0037580  34.1410570 105.8619920  33.9134290  34.4148590
 105.0484530  33.4147460  34.3393900 105.6681870  34.7532540  33.9984940
 105.7828780  42.5905390  46.1588200 105.7166090  41.6701060  45.9045790
 105.1533920  42.6880830  46.8732840 108.5768310  38.2853940  32.7110750
 109.4647930  38.5971170  32.5362090 108.5473400  37.4126190  32.3191330
  99.6859400  43.1911350  38.1171620 100.2038070  42.3879610  38.0628510
  99.2343420  43.1290490  38.9588450 104.5728900  44.4577630  33.3898920
 104.9144600  45.2019860  32.8942240 103.7441610  44.7708750  33.7523750
 110.8482580  39.5965780  32.1790610 110.7646300  40.0280000  31.3287050
 111.5676770  40.0564130  32.6117430 111.8769830  46.4508040  34.9072740
 111.2345990  45.7963660  35.1816460 111.4900490  46.8563130  34.1313410
 103.5419590  44.5391160  36.1614840 104.2290720  45.0860370  36.5422430
 102.7552010  45.0831890  36.1964450  95.6811990  40.1563980  31.6531920
  96.5506840  40.4388780  31.9367840  95.1902310  40.9699850  31.5380730
 102.8446800  41.5437190  35.7740200 103.3009580  42.3542440  36.0000390
 102.4935010  41.2260330  36.6058690  98.7458580  31.8874840  36.2462720
  98.6173210  31.8792740  37.1947640  97.9220600  32.2257930  35.8953730
 106.4211490  45.0575880  41.7209950 107.0633720  44.3569040  41.8342120
 106.9460840  45.8374320  41.5406840 110.2667210  45.3424500  31.4449090
 110.0404790  44.6254940  32.0373730 109.8763410  45.0936940  30.6070840
  96.0483240  49.3691360  32.2193550  96.4080880  49.9680700  31.5650820
  95.9075580  49.9151250  32.9928580  95.7452510  33.6465960  45.7069420
  95.0311030  33.8462880  46.3122030  96.1647550  32.8705530  46.0784220
 109.8483460  43.2596440  33.1063250 109.5605160  43.7209130  33.8941130
 110.6435630  42.7994210  33.3747470  96.0325100  47.6346220  46.6935950
  96.1416220  46.6940960  46.5531340  95.3805660  47.9000970  46.0449680
 104.0237690  45.9062110  48.0934070 103.7034560  45.1871350  48.6379760
 103.3496050  46.5817180  48.1670130 102.0651860  46.7522560  33.0367220
 102.0561960  47.4852250  32.4211730 101.1450220  46.5054140  33.1294180
  97.6658500  41.9737450  33.7813980  97.0586450  42.7136350  33.7909280
  98.1407850  42.0636810  32.9552180 107.2391290  36.1388270  43.4570870
 107.6072110  35.3183480  43.7850440 106.3789490  36.1990160  43.8726520
 110.6053320  35.0945210  34.2658430 109.9766480  35.1990880  33.5516660
 110.1105240  35.3141990  35.0552310 105.0511460  46.8150800  31.6992410
 105.1523440  46.6114790  30.7694390 104.1513200  46.5609080  31.9040190
 102.5737350  37.3731160  35.6816310 101.8653500  37.8417500  36.1229920
 102.8581830  36.7153170  36.3161500 106.6052780  34.0981820  37.1212100
 106.4820560  34.1167950  36.1721610 107.5537340  34.1460760  37.2410500
 103.6929570  49.3337120  36.3940080 103.9471070  49.2958510  35.4719450
 102.7442050  49.2070450  36.3868330  99.6763790  41.9348600  31.5302550
 100.4427060  41.8229960  32.0927980  99.7538480  41.2386570  30.8779320
 111.7007730  47.4237850  39.6452850 111.8255150  48.2469020  40.1176660
 112.5673290  47.2128580  39.2977000  96.0570740  45.5842630  35.1911490
  95.1310520  45.8263770  35.1816900  96.5227170  46.4116890  35.0696240
  98.1783540  48.7015130  48.5055560  98.9796270  49.0227180  48.9190960
  97.6635360  48.3410710  49.2275470 102.2827570  48.6899370  31.1395550
 103.0756180  48.9788200  30.6877340 101.7631920  48.2591540  30.4608030
 108.4448540  48.5375290  47.0640380 109.3970290  48.4533310  47.0140620
 108.2976760  49.2017000  47.7374170 111.3357740  47.9169500  32.5632290
 111.0499250  47.5034640  31.7486470 111.1377290  48.8457210  32.4432810
  95.8981350  41.1888590  47.4491610  96.4020370  40.6095870  48.0207840
  95.1588770  41.4728820  47.9867980 102.8004970  43.9102780  31.0037900
 102.6955610  43.2955130  31.7299280 102.6329190  43.3868670  30.2200910
 102.9519290  42.5959580  46.9827130 102.1864960  43.1644580  46.8981800
 103.1335250  42.3035790  46.0895360 106.0407700  42.9722810  31.6079890
 105.4917800  43.4192110  32.2522630 106.6626960  42.4672060  32.1317560
 101.7082820  41.9313730  33.5045190 102.1299240  41.7653600  34.3476580
 101.8333660  41.1213960  33.0100330  99.8710240  37.9110280  46.3116170
  99.3406700  37.4201230  45.6839510 100.5398310  38.3394480  45.7774100
 104.2210460  40.9551340  30.7522290 104.7416120  40.2400360  30.3863440
 104.8678860  41.5937210  31.0522800 100.3582540  34.8772650  46.3913460
 100.2639410  34.2593400  45.6664330  99.7779930  35.6038940  46.1643370
 103.1243980  33.4345890  43.4240850 102.6761280  33.4570150  42.5786400
 102.4909180  33.0364910  44.0211150 105.8667430  40.0616400  45.4291130
 105.9863640  39.4657540  46.1685970 106.7261430  40.0986090  45.0092430
 100.6041720  38.0046960  30.4503350 100.4030780  37.1414320  30.8116690
 100.4333770  37.9180320  29.5124950 102.6336200  36.6037750  46.6866950
 103.2235890  36.2953600  47.3744770 101.8156440  36.1317500  46.8426850
 108.0830030  32.8155190  32.9790230 108.3632320  31.9723090  33.3349650
 107.3095760  33.0478300  33.4928980  99.4024520  35.1047580  30.4381230
  99.7050420  35.1115010  29.5300380 100.1419110  34.7545440  30.9348890
 102.6209450  34.0482200  31.4237430 102.2731450  33.3706190  30.8439880
 102.8222220  33.5871710  32.2380820 104.7858490  49.0362950  33.0424030
 105.6809280  49.3747920  33.0642790 104.8176120  48.3142360  32.4148310
  95.6400450  47.1979030  38.7231290  95.9703460  46.3300090  38.4909930
  96.0691450  47.4037550  39.5536250 100.2362370  45.5288040  36.3833260
  99.9357910  45.4053010  37.2837170 100.1299860  44.6696630  35.9748990
 113.0054290  45.3084440  31.0859940 112.1747250  45.3761090  31.5567170
 113.1826120  46.1988560  30.7826800 112.4610750  42.0531920  33.5894140
 113.2229660  42.6228570  33.6953830 112.4765120  41.4859120  34.3602450
  95.9615090  40.5769850  37.8201800  95.3063930  40.3081490  37.1761500
  96.7993040  40.4674330  37.3703780 113.4670720  42.9082020  38.4336070
 113.8379550  42.1249340  38.0272040 114.1072650  43.5971120  38.2553370
 110.4504480  44.2918600  43.8466390 109.6364320  44.7215760  44.1092180
 110.8578680  44.9037010  43.2335440 112.5129920  42.3466290  30.7466660
 112.7878760  43.2545170  30.6185880 112.3240660  42.2828820  31.6828650
 108.9105530  35.3711140  32.0420290 109.3290410  35.1842120  31.2016950
 108.6041590  34.5190190  32.3523220 112.4095260  40.2835280  35.7396090
 112.0338860  39.5163210  35.3077380 111.6798380  40.6657980  36.2271020
 111.6846220  38.5092770  39.0403330 112.2083700  38.0155420  38.4093500
 112.2705640  38.6443130  39.7850900  97.3654540  32.8973650  30.7124160
  98.0882670  33.4382590  31.0305380  97.6379060  32.6237070  29.8365700
 111.1746190  37.7666120  34.9795740 111.6705310  37.5336990  35.7644620
 110.9762260  36.9277960  34.5633380  97.0546730  32.1479840  40.6146780
  97.7022920  31.5977220  40.1741940  97.4748570  32.4022990  41.4362590
 112.6033350  36.4027070  37.5133420 112.4932630  36.2483110  38.4515690
 113.3640940  35.8748010  37.2708830 110.9499070  32.3421200  43.9716420
 111.5871290  32.9555340  44.3375610 111.0973960  32.3781860  43.0265650
 113.4923620  34.2334990  30.7539560 114.4172930  34.1016170  30.5457850
 113.4699410  34.3127810  31.7076010 113.5662110  35.0045650  33.3796270
 112.7713610  34.9390770  33.9089180 113.7705390  35.9396290  33.3681620
 110.5080530  49.0437200  37.3734660 111.1039600  48.7221770  36.6969080
 110.7658680  48.5709020  38.1647930  96.8078730  32.3035510  43.3572100
  96.4593550  32.7599330  44.1230280  96.4766430  31.4092640  43.4394530
 104.3203550  33.4947390  46.8791520 104.2592440  34.0869220  47.6286930
 105.2603930  33.3873350  46.7341780 106.9578110  33.1517450  46.5183810
 107.5718520  33.4696740  45.8564890 107.5027670  32.6666040  47.1379670
  97.4799370  31.8311710  46.6322870  98.0282360  31.6499760  45.8688980
  97.5454680  31.0405820  47.1679180 107.6986150  31.7149590  42.8453100
 106.8245990  32.0484700  42.6426030 107.5896900  31.2422770  43.6704970
 108.6058130  33.9220460  44.2294820 108.2771490  33.1072220  43.8496550
 109.5540430  33.8790270  44.1060510 104.2283960  48.8929230  41.2049500
 104.5161770  48.6383530  40.3282510 104.7407180  48.3406590  41.7955070
 105.4460970  32.6319430  41.7846010 104.6632760  33.1064930  42.0642770
 105.1523900  31.7274260  41.6759190 109.9982040  33.3342530  39.8295100
 110.4390130  33.2787630  38.9816700 109.7289630  34.2500540  39.9005280
 111.8620610  32.9657770  37.8403920 111.8009010  32.0218990  37.6934940
 112.6412640  33.0737860  38.3857380  96.1673360  49.1050130  36.8027870
  95.9995400  48.4720810  37.5009760  95.3007870  49.3109530  36.4522060
  96.7901380  32.9366910  34.3059730  97.5480740  33.0495790  33.7323760
  96.3278550  33.7736110  34.2603160 103.3315190  35.0506180  37.2962040
 102.5189700  34.6763070  36.9557920 103.8356830  34.2951260  37.5983230
 107.8340170  31.7148630  38.5345110 108.4369540  32.2868840  39.0093630
 107.0933160  32.2788070  38.3119010 110.9774770  32.1170190  33.8085390
 111.1725400  33.0153640  34.0752820 110.1904640  31.8857270  34.3018340
  97.7736060  47.7983360  34.2478010  97.2483680  48.1791390  33.5439970
  97.6980640  48.4234130  34.9687720  99.1626530  33.4630960  32.8461700
  99.6919290  32.6760760  32.7169650  99.7954850  34.1422150  33.0797230
 101.3564370  33.2006100  35.9007090 100.7267110  32.4993410  36.0677220
 100.8169510  33.9610230  35.6840250 104.2956320  49.8145330  48.5717700
 105.2223630  49.5789600  48.6153660 104.2806750  50.6417330  48.0903730
 112.5301380  49.3570900  35.5691950 112.7053570  48.6708640  34.9252870
 111.8322950  49.8817950  35.1768620 101.4819930  32.4790080  48.3359580
 101.2004200  32.9823680  47.5720400 101.8639630  31.6811830  47.9701710
 100.3729030  49.7465740  33.1227260 101.1047850  49.4625020  32.5751150
 100.6322700  49.5079020  34.0126640  99.5343820  45.8630470  33.1273590
  98.9052700  46.3315570  33.6759420  99.6491650  45.0179690  33.5619780
 108.0835390  31.8943660  48.9140050 107.9700840  32.2138270  49.8091570
 108.9005130  32.2956170  48.6177330 106.9893540  39.9136130  19.2774790
 106.9087590  38.9990740  19.0066500 106.5757960  40.4103200  18.5714500
 105.1211580  41.6915150  21.1584060 104.3453680  41.2115590  21.4482630
 105.7724510  41.0120800  20.9840220  99.1377410  42.0034960  22.0359820
  98.3062290  41.7483670  22.4356330  99.7458390  42.0745730  22.7717740
 109.1419010  46.0975340  19.9383190 108.6800540  45.3262580  20.2670360
 109.9544560  46.1241410  20.4435640  99.1178670  46.0375050  22.2317840
  99.4206710  45.1472790  22.0528060  99.8622260  46.5945270  22.0040090
  97.5469360  36.9636850  15.8202210  96.6586060  37.3052820  15.7182090
  97.8310550  36.7637170  14.9283040  95.5102370  39.5642500  21.7041910
  96.0818480  38.7964700  21.7045550  95.5103910  39.8631260  20.7948520
 105.3682320  48.3833350  19.5587180 104.7493760  48.8390850  18.9881620
 106.2234100  48.5384810  19.1576880 104.5620570  44.3672340  21.1654220
 104.4928850  43.4262280  21.0043350 105.3240430  44.4573750  21.7376790
  96.7527240  34.9726860  23.4910840  96.5730080  34.0752610  23.7713600
  96.3507320  35.5198730  24.1657790 105.5925740  37.1742720  21.3923150
 105.9690560  36.3014600  21.2796820 105.4945250  37.5101420  20.5013590
  99.7230750  35.5468350  16.8540590  99.8297500  36.4472080  17.1609350
  98.8123110  35.4986320  16.5635240 109.3749860  34.6693160  18.3251490
 110.1959480  34.1789730  18.3676970 109.4083940  35.2590820  19.0783330
  97.3713910  37.4687360  22.0993180  98.0524020  37.7325730  22.7180580
  97.0561960  36.6288230  22.4331190 101.5638480  38.5154720  21.1865770
 102.0716700  39.0135690  21.8270790 102.0951720  37.7389920  21.0105130
 113.6649410  36.6859910  24.8895120 112.9601580  37.0741620  24.3710230
 113.9307330  37.3810200  25.4916050  99.8474580  33.1553280  25.4529190
  99.8493020  33.6725670  24.6475090  99.0178890  32.6783460  25.4299120
 106.2345670  43.2672590  16.9519090 105.6162940  43.7322040  16.3881810
 106.7468920  43.9600070  17.3688600 101.0977430  42.7948460  23.6302690
 100.7646810  43.4217380  24.2723760 101.2744110  43.3210340  22.8504360
 109.6111340  36.6093540  21.0979030 108.9066910  36.8978430  21.6782140
 109.9723500  37.4193650  20.7378590  99.5289910  34.8663240  23.4599640
  99.8706720  35.7105290  23.1653510  98.5905720  35.0146980  23.5764980
  95.6028870  43.9529120  14.3258720  95.2256850  44.4416220  13.5943620
  95.8601940  44.6254400  14.9565250 111.2274120  46.2268670  23.3606510
 110.5437640  46.8967780  23.3523180 111.7668410  46.4249320  22.5951370
 112.6798260  36.0548330  21.4888240 111.7323170  36.0887310  21.6203670
 113.0048250  36.8687280  21.8737600 103.2117800  32.3545510  19.7844230
 103.5192780  31.7992400  19.0679730 102.2818500  32.4889970  19.6017220
 108.7632860  48.0712800  22.0751690 108.7760020  47.6675090  21.2073950
 108.2108080  48.8460090  21.9713120 110.0578280  44.7929020  17.1641860
 109.9474610  43.8503350  17.2891280 110.0546530  45.1544660  18.0504620
 108.1618300  42.9742640  23.4034300 108.5787090  42.7602750  22.5687760
 108.8858120  43.2315430  23.9742920 105.5998560  40.4194340  16.5204350
 104.6727840  40.3531720  16.7492820 105.7523380  41.3574470  16.4059590
 105.5867640  36.6911340  13.5171510 104.6471310  36.8525300  13.6023970
 105.9050900  37.4097020  12.9707500 112.1080400  41.3729860  23.4950540
 111.2799030  41.4422950  23.0200670 112.7030880  41.9584170  23.0266370
 109.6295850  41.9814640  17.0239600 109.0108270  41.6434190  16.3765900
 109.6120300  41.3374400  17.7318790 109.0722410  38.1599180  24.4405410
 108.6593590  38.9852890  24.6945400 108.3398360  37.5744220  24.2481770
 101.2055200  40.9459080  19.3024080 100.8012200  40.2336330  18.8069980
 101.2918320  40.6012320  20.1912120 101.6736900  44.6326640  21.4663290
 101.3765190  44.0272110  20.7871070 102.6236720  44.6703950  21.3552650
  99.9183820  37.7202290  23.0823120 100.4698410  37.8297630  22.3076370
 100.4327330  38.0939890  23.7978350 109.7622510  48.2058510  25.1286390
 109.2853070  49.0130700  24.9359000 109.0784300  47.5536840  25.2812600
 107.8060550  41.2201450  14.0312350 108.2453830  40.3823880  13.8850170
 108.5188970  41.8530850  14.1176490  99.5926550  41.2421650  26.6928460
  99.4534320  42.1144450  27.0615860  98.7107910  40.8994460  26.5476400
 105.9155930  46.1597520  17.9993590 106.3551840  46.9021850  17.5848980
 105.8542820  46.4024090  18.9232550 111.3877690  32.4744260  12.3453390
 111.0750350  32.5671090  13.2452460 112.1490160  33.0525290  12.2950820
  97.9059830  39.8404060  16.8030730  97.7857430  40.5666150  16.1912000
  97.5960720  39.0706970  16.3258640 113.3421720  47.9670450  30.1977780
 113.8181440  48.4453340  30.8766860 113.9628880  47.8987940  29.4723280
  95.5445200  43.0119200  22.6099370  95.6225620  43.1467970  21.6655090
  96.1586880  42.3035090  22.8027490  96.7892830  44.7119390  19.0205550
  96.3820910  44.8533980  18.1659150  97.6805840  44.4279550  18.8176760
 112.7454970  45.1583300  27.3577790 112.8718030  44.9195180  26.4394970
 112.7876350  44.3267840  27.8299870 106.6071710  48.8611300  25.9272600
 107.1216380  48.7719310  26.7295030 105.7640790  49.2071000  26.2200510
 108.5826110  49.1466640  15.3556600 108.4227250  48.8569580  16.2538430
 108.4172820  48.3706770  14.8201830 101.0614490  48.9265170  17.1328220
 100.8856970  48.0100710  16.9196020 100.2070230  49.2852460  17.3726020
 108.2852240  46.6554200  13.9154600 107.5917400  46.6531490  13.2556880
 109.0275100  46.2313520  13.4848770 107.8502170  48.2816910  17.9903090
 108.3059120  47.5006290  18.3041710 108.1894690  48.9923730  18.5344270
 112.5978980  37.2115760  28.3227530 111.9823250  37.7195430  27.7942990
 112.2775400  36.3114090  28.2653470 100.3723490  33.1839130  20.1854400
  99.9291640  33.9648670  19.8538920 100.9308480  33.5069020  20.8925340
 104.6593300  36.0507650  25.7889720 104.1972670  36.2590670  26.6009660
 104.2571410  35.2367000  25.4860390 109.6597810  37.2716600  26.9186380
 108.8091400  36.9722350  27.2395450 109.4999600  37.5158610  26.0070200
 106.7547520  38.7718350  29.0185170 107.0800930  37.9382100  28.6787400
 107.5427850  39.2946870  29.1663500 103.4882310  32.8049830  15.0660230
 102.8636490  32.8009700  15.7913540 103.4012430  31.9380790  14.6696200
 102.4099390  33.7286460  22.0444000 102.7071720  34.6349290  21.9636020
 102.9584950  33.2405240  21.4303570 100.1637710  38.3072700  17.9135650
  99.9378630  38.0909870  18.8182270  99.3830240  38.7401160  17.5681620
 107.3935470  38.3136070  16.5126300 106.7944360  39.0371870  16.3289920
 107.9415080  38.2512850  15.7302750 102.6036920  39.2058280  28.5795920
 102.5080520  38.2653010  28.4296320 103.4468900  39.4273350  28.1843990
 106.0000340  36.9499610  18.5429580 106.3929910  37.2671810  17.7298270
 106.3617190  36.0711490  18.6574100  97.7347460  35.6171950  26.7329700
  97.3410850  36.4647160  26.9402480  97.0465860  34.9798320  26.9238340
 104.3092510  35.7006920  29.8026440 103.6190830  35.5079120  30.4372530
 105.0524810  35.9841560  30.3350740  95.0364510  33.5400410  20.7659780
  94.7477560  34.1103270  21.4784760  95.7810270  33.0604860  21.1291010
  95.2234740  37.4820530  11.9762500  95.1409410  38.4251290  12.1177490
  94.8717800  37.3395440  11.0974850 106.5855480  39.5405360  22.6380360
 105.8536600  40.0492170  22.9870460 106.1879820  38.7235340  22.3369140
 103.0232870  36.2159560  21.0432850 103.0268930  35.7749510  20.1937390
 103.9183990  36.5376890  21.1504670  98.8735250  36.0986050  20.0027060
  98.5335300  36.5761280  20.7594110  98.1112570  35.6451170  19.6428160
 103.0853020  37.2171640  14.0339610 103.2065840  37.1758120  14.9825430
 102.7001530  38.0795790  13.8786340 107.0481390  34.9939040  22.0503300
 107.0654130  35.4447690  22.8945150 106.7996970  34.0944680  22.2636740
 102.0974520  39.5272780  13.4322910 101.5291420  39.0791030  12.8058820
 102.8063520  39.8865560  12.8988060 110.4752140  32.4071220  27.8889680
 110.7997910  31.6760880  28.4147660 110.5108650  32.0884860  26.9870670
 103.3240840  40.2761340  22.7898260 103.6910970  39.8019910  23.5359600
 103.1345900  41.1502910  23.1306600  96.1881330  35.0205030  18.9191730
  95.9028250  34.6560700  19.7570350  96.1260190  34.2885490  18.3054870
 101.1140210  39.3169980  25.1082470 100.8097280  40.1961960  25.3332830
 102.0686670  39.3769770  25.1439910  99.6422000  43.5230970  15.7049320
  98.8684260  42.9828590  15.5448040 100.3716630  43.0037580  15.3667080
 110.4009980  42.5196330  21.4975710 111.1209100  43.0151620  21.1071820
 110.1991800  41.8414220  20.8529580 105.8619920  33.9134290  15.6405100
 105.0484530  33.4147460  15.5650410 105.6681870  34.7532540  15.2241450
 105.7828780  42.5905390  27.3844710 105.7166090  41.6701060  27.1302300
 105.1533920  42.6880830  28.0989350 108.5768310  38.2853940  13.9367260
 109.4647930  38.5971170  13.7618600 108.5473400  37.4126190  13.5447840
  99.6859400  43.1911350  19.3428130 100.2038070  42.3879610  19.2885020
  99.2343420  43.1290490  20.1844960 104.5728900  44.4577630  14.6155430
 104.9144600  45.2019860  14.1198750 103.7441610  44.7708750  14.9780260
  97.1703940  40.1572720  26.2553830  96.8118880  40.8226570  26.8427170
  96.8758500  39.3256270  26.6266450 100.3717060  40.6156960  29.1393380
 100.0717200  40.7614140  28.2421200 101.1428300  40.0562250  29.0466770
 105.7145510  45.4125960  27.1348510 105.7290050  44.4806920  26.9167420
 105.0070610  45.4985720  27.7738280 110.8482580  39.5965780  13.4047120
 110.7646300  40.0280000  12.5543560 111.5676770  40.0564130  13.8373940
 111.9256720  42.0533300  26.4817090 111.2004910  42.6462080  26.2846480
 112.4532180  42.0456840  25.6830460 111.8769830  46.4508040  16.1329250
 111.2345990  45.7963660  16.4072970 111.4900490  46.8563130  15.3569920
 107.4556310  43.7793470  19.9800940 107.8080130  43.1821600  19.3202310
 106.5718640  43.4537700  20.1509190 103.5419590  44.5391160  17.3871350
 104.2290720  45.0860370  17.7678940 102.7552010  45.0831890  17.4220960
  95.6811990  40.1563980  12.8788430  96.5506840  40.4388780  13.1624350
  95.1902310  40.9699850  12.7637240 102.8446800  41.5437190  16.9996710
 103.3009580  42.3542440  17.2256900 102.4935010  41.2260330  17.8315200
 105.1479410  47.0543530  24.2289010 105.7921630  47.2602910  24.9062430
 105.5108850  46.2931930  23.7759860  98.7458580  31.8874840  17.4719230
  98.6173210  31.8792740  18.4204150  97.9220600  32.2257930  17.1210240
 106.4211490  45.0575880  22.9466460 107.0633720  44.3569040  23.0598630
 106.9460840  45.8374320  22.7663350 110.2667210  45.3424500  12.6705600
 110.0404790  44.6254940  13.2630240 109.8763410  45.0936940  11.8327350
 108.1949110  45.8570780  26.1502520 108.5305350  46.4437470  26.8280440
 107.2749450  45.7263490  26.3800310  96.0483240  49.3691360  13.4450060
  96.4080880  49.9680700  12.7907330  95.9075580  49.9151250  14.2185090
  95.7452510  33.6465960  26.9325930  95.0311030  33.8462880  27.5378540
  96.1647550  32.8705530  27.3040730 109.8483460  43.2596440  14.3319760
 109.5605160  43.7209130  15.1197640 110.6435630  42.7994210  14.6003980
 104.0237690  45.9062110  29.3190580 103.7034560  45.1871350  29.8636270
 103.3496050  46.5817180  29.3926640 102.0651860  46.7522560  14.2623730
 102.0561960  47.4852250  13.6468240 101.1450220  46.5054140  14.3550690
  97.6658500  41.9737450  15.0070490  97.0586450  42.7136350  15.0165790
  98.1407850  42.0636810  14.1808690 107.2391290  36.1388270  24.6827380
 107.6072110  35.3183480  25.0106950 106.3789490  36.1990160  25.0983030
 110.6053320  35.0945210  15.4914940 109.9766480  35.1990880  14.7773170
 110.1105240  35.3141990  16.2808820 105.0511460  46.8150800  12.9248920
 105.1523440  46.6114790  11.9950900 104.1513200  46.5609080  13.1296700
 102.5737350  37.3731160  16.9072820 101.8653500  37.8417500  17.3486430
 102.8581830  36.7153170  17.5418010 104.1993280  38.7927860  24.9065350
 104.6978530  39.2673680  25.5717200 104.3416230  37.8691380  25.1135380
 106.6052780  34.0981820  18.3468610 106.4820560  34.1167950  17.3978120
 107.5537340  34.1460760  18.4667010 103.6929570  49.3337120  17.6196590
 103.9471070  49.2958510  16.6975960 102.7442050  49.2070450  17.6124840
 100.7772370  35.6816240  14.2823530 101.6262900  36.1186390  14.2163720
 100.4103640  35.9936500  15.1095590 111.4060140  35.0095820  25.7493740
 110.9033740  35.7501220  26.0887550 112.2216800  35.3979820  25.4330530
 109.6982150  40.2529000  19.1955100 108.7572290  40.2679230  19.3702790
 110.0126220  39.4664960  19.6415400  99.6763790  41.9348600  12.7559060
 100.4427060  41.8229960  13.3184490  99.7538480  41.2386570  12.1035830
  98.3710550  39.3673670  13.4391950  98.4514140  38.4201180  13.5509350
  99.2630300  39.6980550  13.5452610 111.7007730  47.4237850  20.8709360
 111.8255150  48.2469020  21.3433170 112.5673290  47.2128580  20.5233510
  96.0570740  45.5842630  16.4168000  95.1310520  45.8263770  16.4073410
  96.5227170  46.4116890  16.2952750  98.1783540  48.7015130  29.7312070
  98.9796270  49.0227180  30.1447470  97.6635360  48.3410710  30.4531980
 102.2827570  48.6899370  12.3652060 103.0756180  48.9788200  11.9133850
 101.7631920  48.2591540  11.6864540 107.0148170  44.8095000  29.6787480
 106.4086330  44.8326600  28.9383230 106.7102280  44.0778040  30.2154730
 108.4448540  48.5375290  28.2896890 109.3970290  48.4533310  28.2397130
 108.2976760  49.2017000  28.9630680 111.3357740  47.9169500  13.7888800
 111.0499250  47.5034640  12.9742980 111.1377290  48.8457210  13.6689320
  95.8981350  41.1888590  28.6748120  96.4020370  40.6095870  29.2464350
  95.1588770  41.4728820  29.2124490 102.8004970  43.9102780  12.2294410
 102.6955610  43.2955130  12.9555790 102.6329190  43.3868670  11.4457420
 102.9519290  42.5959580  28.2083640 102.1864960  43.1644580  28.1238310
 103.1335250  42.3035790  27.3151870 106.0407700  42.9722810  12.8336400
 105.4917800  43.4192110  13.4779140 106.6626960  42.4672060  13.3574070
 110.0942640  44.3264910  28.7658660 110.8352110  44.6640670  28.2626120
 109.3315320  44.4956970  28.2128430  97.9304430  39.3318180  29.5698190
  97.9709770  39.0332050  30.4783420  98.7849930  39.7325790  29.4105710
 101.7082820  41.9313730  14.7301700 102.1299240  41.7653600  15.5733090
 101.8333660  41.1213960  14.2356840  99.8710240  37.9110280  27.5372680
  99.3406700  37.4201230  26.9096020 100.5398310  38.3394480  27.0030610
 104.2210460  40.9551340  11.9778800 104.7416120  40.2400360  11.6119950
 104.8678860  41.5937210  12.2779310 108.7688300  42.3779740  27.3013870
 109.1829320  42.5324820  28.1504290 107.8339300  42.5034960  27.4639650
 109.2410470  39.7175900  29.3053020 109.8231240  38.9628220  29.2173500
 109.4172240  40.2483340  28.5284500 100.3582540  34.8772650  27.6169970
 100.2639410  34.2593400  26.8920840  99.7779930  35.6038940  27.3899880
 103.1243980  33.4345890  24.6497360 102.6761280  33.4570150  23.8042910
 102.4909180  33.0364910  25.2467660 103.5303530  42.3300220  25.2709800
 103.9491640  43.1732950  25.0986040 102.6112160  42.4672260  25.0416580
 105.8667430  40.0616400  26.6547640 105.9863640  39.4657540  27.3942480
 106.7261430  40.0986090  26.2348940 108.2055330  40.6153590  25.2310150
 107.6790550  41.1396210  24.6275290 108.5486670  41.2480980  25.8619880
 100.6041720  38.0046960  11.6759860 100.4030780  37.1414320  12.0373200
 100.4333770  37.9180320  10.7381460 101.3810950  48.6353230  26.3867530
 100.8432040  49.3599290  26.0676230 101.6344910  48.1583570  25.5964870
 102.6336200  36.6037750  27.9123460 103.2235890  36.2953600  28.6001280
 101.8156440  36.1317500  28.0683360 107.4529630  36.2203560  28.1456480
 106.7645150  35.5585100  28.0806470 108.1735650  35.7741830  28.5904940
 108.0830030  32.8155190  14.2046740 108.3632320  31.9723090  14.5606160
 107.3095760  33.0478300  14.7185490  99.4024520  35.1047580  11.6637740
  99.7050420  35.1115010  10.7556890 100.1419110  34.7545440  12.1605400
 104.2373160  49.8704440  26.6454180 104.1631860  50.7739580  26.9526550
 103.3352000  49.5516340  26.6176250 102.6209450  34.0482200  12.6493940
 102.2731450  33.3706190  12.0696390 102.8222220  33.5871710  13.4637330
 104.7858490  49.0362950  14.2680540 105.6809280  49.3747920  14.2899300
 104.8176120  48.3142360  13.6404820  98.4254650  44.4090000  12.4967540
  98.8629520  44.9519670  13.1525120  98.9102380  43.5836950  12.5063880
  95.6400450  47.1979030  19.9487800  95.9703460  46.3300090  19.7166440
  96.0691450  47.4037550  20.7792760 100.2362370  45.5288040  17.6089770
  99.9357910  45.4053010  18.5093680 100.1299860  44.6696630  17.2005500
 111.7652840  47.5666620  26.9746740 111.1654830  47.6259180  26.2310660
 111.8946740  46.6271600  27.1043590 113.0054290  45.3084440  12.3116450
 112.1747250  45.3761090  12.7823680 113.1826120  46.1988560  12.0083310
 112.4610750  42.0531920  14.8150650 113.2229660  42.6228570  14.9210340
 112.4765120  41.4859120  15.5858960  95.9615090  40.5769850  19.0458310
  95.3063930  40.3081490  18.4018010  96.7993040  40.4674330  18.5960290
 113.4670720  42.9082020  19.6592580 113.8379550  42.1249340  19.2528550
 114.1072650  43.5971120  19.4809880 110.4504480  44.2918600  25.0722900
 109.6364320  44.7215760  25.3348690 110.8578680  44.9037010  24.4591950
 112.5129920  42.3466290  11.9723170 112.7878760  43.2545170  11.8442390
 112.3240660  42.2828820  12.9085160 108.9105530  35.3711140  13.2676800
 109.3290410  35.1842120  12.4273460 108.6041590  34.5190190  13.5779730
 112.4095260  40.2835280  16.9652600 112.0338860  39.5163210  16.5333890
 111.6798380  40.6657980  17.4527530  96.9991020  40.9622420  23.5861650
  97.3664060  40.8749820  24.4657670  96.4301840  40.1988970  23.4868510
 111.7994880  39.4306800  26.5992120 111.5680970  39.2019550  25.6990070
 112.0599430  40.3506350  26.5537010  96.5507020  37.8731510  27.4920070
  95.6563070  37.8398270  27.8313780  97.0904570  38.0718300  28.2571320
 110.2382950  34.6563230  29.3771820 111.1153130  34.6646630  29.7605820
 110.2503790  33.9194070  28.7664170  95.1753170  37.7868780  14.9883640
  94.2717250  38.0498980  14.8135300  95.6593790  38.0579950  14.2083600
 111.6846220  38.5092770  20.2659840 112.2083700  38.0155420  19.6350010
 112.2705640  38.6443130  21.0107410 111.8635940  38.5932640  23.7879390
 110.9138650  38.5596180  23.9024380 112.0448950  39.5032750  23.5529160
  97.7180380  36.8434320  12.8978020  98.4272080  36.4217540  12.4125300
  97.0020320  36.9109550  12.2661370  97.3654540  32.8973650  11.9380670
  98.0882670  33.4382590  12.2561890  97.6379060  32.6237070  11.0622210
 111.1746190  37.7666120  16.2052250 111.6705310  37.5336990  16.9901130
 110.9762260  36.9277960  15.7889890  97.0546730  32.1479840  21.8403290
  97.7022920  31.5977220  21.3998450  97.4748570  32.4022990  22.6619100
 112.6033350  36.4027070  18.7389930 112.4932630  36.2483110  19.6772200
 113.3640940  35.8748010  18.4965340 110.9499070  32.3421200  25.1972930
 111.5871290  32.9555340  25.5632120 111.0973960  32.3781860  24.2522160
 113.4923620  34.2334990  11.9796070 114.4172930  34.1016170  11.7714360
 113.4699410  34.3127810  12.9332520 113.5662110  35.0045650  14.6052780
 112.7713610  34.9390770  15.1345690 113.7705390  35.9396290  14.5938130
 110.5080530  49.0437200  18.5991170 111.1039600  48.7221770  17.9225590
 110.7658680  48.5709020  19.3904440  96.8078730  32.3035510  24.5828610
  96.4593550  32.7599330  25.3486790  96.4766430  31.4092640  24.6651040
 102.1149130  47.0314700  24.3491520 101.8740490  47.2989260  23.4622040
 103.0551770  47.2020430  24.4042380 104.3203550  33.4947390  28.1048030
 104.2592440  34.0869220  28.8543440 105.2603930  33.3873350  27.9598290
 106.9578110  33.1517450  27.7440320 107.5718520  33.4696740  27.0821400
 107.5027670  32.6666040  28.3636180 113.3753290  49.0509080  25.1502160
 112.8811570  49.4477950  24.4329290 112.7666580  48.4258290  25.5439440
  97.4799370  31.8311710  27.8579380  98.0282360  31.6499760  27.0945490
  97.5454680  31.0405820  28.3935690 107.6986150  31.7149590  24.0709610
 106.8245990  32.0484700  23.8682540 107.5896900  31.2422770  24.8961480
 108.6058130  33.9220460  25.4551330 108.2771490  33.1072220  25.0753060
 109.5540430  33.8790270  25.3317020 111.0592740  49.6932500  22.4288900
 110.5995710  50.4448310  22.0546920 110.4305200  48.9738970  22.3703700
 104.2283960  48.8929230  22.4306010 104.5161770  48.6383530  21.5539020
 104.7407180  48.3406590  23.0211580 105.4460970  32.6319430  23.0102520
 104.6632760  33.1064930  23.2899280 105.1523900  31.7274260  22.9015700
 109.9982040  33.3342530  21.0551610 110.4390130  33.2787630  20.2073210
 109.7289630  34.2500540  21.1261790 111.8620610  32.9657770  19.0660430
 111.8009010  32.0218990  18.9191450 112.6412640  33.0737860  19.6113890
  96.1673360  49.1050130  18.0284380  95.9995400  48.4720810  18.7266270
  95.3007870  49.3109530  17.6778570  96.7901380  32.9366910  15.5316240
  97.5480740  33.0495790  14.9580270  96.3278550  33.7736110  15.4859670
 103.3315190  35.0506180  18.5218550 102.5189700  34.6763070  18.1814430
 103.8356830  34.2951260  18.8239740 107.8340170  31.7148630  19.7601620
 108.4369540  32.2868840  20.2350140 107.0933160  32.2788070  19.5375520
 110.9774770  32.1170190  15.0341900 111.1725400  33.0153640  15.3009330
 110.1904640  31.8857270  15.5274850  97.7736060  47.7983360  15.4734520
  97.2483680  48.1791390  14.7696480  97.6980640  48.4234130  16.1944230
  99.1626530  33.4630960  14.0718210  99.6919290  32.6760760  13.9426160
  99.7954850  34.1422150  14.3053740 101.3564370  33.2006100  17.1263600
 100.7267110  32.4993410  17.2933730 100.8169510  33.9610230  16.9096760
 104.2956320  49.8145330  29.7974210 105.2223630  49.5789600  29.8410170
 104.2806750  50.6417330  29.3160240 112.5301380  49.3570900  16.7948460
 112.7053570  48.6708640  16.1509380 111.8322950  49.8817950  16.4025130
 101.4819930  32.4790080  29.5616090 101.2004200  32.9823680  28.7976910
 101.8639630  31.6811830  29.1958220 100.3729030  49.7465740  14.3483770
 101.1047850  49.4625020  13.8007660 100.6322700  49.5079020  15.2383150
  99.5343820  45.8630470  14.3530100  98.9052700  46.3315570  14.9015930
  99.6491650  45.0179690  14.7876290 108.0835390  31.8943660  30.1396560
 107.9700840  32.2138270  31.0348080 108.9005130  32.2956170  29.8433840
 110.8633880  49.0415190  29.6215250 111.6559200  48.5464420  29.4141210
 111.1567030  49.7205330  30.2290860 105.1211580  41.6915150   2.3840570
 104.3453680  41.2115590   2.6739140 105.7724510  41.0120800   2.2096730
  99.1377410  42.0034960   3.2616330  98.3062290  41.7483670   3.6612840
  99.7458390  42.0745730   3.9974250  99.1178670  46.0375050   3.4574350
  99.4206710  45.1472790   3.2784570  99.8622260  46.5945270   3.2296600
  95.5102370  39.5642500   2.9298420  96.0818480  38.7964700   2.9302060
  95.5103910  39.8631260   2.0205030 104.5620570  44.3672340   2.3910730
 104.4928850  43.4262280   2.2299860 105.3240430  44.4573750   2.9633300
  96.7527240  34.9726860   4.7167350  96.5730080  34.0752610   4.9970110
  96.3507320  35.5198730   5.3914300 105.5925740  37.1742720   2.6179660
 105.9690560  36.3014600   2.5053330 105.4945250  37.5101420   1.7270100
  97.3713910  37.4687360   3.3249690  98.0524020  37.7325730   3.9437090
  97.0561960  36.6288230   3.6587700 101.5638480  38.5154720   2.4122280
 102.0716700  39.0135690   3.0527300 102.0951720  37.7389920   2.2361640
 113.6649410  36.6859910   6.1151630 112.9601580  37.0741620   5.5966740
 113.9307330  37.3810200   6.7172560  99.8474580  33.1553280   6.6785700
  99.8493020  33.6725670   5.8731600  99.0178890  32.6783460   6.6555630
 101.0977430  42.7948460   4.8559200 100.7646810  43.4217380   5.4980270
 101.2744110  43.3210340   4.0760870 109.6111340  36.6093540   2.3235540
 108.9066910  36.8978430   2.9038650 109.9723500  37.4193650   1.9635100
  99.5289910  34.8663240   4.6856150  99.8706720  35.7105290   4.3910020
  98.5905720  35.0146980   4.8021490 100.3096530  44.7629260   6.6708380
 100.9270530  45.4380340   6.3892830  99.4489650  45.1717240   6.5795880
 111.2274120  46.2268670   4.5863020 110.5437640  46.8967780   4.5779690
 111.7668410  46.4249320   3.8207880 112.6798260  36.0548330   2.7144750
 111.7323170  36.0887310   2.8460180 113.0048250  36.8687280   3.0994110
 108.7632860  48.0712800   3.3008200 108.7760020  47.6675090   2.4330460
 108.2108080  48.8460090   3.1969630 108.1618300  42.9742640   4.6290810
 108.5787090  42.7602750   3.7944270 108.8858120  43.2315430   5.1999430
 112.1080400  41.3729860   4.7207050 111.2799030  41.4422950   4.2457180
 112.7030880  41.9584170   4.2522880 109.0722410  38.1599180   5.6661920
 108.6593590  38.9852890   5.9201910 108.3398360  37.5744220   5.4738280
 101.6736900  44.6326640   2.6919800 101.3765190  44.0272110   2.0127580
 102.6236720  44.6703950   2.5809160  99.9183820  37.7202290   4.3079630
 100.4698410  37.8297630   3.5332880 100.4327330  38.0939890   5.0234860
 109.7622510  48.2058510   6.3542900 109.2853070  49.0130700   6.1615510
 109.0784300  47.5536840   6.5069110 100.7655330  44.3708330   9.3427600
  99.8683860  44.5948300   9.5901000 100.7908200  44.4943270   8.3939000
  99.5926550  41.2421650   7.9184970  99.4534320  42.1144450   8.2872370
  98.7107910  40.8994460   7.7732910 101.3906900  47.1843350  10.1270120
 101.3622330  47.5886300   9.2598550 101.2271870  46.2553710   9.9641720
 113.3421720  47.9670450  11.4234290 113.8181440  48.4453340  12.1023370
 113.9628880  47.8987940  10.6979790  95.5445200  43.0119200   3.8355880
  95.6225620  43.1467970   2.8911600  96.1586880  42.3035090   4.0284000
 112.7454970  45.1583300   8.5834300 112.8718030  44.9195180   7.6651480
 112.7876350  44.3267840   9.0556380 106.6071710  48.8611300   7.1529110
 107.1216380  48.7719310   7.9551540 105.7640790  49.2071000   7.4457020
 112.5978980  37.2115760   9.5484040 111.9823250  37.7195430   9.0199500
 112.2775400  36.3114090   9.4909980  95.6004720  44.0533370   6.3750340
  95.7635760  43.5838730   5.5569710  96.0657170  43.5456930   7.0399180
 104.6593300  36.0507650   7.0146230 104.1972670  36.2590670   7.8266170
 104.2571410  35.2367000   6.7116900 109.6597810  37.2716600   8.1442890
 108.8091400  36.9722350   8.4651960 109.4999600  37.5158610   7.2326710
 106.7547520  38.7718350  10.2441680 107.0800930  37.9382100   9.9043910
 107.5427850  39.2946870  10.3920010 102.4099390  33.7286460   3.2700510
 102.7071720  34.6349290   3.1892530 102.9584950  33.2405240   2.6560080
 102.6036920  39.2058280   9.8052430 102.5080520  38.2653010   9.6552830
 103.4468900  39.4273350   9.4100500  97.7347460  35.6171950   7.9586210
  97.3410850  36.4647160   8.1658990  97.0465860  34.9798320   8.1494850
 104.3092510  35.7006920  11.0282950 103.6190830  35.5079120  11.6629040
 105.0524810  35.9841560  11.5607250  95.0364510  33.5400410   1.9916290
  94.7477560  34.1103270   2.7041270  95.7810270  33.0604860   2.3547520
 106.5855480  39.5405360   3.8636870 105.8536600  40.0492170   4.2126970
 106.1879820  38.7235340   3.5625650 103.0232870  36.2159560   2.2689360
 103.0268930  35.7749510   1.4193900 103.9183990  36.5376890   2.3761180
 107.0481390  34.9939040   3.2759810 107.0654130  35.4447690   4.1201660
 106.7996970  34.0944680   3.4893250 110.4752140  32.4071220   9.1146190
 110.7997910  31.6760880   9.6404170 110.5108650  32.0884860   8.2127180
  97.1743700  43.4284800   8.5346150  96.7898490  42.7878470   9.1329110
  97.4855890  44.1320920   9.1040880 103.3240840  40.2761340   4.0154770
 103.6910970  39.8019910   4.7616110 103.1345900  41.1502910   4.3563110
 101.1140210  39.3169980   6.3338980 100.8097280  40.1961960   6.5589340
 102.0686670  39.3769770   6.3696420 110.4009980  42.5196330   2.7232220
 111.1209100  43.0151620   2.3328330 110.1991800  41.8414220   2.0786090
 105.7828780  42.5905390   8.6101220 105.7166090  41.6701060   8.3558810
 105.1533920  42.6880830   9.3245860  97.1703940  40.1572720   7.4810340
  96.8118880  40.8226570   8.0683680  96.8758500  39.3256270   7.8522960
 100.3717060  40.6156960  10.3649890 100.0717200  40.7614140   9.4677710
 101.1428300  40.0562250  10.2723280 105.7145510  45.4125960   8.3605020
 105.7290050  44.4806920   8.1423930 105.0070610  45.4985720   8.9994790
 111.9256720  42.0533300   7.7073600 111.2004910  42.6462080   7.5102990
 112.4532180  42.0456840   6.9086970 105.1479410  47.0543530   5.4545520
 105.7921630  47.2602910   6.1318940 105.5108850  46.2931930   5.0016370
 106.4211490  45.0575880   4.1722970 107.0633720  44.3569040   4.2855140
 106.9460840  45.8374320   3.9919860 108.1949110  45.8570780   7.3759030
 108.5305350  46.4437470   8.0536950 107.2749450  45.7263490   7.6056820
  95.7452510  33.6465960   8.1582440  95.0311030  33.8462880   8.7635050
  96.1647550  32.8705530   8.5297240  96.0325100  47.6346220   9.1448970
  96.1416220  46.6940960   9.0044360  95.3805660  47.9000970   8.4962700
 104.0237690  45.9062110  10.5447090 103.7034560  45.1871350  11.0892780
 103.3496050  46.5817180  10.6183150 107.2391290  36.1388270   5.9083890
 107.6072110  35.3183480   6.2363460 106.3789490  36.1990160   6.3239540
 104.1993280  38.7927860   6.1321860 104.6978530  39.2673680   6.7973710
 104.3416230  37.8691380   6.3391890 111.4060140  35.0095820   6.9750250
 110.9033740  35.7501220   7.3144060 112.2216800  35.3979820   6.6587040
 111.7007730  47.4237850   2.0965870 111.8255150  48.2469020   2.5689680
 112.5673290  47.2128580   1.7490020  99.1725260  49.5169060   1.7683000
  99.9087740  48.9684520   2.0391570  99.5566180  50.3825070   1.6288990
  98.1783540  48.7015130  10.9568580  98.9796270  49.0227180  11.3703980
  97.6635360  48.3410710  11.6788490 107.0148170  44.8095000  10.9043990
 106.4086330  44.8326600  10.1639740 106.7102280  44.0778040  11.4411240
 108.4448540  48.5375290   9.5153400 109.3970290  48.4533310   9.4653640
 108.2976760  49.2017000  10.1887190  95.8981350  41.1888590   9.9004630
  96.4020370  40.6095870  10.4720860  95.1588770  41.4728820  10.4381000
 102.9519290  42.5959580   9.4340150 102.1864960  43.1644580   9.3494820
 103.1335250  42.3035790   8.5408380 110.0942640  44.3264910   9.9915170
 110.8352110  44.6640670   9.4882630 109.3315320  44.4956970   9.4384940
  97.9304430  39.3318180  10.7954700  97.9709770  39.0332050  11.7039930
  98.7849930  39.7325790  10.6362220  99.8710240  37.9110280   8.7629190
  99.3406700  37.4201230   8.1352530 100.5398310  38.3394480   8.2287120
 108.7688300  42.3779740   8.5270380 109.1829320  42.5324820   9.3760800
 107.8339300  42.5034960   8.6896160 109.2410470  39.7175900  10.5309530
 109.8231240  38.9628220  10.4430010 109.4172240  40.2483340   9.7541010
 100.3582540  34.8772650   8.8426480 100.2639410  34.2593400   8.1177350
  99.7779930  35.6038940   8.6156390 103.1243980  33.4345890   5.8753870
 102.6761280  33.4570150   5.0299420 102.4909180  33.0364910   6.4724170
 103.5303530  42.3300220   6.4966310 103.9491640  43.1732950   6.3242550
 102.6112160  42.4672260   6.2673090 105.8667430  40.0616400   7.8804150
 105.9863640  39.4657540   8.6198990 106.7261430  40.0986090   7.4605450
 108.2055330  40.6153590   6.4566660 107.6790550  41.1396210   5.8531800
 108.5486670  41.2480980   7.0876390 101.3810950  48.6353230   7.6124040
 100.8432040  49.3599290   7.2932740 101.6344910  48.1583570   6.8221380
 102.6336200  36.6037750   9.1379970 103.2235890  36.2953600   9.8257790
 101.8156440  36.1317500   9.2939870 107.4529630  36.2203560   9.3712990
 106.7645150  35.5585100   9.3062980 108.1735650  35.7741830   9.8161450
 104.2373160  49.8704440   7.8710690 104.1631860  50.7739580   8.1783060
 103.3352000  49.5516340   7.8432760  96.1290660  48.0649620   3.9125940
  95.6921650  48.2450420   4.7450090  96.6968340  48.8224240   3.7707660
 111.7652840  47.5666620   8.2003250 111.1654830  47.6259180   7.4567170
 111.8946740  46.6271600   8.3300100 110.4504480  44.2918600   6.2979410
 109.6364320  44.7215760   6.5605200 110.8578680  44.9037010   5.6848460
  96.9991020  40.9622420   4.8118160  97.3664060  40.8749820   5.6914180
  96.4301840  40.1988970   4.7125020 111.7994880  39.4306800   7.8248630
 111.5680970  39.2019550   6.9246580 112.0599430  40.3506350   7.7793520
  96.5507020  37.8731510   8.7176580  95.6563070  37.8398270   9.0570290
  97.0904570  38.0718300   9.4827830 110.2382950  34.6563230  10.6028330
 111.1153130  34.6646630  10.9862330 110.2503790  33.9194070   9.9920680
 111.8635940  38.5932640   5.0135900 110.9138650  38.5596180   5.1280890
 112.0448950  39.5032750   4.7785670  97.0546730  32.1479840   3.0659800
  97.7022920  31.5977220   2.6254960  97.4748570  32.4022990   3.8875610
 110.9499070  32.3421200   6.4229440 111.5871290  32.9555340   6.7888630
 111.0973960  32.3781860   5.4778670  96.8078730  32.3035510   5.8085120
  96.4593550  32.7599330   6.5743300  96.4766430  31.4092640   5.8907550
  98.4143100  45.4755110   9.9738310  98.3712730  45.1048020  10.8552770
  98.5454110  46.4132680  10.1140130 102.1149130  47.0314700   5.5748030
 101.8740490  47.2989260   4.6878550 103.0551770  47.2020430   5.6298890
 104.3203550  33.4947390   9.3304540 104.2592440  34.0869220  10.0799950
 105.2603930  33.3873350   9.1854800 106.9578110  33.1517450   8.9696830
 107.5718520  33.4696740   8.3077910 107.5027670  32.6666040   9.5892690
 113.3753290  49.0509080   6.3758670 112.8811570  49.4477950   5.6585800
 112.7666580  48.4258290   6.7695950  97.4799370  31.8311710   9.0835890
  98.0282360  31.6499760   8.3202000  97.5454680  31.0405820   9.6192200
  98.2531130  48.4217360   7.0936090  97.6591450  48.2902060   7.8326130
  98.2454970  47.5855500   6.6278190 107.6986150  31.7149590   5.2966120
 106.8245990  32.0484700   5.0939050 107.5896900  31.2422770   6.1217990
 108.6058130  33.9220460   6.6807840 108.2771490  33.1072220   6.3009570
 109.5540430  33.8790270   6.5573530 111.0592740  49.6932500   3.6545410
 110.5995710  50.4448310   3.2803430 110.4305200  48.9738970   3.5960210
  97.8843360  45.7875740   6.0444130  97.1577420  45.1681030   5.9770080
  97.9452510  46.1816350   5.1742210 101.4888460  48.0020740   2.8293540
 102.0053480  47.3908100   2.3041800 102.1385840  48.5049520   3.3204550
 104.2283960  48.8929230   3.6562520 104.5161770  48.6383530   2.7795530
 104.7407180  48.3406590   4.2468090 105.4460970  32.6319430   4.2359030
 104.6632760  33.1064930   4.5155790 105.1523900  31.7274260   4.1272210
 109.9982040  33.3342530   2.2808120 110.4390130  33.2787630   1.4329720
 109.7289630  34.2500540   2.3518300 104.2956320  49.8145330  11.0230720
 105.2223630  49.5789600  11.0666680 104.2806750  50.6417330  10.5416750
 101.4819930  32.4790080  10.7872600 101.2004200  32.9823680  10.0233420
 101.8639630  31.6811830  10.4214730 108.0835390  31.8943660  11.3653070
 107.9700840  32.2138270  12.2604590 108.9005130  32.2956170  11.0690350
 110.8633880  49.0415190  10.8471760 111.6559200  48.5464420  10.6397720
 111.1567030  49.7205330  11.4547370 106.9893540  21.1392640 150.6979220
 106.9087590  20.2247250 150.4270930 106.5757960  21.6359710 149.9918930
 105.1211580  22.9171660 152.5788490 104.3453680  22.4372100 152.8687060
 105.7724510  22.2377310 152.4044650 109.1419010  27.3231850 151.3587620
 108.6800540  26.5519090 151.6874790 109.9544560  27.3497920 151.8640070
  97.5469360  18.1893360 147.2406640  96.6586060  18.5309330 147.1386520
  97.8310550  17.9893680 146.3487470  95.5102370  20.7899010 153.1246340
  96.0818480  20.0221210 153.1249980  95.5103910  21.0887770 152.2152950
 105.3682320  29.6089860 150.9791610 104.7493760  30.0647360 150.4086050
 106.2234100  29.7641320 150.5781310 104.5620570  25.5928850 152.5858650
 104.4928850  24.6518790 152.4247780 105.3240430  25.6830260 153.1581220
 105.5925740  18.3999230 152.8127580 105.9690560  17.5271110 152.7001250
 105.4945250  18.7357930 151.9218020  99.7230750  16.7724860 148.2745020
  99.8297500  17.6728590 148.5813780  98.8123110  16.7242830 147.9839670
 109.3749860  15.8949670 149.7455920 110.1959480  15.4046240 149.7881400
 109.4083940  16.4847330 150.4987760 106.2345670  24.4929100 148.3723520
 105.6162940  24.9578550 147.8086240 106.7468920  25.1856580 148.7893030
 109.6111340  17.8350050 152.5183460 108.9066910  18.1234940 153.0986570
 109.9723500  18.6450160 152.1583020  95.6028870  25.1785630 145.7463150
  95.2256850  25.6672730 145.0148050  95.8601940  25.8510910 146.3769680
 103.2117800  13.5802020 151.2048660 103.5192780  13.0248910 150.4884160
 102.2818500  13.7146480 151.0221650 110.0578280  26.0185530 148.5846290
 109.9474610  25.0759860 148.7095710 110.0546530  26.3801170 149.4709050
 105.5998560  21.6450850 147.9408780 104.6727840  21.5788230 148.1697250
 105.7523380  22.5830980 147.8264020 105.5867640  17.9167850 144.9375940
 104.6471310  18.0781810 145.0228400 105.9050900  18.6353530 144.3911930
 109.6295850  23.2071150 148.4444030 109.0108270  22.8690700 147.7970330
 109.6120300  22.5630910 149.1523220 101.2055200  22.1715590 150.7228510
 100.8012200  21.4592840 150.2274410 101.2918320  21.8268830 151.6116550
 101.6736900  25.8583150 152.8867720 101.3765190  25.2528620 152.2075500
 102.6236720  25.8960460 152.7757080 107.8060550  22.4457960 145.4516780
 108.2453830  21.6080390 145.3054600 108.5188970  23.0787360 145.5380920
 105.9155930  27.3854030 149.4198020 106.3551840  28.1278360 149.0053410
 105.8542820  27.6280600 150.3436980 111.3877690  13.7000770 143.7657820
 111.0750350  13.7927600 144.6656890 112.1490160  14.2781800 143.7155250
  97.9059830  21.0660570 148.2235160  97.7857430  21.7922660 147.6116430
  97.5960720  20.2963480 147.7463070  96.7892830  25.9375900 150.4409980
  96.3820910  26.0790490 149.5863580  97.6805840  25.6536060 150.2381190
 108.5826110  30.3723150 146.7761030 108.4227250  30.0826090 147.6742860
 108.4172820  29.5963280 146.2406260 101.0614490  30.1521680 148.5532650
 100.8856970  29.2357220 148.3400450 100.2070230  30.5108970 148.7930450
 108.2852240  27.8810710 145.3359030 107.5917400  27.8788000 144.6761310
 109.0275100  27.4570030 144.9053200 107.8502170  29.5073420 149.4107520
 108.3059120  28.7262800 149.7246140 108.1894690  30.2180240 149.9548700
 100.3723490  14.4095640 151.6058830  99.9291640  15.1905180 151.2743350
 100.9308480  14.7325530 152.3129770 103.4882310  14.0306340 146.4864660
 102.8636490  14.0266210 147.2117970 103.4012430  13.1637300 146.0900630
 100.1637710  19.5329210 149.3340080  99.9378630  19.3166380 150.2386700
  99.3830240  19.9657670 148.9886050 107.3935470  19.5392580 147.9330730
 106.7944360  20.2628380 147.7494350 107.9415080  19.4769360 147.1507180
 106.0000340  18.1756120 149.9634010 106.3929910  18.4928320 149.1502700
 106.3617190  17.2968000 150.0778530  95.0364510  14.7656920 152.1864210
  94.7477560  15.3359780 152.8989190  95.7810270  14.2861370 152.5495440
  95.2234740  18.7077040 143.3966930  95.1409410  19.6507800 143.5381920
  94.8717800  18.5651950 142.5179280 103.0232870  17.4416070 152.4637280
 103.0268930  17.0006020 151.6141820 103.9183990  17.7633400 152.5709100
  98.8735250  17.3242560 151.4231490  98.5335300  17.8017790 152.1798540
  98.1112570  16.8707680 151.0632590 103.0853020  18.4428150 145.4544040
 103.2065840  18.4014630 146.4029860 102.7001530  19.3052300 145.2990770
 102.0974520  20.7529290 144.8527340 101.5291420  20.3047540 144.2263250
 102.8063520  21.1122070 144.3192490  96.1881330  16.2461540 150.3396160
  95.9028250  15.8817210 151.1774780  96.1260190  15.5142000 149.7259300
  99.6422000  24.7487480 147.1253750  98.8684260  24.2085100 146.9652470
 100.3716630  24.2294090 146.7871510 110.4009980  23.7452840 152.9180140
 111.1209100  24.2408130 152.5276250 110.1991800  23.0670730 152.2734010
 105.8619920  15.1390800 147.0609530 105.0484530  14.6403970 146.9854840
 105.6681870  15.9789050 146.6445880 108.5768310  19.5110450 145.3571690
 109.4647930  19.8227680 145.1823030 108.5473400  18.6382700 144.9652270
  99.6859400  24.4167860 150.7632560 100.2038070  23.6136120 150.7089450
  99.2343420  24.3547000 151.6049390 104.5728900  25.6834140 146.0359860
 104.9144600  26.4276370 145.5403180 103.7441610  25.9965260 146.3984690
 110.8482580  20.8222290 144.8251550 110.7646300  21.2536510 143.9747990
 111.5676770  21.2820640 145.2578370 111.8769830  27.6764550 147.5533680
 111.2345990  27.0220170 147.8277400 111.4900490  28.0819640 146.7774350
 107.4556310  25.0049980 151.4005370 107.8080130  24.4078110 150.7406740
 106.5718640  24.6794210 151.5713620 103.5419590  25.7647670 148.8075780
 104.2290720  26.3116880 149.1883370 102.7552010  26.3088400 148.8425390
  95.6811990  21.3820490 144.2992860  96.5506840  21.6645290 144.5828780
  95.1902310  22.1956360 144.1841670 102.8446800  22.7693700 148.4201140
 103.3009580  23.5798950 148.6461330 102.4935010  22.4516840 149.2519630
  98.7458580  13.1131350 148.8923660  98.6173210  13.1049250 149.8408580
  97.9220600  13.4514440 148.5414670 110.2667210  26.5681010 144.0910030
 110.0404790  25.8511450 144.6834670 109.8763410  26.3193450 143.2531780
  96.0483240  30.5947870 144.8654490  96.4080880  31.1937210 144.2111760
  95.9075580  31.1407760 145.6389520 109.8483460  24.4852950 145.7524190
 109.5605160  24.9465640 146.5402070 110.6435630  24.0250720 146.0208410
 102.0651860  27.9779070 145.6828160 102.0561960  28.7108760 145.0672670
 101.1450220  27.7310650 145.7755120  97.6658500  23.1993960 146.4274920
  97.0586450  23.9392860 146.4370220  98.1407850  23.2893320 145.6013120
 110.6053320  16.3201720 146.9119370 109.9766480  16.4247390 146.1977600
 110.1105240  16.5398500 147.7013250 105.0511460  28.0407310 144.3453350
 105.1523440  27.8371300 143.4155330 104.1513200  27.7865590 144.5501130
 102.5737350  18.5987670 148.3277250 101.8653500  19.0674010 148.7690860
 102.8581830  17.9409680 148.9622440 106.6052780  15.3238330 149.7673040
 106.4820560  15.3424460 148.8182550 107.5537340  15.3717270 149.8871440
 103.6929570  30.5593630 149.0401020 103.9471070  30.5215020 148.1180390
 102.7442050  30.4326960 149.0329270 100.7772370  16.9072750 145.7027960
 101.6262900  17.3442900 145.6368150 100.4103640  17.2193010 146.5300020
 109.6982150  21.4785510 150.6159530 108.7572290  21.4935740 150.7907220
 110.0126220  20.6921470 151.0619830  99.6763790  23.1605110 144.1763490
 100.4427060  23.0486470 144.7388920  99.7538480  22.4643080 143.5240260
  98.3710550  20.5930180 144.8596380  98.4514140  19.6457690 144.9713780
  99.2630300  20.9237060 144.9657040 111.7007730  28.6494360 152.2913790
 111.8255150  29.4725530 152.7637600 112.5673290  28.4385090 151.9437940
  99.1725260  30.7425570 151.9630920  99.9087740  30.1941030 152.2339490
  99.5566180  31.6081580 151.8236910  96.0570740  26.8099140 147.8372430
  95.1310520  27.0520280 147.8277840  96.5227170  27.6373400 147.7157180
 102.2827570  29.9155880 143.7856490 103.0756180  30.2044710 143.3338280
 101.7631920  29.4848050 143.1068970 111.3357740  29.1426010 145.2093230
 111.0499250  28.7291150 144.3947410 111.1377290  30.0713720 145.0893750
 102.8004970  25.1359290 143.6498840 102.6955610  24.5211640 144.3760220
 102.6329190  24.6125180 142.8661850 106.0407700  24.1979320 144.2540830
 105.4917800  24.6448620 144.8983570 106.6626960  23.6928570 144.7778500
 101.7082820  23.1570240 146.1506130 102.1299240  22.9910110 146.9937520
 101.8333660  22.3470470 145.6561270 104.2210460  22.1807850 143.3983230
 104.7416120  21.4656870 143.0324380 104.8678860  22.8193720 143.6983740
 100.6041720  19.2303470 143.0964290 100.4030780  18.3670830 143.4577630
 100.4333770  19.1436830 142.1585890 108.0830030  14.0411700 145.6251170
 108.3632320  13.1979600 145.9810590 107.3095760  14.2734810 146.1389920
  99.4024520  16.3304090 143.0842170  99.7050420  16.3371520 142.1761320
 100.1419110  15.9801950 143.5809830 102.6209450  15.2738710 144.0698370
 102.2731450  14.5962700 143.4900820 102.8222220  14.8128220 144.8841760
 104.7858490  30.2619460 145.6884970 105.6809280  30.6004430 145.7103730
 104.8176120  29.5398870 145.0609250  98.4254650  25.6346510 143.9171970
  98.8629520  26.1776180 144.5729550  98.9102380  24.8093460 143.9268310
  95.6400450  28.4235540 151.3692230  95.9703460  27.5556600 151.1370870
  96.0691450  28.6294060 152.1997190 100.2362370  26.7544550 149.0294200
  99.9357910  26.6309520 149.9298110 100.1299860  25.8953140 148.6209930
 113.0054290  26.5340950 143.7320880 112.1747250  26.6017600 144.2028110
 113.1826120  27.4245070 143.4287740 112.4610750  23.2788430 146.2355080
 113.2229660  23.8485080 146.3414770 112.4765120  22.7115630 147.0063390
  95.9615090  21.8026360 150.4662740  95.3063930  21.5338000 149.8222440
  96.7993040  21.6930840 150.0164720 113.4670720  24.1338530 151.0797010
 113.8379550  23.3505850 150.6732980 114.1072650  24.8227630 150.9014310
 112.5129920  23.5722800 143.3927600 112.7878760  24.4801680 143.2646820
 112.3240660  23.5085330 144.3289590 108.9105530  16.5967650 144.6881230
 109.3290410  16.4098630 143.8477890 108.6041590  15.7446700 144.9984160
 112.4095260  21.5091790 148.3857030 112.0338860  20.7419720 147.9538320
 111.6798380  21.8914490 148.8731960  95.1753170  19.0125290 146.4088070
  94.2717250  19.2755490 146.2339730  95.6593790  19.2836460 145.6288030
 111.6846220  19.7349280 151.6864270 112.2083700  19.2411930 151.0554440
 112.2705640  19.8699640 152.4311840  97.7180380  18.0690830 144.3182450
  98.4272080  17.6474050 143.8329730  97.0020320  18.1366060 143.6865800
  97.3654540  14.1230160 143.3585100  98.0882670  14.6639100 143.6766320
  97.6379060  13.8493580 142.4826640 111.1746190  18.9922630 147.6256680
 111.6705310  18.7593500 148.4105560 110.9762260  18.1534470 147.2094320
 112.6033350  17.6283580 150.1594360 112.4932630  17.4739620 151.0976630
 113.3640940  17.1004520 149.9169770 113.4923620  15.4591500 143.4000500
 114.4172930  15.3272680 143.1918790 113.4699410  15.5384320 144.3536950
 113.5662110  16.2302160 146.0257210 112.7713610  16.1647280 146.5550120
 113.7705390  17.1652800 146.0142560 110.5080530  30.2693710 150.0195600
 111.1039600  29.9478280 149.3430020 110.7658680  29.7965530 150.8108870
 109.9982040  14.5599040 152.4756040 110.4390130  14.5044140 151.6277640
 109.7289630  15.4757050 152.5466220 111.8620610  14.1914280 150.4864860
 111.8009010  13.2475500 150.3395880 112.6412640  14.2994370 151.0318320
  96.1673360  30.3306640 149.4488810  95.9995400  29.6977320 150.1470700
  95.3007870  30.5366040 149.0983000  96.7901380  14.1623420 146.9520670
  97.5480740  14.2752300 146.3784700  96.3278550  14.9992620 146.9064100
 103.3315190  16.2762690 149.9422980 102.5189700  15.9019580 149.6018860
 103.8356830  15.5207770 150.2444170 107.8340170  12.9405140 151.1806050
 108.4369540  13.5125350 151.6554570 107.0933160  13.5044580 150.9579950
 110.9774770  13.3426700 146.4546330 111.1725400  14.2410150 146.7213760
 110.1904640  13.1113780 146.9479280  97.7736060  29.0239870 146.8938950
  97.2483680  29.4047900 146.1900910  97.6980640  29.6490640 147.6148660
  99.1626530  14.6887470 145.4922640  99.6919290  13.9017270 145.3630590
  99.7954850  15.3678660 145.7258170 101.3564370  14.4262610 148.5468030
 100.7267110  13.7249920 148.7138160 100.8169510  15.1866740 148.3301190
 112.5301380  30.5827410 148.2152890 112.7053570  29.8965150 147.5713810
 111.8322950  31.1074460 147.8229560 100.3729030  30.9722250 145.7688200
 101.1047850  30.6881530 145.2212090 100.6322700  30.7335530 146.6587580
  99.5343820  27.0886980 145.7734530  98.9052700  27.5572080 146.3220360
  99.6491650  26.2436200 146.2080720 106.9893540  21.1392640 131.9235730
 106.9087590  20.2247250 131.6527440 106.5757960  21.6359710 131.2175440
 105.1211580  22.9171660 133.8045000 104.3453680  22.4372100 134.0943570
 105.7724510  22.2377310 133.6301160  99.1377410  23.2291470 134.6820760
  98.3062290  22.9740180 135.0817270  99.7458390  23.3002240 135.4178680
 109.1419010  27.3231850 132.5844130 108.6800540  26.5519090 132.9131300
 109.9544560  27.3497920 133.0896580  99.1178670  27.2631560 134.8778780
  99.4206710  26.3729300 134.6989000  99.8622260  27.8201780 134.6501030
  97.5469360  18.1893360 128.4663150  96.6586060  18.5309330 128.3643030
  97.8310550  17.9893680 127.5743980  95.5102370  20.7899010 134.3502850
  96.0818480  20.0221210 134.3506490  95.5103910  21.0887770 133.4409460
 105.3682320  29.6089860 132.2048120 104.7493760  30.0647360 131.6342560
 106.2234100  29.7641320 131.8037820 104.5620570  25.5928850 133.8115160
 104.4928850  24.6518790 133.6504290 105.3240430  25.6830260 134.3837730
  96.7527240  16.1983370 136.1371780  96.5730080  15.3009120 136.4174540
  96.3507320  16.7455240 136.8118730 105.5925740  18.3999230 134.0384090
 105.9690560  17.5271110 133.9257760 105.4945250  18.7357930 133.1474530
  99.7230750  16.7724860 129.5001530  99.8297500  17.6728590 129.8070290
  98.8123110  16.7242830 129.2096180 109.3749860  15.8949670 130.9712430
 110.1959480  15.4046240 131.0137910 109.4083940  16.4847330 131.7244270
  97.3713910  18.6943870 134.7454120  98.0524020  18.9582240 135.3641520
  97.0561960  17.8544740 135.0792130 101.5638480  19.7411230 133.8326710
 102.0716700  20.2392200 134.4731730 102.0951720  18.9646430 133.6566070
 113.6649410  17.9116420 137.5356060 112.9601580  18.2998130 137.0171170
 113.9307330  18.6066710 138.1376990  99.8474580  14.3809790 138.0990130
  99.8493020  14.8982180 137.2936030  99.0178890  13.9039970 138.0760060
 106.2345670  24.4929100 129.5980030 105.6162940  24.9578550 129.0342750
 106.7468920  25.1856580 130.0149540 101.0977430  24.0204970 136.2763630
 100.7646810  24.6473890 136.9184700 101.2744110  24.5466850 135.4965300
 109.6111340  17.8350050 133.7439970 108.9066910  18.1234940 134.3243080
 109.9723500  18.6450160 133.3839530  99.5289910  16.0919750 136.1060580
  99.8706720  16.9361800 135.8114450  98.5905720  16.2403490 136.2225920
 100.3096530  25.9885770 138.0912810 100.9270530  26.6636850 137.8097260
  99.4489650  26.3973750 138.0000310  95.6028870  25.1785630 126.9719660
  95.2256850  25.6672730 126.2404560  95.8601940  25.8510910 127.6026190
 111.2274120  27.4525180 136.0067450 110.5437640  28.1224290 135.9984120
 111.7668410  27.6505830 135.2412310 112.6798260  17.2804840 134.1349180
 111.7323170  17.3143820 134.2664610 113.0048250  18.0943790 134.5198540
 103.2117800  13.5802020 132.4305170 103.5192780  13.0248910 131.7140670
 102.2818500  13.7146480 132.2478160 108.7632860  29.2969310 134.7212630
 108.7760020  28.8931600 133.8534890 108.2108080  30.0716600 134.6174060
 110.0578280  26.0185530 129.8102800 109.9474610  25.0759860 129.9352220
 110.0546530  26.3801170 130.6965560 108.1618300  24.1999150 136.0495240
 108.5787090  23.9859260 135.2148700 108.8858120  24.4571940 136.6203860
 105.5998560  21.6450850 129.1665290 104.6727840  21.5788230 129.3953760
 105.7523380  22.5830980 129.0520530 105.5867640  17.9167850 126.1632450
 104.6471310  18.0781810 126.2484910 105.9050900  18.6353530 125.6168440
 112.1080400  22.5986370 136.1411480 111.2799030  22.6679460 135.6661610
 112.7030880  23.1840680 135.6727310 109.6295850  23.2071150 129.6700540
 109.0108270  22.8690700 129.0226840 109.6120300  22.5630910 130.3779730
 109.0722410  19.3855690 137.0866350 108.6593590  20.2109400 137.3406340
 108.3398360  18.8000730 136.8942710 101.2055200  22.1715590 131.9485020
 100.8012200  21.4592840 131.4530920 101.2918320  21.8268830 132.8373060
 101.6736900  25.8583150 134.1124230 101.3765190  25.2528620 133.4332010
 102.6236720  25.8960460 134.0013590  99.9183820  18.9458800 135.7284060
 100.4698410  19.0554140 134.9537310 100.4327330  19.3196400 136.4439290
 109.7622510  29.4315020 137.7747330 109.2853070  30.2387210 137.5819940
 109.0784300  28.7793350 137.9273540 100.7655330  25.5964840 140.7632030
  99.8683860  25.8204810 141.0105430 100.7908200  25.7199780 139.8143430
 107.8060550  22.4457960 126.6773290 108.2453830  21.6080390 126.5311110
 108.5188970  23.0787360 126.7637430  99.5926550  22.4678160 139.3389400
  99.4534320  23.3400960 139.7076800  98.7107910  22.1250970 139.1937340
 105.9155930  27.3854030 130.6454530 106.3551840  28.1278360 130.2309920
 105.8542820  27.6280600 131.5693490 101.3906900  28.4099860 141.5474550
 101.3622330  28.8142810 140.6802980 101.2271870  27.4810220 141.3846150
 111.3877690  13.7000770 124.9914330 111.0750350  13.7927600 125.8913400
 112.1490160  14.2781800 124.9411760  97.9059830  21.0660570 129.4491670
  97.7857430  21.7922660 128.8372940  97.5960720  20.2963480 128.9719580
 113.3421720  29.1926960 142.8438720 113.8181440  29.6709850 143.5227800
 113.9628880  29.1244450 142.1184220  95.5445200  24.2375710 135.2560310
  95.6225620  24.3724480 134.3116030  96.1586880  23.5291600 135.4488430
  96.7892830  25.9375900 131.6666490  96.3820910  26.0790490 130.8120090
  97.6805840  25.6536060 131.4637700 112.7454970  26.3839810 140.0038730
 112.8718030  26.1451690 139.0855910 112.7876350  25.5524350 140.4760810
 106.6071710  30.0867810 138.5733540 107.1216380  29.9975820 139.3755970
 105.7640790  30.4327510 138.8661450 108.5826110  30.3723150 128.0017540
 108.4227250  30.0826090 128.8999370 108.4172820  29.5963280 127.4662770
 101.0614490  30.1521680 129.7789160 100.8856970  29.2357220 129.5656960
 100.2070230  30.5108970 130.0186960 108.2852240  27.8810710 126.5615540
 107.5917400  27.8788000 125.9017820 109.0275100  27.4570030 126.1309710
 107.8502170  29.5073420 130.6364030 108.3059120  28.7262800 130.9502650
 108.1894690  30.2180240 131.1805210 112.5978980  18.4372270 140.9688470
 111.9823250  18.9451940 140.4403930 112.2775400  17.5370600 140.9114410
  95.6004720  25.2789880 137.7954770  95.7635760  24.8095240 136.9774140
  96.0657170  24.7713440 138.4603610 100.3723490  14.4095640 132.8315340
  99.9291640  15.1905180 132.4999860 100.9308480  14.7325530 133.5386280
 104.6593300  17.2764160 138.4350660 104.1972670  17.4847180 139.2470600
 104.2571410  16.4623510 138.1321330 109.6597810  18.4973110 139.5647320
 108.8091400  18.1978860 139.8856390 109.4999600  18.7415120 138.6531140
 106.7547520  19.9974860 141.6646110 107.0800930  19.1638610 141.3248340
 107.5427850  20.5203380 141.8124440 103.4882310  14.0306340 127.7121170
 102.8636490  14.0266210 128.4374480 103.4012430  13.1637300 127.3157140
 102.4099390  14.9542970 134.6904940 102.7071720  15.8605800 134.6096960
 102.9584950  14.4661750 134.0764510 100.1637710  19.5329210 130.5596590
  99.9378630  19.3166380 131.4643210  99.3830240  19.9657670 130.2142560
 107.3935470  19.5392580 129.1587240 106.7944360  20.2628380 128.9750860
 107.9415080  19.4769360 128.3763690 102.6036920  20.4314790 141.2256860
 102.5080520  19.4909520 141.0757260 103.4468900  20.6529860 140.8304930
 106.0000340  18.1756120 131.1890520 106.3929910  18.4928320 130.3759210
 106.3617190  17.2968000 131.3035040  97.7347460  16.8428460 139.3790640
  97.3410850  17.6903670 139.5863420  97.0465860  16.2054830 139.5699280
 104.3092510  16.9263430 142.4487380 103.6190830  16.7335630 143.0833470
 105.0524810  17.2098070 142.9811680  95.0364510  14.7656920 133.4120720
  94.7477560  15.3359780 134.1245700  95.7810270  14.2861370 133.7751950
  95.2234740  18.7077040 124.6223440  95.1409410  19.6507800 124.7638430
  94.8717800  18.5651950 123.7435790 106.5855480  20.7661870 135.2841300
 105.8536600  21.2748680 135.6331400 106.1879820  19.9491850 134.9830080
 103.0232870  17.4416070 133.6893790 103.0268930  17.0006020 132.8398330
 103.9183990  17.7633400 133.7965610  98.8735250  17.3242560 132.6488000
  98.5335300  17.8017790 133.4055050  98.1112570  16.8707680 132.2889100
 103.0853020  18.4428150 126.6800550 103.2065840  18.4014630 127.6286370
 102.7001530  19.3052300 126.5247280 107.0481390  16.2195550 134.6964240
 107.0654130  16.6704200 135.5406090 106.7996970  15.3201190 134.9097680
 102.0974520  20.7529290 126.0783850 101.5291420  20.3047540 125.4519760
 102.8063520  21.1122070 125.5449000 110.4752140  13.6327730 140.5350620
 110.7997910  12.9017390 141.0608600 110.5108650  13.3141370 139.6331610
  97.1743700  24.6541310 139.9550580  96.7898490  24.0134980 140.5533540
  97.4855890  25.3577430 140.5245310 103.3240840  21.5017850 135.4359200
 103.6910970  21.0276420 136.1820540 103.1345900  22.3759420 135.7767540
  96.1881330  16.2461540 131.5652670  95.9028250  15.8817210 132.4031290
  96.1260190  15.5142000 130.9515810 101.1140210  20.5426490 137.7543410
 100.8097280  21.4218470 137.9793770 102.0686670  20.6026280 137.7900850
  99.6422000  24.7487480 128.3510260  98.8684260  24.2085100 128.1908980
 100.3716630  24.2294090 128.0128020 110.4009980  23.7452840 134.1436650
 111.1209100  24.2408130 133.7532760 110.1991800  23.0670730 133.4990520
 105.8619920  15.1390800 128.2866040 105.0484530  14.6403970 128.2111350
 105.6681870  15.9789050 127.8702390 105.7828780  23.8161900 140.0305650
 105.7166090  22.8957570 139.7763240 105.1533920  23.9137340 140.7450290
 108.5768310  19.5110450 126.5828200 109.4647930  19.8227680 126.4079540
 108.5473400  18.6382700 126.1908780  99.6859400  24.4167860 131.9889070
 100.2038070  23.6136120 131.9345960  99.2343420  24.3547000 132.8305900
 104.5728900  25.6834140 127.2616370 104.9144600  26.4276370 126.7659690
 103.7441610  25.9965260 127.6241200  97.1703940  21.3829230 138.9014770
  96.8118880  22.0483080 139.4888110  96.8758500  20.5512780 139.2727390
 100.3717060  21.8413470 141.7854320 100.0717200  21.9870650 140.8882140
 101.1428300  21.2818760 141.6927710 105.7145510  26.6382470 139.7809450
 105.7290050  25.7063430 139.5628360 105.0070610  26.7242230 140.4199220
 110.8482580  20.8222290 126.0508060 110.7646300  21.2536510 125.2004500
 111.5676770  21.2820640 126.4834880 111.9256720  23.2789810 139.1278030
 111.2004910  23.8718590 138.9307420 112.4532180  23.2713350 138.3291400
 111.8769830  27.6764550 128.7790190 111.2345990  27.0220170 129.0533910
 111.4900490  28.0819640 128.0030860 107.4556310  25.0049980 132.6261880
 107.8080130  24.4078110 131.9663250 106.5718640  24.6794210 132.7970130
 103.5419590  25.7647670 130.0332290 104.2290720  26.3116880 130.4139880
 102.7552010  26.3088400 130.0681900  95.6811990  21.3820490 125.5249370
  96.5506840  21.6645290 125.8085290  95.1902310  22.1956360 125.4098180
 102.8446800  22.7693700 129.6457650 103.3009580  23.5798950 129.8717840
 102.4935010  22.4516840 130.4776140 105.1479410  28.2800040 136.8749950
 105.7921630  28.4859420 137.5523370 105.5108850  27.5188440 136.4220800
  98.7458580  13.1131350 130.1180170  98.6173210  13.1049250 131.0665090
  97.9220600  13.4514440 129.7671180 106.4211490  26.2832390 135.5927400
 107.0633720  25.5825550 135.7059570 106.9460840  27.0630830 135.4124290
 110.2667210  26.5681010 125.3166540 110.0404790  25.8511450 125.9091180
 109.8763410  26.3193450 124.4788290 108.1949110  27.0827290 138.7963460
 108.5305350  27.6693980 139.4741380 107.2749450  26.9520000 139.0261250
  96.0483240  30.5947870 126.0911000  96.4080880  31.1937210 125.4368270
  95.9075580  31.1407760 126.8646030  95.7452510  14.8722470 139.5786870
  95.0311030  15.0719390 140.1839480  96.1647550  14.0962040 139.9501670
 109.8483460  24.4852950 126.9780700 109.5605160  24.9465640 127.7658580
 110.6435630  24.0250720 127.2464920  96.0325100  28.8602730 140.5653400
  96.1416220  27.9197470 140.4248790  95.3805660  29.1257480 139.9167130
 104.0237690  27.1318620 141.9651520 103.7034560  26.4127860 142.5097210
 103.3496050  27.8073690 142.0387580 102.0651860  27.9779070 126.9084670
 102.0561960  28.7108760 126.2929180 101.1450220  27.7310650 127.0011630
  97.6658500  23.1993960 127.6531430  97.0586450  23.9392860 127.6626730
  98.1407850  23.2893320 126.8269630 107.2391290  17.3644780 137.3288320
 107.6072110  16.5439990 137.6567890 106.3789490  17.4246670 137.7443970
 110.6053320  16.3201720 128.1375880 109.9766480  16.4247390 127.4234110
 110.1105240  16.5398500 128.9269760 105.0511460  28.0407310 125.5709860
 105.1523440  27.8371300 124.6411840 104.1513200  27.7865590 125.7757640
 102.5737350  18.5987670 129.5533760 101.8653500  19.0674010 129.9947370
 102.8581830  17.9409680 130.1878950 104.1993280  20.0184370 137.5526290
 104.6978530  20.4930190 138.2178140 104.3416230  19.0947890 137.7596320
 106.6052780  15.3238330 130.9929550 106.4820560  15.3424460 130.0439060
 107.5537340  15.3717270 131.1127950 103.6929570  30.5593630 130.2657530
 103.9471070  30.5215020 129.3436900 102.7442050  30.4326960 130.2585780
 100.7772370  16.9072750 126.9284470 101.6262900  17.3442900 126.8624660
 100.4103640  17.2193010 127.7556530 111.4060140  16.2352330 138.3954680
 110.9033740  16.9757730 138.7348490 112.2216800  16.6236330 138.0791470
 109.6982150  21.4785510 131.8416040 108.7572290  21.4935740 132.0163730
 110.0126220  20.6921470 132.2876340  99.6763790  23.1605110 125.4020000
 100.4427060  23.0486470 125.9645430  99.7538480  22.4643080 124.7496770
  98.3710550  20.5930180 126.0852890  98.4514140  19.6457690 126.1970290
  99.2630300  20.9237060 126.1913550 111.7007730  28.6494360 133.5170300
 111.8255150  29.4725530 133.9894110 112.5673290  28.4385090 133.1694450
  99.1725260  30.7425570 133.1887430  99.9087740  30.1941030 133.4596000
  99.5566180  31.6081580 133.0493420  96.0570740  26.8099140 129.0628940
  95.1310520  27.0520280 129.0534350  96.5227170  27.6373400 128.9413690
  98.1783540  29.9271640 142.3773010  98.9796270  30.2483690 142.7908410
  97.6635360  29.5667220 143.0992920 102.2827570  29.9155880 125.0113000
 103.0756180  30.2044710 124.5594790 101.7631920  29.4848050 124.3325480
 107.0148170  26.0351510 142.3248420 106.4086330  26.0583110 141.5844170
 106.7102280  25.3034550 142.8615670 108.4448540  29.7631800 140.9357830
 109.3970290  29.6789820 140.8858070 108.2976760  30.4273510 141.6091620
 111.3357740  29.1426010 126.4349740 111.0499250  28.7291150 125.6203920
 111.1377290  30.0713720 126.3150260  95.8981350  22.4145100 141.3209060
  96.4020370  21.8352380 141.8925290  95.1588770  22.6985330 141.8585430
 102.8004970  25.1359290 124.8755350 102.6955610  24.5211640 125.6016730
 102.6329190  24.6125180 124.0918360 102.9519290  23.8216090 140.8544580
 102.1864960  24.3901090 140.7699250 103.1335250  23.5292300 139.9612810
 106.0407700  24.1979320 125.4797340 105.4917800  24.6448620 126.1240080
 106.6626960  23.6928570 126.0035010 110.0942640  25.5521420 141.4119600
 110.8352110  25.8897180 140.9087060 109.3315320  25.7213480 140.8589370
  97.9304430  20.5574690 142.2159130  97.9709770  20.2588560 143.1244360
  98.7849930  20.9582300 142.0566650 101.7082820  23.1570240 127.3762640
 102.1299240  22.9910110 128.2194030 101.8333660  22.3470470 126.8817780
  99.8710240  19.1366790 140.1833620  99.3406700  18.6457740 139.5556960
 100.5398310  19.5650990 139.6491550 104.2210460  22.1807850 124.6239740
 104.7416120  21.4656870 124.2580890 104.8678860  22.8193720 124.9240250
 108.7688300  23.6036250 139.9474810 109.1829320  23.7581330 140.7965230
 107.8339300  23.7291470 140.1100590 109.2410470  20.9432410 141.9513960
 109.8231240  20.1884730 141.8634440 109.4172240  21.4739850 141.1745440
 100.3582540  16.1029160 140.2630910 100.2639410  15.4849910 139.5381780
  99.7779930  16.8295450 140.0360820 103.1243980  14.6602400 137.2958300
 102.6761280  14.6826660 136.4503850 102.4909180  14.2621420 137.8928600
 103.5303530  23.5556730 137.9170740 103.9491640  24.3989460 137.7446980
 102.6112160  23.6928770 137.6877520 105.8667430  21.2872910 139.3008580
 105.9863640  20.6914050 140.0403420 106.7261430  21.3242600 138.8809880
 108.2055330  21.8410100 137.8771090 107.6790550  22.3652720 137.2736230
 108.5486670  22.4737490 138.5080820 100.6041720  19.2303470 124.3220800
 100.4030780  18.3670830 124.6834140 100.4333770  19.1436830 123.3842400
 101.3810950  29.8609740 139.0328470 100.8432040  30.5855800 138.7137170
 101.6344910  29.3840080 138.2425810 102.6336200  17.8294260 140.5584400
 103.2235890  17.5210110 141.2462220 101.8156440  17.3574010 140.7144300
 107.4529630  17.4460070 140.7917420 106.7645150  16.7841610 140.7267410
 108.1735650  16.9998340 141.2365880 108.0830030  14.0411700 126.8507680
 108.3632320  13.1979600 127.2067100 107.3095760  14.2734810 127.3646430
  99.4024520  16.3304090 124.3098680  99.7050420  16.3371520 123.4017830
 100.1419110  15.9801950 124.8066340 104.2373160  31.0960950 139.2915120
 104.1631860  31.9996090 139.5987490 103.3352000  30.7772850 139.2637190
 102.6209450  15.2738710 125.2954880 102.2731450  14.5962700 124.7157330
 102.8222220  14.8128220 126.1098270 104.7858490  30.2619460 126.9141480
 105.6809280  30.6004430 126.9360240 104.8176120  29.5398870 126.2865760
  98.4254650  25.6346510 125.1428480  98.8629520  26.1776180 125.7986060
  98.9102380  24.8093460 125.1524820  95.6400450  28.4235540 132.5948740
  95.9703460  27.5556600 132.3627380  96.0691450  28.6294060 133.4253700
 100.2362370  26.7544550 130.2550710  99.9357910  26.6309520 131.1554620
 100.1299860  25.8953140 129.8466440  96.1290660  29.2906130 135.3330370
  95.6921650  29.4706930 136.1654520  96.6968340  30.0480750 135.1912090
 111.7652840  28.7923130 139.6207680 111.1654830  28.8515690 138.8771600
 111.8946740  27.8528110 139.7504530 113.0054290  26.5340950 124.9577390
 112.1747250  26.6017600 125.4284620 113.1826120  27.4245070 124.6544250
 112.4610750  23.2788430 127.4611590 113.2229660  23.8485080 127.5671280
 112.4765120  22.7115630 128.2319900  95.9615090  21.8026360 131.6919250
  95.3063930  21.5338000 131.0478950  96.7993040  21.6930840 131.2421230
 113.4670720  24.1338530 132.3053520 113.8379550  23.3505850 131.8989490
 114.1072650  24.8227630 132.1270820 110.4504480  25.5175110 137.7183840
 109.6364320  25.9472270 137.9809630 110.8578680  26.1293520 137.1052890
 112.5129920  23.5722800 124.6184110 112.7878760  24.4801680 124.4903330
 112.3240660  23.5085330 125.5546100 108.9105530  16.5967650 125.9137740
 109.3290410  16.4098630 125.0734400 108.6041590  15.7446700 126.2240670
 112.4095260  21.5091790 129.6113540 112.0338860  20.7419720 129.1794830
 111.6798380  21.8914490 130.0988470  96.9991020  22.1878930 136.2322590
  97.3664060  22.1006330 137.1118610  96.4301840  21.4245480 136.1329450
 111.7994880  20.6563310 139.2453060 111.5680970  20.4276060 138.3451010
 112.0599430  21.5762860 139.1997950  96.5507020  19.0988020 140.1381010
  95.6563070  19.0654780 140.4774720  97.0904570  19.2974810 140.9032260
 110.2382950  15.8819740 142.0232760 111.1153130  15.8903140 142.4066760
 110.2503790  15.1450580 141.4125110  95.1753170  19.0125290 127.6344580
  94.2717250  19.2755490 127.4596240  95.6593790  19.2836460 126.8544540
 111.6846220  19.7349280 132.9120780 112.2083700  19.2411930 132.2810950
 112.2705640  19.8699640 133.6568350 111.8635940  19.8189150 136.4340330
 110.9138650  19.7852690 136.5485320 112.0448950  20.7289260 136.1990100
  97.7180380  18.0690830 125.5438960  98.4272080  17.6474050 125.0586240
  97.0020320  18.1366060 124.9122310  97.3654540  14.1230160 124.5841610
  98.0882670  14.6639100 124.9022830  97.6379060  13.8493580 123.7083150
 111.1746190  18.9922630 128.8513190 111.6705310  18.7593500 129.6362070
 110.9762260  18.1534470 128.4350830  97.0546730  13.3736350 134.4864230
  97.7022920  12.8233730 134.0459390  97.4748570  13.6279500 135.3080040
 112.6033350  17.6283580 131.3850870 112.4932630  17.4739620 132.3233140
 113.3640940  17.1004520 131.1426280 110.9499070  13.5677710 137.8433870
 111.5871290  14.1811850 138.2093060 111.0973960  13.6038370 136.8983100
 113.4923620  15.4591500 124.6257010 114.4172930  15.3272680 124.4175300
 113.4699410  15.5384320 125.5793460 113.5662110  16.2302160 127.2513720
 112.7713610  16.1647280 127.7806630 113.7705390  17.1652800 127.2399070
 110.5080530  30.2693710 131.2452110 111.1039600  29.9478280 130.5686530
 110.7658680  29.7965530 132.0365380  96.8078730  13.5292020 137.2289550
  96.4593550  13.9855840 137.9947730  96.4766430  12.6349150 137.3111980
  98.4143100  26.7011620 141.3942740  98.3712730  26.3304530 142.2757200
  98.5454110  27.6389190 141.5344560 102.1149130  28.2571210 136.9952460
 101.8740490  28.5245770 136.1082980 103.0551770  28.4276940 137.0503320
 104.3203550  14.7203900 140.7508970 104.2592440  15.3125730 141.5004380
 105.2603930  14.6129860 140.6059230 106.9578110  14.3773960 140.3901260
 107.5718520  14.6953250 139.7282340 107.5027670  13.8922550 141.0097120
 113.3753290  30.2765590 137.7963100 112.8811570  30.6734460 137.0790230
 112.7666580  29.6514800 138.1900380  97.4799370  13.0568220 140.5040320
  98.0282360  12.8756270 139.7406430  97.5454680  12.2662330 141.0396630
  98.2531130  29.6473870 138.5140520  97.6591450  29.5158570 139.2530560
  98.2454970  28.8112010 138.0482620 107.6986150  12.9406100 136.7170550
 106.8245990  13.2741210 136.5143480 107.5896900  12.4679280 137.5422420
 108.6058130  15.1476970 138.1012270 108.2771490  14.3328730 137.7214000
 109.5540430  15.1046780 137.9777960 111.0592740  30.9189010 135.0749840
 110.5995710  31.6704820 134.7007860 110.4305200  30.1995480 135.0164640
  97.8843360  27.0132250 137.4648560  97.1577420  26.3937540 137.3974510
  97.9452510  27.4072860 136.5946640 101.4888460  29.2277250 134.2497970
 102.0053480  28.6164610 133.7246230 102.1385840  29.7306030 134.7408980
 104.2283960  30.1185740 135.0766950 104.5161770  29.8640040 134.1999960
 104.7407180  29.5663100 135.6672520 105.4460970  13.8575940 135.6563460
 104.6632760  14.3321440 135.9360220 105.1523900  12.9530770 135.5476640
 109.9982040  14.5599040 133.7012550 110.4390130  14.5044140 132.8534150
 109.7289630  15.4757050 133.7722730 111.8620610  14.1914280 131.7121370
 111.8009010  13.2475500 131.5652390 112.6412640  14.2994370 132.2574830
  96.1673360  30.3306640 130.6745320  95.9995400  29.6977320 131.3727210
  95.3007870  30.5366040 130.3239510  96.7901380  14.1623420 128.1777180
  97.5480740  14.2752300 127.6041210  96.3278550  14.9992620 128.1320610
 103.3315190  16.2762690 131.1679490 102.5189700  15.9019580 130.8275370
 103.8356830  15.5207770 131.4700680 107.8340170  12.9405140 132.4062560
 108.4369540  13.5125350 132.8811080 107.0933160  13.5044580 132.1836460
 110.9774770  13.3426700 127.6802840 111.1725400  14.2410150 127.9470270
 110.1904640  13.1113780 128.1735790  97.7736060  29.0239870 128.1195460
  97.2483680  29.4047900 127.4157420  97.6980640  29.6490640 128.8405170
  99.1626530  14.6887470 126.7179150  99.6919290  13.9017270 126.5887100
  99.7954850  15.3678660 126.9514680 101.3564370  14.4262610 129.7724540
 100.7267110  13.7249920 129.9394670 100.8169510  15.1866740 129.5557700
 104.2956320  31.0401840 142.4435150 105.2223630  30.8046110 142.4871110
 104.2806750  31.8673840 141.9621180 112.5301380  30.5827410 129.4409400
 112.7053570  29.8965150 128.7970320 111.8322950  31.1074460 129.0486070
 101.4819930  13.7046590 142.2077030 101.2004200  14.2080190 141.4437850
 101.8639630  12.9068340 141.8419160 100.3729030  30.9722250 126.9944710
 101.1047850  30.6881530 126.4468600 100.6322700  30.7335530 127.8844090
  99.5343820  27.0886980 126.9991040  98.9052700  27.5572080 127.5476870
  99.6491650  26.2436200 127.4337230 108.0835390  13.1200170 142.7857500
 107.9700840  13.4394780 143.6809020 108.9005130  13.5212680 142.4894780
 110.8633880  30.2671700 142.2676190 111.6559200  29.7720930 142.0602150
 111.1567030  30.9461840 142.8751800 106.9893540  21.1392640 113.1492240
 106.9087590  20.2247250 112.8783950 106.5757960  21.6359710 112.4431950
 105.1211580  22.9171660 115.0301510 104.3453680  22.4372100 115.3200080
 105.7724510  22.2377310 114.8557670  99.1377410  23.2291470 115.9077270
  98.3062290  22.9740180 116.3073780  99.7458390  23.3002240 116.6435190
 109.1419010  27.3231850 113.8100640 108.6800540  26.5519090 114.1387810
 109.9544560  27.3497920 114.3153090  99.1178670  27.2631560 116.1035290
  99.4206710  26.3729300 115.9245510  99.8622260  27.8201780 115.8757540
  97.5469360  18.1893360 109.6919660  96.6586060  18.5309330 109.5899540
  97.8310550  17.9893680 108.8000490  95.5102370  20.7899010 115.5759360
  96.0818480  20.0221210 115.5763000  95.5103910  21.0887770 114.6665970
 105.3682320  29.6089860 113.4304630 104.7493760  30.0647360 112.8599070
 106.2234100  29.7641320 113.0294330 104.5620570  25.5928850 115.0371670
 104.4928850  24.6518790 114.8760800 105.3240430  25.6830260 115.6094240
  96.7527240  16.1983370 117.3628290  96.5730080  15.3009120 117.6431050
  96.3507320  16.7455240 118.0375240 105.5925740  18.3999230 115.2640600
 105.9690560  17.5271110 115.1514270 105.4945250  18.7357930 114.3731040
  99.7230750  16.7724860 110.7258040  99.8297500  17.6728590 111.0326800
  98.8123110  16.7242830 110.4352690 109.3749860  15.8949670 112.1968940
 110.1959480  15.4046240 112.2394420 109.4083940  16.4847330 112.9500780
  97.3713910  18.6943870 115.9710630  98.0524020  18.9582240 116.5898030
  97.0561960  17.8544740 116.3048640 101.5638480  19.7411230 115.0583220
 102.0716700  20.2392200 115.6988240 102.0951720  18.9646430 114.8822580
 113.6649410  17.9116420 118.7612570 112.9601580  18.2998130 118.2427680
 113.9307330  18.6066710 119.3633500  99.8474580  14.3809790 119.3246640
  99.8493020  14.8982180 118.5192540  99.0178890  13.9039970 119.3016570
 106.2345670  24.4929100 110.8236540 105.6162940  24.9578550 110.2599260
 106.7468920  25.1856580 111.2406050 101.0977430  24.0204970 117.5020140
 100.7646810  24.6473890 118.1441210 101.2744110  24.5466850 116.7221810
 109.6111340  17.8350050 114.9696480 108.9066910  18.1234940 115.5499590
 109.9723500  18.6450160 114.6096040  99.5289910  16.0919750 117.3317090
  99.8706720  16.9361800 117.0370960  98.5905720  16.2403490 117.4482430
 100.3096530  25.9885770 119.3169320 100.9270530  26.6636850 119.0353770
  99.4489650  26.3973750 119.2256820 111.2274120  27.4525180 117.2323960
 110.5437640  28.1224290 117.2240630 111.7668410  27.6505830 116.4668820
 112.6798260  17.2804840 115.3605690 111.7323170  17.3143820 115.4921120
 113.0048250  18.0943790 115.7455050 103.2117800  13.5802020 113.6561680
 103.5192780  13.0248910 112.9397180 102.2818500  13.7146480 113.4734670
 108.7632860  29.2969310 115.9469140 108.7760020  28.8931600 115.0791400
 108.2108080  30.0716600 115.8430570 110.0578280  26.0185530 111.0359310
 109.9474610  25.0759860 111.1608730 110.0546530  26.3801170 111.9222070
 108.1618300  24.1999150 117.2751750 108.5787090  23.9859260 116.4405210
 108.8858120  24.4571940 117.8460370 105.5998560  21.6450850 110.3921800
 104.6727840  21.5788230 110.6210270 105.7523380  22.5830980 110.2777040
 105.5867640  17.9167850 107.3888960 104.6471310  18.0781810 107.4741420
 105.9050900  18.6353530 106.8424950 112.1080400  22.5986370 117.3667990
 111.2799030  22.6679460 116.8918120 112.7030880  23.1840680 116.8983820
 109.6295850  23.2071150 110.8957050 109.0108270  22.8690700 110.2483350
 109.6120300  22.5630910 111.6036240 109.0722410  19.3855690 118.3122860
 108.6593590  20.2109400 118.5662850 108.3398360  18.8000730 118.1199220
 101.2055200  22.1715590 113.1741530 100.8012200  21.4592840 112.6787430
 101.2918320  21.8268830 114.0629570 101.6736900  25.8583150 115.3380740
 101.3765190  25.2528620 114.6588520 102.6236720  25.8960460 115.2270100
  99.9183820  18.9458800 116.9540570 100.4698410  19.0554140 116.1793820
 100.4327330  19.3196400 117.6695800 109.7622510  29.4315020 119.0003840
 109.2853070  30.2387210 118.8076450 109.0784300  28.7793350 119.1530050
 100.7655330  25.5964840 121.9888540  99.8683860  25.8204810 122.2361940
 100.7908200  25.7199780 121.0399940 107.8060550  22.4457960 107.9029800
 108.2453830  21.6080390 107.7567620 108.5188970  23.0787360 107.9893940
  99.5926550  22.4678160 120.5645910  99.4534320  23.3400960 120.9333310
  98.7107910  22.1250970 120.4193850 105.9155930  27.3854030 111.8711040
 106.3551840  28.1278360 111.4566430 105.8542820  27.6280600 112.7950000
 101.3906900  28.4099860 122.7731060 101.3622330  28.8142810 121.9059490
 101.2271870  27.4810220 122.6102660 111.3877690  13.7000770 106.2170840
 111.0750350  13.7927600 107.1169910 112.1490160  14.2781800 106.1668270
  97.9059830  21.0660570 110.6748180  97.7857430  21.7922660 110.0629450
  97.5960720  20.2963480 110.1976090 113.3421720  29.1926960 124.0695230
 113.8181440  29.6709850 124.7484310 113.9628880  29.1244450 123.3440730
  95.5445200  24.2375710 116.4816820  95.6225620  24.3724480 115.5372540
  96.1586880  23.5291600 116.6744940 112.7454970  26.3839810 121.2295240
 112.8718030  26.1451690 120.3112420 112.7876350  25.5524350 121.7017320
 106.6071710  30.0867810 119.7990050 107.1216380  29.9975820 120.6012480
 105.7640790  30.4327510 120.0917960 108.2852240  27.8810710 107.7872050
 107.5917400  27.8788000 107.1274330 109.0275100  27.4570030 107.3566220
 107.8502170  29.5073420 111.8620540 108.3059120  28.7262800 112.1759160
 108.1894690  30.2180240 112.4061720 112.5978980  18.4372270 122.1944980
 111.9823250  18.9451940 121.6660440 112.2775400  17.5370600 122.1370920
  95.6004720  25.2789880 119.0211280  95.7635760  24.8095240 118.2030650
  96.0657170  24.7713440 119.6860120 100.3723490  14.4095640 114.0571850
  99.9291640  15.1905180 113.7256370 100.9308480  14.7325530 114.7642790
 104.6593300  17.2764160 119.6607170 104.1972670  17.4847180 120.4727110
 104.2571410  16.4623510 119.3577840 109.6597810  18.4973110 120.7903830
 108.8091400  18.1978860 121.1112900 109.4999600  18.7415120 119.8787650
 106.7547520  19.9974860 122.8902620 107.0800930  19.1638610 122.5504850
 107.5427850  20.5203380 123.0380950 103.4882310  14.0306340 108.9377680
 102.8636490  14.0266210 109.6630990 103.4012430  13.1637300 108.5413650
 102.4099390  14.9542970 115.9161450 102.7071720  15.8605800 115.8353470
 102.9584950  14.4661750 115.3021020 100.1637710  19.5329210 111.7853100
  99.9378630  19.3166380 112.6899720  99.3830240  19.9657670 111.4399070
 107.3935470  19.5392580 110.3843750 106.7944360  20.2628380 110.2007370
 107.9415080  19.4769360 109.6020200 102.6036920  20.4314790 122.4513370
 102.5080520  19.4909520 122.3013770 103.4468900  20.6529860 122.0561440
 106.0000340  18.1756120 112.4147030 106.3929910  18.4928320 111.6015720
 106.3617190  17.2968000 112.5291550  97.7347460  16.8428460 120.6047150
  97.3410850  17.6903670 120.8119930  97.0465860  16.2054830 120.7955790
 104.3092510  16.9263430 123.6743890 103.6190830  16.7335630 124.3089980
 105.0524810  17.2098070 124.2068190  95.0364510  14.7656920 114.6377230
  94.7477560  15.3359780 115.3502210  95.7810270  14.2861370 115.0008460
  95.2234740  18.7077040 105.8479950  95.1409410  19.6507800 105.9894940
  94.8717800  18.5651950 104.9692300 106.5855480  20.7661870 116.5097810
 105.8536600  21.2748680 116.8587910 106.1879820  19.9491850 116.2086590
 103.0232870  17.4416070 114.9150300 103.0268930  17.0006020 114.0654840
 103.9183990  17.7633400 115.0222120  98.8735250  17.3242560 113.8744510
  98.5335300  17.8017790 114.6311560  98.1112570  16.8707680 113.5145610
 103.0853020  18.4428150 107.9057060 103.2065840  18.4014630 108.8542880
 102.7001530  19.3052300 107.7503790 107.0481390  16.2195550 115.9220750
 107.0654130  16.6704200 116.7662600 106.7996970  15.3201190 116.1354190
 102.0974520  20.7529290 107.3040360 101.5291420  20.3047540 106.6776270
 102.8063520  21.1122070 106.7705510 110.4752140  13.6327730 121.7607130
 110.7997910  12.9017390 122.2865110 110.5108650  13.3141370 120.8588120
  97.1743700  24.6541310 121.1807090  96.7898490  24.0134980 121.7790050
  97.4855890  25.3577430 121.7501820 103.3240840  21.5017850 116.6615710
 103.6910970  21.0276420 117.4077050 103.1345900  22.3759420 117.0024050
  96.1881330  16.2461540 112.7909180  95.9028250  15.8817210 113.6287800
  96.1260190  15.5142000 112.1772320 101.1140210  20.5426490 118.9799920
 100.8097280  21.4218470 119.2050280 102.0686670  20.6026280 119.0157360
  99.6422000  24.7487480 109.5766770  98.8684260  24.2085100 109.4165490
 100.3716630  24.2294090 109.2384530 110.4009980  23.7452840 115.3693160
 111.1209100  24.2408130 114.9789270 110.1991800  23.0670730 114.7247030
 105.8619920  15.1390800 109.5122550 105.0484530  14.6403970 109.4367860
 105.6681870  15.9789050 109.0958900 105.7828780  23.8161900 121.2562160
 105.7166090  22.8957570 121.0019750 105.1533920  23.9137340 121.9706800
 108.5768310  19.5110450 107.8084710 109.4647930  19.8227680 107.6336050
 108.5473400  18.6382700 107.4165290  99.6859400  24.4167860 113.2145580
 100.2038070  23.6136120 113.1602470  99.2343420  24.3547000 114.0562410
 104.5728900  25.6834140 108.4872880 104.9144600  26.4276370 107.9916200
 103.7441610  25.9965260 108.8497710  97.1703940  21.3829230 120.1271280
  96.8118880  22.0483080 120.7144620  96.8758500  20.5512780 120.4983900
 100.3717060  21.8413470 123.0110830 100.0717200  21.9870650 122.1138650
 101.1428300  21.2818760 122.9184220 105.7145510  26.6382470 121.0065960
 105.7290050  25.7063430 120.7884870 105.0070610  26.7242230 121.6455730
 110.8482580  20.8222290 107.2764570 110.7646300  21.2536510 106.4261010
 111.5676770  21.2820640 107.7091390 111.9256720  23.2789810 120.3534540
 111.2004910  23.8718590 120.1563930 112.4532180  23.2713350 119.5547910
 111.8769830  27.6764550 110.0046700 111.2345990  27.0220170 110.2790420
 111.4900490  28.0819640 109.2287370 107.4556310  25.0049980 113.8518390
 107.8080130  24.4078110 113.1919760 106.5718640  24.6794210 114.0226640
 103.5419590  25.7647670 111.2588800 104.2290720  26.3116880 111.6396390
 102.7552010  26.3088400 111.2938410 102.8446800  22.7693700 110.8714160
 103.3009580  23.5798950 111.0974350 102.4935010  22.4516840 111.7032650
 105.1479410  28.2800040 118.1006460 105.7921630  28.4859420 118.7779880
 105.5108850  27.5188440 117.6477310  98.7458580  13.1131350 111.3436680
  98.6173210  13.1049250 112.2921600  97.9220600  13.4514440 110.9927690
 106.4211490  26.2832390 116.8183910 107.0633720  25.5825550 116.9316080
 106.9460840  27.0630830 116.6380800 110.2667210  26.5681010 106.5423050
 110.0404790  25.8511450 107.1347690 109.8763410  26.3193450 105.7044800
 108.1949110  27.0827290 120.0219970 108.5305350  27.6693980 120.6997890
 107.2749450  26.9520000 120.2517760  95.7452510  14.8722470 120.8043380
  95.0311030  15.0719390 121.4095990  96.1647550  14.0962040 121.1758180
 109.8483460  24.4852950 108.2037210 109.5605160  24.9465640 108.9915090
 110.6435630  24.0250720 108.4721430  96.0325100  28.8602730 121.7909910
  96.1416220  27.9197470 121.6505300  95.3805660  29.1257480 121.1423640
 104.0237690  27.1318620 123.1908030 103.7034560  26.4127860 123.7353720
 103.3496050  27.8073690 123.2644090 107.2391290  17.3644780 118.5544830
 107.6072110  16.5439990 118.8824400 106.3789490  17.4246670 118.9700480
 110.6053320  16.3201720 109.3632390 109.9766480  16.4247390 108.6490620
 110.1105240  16.5398500 110.1526270 105.0511460  28.0407310 106.7966370
 105.1523440  27.8371300 105.8668350 104.1513200  27.7865590 107.0014150
 102.5737350  18.5987670 110.7790270 101.8653500  19.0674010 111.2203880
 102.8581830  17.9409680 111.4135460 104.1993280  20.0184370 118.7782800
 104.6978530  20.4930190 119.4434650 104.3416230  19.0947890 118.9852830
 106.6052780  15.3238330 112.2186060 106.4820560  15.3424460 111.2695570
 107.5537340  15.3717270 112.3384460 103.6929570  30.5593630 111.4914040
 103.9471070  30.5215020 110.5693410 102.7442050  30.4326960 111.4842290
 100.7772370  16.9072750 108.1540980 101.6262900  17.3442900 108.0881170
 100.4103640  17.2193010 108.9813040 111.4060140  16.2352330 119.6211190
 110.9033740  16.9757730 119.9605000 112.2216800  16.6236330 119.3047980
 109.6982150  21.4785510 113.0672550 108.7572290  21.4935740 113.2420240
 110.0126220  20.6921470 113.5132850  99.6763790  23.1605110 106.6276510
 100.4427060  23.0486470 107.1901940  99.7538480  22.4643080 105.9753280
  98.3710550  20.5930180 107.3109400  98.4514140  19.6457690 107.4226800
  99.2630300  20.9237060 107.4170060 111.7007730  28.6494360 114.7426810
 111.8255150  29.4725530 115.2150620 112.5673290  28.4385090 114.3950960
  99.1725260  30.7425570 114.4143940  99.9087740  30.1941030 114.6852510
  99.5566180  31.6081580 114.2749930  98.1783540  29.9271640 123.6029520
  98.9796270  30.2483690 124.0164920  97.6635360  29.5667220 124.3249430
 107.0148170  26.0351510 123.5504930 106.4086330  26.0583110 122.8100680
 106.7102280  25.3034550 124.0872180 108.4448540  29.7631800 122.1614340
 109.3970290  29.6789820 122.1114580 108.2976760  30.4273510 122.8348130
 111.3357740  29.1426010 107.6606250 111.0499250  28.7291150 106.8460430
 111.1377290  30.0713720 107.5406770  95.8981350  22.4145100 122.5465570
  96.4020370  21.8352380 123.1181800  95.1588770  22.6985330 123.0841940
 102.8004970  25.1359290 106.1011860 102.6955610  24.5211640 106.8273240
 102.6329190  24.6125180 105.3174870 102.9519290  23.8216090 122.0801090
 102.1864960  24.3901090 121.9955760 103.1335250  23.5292300 121.1869320
 106.0407700  24.1979320 106.7053850 105.4917800  24.6448620 107.3496590
 106.6626960  23.6928570 107.2291520 110.0942640  25.5521420 122.6376110
 110.8352110  25.8897180 122.1343570 109.3315320  25.7213480 122.0845880
  97.9304430  20.5574690 123.4415640  97.9709770  20.2588560 124.3500870
  98.7849930  20.9582300 123.2823160 101.7082820  23.1570240 108.6019150
 102.1299240  22.9910110 109.4450540 101.8333660  22.3470470 108.1074290
  99.8710240  19.1366790 121.4090130  99.3406700  18.6457740 120.7813470
 100.5398310  19.5650990 120.8748060 104.2210460  22.1807850 105.8496250
 104.7416120  21.4656870 105.4837400 104.8678860  22.8193720 106.1496760
 108.7688300  23.6036250 121.1731320 109.1829320  23.7581330 122.0221740
 107.8339300  23.7291470 121.3357100 109.2410470  20.9432410 123.1770470
 109.8231240  20.1884730 123.0890950 109.4172240  21.4739850 122.4001950
 100.3582540  16.1029160 121.4887420 100.2639410  15.4849910 120.7638290
  99.7779930  16.8295450 121.2617330 103.1243980  14.6602400 118.5214810
 102.6761280  14.6826660 117.6760360 102.4909180  14.2621420 119.1185110
 103.5303530  23.5556730 119.1427250 103.9491640  24.3989460 118.9703490
 102.6112160  23.6928770 118.9134030 105.8667430  21.2872910 120.5265090
 105.9863640  20.6914050 121.2659930 106.7261430  21.3242600 120.1066390
 108.2055330  21.8410100 119.1027600 107.6790550  22.3652720 118.4992740
 108.5486670  22.4737490 119.7337330 100.6041720  19.2303470 105.5477310
 100.4030780  18.3670830 105.9090650 100.4333770  19.1436830 104.6098910
 101.3810950  29.8609740 120.2584980 100.8432040  30.5855800 119.9393680
 101.6344910  29.3840080 119.4682320 102.6336200  17.8294260 121.7840910
 103.2235890  17.5210110 122.4718730 101.8156440  17.3574010 121.9400810
 107.4529630  17.4460070 122.0173930 106.7645150  16.7841610 121.9523920
 108.1735650  16.9998340 122.4622390 108.0830030  14.0411700 108.0764190
 108.3632320  13.1979600 108.4323610 107.3095760  14.2734810 108.5902940
  99.4024520  16.3304090 105.5355190  99.7050420  16.3371520 104.6274340
 100.1419110  15.9801950 106.0322850 104.2373160  31.0960950 120.5171630
 104.1631860  31.9996090 120.8244000 103.3352000  30.7772850 120.4893700
 102.6209450  15.2738710 106.5211390 102.2731450  14.5962700 105.9413840
 102.8222220  14.8128220 107.3354780 104.7858490  30.2619460 108.1397990
 105.6809280  30.6004430 108.1616750 104.8176120  29.5398870 107.5122270
 100.2362370  26.7544550 111.4807220  99.9357910  26.6309520 112.3811130
 100.1299860  25.8953140 111.0722950  96.1290660  29.2906130 116.5586880
  95.6921650  29.4706930 117.3911030  96.6968340  30.0480750 116.4168600
 111.7652840  28.7923130 120.8464190 111.1654830  28.8515690 120.1028110
 111.8946740  27.8528110 120.9761040 113.0054290  26.5340950 106.1833900
 112.1747250  26.6017600 106.6541130 113.1826120  27.4245070 105.8800760
 112.4610750  23.2788430 108.6868100 113.2229660  23.8485080 108.7927790
 112.4765120  22.7115630 109.4576410  95.9615090  21.8026360 112.9175760
  95.3063930  21.5338000 112.2735460  96.7993040  21.6930840 112.4677740
 113.4670720  24.1338530 113.5310030 113.8379550  23.3505850 113.1246000
 114.1072650  24.8227630 113.3527330 110.4504480  25.5175110 118.9440350
 109.6364320  25.9472270 119.2066140 110.8578680  26.1293520 118.3309400
 112.5129920  23.5722800 105.8440620 112.7878760  24.4801680 105.7159840
 112.3240660  23.5085330 106.7802610 108.9105530  16.5967650 107.1394250
 109.3290410  16.4098630 106.2990910 108.6041590  15.7446700 107.4497180
 112.4095260  21.5091790 110.8370050 112.0338860  20.7419720 110.4051340
 111.6798380  21.8914490 111.3244980  96.9991020  22.1878930 117.4579100
  97.3664060  22.1006330 118.3375120  96.4301840  21.4245480 117.3585960
 111.7994880  20.6563310 120.4709570 111.5680970  20.4276060 119.5707520
 112.0599430  21.5762860 120.4254460  96.5507020  19.0988020 121.3637520
  95.6563070  19.0654780 121.7031230  97.0904570  19.2974810 122.1288770
 110.2382950  15.8819740 123.2489270 111.1153130  15.8903140 123.6323270
 110.2503790  15.1450580 122.6381620  95.1753170  19.0125290 108.8601090
  94.2717250  19.2755490 108.6852750  95.6593790  19.2836460 108.0801050
 111.6846220  19.7349280 114.1377290 112.2083700  19.2411930 113.5067460
 112.2705640  19.8699640 114.8824860 111.8635940  19.8189150 117.6596840
 110.9138650  19.7852690 117.7741830 112.0448950  20.7289260 117.4246610
  97.7180380  18.0690830 106.7695470  98.4272080  17.6474050 106.2842750
  97.0020320  18.1366060 106.1378820  97.3654540  14.1230160 105.8098120
  98.0882670  14.6639100 106.1279340  97.6379060  13.8493580 104.9339660
 111.1746190  18.9922630 110.0769700 111.6705310  18.7593500 110.8618580
 110.9762260  18.1534470 109.6607340  97.0546730  13.3736350 115.7120740
  97.7022920  12.8233730 115.2715900  97.4748570  13.6279500 116.5336550
 112.6033350  17.6283580 112.6107380 112.4932630  17.4739620 113.5489650
 113.3640940  17.1004520 112.3682790 110.9499070  13.5677710 119.0690380
 111.5871290  14.1811850 119.4349570 111.0973960  13.6038370 118.1239610
 113.4923620  15.4591500 105.8513520 114.4172930  15.3272680 105.6431810
 113.4699410  15.5384320 106.8049970 113.5662110  16.2302160 108.4770230
 112.7713610  16.1647280 109.0063140 113.7705390  17.1652800 108.4655580
 110.5080530  30.2693710 112.4708620 111.1039600  29.9478280 111.7943040
 110.7658680  29.7965530 113.2621890  96.8078730  13.5292020 118.4546060
  96.4593550  13.9855840 119.2204240  96.4766430  12.6349150 118.5368490
  98.4143100  26.7011620 122.6199250  98.3712730  26.3304530 123.5013710
  98.5454110  27.6389190 122.7601070 102.1149130  28.2571210 118.2208970
 101.8740490  28.5245770 117.3339490 103.0551770  28.4276940 118.2759830
 104.3203550  14.7203900 121.9765480 104.2592440  15.3125730 122.7260890
 105.2603930  14.6129860 121.8315740 106.9578110  14.3773960 121.6157770
 107.5718520  14.6953250 120.9538850 107.5027670  13.8922550 122.2353630
 113.3753290  30.2765590 119.0219610 112.8811570  30.6734460 118.3046740
 112.7666580  29.6514800 119.4156890  97.4799370  13.0568220 121.7296830
  98.0282360  12.8756270 120.9662940  97.5454680  12.2662330 122.2653140
  98.2531130  29.6473870 119.7397030  97.6591450  29.5158570 120.4787070
  98.2454970  28.8112010 119.2739130 107.6986150  12.9406100 117.9427060
 106.8245990  13.2741210 117.7399990 107.5896900  12.4679280 118.7678930
 108.6058130  15.1476970 119.3268780 108.2771490  14.3328730 118.9470510
 109.5540430  15.1046780 119.2034470 111.0592740  30.9189010 116.3006350
 110.5995710  31.6704820 115.9264370 110.4305200  30.1995480 116.2421150
  97.8843360  27.0132250 118.6905070  97.1577420  26.3937540 118.6231020
  97.9452510  27.4072860 117.8203150 101.4888460  29.2277250 115.4754480
 102.0053480  28.6164610 114.9502740 102.1385840  29.7306030 115.9665490
 104.2283960  30.1185740 116.3023460 104.5161770  29.8640040 115.4256470
 104.7407180  29.5663100 116.8929030 105.4460970  13.8575940 116.8819970
 104.6632760  14.3321440 117.1616730 105.1523900  12.9530770 116.7733150
 109.9982040  14.5599040 114.9269060 110.4390130  14.5044140 114.0790660
 109.7289630  15.4757050 114.9979240 111.8620610  14.1914280 112.9377880
 111.8009010  13.2475500 112.7908900 112.6412640  14.2994370 113.4831340
  96.7901380  14.1623420 109.4033690  97.5480740  14.2752300 108.8297720
  96.3278550  14.9992620 109.3577120 103.3315190  16.2762690 112.3936000
 102.5189700  15.9019580 112.0531880 103.8356830  15.5207770 112.6957190
 107.8340170  12.9405140 113.6319070 108.4369540  13.5125350 114.1067590
 107.0933160  13.5044580 113.4092970 110.9774770  13.3426700 108.9059350
 111.1725400  14.2410150 109.1726780 110.1904640  13.1113780 109.3992300
  99.1626530  14.6887470 107.9435660  99.6919290  13.9017270 107.8143610
  99.7954850  15.3678660 108.1771190 101.3564370  14.4262610 110.9981050
 100.7267110  13.7249920 111.1651180 100.8169510  15.1866740 110.7814210
 104.2956320  31.0401840 123.6691660 105.2223630  30.8046110 123.7127620
 104.2806750  31.8673840 123.1877690 112.5301380  30.5827410 110.6665910
 112.7053570  29.8965150 110.0226830 111.8322950  31.1074460 110.2742580
 101.4819930  13.7046590 123.4333540 101.2004200  14.2080190 122.6694360
 101.8639630  12.9068340 123.0675670 108.0835390  13.1200170 124.0114010
 107.9700840  13.4394780 124.9065530 108.9005130  13.5212680 123.7151290
 110.8633880  30.2671700 123.4932700 111.6559200  29.7720930 123.2858660
 111.1567030  30.9461840 124.1008310 106.9893540  21.1392640  94.3748750
 106.9087590  20.2247250  94.1040460 106.5757960  21.6359710  93.6688460
 105.1211580  22.9171660  96.2558020 104.3453680  22.4372100  96.5456590
 105.7724510  22.2377310  96.0814180  97.5469360  18.1893360  90.9176170
  96.6586060  18.5309330  90.8156050  97.8310550  17.9893680  90.0257000
 105.3682320  29.6089860  94.6561140 104.7493760  30.0647360  94.0855580
 106.2234100  29.7641320  94.2550840 104.5620570  25.5928850  96.2628180
 104.4928850  24.6518790  96.1017310 105.3240430  25.6830260  96.8350750
  96.7527240  16.1983370  98.5884800  96.5730080  15.3009120  98.8687560
  96.3507320  16.7455240  99.2631750 105.5925740  18.3999230  96.4897110
 105.9690560  17.5271110  96.3770780 105.4945250  18.7357930  95.5987550
  99.7230750  16.7724860  91.9514550  99.8297500  17.6728590  92.2583310
  98.8123110  16.7242830  91.6609200 109.3749860  15.8949670  93.4225450
 110.1959480  15.4046240  93.4650930 109.4083940  16.4847330  94.1757290
  97.3713910  18.6943870  97.1967140  98.0524020  18.9582240  97.8154540
  97.0561960  17.8544740  97.5305150 101.5638480  19.7411230  96.2839730
 102.0716700  20.2392200  96.9244750 102.0951720  18.9646430  96.1079090
 113.6649410  17.9116420  99.9869080 112.9601580  18.2998130  99.4684190
 113.9307330  18.6066710 100.5890010  99.8474580  14.3809790 100.5503150
  99.8493020  14.8982180  99.7449050  99.0178890  13.9039970 100.5273080
 106.2345670  24.4929100  92.0493050 105.6162940  24.9578550  91.4855770
 106.7468920  25.1856580  92.4662560 109.6111340  17.8350050  96.1952990
 108.9066910  18.1234940  96.7756100 109.9723500  18.6450160  95.8352550
  99.5289910  16.0919750  98.5573600  99.8706720  16.9361800  98.2627470
  98.5905720  16.2403490  98.6738940  95.6028870  25.1785630  89.4232680
  95.2256850  25.6672730  88.6917580  95.8601940  25.8510910  90.0539210
 112.6798260  17.2804840  96.5862200 111.7323170  17.3143820  96.7177630
 113.0048250  18.0943790  96.9711560 103.2117800  13.5802020  94.8818190
 103.5192780  13.0248910  94.1653690 102.2818500  13.7146480  94.6991180
 108.1618300  24.1999150  98.5008260 108.5787090  23.9859260  97.6661720
 108.8858120  24.4571940  99.0716880 105.5998560  21.6450850  91.6178310
 104.6727840  21.5788230  91.8466780 105.7523380  22.5830980  91.5033550
 105.5867640  17.9167850  88.6145470 104.6471310  18.0781810  88.6997930
 105.9050900  18.6353530  88.0681460 112.1080400  22.5986370  98.5924500
 111.2799030  22.6679460  98.1174630 112.7030880  23.1840680  98.1240330
 109.0722410  19.3855690  99.5379370 108.6593590  20.2109400  99.7919360
 108.3398360  18.8000730  99.3455730 101.2055200  22.1715590  94.3998040
 100.8012200  21.4592840  93.9043940 101.2918320  21.8268830  95.2886080
  99.9183820  18.9458800  98.1797080 100.4698410  19.0554140  97.4050330
 100.4327330  19.3196400  98.8952310 107.8060550  22.4457960  89.1286310
 108.2453830  21.6080390  88.9824130 108.5188970  23.0787360  89.2150450
  99.5926550  22.4678160 101.7902420  99.4534320  23.3400960 102.1589820
  98.7107910  22.1250970 101.6450360 105.9155930  27.3854030  93.0967550
 106.3551840  28.1278360  92.6822940 105.8542820  27.6280600  94.0206510
 111.3877690  13.7000770  87.4427350 111.0750350  13.7927600  88.3426420
 112.1490160  14.2781800  87.3924780  97.9059830  21.0660570  91.9004690
  97.7857430  21.7922660  91.2885960  97.5960720  20.2963480  91.4232600
 113.3421720  29.1926960 105.2951740 113.8181440  29.6709850 105.9740820
 113.9628880  29.1244450 104.5697240  96.7892830  25.9375900  94.1179510
  96.3820910  26.0790490  93.2633110  97.6805840  25.6536060  93.9150720
 112.7454970  26.3839810 102.4551750 112.8718030  26.1451690 101.5368930
 112.7876350  25.5524350 102.9273830 108.5826110  30.3723150  90.4530560
 108.4227250  30.0826090  91.3512390 108.4172820  29.5963280  89.9175790
 101.0614490  30.1521680  92.2302180 100.8856970  29.2357220  92.0169980
 100.2070230  30.5108970  92.4699980 108.2852240  27.8810710  89.0128560
 107.5917400  27.8788000  88.3530840 109.0275100  27.4570030  88.5822730
 112.5978980  18.4372270 103.4201490 111.9823250  18.9451940 102.8916950
 112.2775400  17.5370600 103.3627430 100.3723490  14.4095640  95.2828360
  99.9291640  15.1905180  94.9512880 100.9308480  14.7325530  95.9899300
 104.6593300  17.2764160 100.8863680 104.1972670  17.4847180 101.6983620
 104.2571410  16.4623510 100.5834350 109.6597810  18.4973110 102.0160340
 108.8091400  18.1978860 102.3369410 109.4999600  18.7415120 101.1044160
 106.7547520  19.9974860 104.1159130 107.0800930  19.1638610 103.7761360
 107.5427850  20.5203380 104.2637460 103.4882310  14.0306340  90.1634190
 102.8636490  14.0266210  90.8887500 103.4012430  13.1637300  89.7670160
 102.4099390  14.9542970  97.1417960 102.7071720  15.8605800  97.0609980
 102.9584950  14.4661750  96.5277530 100.1637710  19.5329210  93.0109610
  99.9378630  19.3166380  93.9156230  99.3830240  19.9657670  92.6655580
 107.3935470  19.5392580  91.6100260 106.7944360  20.2628380  91.4263880
 107.9415080  19.4769360  90.8276710 102.6036920  20.4314790 103.6769880
 102.5080520  19.4909520 103.5270280 103.4468900  20.6529860 103.2817950
 106.0000340  18.1756120  93.6403540 106.3929910  18.4928320  92.8272230
 106.3617190  17.2968000  93.7548060  97.7347460  16.8428460 101.8303660
  97.3410850  17.6903670 102.0376440  97.0465860  16.2054830 102.0212300
 104.3092510  16.9263430 104.9000400 103.6190830  16.7335630 105.5346490
 105.0524810  17.2098070 105.4324700  95.0364510  14.7656920  95.8633740
  94.7477560  15.3359780  96.5758720  95.7810270  14.2861370  96.2264970
  95.2234740  18.7077040  87.0736460  95.1409410  19.6507800  87.2151450
  94.8717800  18.5651950  86.1948810 106.5855480  20.7661870  97.7354320
 105.8536600  21.2748680  98.0844420 106.1879820  19.9491850  97.4343100
 103.0232870  17.4416070  96.1406810 103.0268930  17.0006020  95.2911350
 103.9183990  17.7633400  96.2478630  98.8735250  17.3242560  95.1001020
  98.5335300  17.8017790  95.8568070  98.1112570  16.8707680  94.7402120
 103.0853020  18.4428150  89.1313570 103.2065840  18.4014630  90.0799390
 102.7001530  19.3052300  88.9760300 107.0481390  16.2195550  97.1477260
 107.0654130  16.6704200  97.9919110 106.7996970  15.3201190  97.3610700
 102.0974520  20.7529290  88.5296870 101.5291420  20.3047540  87.9032780
 102.8063520  21.1122070  87.9962020 110.4752140  13.6327730 102.9863640
 110.7997910  12.9017390 103.5121620 110.5108650  13.3141370 102.0844630
 103.3240840  21.5017850  97.8872220 103.6910970  21.0276420  98.6333560
 103.1345900  22.3759420  98.2280560  96.1881330  16.2461540  94.0165690
  95.9028250  15.8817210  94.8544310  96.1260190  15.5142000  93.4028830
 101.1140210  20.5426490 100.2056430 100.8097280  21.4218470 100.4306790
 102.0686670  20.6026280 100.2413870  99.6422000  24.7487480  90.8023280
  98.8684260  24.2085100  90.6422000 100.3716630  24.2294090  90.4641040
 105.8619920  15.1390800  90.7379060 105.0484530  14.6403970  90.6624370
 105.6681870  15.9789050  90.3215410 105.7828780  23.8161900 102.4818670
 105.7166090  22.8957570 102.2276260 105.1533920  23.9137340 103.1963310
 108.5768310  19.5110450  89.0341220 109.4647930  19.8227680  88.8592560
 108.5473400  18.6382700  88.6421800  99.6859400  24.4167860  94.4402090
 100.2038070  23.6136120  94.3858980  99.2343420  24.3547000  95.2818920
 104.5728900  25.6834140  89.7129390 104.9144600  26.4276370  89.2172710
 103.7441610  25.9965260  90.0754220  97.1703940  21.3829230 101.3527790
  96.8118880  22.0483080 101.9401130  96.8758500  20.5512780 101.7240410
 100.3717060  21.8413470 104.2367340 100.0717200  21.9870650 103.3395160
 101.1428300  21.2818760 104.1440730 110.8482580  20.8222290  88.5021080
 110.7646300  21.2536510  87.6517520 111.5676770  21.2820640  88.9347900
 111.9256720  23.2789810 101.5791050 111.2004910  23.8718590 101.3820440
 112.4532180  23.2713350 100.7804420 103.5419590  25.7647670  92.4845310
 104.2290720  26.3116880  92.8652900 102.7552010  26.3088400  92.5194920
 102.8446800  22.7693700  92.0970670 103.3009580  23.5798950  92.3230860
 102.4935010  22.4516840  92.9289160  98.7458580  13.1131350  92.5693190
  98.6173210  13.1049250  93.5178110  97.9220600  13.4514440  92.2184200
 110.2667210  26.5681010  87.7679560 110.0404790  25.8511450  88.3604200
 109.8763410  26.3193450  86.9301310  96.0483240  30.5947870  88.5424020
  96.4080880  31.1937210  87.8881290  95.9075580  31.1407760  89.3159050
  95.7452510  14.8722470 102.0299890  95.0311030  15.0719390 102.6352500
  96.1647550  14.0962040 102.4014690 109.8483460  24.4852950  89.4293720
 109.5605160  24.9465640  90.2171600 110.6435630  24.0250720  89.6977940
 104.0237690  27.1318620 104.4164540 103.7034560  26.4127860 104.9610230
 103.3496050  27.8073690 104.4900600 102.0651860  27.9779070  89.3597690
 102.0561960  28.7108760  88.7442200 101.1450220  27.7310650  89.4524650
  97.6658500  23.1993960  90.1044450  97.0586450  23.9392860  90.1139750
  98.1407850  23.2893320  89.2782650 107.2391290  17.3644780  99.7801340
 107.6072110  16.5439990 100.1080910 106.3789490  17.4246670 100.1956990
 110.6053320  16.3201720  90.5888900 109.9766480  16.4247390  89.8747130
 110.1105240  16.5398500  91.3782780 105.0511460  28.0407310  88.0222880
 105.1523440  27.8371300  87.0924860 104.1513200  27.7865590  88.2270660
 102.5737350  18.5987670  92.0046780 101.8653500  19.0674010  92.4460390
 102.8581830  17.9409680  92.6391970 104.1993280  20.0184370 100.0039310
 104.6978530  20.4930190 100.6691160 104.3416230  19.0947890 100.2109340
 106.6052780  15.3238330  93.4442570 106.4820560  15.3424460  92.4952080
 107.5537340  15.3717270  93.5640970 100.7772370  16.9072750  89.3797490
 101.6262900  17.3442900  89.3137680 100.4103640  17.2193010  90.2069550
 111.4060140  16.2352330 100.8467700 110.9033740  16.9757730 101.1861510
 112.2216800  16.6236330 100.5304490 109.6982150  21.4785510  94.2929060
 108.7572290  21.4935740  94.4676750 110.0126220  20.6921470  94.7389360
  99.6763790  23.1605110  87.8533020 100.4427060  23.0486470  88.4158450
  99.7538480  22.4643080  87.2009790  98.3710550  20.5930180  88.5365910
  98.4514140  19.6457690  88.6483310  99.2630300  20.9237060  88.6426570
  99.1725260  30.7425570  95.6400450  99.9087740  30.1941030  95.9109020
  99.5566180  31.6081580  95.5006440  96.0570740  26.8099140  91.5141960
  95.1310520  27.0520280  91.5047370  96.5227170  27.6373400  91.3926710
 102.2827570  29.9155880  87.4626020 103.0756180  30.2044710  87.0107810
 101.7631920  29.4848050  86.7838500 107.0148170  26.0351510 104.7761440
 106.4086330  26.0583110 104.0357190 106.7102280  25.3034550 105.3128690
 108.4448540  29.7631800 103.3870850 109.3970290  29.6789820 103.3371090
 108.2976760  30.4273510 104.0604640 102.9519290  23.8216090 103.3057600
 102.1864960  24.3901090 103.2212270 103.1335250  23.5292300 102.4125830
 110.0942640  25.5521420 103.8632620 110.8352110  25.8897180 103.3600080
 109.3315320  25.7213480 103.3102390  97.9304430  20.5574690 104.6672150
  97.9709770  20.2588560 105.5757380  98.7849930  20.9582300 104.5079670
 101.7082820  23.1570240  89.8275660 102.1299240  22.9910110  90.6707050
 101.8333660  22.3470470  89.3330800  99.8710240  19.1366790 102.6346640
  99.3406700  18.6457740 102.0069980 100.5398310  19.5650990 102.1004570
 108.7688300  23.6036250 102.3987830 109.1829320  23.7581330 103.2478250
 107.8339300  23.7291470 102.5613610 109.2410470  20.9432410 104.4026980
 109.8231240  20.1884730 104.3147460 109.4172240  21.4739850 103.6258460
 100.3582540  16.1029160 102.7143930 100.2639410  15.4849910 101.9894800
  99.7779930  16.8295450 102.4873840 103.1243980  14.6602400  99.7471320
 102.6761280  14.6826660  98.9016870 102.4909180  14.2621420 100.3441620
 103.5303530  23.5556730 100.3683760 103.9491640  24.3989460 100.1960000
 102.6112160  23.6928770 100.1390540 105.8667430  21.2872910 101.7521600
 105.9863640  20.6914050 102.4916440 106.7261430  21.3242600 101.3322900
 108.2055330  21.8410100 100.3284110 107.6790550  22.3652720  99.7249250
 108.5486670  22.4737490 100.9593840 100.6041720  19.2303470  86.7733820
 100.4030780  18.3670830  87.1347160 100.4333770  19.1436830  85.8355420
 102.6336200  17.8294260 103.0097420 103.2235890  17.5210110 103.6975240
 101.8156440  17.3574010 103.1657320 107.4529630  17.4460070 103.2430440
 106.7645150  16.7841610 103.1780430 108.1735650  16.9998340 103.6878900
 108.0830030  14.0411700  89.3020700 108.3632320  13.1979600  89.6580120
 107.3095760  14.2734810  89.8159450  99.4024520  16.3304090  86.7611700
  99.7050420  16.3371520  85.8530850 100.1419110  15.9801950  87.2579360
 102.6209450  15.2738710  87.7467900 102.2731450  14.5962700  87.1670350
 102.8222220  14.8128220  88.5611290  98.4254650  25.6346510  87.5941500
  98.8629520  26.1776180  88.2499080  98.9102380  24.8093460  87.6037840
 100.2362370  26.7544550  92.7063730  99.9357910  26.6309520  93.6067640
 100.1299860  25.8953140  92.2979460 111.7652840  28.7923130 102.0720700
 111.1654830  28.8515690 101.3284620 111.8946740  27.8528110 102.2017550
 113.0054290  26.5340950  87.4090410 112.1747250  26.6017600  87.8797640
 113.1826120  27.4245070  87.1057270 112.4610750  23.2788430  89.9124610
 113.2229660  23.8485080  90.0184300 112.4765120  22.7115630  90.6832920
  95.9615090  21.8026360  94.1432270  95.3063930  21.5338000  93.4991970
  96.7993040  21.6930840  93.6934250 110.4504480  25.5175110 100.1696860
 109.6364320  25.9472270 100.4322650 110.8578680  26.1293520  99.5565910
 112.5129920  23.5722800  87.0697130 112.7878760  24.4801680  86.9416350
 112.3240660  23.5085330  88.0059120 108.9105530  16.5967650  88.3650760
 109.3290410  16.4098630  87.5247420 108.6041590  15.7446700  88.6753690
 112.4095260  21.5091790  92.0626560 112.0338860  20.7419720  91.6307850
 111.6798380  21.8914490  92.5501490 111.7994880  20.6563310 101.6966080
 111.5680970  20.4276060 100.7964030 112.0599430  21.5762860 101.6510970
  96.5507020  19.0988020 102.5894030  95.6563070  19.0654780 102.9287740
  97.0904570  19.2974810 103.3545280 110.2382950  15.8819740 104.4745780
 111.1153130  15.8903140 104.8579780 110.2503790  15.1450580 103.8638130
 111.6846220  19.7349280  95.3633800 112.2083700  19.2411930  94.7323970
 112.2705640  19.8699640  96.1081370 111.8635940  19.8189150  98.8853350
 110.9138650  19.7852690  98.9998340 112.0448950  20.7289260  98.6503120
  97.7180380  18.0690830  87.9951980  98.4272080  17.6474050  87.5099260
  97.0020320  18.1366060  87.3635330  97.3654540  14.1230160  87.0354630
  98.0882670  14.6639100  87.3535850  97.6379060  13.8493580  86.1596170
 111.1746190  18.9922630  91.3026210 111.6705310  18.7593500  92.0875090
 110.9762260  18.1534470  90.8863850  97.0546730  13.3736350  96.9377250
  97.7022920  12.8233730  96.4972410  97.4748570  13.6279500  97.7593060
 112.6033350  17.6283580  93.8363890 112.4932630  17.4739620  94.7746160
 113.3640940  17.1004520  93.5939300 110.9499070  13.5677710 100.2946890
 111.5871290  14.1811850 100.6606080 111.0973960  13.6038370  99.3496120
 113.4923620  15.4591500  87.0770030 114.4172930  15.3272680  86.8688320
 113.4699410  15.5384320  88.0306480 113.5662110  16.2302160  89.7026740
 112.7713610  16.1647280  90.2319650 113.7705390  17.1652800  89.6912090
  96.8078730  13.5292020  99.6802570  96.4593550  13.9855840 100.4460750
  96.4766430  12.6349150  99.7625000 104.3203550  14.7203900 103.2021990
 104.2592440  15.3125730 103.9517400 105.2603930  14.6129860 103.0572250
 106.9578110  14.3773960 102.8414280 107.5718520  14.6953250 102.1795360
 107.5027670  13.8922550 103.4610140 113.3753290  30.2765590 100.2476120
 112.8811570  30.6734460  99.5303250 112.7666580  29.6514800 100.6413400
  97.4799370  13.0568220 102.9553340  98.0282360  12.8756270 102.1919450
  97.5454680  12.2662330 103.4909650 107.6986150  12.9406100  99.1683570
 106.8245990  13.2741210  98.9656500 107.5896900  12.4679280  99.9935440
 108.6058130  15.1476970 100.5525290 108.2771490  14.3328730 100.1727020
 109.5540430  15.1046780 100.4290980 101.4888460  29.2277250  96.7010990
 102.0053480  28.6164610  96.1759250 102.1385840  29.7306030  97.1922000
 105.4460970  13.8575940  98.1076480 104.6632760  14.3321440  98.3873240
 105.1523900  12.9530770  97.9989660 109.9982040  14.5599040  96.1525570
 110.4390130  14.5044140  95.3047170 109.7289630  15.4757050  96.2235750
 111.8620610  14.1914280  94.1634390 111.8009010  13.2475500  94.0165410
 112.6412640  14.2994370  94.7087850  96.7901380  14.1623420  90.6290200
  97.5480740  14.2752300  90.0554230  96.3278550  14.9992620  90.5833630
 103.3315190  16.2762690  93.6192510 102.5189700  15.9019580  93.2788390
 103.8356830  15.5207770  93.9213700 107.8340170  12.9405140  94.8575580
 108.4369540  13.5125350  95.3324100 107.0933160  13.5044580  94.6349480
 110.9774770  13.3426700  90.1315860 111.1725400  14.2410150  90.3983290
 110.1904640  13.1113780  90.6248810  97.7736060  29.0239870  90.5708480
  97.2483680  29.4047900  89.8670440  97.6980640  29.6490640  91.2918190
  99.1626530  14.6887470  89.1692170  99.6919290  13.9017270  89.0400120
  99.7954850  15.3678660  89.4027700 101.3564370  14.4262610  92.2237560
 100.7267110  13.7249920  92.3907690 100.8169510  15.1866740  92.0070720
 101.4819930  13.7046590 104.6590050 101.2004200  14.2080190 103.8950870
 101.8639630  12.9068340 104.2932180 100.3729030  30.9722250  89.4457730
 101.1047850  30.6881530  88.8981620 100.6322700  30.7335530  90.3357110
  99.5343820  27.0886980  89.4504060  98.9052700  27.5572080  89.9989890
  99.6491650  26.2436200  89.8850250 108.0835390  13.1200170 105.2370520
 107.9700840  13.4394780 106.1322040 108.9005130  13.5212680 104.9407800
 110.8633880  30.2671700 104.7189210 111.6559200  29.7720930 104.5115170
 111.1567030  30.9461840 105.3264820 106.9893540  21.1392640  75.6005260
 106.9087590  20.2247250  75.3296970 106.5757960  21.6359710  74.8944970
  99.1377410  23.2291470  78.3590290  98.3062290  22.9740180  78.7586800
  99.7458390  23.3002240  79.0948210  97.5469360  18.1893360  72.1432680
  96.6586060  18.5309330  72.0412560  97.8310550  17.9893680  71.2513510
  95.5102370  20.7899010  78.0272380  96.0818480  20.0221210  78.0276020
  95.5103910  21.0887770  77.1178990  96.7527240  16.1983370  79.8141310
  96.5730080  15.3009120  80.0944070  96.3507320  16.7455240  80.4888260
 105.5925740  18.3999230  77.7153620 105.9690560  17.5271110  77.6027290
 105.4945250  18.7357930  76.8244060  99.7230750  16.7724860  73.1771060
  99.8297500  17.6728590  73.4839820  98.8123110  16.7242830  72.8865710
 109.3749860  15.8949670  74.6481960 110.1959480  15.4046240  74.6907440
 109.4083940  16.4847330  75.4013800  97.3713910  18.6943870  78.4223650
  98.0524020  18.9582240  79.0411050  97.0561960  17.8544740  78.7561660
 101.5638480  19.7411230  77.5096240 102.0716700  20.2392200  78.1501260
 102.0951720  18.9646430  77.3335600 113.6649410  17.9116420  81.2125590
 112.9601580  18.2998130  80.6940700 113.9307330  18.6066710  81.8146520
  99.8474580  14.3809790  81.7759660  99.8493020  14.8982180  80.9705560
  99.0178890  13.9039970  81.7529590 101.0977430  24.0204970  79.9533160
 100.7646810  24.6473890  80.5954230 101.2744110  24.5466850  79.1734830
 109.6111340  17.8350050  77.4209500 108.9066910  18.1234940  78.0012610
 109.9723500  18.6450160  77.0609060  99.5289910  16.0919750  79.7830110
  99.8706720  16.9361800  79.4883980  98.5905720  16.2403490  79.8995450
 112.6798260  17.2804840  77.8118710 111.7323170  17.3143820  77.9434140
 113.0048250  18.0943790  78.1968070 103.2117800  13.5802020  76.1074700
 103.5192780  13.0248910  75.3910200 102.2818500  13.7146480  75.9247690
 110.0578280  26.0185530  73.4872330 109.9474610  25.0759860  73.6121750
 110.0546530  26.3801170  74.3735090 105.5867640  17.9167850  69.8401980
 104.6471310  18.0781810  69.9254440 105.9050900  18.6353530  69.2937970
 112.1080400  22.5986370  79.8181010 111.2799030  22.6679460  79.3431140
 112.7030880  23.1840680  79.3496840 109.6295850  23.2071150  73.3470070
 109.0108270  22.8690700  72.6996370 109.6120300  22.5630910  74.0549260
 109.0722410  19.3855690  80.7635880 108.6593590  20.2109400  81.0175870
 108.3398360  18.8000730  80.5712240 101.2055200  22.1715590  75.6254550
 100.8012200  21.4592840  75.1300450 101.2918320  21.8268830  76.5142590
  99.9183820  18.9458800  79.4053590 100.4698410  19.0554140  78.6306840
 100.4327330  19.3196400  80.1208820 100.7655330  25.5964840  84.4401560
  99.8683860  25.8204810  84.6874960 100.7908200  25.7199780  83.4912960
 107.8060550  22.4457960  70.3542820 108.2453830  21.6080390  70.2080640
 108.5188970  23.0787360  70.4406960  99.5926550  22.4678160  83.0158930
  99.4534320  23.3400960  83.3846330  98.7107910  22.1250970  82.8706870
 101.3906900  28.4099860  85.2244080 101.3622330  28.8142810  84.3572510
 101.2271870  27.4810220  85.0615680 111.3877690  13.7000770  68.6683860
 111.0750350  13.7927600  69.5682930 112.1490160  14.2781800  68.6181290
 113.3421720  29.1926960  86.5208250 113.8181440  29.6709850  87.1997330
 113.9628880  29.1244450  85.7953750  95.5445200  24.2375710  78.9329840
  95.6225620  24.3724480  77.9885560  96.1586880  23.5291600  79.1257960
 112.7454970  26.3839810  83.6808260 112.8718030  26.1451690  82.7625440
 112.7876350  25.5524350  84.1530340 108.5826110  30.3723150  71.6787070
 108.4227250  30.0826090  72.5768900 108.4172820  29.5963280  71.1432300
 101.0614490  30.1521680  73.4558690 100.8856970  29.2357220  73.2426490
 100.2070230  30.5108970  73.6956490 108.2852240  27.8810710  70.2385070
 107.5917400  27.8788000  69.5787350 109.0275100  27.4570030  69.8079240
 107.8502170  29.5073420  74.3133560 108.3059120  28.7262800  74.6272180
 108.1894690  30.2180240  74.8574740 112.5978980  18.4372270  84.6458000
 111.9823250  18.9451940  84.1173460 112.2775400  17.5370600  84.5883940
 100.3723490  14.4095640  76.5084870  99.9291640  15.1905180  76.1769390
 100.9308480  14.7325530  77.2155810 104.6593300  17.2764160  82.1120190
 104.1972670  17.4847180  82.9240130 104.2571410  16.4623510  81.8090860
 109.6597810  18.4973110  83.2416850 108.8091400  18.1978860  83.5625920
 109.4999600  18.7415120  82.3300670 103.4882310  14.0306340  71.3890700
 102.8636490  14.0266210  72.1144010 103.4012430  13.1637300  70.9926670
 102.4099390  14.9542970  78.3674470 102.7071720  15.8605800  78.2866490
 102.9584950  14.4661750  77.7534040 100.1637710  19.5329210  74.2366120
  99.9378630  19.3166380  75.1412740  99.3830240  19.9657670  73.8912090
 107.3935470  19.5392580  72.8356770 106.7944360  20.2628380  72.6520390
 107.9415080  19.4769360  72.0533220 106.0000340  18.1756120  74.8660050
 106.3929910  18.4928320  74.0528740 106.3617190  17.2968000  74.9804570
  97.7347460  16.8428460  83.0560170  97.3410850  17.6903670  83.2632950
  97.0465860  16.2054830  83.2468810  95.0364510  14.7656920  77.0890250
  94.7477560  15.3359780  77.8015230  95.7810270  14.2861370  77.4521480
  95.2234740  18.7077040  68.2992970  95.1409410  19.6507800  68.4407960
  94.8717800  18.5651950  67.4205320 103.0232870  17.4416070  77.3663320
 103.0268930  17.0006020  76.5167860 103.9183990  17.7633400  77.4735140
  98.8735250  17.3242560  76.3257530  98.5335300  17.8017790  77.0824580
  98.1112570  16.8707680  75.9658630 103.0853020  18.4428150  70.3570080
 103.2065840  18.4014630  71.3055900 102.7001530  19.3052300  70.2016810
 107.0481390  16.2195550  78.3733770 107.0654130  16.6704200  79.2175620
 106.7996970  15.3201190  78.5867210 102.0974520  20.7529290  69.7553380
 101.5291420  20.3047540  69.1289290 102.8063520  21.1122070  69.2218530
 110.4752140  13.6327730  84.2120150 110.7997910  12.9017390  84.7378130
 110.5108650  13.3141370  83.3101140 103.3240840  21.5017850  79.1128730
 103.6910970  21.0276420  79.8590070 103.1345900  22.3759420  79.4537070
  96.1881330  16.2461540  75.2422200  95.9028250  15.8817210  76.0800820
  96.1260190  15.5142000  74.6285340 105.8619920  15.1390800  71.9635570
 105.0484530  14.6403970  71.8880880 105.6681870  15.9789050  71.5471920
 108.5768310  19.5110450  70.2597730 109.4647930  19.8227680  70.0849070
 108.5473400  18.6382700  69.8678310 110.8482580  20.8222290  69.7277590
 110.7646300  21.2536510  68.8774030 111.5676770  21.2820640  70.1604410
 111.9256720  23.2789810  82.8047560 111.2004910  23.8718590  82.6076950
 112.4532180  23.2713350  82.0060930 111.8769830  27.6764550  72.4559720
 111.2345990  27.0220170  72.7303440 111.4900490  28.0819640  71.6800390
 103.5419590  25.7647670  73.7101820 104.2290720  26.3116880  74.0909410
 102.7552010  26.3088400  73.7451430 102.8446800  22.7693700  73.3227180
 103.3009580  23.5798950  73.5487370 102.4935010  22.4516840  74.1545670
 105.1479410  28.2800040  80.5519480 105.7921630  28.4859420  81.2292900
 105.5108850  27.5188440  80.0990330  98.7458580  13.1131350  73.7949700
  98.6173210  13.1049250  74.7434620  97.9220600  13.4514440  73.4440710
 110.2667210  26.5681010  68.9936070 110.0404790  25.8511450  69.5860710
 109.8763410  26.3193450  68.1557820 108.1949110  27.0827290  82.4732990
 108.5305350  27.6693980  83.1510910 107.2749450  26.9520000  82.7030780
  95.7452510  14.8722470  83.2556400  95.0311030  15.0719390  83.8609010
  96.1647550  14.0962040  83.6271200 109.8483460  24.4852950  70.6550230
 109.5605160  24.9465640  71.4428110 110.6435630  24.0250720  70.9234450
  96.0325100  28.8602730  84.2422930  96.1416220  27.9197470  84.1018320
  95.3805660  29.1257480  83.5936660 107.2391290  17.3644780  81.0057850
 107.6072110  16.5439990  81.3337420 106.3789490  17.4246670  81.4213500
 110.6053320  16.3201720  71.8145410 109.9766480  16.4247390  71.1003640
 110.1105240  16.5398500  72.6039290 105.0511460  28.0407310  69.2479390
 105.1523440  27.8371300  68.3181370 104.1513200  27.7865590  69.4527170
 102.5737350  18.5987670  73.2303290 101.8653500  19.0674010  73.6716900
 102.8581830  17.9409680  73.8648480 106.6052780  15.3238330  74.6699080
 106.4820560  15.3424460  73.7208590 107.5537340  15.3717270  74.7897480
 100.7772370  16.9072750  70.6054000 101.6262900  17.3442900  70.5394190
 100.4103640  17.2193010  71.4326060 111.4060140  16.2352330  82.0724210
 110.9033740  16.9757730  82.4118020 112.2216800  16.6236330  81.7561000
 109.6982150  21.4785510  75.5185570 108.7572290  21.4935740  75.6933260
 110.0126220  20.6921470  75.9645870  99.6763790  23.1605110  69.0789530
 100.4427060  23.0486470  69.6414960  99.7538480  22.4643080  68.4266300
  98.3710550  20.5930180  69.7622420  98.4514140  19.6457690  69.8739820
  99.2630300  20.9237060  69.8683080  98.1783540  29.9271640  86.0542540
  98.9796270  30.2483690  86.4677940  97.6635360  29.5667220  86.7762450
 102.2827570  29.9155880  68.6882530 103.0756180  30.2044710  68.2364320
 101.7631920  29.4848050  68.0095010 108.4448540  29.7631800  84.6127360
 109.3970290  29.6789820  84.5627600 108.2976760  30.4273510  85.2861150
 111.3357740  29.1426010  70.1119270 111.0499250  28.7291150  69.2973450
 111.1377290  30.0713720  69.9919790 102.8004970  25.1359290  68.5524880
 102.6955610  24.5211640  69.2786260 102.6329190  24.6125180  67.7687890
 106.0407700  24.1979320  69.1566870 105.4917800  24.6448620  69.8009610
 106.6626960  23.6928570  69.6804540 110.0942640  25.5521420  85.0889130
 110.8352110  25.8897180  84.5856590 109.3315320  25.7213480  84.5358900
  97.9304430  20.5574690  85.8928660  97.9709770  20.2588560  86.8013890
  98.7849930  20.9582300  85.7336180 101.7082820  23.1570240  71.0532170
 102.1299240  22.9910110  71.8963560 101.8333660  22.3470470  70.5587310
  99.8710240  19.1366790  83.8603150  99.3406700  18.6457740  83.2326490
 100.5398310  19.5650990  83.3261080 104.2210460  22.1807850  68.3009270
 104.7416120  21.4656870  67.9350420 104.8678860  22.8193720  68.6009780
 109.2410470  20.9432410  85.6283490 109.8231240  20.1884730  85.5403970
 109.4172240  21.4739850  84.8514970 100.3582540  16.1029160  83.9400440
 100.2639410  15.4849910  83.2151310  99.7779930  16.8295450  83.7130350
 103.1243980  14.6602400  80.9727830 102.6761280  14.6826660  80.1273380
 102.4909180  14.2621420  81.5698130 100.6041720  19.2303470  67.9990330
 100.4030780  18.3670830  68.3603670 100.4333770  19.1436830  67.0611930
 107.4529630  17.4460070  84.4686950 106.7645150  16.7841610  84.4036940
 108.1735650  16.9998340  84.9135410 108.0830030  14.0411700  70.5277210
 108.3632320  13.1979600  70.8836630 107.3095760  14.2734810  71.0415960
  99.4024520  16.3304090  67.9868210  99.7050420  16.3371520  67.0787360
 100.1419110  15.9801950  68.4835870 102.6209450  15.2738710  68.9724410
 102.2731450  14.5962700  68.3926860 102.8222220  14.8128220  69.7867800
 104.7858490  30.2619460  70.5911010 105.6809280  30.6004430  70.6129770
 104.8176120  29.5398870  69.9635290  96.1290660  29.2906130  79.0099900
  95.6921650  29.4706930  79.8424050  96.6968340  30.0480750  78.8681620
 113.0054290  26.5340950  68.6346920 112.1747250  26.6017600  69.1054150
 113.1826120  27.4245070  68.3313780 112.4610750  23.2788430  71.1381120
 113.2229660  23.8485080  71.2440810 112.4765120  22.7115630  71.9089430
 112.5129920  23.5722800  68.2953640 112.7878760  24.4801680  68.1672860
 112.3240660  23.5085330  69.2315630 108.9105530  16.5967650  69.5907270
 109.3290410  16.4098630  68.7503930 108.6041590  15.7446700  69.9010200
 112.4095260  21.5091790  73.2883070 112.0338860  20.7419720  72.8564360
 111.6798380  21.8914490  73.7758000 111.7994880  20.6563310  82.9222590
 111.5680970  20.4276060  82.0220540 112.0599430  21.5762860  82.8767480
  96.5507020  19.0988020  83.8150540  95.6563070  19.0654780  84.1544250
  97.0904570  19.2974810  84.5801790 110.2382950  15.8819740  85.7002290
 111.1153130  15.8903140  86.0836290 110.2503790  15.1450580  85.0894640
  95.1753170  19.0125290  71.3114110  94.2717250  19.2755490  71.1365770
  95.6593790  19.2836460  70.5314070 111.6846220  19.7349280  76.5890310
 112.2083700  19.2411930  75.9580480 112.2705640  19.8699640  77.3337880
 111.8635940  19.8189150  80.1109860 110.9138650  19.7852690  80.2254850
 112.0448950  20.7289260  79.8759630  97.7180380  18.0690830  69.2208490
  98.4272080  17.6474050  68.7355770  97.0020320  18.1366060  68.5891840
  97.3654540  14.1230160  68.2611140  98.0882670  14.6639100  68.5792360
  97.6379060  13.8493580  67.3852680 111.1746190  18.9922630  72.5282720
 111.6705310  18.7593500  73.3131600 110.9762260  18.1534470  72.1120360
  97.0546730  13.3736350  78.1633760  97.7022920  12.8233730  77.7228920
  97.4748570  13.6279500  78.9849570 112.6033350  17.6283580  75.0620400
 112.4932630  17.4739620  76.0002670 113.3640940  17.1004520  74.8195810
 110.9499070  13.5677710  81.5203400 111.5871290  14.1811850  81.8862590
 111.0973960  13.6038370  80.5752630 113.4923620  15.4591500  68.3026540
 114.4172930  15.3272680  68.0944830 113.4699410  15.5384320  69.2562990
 113.5662110  16.2302160  70.9283250 112.7713610  16.1647280  71.4576160
 113.7705390  17.1652800  70.9168600 110.5080530  30.2693710  74.9221640
 111.1039600  29.9478280  74.2456060 110.7658680  29.7965530  75.7134910
  96.8078730  13.5292020  80.9059080  96.4593550  13.9855840  81.6717260
  96.4766430  12.6349150  80.9881510  98.4143100  26.7011620  85.0712270
  98.3712730  26.3304530  85.9526730  98.5454110  27.6389190  85.2114090
 104.3203550  14.7203900  84.4278500 104.2592440  15.3125730  85.1773910
 105.2603930  14.6129860  84.2828760 106.9578110  14.3773960  84.0670790
 107.5718520  14.6953250  83.4051870 107.5027670  13.8922550  84.6866650
  97.4799370  13.0568220  84.1809850  98.0282360  12.8756270  83.4175960
  97.5454680  12.2662330  84.7166160 107.6986150  12.9406100  80.3940080
 106.8245990  13.2741210  80.1913010 107.5896900  12.4679280  81.2191950
 108.6058130  15.1476970  81.7781800 108.2771490  14.3328730  81.3983530
 109.5540430  15.1046780  81.6547490 105.4460970  13.8575940  79.3332990
 104.6632760  14.3321440  79.6129750 105.1523900  12.9530770  79.2246170
 109.9982040  14.5599040  77.3782080 110.4390130  14.5044140  76.5303680
 109.7289630  15.4757050  77.4492260 111.8620610  14.1914280  75.3890900
 111.8009010  13.2475500  75.2421920 112.6412640  14.2994370  75.9344360
  96.7901380  14.1623420  71.8546710  97.5480740  14.2752300  71.2810740
  96.3278550  14.9992620  71.8090140 103.3315190  16.2762690  74.8449020
 102.5189700  15.9019580  74.5044900 103.8356830  15.5207770  75.1470210
 107.8340170  12.9405140  76.0832090 108.4369540  13.5125350  76.5580610
 107.0933160  13.5044580  75.8605990 110.9774770  13.3426700  71.3572370
 111.1725400  14.2410150  71.6239800 110.1904640  13.1113780  71.8505320
  99.1626530  14.6887470  70.3948680  99.6919290  13.9017270  70.2656630
  99.7954850  15.3678660  70.6284210 101.3564370  14.4262610  73.4494070
 100.7267110  13.7249920  73.6164200 100.8169510  15.1866740  73.2327230
 104.2956320  31.0401840  86.1204680 105.2223630  30.8046110  86.1640640
 104.2806750  31.8673840  85.6390710 112.5301380  30.5827410  73.1178930
 112.7053570  29.8965150  72.4739850 111.8322950  31.1074460  72.7255600
 101.4819930  13.7046590  85.8846560 101.2004200  14.2080190  85.1207380
 101.8639630  12.9068340  85.5188690 108.0835390  13.1200170  86.4627030
 107.9700840  13.4394780  87.3578550 108.9005130  13.5212680  86.1664310
 110.8633880  30.2671700  85.9445720 111.6559200  29.7720930  85.7371680
 111.1567030  30.9461840  86.5521330 106.9893540  21.1392640  56.8261770
 106.9087590  20.2247250  56.5553480 106.5757960  21.6359710  56.1201480
 105.1211580  22.9171660  58.7071040 104.3453680  22.4372100  58.9969610
 105.7724510  22.2377310  58.5327200  99.1377410  23.2291470  59.5846800
  98.3062290  22.9740180  59.9843310  99.7458390  23.3002240  60.3204720
 109.1419010  27.3231850  57.4870170 108.6800540  26.5519090  57.8157340
 109.9544560  27.3497920  57.9922620  97.5469360  18.1893360  53.3689190
  96.6586060  18.5309330  53.2669070  97.8310550  17.9893680  52.4770020
  95.5102370  20.7899010  59.2528890  96.0818480  20.0221210  59.2532530
  95.5103910  21.0887770  58.3435500 105.3682320  29.6089860  57.1074160
 104.7493760  30.0647360  56.5368600 106.2234100  29.7641320  56.7063860
 104.5620570  25.5928850  58.7141200 104.4928850  24.6518790  58.5530330
 105.3240430  25.6830260  59.2863770  96.7527240  16.1983370  61.0397820
  96.5730080  15.3009120  61.3200580  96.3507320  16.7455240  61.7144770
 105.5925740  18.3999230  58.9410130 105.9690560  17.5271110  58.8283800
 105.4945250  18.7357930  58.0500570  99.7230750  16.7724860  54.4027570
  99.8297500  17.6728590  54.7096330  98.8123110  16.7242830  54.1122220
 109.3749860  15.8949670  55.8738470 110.1959480  15.4046240  55.9163950
 109.4083940  16.4847330  56.6270310  97.3713910  18.6943870  59.6480160
  98.0524020  18.9582240  60.2667560  97.0561960  17.8544740  59.9818170
 101.5638480  19.7411230  58.7352750 102.0716700  20.2392200  59.3757770
 102.0951720  18.9646430  58.5592110 113.6649410  17.9116420  62.4382100
 112.9601580  18.2998130  61.9197210 113.9307330  18.6066710  63.0403030
  99.8474580  14.3809790  63.0016170  99.8493020  14.8982180  62.1962070
  99.0178890  13.9039970  62.9786100 106.2345670  24.4929100  54.5006070
 105.6162940  24.9578550  53.9368790 106.7468920  25.1856580  54.9175580
 101.0977430  24.0204970  61.1789670 100.7646810  24.6473890  61.8210740
 101.2744110  24.5466850  60.3991340 109.6111340  17.8350050  58.6466010
 108.9066910  18.1234940  59.2269120 109.9723500  18.6450160  58.2865570
  99.5289910  16.0919750  61.0086620  99.8706720  16.9361800  60.7140490
  98.5905720  16.2403490  61.1251960  95.6028870  25.1785630  51.8745700
  95.2256850  25.6672730  51.1430600  95.8601940  25.8510910  52.5052230
 112.6798260  17.2804840  59.0375220 111.7323170  17.3143820  59.1690650
 113.0048250  18.0943790  59.4224580 103.2117800  13.5802020  57.3331210
 103.5192780  13.0248910  56.6166710 102.2818500  13.7146480  57.1504200
 110.0578280  26.0185530  54.7128840 109.9474610  25.0759860  54.8378260
 110.0546530  26.3801170  55.5991600 108.1618300  24.1999150  60.9521280
 108.5787090  23.9859260  60.1174740 108.8858120  24.4571940  61.5229900
 105.5998560  21.6450850  54.0691330 104.6727840  21.5788230  54.2979800
 105.7523380  22.5830980  53.9546570 105.5867640  17.9167850  51.0658490
 104.6471310  18.0781810  51.1510950 105.9050900  18.6353530  50.5194480
 112.1080400  22.5986370  61.0437520 111.2799030  22.6679460  60.5687650
 112.7030880  23.1840680  60.5753350 109.6295850  23.2071150  54.5726580
 109.0108270  22.8690700  53.9252880 109.6120300  22.5630910  55.2805770
 109.0722410  19.3855690  61.9892390 108.6593590  20.2109400  62.2432380
 108.3398360  18.8000730  61.7968750 101.2055200  22.1715590  56.8511060
 100.8012200  21.4592840  56.3556960 101.2918320  21.8268830  57.7399100
  99.9183820  18.9458800  60.6310100 100.4698410  19.0554140  59.8563350
 100.4327330  19.3196400  61.3465330 107.8060550  22.4457960  51.5799330
 108.2453830  21.6080390  51.4337150 108.5188970  23.0787360  51.6663470
  99.5926550  22.4678160  64.2415440  99.4534320  23.3400960  64.6102840
  98.7107910  22.1250970  64.0963380 105.9155930  27.3854030  55.5480570
 106.3551840  28.1278360  55.1335960 105.8542820  27.6280600  56.4719530
 111.3877690  13.7000770  49.8940370 111.0750350  13.7927600  50.7939440
 112.1490160  14.2781800  49.8437800  97.9059830  21.0660570  54.3517710
  97.7857430  21.7922660  53.7398980  97.5960720  20.2963480  53.8745620
 113.3421720  29.1926960  67.7464760 113.8181440  29.6709850  68.4253840
 113.9628880  29.1244450  67.0210260  95.5445200  24.2375710  60.1586350
  95.6225620  24.3724480  59.2142070  96.1586880  23.5291600  60.3514470
  96.7892830  25.9375900  56.5692530  96.3820910  26.0790490  55.7146130
  97.6805840  25.6536060  56.3663740 108.5826110  30.3723150  52.9043580
 108.4227250  30.0826090  53.8025410 108.4172820  29.5963280  52.3688810
 101.0614490  30.1521680  54.6815200 100.8856970  29.2357220  54.4683000
 100.2070230  30.5108970  54.9213000 108.2852240  27.8810710  51.4641580
 107.5917400  27.8788000  50.8043860 109.0275100  27.4570030  51.0335750
 112.5978980  18.4372270  65.8714510 111.9823250  18.9451940  65.3429970
 112.2775400  17.5370600  65.8140450 100.3723490  14.4095640  57.7341380
  99.9291640  15.1905180  57.4025900 100.9308480  14.7325530  58.4412320
 104.6593300  17.2764160  63.3376700 104.1972670  17.4847180  64.1496640
 104.2571410  16.4623510  63.0347370 109.6597810  18.4973110  64.4673360
 108.8091400  18.1978860  64.7882430 109.4999600  18.7415120  63.5557180
 106.7547520  19.9974860  66.5672150 107.0800930  19.1638610  66.2274380
 107.5427850  20.5203380  66.7150480 103.4882310  14.0306340  52.6147210
 102.8636490  14.0266210  53.3400520 103.4012430  13.1637300  52.2183180
 102.4099390  14.9542970  59.5930980 102.7071720  15.8605800  59.5123000
 102.9584950  14.4661750  58.9790550 100.1637710  19.5329210  55.4622630
  99.9378630  19.3166380  56.3669250  99.3830240  19.9657670  55.1168600
 107.3935470  19.5392580  54.0613280 106.7944360  20.2628380  53.8776900
 107.9415080  19.4769360  53.2789730 102.6036920  20.4314790  66.1282900
 102.5080520  19.4909520  65.9783300 103.4468900  20.6529860  65.7330970
 106.0000340  18.1756120  56.0916560 106.3929910  18.4928320  55.2785250
 106.3617190  17.2968000  56.2061080  97.7347460  16.8428460  64.2816680
  97.3410850  17.6903670  64.4889460  97.0465860  16.2054830  64.4725320
 104.3092510  16.9263430  67.3513420 103.6190830  16.7335630  67.9859510
 105.0524810  17.2098070  67.8837720  95.0364510  14.7656920  58.3146760
  94.7477560  15.3359780  59.0271740  95.7810270  14.2861370  58.6777990
  95.2234740  18.7077040  49.5249480  95.1409410  19.6507800  49.6664470
  94.8717800  18.5651950  48.6461830 106.5855480  20.7661870  60.1867340
 105.8536600  21.2748680  60.5357440 106.1879820  19.9491850  59.8856120
 103.0232870  17.4416070  58.5919830 103.0268930  17.0006020  57.7424370
 103.9183990  17.7633400  58.6991650  98.8735250  17.3242560  57.5514040
  98.5335300  17.8017790  58.3081090  98.1112570  16.8707680  57.1915140
 103.0853020  18.4428150  51.5826590 103.2065840  18.4014630  52.5312410
 102.7001530  19.3052300  51.4273320 107.0481390  16.2195550  59.5990280
 107.0654130  16.6704200  60.4432130 106.7996970  15.3201190  59.8123720
 102.0974520  20.7529290  50.9809890 101.5291420  20.3047540  50.3545800
 102.8063520  21.1122070  50.4475040 110.4752140  13.6327730  65.4376660
 110.7997910  12.9017390  65.9634640 110.5108650  13.3141370  64.5357650
 103.3240840  21.5017850  60.3385240 103.6910970  21.0276420  61.0846580
 103.1345900  22.3759420  60.6793580  96.1881330  16.2461540  56.4678710
  95.9028250  15.8817210  57.3057330  96.1260190  15.5142000  55.8541850
 101.1140210  20.5426490  62.6569450 100.8097280  21.4218470  62.8819810
 102.0686670  20.6026280  62.6926890  99.6422000  24.7487480  53.2536300
  98.8684260  24.2085100  53.0935020 100.3716630  24.2294090  52.9154060
 110.4009980  23.7452840  59.0462690 111.1209100  24.2408130  58.6558800
 110.1991800  23.0670730  58.4016560 105.8619920  15.1390800  53.1892080
 105.0484530  14.6403970  53.1137390 105.6681870  15.9789050  52.7728430
 105.7828780  23.8161900  64.9331690 105.7166090  22.8957570  64.6789280
 105.1533920  23.9137340  65.6476330 108.5768310  19.5110450  51.4854240
 109.4647930  19.8227680  51.3105580 108.5473400  18.6382700  51.0934820
 104.5728900  25.6834140  52.1642410 104.9144600  26.4276370  51.6685730
 103.7441610  25.9965260  52.5267240 100.3717060  21.8413470  66.6880360
 100.0717200  21.9870650  65.7908180 101.1428300  21.2818760  66.5953750
 110.8482580  20.8222290  50.9534100 110.7646300  21.2536510  50.1030540
 111.5676770  21.2820640  51.3860920 111.9256720  23.2789810  64.0304070
 111.2004910  23.8718590  63.8333460 112.4532180  23.2713350  63.2317440
 111.8769830  27.6764550  53.6816230 111.2345990  27.0220170  53.9559950
 111.4900490  28.0819640  52.9056900 107.4556310  25.0049980  57.5287920
 107.8080130  24.4078110  56.8689290 106.5718640  24.6794210  57.6996170
  95.6811990  21.3820490  50.4275410  96.5506840  21.6645290  50.7111330
  95.1902310  22.1956360  50.3124220  98.7458580  13.1131350  55.0206210
  98.6173210  13.1049250  55.9691130  97.9220600  13.4514440  54.6697220
 110.2667210  26.5681010  50.2192580 110.0404790  25.8511450  50.8117220
 109.8763410  26.3193450  49.3814330  96.0483240  30.5947870  50.9937040
  96.4080880  31.1937210  50.3394310  95.9075580  31.1407760  51.7672070
  95.7452510  14.8722470  64.4812910  95.0311030  15.0719390  65.0865520
  96.1647550  14.0962040  64.8527710 109.8483460  24.4852950  51.8806740
 109.5605160  24.9465640  52.6684620 110.6435630  24.0250720  52.1490960
  96.0325100  28.8602730  65.4679440  96.1416220  27.9197470  65.3274830
  95.3805660  29.1257480  64.8193170 102.0651860  27.9779070  51.8110710
 102.0561960  28.7108760  51.1955220 101.1450220  27.7310650  51.9037670
  97.6658500  23.1993960  52.5557470  97.0586450  23.9392860  52.5652770
  98.1407850  23.2893320  51.7295670 107.2391290  17.3644780  62.2314360
 107.6072110  16.5439990  62.5593930 106.3789490  17.4246670  62.6470010
 110.6053320  16.3201720  53.0401920 109.9766480  16.4247390  52.3260150
 110.1105240  16.5398500  53.8295800 105.0511460  28.0407310  50.4735900
 105.1523440  27.8371300  49.5437880 104.1513200  27.7865590  50.6783680
 102.5737350  18.5987670  54.4559800 101.8653500  19.0674010  54.8973410
 102.8581830  17.9409680  55.0904990 104.1993280  20.0184370  62.4552330
 104.6978530  20.4930190  63.1204180 104.3416230  19.0947890  62.6622360
 106.6052780  15.3238330  55.8955590 106.4820560  15.3424460  54.9465100
 107.5537340  15.3717270  56.0153990 103.6929570  30.5593630  55.1683570
 103.9471070  30.5215020  54.2462940 102.7442050  30.4326960  55.1611820
 100.7772370  16.9072750  51.8310510 101.6262900  17.3442900  51.7650700
 100.4103640  17.2193010  52.6582570 111.4060140  16.2352330  63.2980720
 110.9033740  16.9757730  63.6374530 112.2216800  16.6236330  62.9817510
 109.6982150  21.4785510  56.7442080 108.7572290  21.4935740  56.9189770
 110.0126220  20.6921470  57.1902380  99.6763790  23.1605110  50.3046040
 100.4427060  23.0486470  50.8671470  99.7538480  22.4643080  49.6522810
  98.3710550  20.5930180  50.9878930  98.4514140  19.6457690  51.0996330
  99.2630300  20.9237060  51.0939590  99.1725260  30.7425570  58.0913470
  99.9087740  30.1941030  58.3622040  99.5566180  31.6081580  57.9519460
  96.0570740  26.8099140  53.9654980  95.1310520  27.0520280  53.9560390
  96.5227170  27.6373400  53.8439730  98.1783540  29.9271640  67.2799050
  98.9796270  30.2483690  67.6934450  97.6635360  29.5667220  68.0018960
 102.2827570  29.9155880  49.9139040 103.0756180  30.2044710  49.4620830
 101.7631920  29.4848050  49.2351520 107.0148170  26.0351510  67.2274460
 106.4086330  26.0583110  66.4870210 106.7102280  25.3034550  67.7641710
 111.3357740  29.1426010  51.3375780 111.0499250  28.7291150  50.5229960
 111.1377290  30.0713720  51.2176300 102.8004970  25.1359290  49.7781390
 102.6955610  24.5211640  50.5042770 102.6329190  24.6125180  48.9944400
 106.0407700  24.1979320  50.3823380 105.4917800  24.6448620  51.0266120
 106.6626960  23.6928570  50.9061050 110.0942640  25.5521420  66.3145640
 110.8352110  25.8897180  65.8113100 109.3315320  25.7213480  65.7615410
  97.9304430  20.5574690  67.1185170  97.9709770  20.2588560  68.0270400
  98.7849930  20.9582300  66.9592690  99.8710240  19.1366790  65.0859660
  99.3406700  18.6457740  64.4583000 100.5398310  19.5650990  64.5517590
 104.2210460  22.1807850  49.5265780 104.7416120  21.4656870  49.1606930
 104.8678860  22.8193720  49.8266290 108.7688300  23.6036250  64.8500850
 109.1829320  23.7581330  65.6991270 107.8339300  23.7291470  65.0126630
 109.2410470  20.9432410  66.8540000 109.8231240  20.1884730  66.7660480
 109.4172240  21.4739850  66.0771480 100.3582540  16.1029160  65.1656950
 100.2639410  15.4849910  64.4407820  99.7779930  16.8295450  64.9386860
 103.1243980  14.6602400  62.1984340 102.6761280  14.6826660  61.3529890
 102.4909180  14.2621420  62.7954640 103.5303530  23.5556730  62.8196780
 103.9491640  24.3989460  62.6473020 102.6112160  23.6928770  62.5903560
 105.8667430  21.2872910  64.2034620 105.9863640  20.6914050  64.9429460
 106.7261430  21.3242600  63.7835920 108.2055330  21.8410100  62.7797130
 107.6790550  22.3652720  62.1762270 108.5486670  22.4737490  63.4106860
 100.6041720  19.2303470  49.2246840 100.4030780  18.3670830  49.5860180
 100.4333770  19.1436830  48.2868440 102.6336200  17.8294260  65.4610440
 103.2235890  17.5210110  66.1488260 101.8156440  17.3574010  65.6170340
 107.4529630  17.4460070  65.6943460 106.7645150  16.7841610  65.6293450
 108.1735650  16.9998340  66.1391920 108.0830030  14.0411700  51.7533720
 108.3632320  13.1979600  52.1093140 107.3095760  14.2734810  52.2672470
  99.4024520  16.3304090  49.2124720  99.7050420  16.3371520  48.3043870
 100.1419110  15.9801950  49.7092380 102.6209450  15.2738710  50.1980920
 102.2731450  14.5962700  49.6183370 102.8222220  14.8128220  51.0124310
 104.7858490  30.2619460  51.8167520 105.6809280  30.6004430  51.8386280
 104.8176120  29.5398870  51.1891800  98.4254650  25.6346510  50.0454520
  98.8629520  26.1776180  50.7012100  98.9102380  24.8093460  50.0550860
  96.1290660  29.2906130  60.2356410  95.6921650  29.4706930  61.0680560
  96.6968340  30.0480750  60.0938130 113.0054290  26.5340950  49.8603430
 112.1747250  26.6017600  50.3310660 113.1826120  27.4245070  49.5570290
 112.4610750  23.2788430  52.3637630 113.2229660  23.8485080  52.4697320
 112.4765120  22.7115630  53.1345940  95.9615090  21.8026360  56.5945290
  95.3063930  21.5338000  55.9504990  96.7993040  21.6930840  56.1447270
 113.4670720  24.1338530  57.2079560 113.8379550  23.3505850  56.8015530
 114.1072650  24.8227630  57.0296860 112.5129920  23.5722800  49.5210150
 112.7878760  24.4801680  49.3929370 112.3240660  23.5085330  50.4572140
 108.9105530  16.5967650  50.8163780 109.3290410  16.4098630  49.9760440
 108.6041590  15.7446700  51.1266710 112.4095260  21.5091790  54.5139580
 112.0338860  20.7419720  54.0820870 111.6798380  21.8914490  55.0014510
  96.9991020  22.1878930  61.1348630  97.3664060  22.1006330  62.0144650
  96.4301840  21.4245480  61.0355490 111.7994880  20.6563310  64.1479100
 111.5680970  20.4276060  63.2477050 112.0599430  21.5762860  64.1023990
 110.2382950  15.8819740  66.9258800 111.1153130  15.8903140  67.3092800
 110.2503790  15.1450580  66.3151150  95.1753170  19.0125290  52.5370620
  94.2717250  19.2755490  52.3622280  95.6593790  19.2836460  51.7570580
 111.6846220  19.7349280  57.8146820 112.2083700  19.2411930  57.1836990
 112.2705640  19.8699640  58.5594390 111.8635940  19.8189150  61.3366370
 110.9138650  19.7852690  61.4511360 112.0448950  20.7289260  61.1016140
  97.7180380  18.0690830  50.4465000  98.4272080  17.6474050  49.9612280
  97.0020320  18.1366060  49.8148350  97.3654540  14.1230160  49.4867650
  98.0882670  14.6639100  49.8048870  97.6379060  13.8493580  48.6109190
 111.1746190  18.9922630  53.7539230 111.6705310  18.7593500  54.5388110
 110.9762260  18.1534470  53.3376870  97.0546730  13.3736350  59.3890270
  97.7022920  12.8233730  58.9485430  97.4748570  13.6279500  60.2106080
 112.6033350  17.6283580  56.2876910 112.4932630  17.4739620  57.2259180
 113.3640940  17.1004520  56.0452320 110.9499070  13.5677710  62.7459910
 111.5871290  14.1811850  63.1119100 111.0973960  13.6038370  61.8009140
 113.4923620  15.4591500  49.5283050 114.4172930  15.3272680  49.3201340
 113.4699410  15.5384320  50.4819500 113.5662110  16.2302160  52.1539760
 112.7713610  16.1647280  52.6832670 113.7705390  17.1652800  52.1425110
  96.8078730  13.5292020  62.1315590  96.4593550  13.9855840  62.8973770
  96.4766430  12.6349150  62.2138020  98.4143100  26.7011620  66.2968780
  98.3712730  26.3304530  67.1783240  98.5454110  27.6389190  66.4370600
 104.3203550  14.7203900  65.6535010 104.2592440  15.3125730  66.4030420
 105.2603930  14.6129860  65.5085270 106.9578110  14.3773960  65.2927300
 107.5718520  14.6953250  64.6308380 107.5027670  13.8922550  65.9123160
  97.4799370  13.0568220  65.4066360  98.0282360  12.8756270  64.6432470
  97.5454680  12.2662330  65.9422670  98.2531130  29.6473870  63.4166560
  97.6591450  29.5158570  64.1556600  98.2454970  28.8112010  62.9508660
 107.6986150  12.9406100  61.6196590 106.8245990  13.2741210  61.4169520
 107.5896900  12.4679280  62.4448460 108.6058130  15.1476970  63.0038310
 108.2771490  14.3328730  62.6240040 109.5540430  15.1046780  62.8804000
  97.8843360  27.0132250  62.3674600  97.1577420  26.3937540  62.3000550
  97.9452510  27.4072860  61.4972680 101.4888460  29.2277250  59.1524010
 102.0053480  28.6164610  58.6272270 102.1385840  29.7306030  59.6435020
 105.4460970  13.8575940  60.5589500 104.6632760  14.3321440  60.8386260
 105.1523900  12.9530770  60.4502680 109.9982040  14.5599040  58.6038590
 110.4390130  14.5044140  57.7560190 109.7289630  15.4757050  58.6748770
 111.8620610  14.1914280  56.6147410 111.8009010  13.2475500  56.4678430
 112.6412640  14.2994370  57.1600870  96.1673360  30.3306640  55.5771360
  95.9995400  29.6977320  56.2753250  95.3007870  30.5366040  55.2265550
  96.7901380  14.1623420  53.0803220  97.5480740  14.2752300  52.5067250
  96.3278550  14.9992620  53.0346650 103.3315190  16.2762690  56.0705530
 102.5189700  15.9019580  55.7301410 103.8356830  15.5207770  56.3726720
 107.8340170  12.9405140  57.3088600 108.4369540  13.5125350  57.7837120
 107.0933160  13.5044580  57.0862500 110.9774770  13.3426700  52.5828880
 111.1725400  14.2410150  52.8496310 110.1904640  13.1113780  53.0761830
  97.7736060  29.0239870  53.0221500  97.2483680  29.4047900  52.3183460
  97.6980640  29.6490640  53.7431210  99.1626530  14.6887470  51.6205190
  99.6919290  13.9017270  51.4913140  99.7954850  15.3678660  51.8540720
 101.3564370  14.4262610  54.6750580 100.7267110  13.7249920  54.8420710
 100.8169510  15.1866740  54.4583740 104.2956320  31.0401840  67.3461190
 105.2223630  30.8046110  67.3897150 104.2806750  31.8673840  66.8647220
 112.5301380  30.5827410  54.3435440 112.7053570  29.8965150  53.6996360
 111.8322950  31.1074460  53.9512110 101.4819930  13.7046590  67.1103070
 101.2004200  14.2080190  66.3463890 101.8639630  12.9068340  66.7445200
 100.3729030  30.9722250  51.8970750 101.1047850  30.6881530  51.3494640
 100.6322700  30.7335530  52.7870130  99.5343820  27.0886980  51.9017080
  98.9052700  27.5572080  52.4502910  99.6491650  26.2436200  52.3363270
 108.0835390  13.1200170  67.6883540 107.9700840  13.4394780  68.5835060
 108.9005130  13.5212680  67.3920820 106.9893540  21.1392640  38.0518280
 106.9087590  20.2247250  37.7809990 106.5757960  21.6359710  37.3457990
 105.1211580  22.9171660  39.9327550 104.3453680  22.4372100  40.2226120
 105.7724510  22.2377310  39.7583710  99.1377410  23.2291470  40.8103310
  98.3062290  22.9740180  41.2099820  99.7458390  23.3002240  41.5461230
 109.1419010  27.3231850  38.7126680 108.6800540  26.5519090  39.0413850
 109.9544560  27.3497920  39.2179130  99.1178670  27.2631560  41.0061330
  99.4206710  26.3729300  40.8271550  99.8622260  27.8201780  40.7783580
  97.5469360  18.1893360  34.5945700  96.6586060  18.5309330  34.4925580
  97.8310550  17.9893680  33.7026530  95.5102370  20.7899010  40.4785400
  96.0818480  20.0221210  40.4789040  95.5103910  21.0887770  39.5692010
 105.3682320  29.6089860  38.3330670 104.7493760  30.0647360  37.7625110
 106.2234100  29.7641320  37.9320370 104.5620570  25.5928850  39.9397710
 104.4928850  24.6518790  39.7786840 105.3240430  25.6830260  40.5120280
  96.7527240  16.1983370  42.2654330  96.5730080  15.3009120  42.5457090
  96.3507320  16.7455240  42.9401280 105.5925740  18.3999230  40.1666640
 105.9690560  17.5271110  40.0540310 105.4945250  18.7357930  39.2757080
  99.7230750  16.7724860  35.6284080  99.8297500  17.6728590  35.9352840
  98.8123110  16.7242830  35.3378730 109.3749860  15.8949670  37.0994980
 110.1959480  15.4046240  37.1420460 109.4083940  16.4847330  37.8526820
  97.3713910  18.6943870  40.8736670  98.0524020  18.9582240  41.4924070
  97.0561960  17.8544740  41.2074680 101.5638480  19.7411230  39.9609260
 102.0716700  20.2392200  40.6014280 102.0951720  18.9646430  39.7848620
 113.6649410  17.9116420  43.6638610 112.9601580  18.2998130  43.1453720
 113.9307330  18.6066710  44.2659540  99.8474580  14.3809790  44.2272680
  99.8493020  14.8982180  43.4218580  99.0178890  13.9039970  44.2042610
 106.2345670  24.4929100  35.7262580 105.6162940  24.9578550  35.1625300
 106.7468920  25.1856580  36.1432090 101.0977430  24.0204970  42.4046180
 100.7646810  24.6473890  43.0467250 101.2744110  24.5466850  41.6247850
 109.6111340  17.8350050  39.8722520 108.9066910  18.1234940  40.4525630
 109.9723500  18.6450160  39.5122080  99.5289910  16.0919750  42.2343130
  99.8706720  16.9361800  41.9397000  98.5905720  16.2403490  42.3508470
 100.3096530  25.9885770  44.2195360 100.9270530  26.6636850  43.9379810
  99.4489650  26.3973750  44.1282860  95.6028870  25.1785630  33.1002210
  95.2256850  25.6672730  32.3687110  95.8601940  25.8510910  33.7308740
 111.2274120  27.4525180  42.1350000 110.5437640  28.1224290  42.1266670
 111.7668410  27.6505830  41.3694860 112.6798260  17.2804840  40.2631730
 111.7323170  17.3143820  40.3947160 113.0048250  18.0943790  40.6481090
 103.2117800  13.5802020  38.5587720 103.5192780  13.0248910  37.8423220
 102.2818500  13.7146480  38.3760710 108.7632860  29.2969310  40.8495180
 108.7760020  28.8931600  39.9817440 108.2108080  30.0716600  40.7456610
 110.0578280  26.0185530  35.9385350 109.9474610  25.0759860  36.0634770
 110.0546530  26.3801170  36.8248110 108.1618300  24.1999150  42.1777790
 108.5787090  23.9859260  41.3431250 108.8858120  24.4571940  42.7486410
 105.5998560  21.6450850  35.2947840 104.6727840  21.5788230  35.5236310
 105.7523380  22.5830980  35.1803080 105.5867640  17.9167850  32.2915000
 104.6471310  18.0781810  32.3767460 105.9050900  18.6353530  31.7450990
 112.1080400  22.5986370  42.2694030 111.2799030  22.6679460  41.7944160
 112.7030880  23.1840680  41.8009860 109.6295850  23.2071150  35.7983090
 109.0108270  22.8690700  35.1509390 109.6120300  22.5630910  36.5062280
 109.0722410  19.3855690  43.2148900 108.6593590  20.2109400  43.4688890
 108.3398360  18.8000730  43.0225260 101.2055200  22.1715590  38.0767570
 100.8012200  21.4592840  37.5813470 101.2918320  21.8268830  38.9655610
 101.6736900  25.8583150  40.2406780 101.3765190  25.2528620  39.5614560
 102.6236720  25.8960460  40.1296140  99.9183820  18.9458800  41.8566610
 100.4698410  19.0554140  41.0819860 100.4327330  19.3196400  42.5721840
 109.7622510  29.4315020  43.9029880 109.2853070  30.2387210  43.7102490
 109.0784300  28.7793350  44.0556090 100.7655330  25.5964840  46.8914580
  99.8683860  25.8204810  47.1387980 100.7908200  25.7199780  45.9425980
 107.8060550  22.4457960  32.8055840 108.2453830  21.6080390  32.6593660
 108.5188970  23.0787360  32.8919980  99.5926550  22.4678160  45.4671950
  99.4534320  23.3400960  45.8359350  98.7107910  22.1250970  45.3219890
 105.9155930  27.3854030  36.7737080 106.3551840  28.1278360  36.3592470
 105.8542820  27.6280600  37.6976040 101.3906900  28.4099860  47.6757100
 101.3622330  28.8142810  46.8085530 101.2271870  27.4810220  47.5128700
 111.3877690  13.7000770  31.1196880 111.0750350  13.7927600  32.0195950
 112.1490160  14.2781800  31.0694310  97.9059830  21.0660570  35.5774220
  97.7857430  21.7922660  34.9655490  97.5960720  20.2963480  35.1002130
 113.3421720  29.1926960  48.9721270 113.8181440  29.6709850  49.6510350
 113.9628880  29.1244450  48.2466770  95.5445200  24.2375710  41.3842860
  95.6225620  24.3724480  40.4398580  96.1586880  23.5291600  41.5770980
  96.7892830  25.9375900  37.7949040  96.3820910  26.0790490  36.9402640
  97.6805840  25.6536060  37.5920250 112.7454970  26.3839810  46.1321280
 112.8718030  26.1451690  45.2138460 112.7876350  25.5524350  46.6043360
 106.6071710  30.0867810  44.7016090 107.1216380  29.9975820  45.5038520
 105.7640790  30.4327510  44.9944000 108.5826110  30.3723150  34.1300090
 108.4227250  30.0826090  35.0281920 108.4172820  29.5963280  33.5945320
 101.0614490  30.1521680  35.9071710 100.8856970  29.2357220  35.6939510
 100.2070230  30.5108970  36.1469510 108.2852240  27.8810710  32.6898090
 107.5917400  27.8788000  32.0300370 109.0275100  27.4570030  32.2592260
 107.8502170  29.5073420  36.7646580 108.3059120  28.7262800  37.0785200
 108.1894690  30.2180240  37.3087760 112.5978980  18.4372270  47.0971020
 111.9823250  18.9451940  46.5686480 112.2775400  17.5370600  47.0396960
  95.6004720  25.2789880  43.9237320  95.7635760  24.8095240  43.1056690
  96.0657170  24.7713440  44.5886160 100.3723490  14.4095640  38.9597890
  99.9291640  15.1905180  38.6282410 100.9308480  14.7325530  39.6668830
 104.6593300  17.2764160  44.5633210 104.1972670  17.4847180  45.3753150
 104.2571410  16.4623510  44.2603880 109.6597810  18.4973110  45.6929870
 108.8091400  18.1978860  46.0138940 109.4999600  18.7415120  44.7813690
 106.7547520  19.9974860  47.7928660 107.0800930  19.1638610  47.4530890
 107.5427850  20.5203380  47.9406990 103.4882310  14.0306340  33.8403720
 102.8636490  14.0266210  34.5657030 103.4012430  13.1637300  33.4439690
 102.4099390  14.9542970  40.8187490 102.7071720  15.8605800  40.7379510
 102.9584950  14.4661750  40.2047060 100.1637710  19.5329210  36.6879140
  99.9378630  19.3166380  37.5925760  99.3830240  19.9657670  36.3425110
 107.3935470  19.5392580  35.2869790 106.7944360  20.2628380  35.1033410
 107.9415080  19.4769360  34.5046240 102.6036920  20.4314790  47.3539410
 102.5080520  19.4909520  47.2039810 103.4468900  20.6529860  46.9587480
 106.0000340  18.1756120  37.3173070 106.3929910  18.4928320  36.5041760
 106.3617190  17.2968000  37.4317590  97.7347460  16.8428460  45.5073190
  97.3410850  17.6903670  45.7145970  97.0465860  16.2054830  45.6981830
 104.3092510  16.9263430  48.5769930 103.6190830  16.7335630  49.2116020
 105.0524810  17.2098070  49.1094230  95.0364510  14.7656920  39.5403270
  94.7477560  15.3359780  40.2528250  95.7810270  14.2861370  39.9034500
  95.2234740  18.7077040  30.7505990  95.1409410  19.6507800  30.8920980
  94.8717800  18.5651950  29.8718340 106.5855480  20.7661870  41.4123850
 105.8536600  21.2748680  41.7613950 106.1879820  19.9491850  41.1112630
 103.0232870  17.4416070  39.8176340 103.0268930  17.0006020  38.9680880
 103.9183990  17.7633400  39.9248160  98.8735250  17.3242560  38.7770550
  98.5335300  17.8017790  39.5337600  98.1112570  16.8707680  38.4171650
 103.0853020  18.4428150  32.8083100 103.2065840  18.4014630  33.7568920
 102.7001530  19.3052300  32.6529830 107.0481390  16.2195550  40.8246790
 107.0654130  16.6704200  41.6688640 106.7996970  15.3201190  41.0380230
 102.0974520  20.7529290  32.2066400 101.5291420  20.3047540  31.5802310
 102.8063520  21.1122070  31.6731550 110.4752140  13.6327730  46.6633170
 110.7997910  12.9017390  47.1891150 110.5108650  13.3141370  45.7614160
  97.1743700  24.6541310  46.0833130  96.7898490  24.0134980  46.6816090
  97.4855890  25.3577430  46.6527860 103.3240840  21.5017850  41.5641750
 103.6910970  21.0276420  42.3103090 103.1345900  22.3759420  41.9050090
  96.1881330  16.2461540  37.6935220  95.9028250  15.8817210  38.5313840
  96.1260190  15.5142000  37.0798360 101.1140210  20.5426490  43.8825960
 100.8097280  21.4218470  44.1076320 102.0686670  20.6026280  43.9183400
  99.6422000  24.7487480  34.4792810  98.8684260  24.2085100  34.3191530
 100.3716630  24.2294090  34.1410570 110.4009980  23.7452840  40.2719200
 111.1209100  24.2408130  39.8815310 110.1991800  23.0670730  39.6273070
 105.8619920  15.1390800  34.4148590 105.0484530  14.6403970  34.3393900
 105.6681870  15.9789050  33.9984940 105.7828780  23.8161900  46.1588200
 105.7166090  22.8957570  45.9045790 105.1533920  23.9137340  46.8732840
 108.5768310  19.5110450  32.7110750 109.4647930  19.8227680  32.5362090
 108.5473400  18.6382700  32.3191330  99.6859400  24.4167860  38.1171620
 100.2038070  23.6136120  38.0628510  99.2343420  24.3547000  38.9588450
 104.5728900  25.6834140  33.3898920 104.9144600  26.4276370  32.8942240
 103.7441610  25.9965260  33.7523750  97.1703940  21.3829230  45.0297320
  96.8118880  22.0483080  45.6170660  96.8758500  20.5512780  45.4009940
 100.3717060  21.8413470  47.9136870 100.0717200  21.9870650  47.0164690
 101.1428300  21.2818760  47.8210260 105.7145510  26.6382470  45.9092000
 105.7290050  25.7063430  45.6910910 105.0070610  26.7242230  46.5481770
 110.8482580  20.8222290  32.1790610 110.7646300  21.2536510  31.3287050
 111.5676770  21.2820640  32.6117430 111.9256720  23.2789810  45.2560580
 111.2004910  23.8718590  45.0589970 112.4532180  23.2713350  44.4573950
 111.8769830  27.6764550  34.9072740 111.2345990  27.0220170  35.1816460
 111.4900490  28.0819640  34.1313410 107.4556310  25.0049980  38.7544430
 107.8080130  24.4078110  38.0945800 106.5718640  24.6794210  38.9252680
 103.5419590  25.7647670  36.1614840 104.2290720  26.3116880  36.5422430
 102.7552010  26.3088400  36.1964450  95.6811990  21.3820490  31.6531920
  96.5506840  21.6645290  31.9367840  95.1902310  22.1956360  31.5380730
 102.8446800  22.7693700  35.7740200 103.3009580  23.5798950  36.0000390
 102.4935010  22.4516840  36.6058690 105.1479410  28.2800040  43.0032500
 105.7921630  28.4859420  43.6805920 105.5108850  27.5188440  42.5503350
  98.7458580  13.1131350  36.2462720  98.6173210  13.1049250  37.1947640
  97.9220600  13.4514440  35.8953730 106.4211490  26.2832390  41.7209950
 107.0633720  25.5825550  41.8342120 106.9460840  27.0630830  41.5406840
 110.2667210  26.5681010  31.4449090 110.0404790  25.8511450  32.0373730
 109.8763410  26.3193450  30.6070840 108.1949110  27.0827290  44.9246010
 108.5305350  27.6693980  45.6023930 107.2749450  26.9520000  45.1543800
  96.0483240  30.5947870  32.2193550  96.4080880  31.1937210  31.5650820
  95.9075580  31.1407760  32.9928580  95.7452510  14.8722470  45.7069420
  95.0311030  15.0719390  46.3122030  96.1647550  14.0962040  46.0784220
 109.8483460  24.4852950  33.1063250 109.5605160  24.9465640  33.8941130
 110.6435630  24.0250720  33.3747470 104.0237690  27.1318620  48.0934070
 103.7034560  26.4127860  48.6379760 103.3496050  27.8073690  48.1670130
 102.0651860  27.9779070  33.0367220 102.0561960  28.7108760  32.4211730
 101.1450220  27.7310650  33.1294180  97.6658500  23.1993960  33.7813980
  97.0586450  23.9392860  33.7909280  98.1407850  23.2893320  32.9552180
 107.2391290  17.3644780  43.4570870 107.6072110  16.5439990  43.7850440
 106.3789490  17.4246670  43.8726520 110.6053320  16.3201720  34.2658430
 109.9766480  16.4247390  33.5516660 110.1105240  16.5398500  35.0552310
 105.0511460  28.0407310  31.6992410 105.1523440  27.8371300  30.7694390
 104.1513200  27.7865590  31.9040190 102.5737350  18.5987670  35.6816310
 101.8653500  19.0674010  36.1229920 102.8581830  17.9409680  36.3161500
 104.1993280  20.0184370  43.6808840 104.6978530  20.4930190  44.3460690
 104.3416230  19.0947890  43.8878870 106.6052780  15.3238330  37.1212100
 106.4820560  15.3424460  36.1721610 107.5537340  15.3717270  37.2410500
 103.6929570  30.5593630  36.3940080 103.9471070  30.5215020  35.4719450
 102.7442050  30.4326960  36.3868330 100.7772370  16.9072750  33.0567020
 101.6262900  17.3442900  32.9907210 100.4103640  17.2193010  33.8839080
 111.4060140  16.2352330  44.5237230 110.9033740  16.9757730  44.8631040
 112.2216800  16.6236330  44.2074020 109.6982150  21.4785510  37.9698590
 108.7572290  21.4935740  38.1446280 110.0126220  20.6921470  38.4158890
  99.6763790  23.1605110  31.5302550 100.4427060  23.0486470  32.0927980
  99.7538480  22.4643080  30.8779320  98.3710550  20.5930180  32.2135440
  98.4514140  19.6457690  32.3252840  99.2630300  20.9237060  32.3196100
 111.7007730  28.6494360  39.6452850 111.8255150  29.4725530  40.1176660
 112.5673290  28.4385090  39.2977000  99.1725260  30.7425570  39.3169980
  99.9087740  30.1941030  39.5878550  99.5566180  31.6081580  39.1775970
  96.0570740  26.8099140  35.1911490  95.1310520  27.0520280  35.1816900
  96.5227170  27.6373400  35.0696240  98.1783540  29.9271640  48.5055560
  98.9796270  30.2483690  48.9190960  97.6635360  29.5667220  49.2275470
 102.2827570  29.9155880  31.1395550 103.0756180  30.2044710  30.6877340
 101.7631920  29.4848050  30.4608030 107.0148170  26.0351510  48.4530970
 106.4086330  26.0583110  47.7126720 106.7102280  25.3034550  48.9898220
 108.4448540  29.7631800  47.0640380 109.3970290  29.6789820  47.0140620
 108.2976760  30.4273510  47.7374170 111.3357740  29.1426010  32.5632290
 111.0499250  28.7291150  31.7486470 111.1377290  30.0713720  32.4432810
  95.8981350  22.4145100  47.4491610  96.4020370  21.8352380  48.0207840
  95.1588770  22.6985330  47.9867980 102.8004970  25.1359290  31.0037900
 102.6955610  24.5211640  31.7299280 102.6329190  24.6125180  30.2200910
 102.9519290  23.8216090  46.9827130 102.1864960  24.3901090  46.8981800
 103.1335250  23.5292300  46.0895360 106.0407700  24.1979320  31.6079890
 105.4917800  24.6448620  32.2522630 106.6626960  23.6928570  32.1317560
 110.0942640  25.5521420  47.5402150 110.8352110  25.8897180  47.0369610
 109.3315320  25.7213480  46.9871920  97.9304430  20.5574690  48.3441680
  97.9709770  20.2588560  49.2526910  98.7849930  20.9582300  48.1849200
 101.7082820  23.1570240  33.5045190 102.1299240  22.9910110  34.3476580
 101.8333660  22.3470470  33.0100330  99.8710240  19.1366790  46.3116170
  99.3406700  18.6457740  45.6839510 100.5398310  19.5650990  45.7774100
 104.2210460  22.1807850  30.7522290 104.7416120  21.4656870  30.3863440
 104.8678860  22.8193720  31.0522800 108.7688300  23.6036250  46.0757360
 109.1829320  23.7581330  46.9247780 107.8339300  23.7291470  46.2383140
 109.2410470  20.9432410  48.0796510 109.8231240  20.1884730  47.9916990
 109.4172240  21.4739850  47.3027990 100.3582540  16.1029160  46.3913460
 100.2639410  15.4849910  45.6664330  99.7779930  16.8295450  46.1643370
 103.1243980  14.6602400  43.4240850 102.6761280  14.6826660  42.5786400
 102.4909180  14.2621420  44.0211150 103.5303530  23.5556730  44.0453290
 103.9491640  24.3989460  43.8729530 102.6112160  23.6928770  43.8160070
 105.8667430  21.2872910  45.4291130 105.9863640  20.6914050  46.1685970
 106.7261430  21.3242600  45.0092430 108.2055330  21.8410100  44.0053640
 107.6790550  22.3652720  43.4018780 108.5486670  22.4737490  44.6363370
 100.6041720  19.2303470  30.4503350 100.4030780  18.3670830  30.8116690
 100.4333770  19.1436830  29.5124950 101.3810950  29.8609740  45.1611020
 100.8432040  30.5855800  44.8419720 101.6344910  29.3840080  44.3708360
 102.6336200  17.8294260  46.6866950 103.2235890  17.5210110  47.3744770
 101.8156440  17.3574010  46.8426850 107.4529630  17.4460070  46.9199970
 106.7645150  16.7841610  46.8549960 108.1735650  16.9998340  47.3648430
 108.0830030  14.0411700  32.9790230 108.3632320  13.1979600  33.3349650
 107.3095760  14.2734810  33.4928980  99.4024520  16.3304090  30.4381230
  99.7050420  16.3371520  29.5300380 100.1419110  15.9801950  30.9348890
 104.2373160  31.0960950  45.4197670 104.1631860  31.9996090  45.7270040
 103.3352000  30.7772850  45.3919740 102.6209450  15.2738710  31.4237430
 102.2731450  14.5962700  30.8439880 102.8222220  14.8128220  32.2380820
 104.7858490  30.2619460  33.0424030 105.6809280  30.6004430  33.0642790
 104.8176120  29.5398870  32.4148310  98.4254650  25.6346510  31.2711030
  98.8629520  26.1776180  31.9268610  98.9102380  24.8093460  31.2807370
  95.6400450  28.4235540  38.7231290  95.9703460  27.5556600  38.4909930
  96.0691450  28.6294060  39.5536250 100.2362370  26.7544550  36.3833260
  99.9357910  26.6309520  37.2837170 100.1299860  25.8953140  35.9748990
  96.1290660  29.2906130  41.4612920  95.6921650  29.4706930  42.2937070
  96.6968340  30.0480750  41.3194640 111.7652840  28.7923130  45.7490230
 111.1654830  28.8515690  45.0054150 111.8946740  27.8528110  45.8787080
 113.0054290  26.5340950  31.0859940 112.1747250  26.6017600  31.5567170
 113.1826120  27.4245070  30.7826800 112.4610750  23.2788430  33.5894140
 113.2229660  23.8485080  33.6953830 112.4765120  22.7115630  34.3602450
  95.9615090  21.8026360  37.8201800  95.3063930  21.5338000  37.1761500
  96.7993040  21.6930840  37.3703780 113.4670720  24.1338530  38.4336070
 113.8379550  23.3505850  38.0272040 114.1072650  24.8227630  38.2553370
 110.4504480  25.5175110  43.8466390 109.6364320  25.9472270  44.1092180
 110.8578680  26.1293520  43.2335440 112.5129920  23.5722800  30.7466660
 112.7878760  24.4801680  30.6185880 112.3240660  23.5085330  31.6828650
 108.9105530  16.5967650  32.0420290 109.3290410  16.4098630  31.2016950
 108.6041590  15.7446700  32.3523220 112.4095260  21.5091790  35.7396090
 112.0338860  20.7419720  35.3077380 111.6798380  21.8914490  36.2271020
  96.9991020  22.1878930  42.3605140  97.3664060  22.1006330  43.2401160
  96.4301840  21.4245480  42.2612000 111.7994880  20.6563310  45.3735610
 111.5680970  20.4276060  44.4733560 112.0599430  21.5762860  45.3280500
  96.5507020  19.0988020  46.2663560  95.6563070  19.0654780  46.6057270
  97.0904570  19.2974810  47.0314810 110.2382950  15.8819740  48.1515310
 111.1153130  15.8903140  48.5349310 110.2503790  15.1450580  47.5407660
  95.1753170  19.0125290  33.7627130  94.2717250  19.2755490  33.5878790
  95.6593790  19.2836460  32.9827090 111.6846220  19.7349280  39.0403330
 112.2083700  19.2411930  38.4093500 112.2705640  19.8699640  39.7850900
 111.8635940  19.8189150  42.5622880 110.9138650  19.7852690  42.6767870
 112.0448950  20.7289260  42.3272650  97.7180380  18.0690830  31.6721510
  98.4272080  17.6474050  31.1868790  97.0020320  18.1366060  31.0404860
  97.3654540  14.1230160  30.7124160  98.0882670  14.6639100  31.0305380
  97.6379060  13.8493580  29.8365700 111.1746190  18.9922630  34.9795740
 111.6705310  18.7593500  35.7644620 110.9762260  18.1534470  34.5633380
  97.0546730  13.3736350  40.6146780  97.7022920  12.8233730  40.1741940
  97.4748570  13.6279500  41.4362590 112.6033350  17.6283580  37.5133420
 112.4932630  17.4739620  38.4515690 113.3640940  17.1004520  37.2708830
 110.9499070  13.5677710  43.9716420 111.5871290  14.1811850  44.3375610
 111.0973960  13.6038370  43.0265650 113.4923620  15.4591500  30.7539560
 114.4172930  15.3272680  30.5457850 113.4699410  15.5384320  31.7076010
 113.5662110  16.2302160  33.3796270 112.7713610  16.1647280  33.9089180
 113.7705390  17.1652800  33.3681620 110.5080530  30.2693710  37.3734660
 111.1039600  29.9478280  36.6969080 110.7658680  29.7965530  38.1647930
  96.8078730  13.5292020  43.3572100  96.4593550  13.9855840  44.1230280
  96.4766430  12.6349150  43.4394530  98.4143100  26.7011620  47.5225290
  98.3712730  26.3304530  48.4039750  98.5454110  27.6389190  47.6627110
 102.1149130  28.2571210  43.1235010 101.8740490  28.5245770  42.2365530
 103.0551770  28.4276940  43.1785870 104.3203550  14.7203900  46.8791520
 104.2592440  15.3125730  47.6286930 105.2603930  14.6129860  46.7341780
 106.9578110  14.3773960  46.5183810 107.5718520  14.6953250  45.8564890
 107.5027670  13.8922550  47.1379670 113.3753290  30.2765590  43.9245650
 112.8811570  30.6734460  43.2072780 112.7666580  29.6514800  44.3182930
  97.4799370  13.0568220  46.6322870  98.0282360  12.8756270  45.8688980
  97.5454680  12.2662330  47.1679180  98.2531130  29.6473870  44.6423070
  97.6591450  29.5158570  45.3813110  98.2454970  28.8112010  44.1765170
 107.6986150  12.9406100  42.8453100 106.8245990  13.2741210  42.6426030
 107.5896900  12.4679280  43.6704970 108.6058130  15.1476970  44.2294820
 108.2771490  14.3328730  43.8496550 109.5540430  15.1046780  44.1060510
 111.0592740  30.9189010  41.2032390 110.5995710  31.6704820  40.8290410
 110.4305200  30.1995480  41.1447190  97.8843360  27.0132250  43.5931110
  97.1577420  26.3937540  43.5257060  97.9452510  27.4072860  42.7229190
 101.4888460  29.2277250  40.3780520 102.0053480  28.6164610  39.8528780
 102.1385840  29.7306030  40.8691530 104.2283960  30.1185740  41.2049500
 104.5161770  29.8640040  40.3282510 104.7407180  29.5663100  41.7955070
 105.4460970  13.8575940  41.7846010 104.6632760  14.3321440  42.0642770
 105.1523900  12.9530770  41.6759190 109.9982040  14.5599040  39.8295100
 110.4390130  14.5044140  38.9816700 109.7289630  15.4757050  39.9005280
 111.8620610  14.1914280  37.8403920 111.8009010  13.2475500  37.6934940
 112.6412640  14.2994370  38.3857380  96.7901380  14.1623420  34.3059730
  97.5480740  14.2752300  33.7323760  96.3278550  14.9992620  34.2603160
 103.3315190  16.2762690  37.2962040 102.5189700  15.9019580  36.9557920
 103.8356830  15.5207770  37.5983230 107.8340170  12.9405140  38.5345110
 108.4369540  13.5125350  39.0093630 107.0933160  13.5044580  38.3119010
 110.9774770  13.3426700  33.8085390 111.1725400  14.2410150  34.0752820
 110.1904640  13.1113780  34.3018340  97.7736060  29.0239870  34.2478010
  97.2483680  29.4047900  33.5439970  97.6980640  29.6490640  34.9687720
  99.1626530  14.6887470  32.8461700  99.6919290  13.9017270  32.7169650
  99.7954850  15.3678660  33.0797230 101.3564370  14.4262610  35.9007090
 100.7267110  13.7249920  36.0677220 100.8169510  15.1866740  35.6840250
 104.2956320  31.0401840  48.5717700 105.2223630  30.8046110  48.6153660
 104.2806750  31.8673840  48.0903730 112.5301380  30.5827410  35.5691950
 112.7053570  29.8965150  34.9252870 111.8322950  31.1074460  35.1768620
 101.4819930  13.7046590  48.3359580 101.2004200  14.2080190  47.5720400
 101.8639630  12.9068340  47.9701710 100.3729030  30.9722250  33.1227260
 101.1047850  30.6881530  32.5751150 100.6322700  30.7335530  34.0126640
  99.5343820  27.0886980  33.1273590  98.9052700  27.5572080  33.6759420
  99.6491650  26.2436200  33.5619780 108.0835390  13.1200170  48.9140050
 107.9700840  13.4394780  49.8091570 108.9005130  13.5212680  48.6177330
 110.8633880  30.2671700  48.3958740 111.6559200  29.7720930  48.1884700
 111.1567030  30.9461840  49.0034350 106.9893540  21.1392640  19.2774790
 106.9087590  20.2247250  19.0066500 106.5757960  21.6359710  18.5714500
 105.1211580  22.9171660  21.1584060 104.3453680  22.4372100  21.4482630
 105.7724510  22.2377310  20.9840220  99.1377410  23.2291470  22.0359820
  98.3062290  22.9740180  22.4356330  99.7458390  23.3002240  22.7717740
 109.1419010  27.3231850  19.9383190 108.6800540  26.5519090  20.2670360
 109.9544560  27.3497920  20.4435640  99.1178670  27.2631560  22.2317840
  99.4206710  26.3729300  22.0528060  99.8622260  27.8201780  22.0040090
  97.5469360  18.1893360  15.8202210  96.6586060  18.5309330  15.7182090
  97.8310550  17.9893680  14.9283040  95.5102370  20.7899010  21.7041910
  96.0818480  20.0221210  21.7045550  95.5103910  21.0887770  20.7948520
 105.3682320  29.6089860  19.5587180 104.7493760  30.0647360  18.9881620
 106.2234100  29.7641320  19.1576880 104.5620570  25.5928850  21.1654220
 104.4928850  24.6518790  21.0043350 105.3240430  25.6830260  21.7376790
  96.7527240  16.1983370  23.4910840  96.5730080  15.3009120  23.7713600
  96.3507320  16.7455240  24.1657790 105.5925740  18.3999230  21.3923150
 105.9690560  17.5271110  21.2796820 105.4945250  18.7357930  20.5013590
  99.7230750  16.7724860  16.8540590  99.8297500  17.6728590  17.1609350
  98.8123110  16.7242830  16.5635240 109.3749860  15.8949670  18.3251490
 110.1959480  15.4046240  18.3676970 109.4083940  16.4847330  19.0783330
  97.3713910  18.6943870  22.0993180  98.0524020  18.9582240  22.7180580
  97.0561960  17.8544740  22.4331190 101.5638480  19.7411230  21.1865770
 102.0716700  20.2392200  21.8270790 102.0951720  18.9646430  21.0105130
 113.6649410  17.9116420  24.8895120 112.9601580  18.2998130  24.3710230
 113.9307330  18.6066710  25.4916050  99.8474580  14.3809790  25.4529190
  99.8493020  14.8982180  24.6475090  99.0178890  13.9039970  25.4299120
 106.2345670  24.4929100  16.9519090 105.6162940  24.9578550  16.3881810
 106.7468920  25.1856580  17.3688600 101.0977430  24.0204970  23.6302690
 100.7646810  24.6473890  24.2723760 101.2744110  24.5466850  22.8504360
 109.6111340  17.8350050  21.0979030 108.9066910  18.1234940  21.6782140
 109.9723500  18.6450160  20.7378590  99.5289910  16.0919750  23.4599640
  99.8706720  16.9361800  23.1653510  98.5905720  16.2403490  23.5764980
 100.3096530  25.9885770  25.4451870 100.9270530  26.6636850  25.1636320
  99.4489650  26.3973750  25.3539370  95.6028870  25.1785630  14.3258720
  95.2256850  25.6672730  13.5943620  95.8601940  25.8510910  14.9565250
 111.2274120  27.4525180  23.3606510 110.5437640  28.1224290  23.3523180
 111.7668410  27.6505830  22.5951370 112.6798260  17.2804840  21.4888240
 111.7323170  17.3143820  21.6203670 113.0048250  18.0943790  21.8737600
 103.2117800  13.5802020  19.7844230 103.5192780  13.0248910  19.0679730
 102.2818500  13.7146480  19.6017220 108.7632860  29.2969310  22.0751690
 108.7760020  28.8931600  21.2073950 108.2108080  30.0716600  21.9713120
 110.0578280  26.0185530  17.1641860 109.9474610  25.0759860  17.2891280
 110.0546530  26.3801170  18.0504620 108.1618300  24.1999150  23.4034300
 108.5787090  23.9859260  22.5687760 108.8858120  24.4571940  23.9742920
 105.5998560  21.6450850  16.5204350 104.6727840  21.5788230  16.7492820
 105.7523380  22.5830980  16.4059590 105.5867640  17.9167850  13.5171510
 104.6471310  18.0781810  13.6023970 105.9050900  18.6353530  12.9707500
 112.1080400  22.5986370  23.4950540 111.2799030  22.6679460  23.0200670
 112.7030880  23.1840680  23.0266370 109.6295850  23.2071150  17.0239600
 109.0108270  22.8690700  16.3765900 109.6120300  22.5630910  17.7318790
 109.0722410  19.3855690  24.4405410 108.6593590  20.2109400  24.6945400
 108.3398360  18.8000730  24.2481770 101.2055200  22.1715590  19.3024080
 100.8012200  21.4592840  18.8069980 101.2918320  21.8268830  20.1912120
 101.6736900  25.8583150  21.4663290 101.3765190  25.2528620  20.7871070
 102.6236720  25.8960460  21.3552650  99.9183820  18.9458800  23.0823120
 100.4698410  19.0554140  22.3076370 100.4327330  19.3196400  23.7978350
 109.7622510  29.4315020  25.1286390 109.2853070  30.2387210  24.9359000
 109.0784300  28.7793350  25.2812600 100.7655330  25.5964840  28.1171090
  99.8683860  25.8204810  28.3644490 100.7908200  25.7199780  27.1682490
 107.8060550  22.4457960  14.0312350 108.2453830  21.6080390  13.8850170
 108.5188970  23.0787360  14.1176490  99.5926550  22.4678160  26.6928460
  99.4534320  23.3400960  27.0615860  98.7107910  22.1250970  26.5476400
 105.9155930  27.3854030  17.9993590 106.3551840  28.1278360  17.5848980
 105.8542820  27.6280600  18.9232550 101.3906900  28.4099860  28.9013610
 101.3622330  28.8142810  28.0342040 101.2271870  27.4810220  28.7385210
 111.3877690  13.7000770  12.3453390 111.0750350  13.7927600  13.2452460
 112.1490160  14.2781800  12.2950820  97.9059830  21.0660570  16.8030730
  97.7857430  21.7922660  16.1912000  97.5960720  20.2963480  16.3258640
 113.3421720  29.1926960  30.1977780 113.8181440  29.6709850  30.8766860
 113.9628880  29.1244450  29.4723280  95.5445200  24.2375710  22.6099370
  95.6225620  24.3724480  21.6655090  96.1586880  23.5291600  22.8027490
  96.7892830  25.9375900  19.0205550  96.3820910  26.0790490  18.1659150
  97.6805840  25.6536060  18.8176760 112.7454970  26.3839810  27.3577790
 112.8718030  26.1451690  26.4394970 112.7876350  25.5524350  27.8299870
 106.6071710  30.0867810  25.9272600 107.1216380  29.9975820  26.7295030
 105.7640790  30.4327510  26.2200510 108.5826110  30.3723150  15.3556600
 108.4227250  30.0826090  16.2538430 108.4172820  29.5963280  14.8201830
 101.0614490  30.1521680  17.1328220 100.8856970  29.2357220  16.9196020
 100.2070230  30.5108970  17.3726020 108.2852240  27.8810710  13.9154600
 107.5917400  27.8788000  13.2556880 109.0275100  27.4570030  13.4848770
 107.8502170  29.5073420  17.9903090 108.3059120  28.7262800  18.3041710
 108.1894690  30.2180240  18.5344270 112.5978980  18.4372270  28.3227530
 111.9823250  18.9451940  27.7942990 112.2775400  17.5370600  28.2653470
  95.6004720  25.2789880  25.1493830  95.7635760  24.8095240  24.3313200
  96.0657170  24.7713440  25.8142670 100.3723490  14.4095640  20.1854400
  99.9291640  15.1905180  19.8538920 100.9308480  14.7325530  20.8925340
 104.6593300  17.2764160  25.7889720 104.1972670  17.4847180  26.6009660
 104.2571410  16.4623510  25.4860390 109.6597810  18.4973110  26.9186380
 108.8091400  18.1978860  27.2395450 109.4999600  18.7415120  26.0070200
 106.7547520  19.9974860  29.0185170 107.0800930  19.1638610  28.6787400
 107.5427850  20.5203380  29.1663500 103.4882310  14.0306340  15.0660230
 102.8636490  14.0266210  15.7913540 103.4012430  13.1637300  14.6696200
 102.4099390  14.9542970  22.0444000 102.7071720  15.8605800  21.9636020
 102.9584950  14.4661750  21.4303570 100.1637710  19.5329210  17.9135650
  99.9378630  19.3166380  18.8182270  99.3830240  19.9657670  17.5681620
 107.3935470  19.5392580  16.5126300 106.7944360  20.2628380  16.3289920
 107.9415080  19.4769360  15.7302750 102.6036920  20.4314790  28.5795920
 102.5080520  19.4909520  28.4296320 103.4468900  20.6529860  28.1843990
 106.0000340  18.1756120  18.5429580 106.3929910  18.4928320  17.7298270
 106.3617190  17.2968000  18.6574100  97.7347460  16.8428460  26.7329700
  97.3410850  17.6903670  26.9402480  97.0465860  16.2054830  26.9238340
 104.3092510  16.9263430  29.8026440 103.6190830  16.7335630  30.4372530
 105.0524810  17.2098070  30.3350740  95.0364510  14.7656920  20.7659780
  94.7477560  15.3359780  21.4784760  95.7810270  14.2861370  21.1291010
  95.2234740  18.7077040  11.9762500  95.1409410  19.6507800  12.1177490
  94.8717800  18.5651950  11.0974850 106.5855480  20.7661870  22.6380360
 105.8536600  21.2748680  22.9870460 106.1879820  19.9491850  22.3369140
 103.0232870  17.4416070  21.0432850 103.0268930  17.0006020  20.1937390
 103.9183990  17.7633400  21.1504670  98.8735250  17.3242560  20.0027060
  98.5335300  17.8017790  20.7594110  98.1112570  16.8707680  19.6428160
 103.0853020  18.4428150  14.0339610 103.2065840  18.4014630  14.9825430
 102.7001530  19.3052300  13.8786340 107.0481390  16.2195550  22.0503300
 107.0654130  16.6704200  22.8945150 106.7996970  15.3201190  22.2636740
 102.0974520  20.7529290  13.4322910 101.5291420  20.3047540  12.8058820
 102.8063520  21.1122070  12.8988060 110.4752140  13.6327730  27.8889680
 110.7997910  12.9017390  28.4147660 110.5108650  13.3141370  26.9870670
  97.1743700  24.6541310  27.3089640  96.7898490  24.0134980  27.9072600
  97.4855890  25.3577430  27.8784370 103.3240840  21.5017850  22.7898260
 103.6910970  21.0276420  23.5359600 103.1345900  22.3759420  23.1306600
  96.1881330  16.2461540  18.9191730  95.9028250  15.8817210  19.7570350
  96.1260190  15.5142000  18.3054870 101.1140210  20.5426490  25.1082470
 100.8097280  21.4218470  25.3332830 102.0686670  20.6026280  25.1439910
  99.6422000  24.7487480  15.7049320  98.8684260  24.2085100  15.5448040
 100.3716630  24.2294090  15.3667080 110.4009980  23.7452840  21.4975710
 111.1209100  24.2408130  21.1071820 110.1991800  23.0670730  20.8529580
 105.8619920  15.1390800  15.6405100 105.0484530  14.6403970  15.5650410
 105.6681870  15.9789050  15.2241450 105.7828780  23.8161900  27.3844710
 105.7166090  22.8957570  27.1302300 105.1533920  23.9137340  28.0989350
 108.5768310  19.5110450  13.9367260 109.4647930  19.8227680  13.7618600
 108.5473400  18.6382700  13.5447840  99.6859400  24.4167860  19.3428130
 100.2038070  23.6136120  19.2885020  99.2343420  24.3547000  20.1844960
 104.5728900  25.6834140  14.6155430 104.9144600  26.4276370  14.1198750
 103.7441610  25.9965260  14.9780260  97.1703940  21.3829230  26.2553830
  96.8118880  22.0483080  26.8427170  96.8758500  20.5512780  26.6266450
 100.3717060  21.8413470  29.1393380 100.0717200  21.9870650  28.2421200
 101.1428300  21.2818760  29.0466770 105.7145510  26.6382470  27.1348510
 105.7290050  25.7063430  26.9167420 105.0070610  26.7242230  27.7738280
 110.8482580  20.8222290  13.4047120 110.7646300  21.2536510  12.5543560
 111.5676770  21.2820640  13.8373940 111.9256720  23.2789810  26.4817090
 111.2004910  23.8718590  26.2846480 112.4532180  23.2713350  25.6830460
 111.8769830  27.6764550  16.1329250 111.2345990  27.0220170  16.4072970
 111.4900490  28.0819640  15.3569920 107.4556310  25.0049980  19.9800940
 107.8080130  24.4078110  19.3202310 106.5718640  24.6794210  20.1509190
 103.5419590  25.7647670  17.3871350 104.2290720  26.3116880  17.7678940
 102.7552010  26.3088400  17.4220960  95.6811990  21.3820490  12.8788430
  96.5506840  21.6645290  13.1624350  95.1902310  22.1956360  12.7637240
 102.8446800  22.7693700  16.9996710 103.3009580  23.5798950  17.2256900
 102.4935010  22.4516840  17.8315200 105.1479410  28.2800040  24.2289010
 105.7921630  28.4859420  24.9062430 105.5108850  27.5188440  23.7759860
  98.7458580  13.1131350  17.4719230  98.6173210  13.1049250  18.4204150
  97.9220600  13.4514440  17.1210240 106.4211490  26.2832390  22.9466460
 107.0633720  25.5825550  23.0598630 106.9460840  27.0630830  22.7663350
 110.2667210  26.5681010  12.6705600 110.0404790  25.8511450  13.2630240
 109.8763410  26.3193450  11.8327350 108.1949110  27.0827290  26.1502520
 108.5305350  27.6693980  26.8280440 107.2749450  26.9520000  26.3800310
  96.0483240  30.5947870  13.4450060  96.4080880  31.1937210  12.7907330
  95.9075580  31.1407760  14.2185090  95.7452510  14.8722470  26.9325930
  95.0311030  15.0719390  27.5378540  96.1647550  14.0962040  27.3040730
 109.8483460  24.4852950  14.3319760 109.5605160  24.9465640  15.1197640
 110.6435630  24.0250720  14.6003980  96.0325100  28.8602730  27.9192460
  96.1416220  27.9197470  27.7787850  95.3805660  29.1257480  27.2706190
 104.0237690  27.1318620  29.3190580 103.7034560  26.4127860  29.8636270
 103.3496050  27.8073690  29.3926640 102.0651860  27.9779070  14.2623730
 102.0561960  28.7108760  13.6468240 101.1450220  27.7310650  14.3550690
  97.6658500  23.1993960  15.0070490  97.0586450  23.9392860  15.0165790
  98.1407850  23.2893320  14.1808690 107.2391290  17.3644780  24.6827380
 107.6072110  16.5439990  25.0106950 106.3789490  17.4246670  25.0983030
 110.6053320  16.3201720  15.4914940 109.9766480  16.4247390  14.7773170
 110.1105240  16.5398500  16.2808820 105.0511460  28.0407310  12.9248920
 105.1523440  27.8371300  11.9950900 104.1513200  27.7865590  13.1296700
 102.5737350  18.5987670  16.9072820 101.8653500  19.0674010  17.3486430
 102.8581830  17.9409680  17.5418010 104.1993280  20.0184370  24.9065350
 104.6978530  20.4930190  25.5717200 104.3416230  19.0947890  25.1135380
 106.6052780  15.3238330  18.3468610 106.4820560  15.3424460  17.3978120
 107.5537340  15.3717270  18.4667010 103.6929570  30.5593630  17.6196590
 103.9471070  30.5215020  16.6975960 102.7442050  30.4326960  17.6124840
 100.7772370  16.9072750  14.2823530 101.6262900  17.3442900  14.2163720
 100.4103640  17.2193010  15.1095590 111.4060140  16.2352330  25.7493740
 110.9033740  16.9757730  26.0887550 112.2216800  16.6236330  25.4330530
 109.6982150  21.4785510  19.1955100 108.7572290  21.4935740  19.3702790
 110.0126220  20.6921470  19.6415400  99.6763790  23.1605110  12.7559060
 100.4427060  23.0486470  13.3184490  99.7538480  22.4643080  12.1035830
  98.3710550  20.5930180  13.4391950  98.4514140  19.6457690  13.5509350
  99.2630300  20.9237060  13.5452610 111.7007730  28.6494360  20.8709360
 111.8255150  29.4725530  21.3433170 112.5673290  28.4385090  20.5233510
  99.1725260  30.7425570  20.5426490  99.9087740  30.1941030  20.8135060
  99.5566180  31.6081580  20.4032480  96.0570740  26.8099140  16.4168000
  95.1310520  27.0520280  16.4073410  96.5227170  27.6373400  16.2952750
  98.1783540  29.9271640  29.7312070  98.9796270  30.2483690  30.1447470
  97.6635360  29.5667220  30.4531980 102.2827570  29.9155880  12.3652060
 103.0756180  30.2044710  11.9133850 101.7631920  29.4848050  11.6864540
 107.0148170  26.0351510  29.6787480 106.4086330  26.0583110  28.9383230
 106.7102280  25.3034550  30.2154730 108.4448540  29.7631800  28.2896890
 109.3970290  29.6789820  28.2397130 108.2976760  30.4273510  28.9630680
 111.3357740  29.1426010  13.7888800 111.0499250  28.7291150  12.9742980
 111.1377290  30.0713720  13.6689320  95.8981350  22.4145100  28.6748120
  96.4020370  21.8352380  29.2464350  95.1588770  22.6985330  29.2124490
 102.8004970  25.1359290  12.2294410 102.6955610  24.5211640  12.9555790
 102.6329190  24.6125180  11.4457420 102.9519290  23.8216090  28.2083640
 102.1864960  24.3901090  28.1238310 103.1335250  23.5292300  27.3151870
 106.0407700  24.1979320  12.8336400 105.4917800  24.6448620  13.4779140
 106.6626960  23.6928570  13.3574070 110.0942640  25.5521420  28.7658660
 110.8352110  25.8897180  28.2626120 109.3315320  25.7213480  28.2128430
  97.9304430  20.5574690  29.5698190  97.9709770  20.2588560  30.4783420
  98.7849930  20.9582300  29.4105710 101.7082820  23.1570240  14.7301700
 102.1299240  22.9910110  15.5733090 101.8333660  22.3470470  14.2356840
  99.8710240  19.1366790  27.5372680  99.3406700  18.6457740  26.9096020
 100.5398310  19.5650990  27.0030610 104.2210460  22.1807850  11.9778800
 104.7416120  21.4656870  11.6119950 104.8678860  22.8193720  12.2779310
 108.7688300  23.6036250  27.3013870 109.1829320  23.7581330  28.1504290
 107.8339300  23.7291470  27.4639650 109.2410470  20.9432410  29.3053020
 109.8231240  20.1884730  29.2173500 109.4172240  21.4739850  28.5284500
 100.3582540  16.1029160  27.6169970 100.2639410  15.4849910  26.8920840
  99.7779930  16.8295450  27.3899880 103.1243980  14.6602400  24.6497360
 102.6761280  14.6826660  23.8042910 102.4909180  14.2621420  25.2467660
 103.5303530  23.5556730  25.2709800 103.9491640  24.3989460  25.0986040
 102.6112160  23.6928770  25.0416580 105.8667430  21.2872910  26.6547640
 105.9863640  20.6914050  27.3942480 106.7261430  21.3242600  26.2348940
 108.2055330  21.8410100  25.2310150 107.6790550  22.3652720  24.6275290
 108.5486670  22.4737490  25.8619880 100.6041720  19.2303470  11.6759860
 100.4030780  18.3670830  12.0373200 100.4333770  19.1436830  10.7381460
 101.3810950  29.8609740  26.3867530 100.8432040  30.5855800  26.0676230
 101.6344910  29.3840080  25.5964870 102.6336200  17.8294260  27.9123460
 103.2235890  17.5210110  28.6001280 101.8156440  17.3574010  28.0683360
 107.4529630  17.4460070  28.1456480 106.7645150  16.7841610  28.0806470
 108.1735650  16.9998340  28.5904940 108.0830030  14.0411700  14.2046740
 108.3632320  13.1979600  14.5606160 107.3095760  14.2734810  14.7185490
  99.4024520  16.3304090  11.6637740  99.7050420  16.3371520  10.7556890
 100.1419110  15.9801950  12.1605400 104.2373160  31.0960950  26.6454180
 104.1631860  31.9996090  26.9526550 103.3352000  30.7772850  26.6176250
 102.6209450  15.2738710  12.6493940 102.2731450  14.5962700  12.0696390
 102.8222220  14.8128220  13.4637330 104.7858490  30.2619460  14.2680540
 105.6809280  30.6004430  14.2899300 104.8176120  29.5398870  13.6404820
  98.4254650  25.6346510  12.4967540  98.8629520  26.1776180  13.1525120
  98.9102380  24.8093460  12.5063880  95.6400450  28.4235540  19.9487800
  95.9703460  27.5556600  19.7166440  96.0691450  28.6294060  20.7792760
 100.2362370  26.7544550  17.6089770  99.9357910  26.6309520  18.5093680
 100.1299860  25.8953140  17.2005500  96.1290660  29.2906130  22.6869430
  95.6921650  29.4706930  23.5193580  96.6968340  30.0480750  22.5451150
 111.7652840  28.7923130  26.9746740 111.1654830  28.8515690  26.2310660
 111.8946740  27.8528110  27.1043590 113.0054290  26.5340950  12.3116450
 112.1747250  26.6017600  12.7823680 113.1826120  27.4245070  12.0083310
 112.4610750  23.2788430  14.8150650 113.2229660  23.8485080  14.9210340
 112.4765120  22.7115630  15.5858960  95.9615090  21.8026360  19.0458310
  95.3063930  21.5338000  18.4018010  96.7993040  21.6930840  18.5960290
 113.4670720  24.1338530  19.6592580 113.8379550  23.3505850  19.2528550
 114.1072650  24.8227630  19.4809880 110.4504480  25.5175110  25.0722900
 109.6364320  25.9472270  25.3348690 110.8578680  26.1293520  24.4591950
 112.5129920  23.5722800  11.9723170 112.7878760  24.4801680  11.8442390
 112.3240660  23.5085330  12.9085160 108.9105530  16.5967650  13.2676800
 109.3290410  16.4098630  12.4273460 108.6041590  15.7446700  13.5779730
 112.4095260  21.5091790  16.9652600 112.0338860  20.7419720  16.5333890
 111.6798380  21.8914490  17.4527530  96.9991020  22.1878930  23.5861650
  97.3664060  22.1006330  24.4657670  96.4301840  21.4245480  23.4868510
 111.7994880  20.6563310  26.5992120 111.5680970  20.4276060  25.6990070
 112.0599430  21.5762860  26.5537010  96.5507020  19.0988020  27.4920070
  95.6563070  19.0654780  27.8313780  97.0904570  19.2974810  28.2571320
 110.2382950  15.8819740  29.3771820 111.1153130  15.8903140  29.7605820
 110.2503790  15.1450580  28.7664170  95.1753170  19.0125290  14.9883640
  94.2717250  19.2755490  14.8135300  95.6593790  19.2836460  14.2083600
 111.6846220  19.7349280  20.2659840 112.2083700  19.2411930  19.6350010
 112.2705640  19.8699640  21.0107410 111.8635940  19.8189150  23.7879390
 110.9138650  19.7852690  23.9024380 112.0448950  20.7289260  23.5529160
  97.7180380  18.0690830  12.8978020  98.4272080  17.6474050  12.4125300
  97.0020320  18.1366060  12.2661370  97.3654540  14.1230160  11.9380670
  98.0882670  14.6639100  12.2561890  97.6379060  13.8493580  11.0622210
 111.1746190  18.9922630  16.2052250 111.6705310  18.7593500  16.9901130
 110.9762260  18.1534470  15.7889890  97.0546730  13.3736350  21.8403290
  97.7022920  12.8233730  21.3998450  97.4748570  13.6279500  22.6619100
 112.6033350  17.6283580  18.7389930 112.4932630  17.4739620  19.6772200
 113.3640940  17.1004520  18.4965340 110.9499070  13.5677710  25.1972930
 111.5871290  14.1811850  25.5632120 111.0973960  13.6038370  24.2522160
 113.4923620  15.4591500  11.9796070 114.4172930  15.3272680  11.7714360
 113.4699410  15.5384320  12.9332520 113.5662110  16.2302160  14.6052780
 112.7713610  16.1647280  15.1345690 113.7705390  17.1652800  14.5938130
 110.5080530  30.2693710  18.5991170 111.1039600  29.9478280  17.9225590
 110.7658680  29.7965530  19.3904440  96.8078730  13.5292020  24.5828610
  96.4593550  13.9855840  25.3486790  96.4766430  12.6349150  24.6651040
  98.4143100  26.7011620  28.7481800  98.3712730  26.3304530  29.6296260
  98.5454110  27.6389190  28.8883620 102.1149130  28.2571210  24.3491520
 101.8740490  28.5245770  23.4622040 103.0551770  28.4276940  24.4042380
 104.3203550  14.7203900  28.1048030 104.2592440  15.3125730  28.8543440
 105.2603930  14.6129860  27.9598290 106.9578110  14.3773960  27.7440320
 107.5718520  14.6953250  27.0821400 107.5027670  13.8922550  28.3636180
 113.3753290  30.2765590  25.1502160 112.8811570  30.6734460  24.4329290
 112.7666580  29.6514800  25.5439440  97.4799370  13.0568220  27.8579380
  98.0282360  12.8756270  27.0945490  97.5454680  12.2662330  28.3935690
  98.2531130  29.6473870  25.8679580  97.6591450  29.5158570  26.6069620
  98.2454970  28.8112010  25.4021680 107.6986150  12.9406100  24.0709610
 106.8245990  13.2741210  23.8682540 107.5896900  12.4679280  24.8961480
 108.6058130  15.1476970  25.4551330 108.2771490  14.3328730  25.0753060
 109.5540430  15.1046780  25.3317020 111.0592740  30.9189010  22.4288900
 110.5995710  31.6704820  22.0546920 110.4305200  30.1995480  22.3703700
  97.8843360  27.0132250  24.8187620  97.1577420  26.3937540  24.7513570
  97.9452510  27.4072860  23.9485700 101.4888460  29.2277250  21.6037030
 102.0053480  28.6164610  21.0785290 102.1385840  29.7306030  22.0948040
 104.2283960  30.1185740  22.4306010 104.5161770  29.8640040  21.5539020
 104.7407180  29.5663100  23.0211580 105.4460970  13.8575940  23.0102520
 104.6632760  14.3321440  23.2899280 105.1523900  12.9530770  22.9015700
 109.9982040  14.5599040  21.0551610 110.4390130  14.5044140  20.2073210
 109.7289630  15.4757050  21.1261790 111.8620610  14.1914280  19.0660430
 111.8009010  13.2475500  18.9191450 112.6412640  14.2994370  19.6113890
  96.1673360  30.3306640  18.0284380  95.9995400  29.6977320  18.7266270
  95.3007870  30.5366040  17.6778570  96.7901380  14.1623420  15.5316240
  97.5480740  14.2752300  14.9580270  96.3278550  14.9992620  15.4859670
 103.3315190  16.2762690  18.5218550 102.5189700  15.9019580  18.1814430
 103.8356830  15.5207770  18.8239740 107.8340170  12.9405140  19.7601620
 108.4369540  13.5125350  20.2350140 107.0933160  13.5044580  19.5375520
 110.9774770  13.3426700  15.0341900 111.1725400  14.2410150  15.3009330
 110.1904640  13.1113780  15.5274850  97.7736060  29.0239870  15.4734520
  97.2483680  29.4047900  14.7696480  97.6980640  29.6490640  16.1944230
  99.1626530  14.6887470  14.0718210  99.6919290  13.9017270  13.9426160
  99.7954850  15.3678660  14.3053740 101.3564370  14.4262610  17.1263600
 100.7267110  13.7249920  17.2933730 100.8169510  15.1866740  16.9096760
 104.2956320  31.0401840  29.7974210 105.2223630  30.8046110  29.8410170
 104.2806750  31.8673840  29.3160240 112.5301380  30.5827410  16.7948460
 112.7053570  29.8965150  16.1509380 111.8322950  31.1074460  16.4025130
 101.4819930  13.7046590  29.5616090 101.2004200  14.2080190  28.7976910
 101.8639630  12.9068340  29.1958220 100.3729030  30.9722250  14.3483770
 101.1047850  30.6881530  13.8007660 100.6322700  30.7335530  15.2383150
  99.5343820  27.0886980  14.3530100  98.9052700  27.5572080  14.9015930
  99.6491650  26.2436200  14.7876290 108.0835390  13.1200170  30.1396560
 107.9700840  13.4394780  31.0348080 108.9005130  13.5212680  29.8433840
 110.8633880  30.2671700  29.6215250 111.6559200  29.7720930  29.4141210
 111.1567030  30.9461840  30.2290860 105.1211580  22.9171660   2.3840570
 104.3453680  22.4372100   2.6739140 105.7724510  22.2377310   2.2096730
  99.1377410  23.2291470   3.2616330  98.3062290  22.9740180   3.6612840
  99.7458390  23.3002240   3.9974250  99.1178670  27.2631560   3.4574350
  99.4206710  26.3729300   3.2784570  99.8622260  27.8201780   3.2296600
  95.5102370  20.7899010   2.9298420  96.0818480  20.0221210   2.9302060
  95.5103910  21.0887770   2.0205030 104.5620570  25.5928850   2.3910730
 104.4928850  24.6518790   2.2299860 105.3240430  25.6830260   2.9633300
  96.7527240  16.1983370   4.7167350  96.5730080  15.3009120   4.9970110
  96.3507320  16.7455240   5.3914300 105.5925740  18.3999230   2.6179660
 105.9690560  17.5271110   2.5053330 105.4945250  18.7357930   1.7270100
  97.3713910  18.6943870   3.3249690  98.0524020  18.9582240   3.9437090
  97.0561960  17.8544740   3.6587700 101.5638480  19.7411230   2.4122280
 102.0716700  20.2392200   3.0527300 102.0951720  18.9646430   2.2361640
 113.6649410  17.9116420   6.1151630 112.9601580  18.2998130   5.5966740
 113.9307330  18.6066710   6.7172560  99.8474580  14.3809790   6.6785700
  99.8493020  14.8982180   5.8731600  99.0178890  13.9039970   6.6555630
 101.0977430  24.0204970   4.8559200 100.7646810  24.6473890   5.4980270
 101.2744110  24.5466850   4.0760870 109.6111340  17.8350050   2.3235540
 108.9066910  18.1234940   2.9038650 109.9723500  18.6450160   1.9635100
  99.5289910  16.0919750   4.6856150  99.8706720  16.9361800   4.3910020
  98.5905720  16.2403490   4.8021490 100.3096530  25.9885770   6.6708380
 100.9270530  26.6636850   6.3892830  99.4489650  26.3973750   6.5795880
 111.2274120  27.4525180   4.5863020 110.5437640  28.1224290   4.5779690
 111.7668410  27.6505830   3.8207880 112.6798260  17.2804840   2.7144750
 111.7323170  17.3143820   2.8460180 113.0048250  18.0943790   3.0994110
 108.7632860  29.2969310   3.3008200 108.7760020  28.8931600   2.4330460
 108.2108080  30.0716600   3.1969630 108.1618300  24.1999150   4.6290810
 108.5787090  23.9859260   3.7944270 108.8858120  24.4571940   5.1999430
 112.1080400  22.5986370   4.7207050 111.2799030  22.6679460   4.2457180
 112.7030880  23.1840680   4.2522880 109.0722410  19.3855690   5.6661920
 108.6593590  20.2109400   5.9201910 108.3398360  18.8000730   5.4738280
 101.6736900  25.8583150   2.6919800 101.3765190  25.2528620   2.0127580
 102.6236720  25.8960460   2.5809160  99.9183820  18.9458800   4.3079630
 100.4698410  19.0554140   3.5332880 100.4327330  19.3196400   5.0234860
 109.7622510  29.4315020   6.3542900 109.2853070  30.2387210   6.1615510
 109.0784300  28.7793350   6.5069110 100.7655330  25.5964840   9.3427600
  99.8683860  25.8204810   9.5901000 100.7908200  25.7199780   8.3939000
  99.5926550  22.4678160   7.9184970  99.4534320  23.3400960   8.2872370
  98.7107910  22.1250970   7.7732910 101.3906900  28.4099860  10.1270120
 101.3622330  28.8142810   9.2598550 101.2271870  27.4810220   9.9641720
 113.3421720  29.1926960  11.4234290 113.8181440  29.6709850  12.1023370
 113.9628880  29.1244450  10.6979790  95.5445200  24.2375710   3.8355880
  95.6225620  24.3724480   2.8911600  96.1586880  23.5291600   4.0284000
 112.7454970  26.3839810   8.5834300 112.8718030  26.1451690   7.6651480
 112.7876350  25.5524350   9.0556380 106.6071710  30.0867810   7.1529110
 107.1216380  29.9975820   7.9551540 105.7640790  30.4327510   7.4457020
 112.5978980  18.4372270   9.5484040 111.9823250  18.9451940   9.0199500
 112.2775400  17.5370600   9.4909980  95.6004720  25.2789880   6.3750340
  95.7635760  24.8095240   5.5569710  96.0657170  24.7713440   7.0399180
 104.6593300  17.2764160   7.0146230 104.1972670  17.4847180   7.8266170
 104.2571410  16.4623510   6.7116900 109.6597810  18.4973110   8.1442890
 108.8091400  18.1978860   8.4651960 109.4999600  18.7415120   7.2326710
 106.7547520  19.9974860  10.2441680 107.0800930  19.1638610   9.9043910
 107.5427850  20.5203380  10.3920010 102.4099390  14.9542970   3.2700510
 102.7071720  15.8605800   3.1892530 102.9584950  14.4661750   2.6560080
 102.6036920  20.4314790   9.8052430 102.5080520  19.4909520   9.6552830
 103.4468900  20.6529860   9.4100500  97.7347460  16.8428460   7.9586210
  97.3410850  17.6903670   8.1658990  97.0465860  16.2054830   8.1494850
 104.3092510  16.9263430  11.0282950 103.6190830  16.7335630  11.6629040
 105.0524810  17.2098070  11.5607250  95.0364510  14.7656920   1.9916290
  94.7477560  15.3359780   2.7041270  95.7810270  14.2861370   2.3547520
 106.5855480  20.7661870   3.8636870 105.8536600  21.2748680   4.2126970
 106.1879820  19.9491850   3.5625650 103.0232870  17.4416070   2.2689360
 103.0268930  17.0006020   1.4193900 103.9183990  17.7633400   2.3761180
 107.0481390  16.2195550   3.2759810 107.0654130  16.6704200   4.1201660
 106.7996970  15.3201190   3.4893250 110.4752140  13.6327730   9.1146190
 110.7997910  12.9017390   9.6404170 110.5108650  13.3141370   8.2127180
  97.1743700  24.6541310   8.5346150  96.7898490  24.0134980   9.1329110
  97.4855890  25.3577430   9.1040880 103.3240840  21.5017850   4.0154770
 103.6910970  21.0276420   4.7616110 103.1345900  22.3759420   4.3563110
 101.1140210  20.5426490   6.3338980 100.8097280  21.4218470   6.5589340
 102.0686670  20.6026280   6.3696420 110.4009980  23.7452840   2.7232220
 111.1209100  24.2408130   2.3328330 110.1991800  23.0670730   2.0786090
 105.7828780  23.8161900   8.6101220 105.7166090  22.8957570   8.3558810
 105.1533920  23.9137340   9.3245860  97.1703940  21.3829230   7.4810340
  96.8118880  22.0483080   8.0683680  96.8758500  20.5512780   7.8522960
 100.3717060  21.8413470  10.3649890 100.0717200  21.9870650   9.4677710
 101.1428300  21.2818760  10.2723280 105.7145510  26.6382470   8.3605020
 105.7290050  25.7063430   8.1423930 105.0070610  26.7242230   8.9994790
 111.9256720  23.2789810   7.7073600 111.2004910  23.8718590   7.5102990
 112.4532180  23.2713350   6.9086970 105.1479410  28.2800040   5.4545520
 105.7921630  28.4859420   6.1318940 105.5108850  27.5188440   5.0016370
 106.4211490  26.2832390   4.1722970 107.0633720  25.5825550   4.2855140
 106.9460840  27.0630830   3.9919860 108.1949110  27.0827290   7.3759030
 108.5305350  27.6693980   8.0536950 107.2749450  26.9520000   7.6056820
  95.7452510  14.8722470   8.1582440  95.0311030  15.0719390   8.7635050
  96.1647550  14.0962040   8.5297240  96.0325100  28.8602730   9.1448970
  96.1416220  27.9197470   9.0044360  95.3805660  29.1257480   8.4962700
 104.0237690  27.1318620  10.5447090 103.7034560  26.4127860  11.0892780
 103.3496050  27.8073690  10.6183150 107.2391290  17.3644780   5.9083890
 107.6072110  16.5439990   6.2363460 106.3789490  17.4246670   6.3239540
 104.1993280  20.0184370   6.1321860 104.6978530  20.4930190   6.7973710
 104.3416230  19.0947890   6.3391890 111.4060140  16.2352330   6.9750250
 110.9033740  16.9757730   7.3144060 112.2216800  16.6236330   6.6587040
 111.7007730  28.6494360   2.0965870 111.8255150  29.4725530   2.5689680
 112.5673290  28.4385090   1.7490020  99.1725260  30.7425570   1.7683000
  99.9087740  30.1941030   2.0391570  99.5566180  31.6081580   1.6288990
  98.1783540  29.9271640  10.9568580  98.9796270  30.2483690  11.3703980
  97.6635360  29.5667220  11.6788490 107.0148170  26.0351510  10.9043990
 106.4086330  26.0583110  10.1639740 106.7102280  25.3034550  11.4411240
 108.4448540  29.7631800   9.5153400 109.3970290  29.6789820   9.4653640
 108.2976760  30.4273510  10.1887190  95.8981350  22.4145100   9.9004630
  96.4020370  21.8352380  10.4720860  95.1588770  22.6985330  10.4381000
 102.9519290  23.8216090   9.4340150 102.1864960  24.3901090   9.3494820
 103.1335250  23.5292300   8.5408380 110.0942640  25.5521420   9.9915170
 110.8352110  25.8897180   9.4882630 109.3315320  25.7213480   9.4384940
  97.9304430  20.5574690  10.7954700  97.9709770  20.2588560  11.7039930
  98.7849930  20.9582300  10.6362220  99.8710240  19.1366790   8.7629190
  99.3406700  18.6457740   8.1352530 100.5398310  19.5650990   8.2287120
 108.7688300  23.6036250   8.5270380 109.1829320  23.7581330   9.3760800
 107.8339300  23.7291470   8.6896160 109.2410470  20.9432410  10.5309530
 109.8231240  20.1884730  10.4430010 109.4172240  21.4739850   9.7541010
 100.3582540  16.1029160   8.8426480 100.2639410  15.4849910   8.1177350
  99.7779930  16.8295450   8.6156390 103.1243980  14.6602400   5.8753870
 102.6761280  14.6826660   5.0299420 102.4909180  14.2621420   6.4724170
 103.5303530  23.5556730   6.4966310 103.9491640  24.3989460   6.3242550
 102.6112160  23.6928770   6.2673090 105.8667430  21.2872910   7.8804150
 105.9863640  20.6914050   8.6198990 106.7261430  21.3242600   7.4605450
 108.2055330  21.8410100   6.4566660 107.6790550  22.3652720   5.8531800
 108.5486670  22.4737490   7.0876390 101.3810950  29.8609740   7.6124040
 100.8432040  30.5855800   7.2932740 101.6344910  29.3840080   6.8221380
 102.6336200  17.8294260   9.1379970 103.2235890  17.5210110   9.8257790
 101.8156440  17.3574010   9.2939870 107.4529630  17.4460070   9.3712990
 106.7645150  16.7841610   9.3062980 108.1735650  16.9998340   9.8161450
 104.2373160  31.0960950   7.8710690 104.1631860  31.9996090   8.1783060
 103.3352000  30.7772850   7.8432760  96.1290660  29.2906130   3.9125940
  95.6921650  29.4706930   4.7450090  96.6968340  30.0480750   3.7707660
 111.7652840  28.7923130   8.2003250 111.1654830  28.8515690   7.4567170
 111.8946740  27.8528110   8.3300100 110.4504480  25.5175110   6.2979410
 109.6364320  25.9472270   6.5605200 110.8578680  26.1293520   5.6848460
  96.9991020  22.1878930   4.8118160  97.3664060  22.1006330   5.6914180
  96.4301840  21.4245480   4.7125020 111.7994880  20.6563310   7.8248630
 111.5680970  20.4276060   6.9246580 112.0599430  21.5762860   7.7793520
  96.5507020  19.0988020   8.7176580  95.6563070  19.0654780   9.0570290
  97.0904570  19.2974810   9.4827830 110.2382950  15.8819740  10.6028330
 111.1153130  15.8903140  10.9862330 110.2503790  15.1450580   9.9920680
 111.8635940  19.8189150   5.0135900 110.9138650  19.7852690   5.1280890
 112.0448950  20.7289260   4.7785670  97.0546730  13.3736350   3.0659800
  97.7022920  12.8233730   2.6254960  97.4748570  13.6279500   3.8875610
 110.9499070  13.5677710   6.4229440 111.5871290  14.1811850   6.7888630
 111.0973960  13.6038370   5.4778670  96.8078730  13.5292020   5.8085120
  96.4593550  13.9855840   6.5743300  96.4766430  12.6349150   5.8907550
  98.4143100  26.7011620   9.9738310  98.3712730  26.3304530  10.8552770
  98.5454110  27.6389190  10.1140130 102.1149130  28.2571210   5.5748030
 101.8740490  28.5245770   4.6878550 103.0551770  28.4276940   5.6298890
 104.3203550  14.7203900   9.3304540 104.2592440  15.3125730  10.0799950
 105.2603930  14.6129860   9.1854800 106.9578110  14.3773960   8.9696830
 107.5718520  14.6953250   8.3077910 107.5027670  13.8922550   9.5892690
 113.3753290  30.2765590   6.3758670 112.8811570  30.6734460   5.6585800
 112.7666580  29.6514800   6.7695950  97.4799370  13.0568220   9.0835890
  98.0282360  12.8756270   8.3202000  97.5454680  12.2662330   9.6192200
  98.2531130  29.6473870   7.0936090  97.6591450  29.5158570   7.8326130
  98.2454970  28.8112010   6.6278190 107.6986150  12.9406100   5.2966120
 106.8245990  13.2741210   5.0939050 107.5896900  12.4679280   6.1217990
 108.6058130  15.1476970   6.6807840 108.2771490  14.3328730   6.3009570
 109.5540430  15.1046780   6.5573530 111.0592740  30.9189010   3.6545410
 110.5995710  31.6704820   3.2803430 110.4305200  30.1995480   3.5960210
  97.8843360  27.0132250   6.0444130  97.1577420  26.3937540   5.9770080
  97.9452510  27.4072860   5.1742210 101.4888460  29.2277250   2.8293540
 102.0053480  28.6164610   2.3041800 102.1385840  29.7306030   3.3204550
 104.2283960  30.1185740   3.6562520 104.5161770  29.8640040   2.7795530
 104.7407180  29.5663100   4.2468090 105.4460970  13.8575940   4.2359030
 104.6632760  14.3321440   4.5155790 105.1523900  12.9530770   4.1272210
 109.9982040  14.5599040   2.2808120 110.4390130  14.5044140   1.4329720
 109.7289630  15.4757050   2.3518300 104.2956320  31.0401840  11.0230720
 105.2223630  30.8046110  11.0666680 104.2806750  31.8673840  10.5416750
 101.4819930  13.7046590  10.7872600 101.2004200  14.2080190  10.0233420
 101.8639630  12.9068340  10.4214730 108.0835390  13.1200170  11.3653070
 107.9700840  13.4394780  12.2604590 108.9005130  13.5212680  11.0690350
 110.8633880  30.2671700  10.8471760 111.6559200  29.7720930  10.6397720
 111.1567030  30.9461840  11.4547370 106.9893540   2.3649150 150.6979220
 106.9087590   1.4503760 150.4270930 106.5757960   2.8616220 149.9918930
 105.1211580   4.1428170 152.5788490 104.3453680   3.6628610 152.8687060
 105.7724510   3.4633820 152.4044650 109.1419010   8.5488360 151.3587620
 108.6800540   7.7775600 151.6874790 109.9544560   8.5754430 151.8640070
 105.3682320  10.8346370 150.9791610 104.7493760  11.2903870 150.4086050
 106.2234100  10.9897830 150.5781310 104.5620570   6.8185360 152.5858650
 104.4928850   5.8775300 152.4247780 105.3240430   6.9086770 153.1581220
 106.2345670   5.7185610 148.3723520 105.6162940   6.1835060 147.8086240
 106.7468920   6.4113090 148.7893030  95.6028870   6.4042140 145.7463150
  95.2256850   6.8929240 145.0148050  95.8601940   7.0767420 146.3769680
 110.0578280   7.2442040 148.5846290 109.9474610   6.3016370 148.7095710
 110.0546530   7.6057680 149.4709050 105.5998560   2.8707360 147.9408780
 104.6727840   2.8044740 148.1697250 105.7523380   3.8087490 147.8264020
 109.6295850   4.4327660 148.4444030 109.0108270   4.0947210 147.7970330
 109.6120300   3.7887420 149.1523220 101.2055200   3.3972100 150.7228510
 100.8012200   2.6849350 150.2274410 101.2918320   3.0525340 151.6116550
 101.6736900   7.0839660 152.8867720 101.3765190   6.4785130 152.2075500
 102.6236720   7.1216970 152.7757080 107.8060550   3.6714470 145.4516780
 108.2453830   2.8336900 145.3054600 108.5188970   4.3043870 145.5380920
 105.9155930   8.6110540 149.4198020 106.3551840   9.3534870 149.0053410
 105.8542820   8.8537110 150.3436980  97.9059830   2.2917080 148.2235160
  97.7857430   3.0179170 147.6116430  97.5960720   1.5219990 147.7463070
  96.7892830   7.1632410 150.4409980  96.3820910   7.3047000 149.5863580
  97.6805840   6.8792570 150.2381190 108.5826110  11.5979660 146.7761030
 108.4227250  11.3082600 147.6742860 108.4172820  10.8219790 146.2406260
 101.0614490  11.3778190 148.5532650 100.8856970  10.4613730 148.3400450
 100.2070230  11.7365480 148.7930450 108.2852240   9.1067220 145.3359030
 107.5917400   9.1044510 144.6761310 109.0275100   8.6826540 144.9053200
 107.8502170  10.7329930 149.4107520 108.3059120   9.9519310 149.7246140
 108.1894690  11.4436750 149.9548700 102.0974520   1.9785800 144.8527340
 101.5291420   1.5304050 144.2263250 102.8063520   2.3378580 144.3192490
  99.6422000   5.9743990 147.1253750  98.8684260   5.4341610 146.9652470
 100.3716630   5.4550600 146.7871510 110.4009980   4.9709350 152.9180140
 111.1209100   5.4664640 152.5276250 110.1991800   4.2927240 152.2734010
  99.6859400   5.6424370 150.7632560 100.2038070   4.8392630 150.7089450
  99.2343420   5.5803510 151.6049390 104.5728900   6.9090650 146.0359860
 104.9144600   7.6532880 145.5403180 103.7441610   7.2221770 146.3984690
 110.8482580   2.0478800 144.8251550 110.7646300   2.4793020 143.9747990
 111.5676770   2.5077150 145.2578370 111.8769830   8.9021060 147.5533680
 111.2345990   8.2476680 147.8277400 111.4900490   9.3076150 146.7774350
 107.4556310   6.2306490 151.4005370 107.8080130   5.6334620 150.7406740
 106.5718640   5.9050720 151.5713620 103.5419590   6.9904180 148.8075780
 104.2290720   7.5373390 149.1883370 102.7552010   7.5344910 148.8425390
  95.6811990   2.6077000 144.2992860  96.5506840   2.8901800 144.5828780
  95.1902310   3.4212870 144.1841670 102.8446800   3.9950210 148.4201140
 103.3009580   4.8055460 148.6461330 102.4935010   3.6773350 149.2519630
 110.2667210   7.7937520 144.0910030 110.0404790   7.0767960 144.6834670
 109.8763410   7.5449960 143.2531780  96.0483240  11.8204380 144.8654490
  96.4080880  12.4193720 144.2111760  95.9075580  12.3664270 145.6389520
 109.8483460   5.7109460 145.7524190 109.5605160   6.1722150 146.5402070
 110.6435630   5.2507230 146.0208410 102.0651860   9.2035580 145.6828160
 102.0561960   9.9365270 145.0672670 101.1450220   8.9567160 145.7755120
  97.6658500   4.4250470 146.4274920  97.0586450   5.1649370 146.4370220
  98.1407850   4.5149830 145.6013120 105.0511460   9.2663820 144.3453350
 105.1523440   9.0627810 143.4155330 104.1513200   9.0122100 144.5501130
 103.6929570  11.7850140 149.0401020 103.9471070  11.7471530 148.1180390
 102.7442050  11.6583470 149.0329270 109.6982150   2.7042020 150.6159530
 108.7572290   2.7192250 150.7907220 110.0126220   1.9177980 151.0619830
  99.6763790   4.3861620 144.1763490 100.4427060   4.2742980 144.7388920
  99.7538480   3.6899590 143.5240260 111.7007730   9.8750870 152.2913790
 111.8255150  10.6982040 152.7637600 112.5673290   9.6641600 151.9437940
  99.1725260  11.9682080 151.9630920  99.9087740  11.4197540 152.2339490
  99.5566180  12.8338090 151.8236910  96.0570740   8.0355650 147.8372430
  95.1310520   8.2776790 147.8277840  96.5227170   8.8629910 147.7157180
 102.2827570  11.1412390 143.7856490 103.0756180  11.4301220 143.3338280
 101.7631920  10.7104560 143.1068970 111.3357740  10.3682520 145.2093230
 111.0499250   9.9547660 144.3947410 111.1377290  11.2970230 145.0893750
 102.8004970   6.3615800 143.6498840 102.6955610   5.7468150 144.3760220
 102.6329190   5.8381690 142.8661850 106.0407700   5.4235830 144.2540830
 105.4917800   5.8705130 144.8983570 106.6626960   4.9185080 144.7778500
 101.7082820   4.3826750 146.1506130 102.1299240   4.2166620 146.9937520
 101.8333660   3.5726980 145.6561270 104.2210460   3.4064360 143.3983230
 104.7416120   2.6913380 143.0324380 104.8678860   4.0450230 143.6983740
 104.7858490  11.4875970 145.6884970 105.6809280  11.8260940 145.7103730
 104.8176120  10.7655380 145.0609250  98.4254650   6.8603020 143.9171970
  98.8629520   7.4032690 144.5729550  98.9102380   6.0349970 143.9268310
  95.6400450   9.6492050 151.3692230  95.9703460   8.7813110 151.1370870
  96.0691450   9.8550570 152.1997190 100.2362370   7.9801060 149.0294200
  99.9357910   7.8566030 149.9298110 100.1299860   7.1209650 148.6209930
 113.0054290   7.7597460 143.7320880 112.1747250   7.8274110 144.2028110
 113.1826120   8.6501580 143.4287740 112.4610750   4.5044940 146.2355080
 113.2229660   5.0741590 146.3414770 112.4765120   3.9372140 147.0063390
  95.9615090   3.0282870 150.4662740  95.3063930   2.7594510 149.8222440
  96.7993040   2.9187350 150.0164720 113.4670720   5.3595040 151.0797010
 113.8379550   4.5762360 150.6732980 114.1072650   6.0484140 150.9014310
 112.5129920   4.7979310 143.3927600 112.7878760   5.7058190 143.2646820
 112.3240660   4.7341840 144.3289590 112.4095260   2.7348300 148.3857030
 112.0338860   1.9676230 147.9538320 111.6798380   3.1171000 148.8731960
 110.5080530  11.4950220 150.0195600 111.1039600  11.1734790 149.3430020
 110.7658680  11.0222040 150.8108870  96.1673360  11.5563150 149.4488810
  95.9995400  10.9233830 150.1470700  95.3007870  11.7622550 149.0983000
  97.7736060  10.2496380 146.8938950  97.2483680  10.6304410 146.1900910
  97.6980640  10.8747150 147.6148660 112.5301380  11.8083920 148.2152890
 112.7053570  11.1221660 147.5713810 111.8322950  12.3330970 147.8229560
 100.3729030  12.1978760 145.7688200 101.1047850  11.9138040 145.2212090
 100.6322700  11.9592040 146.6587580  99.5343820   8.3143490 145.7734530
  98.9052700   8.7828590 146.3220360  99.6491650   7.4692710 146.2080720
 106.9893540   2.3649150 131.9235730 106.9087590   1.4503760 131.6527440
 106.5757960   2.8616220 131.2175440 105.1211580   4.1428170 133.8045000
 104.3453680   3.6628610 134.0943570 105.7724510   3.4633820 133.6301160
  99.1377410   4.4547980 134.6820760  98.3062290   4.1996690 135.0817270
  99.7458390   4.5258750 135.4178680 109.1419010   8.5488360 132.5844130
 108.6800540   7.7775600 132.9131300 109.9544560   8.5754430 133.0896580
  99.1178670   8.4888070 134.8778780  99.4206710   7.5985810 134.6989000
  99.8622260   9.0458290 134.6501030 105.3682320  10.8346370 132.2048120
 104.7493760  11.2903870 131.6342560 106.2234100  10.9897830 131.8037820
 104.5620570   6.8185360 133.8115160 104.4928850   5.8775300 133.6504290
 105.3240430   6.9086770 134.3837730 106.2345670   5.7185610 129.5980030
 105.6162940   6.1835060 129.0342750 106.7468920   6.4113090 130.0149540
 101.0977430   5.2461480 136.2763630 100.7646810   5.8730400 136.9184700
 101.2744110   5.7723360 135.4965300 100.3096530   7.2142280 138.0912810
 100.9270530   7.8893360 137.8097260  99.4489650   7.6230260 138.0000310
  95.6028870   6.4042140 126.9719660  95.2256850   6.8929240 126.2404560
  95.8601940   7.0767420 127.6026190 111.2274120   8.6781690 136.0067450
 110.5437640   9.3480800 135.9984120 111.7668410   8.8762340 135.2412310
 108.7632860  10.5225820 134.7212630 108.7760020  10.1188110 133.8534890
 108.2108080  11.2973110 134.6174060 110.0578280   7.2442040 129.8102800
 109.9474610   6.3016370 129.9352220 110.0546530   7.6057680 130.6965560
 108.1618300   5.4255660 136.0495240 108.5787090   5.2115770 135.2148700
 108.8858120   5.6828450 136.6203860 105.5998560   2.8707360 129.1665290
 104.6727840   2.8044740 129.3953760 105.7523380   3.8087490 129.0520530
 112.1080400   3.8242880 136.1411480 111.2799030   3.8935970 135.6661610
 112.7030880   4.4097190 135.6727310 109.6295850   4.4327660 129.6700540
 109.0108270   4.0947210 129.0226840 109.6120300   3.7887420 130.3779730
 101.2055200   3.3972100 131.9485020 100.8012200   2.6849350 131.4530920
 101.2918320   3.0525340 132.8373060 101.6736900   7.0839660 134.1124230
 101.3765190   6.4785130 133.4332010 102.6236720   7.1216970 134.0013590
 109.7622510  10.6571530 137.7747330 109.2853070  11.4643720 137.5819940
 109.0784300  10.0049860 137.9273540 100.7655330   6.8221350 140.7632030
  99.8683860   7.0461320 141.0105430 100.7908200   6.9456290 139.8143430
 107.8060550   3.6714470 126.6773290 108.2453830   2.8336900 126.5311110
 108.5188970   4.3043870 126.7637430  99.5926550   3.6934670 139.3389400
  99.4534320   4.5657470 139.7076800  98.7107910   3.3507480 139.1937340
 105.9155930   8.6110540 130.6454530 106.3551840   9.3534870 130.2309920
 105.8542820   8.8537110 131.5693490 101.3906900   9.6356370 141.5474550
 101.3622330  10.0399320 140.6802980 101.2271870   8.7066730 141.3846150
  97.9059830   2.2917080 129.4491670  97.7857430   3.0179170 128.8372940
  97.5960720   1.5219990 128.9719580 113.3421720  10.4183470 142.8438720
 113.8181440  10.8966360 143.5227800 113.9628880  10.3500960 142.1184220
  95.5445200   5.4632220 135.2560310  95.6225620   5.5980990 134.3116030
  96.1586880   4.7548110 135.4488430  96.7892830   7.1632410 131.6666490
  96.3820910   7.3047000 130.8120090  97.6805840   6.8792570 131.4637700
 112.7454970   7.6096320 140.0038730 112.8718030   7.3708200 139.0855910
 112.7876350   6.7780860 140.4760810 106.6071710  11.3124320 138.5733540
 107.1216380  11.2232330 139.3755970 105.7640790  11.6584020 138.8661450
 108.5826110  11.5979660 128.0017540 108.4227250  11.3082600 128.8999370
 108.4172820  10.8219790 127.4662770 101.0614490  11.3778190 129.7789160
 100.8856970  10.4613730 129.5656960 100.2070230  11.7365480 130.0186960
 108.2852240   9.1067220 126.5615540 107.5917400   9.1044510 125.9017820
 109.0275100   8.6826540 126.1309710 107.8502170  10.7329930 130.6364030
 108.3059120   9.9519310 130.9502650 108.1894690  11.4436750 131.1805210
  95.6004720   6.5046390 137.7954770  95.7635760   6.0351750 136.9774140
  96.0657170   5.9969950 138.4603610 102.0974520   1.9785800 126.0783850
 101.5291420   1.5304050 125.4519760 102.8063520   2.3378580 125.5449000
  97.1743700   5.8797820 139.9550580  96.7898490   5.2391490 140.5533540
  97.4855890   6.5833940 140.5245310 103.3240840   2.7274360 135.4359200
 103.6910970   2.2532930 136.1820540 103.1345900   3.6015930 135.7767540
 101.1140210   1.7683000 137.7543410 100.8097280   2.6474980 137.9793770
 102.0686670   1.8282790 137.7900850  99.6422000   5.9743990 128.3510260
  98.8684260   5.4341610 128.1908980 100.3716630   5.4550600 128.0128020
 110.4009980   4.9709350 134.1436650 111.1209100   5.4664640 133.7532760
 110.1991800   4.2927240 133.4990520 105.7828780   5.0418410 140.0305650
 105.7166090   4.1214080 139.7763240 105.1533920   5.1393850 140.7450290
  99.6859400   5.6424370 131.9889070 100.2038070   4.8392630 131.9345960
  99.2343420   5.5803510 132.8305900 104.5728900   6.9090650 127.2616370
 104.9144600   7.6532880 126.7659690 103.7441610   7.2221770 127.6241200
  97.1703940   2.6085740 138.9014770  96.8118880   3.2739590 139.4888110
  96.8758500   1.7769290 139.2727390 100.3717060   3.0669980 141.7854320
 100.0717200   3.2127160 140.8882140 101.1428300   2.5075270 141.6927710
 105.7145510   7.8638980 139.7809450 105.7290050   6.9319940 139.5628360
 105.0070610   7.9498740 140.4199220 110.8482580   2.0478800 126.0508060
 110.7646300   2.4793020 125.2004500 111.5676770   2.5077150 126.4834880
 111.9256720   4.5046320 139.1278030 111.2004910   5.0975100 138.9307420
 112.4532180   4.4969860 138.3291400 111.8769830   8.9021060 128.7790190
 111.2345990   8.2476680 129.0533910 111.4900490   9.3076150 128.0030860
 107.4556310   6.2306490 132.6261880 107.8080130   5.6334620 131.9663250
 106.5718640   5.9050720 132.7970130 103.5419590   6.9904180 130.0332290
 104.2290720   7.5373390 130.4139880 102.7552010   7.5344910 130.0681900
  95.6811990   2.6077000 125.5249370  96.5506840   2.8901800 125.8085290
  95.1902310   3.4212870 125.4098180 102.8446800   3.9950210 129.6457650
 103.3009580   4.8055460 129.8717840 102.4935010   3.6773350 130.4776140
 105.1479410   9.5056550 136.8749950 105.7921630   9.7115930 137.5523370
 105.5108850   8.7444950 136.4220800 106.4211490   7.5088900 135.5927400
 107.0633720   6.8082060 135.7059570 106.9460840   8.2887340 135.4124290
 110.2667210   7.7937520 125.3166540 110.0404790   7.0767960 125.9091180
 109.8763410   7.5449960 124.4788290 108.1949110   8.3083800 138.7963460
 108.5305350   8.8950490 139.4741380 107.2749450   8.1776510 139.0261250
  96.0483240  11.8204380 126.0911000  96.4080880  12.4193720 125.4368270
  95.9075580  12.3664270 126.8646030 109.8483460   5.7109460 126.9780700
 109.5605160   6.1722150 127.7658580 110.6435630   5.2507230 127.2464920
  96.0325100  10.0859240 140.5653400  96.1416220   9.1453980 140.4248790
  95.3805660  10.3513990 139.9167130 104.0237690   8.3575130 141.9651520
 103.7034560   7.6384370 142.5097210 103.3496050   9.0330200 142.0387580
 102.0651860   9.2035580 126.9084670 102.0561960   9.9365270 126.2929180
 101.1450220   8.9567160 127.0011630  97.6658500   4.4250470 127.6531430
  97.0586450   5.1649370 127.6626730  98.1407850   4.5149830 126.8269630
 105.0511460   9.2663820 125.5709860 105.1523440   9.0627810 124.6411840
 104.1513200   9.0122100 125.7757640 103.6929570  11.7850140 130.2657530
 103.9471070  11.7471530 129.3436900 102.7442050  11.6583470 130.2585780
 109.6982150   2.7042020 131.8416040 108.7572290   2.7192250 132.0163730
 110.0126220   1.9177980 132.2876340  99.6763790   4.3861620 125.4020000
 100.4427060   4.2742980 125.9645430  99.7538480   3.6899590 124.7496770
 111.7007730   9.8750870 133.5170300 111.8255150  10.6982040 133.9894110
 112.5673290   9.6641600 133.1694450  99.1725260  11.9682080 133.1887430
  99.9087740  11.4197540 133.4596000  99.5566180  12.8338090 133.0493420
  96.0570740   8.0355650 129.0628940  95.1310520   8.2776790 129.0534350
  96.5227170   8.8629910 128.9413690  98.1783540  11.1528150 142.3773010
  98.9796270  11.4740200 142.7908410  97.6635360  10.7923730 143.0992920
 102.2827570  11.1412390 125.0113000 103.0756180  11.4301220 124.5594790
 101.7631920  10.7104560 124.3325480 107.0148170   7.2608020 142.3248420
 106.4086330   7.2839620 141.5844170 106.7102280   6.5291060 142.8615670
 108.4448540  10.9888310 140.9357830 109.3970290  10.9046330 140.8858070
 108.2976760  11.6530020 141.6091620 111.3357740  10.3682520 126.4349740
 111.0499250   9.9547660 125.6203920 111.1377290  11.2970230 126.3150260
  95.8981350   3.6401610 141.3209060  96.4020370   3.0608890 141.8925290
  95.1588770   3.9241840 141.8585430 102.8004970   6.3615800 124.8755350
 102.6955610   5.7468150 125.6016730 102.6329190   5.8381690 124.0918360
 102.9519290   5.0472600 140.8544580 102.1864960   5.6157600 140.7699250
 103.1335250   4.7548810 139.9612810 106.0407700   5.4235830 125.4797340
 105.4917800   5.8705130 126.1240080 106.6626960   4.9185080 126.0035010
 110.0942640   6.7777930 141.4119600 110.8352110   7.1153690 140.9087060
 109.3315320   6.9469990 140.8589370  97.9304430   1.7831200 142.2159130
  97.9709770   1.4845070 143.1244360  98.7849930   2.1838810 142.0566650
 101.7082820   4.3826750 127.3762640 102.1299240   4.2166620 128.2194030
 101.8333660   3.5726980 126.8817780 104.2210460   3.4064360 124.6239740
 104.7416120   2.6913380 124.2580890 104.8678860   4.0450230 124.9240250
 108.7688300   4.8292760 139.9474810 109.1829320   4.9837840 140.7965230
 107.8339300   4.9547980 140.1100590 109.2410470   2.1688920 141.9513960
 109.8231240   1.4141240 141.8634440 109.4172240   2.6996360 141.1745440
 103.5303530   4.7813240 137.9170740 103.9491640   5.6245970 137.7446980
 102.6112160   4.9185280 137.6877520 105.8667430   2.5129420 139.3008580
 105.9863640   1.9170560 140.0403420 106.7261430   2.5499110 138.8809880
 108.2055330   3.0666610 137.8771090 107.6790550   3.5909230 137.2736230
 108.5486670   3.6994000 138.5080820 101.3810950  11.0866250 139.0328470
 100.8432040  11.8112310 138.7137170 101.6344910  10.6096590 138.2425810
 104.2373160  12.3217460 139.2915120 104.1631860  13.2252600 139.5987490
 103.3352000  12.0029360 139.2637190 104.7858490  11.4875970 126.9141480
 105.6809280  11.8260940 126.9360240 104.8176120  10.7655380 126.2865760
  98.4254650   6.8603020 125.1428480  98.8629520   7.4032690 125.7986060
  98.9102380   6.0349970 125.1524820  95.6400450   9.6492050 132.5948740
  95.9703460   8.7813110 132.3627380  96.0691450   9.8550570 133.4253700
 100.2362370   7.9801060 130.2550710  99.9357910   7.8566030 131.1554620
 100.1299860   7.1209650 129.8466440  96.1290660  10.5162640 135.3330370
  95.6921650  10.6963440 136.1654520  96.6968340  11.2737260 135.1912090
 111.7652840  10.0179640 139.6207680 111.1654830  10.0772200 138.8771600
 111.8946740   9.0784620 139.7504530 113.0054290   7.7597460 124.9577390
 112.1747250   7.8274110 125.4284620 113.1826120   8.6501580 124.6544250
 112.4610750   4.5044940 127.4611590 113.2229660   5.0741590 127.5671280
 112.4765120   3.9372140 128.2319900  95.9615090   3.0282870 131.6919250
  95.3063930   2.7594510 131.0478950  96.7993040   2.9187350 131.2421230
 113.4670720   5.3595040 132.3053520 113.8379550   4.5762360 131.8989490
 114.1072650   6.0484140 132.1270820 110.4504480   6.7431620 137.7183840
 109.6364320   7.1728780 137.9809630 110.8578680   7.3550030 137.1052890
 112.5129920   4.7979310 124.6184110 112.7878760   5.7058190 124.4903330
 112.3240660   4.7341840 125.5546100 112.4095260   2.7348300 129.6113540
 112.0338860   1.9676230 129.1794830 111.6798380   3.1171000 130.0988470
  96.9991020   3.4135440 136.2322590  97.3664060   3.3262840 137.1118610
  96.4301840   2.6501990 136.1329450 111.7994880   1.8819820 139.2453060
 111.5680970   1.6532570 138.3451010 112.0599430   2.8019370 139.1997950
 110.5080530  11.4950220 131.2452110 111.1039600  11.1734790 130.5686530
 110.7658680  11.0222040 132.0365380  98.4143100   7.9268130 141.3942740
  98.3712730   7.5561040 142.2757200  98.5454110   8.8645700 141.5344560
 102.1149130   9.4827720 136.9952460 101.8740490   9.7502280 136.1082980
 103.0551770   9.6533450 137.0503320 113.3753290  11.5022100 137.7963100
 112.8811570  11.8990970 137.0790230 112.7666580  10.8771310 138.1900380
  98.2531130  10.8730380 138.5140520  97.6591450  10.7415080 139.2530560
  98.2454970  10.0368520 138.0482620 111.0592740  12.1445520 135.0749840
 110.5995710  12.8961330 134.7007860 110.4305200  11.4251990 135.0164640
  97.8843360   8.2388760 137.4648560  97.1577420   7.6194050 137.3974510
  97.9452510   8.6329370 136.5946640 101.4888460  10.4533760 134.2497970
 102.0053480   9.8421120 133.7246230 102.1385840  10.9562540 134.7408980
 104.2283960  11.3442250 135.0766950 104.5161770  11.0896550 134.1999960
 104.7407180  10.7919610 135.6672520  96.1673360  11.5563150 130.6745320
  95.9995400  10.9233830 131.3727210  95.3007870  11.7622550 130.3239510
  97.7736060  10.2496380 128.1195460  97.2483680  10.6304410 127.4157420
  97.6980640  10.8747150 128.8405170 104.2956320  12.2658350 142.4435150
 105.2223630  12.0302620 142.4871110 104.2806750  13.0930350 141.9621180
 112.5301380  11.8083920 129.4409400 112.7053570  11.1221660 128.7970320
 111.8322950  12.3330970 129.0486070 100.3729030  12.1978760 126.9944710
 101.1047850  11.9138040 126.4468600 100.6322700  11.9592040 127.8844090
  99.5343820   8.3143490 126.9991040  98.9052700   8.7828590 127.5476870
  99.6491650   7.4692710 127.4337230 110.8633880  11.4928210 142.2676190
 111.6559200  10.9977440 142.0602150 111.1567030  12.1718350 142.8751800
 106.9893540   2.3649150 113.1492240 106.9087590   1.4503760 112.8783950
 106.5757960   2.8616220 112.4431950 105.1211580   4.1428170 115.0301510
 104.3453680   3.6628610 115.3200080 105.7724510   3.4633820 114.8557670
  99.1377410   4.4547980 115.9077270  98.3062290   4.1996690 116.3073780
  99.7458390   4.5258750 116.6435190 109.1419010   8.5488360 113.8100640
 108.6800540   7.7775600 114.1387810 109.9544560   8.5754430 114.3153090
  99.1178670   8.4888070 116.1035290  99.4206710   7.5985810 115.9245510
  99.8622260   9.0458290 115.8757540 105.3682320  10.8346370 113.4304630
 104.7493760  11.2903870 112.8599070 106.2234100  10.9897830 113.0294330
 104.5620570   6.8185360 115.0371670 104.4928850   5.8775300 114.8760800
 105.3240430   6.9086770 115.6094240 106.2345670   5.7185610 110.8236540
 105.6162940   6.1835060 110.2599260 106.7468920   6.4113090 111.2406050
 101.0977430   5.2461480 117.5020140 100.7646810   5.8730400 118.1441210
 101.2744110   5.7723360 116.7221810 100.3096530   7.2142280 119.3169320
 100.9270530   7.8893360 119.0353770  99.4489650   7.6230260 119.2256820
  95.6028870   6.4042140 108.1976170  95.2256850   6.8929240 107.4661070
  95.8601940   7.0767420 108.8282700 111.2274120   8.6781690 117.2323960
 110.5437640   9.3480800 117.2240630 111.7668410   8.8762340 116.4668820
 108.7632860  10.5225820 115.9469140 108.7760020  10.1188110 115.0791400
 108.2108080  11.2973110 115.8430570 110.0578280   7.2442040 111.0359310
 109.9474610   6.3016370 111.1608730 110.0546530   7.6057680 111.9222070
 108.1618300   5.4255660 117.2751750 108.5787090   5.2115770 116.4405210
 108.8858120   5.6828450 117.8460370 105.5998560   2.8707360 110.3921800
 104.6727840   2.8044740 110.6210270 105.7523380   3.8087490 110.2777040
 112.1080400   3.8242880 117.3667990 111.2799030   3.8935970 116.8918120
 112.7030880   4.4097190 116.8983820 109.6295850   4.4327660 110.8957050
 109.0108270   4.0947210 110.2483350 109.6120300   3.7887420 111.6036240
 101.2055200   3.3972100 113.1741530 100.8012200   2.6849350 112.6787430
 101.2918320   3.0525340 114.0629570 101.6736900   7.0839660 115.3380740
 101.3765190   6.4785130 114.6588520 102.6236720   7.1216970 115.2270100
 109.7622510  10.6571530 119.0003840 109.2853070  11.4643720 118.8076450
 109.0784300  10.0049860 119.1530050 100.7655330   6.8221350 121.9888540
  99.8683860   7.0461320 122.2361940 100.7908200   6.9456290 121.0399940
 107.8060550   3.6714470 107.9029800 108.2453830   2.8336900 107.7567620
 108.5188970   4.3043870 107.9893940  99.5926550   3.6934670 120.5645910
  99.4534320   4.5657470 120.9333310  98.7107910   3.3507480 120.4193850
 105.9155930   8.6110540 111.8711040 106.3551840   9.3534870 111.4566430
 105.8542820   8.8537110 112.7950000 101.3906900   9.6356370 122.7731060
 101.3622330  10.0399320 121.9059490 101.2271870   8.7066730 122.6102660
  97.9059830   2.2917080 110.6748180  97.7857430   3.0179170 110.0629450
  97.5960720   1.5219990 110.1976090 113.3421720  10.4183470 124.0695230
 113.8181440  10.8966360 124.7484310 113.9628880  10.3500960 123.3440730
  95.5445200   5.4632220 116.4816820  95.6225620   5.5980990 115.5372540
  96.1586880   4.7548110 116.6744940  96.7892830   7.1632410 112.8923000
  96.3820910   7.3047000 112.0376600  97.6805840   6.8792570 112.6894210
 112.7454970   7.6096320 121.2295240 112.8718030   7.3708200 120.3112420
 112.7876350   6.7780860 121.7017320 106.6071710  11.3124320 119.7990050
 107.1216380  11.2232330 120.6012480 105.7640790  11.6584020 120.0917960
 108.5826110  11.5979660 109.2274050 108.4227250  11.3082600 110.1255880
 108.4172820  10.8219790 108.6919280 101.0614490  11.3778190 111.0045670
 100.8856970  10.4613730 110.7913470 100.2070230  11.7365480 111.2443470
 108.2852240   9.1067220 107.7872050 107.5917400   9.1044510 107.1274330
 109.0275100   8.6826540 107.3566220 107.8502170  10.7329930 111.8620540
 108.3059120   9.9519310 112.1759160 108.1894690  11.4436750 112.4061720
  95.6004720   6.5046390 119.0211280  95.7635760   6.0351750 118.2030650
  96.0657170   5.9969950 119.6860120 102.0974520   1.9785800 107.3040360
 101.5291420   1.5304050 106.6776270 102.8063520   2.3378580 106.7705510
  97.1743700   5.8797820 121.1807090  96.7898490   5.2391490 121.7790050
  97.4855890   6.5833940 121.7501820 103.3240840   2.7274360 116.6615710
 103.6910970   2.2532930 117.4077050 103.1345900   3.6015930 117.0024050
 101.1140210   1.7683000 118.9799920 100.8097280   2.6474980 119.2050280
 102.0686670   1.8282790 119.0157360  99.6422000   5.9743990 109.5766770
  98.8684260   5.4341610 109.4165490 100.3716630   5.4550600 109.2384530
 110.4009980   4.9709350 115.3693160 111.1209100   5.4664640 114.9789270
 110.1991800   4.2927240 114.7247030 105.7828780   5.0418410 121.2562160
 105.7166090   4.1214080 121.0019750 105.1533920   5.1393850 121.9706800
  99.6859400   5.6424370 113.2145580 100.2038070   4.8392630 113.1602470
  99.2343420   5.5803510 114.0562410 104.5728900   6.9090650 108.4872880
 104.9144600   7.6532880 107.9916200 103.7441610   7.2221770 108.8497710
  97.1703940   2.6085740 120.1271280  96.8118880   3.2739590 120.7144620
  96.8758500   1.7769290 120.4983900 100.3717060   3.0669980 123.0110830
 100.0717200   3.2127160 122.1138650 101.1428300   2.5075270 122.9184220
 105.7145510   7.8638980 121.0065960 105.7290050   6.9319940 120.7884870
 105.0070610   7.9498740 121.6455730 110.8482580   2.0478800 107.2764570
 110.7646300   2.4793020 106.4261010 111.5676770   2.5077150 107.7091390
 111.9256720   4.5046320 120.3534540 111.2004910   5.0975100 120.1563930
 112.4532180   4.4969860 119.5547910 111.8769830   8.9021060 110.0046700
 111.2345990   8.2476680 110.2790420 111.4900490   9.3076150 109.2287370
 107.4556310   6.2306490 113.8518390 107.8080130   5.6334620 113.1919760
 106.5718640   5.9050720 114.0226640 103.5419590   6.9904180 111.2588800
 104.2290720   7.5373390 111.6396390 102.7552010   7.5344910 111.2938410
  95.6811990   2.6077000 106.7505880  96.5506840   2.8901800 107.0341800
  95.1902310   3.4212870 106.6354690 102.8446800   3.9950210 110.8714160
 103.3009580   4.8055460 111.0974350 102.4935010   3.6773350 111.7032650
 105.1479410   9.5056550 118.1006460 105.7921630   9.7115930 118.7779880
 105.5108850   8.7444950 117.6477310 106.4211490   7.5088900 116.8183910
 107.0633720   6.8082060 116.9316080 106.9460840   8.2887340 116.6380800
 110.2667210   7.7937520 106.5423050 110.0404790   7.0767960 107.1347690
 109.8763410   7.5449960 105.7044800 108.1949110   8.3083800 120.0219970
 108.5305350   8.8950490 120.6997890 107.2749450   8.1776510 120.2517760
  96.0483240  11.8204380 107.3167510  96.4080880  12.4193720 106.6624780
  95.9075580  12.3664270 108.0902540 109.8483460   5.7109460 108.2037210
 109.5605160   6.1722150 108.9915090 110.6435630   5.2507230 108.4721430
  96.0325100  10.0859240 121.7909910  96.1416220   9.1453980 121.6505300
  95.3805660  10.3513990 121.1423640 104.0237690   8.3575130 123.1908030
 103.7034560   7.6384370 123.7353720 103.3496050   9.0330200 123.2644090
 102.0651860   9.2035580 108.1341180 102.0561960   9.9365270 107.5185690
 101.1450220   8.9567160 108.2268140  97.6658500   4.4250470 108.8787940
  97.0586450   5.1649370 108.8883240  98.1407850   4.5149830 108.0526140
 105.0511460   9.2663820 106.7966370 105.1523440   9.0627810 105.8668350
 104.1513200   9.0122100 107.0014150 103.6929570  11.7850140 111.4914040
 103.9471070  11.7471530 110.5693410 102.7442050  11.6583470 111.4842290
 109.6982150   2.7042020 113.0672550 108.7572290   2.7192250 113.2420240
 110.0126220   1.9177980 113.5132850  99.6763790   4.3861620 106.6276510
 100.4427060   4.2742980 107.1901940  99.7538480   3.6899590 105.9753280
 111.7007730   9.8750870 114.7426810 111.8255150  10.6982040 115.2150620
 112.5673290   9.6641600 114.3950960  99.1725260  11.9682080 114.4143940
  99.9087740  11.4197540 114.6852510  99.5566180  12.8338090 114.2749930
  96.0570740   8.0355650 110.2885450  95.1310520   8.2776790 110.2790860
  96.5227170   8.8629910 110.1670200  98.1783540  11.1528150 123.6029520
  98.9796270  11.4740200 124.0164920  97.6635360  10.7923730 124.3249430
 102.2827570  11.1412390 106.2369510 103.0756180  11.4301220 105.7851300
 101.7631920  10.7104560 105.5581990 107.0148170   7.2608020 123.5504930
 106.4086330   7.2839620 122.8100680 106.7102280   6.5291060 124.0872180
 108.4448540  10.9888310 122.1614340 109.3970290  10.9046330 122.1114580
 108.2976760  11.6530020 122.8348130 111.3357740  10.3682520 107.6606250
 111.0499250   9.9547660 106.8460430 111.1377290  11.2970230 107.5406770
  95.8981350   3.6401610 122.5465570  96.4020370   3.0608890 123.1181800
  95.1588770   3.9241840 123.0841940 102.8004970   6.3615800 106.1011860
 102.6955610   5.7468150 106.8273240 102.6329190   5.8381690 105.3174870
 102.9519290   5.0472600 122.0801090 102.1864960   5.6157600 121.9955760
 103.1335250   4.7548810 121.1869320 106.0407700   5.4235830 106.7053850
 105.4917800   5.8705130 107.3496590 106.6626960   4.9185080 107.2291520
 110.0942640   6.7777930 122.6376110 110.8352110   7.1153690 122.1343570
 109.3315320   6.9469990 122.0845880  97.9304430   1.7831200 123.4415640
  97.9709770   1.4845070 124.3500870  98.7849930   2.1838810 123.2823160
 101.7082820   4.3826750 108.6019150 102.1299240   4.2166620 109.4450540
 101.8333660   3.5726980 108.1074290 104.2210460   3.4064360 105.8496250
 104.7416120   2.6913380 105.4837400 104.8678860   4.0450230 106.1496760
 108.7688300   4.8292760 121.1731320 109.1829320   4.9837840 122.0221740
 107.8339300   4.9547980 121.3357100 109.2410470   2.1688920 123.1770470
 109.8231240   1.4141240 123.0890950 109.4172240   2.6996360 122.4001950
 103.5303530   4.7813240 119.1427250 103.9491640   5.6245970 118.9703490
 102.6112160   4.9185280 118.9134030 105.8667430   2.5129420 120.5265090
 105.9863640   1.9170560 121.2659930 106.7261430   2.5499110 120.1066390
 108.2055330   3.0666610 119.1027600 107.6790550   3.5909230 118.4992740
 108.5486670   3.6994000 119.7337330 101.3810950  11.0866250 120.2584980
 100.8432040  11.8112310 119.9393680 101.6344910  10.6096590 119.4682320
 104.2373160  12.3217460 120.5171630 104.1631860  13.2252600 120.8244000
 103.3352000  12.0029360 120.4893700 104.7858490  11.4875970 108.1397990
 105.6809280  11.8260940 108.1616750 104.8176120  10.7655380 107.5122270
  98.4254650   6.8603020 106.3684990  98.8629520   7.4032690 107.0242570
  98.9102380   6.0349970 106.3781330  95.6400450   9.6492050 113.8205250
  95.9703460   8.7813110 113.5883890  96.0691450   9.8550570 114.6510210
 100.2362370   7.9801060 111.4807220  99.9357910   7.8566030 112.3811130
 100.1299860   7.1209650 111.0722950  96.1290660  10.5162640 116.5586880
  95.6921650  10.6963440 117.3911030  96.6968340  11.2737260 116.4168600
 111.7652840  10.0179640 120.8464190 111.1654830  10.0772200 120.1028110
 111.8946740   9.0784620 120.9761040 113.0054290   7.7597460 106.1833900
 112.1747250   7.8274110 106.6541130 113.1826120   8.6501580 105.8800760
 112.4610750   4.5044940 108.6868100 113.2229660   5.0741590 108.7927790
 112.4765120   3.9372140 109.4576410  95.9615090   3.0282870 112.9175760
  95.3063930   2.7594510 112.2735460  96.7993040   2.9187350 112.4677740
 113.4670720   5.3595040 113.5310030 113.8379550   4.5762360 113.1246000
 114.1072650   6.0484140 113.3527330 110.4504480   6.7431620 118.9440350
 109.6364320   7.1728780 119.2066140 110.8578680   7.3550030 118.3309400
 112.5129920   4.7979310 105.8440620 112.7878760   5.7058190 105.7159840
 112.3240660   4.7341840 106.7802610 112.4095260   2.7348300 110.8370050
 112.0338860   1.9676230 110.4051340 111.6798380   3.1171000 111.3244980
  96.9991020   3.4135440 117.4579100  97.3664060   3.3262840 118.3375120
  96.4301840   2.6501990 117.3585960 111.7994880   1.8819820 120.4709570
 111.5680970   1.6532570 119.5707520 112.0599430   2.8019370 120.4254460
 110.5080530  11.4950220 112.4708620 111.1039600  11.1734790 111.7943040
 110.7658680  11.0222040 113.2621890  98.4143100   7.9268130 122.6199250
  98.3712730   7.5561040 123.5013710  98.5454110   8.8645700 122.7601070
 102.1149130   9.4827720 118.2208970 101.8740490   9.7502280 117.3339490
 103.0551770   9.6533450 118.2759830 113.3753290  11.5022100 119.0219610
 112.8811570  11.8990970 118.3046740 112.7666580  10.8771310 119.4156890
  98.2531130  10.8730380 119.7397030  97.6591450  10.7415080 120.4787070
  98.2454970  10.0368520 119.2739130 111.0592740  12.1445520 116.3006350
 110.5995710  12.8961330 115.9264370 110.4305200  11.4251990 116.2421150
  97.8843360   8.2388760 118.6905070  97.1577420   7.6194050 118.6231020
  97.9452510   8.6329370 117.8203150 101.4888460  10.4533760 115.4754480
 102.0053480   9.8421120 114.9502740 102.1385840  10.9562540 115.9665490
 104.2283960  11.3442250 116.3023460 104.5161770  11.0896550 115.4256470
 104.7407180  10.7919610 116.8929030  96.1673360  11.5563150 111.9001830
  95.9995400  10.9233830 112.5983720  95.3007870  11.7622550 111.5496020
  97.7736060  10.2496380 109.3451970  97.2483680  10.6304410 108.6413930
  97.6980640  10.8747150 110.0661680 104.2956320  12.2658350 123.6691660
 105.2223630  12.0302620 123.7127620 104.2806750  13.0930350 123.1877690
 112.5301380  11.8083920 110.6665910 112.7053570  11.1221660 110.0226830
 111.8322950  12.3330970 110.2742580 100.3729030  12.1978760 108.2201220
 101.1047850  11.9138040 107.6725110 100.6322700  11.9592040 109.1100600
  99.5343820   8.3143490 108.2247550  98.9052700   8.7828590 108.7733380
  99.6491650   7.4692710 108.6593740 110.8633880  11.4928210 123.4932700
 111.6559200  10.9977440 123.2858660 111.1567030  12.1718350 124.1008310
 106.9893540   2.3649150  94.3748750 106.9087590   1.4503760  94.1040460
 106.5757960   2.8616220  93.6688460 105.1211580   4.1428170  96.2558020
 104.3453680   3.6628610  96.5456590 105.7724510   3.4633820  96.0814180
  99.1377410   4.4547980  97.1333780  98.3062290   4.1996690  97.5330290
  99.7458390   4.5258750  97.8691700 109.1419010   8.5488360  95.0357150
 108.6800540   7.7775600  95.3644320 109.9544560   8.5754430  95.5409600
  99.1178670   8.4888070  97.3291800  99.4206710   7.5985810  97.1502020
  99.8622260   9.0458290  97.1014050 105.3682320  10.8346370  94.6561140
 104.7493760  11.2903870  94.0855580 106.2234100  10.9897830  94.2550840
 104.5620570   6.8185360  96.2628180 104.4928850   5.8775300  96.1017310
 105.3240430   6.9086770  96.8350750 106.2345670   5.7185610  92.0493050
 105.6162940   6.1835060  91.4855770 106.7468920   6.4113090  92.4662560
 101.0977430   5.2461480  98.7276650 100.7646810   5.8730400  99.3697720
 101.2744110   5.7723360  97.9478320 100.3096530   7.2142280 100.5425830
 100.9270530   7.8893360 100.2610280  99.4489650   7.6230260 100.4513330
  95.6028870   6.4042140  89.4232680  95.2256850   6.8929240  88.6917580
  95.8601940   7.0767420  90.0539210 111.2274120   8.6781690  98.4580470
 110.5437640   9.3480800  98.4497140 111.7668410   8.8762340  97.6925330
 108.7632860  10.5225820  97.1725650 108.7760020  10.1188110  96.3047910
 108.2108080  11.2973110  97.0687080 110.0578280   7.2442040  92.2615820
 109.9474610   6.3016370  92.3865240 110.0546530   7.6057680  93.1478580
 108.1618300   5.4255660  98.5008260 108.5787090   5.2115770  97.6661720
 108.8858120   5.6828450  99.0716880 105.5998560   2.8707360  91.6178310
 104.6727840   2.8044740  91.8466780 105.7523380   3.8087490  91.5033550
 112.1080400   3.8242880  98.5924500 111.2799030   3.8935970  98.1174630
 112.7030880   4.4097190  98.1240330 109.6295850   4.4327660  92.1213560
 109.0108270   4.0947210  91.4739860 109.6120300   3.7887420  92.8292750
 101.2055200   3.3972100  94.3998040 100.8012200   2.6849350  93.9043940
 101.2918320   3.0525340  95.2886080 101.6736900   7.0839660  96.5637250
 101.3765190   6.4785130  95.8845030 102.6236720   7.1216970  96.4526610
 109.7622510  10.6571530 100.2260350 109.2853070  11.4643720 100.0332960
 109.0784300  10.0049860 100.3786560 100.7655330   6.8221350 103.2145050
  99.8683860   7.0461320 103.4618450 100.7908200   6.9456290 102.2656450
 107.8060550   3.6714470  89.1286310 108.2453830   2.8336900  88.9824130
 108.5188970   4.3043870  89.2150450  99.5926550   3.6934670 101.7902420
  99.4534320   4.5657470 102.1589820  98.7107910   3.3507480 101.6450360
 105.9155930   8.6110540  93.0967550 106.3551840   9.3534870  92.6822940
 105.8542820   8.8537110  94.0206510 101.3906900   9.6356370 103.9987570
 101.3622330  10.0399320 103.1316000 101.2271870   8.7066730 103.8359170
  97.9059830   2.2917080  91.9004690  97.7857430   3.0179170  91.2885960
  97.5960720   1.5219990  91.4232600 113.3421720  10.4183470 105.2951740
 113.8181440  10.8966360 105.9740820 113.9628880  10.3500960 104.5697240
  95.5445200   5.4632220  97.7073330  95.6225620   5.5980990  96.7629050
  96.1586880   4.7548110  97.9001450  96.7892830   7.1632410  94.1179510
  96.3820910   7.3047000  93.2633110  97.6805840   6.8792570  93.9150720
 112.7454970   7.6096320 102.4551750 112.8718030   7.3708200 101.5368930
 112.7876350   6.7780860 102.9273830 106.6071710  11.3124320 101.0246560
 107.1216380  11.2232330 101.8268990 105.7640790  11.6584020 101.3174470
 108.5826110  11.5979660  90.4530560 108.4227250  11.3082600  91.3512390
 108.4172820  10.8219790  89.9175790 101.0614490  11.3778190  92.2302180
 100.8856970  10.4613730  92.0169980 100.2070230  11.7365480  92.4699980
 108.2852240   9.1067220  89.0128560 107.5917400   9.1044510  88.3530840
 109.0275100   8.6826540  88.5822730 107.8502170  10.7329930  93.0877050
 108.3059120   9.9519310  93.4015670 108.1894690  11.4436750  93.6318230
  95.6004720   6.5046390 100.2467790  95.7635760   6.0351750  99.4287160
  96.0657170   5.9969950 100.9116630 102.0974520   1.9785800  88.5296870
 101.5291420   1.5304050  87.9032780 102.8063520   2.3378580  87.9962020
  97.1743700   5.8797820 102.4063600  96.7898490   5.2391490 103.0046560
  97.4855890   6.5833940 102.9758330 103.3240840   2.7274360  97.8872220
 103.6910970   2.2532930  98.6333560 103.1345900   3.6015930  98.2280560
 101.1140210   1.7683000 100.2056430 100.8097280   2.6474980 100.4306790
 102.0686670   1.8282790 100.2413870  99.6422000   5.9743990  90.8023280
  98.8684260   5.4341610  90.6422000 100.3716630   5.4550600  90.4641040
 110.4009980   4.9709350  96.5949670 111.1209100   5.4664640  96.2045780
 110.1991800   4.2927240  95.9503540 105.7828780   5.0418410 102.4818670
 105.7166090   4.1214080 102.2276260 105.1533920   5.1393850 103.1963310
  99.6859400   5.6424370  94.4402090 100.2038070   4.8392630  94.3858980
  99.2343420   5.5803510  95.2818920 104.5728900   6.9090650  89.7129390
 104.9144600   7.6532880  89.2172710 103.7441610   7.2221770  90.0754220
  97.1703940   2.6085740 101.3527790  96.8118880   3.2739590 101.9401130
  96.8758500   1.7769290 101.7240410 100.3717060   3.0669980 104.2367340
 100.0717200   3.2127160 103.3395160 101.1428300   2.5075270 104.1440730
 105.7145510   7.8638980 102.2322470 105.7290050   6.9319940 102.0141380
 105.0070610   7.9498740 102.8712240 110.8482580   2.0478800  88.5021080
 110.7646300   2.4793020  87.6517520 111.5676770   2.5077150  88.9347900
 111.9256720   4.5046320 101.5791050 111.2004910   5.0975100 101.3820440
 112.4532180   4.4969860 100.7804420 111.8769830   8.9021060  91.2303210
 111.2345990   8.2476680  91.5046930 111.4900490   9.3076150  90.4543880
 107.4556310   6.2306490  95.0774900 107.8080130   5.6334620  94.4176270
 106.5718640   5.9050720  95.2483150 103.5419590   6.9904180  92.4845310
 104.2290720   7.5373390  92.8652900 102.7552010   7.5344910  92.5194920
  95.6811990   2.6077000  87.9762390  96.5506840   2.8901800  88.2598310
  95.1902310   3.4212870  87.8611200 102.8446800   3.9950210  92.0970670
 103.3009580   4.8055460  92.3230860 102.4935010   3.6773350  92.9289160
 105.1479410   9.5056550  99.3262970 105.7921630   9.7115930 100.0036390
 105.5108850   8.7444950  98.8733820 106.4211490   7.5088900  98.0440420
 107.0633720   6.8082060  98.1572590 106.9460840   8.2887340  97.8637310
 110.2667210   7.7937520  87.7679560 110.0404790   7.0767960  88.3604200
 109.8763410   7.5449960  86.9301310 108.1949110   8.3083800 101.2476480
 108.5305350   8.8950490 101.9254400 107.2749450   8.1776510 101.4774270
  96.0483240  11.8204380  88.5424020  96.4080880  12.4193720  87.8881290
  95.9075580  12.3664270  89.3159050 109.8483460   5.7109460  89.4293720
 109.5605160   6.1722150  90.2171600 110.6435630   5.2507230  89.6977940
  96.0325100  10.0859240 103.0166420  96.1416220   9.1453980 102.8761810
  95.3805660  10.3513990 102.3680150 104.0237690   8.3575130 104.4164540
 103.7034560   7.6384370 104.9610230 103.3496050   9.0330200 104.4900600
 102.0651860   9.2035580  89.3597690 102.0561960   9.9365270  88.7442200
 101.1450220   8.9567160  89.4524650  97.6658500   4.4250470  90.1044450
  97.0586450   5.1649370  90.1139750  98.1407850   4.5149830  89.2782650
 105.0511460   9.2663820  88.0222880 105.1523440   9.0627810  87.0924860
 104.1513200   9.0122100  88.2270660 103.6929570  11.7850140  92.7170550
 103.9471070  11.7471530  91.7949920 102.7442050  11.6583470  92.7098800
 109.6982150   2.7042020  94.2929060 108.7572290   2.7192250  94.4676750
 110.0126220   1.9177980  94.7389360  99.6763790   4.3861620  87.8533020
 100.4427060   4.2742980  88.4158450  99.7538480   3.6899590  87.2009790
 111.7007730   9.8750870  95.9683320 111.8255150  10.6982040  96.4407130
 112.5673290   9.6641600  95.6207470  99.1725260  11.9682080  95.6400450
  99.9087740  11.4197540  95.9109020  99.5566180  12.8338090  95.5006440
  96.0570740   8.0355650  91.5141960  95.1310520   8.2776790  91.5047370
  96.5227170   8.8629910  91.3926710  98.1783540  11.1528150 104.8286030
  98.9796270  11.4740200 105.2421430  97.6635360  10.7923730 105.5505940
 102.2827570  11.1412390  87.4626020 103.0756180  11.4301220  87.0107810
 101.7631920  10.7104560  86.7838500 107.0148170   7.2608020 104.7761440
 106.4086330   7.2839620 104.0357190 106.7102280   6.5291060 105.3128690
 108.4448540  10.9888310 103.3870850 109.3970290  10.9046330 103.3371090
 108.2976760  11.6530020 104.0604640 111.3357740  10.3682520  88.8862760
 111.0499250   9.9547660  88.0716940 111.1377290  11.2970230  88.7663280
  95.8981350   3.6401610 103.7722080  96.4020370   3.0608890 104.3438310
  95.1588770   3.9241840 104.3098450 102.8004970   6.3615800  87.3268370
 102.6955610   5.7468150  88.0529750 102.6329190   5.8381690  86.5431380
 102.9519290   5.0472600 103.3057600 102.1864960   5.6157600 103.2212270
 103.1335250   4.7548810 102.4125830 106.0407700   5.4235830  87.9310360
 105.4917800   5.8705130  88.5753100 106.6626960   4.9185080  88.4548030
 110.0942640   6.7777930 103.8632620 110.8352110   7.1153690 103.3600080
 109.3315320   6.9469990 103.3102390  97.9304430   1.7831200 104.6672150
  97.9709770   1.4845070 105.5757380  98.7849930   2.1838810 104.5079670
 101.7082820   4.3826750  89.8275660 102.1299240   4.2166620  90.6707050
 101.8333660   3.5726980  89.3330800 104.2210460   3.4064360  87.0752760
 104.7416120   2.6913380  86.7093910 104.8678860   4.0450230  87.3753270
 108.7688300   4.8292760 102.3987830 109.1829320   4.9837840 103.2478250
 107.8339300   4.9547980 102.5613610 109.2410470   2.1688920 104.4026980
 109.8231240   1.4141240 104.3147460 109.4172240   2.6996360 103.6258460
 103.5303530   4.7813240 100.3683760 103.9491640   5.6245970 100.1960000
 102.6112160   4.9185280 100.1390540 105.8667430   2.5129420 101.7521600
 105.9863640   1.9170560 102.4916440 106.7261430   2.5499110 101.3322900
 108.2055330   3.0666610 100.3284110 107.6790550   3.5909230  99.7249250
 108.5486670   3.6994000 100.9593840 101.3810950  11.0866250 101.4841490
 100.8432040  11.8112310 101.1650190 101.6344910  10.6096590 100.6938830
 104.2373160  12.3217460 101.7428140 104.1631860  13.2252600 102.0500510
 103.3352000  12.0029360 101.7150210 104.7858490  11.4875970  89.3654500
 105.6809280  11.8260940  89.3873260 104.8176120  10.7655380  88.7378780
  98.4254650   6.8603020  87.5941500  98.8629520   7.4032690  88.2499080
  98.9102380   6.0349970  87.6037840  95.6400450   9.6492050  95.0461760
  95.9703460   8.7813110  94.8140400  96.0691450   9.8550570  95.8766720
 100.2362370   7.9801060  92.7063730  99.9357910   7.8566030  93.6067640
 100.1299860   7.1209650  92.2979460  96.1290660  10.5162640  97.7843390
  95.6921650  10.6963440  98.6167540  96.6968340  11.2737260  97.6425110
 111.7652840  10.0179640 102.0720700 111.1654830  10.0772200 101.3284620
 111.8946740   9.0784620 102.2017550 113.0054290   7.7597460  87.4090410
 112.1747250   7.8274110  87.8797640 113.1826120   8.6501580  87.1057270
 112.4610750   4.5044940  89.9124610 113.2229660   5.0741590  90.0184300
 112.4765120   3.9372140  90.6832920  95.9615090   3.0282870  94.1432270
  95.3063930   2.7594510  93.4991970  96.7993040   2.9187350  93.6934250
 113.4670720   5.3595040  94.7566540 113.8379550   4.5762360  94.3502510
 114.1072650   6.0484140  94.5783840 110.4504480   6.7431620 100.1696860
 109.6364320   7.1728780 100.4322650 110.8578680   7.3550030  99.5565910
 112.5129920   4.7979310  87.0697130 112.7878760   5.7058190  86.9416350
 112.3240660   4.7341840  88.0059120 112.4095260   2.7348300  92.0626560
 112.0338860   1.9676230  91.6307850 111.6798380   3.1171000  92.5501490
  96.9991020   3.4135440  98.6835610  97.3664060   3.3262840  99.5631630
  96.4301840   2.6501990  98.5842470 111.7994880   1.8819820 101.6966080
 111.5680970   1.6532570 100.7964030 112.0599430   2.8019370 101.6510970
 110.5080530  11.4950220  93.6965130 111.1039600  11.1734790  93.0199550
 110.7658680  11.0222040  94.4878400  98.4143100   7.9268130 103.8455760
  98.3712730   7.5561040 104.7270220  98.5454110   8.8645700 103.9857580
 102.1149130   9.4827720  99.4465480 101.8740490   9.7502280  98.5596000
 103.0551770   9.6533450  99.5016340 113.3753290  11.5022100 100.2476120
 112.8811570  11.8990970  99.5303250 112.7666580  10.8771310 100.6413400
  98.2531130  10.8730380 100.9653540  97.6591450  10.7415080 101.7043580
  98.2454970  10.0368520 100.4995640 111.0592740  12.1445520  97.5262860
 110.5995710  12.8961330  97.1520880 110.4305200  11.4251990  97.4677660
  97.8843360   8.2388760  99.9161580  97.1577420   7.6194050  99.8487530
  97.9452510   8.6329370  99.0459660 101.4888460  10.4533760  96.7010990
 102.0053480   9.8421120  96.1759250 102.1385840  10.9562540  97.1922000
 104.2283960  11.3442250  97.5279970 104.5161770  11.0896550  96.6512980
 104.7407180  10.7919610  98.1185540  96.1673360  11.5563150  93.1258340
  95.9995400  10.9233830  93.8240230  95.3007870  11.7622550  92.7752530
  97.7736060  10.2496380  90.5708480  97.2483680  10.6304410  89.8670440
  97.6980640  10.8747150  91.2918190 104.2956320  12.2658350 104.8948170
 105.2223630  12.0302620 104.9384130 104.2806750  13.0930350 104.4134200
 112.5301380  11.8083920  91.8922420 112.7053570  11.1221660  91.2483340
 111.8322950  12.3330970  91.4999090 100.3729030  12.1978760  89.4457730
 101.1047850  11.9138040  88.8981620 100.6322700  11.9592040  90.3357110
  99.5343820   8.3143490  89.4504060  98.9052700   8.7828590  89.9989890
  99.6491650   7.4692710  89.8850250 110.8633880  11.4928210 104.7189210
 111.6559200  10.9977440 104.5115170 111.1567030  12.1718350 105.3264820
 106.9893540   2.3649150  75.6005260 106.9087590   1.4503760  75.3296970
 106.5757960   2.8616220  74.8944970 105.1211580   4.1428170  77.4814530
 104.3453680   3.6628610  77.7713100 105.7724510   3.4633820  77.3070690
  99.1377410   4.4547980  78.3590290  98.3062290   4.1996690  78.7586800
  99.7458390   4.5258750  79.0948210 109.1419010   8.5488360  76.2613660
 108.6800540   7.7775600  76.5900830 109.9544560   8.5754430  76.7666110
  99.1178670   8.4888070  78.5548310  99.4206710   7.5985810  78.3758530
  99.8622260   9.0458290  78.3270560 105.3682320  10.8346370  75.8817650
 104.7493760  11.2903870  75.3112090 106.2234100  10.9897830  75.4807350
 104.5620570   6.8185360  77.4884690 104.4928850   5.8775300  77.3273820
 105.3240430   6.9086770  78.0607260 106.2345670   5.7185610  73.2749560
 105.6162940   6.1835060  72.7112280 106.7468920   6.4113090  73.6919070
 101.0977430   5.2461480  79.9533160 100.7646810   5.8730400  80.5954230
 101.2744110   5.7723360  79.1734830 100.3096530   7.2142280  81.7682340
 100.9270530   7.8893360  81.4866790  99.4489650   7.6230260  81.6769840
  95.6028870   6.4042140  70.6489190  95.2256850   6.8929240  69.9174090
  95.8601940   7.0767420  71.2795720 111.2274120   8.6781690  79.6836980
 110.5437640   9.3480800  79.6753650 111.7668410   8.8762340  78.9181840
 108.7632860  10.5225820  78.3982160 108.7760020  10.1188110  77.5304420
 108.2108080  11.2973110  78.2943590 110.0578280   7.2442040  73.4872330
 109.9474610   6.3016370  73.6121750 110.0546530   7.6057680  74.3735090
 108.1618300   5.4255660  79.7264770 108.5787090   5.2115770  78.8918230
 108.8858120   5.6828450  80.2973390 105.5998560   2.8707360  72.8434820
 104.6727840   2.8044740  73.0723290 105.7523380   3.8087490  72.7290060
 112.1080400   3.8242880  79.8181010 111.2799030   3.8935970  79.3431140
 112.7030880   4.4097190  79.3496840 109.6295850   4.4327660  73.3470070
 109.0108270   4.0947210  72.6996370 109.6120300   3.7887420  74.0549260
 101.2055200   3.3972100  75.6254550 100.8012200   2.6849350  75.1300450
 101.2918320   3.0525340  76.5142590 101.6736900   7.0839660  77.7893760
 101.3765190   6.4785130  77.1101540 102.6236720   7.1216970  77.6783120
 109.7622510  10.6571530  81.4516860 109.2853070  11.4643720  81.2589470
 109.0784300  10.0049860  81.6043070 100.7655330   6.8221350  84.4401560
  99.8683860   7.0461320  84.6874960 100.7908200   6.9456290  83.4912960
 107.8060550   3.6714470  70.3542820 108.2453830   2.8336900  70.2080640
 108.5188970   4.3043870  70.4406960  99.5926550   3.6934670  83.0158930
  99.4534320   4.5657470  83.3846330  98.7107910   3.3507480  82.8706870
 105.9155930   8.6110540  74.3224060 106.3551840   9.3534870  73.9079450
 105.8542820   8.8537110  75.2463020 101.3906900   9.6356370  85.2244080
 101.3622330  10.0399320  84.3572510 101.2271870   8.7066730  85.0615680
  97.9059830   2.2917080  73.1261200  97.7857430   3.0179170  72.5142470
  97.5960720   1.5219990  72.6489110 113.3421720  10.4183470  86.5208250
 113.8181440  10.8966360  87.1997330 113.9628880  10.3500960  85.7953750
  95.5445200   5.4632220  78.9329840  95.6225620   5.5980990  77.9885560
  96.1586880   4.7548110  79.1257960  96.7892830   7.1632410  75.3436020
  96.3820910   7.3047000  74.4889620  97.6805840   6.8792570  75.1407230
 112.7454970   7.6096320  83.6808260 112.8718030   7.3708200  82.7625440
 112.7876350   6.7780860  84.1530340 106.6071710  11.3124320  82.2503070
 107.1216380  11.2232330  83.0525500 105.7640790  11.6584020  82.5430980
 108.5826110  11.5979660  71.6787070 108.4227250  11.3082600  72.5768900
 108.4172820  10.8219790  71.1432300 101.0614490  11.3778190  73.4558690
 100.8856970  10.4613730  73.2426490 100.2070230  11.7365480  73.6956490
 108.2852240   9.1067220  70.2385070 107.5917400   9.1044510  69.5787350
 109.0275100   8.6826540  69.8079240 107.8502170  10.7329930  74.3133560
 108.3059120   9.9519310  74.6272180 108.1894690  11.4436750  74.8574740
  95.6004720   6.5046390  81.4724300  95.7635760   6.0351750  80.6543670
  96.0657170   5.9969950  82.1373140 102.0974520   1.9785800  69.7553380
 101.5291420   1.5304050  69.1289290 102.8063520   2.3378580  69.2218530
  97.1743700   5.8797820  83.6320110  96.7898490   5.2391490  84.2303070
  97.4855890   6.5833940  84.2014840 103.3240840   2.7274360  79.1128730
 103.6910970   2.2532930  79.8590070 103.1345900   3.6015930  79.4537070
 101.1140210   1.7683000  81.4312940 100.8097280   2.6474980  81.6563300
 102.0686670   1.8282790  81.4670380  99.6422000   5.9743990  72.0279790
  98.8684260   5.4341610  71.8678510 100.3716630   5.4550600  71.6897550
 110.4009980   4.9709350  77.8206180 111.1209100   5.4664640  77.4302290
 110.1991800   4.2927240  77.1760050 105.7828780   5.0418410  83.7075180
 105.7166090   4.1214080  83.4532770 105.1533920   5.1393850  84.4219820
  99.6859400   5.6424370  75.6658600 100.2038070   4.8392630  75.6115490
  99.2343420   5.5803510  76.5075430 104.5728900   6.9090650  70.9385900
 104.9144600   7.6532880  70.4429220 103.7441610   7.2221770  71.3010730
  97.1703940   2.6085740  82.5784300  96.8118880   3.2739590  83.1657640
  96.8758500   1.7769290  82.9496920 100.3717060   3.0669980  85.4623850
 100.0717200   3.2127160  84.5651670 101.1428300   2.5075270  85.3697240
 105.7145510   7.8638980  83.4578980 105.7290050   6.9319940  83.2397890
 105.0070610   7.9498740  84.0968750 110.8482580   2.0478800  69.7277590
 110.7646300   2.4793020  68.8774030 111.5676770   2.5077150  70.1604410
 111.9256720   4.5046320  82.8047560 111.2004910   5.0975100  82.6076950
 112.4532180   4.4969860  82.0060930 111.8769830   8.9021060  72.4559720
 111.2345990   8.2476680  72.7303440 111.4900490   9.3076150  71.6800390
 107.4556310   6.2306490  76.3031410 107.8080130   5.6334620  75.6432780
 106.5718640   5.9050720  76.4739660 103.5419590   6.9904180  73.7101820
 104.2290720   7.5373390  74.0909410 102.7552010   7.5344910  73.7451430
  95.6811990   2.6077000  69.2018900  96.5506840   2.8901800  69.4854820
  95.1902310   3.4212870  69.0867710 102.8446800   3.9950210  73.3227180
 103.3009580   4.8055460  73.5487370 102.4935010   3.6773350  74.1545670
 105.1479410   9.5056550  80.5519480 105.7921630   9.7115930  81.2292900
 105.5108850   8.7444950  80.0990330 106.4211490   7.5088900  79.2696930
 107.0633720   6.8082060  79.3829100 106.9460840   8.2887340  79.0893820
 110.2667210   7.7937520  68.9936070 110.0404790   7.0767960  69.5860710
 109.8763410   7.5449960  68.1557820 108.1949110   8.3083800  82.4732990
 108.5305350   8.8950490  83.1510910 107.2749450   8.1776510  82.7030780
  96.0483240  11.8204380  69.7680530  96.4080880  12.4193720  69.1137800
  95.9075580  12.3664270  70.5415560 109.8483460   5.7109460  70.6550230
 109.5605160   6.1722150  71.4428110 110.6435630   5.2507230  70.9234450
  96.0325100  10.0859240  84.2422930  96.1416220   9.1453980  84.1018320
  95.3805660  10.3513990  83.5936660 104.0237690   8.3575130  85.6421050
 103.7034560   7.6384370  86.1866740 103.3496050   9.0330200  85.7157110
 102.0651860   9.2035580  70.5854200 102.0561960   9.9365270  69.9698710
 101.1450220   8.9567160  70.6781160  97.6658500   4.4250470  71.3300960
  97.0586450   5.1649370  71.3396260  98.1407850   4.5149830  70.5039160
 105.0511460   9.2663820  69.2479390 105.1523440   9.0627810  68.3181370
 104.1513200   9.0122100  69.4527170 103.6929570  11.7850140  73.9427060
 103.9471070  11.7471530  73.0206430 102.7442050  11.6583470  73.9355310
 109.6982150   2.7042020  75.5185570 108.7572290   2.7192250  75.6933260
 110.0126220   1.9177980  75.9645870  99.6763790   4.3861620  69.0789530
 100.4427060   4.2742980  69.6414960  99.7538480   3.6899590  68.4266300
 111.7007730   9.8750870  77.1939830 111.8255150  10.6982040  77.6663640
 112.5673290   9.6641600  76.8463980  99.1725260  11.9682080  76.8656960
  99.9087740  11.4197540  77.1365530  99.5566180  12.8338090  76.7262950
  96.0570740   8.0355650  72.7398470  95.1310520   8.2776790  72.7303880
  96.5227170   8.8629910  72.6183220  98.1783540  11.1528150  86.0542540
  98.9796270  11.4740200  86.4677940  97.6635360  10.7923730  86.7762450
 102.2827570  11.1412390  68.6882530 103.0756180  11.4301220  68.2364320
 101.7631920  10.7104560  68.0095010 107.0148170   7.2608020  86.0017950
 106.4086330   7.2839620  85.2613700 106.7102280   6.5291060  86.5385200
 108.4448540  10.9888310  84.6127360 109.3970290  10.9046330  84.5627600
 108.2976760  11.6530020  85.2861150 111.3357740  10.3682520  70.1119270
 111.0499250   9.9547660  69.2973450 111.1377290  11.2970230  69.9919790
  95.8981350   3.6401610  84.9978590  96.4020370   3.0608890  85.5694820
  95.1588770   3.9241840  85.5354960 102.8004970   6.3615800  68.5524880
 102.6955610   5.7468150  69.2786260 102.6329190   5.8381690  67.7687890
 102.9519290   5.0472600  84.5314110 102.1864960   5.6157600  84.4468780
 103.1335250   4.7548810  83.6382340 106.0407700   5.4235830  69.1566870
 105.4917800   5.8705130  69.8009610 106.6626960   4.9185080  69.6804540
 110.0942640   6.7777930  85.0889130 110.8352110   7.1153690  84.5856590
 109.3315320   6.9469990  84.5358900  97.9304430   1.7831200  85.8928660
  97.9709770   1.4845070  86.8013890  98.7849930   2.1838810  85.7336180
 101.7082820   4.3826750  71.0532170 102.1299240   4.2166620  71.8963560
 101.8333660   3.5726980  70.5587310 104.2210460   3.4064360  68.3009270
 104.7416120   2.6913380  67.9350420 104.8678860   4.0450230  68.6009780
 108.7688300   4.8292760  83.6244340 109.1829320   4.9837840  84.4734760
 107.8339300   4.9547980  83.7870120 109.2410470   2.1688920  85.6283490
 109.8231240   1.4141240  85.5403970 109.4172240   2.6996360  84.8514970
 103.5303530   4.7813240  81.5940270 103.9491640   5.6245970  81.4216510
 102.6112160   4.9185280  81.3647050 105.8667430   2.5129420  82.9778110
 105.9863640   1.9170560  83.7172950 106.7261430   2.5499110  82.5579410
 108.2055330   3.0666610  81.5540620 107.6790550   3.5909230  80.9505760
 108.5486670   3.6994000  82.1850350 101.3810950  11.0866250  82.7098000
 100.8432040  11.8112310  82.3906700 101.6344910  10.6096590  81.9195340
 104.2373160  12.3217460  82.9684650 104.1631860  13.2252600  83.2757020
 103.3352000  12.0029360  82.9406720 104.7858490  11.4875970  70.5911010
 105.6809280  11.8260940  70.6129770 104.8176120  10.7655380  69.9635290
  98.4254650   6.8603020  68.8198010  98.8629520   7.4032690  69.4755590
  98.9102380   6.0349970  68.8294350  95.6400450   9.6492050  76.2718270
  95.9703460   8.7813110  76.0396910  96.0691450   9.8550570  77.1023230
 100.2362370   7.9801060  73.9320240  99.9357910   7.8566030  74.8324150
 100.1299860   7.1209650  73.5235970  96.1290660  10.5162640  79.0099900
  95.6921650  10.6963440  79.8424050  96.6968340  11.2737260  78.8681620
 111.7652840  10.0179640  83.2977210 111.1654830  10.0772200  82.5541130
 111.8946740   9.0784620  83.4274060 113.0054290   7.7597460  68.6346920
 112.1747250   7.8274110  69.1054150 113.1826120   8.6501580  68.3313780
 112.4610750   4.5044940  71.1381120 113.2229660   5.0741590  71.2440810
 112.4765120   3.9372140  71.9089430  95.9615090   3.0282870  75.3688780
  95.3063930   2.7594510  74.7248480  96.7993040   2.9187350  74.9190760
 113.4670720   5.3595040  75.9823050 113.8379550   4.5762360  75.5759020
 114.1072650   6.0484140  75.8040350 110.4504480   6.7431620  81.3953370
 109.6364320   7.1728780  81.6579160 110.8578680   7.3550030  80.7822420
 112.5129920   4.7979310  68.2953640 112.7878760   5.7058190  68.1672860
 112.3240660   4.7341840  69.2315630 112.4095260   2.7348300  73.2883070
 112.0338860   1.9676230  72.8564360 111.6798380   3.1171000  73.7758000
  96.9991020   3.4135440  79.9092120  97.3664060   3.3262840  80.7888140
  96.4301840   2.6501990  79.8098980 111.7994880   1.8819820  82.9222590
 111.5680970   1.6532570  82.0220540 112.0599430   2.8019370  82.8767480
 110.5080530  11.4950220  74.9221640 111.1039600  11.1734790  74.2456060
 110.7658680  11.0222040  75.7134910  98.4143100   7.9268130  85.0712270
  98.3712730   7.5561040  85.9526730  98.5454110   8.8645700  85.2114090
 102.1149130   9.4827720  80.6721990 101.8740490   9.7502280  79.7852510
 103.0551770   9.6533450  80.7272850 113.3753290  11.5022100  81.4732630
 112.8811570  11.8990970  80.7559760 112.7666580  10.8771310  81.8669910
  98.2531130  10.8730380  82.1910050  97.6591450  10.7415080  82.9300090
  98.2454970  10.0368520  81.7252150 111.0592740  12.1445520  78.7519370
 110.5995710  12.8961330  78.3777390 110.4305200  11.4251990  78.6934170
  97.8843360   8.2388760  81.1418090  97.1577420   7.6194050  81.0744040
  97.9452510   8.6329370  80.2716170 101.4888460  10.4533760  77.9267500
 102.0053480   9.8421120  77.4015760 102.1385840  10.9562540  78.4178510
 104.2283960  11.3442250  78.7536480 104.5161770  11.0896550  77.8769490
 104.7407180  10.7919610  79.3442050  96.1673360  11.5563150  74.3514850
  95.9995400  10.9233830  75.0496740  95.3007870  11.7622550  74.0009040
  97.7736060  10.2496380  71.7964990  97.2483680  10.6304410  71.0926950
  97.6980640  10.8747150  72.5174700 104.2956320  12.2658350  86.1204680
 105.2223630  12.0302620  86.1640640 104.2806750  13.0930350  85.6390710
 112.5301380  11.8083920  73.1178930 112.7053570  11.1221660  72.4739850
 111.8322950  12.3330970  72.7255600 100.3729030  12.1978760  70.6714240
 101.1047850  11.9138040  70.1238130 100.6322700  11.9592040  71.5613620
  99.5343820   8.3143490  70.6760570  98.9052700   8.7828590  71.2246400
  99.6491650   7.4692710  71.1106760 110.8633880  11.4928210  85.9445720
 111.6559200  10.9977440  85.7371680 111.1567030  12.1718350  86.5521330
 106.9893540   2.3649150  56.8261770 106.9087590   1.4503760  56.5553480
 106.5757960   2.8616220  56.1201480 105.1211580   4.1428170  58.7071040
 104.3453680   3.6628610  58.9969610 105.7724510   3.4633820  58.5327200
  99.1377410   4.4547980  59.5846800  98.3062290   4.1996690  59.9843310
  99.7458390   4.5258750  60.3204720 109.1419010   8.5488360  57.4870170
 108.6800540   7.7775600  57.8157340 109.9544560   8.5754430  57.9922620
  99.1178670   8.4888070  59.7804820  99.4206710   7.5985810  59.6015040
  99.8622260   9.0458290  59.5527070 105.3682320  10.8346370  57.1074160
 104.7493760  11.2903870  56.5368600 106.2234100  10.9897830  56.7063860
 104.5620570   6.8185360  58.7141200 104.4928850   5.8775300  58.5530330
 105.3240430   6.9086770  59.2863770 106.2345670   5.7185610  54.5006070
 105.6162940   6.1835060  53.9368790 106.7468920   6.4113090  54.9175580
 101.0977430   5.2461480  61.1789670 100.7646810   5.8730400  61.8210740
 101.2744110   5.7723360  60.3991340 100.3096530   7.2142280  62.9938850
 100.9270530   7.8893360  62.7123300  99.4489650   7.6230260  62.9026350
  95.6028870   6.4042140  51.8745700  95.2256850   6.8929240  51.1430600
  95.8601940   7.0767420  52.5052230 111.2274120   8.6781690  60.9093490
 110.5437640   9.3480800  60.9010160 111.7668410   8.8762340  60.1438350
 108.7632860  10.5225820  59.6238670 108.7760020  10.1188110  58.7560930
 108.2108080  11.2973110  59.5200100 110.0578280   7.2442040  54.7128840
 109.9474610   6.3016370  54.8378260 110.0546530   7.6057680  55.5991600
 108.1618300   5.4255660  60.9521280 108.5787090   5.2115770  60.1174740
 108.8858120   5.6828450  61.5229900 105.5998560   2.8707360  54.0691330
 104.6727840   2.8044740  54.2979800 105.7523380   3.8087490  53.9546570
 112.1080400   3.8242880  61.0437520 111.2799030   3.8935970  60.5687650
 112.7030880   4.4097190  60.5753350 109.6295850   4.4327660  54.5726580
 109.0108270   4.0947210  53.9252880 109.6120300   3.7887420  55.2805770
 101.2055200   3.3972100  56.8511060 100.8012200   2.6849350  56.3556960
 101.2918320   3.0525340  57.7399100 101.6736900   7.0839660  59.0150270
 101.3765190   6.4785130  58.3358050 102.6236720   7.1216970  58.9039630
 109.7622510  10.6571530  62.6773370 109.2853070  11.4643720  62.4845980
 109.0784300  10.0049860  62.8299580 100.7655330   6.8221350  65.6658070
  99.8683860   7.0461320  65.9131470 100.7908200   6.9456290  64.7169470
 107.8060550   3.6714470  51.5799330 108.2453830   2.8336900  51.4337150
 108.5188970   4.3043870  51.6663470  99.5926550   3.6934670  64.2415440
  99.4534320   4.5657470  64.6102840  98.7107910   3.3507480  64.0963380
 105.9155930   8.6110540  55.5480570 106.3551840   9.3534870  55.1335960
 105.8542820   8.8537110  56.4719530 101.3906900   9.6356370  66.4500590
 101.3622330  10.0399320  65.5829020 101.2271870   8.7066730  66.2872190
  97.9059830   2.2917080  54.3517710  97.7857430   3.0179170  53.7398980
  97.5960720   1.5219990  53.8745620 113.3421720  10.4183470  67.7464760
 113.8181440  10.8966360  68.4253840 113.9628880  10.3500960  67.0210260
  95.5445200   5.4632220  60.1586350  95.6225620   5.5980990  59.2142070
  96.1586880   4.7548110  60.3514470  96.7892830   7.1632410  56.5692530
  96.3820910   7.3047000  55.7146130  97.6805840   6.8792570  56.3663740
 112.7454970   7.6096320  64.9064770 112.8718030   7.3708200  63.9881950
 112.7876350   6.7780860  65.3786850 106.6071710  11.3124320  63.4759580
 107.1216380  11.2232330  64.2782010 105.7640790  11.6584020  63.7687490
 108.5826110  11.5979660  52.9043580 108.4227250  11.3082600  53.8025410
 108.4172820  10.8219790  52.3688810 101.0614490  11.3778190  54.6815200
 100.8856970  10.4613730  54.4683000 100.2070230  11.7365480  54.9213000
 108.2852240   9.1067220  51.4641580 107.5917400   9.1044510  50.8043860
 109.0275100   8.6826540  51.0335750 107.8502170  10.7329930  55.5390070
 108.3059120   9.9519310  55.8528690 108.1894690  11.4436750  56.0831250
  95.6004720   6.5046390  62.6980810  95.7635760   6.0351750  61.8800180
  96.0657170   5.9969950  63.3629650 102.0974520   1.9785800  50.9809890
 101.5291420   1.5304050  50.3545800 102.8063520   2.3378580  50.4475040
  97.1743700   5.8797820  64.8576620  96.7898490   5.2391490  65.4559580
  97.4855890   6.5833940  65.4271350 103.3240840   2.7274360  60.3385240
 103.6910970   2.2532930  61.0846580 103.1345900   3.6015930  60.6793580
 101.1140210   1.7683000  62.6569450 100.8097280   2.6474980  62.8819810
 102.0686670   1.8282790  62.6926890  99.6422000   5.9743990  53.2536300
  98.8684260   5.4341610  53.0935020 100.3716630   5.4550600  52.9154060
 110.4009980   4.9709350  59.0462690 111.1209100   5.4664640  58.6558800
 110.1991800   4.2927240  58.4016560 105.7828780   5.0418410  64.9331690
 105.7166090   4.1214080  64.6789280 105.1533920   5.1393850  65.6476330
  99.6859400   5.6424370  56.8915110 100.2038070   4.8392630  56.8372000
  99.2343420   5.5803510  57.7331940 104.5728900   6.9090650  52.1642410
 104.9144600   7.6532880  51.6685730 103.7441610   7.2221770  52.5267240
  97.1703940   2.6085740  63.8040810  96.8118880   3.2739590  64.3914150
  96.8758500   1.7769290  64.1753430 100.3717060   3.0669980  66.6880360
 100.0717200   3.2127160  65.7908180 101.1428300   2.5075270  66.5953750
 105.7145510   7.8638980  64.6835490 105.7290050   6.9319940  64.4654400
 105.0070610   7.9498740  65.3225260 110.8482580   2.0478800  50.9534100
 110.7646300   2.4793020  50.1030540 111.5676770   2.5077150  51.3860920
 111.9256720   4.5046320  64.0304070 111.2004910   5.0975100  63.8333460
 112.4532180   4.4969860  63.2317440 111.8769830   8.9021060  53.6816230
 111.2345990   8.2476680  53.9559950 111.4900490   9.3076150  52.9056900
 107.4556310   6.2306490  57.5287920 107.8080130   5.6334620  56.8689290
 106.5718640   5.9050720  57.6996170 103.5419590   6.9904180  54.9358330
 104.2290720   7.5373390  55.3165920 102.7552010   7.5344910  54.9707940
  95.6811990   2.6077000  50.4275410  96.5506840   2.8901800  50.7111330
  95.1902310   3.4212870  50.3124220 102.8446800   3.9950210  54.5483690
 103.3009580   4.8055460  54.7743880 102.4935010   3.6773350  55.3802180
 105.1479410   9.5056550  61.7775990 105.7921630   9.7115930  62.4549410
 105.5108850   8.7444950  61.3246840 106.4211490   7.5088900  60.4953440
 107.0633720   6.8082060  60.6085610 106.9460840   8.2887340  60.3150330
 110.2667210   7.7937520  50.2192580 110.0404790   7.0767960  50.8117220
 109.8763410   7.5449960  49.3814330 108.1949110   8.3083800  63.6989500
 108.5305350   8.8950490  64.3767420 107.2749450   8.1776510  63.9287290
  96.0483240  11.8204380  50.9937040  96.4080880  12.4193720  50.3394310
  95.9075580  12.3664270  51.7672070 109.8483460   5.7109460  51.8806740
 109.5605160   6.1722150  52.6684620 110.6435630   5.2507230  52.1490960
  96.0325100  10.0859240  65.4679440  96.1416220   9.1453980  65.3274830
  95.3805660  10.3513990  64.8193170 104.0237690   8.3575130  66.8677560
 103.7034560   7.6384370  67.4123250 103.3496050   9.0330200  66.9413620
 102.0651860   9.2035580  51.8110710 102.0561960   9.9365270  51.1955220
 101.1450220   8.9567160  51.9037670  97.6658500   4.4250470  52.5557470
  97.0586450   5.1649370  52.5652770  98.1407850   4.5149830  51.7295670
 105.0511460   9.2663820  50.4735900 105.1523440   9.0627810  49.5437880
 104.1513200   9.0122100  50.6783680 103.6929570  11.7850140  55.1683570
 103.9471070  11.7471530  54.2462940 102.7442050  11.6583470  55.1611820
 109.6982150   2.7042020  56.7442080 108.7572290   2.7192250  56.9189770
 110.0126220   1.9177980  57.1902380  99.6763790   4.3861620  50.3046040
 100.4427060   4.2742980  50.8671470  99.7538480   3.6899590  49.6522810
 111.7007730   9.8750870  58.4196340 111.8255150  10.6982040  58.8920150
 112.5673290   9.6641600  58.0720490  99.1725260  11.9682080  58.0913470
  99.9087740  11.4197540  58.3622040  99.5566180  12.8338090  57.9519460
  96.0570740   8.0355650  53.9654980  95.1310520   8.2776790  53.9560390
  96.5227170   8.8629910  53.8439730  98.1783540  11.1528150  67.2799050
  98.9796270  11.4740200  67.6934450  97.6635360  10.7923730  68.0018960
 102.2827570  11.1412390  49.9139040 103.0756180  11.4301220  49.4620830
 101.7631920  10.7104560  49.2351520 107.0148170   7.2608020  67.2274460
 106.4086330   7.2839620  66.4870210 106.7102280   6.5291060  67.7641710
 108.4448540  10.9888310  65.8383870 109.3970290  10.9046330  65.7884110
 108.2976760  11.6530020  66.5117660 111.3357740  10.3682520  51.3375780
 111.0499250   9.9547660  50.5229960 111.1377290  11.2970230  51.2176300
  95.8981350   3.6401610  66.2235100  96.4020370   3.0608890  66.7951330
  95.1588770   3.9241840  66.7611470 102.8004970   6.3615800  49.7781390
 102.6955610   5.7468150  50.5042770 102.6329190   5.8381690  48.9944400
 102.9519290   5.0472600  65.7570620 102.1864960   5.6157600  65.6725290
 103.1335250   4.7548810  64.8638850 106.0407700   5.4235830  50.3823380
 105.4917800   5.8705130  51.0266120 106.6626960   4.9185080  50.9061050
 110.0942640   6.7777930  66.3145640 110.8352110   7.1153690  65.8113100
 109.3315320   6.9469990  65.7615410  97.9304430   1.7831200  67.1185170
  97.9709770   1.4845070  68.0270400  98.7849930   2.1838810  66.9592690
 101.7082820   4.3826750  52.2788680 102.1299240   4.2166620  53.1220070
 101.8333660   3.5726980  51.7843820 104.2210460   3.4064360  49.5265780
 104.7416120   2.6913380  49.1606930 104.8678860   4.0450230  49.8266290
 108.7688300   4.8292760  64.8500850 109.1829320   4.9837840  65.6991270
 107.8339300   4.9547980  65.0126630 109.2410470   2.1688920  66.8540000
 109.8231240   1.4141240  66.7660480 109.4172240   2.6996360  66.0771480
 103.5303530   4.7813240  62.8196780 103.9491640   5.6245970  62.6473020
 102.6112160   4.9185280  62.5903560 105.8667430   2.5129420  64.2034620
 105.9863640   1.9170560  64.9429460 106.7261430   2.5499110  63.7835920
 108.2055330   3.0666610  62.7797130 107.6790550   3.5909230  62.1762270
 108.5486670   3.6994000  63.4106860 101.3810950  11.0866250  63.9354510
 100.8432040  11.8112310  63.6163210 101.6344910  10.6096590  63.1451850
 104.2373160  12.3217460  64.1941160 104.1631860  13.2252600  64.5013530
 103.3352000  12.0029360  64.1663230 104.7858490  11.4875970  51.8167520
 105.6809280  11.8260940  51.8386280 104.8176120  10.7655380  51.1891800
  98.4254650   6.8603020  50.0454520  98.8629520   7.4032690  50.7012100
  98.9102380   6.0349970  50.0550860  95.6400450   9.6492050  57.4974780
  95.9703460   8.7813110  57.2653420  96.0691450   9.8550570  58.3279740
 100.2362370   7.9801060  55.1576750  99.9357910   7.8566030  56.0580660
 100.1299860   7.1209650  54.7492480  96.1290660  10.5162640  60.2356410
  95.6921650  10.6963440  61.0680560  96.6968340  11.2737260  60.0938130
 111.7652840  10.0179640  64.5233720 111.1654830  10.0772200  63.7797640
 111.8946740   9.0784620  64.6530570 113.0054290   7.7597460  49.8603430
 112.1747250   7.8274110  50.3310660 113.1826120   8.6501580  49.5570290
 112.4610750   4.5044940  52.3637630 113.2229660   5.0741590  52.4697320
 112.4765120   3.9372140  53.1345940  95.9615090   3.0282870  56.5945290
  95.3063930   2.7594510  55.9504990  96.7993040   2.9187350  56.1447270
 113.4670720   5.3595040  57.2079560 113.8379550   4.5762360  56.8015530
 114.1072650   6.0484140  57.0296860 110.4504480   6.7431620  62.6209880
 109.6364320   7.1728780  62.8835670 110.8578680   7.3550030  62.0078930
 112.5129920   4.7979310  49.5210150 112.7878760   5.7058190  49.3929370
 112.3240660   4.7341840  50.4572140 112.4095260   2.7348300  54.5139580
 112.0338860   1.9676230  54.0820870 111.6798380   3.1171000  55.0014510
  96.9991020   3.4135440  61.1348630  97.3664060   3.3262840  62.0144650
  96.4301840   2.6501990  61.0355490 111.7994880   1.8819820  64.1479100
 111.5680970   1.6532570  63.2477050 112.0599430   2.8019370  64.1023990
 110.5080530  11.4950220  56.1478150 111.1039600  11.1734790  55.4712570
 110.7658680  11.0222040  56.9391420  98.4143100   7.9268130  66.2968780
  98.3712730   7.5561040  67.1783240  98.5454110   8.8645700  66.4370600
 102.1149130   9.4827720  61.8978500 101.8740490   9.7502280  61.0109020
 103.0551770   9.6533450  61.9529360 113.3753290  11.5022100  62.6989140
 112.8811570  11.8990970  61.9816270 112.7666580  10.8771310  63.0926420
  98.2531130  10.8730380  63.4166560  97.6591450  10.7415080  64.1556600
  98.2454970  10.0368520  62.9508660 111.0592740  12.1445520  59.9775880
 110.5995710  12.8961330  59.6033900 110.4305200  11.4251990  59.9190680
  97.8843360   8.2388760  62.3674600  97.1577420   7.6194050  62.3000550
  97.9452510   8.6329370  61.4972680 101.4888460  10.4533760  59.1524010
 102.0053480   9.8421120  58.6272270 102.1385840  10.9562540  59.6435020
 104.2283960  11.3442250  59.9792990 104.5161770  11.0896550  59.1026000
 104.7407180  10.7919610  60.5698560  96.1673360  11.5563150  55.5771360
  95.9995400  10.9233830  56.2753250  95.3007870  11.7622550  55.2265550
  97.7736060  10.2496380  53.0221500  97.2483680  10.6304410  52.3183460
  97.6980640  10.8747150  53.7431210 104.2956320  12.2658350  67.3461190
 105.2223630  12.0302620  67.3897150 104.2806750  13.0930350  66.8647220
 112.5301380  11.8083920  54.3435440 112.7053570  11.1221660  53.6996360
 111.8322950  12.3330970  53.9512110 100.3729030  12.1978760  51.8970750
 101.1047850  11.9138040  51.3494640 100.6322700  11.9592040  52.7870130
  99.5343820   8.3143490  51.9017080  98.9052700   8.7828590  52.4502910
  99.6491650   7.4692710  52.3363270 110.8633880  11.4928210  67.1702230
 111.6559200  10.9977440  66.9628190 111.1567030  12.1718350  67.7777840
 106.9893540   2.3649150  38.0518280 106.9087590   1.4503760  37.7809990
 106.5757960   2.8616220  37.3457990 105.1211580   4.1428170  39.9327550
 104.3453680   3.6628610  40.2226120 105.7724510   3.4633820  39.7583710
  99.1377410   4.4547980  40.8103310  98.3062290   4.1996690  41.2099820
  99.7458390   4.5258750  41.5461230 109.1419010   8.5488360  38.7126680
 108.6800540   7.7775600  39.0413850 109.9544560   8.5754430  39.2179130
  99.1178670   8.4888070  41.0061330  99.4206710   7.5985810  40.8271550
  99.8622260   9.0458290  40.7783580 105.3682320  10.8346370  38.3330670
 104.7493760  11.2903870  37.7625110 106.2234100  10.9897830  37.9320370
 104.5620570   6.8185360  39.9397710 104.4928850   5.8775300  39.7786840
 105.3240430   6.9086770  40.5120280 106.2345670   5.7185610  35.7262580
 105.6162940   6.1835060  35.1625300 106.7468920   6.4113090  36.1432090
 101.0977430   5.2461480  42.4046180 100.7646810   5.8730400  43.0467250
 101.2744110   5.7723360  41.6247850 100.3096530   7.2142280  44.2195360
 100.9270530   7.8893360  43.9379810  99.4489650   7.6230260  44.1282860
  95.6028870   6.4042140  33.1002210  95.2256850   6.8929240  32.3687110
  95.8601940   7.0767420  33.7308740 111.2274120   8.6781690  42.1350000
 110.5437640   9.3480800  42.1266670 111.7668410   8.8762340  41.3694860
 108.7632860  10.5225820  40.8495180 108.7760020  10.1188110  39.9817440
 108.2108080  11.2973110  40.7456610 110.0578280   7.2442040  35.9385350
 109.9474610   6.3016370  36.0634770 110.0546530   7.6057680  36.8248110
 108.1618300   5.4255660  42.1777790 108.5787090   5.2115770  41.3431250
 108.8858120   5.6828450  42.7486410 105.5998560   2.8707360  35.2947840
 104.6727840   2.8044740  35.5236310 105.7523380   3.8087490  35.1803080
 112.1080400   3.8242880  42.2694030 111.2799030   3.8935970  41.7944160
 112.7030880   4.4097190  41.8009860 109.6295850   4.4327660  35.7983090
 109.0108270   4.0947210  35.1509390 109.6120300   3.7887420  36.5062280
 101.2055200   3.3972100  38.0767570 100.8012200   2.6849350  37.5813470
 101.2918320   3.0525340  38.9655610 101.6736900   7.0839660  40.2406780
 101.3765190   6.4785130  39.5614560 102.6236720   7.1216970  40.1296140
 109.7622510  10.6571530  43.9029880 109.2853070  11.4643720  43.7102490
 109.0784300  10.0049860  44.0556090 100.7655330   6.8221350  46.8914580
  99.8683860   7.0461320  47.1387980 100.7908200   6.9456290  45.9425980
 107.8060550   3.6714470  32.8055840 108.2453830   2.8336900  32.6593660
 108.5188970   4.3043870  32.8919980  99.5926550   3.6934670  45.4671950
  99.4534320   4.5657470  45.8359350  98.7107910   3.3507480  45.3219890
 105.9155930   8.6110540  36.7737080 106.3551840   9.3534870  36.3592470
 105.8542820   8.8537110  37.6976040 101.3906900   9.6356370  47.6757100
 101.3622330  10.0399320  46.8085530 101.2271870   8.7066730  47.5128700
  97.9059830   2.2917080  35.5774220  97.7857430   3.0179170  34.9655490
  97.5960720   1.5219990  35.1002130 113.3421720  10.4183470  48.9721270
 113.8181440  10.8966360  49.6510350 113.9628880  10.3500960  48.2466770
  95.5445200   5.4632220  41.3842860  95.6225620   5.5980990  40.4398580
  96.1586880   4.7548110  41.5770980  96.7892830   7.1632410  37.7949040
  96.3820910   7.3047000  36.9402640  97.6805840   6.8792570  37.5920250
 112.7454970   7.6096320  46.1321280 112.8718030   7.3708200  45.2138460
 112.7876350   6.7780860  46.6043360 106.6071710  11.3124320  44.7016090
 107.1216380  11.2232330  45.5038520 105.7640790  11.6584020  44.9944000
 108.5826110  11.5979660  34.1300090 108.4227250  11.3082600  35.0281920
 108.4172820  10.8219790  33.5945320 101.0614490  11.3778190  35.9071710
 100.8856970  10.4613730  35.6939510 100.2070230  11.7365480  36.1469510
 108.2852240   9.1067220  32.6898090 107.5917400   9.1044510  32.0300370
 109.0275100   8.6826540  32.2592260 107.8502170  10.7329930  36.7646580
 108.3059120   9.9519310  37.0785200 108.1894690  11.4436750  37.3087760
  95.6004720   6.5046390  43.9237320  95.7635760   6.0351750  43.1056690
  96.0657170   5.9969950  44.5886160 102.0974520   1.9785800  32.2066400
 101.5291420   1.5304050  31.5802310 102.8063520   2.3378580  31.6731550
  97.1743700   5.8797820  46.0833130  96.7898490   5.2391490  46.6816090
  97.4855890   6.5833940  46.6527860 103.3240840   2.7274360  41.5641750
 103.6910970   2.2532930  42.3103090 103.1345900   3.6015930  41.9050090
 101.1140210   1.7683000  43.8825960 100.8097280   2.6474980  44.1076320
 102.0686670   1.8282790  43.9183400  99.6422000   5.9743990  34.4792810
  98.8684260   5.4341610  34.3191530 100.3716630   5.4550600  34.1410570
 110.4009980   4.9709350  40.2719200 111.1209100   5.4664640  39.8815310
 110.1991800   4.2927240  39.6273070 105.7828780   5.0418410  46.1588200
 105.7166090   4.1214080  45.9045790 105.1533920   5.1393850  46.8732840
  99.6859400   5.6424370  38.1171620 100.2038070   4.8392630  38.0628510
  99.2343420   5.5803510  38.9588450 104.5728900   6.9090650  33.3898920
 104.9144600   7.6532880  32.8942240 103.7441610   7.2221770  33.7523750
  97.1703940   2.6085740  45.0297320  96.8118880   3.2739590  45.6170660
  96.8758500   1.7769290  45.4009940 100.3717060   3.0669980  47.9136870
 100.0717200   3.2127160  47.0164690 101.1428300   2.5075270  47.8210260
 105.7145510   7.8638980  45.9092000 105.7290050   6.9319940  45.6910910
 105.0070610   7.9498740  46.5481770 110.8482580   2.0478800  32.1790610
 110.7646300   2.4793020  31.3287050 111.5676770   2.5077150  32.6117430
 111.9256720   4.5046320  45.2560580 111.2004910   5.0975100  45.0589970
 112.4532180   4.4969860  44.4573950 111.8769830   8.9021060  34.9072740
 111.2345990   8.2476680  35.1816460 111.4900490   9.3076150  34.1313410
 107.4556310   6.2306490  38.7544430 107.8080130   5.6334620  38.0945800
 106.5718640   5.9050720  38.9252680 103.5419590   6.9904180  36.1614840
 104.2290720   7.5373390  36.5422430 102.7552010   7.5344910  36.1964450
  95.6811990   2.6077000  31.6531920  96.5506840   2.8901800  31.9367840
  95.1902310   3.4212870  31.5380730 102.8446800   3.9950210  35.7740200
 103.3009580   4.8055460  36.0000390 102.4935010   3.6773350  36.6058690
 105.1479410   9.5056550  43.0032500 105.7921630   9.7115930  43.6805920
 105.5108850   8.7444950  42.5503350 106.4211490   7.5088900  41.7209950
 107.0633720   6.8082060  41.8342120 106.9460840   8.2887340  41.5406840
 110.2667210   7.7937520  31.4449090 110.0404790   7.0767960  32.0373730
 109.8763410   7.5449960  30.6070840 108.1949110   8.3083800  44.9246010
 108.5305350   8.8950490  45.6023930 107.2749450   8.1776510  45.1543800
  96.0483240  11.8204380  32.2193550  96.4080880  12.4193720  31.5650820
  95.9075580  12.3664270  32.9928580 109.8483460   5.7109460  33.1063250
 109.5605160   6.1722150  33.8941130 110.6435630   5.2507230  33.3747470
  96.0325100  10.0859240  46.6935950  96.1416220   9.1453980  46.5531340
  95.3805660  10.3513990  46.0449680 104.0237690   8.3575130  48.0934070
 103.7034560   7.6384370  48.6379760 103.3496050   9.0330200  48.1670130
 102.0651860   9.2035580  33.0367220 102.0561960   9.9365270  32.4211730
 101.1450220   8.9567160  33.1294180  97.6658500   4.4250470  33.7813980
  97.0586450   5.1649370  33.7909280  98.1407850   4.5149830  32.9552180
 105.0511460   9.2663820  31.6992410 105.1523440   9.0627810  30.7694390
 104.1513200   9.0122100  31.9040190 103.6929570  11.7850140  36.3940080
 103.9471070  11.7471530  35.4719450 102.7442050  11.6583470  36.3868330
 109.6982150   2.7042020  37.9698590 108.7572290   2.7192250  38.1446280
 110.0126220   1.9177980  38.4158890  99.6763790   4.3861620  31.5302550
 100.4427060   4.2742980  32.0927980  99.7538480   3.6899590  30.8779320
 111.7007730   9.8750870  39.6452850 111.8255150  10.6982040  40.1176660
 112.5673290   9.6641600  39.2977000  99.1725260  11.9682080  39.3169980
  99.9087740  11.4197540  39.5878550  99.5566180  12.8338090  39.1775970
  96.0570740   8.0355650  35.1911490  95.1310520   8.2776790  35.1816900
  96.5227170   8.8629910  35.0696240  98.1783540  11.1528150  48.5055560
  98.9796270  11.4740200  48.9190960  97.6635360  10.7923730  49.2275470
 102.2827570  11.1412390  31.1395550 103.0756180  11.4301220  30.6877340
 101.7631920  10.7104560  30.4608030 107.0148170   7.2608020  48.4530970
 106.4086330   7.2839620  47.7126720 106.7102280   6.5291060  48.9898220
 108.4448540  10.9888310  47.0640380 109.3970290  10.9046330  47.0140620
 108.2976760  11.6530020  47.7374170 111.3357740  10.3682520  32.5632290
 111.0499250   9.9547660  31.7486470 111.1377290  11.2970230  32.4432810
  95.8981350   3.6401610  47.4491610  96.4020370   3.0608890  48.0207840
  95.1588770   3.9241840  47.9867980 102.8004970   6.3615800  31.0037900
 102.6955610   5.7468150  31.7299280 102.6329190   5.8381690  30.2200910
 102.9519290   5.0472600  46.9827130 102.1864960   5.6157600  46.8981800
 103.1335250   4.7548810  46.0895360 106.0407700   5.4235830  31.6079890
 105.4917800   5.8705130  32.2522630 106.6626960   4.9185080  32.1317560
 110.0942640   6.7777930  47.5402150 110.8352110   7.1153690  47.0369610
 109.3315320   6.9469990  46.9871920  97.9304430   1.7831200  48.3441680
  97.9709770   1.4845070  49.2526910  98.7849930   2.1838810  48.1849200
 101.7082820   4.3826750  33.5045190 102.1299240   4.2166620  34.3476580
 101.8333660   3.5726980  33.0100330 104.2210460   3.4064360  30.7522290
 104.7416120   2.6913380  30.3863440 104.8678860   4.0450230  31.0522800
 108.7688300   4.8292760  46.0757360 109.1829320   4.9837840  46.9247780
 107.8339300   4.9547980  46.2383140 109.2410470   2.1688920  48.0796510
 109.8231240   1.4141240  47.9916990 109.4172240   2.6996360  47.3027990
 103.5303530   4.7813240  44.0453290 103.9491640   5.6245970  43.8729530
 102.6112160   4.9185280  43.8160070 105.8667430   2.5129420  45.4291130
 105.9863640   1.9170560  46.1685970 106.7261430   2.5499110  45.0092430
 108.2055330   3.0666610  44.0053640 107.6790550   3.5909230  43.4018780
 108.5486670   3.6994000  44.6363370 101.3810950  11.0866250  45.1611020
 100.8432040  11.8112310  44.8419720 101.6344910  10.6096590  44.3708360
 104.2373160  12.3217460  45.4197670 104.1631860  13.2252600  45.7270040
 103.3352000  12.0029360  45.3919740 104.7858490  11.4875970  33.0424030
 105.6809280  11.8260940  33.0642790 104.8176120  10.7655380  32.4148310
  98.4254650   6.8603020  31.2711030  98.8629520   7.4032690  31.9268610
  98.9102380   6.0349970  31.2807370  95.6400450   9.6492050  38.7231290
  95.9703460   8.7813110  38.4909930  96.0691450   9.8550570  39.5536250
 100.2362370   7.9801060  36.3833260  99.9357910   7.8566030  37.2837170
 100.1299860   7.1209650  35.9748990  96.1290660  10.5162640  41.4612920
  95.6921650  10.6963440  42.2937070  96.6968340  11.2737260  41.3194640
 111.7652840  10.0179640  45.7490230 111.1654830  10.0772200  45.0054150
 111.8946740   9.0784620  45.8787080 113.0054290   7.7597460  31.0859940
 112.1747250   7.8274110  31.5567170 113.1826120   8.6501580  30.7826800
 112.4610750   4.5044940  33.5894140 113.2229660   5.0741590  33.6953830
 112.4765120   3.9372140  34.3602450  95.9615090   3.0282870  37.8201800
  95.3063930   2.7594510  37.1761500  96.7993040   2.9187350  37.3703780
 113.4670720   5.3595040  38.4336070 113.8379550   4.5762360  38.0272040
 114.1072650   6.0484140  38.2553370 110.4504480   6.7431620  43.8466390
 109.6364320   7.1728780  44.1092180 110.8578680   7.3550030  43.2335440
 112.5129920   4.7979310  30.7466660 112.7878760   5.7058190  30.6185880
 112.3240660   4.7341840  31.6828650 112.4095260   2.7348300  35.7396090
 112.0338860   1.9676230  35.3077380 111.6798380   3.1171000  36.2271020
  96.9991020   3.4135440  42.3605140  97.3664060   3.3262840  43.2401160
  96.4301840   2.6501990  42.2612000 111.7994880   1.8819820  45.3735610
 111.5680970   1.6532570  44.4733560 112.0599430   2.8019370  45.3280500
 110.5080530  11.4950220  37.3734660 111.1039600  11.1734790  36.6969080
 110.7658680  11.0222040  38.1647930  98.4143100   7.9268130  47.5225290
  98.3712730   7.5561040  48.4039750  98.5454110   8.8645700  47.6627110
 102.1149130   9.4827720  43.1235010 101.8740490   9.7502280  42.2365530
 103.0551770   9.6533450  43.1785870 113.3753290  11.5022100  43.9245650
 112.8811570  11.8990970  43.2072780 112.7666580  10.8771310  44.3182930
  98.2531130  10.8730380  44.6423070  97.6591450  10.7415080  45.3813110
  98.2454970  10.0368520  44.1765170 111.0592740  12.1445520  41.2032390
 110.5995710  12.8961330  40.8290410 110.4305200  11.4251990  41.1447190
  97.8843360   8.2388760  43.5931110  97.1577420   7.6194050  43.5257060
  97.9452510   8.6329370  42.7229190 101.4888460  10.4533760  40.3780520
 102.0053480   9.8421120  39.8528780 102.1385840  10.9562540  40.8691530
 104.2283960  11.3442250  41.2049500 104.5161770  11.0896550  40.3282510
 104.7407180  10.7919610  41.7955070  96.1673360  11.5563150  36.8027870
  95.9995400  10.9233830  37.5009760  95.3007870  11.7622550  36.4522060
  97.7736060  10.2496380  34.2478010  97.2483680  10.6304410  33.5439970
  97.6980640  10.8747150  34.9687720 104.2956320  12.2658350  48.5717700
 105.2223630  12.0302620  48.6153660 104.2806750  13.0930350  48.0903730
 112.5301380  11.8083920  35.5691950 112.7053570  11.1221660  34.9252870
 111.8322950  12.3330970  35.1768620 100.3729030  12.1978760  33.1227260
 101.1047850  11.9138040  32.5751150 100.6322700  11.9592040  34.0126640
  99.5343820   8.3143490  33.1273590  98.9052700   8.7828590  33.6759420
  99.6491650   7.4692710  33.5619780 110.8633880  11.4928210  48.3958740
 111.6559200  10.9977440  48.1884700 111.1567030  12.1718350  49.0034350
 106.9893540   2.3649150  19.2774790 106.9087590   1.4503760  19.0066500
 106.5757960   2.8616220  18.5714500 105.1211580   4.1428170  21.1584060
 104.3453680   3.6628610  21.4482630 105.7724510   3.4633820  20.9840220
  99.1377410   4.4547980  22.0359820  98.3062290   4.1996690  22.4356330
  99.7458390   4.5258750  22.7717740 109.1419010   8.5488360  19.9383190
 108.6800540   7.7775600  20.2670360 109.9544560   8.5754430  20.4435640
  99.1178670   8.4888070  22.2317840  99.4206710   7.5985810  22.0528060
  99.8622260   9.0458290  22.0040090 105.3682320  10.8346370  19.5587180
 104.7493760  11.2903870  18.9881620 106.2234100  10.9897830  19.1576880
 104.5620570   6.8185360  21.1654220 104.4928850   5.8775300  21.0043350
 105.3240430   6.9086770  21.7376790 106.2345670   5.7185610  16.9519090
 105.6162940   6.1835060  16.3881810 106.7468920   6.4113090  17.3688600
 101.0977430   5.2461480  23.6302690 100.7646810   5.8730400  24.2723760
 101.2744110   5.7723360  22.8504360 100.3096530   7.2142280  25.4451870
 100.9270530   7.8893360  25.1636320  99.4489650   7.6230260  25.3539370
  95.6028870   6.4042140  14.3258720  95.2256850   6.8929240  13.5943620
  95.8601940   7.0767420  14.9565250 111.2274120   8.6781690  23.3606510
 110.5437640   9.3480800  23.3523180 111.7668410   8.8762340  22.5951370
 108.7632860  10.5225820  22.0751690 108.7760020  10.1188110  21.2073950
 108.2108080  11.2973110  21.9713120 110.0578280   7.2442040  17.1641860
 109.9474610   6.3016370  17.2891280 110.0546530   7.6057680  18.0504620
 108.1618300   5.4255660  23.4034300 108.5787090   5.2115770  22.5687760
 108.8858120   5.6828450  23.9742920 105.5998560   2.8707360  16.5204350
 104.6727840   2.8044740  16.7492820 105.7523380   3.8087490  16.4059590
 112.1080400   3.8242880  23.4950540 111.2799030   3.8935970  23.0200670
 112.7030880   4.4097190  23.0266370 109.6295850   4.4327660  17.0239600
 109.0108270   4.0947210  16.3765900 109.6120300   3.7887420  17.7318790
 101.2055200   3.3972100  19.3024080 100.8012200   2.6849350  18.8069980
 101.2918320   3.0525340  20.1912120 101.6736900   7.0839660  21.4663290
 101.3765190   6.4785130  20.7871070 102.6236720   7.1216970  21.3552650
 109.7622510  10.6571530  25.1286390 109.2853070  11.4643720  24.9359000
 109.0784300  10.0049860  25.2812600 100.7655330   6.8221350  28.1171090
  99.8683860   7.0461320  28.3644490 100.7908200   6.9456290  27.1682490
 107.8060550   3.6714470  14.0312350 108.2453830   2.8336900  13.8850170
 108.5188970   4.3043870  14.1176490  99.5926550   3.6934670  26.6928460
  99.4534320   4.5657470  27.0615860  98.7107910   3.3507480  26.5476400
 105.9155930   8.6110540  17.9993590 106.3551840   9.3534870  17.5848980
 105.8542820   8.8537110  18.9232550 101.3906900   9.6356370  28.9013610
 101.3622330  10.0399320  28.0342040 101.2271870   8.7066730  28.7385210
  97.9059830   2.2917080  16.8030730  97.7857430   3.0179170  16.1912000
  97.5960720   1.5219990  16.3258640 113.3421720  10.4183470  30.1977780
 113.8181440  10.8966360  30.8766860 113.9628880  10.3500960  29.4723280
  95.5445200   5.4632220  22.6099370  95.6225620   5.5980990  21.6655090
  96.1586880   4.7548110  22.8027490  96.7892830   7.1632410  19.0205550
  96.3820910   7.3047000  18.1659150  97.6805840   6.8792570  18.8176760
 112.7454970   7.6096320  27.3577790 112.8718030   7.3708200  26.4394970
 112.7876350   6.7780860  27.8299870 106.6071710  11.3124320  25.9272600
 107.1216380  11.2232330  26.7295030 105.7640790  11.6584020  26.2200510
 108.5826110  11.5979660  15.3556600 108.4227250  11.3082600  16.2538430
 108.4172820  10.8219790  14.8201830 101.0614490  11.3778190  17.1328220
 100.8856970  10.4613730  16.9196020 100.2070230  11.7365480  17.3726020
 108.2852240   9.1067220  13.9154600 107.5917400   9.1044510  13.2556880
 109.0275100   8.6826540  13.4848770 107.8502170  10.7329930  17.9903090
 108.3059120   9.9519310  18.3041710 108.1894690  11.4436750  18.5344270
  95.6004720   6.5046390  25.1493830  95.7635760   6.0351750  24.3313200
  96.0657170   5.9969950  25.8142670 102.0974520   1.9785800  13.4322910
 101.5291420   1.5304050  12.8058820 102.8063520   2.3378580  12.8988060
  97.1743700   5.8797820  27.3089640  96.7898490   5.2391490  27.9072600
  97.4855890   6.5833940  27.8784370 103.3240840   2.7274360  22.7898260
 103.6910970   2.2532930  23.5359600 103.1345900   3.6015930  23.1306600
 101.1140210   1.7683000  25.1082470 100.8097280   2.6474980  25.3332830
 102.0686670   1.8282790  25.1439910  99.6422000   5.9743990  15.7049320
  98.8684260   5.4341610  15.5448040 100.3716630   5.4550600  15.3667080
 110.4009980   4.9709350  21.4975710 111.1209100   5.4664640  21.1071820
 110.1991800   4.2927240  20.8529580 105.7828780   5.0418410  27.3844710
 105.7166090   4.1214080  27.1302300 105.1533920   5.1393850  28.0989350
  99.6859400   5.6424370  19.3428130 100.2038070   4.8392630  19.2885020
  99.2343420   5.5803510  20.1844960 104.5728900   6.9090650  14.6155430
 104.9144600   7.6532880  14.1198750 103.7441610   7.2221770  14.9780260
  97.1703940   2.6085740  26.2553830  96.8118880   3.2739590  26.8427170
  96.8758500   1.7769290  26.6266450 100.3717060   3.0669980  29.1393380
 100.0717200   3.2127160  28.2421200 101.1428300   2.5075270  29.0466770
 105.7145510   7.8638980  27.1348510 105.7290050   6.9319940  26.9167420
 105.0070610   7.9498740  27.7738280 110.8482580   2.0478800  13.4047120
 110.7646300   2.4793020  12.5543560 111.5676770   2.5077150  13.8373940
 111.9256720   4.5046320  26.4817090 111.2004910   5.0975100  26.2846480
 112.4532180   4.4969860  25.6830460 111.8769830   8.9021060  16.1329250
 111.2345990   8.2476680  16.4072970 111.4900490   9.3076150  15.3569920
 107.4556310   6.2306490  19.9800940 107.8080130   5.6334620  19.3202310
 106.5718640   5.9050720  20.1509190 103.5419590   6.9904180  17.3871350
 104.2290720   7.5373390  17.7678940 102.7552010   7.5344910  17.4220960
  95.6811990   2.6077000  12.8788430  96.5506840   2.8901800  13.1624350
  95.1902310   3.4212870  12.7637240 102.8446800   3.9950210  16.9996710
 103.3009580   4.8055460  17.2256900 102.4935010   3.6773350  17.8315200
 105.1479410   9.5056550  24.2289010 105.7921630   9.7115930  24.9062430
 105.5108850   8.7444950  23.7759860 106.4211490   7.5088900  22.9466460
 107.0633720   6.8082060  23.0598630 106.9460840   8.2887340  22.7663350
 110.2667210   7.7937520  12.6705600 110.0404790   7.0767960  13.2630240
 109.8763410   7.5449960  11.8327350 108.1949110   8.3083800  26.1502520
 108.5305350   8.8950490  26.8280440 107.2749450   8.1776510  26.3800310
  96.0483240  11.8204380  13.4450060  96.4080880  12.4193720  12.7907330
  95.9075580  12.3664270  14.2185090 109.8483460   5.7109460  14.3319760
 109.5605160   6.1722150  15.1197640 110.6435630   5.2507230  14.6003980
  96.0325100  10.0859240  27.9192460  96.1416220   9.1453980  27.7787850
  95.3805660  10.3513990  27.2706190 104.0237690   8.3575130  29.3190580
 103.7034560   7.6384370  29.8636270 103.3496050   9.0330200  29.3926640
 102.0651860   9.2035580  14.2623730 102.0561960   9.9365270  13.6468240
 101.1450220   8.9567160  14.3550690  97.6658500   4.4250470  15.0070490
  97.0586450   5.1649370  15.0165790  98.1407850   4.5149830  14.1808690
 105.0511460   9.2663820  12.9248920 105.1523440   9.0627810  11.9950900
 104.1513200   9.0122100  13.1296700 103.6929570  11.7850140  17.6196590
 103.9471070  11.7471530  16.6975960 102.7442050  11.6583470  17.6124840
 109.6982150   2.7042020  19.1955100 108.7572290   2.7192250  19.3702790
 110.0126220   1.9177980  19.6415400  99.6763790   4.3861620  12.7559060
 100.4427060   4.2742980  13.3184490  99.7538480   3.6899590  12.1035830
 111.7007730   9.8750870  20.8709360 111.8255150  10.6982040  21.3433170
 112.5673290   9.6641600  20.5233510  99.1725260  11.9682080  20.5426490
  99.9087740  11.4197540  20.8135060  99.5566180  12.8338090  20.4032480
  96.0570740   8.0355650  16.4168000  95.1310520   8.2776790  16.4073410
  96.5227170   8.8629910  16.2952750  98.1783540  11.1528150  29.7312070
  98.9796270  11.4740200  30.1447470  97.6635360  10.7923730  30.4531980
 102.2827570  11.1412390  12.3652060 103.0756180  11.4301220  11.9133850
 101.7631920  10.7104560  11.6864540 107.0148170   7.2608020  29.6787480
 106.4086330   7.2839620  28.9383230 106.7102280   6.5291060  30.2154730
 108.4448540  10.9888310  28.2896890 109.3970290  10.9046330  28.2397130
 108.2976760  11.6530020  28.9630680 111.3357740  10.3682520  13.7888800
 111.0499250   9.9547660  12.9742980 111.1377290  11.2970230  13.6689320
  95.8981350   3.6401610  28.6748120  96.4020370   3.0608890  29.2464350
  95.1588770   3.9241840  29.2124490 102.8004970   6.3615800  12.2294410
 102.6955610   5.7468150  12.9555790 102.6329190   5.8381690  11.4457420
 102.9519290   5.0472600  28.2083640 102.1864960   5.6157600  28.1238310
 103.1335250   4.7548810  27.3151870 106.0407700   5.4235830  12.8336400
 105.4917800   5.8705130  13.4779140 106.6626960   4.9185080  13.3574070
 110.0942640   6.7777930  28.7658660 110.8352110   7.1153690  28.2626120
 109.3315320   6.9469990  28.2128430  97.9304430   1.7831200  29.5698190
  97.9709770   1.4845070  30.4783420  98.7849930   2.1838810  29.4105710
 101.7082820   4.3826750  14.7301700 102.1299240   4.2166620  15.5733090
 101.8333660   3.5726980  14.2356840 104.2210460   3.4064360  11.9778800
 104.7416120   2.6913380  11.6119950 104.8678860   4.0450230  12.2779310
 108.7688300   4.8292760  27.3013870 109.1829320   4.9837840  28.1504290
 107.8339300   4.9547980  27.4639650 109.2410470   2.1688920  29.3053020
 109.8231240   1.4141240  29.2173500 109.4172240   2.6996360  28.5284500
 103.5303530   4.7813240  25.2709800 103.9491640   5.6245970  25.0986040
 102.6112160   4.9185280  25.0416580 105.8667430   2.5129420  26.6547640
 105.9863640   1.9170560  27.3942480 106.7261430   2.5499110  26.2348940
 108.2055330   3.0666610  25.2310150 107.6790550   3.5909230  24.6275290
 108.5486670   3.6994000  25.8619880 101.3810950  11.0866250  26.3867530
 100.8432040  11.8112310  26.0676230 101.6344910  10.6096590  25.5964870
 104.2373160  12.3217460  26.6454180 104.1631860  13.2252600  26.9526550
 103.3352000  12.0029360  26.6176250 104.7858490  11.4875970  14.2680540
 105.6809280  11.8260940  14.2899300 104.8176120  10.7655380  13.6404820
  98.4254650   6.8603020  12.4967540  98.8629520   7.4032690  13.1525120
  98.9102380   6.0349970  12.5063880  95.6400450   9.6492050  19.9487800
  95.9703460   8.7813110  19.7166440  96.0691450   9.8550570  20.7792760
 100.2362370   7.9801060  17.6089770  99.9357910   7.8566030  18.5093680
 100.1299860   7.1209650  17.2005500  96.1290660  10.5162640  22.6869430
  95.6921650  10.6963440  23.5193580  96.6968340  11.2737260  22.5451150
 111.7652840  10.0179640  26.9746740 111.1654830  10.0772200  26.2310660
 111.8946740   9.0784620  27.1043590 113.0054290   7.7597460  12.3116450
 112.1747250   7.8274110  12.7823680 113.1826120   8.6501580  12.0083310
 112.4610750   4.5044940  14.8150650 113.2229660   5.0741590  14.9210340
 112.4765120   3.9372140  15.5858960  95.9615090   3.0282870  19.0458310
  95.3063930   2.7594510  18.4018010  96.7993040   2.9187350  18.5960290
 113.4670720   5.3595040  19.6592580 113.8379550   4.5762360  19.2528550
 114.1072650   6.0484140  19.4809880 110.4504480   6.7431620  25.0722900
 109.6364320   7.1728780  25.3348690 110.8578680   7.3550030  24.4591950
 112.5129920   4.7979310  11.9723170 112.7878760   5.7058190  11.8442390
 112.3240660   4.7341840  12.9085160 112.4095260   2.7348300  16.9652600
 112.0338860   1.9676230  16.5333890 111.6798380   3.1171000  17.4527530
  96.9991020   3.4135440  23.5861650  97.3664060   3.3262840  24.4657670
  96.4301840   2.6501990  23.4868510 111.7994880   1.8819820  26.5992120
 111.5680970   1.6532570  25.6990070 112.0599430   2.8019370  26.5537010
 110.5080530  11.4950220  18.5991170 111.1039600  11.1734790  17.9225590
 110.7658680  11.0222040  19.3904440  98.4143100   7.9268130  28.7481800
  98.3712730   7.5561040  29.6296260  98.5454110   8.8645700  28.8883620
 102.1149130   9.4827720  24.3491520 101.8740490   9.7502280  23.4622040
 103.0551770   9.6533450  24.4042380 113.3753290  11.5022100  25.1502160
 112.8811570  11.8990970  24.4329290 112.7666580  10.8771310  25.5439440
  98.2531130  10.8730380  25.8679580  97.6591450  10.7415080  26.6069620
  98.2454970  10.0368520  25.4021680 111.0592740  12.1445520  22.4288900
 110.5995710  12.8961330  22.0546920 110.4305200  11.4251990  22.3703700
  97.8843360   8.2388760  24.8187620  97.1577420   7.6194050  24.7513570
  97.9452510   8.6329370  23.9485700 101.4888460  10.4533760  21.6037030
 102.0053480   9.8421120  21.0785290 102.1385840  10.9562540  22.0948040
 104.2283960  11.3442250  22.4306010 104.5161770  11.0896550  21.5539020
 104.7407180  10.7919610  23.0211580  96.1673360  11.5563150  18.0284380
  95.9995400  10.9233830  18.7266270  95.3007870  11.7622550  17.6778570
  97.7736060  10.2496380  15.4734520  97.2483680  10.6304410  14.7696480
  97.6980640  10.8747150  16.1944230 104.2956320  12.2658350  29.7974210
 105.2223630  12.0302620  29.8410170 104.2806750  13.0930350  29.3160240
 112.5301380  11.8083920  16.7948460 112.7053570  11.1221660  16.1509380
 111.8322950  12.3330970  16.4025130 100.3729030  12.1978760  14.3483770
 101.1047850  11.9138040  13.8007660 100.6322700  11.9592040  15.2383150
  99.5343820   8.3143490  14.3530100  98.9052700   8.7828590  14.9015930
  99.6491650   7.4692710  14.7876290 110.8633880  11.4928210  29.6215250
 111.6559200  10.9977440  29.4141210 111.1567030  12.1718350  30.2290860
 105.1211580   4.1428170   2.3840570 104.3453680   3.6628610   2.6739140
 105.7724510   3.4633820   2.2096730  99.1377410   4.4547980   3.2616330
  98.3062290   4.1996690   3.6612840  99.7458390   4.5258750   3.9974250
  99.1178670   8.4888070   3.4574350  99.4206710   7.5985810   3.2784570
  99.8622260   9.0458290   3.2296600 104.5620570   6.8185360   2.3910730
 104.4928850   5.8775300   2.2299860 105.3240430   6.9086770   2.9633300
 101.0977430   5.2461480   4.8559200 100.7646810   5.8730400   5.4980270
 101.2744110   5.7723360   4.0760870 100.3096530   7.2142280   6.6708380
 100.9270530   7.8893360   6.3892830  99.4489650   7.6230260   6.5795880
 111.2274120   8.6781690   4.5863020 110.5437640   9.3480800   4.5779690
 111.7668410   8.8762340   3.8207880 108.7632860  10.5225820   3.3008200
 108.7760020  10.1188110   2.4330460 108.2108080  11.2973110   3.1969630
 108.1618300   5.4255660   4.6290810 108.5787090   5.2115770   3.7944270
 108.8858120   5.6828450   5.1999430 112.1080400   3.8242880   4.7207050
 111.2799030   3.8935970   4.2457180 112.7030880   4.4097190   4.2522880
 101.6736900   7.0839660   2.6919800 101.3765190   6.4785130   2.0127580
 102.6236720   7.1216970   2.5809160 109.7622510  10.6571530   6.3542900
 109.2853070  11.4643720   6.1615510 109.0784300  10.0049860   6.5069110
 100.7655330   6.8221350   9.3427600  99.8683860   7.0461320   9.5901000
 100.7908200   6.9456290   8.3939000  99.5926550   3.6934670   7.9184970
  99.4534320   4.5657470   8.2872370  98.7107910   3.3507480   7.7732910
 101.3906900   9.6356370  10.1270120 101.3622330  10.0399320   9.2598550
 101.2271870   8.7066730   9.9641720 113.3421720  10.4183470  11.4234290
 113.8181440  10.8966360  12.1023370 113.9628880  10.3500960  10.6979790
  95.5445200   5.4632220   3.8355880  95.6225620   5.5980990   2.8911600
  96.1586880   4.7548110   4.0284000 112.7454970   7.6096320   8.5834300
 112.8718030   7.3708200   7.6651480 112.7876350   6.7780860   9.0556380
 106.6071710  11.3124320   7.1529110 107.1216380  11.2232330   7.9551540
 105.7640790  11.6584020   7.4457020  95.6004720   6.5046390   6.3750340
  95.7635760   6.0351750   5.5569710  96.0657170   5.9969950   7.0399180
  97.1743700   5.8797820   8.5346150  96.7898490   5.2391490   9.1329110
  97.4855890   6.5833940   9.1040880 103.3240840   2.7274360   4.0154770
 103.6910970   2.2532930   4.7616110 103.1345900   3.6015930   4.3563110
 101.1140210   1.7683000   6.3338980 100.8097280   2.6474980   6.5589340
 102.0686670   1.8282790   6.3696420 110.4009980   4.9709350   2.7232220
 111.1209100   5.4664640   2.3328330 110.1991800   4.2927240   2.0786090
 105.7828780   5.0418410   8.6101220 105.7166090   4.1214080   8.3558810
 105.1533920   5.1393850   9.3245860  97.1703940   2.6085740   7.4810340
  96.8118880   3.2739590   8.0683680  96.8758500   1.7769290   7.8522960
 100.3717060   3.0669980  10.3649890 100.0717200   3.2127160   9.4677710
 101.1428300   2.5075270  10.2723280 105.7145510   7.8638980   8.3605020
 105.7290050   6.9319940   8.1423930 105.0070610   7.9498740   8.9994790
 111.9256720   4.5046320   7.7073600 111.2004910   5.0975100   7.5102990
 112.4532180   4.4969860   6.9086970 105.1479410   9.5056550   5.4545520
 105.7921630   9.7115930   6.1318940 105.5108850   8.7444950   5.0016370
 106.4211490   7.5088900   4.1722970 107.0633720   6.8082060   4.2855140
 106.9460840   8.2887340   3.9919860 108.1949110   8.3083800   7.3759030
 108.5305350   8.8950490   8.0536950 107.2749450   8.1776510   7.6056820
  96.0325100  10.0859240   9.1448970  96.1416220   9.1453980   9.0044360
  95.3805660  10.3513990   8.4962700 104.0237690   8.3575130  10.5447090
 103.7034560   7.6384370  11.0892780 103.3496050   9.0330200  10.6183150
 111.7007730   9.8750870   2.0965870 111.8255150  10.6982040   2.5689680
 112.5673290   9.6641600   1.7490020  99.1725260  11.9682080   1.7683000
  99.9087740  11.4197540   2.0391570  99.5566180  12.8338090   1.6288990
  98.1783540  11.1528150  10.9568580  98.9796270  11.4740200  11.3703980
  97.6635360  10.7923730  11.6788490 107.0148170   7.2608020  10.9043990
 106.4086330   7.2839620  10.1639740 106.7102280   6.5291060  11.4411240
 108.4448540  10.9888310   9.5153400 109.3970290  10.9046330   9.4653640
 108.2976760  11.6530020  10.1887190  95.8981350   3.6401610   9.9004630
  96.4020370   3.0608890  10.4720860  95.1588770   3.9241840  10.4381000
 102.9519290   5.0472600   9.4340150 102.1864960   5.6157600   9.3494820
 103.1335250   4.7548810   8.5408380 110.0942640   6.7777930   9.9915170
 110.8352110   7.1153690   9.4882630 109.3315320   6.9469990   9.4384940
  97.9304430   1.7831200  10.7954700  97.9709770   1.4845070  11.7039930
  98.7849930   2.1838810  10.6362220 108.7688300   4.8292760   8.5270380
 109.1829320   4.9837840   9.3760800 107.8339300   4.9547980   8.6896160
 109.2410470   2.1688920  10.5309530 109.8231240   1.4141240  10.4430010
 109.4172240   2.6996360   9.7541010 103.5303530   4.7813240   6.4966310
 103.9491640   5.6245970   6.3242550 102.6112160   4.9185280   6.2673090
 105.8667430   2.5129420   7.8804150 105.9863640   1.9170560   8.6198990
 106.7261430   2.5499110   7.4605450 108.2055330   3.0666610   6.4566660
 107.6790550   3.5909230   5.8531800 108.5486670   3.6994000   7.0876390
 101.3810950  11.0866250   7.6124040 100.8432040  11.8112310   7.2932740
 101.6344910  10.6096590   6.8221380 104.2373160  12.3217460   7.8710690
 104.1631860  13.2252600   8.1783060 103.3352000  12.0029360   7.8432760
  96.1290660  10.5162640   3.9125940  95.6921650  10.6963440   4.7450090
  96.6968340  11.2737260   3.7707660 111.7652840  10.0179640   8.2003250
 111.1654830  10.0772200   7.4567170 111.8946740   9.0784620   8.3300100
 110.4504480   6.7431620   6.2979410 109.6364320   7.1728780   6.5605200
 110.8578680   7.3550030   5.6848460  96.9991020   3.4135440   4.8118160
  97.3664060   3.3262840   5.6914180  96.4301840   2.6501990   4.7125020
 111.7994880   1.8819820   7.8248630 111.5680970   1.6532570   6.9246580
 112.0599430   2.8019370   7.7793520  98.4143100   7.9268130   9.9738310
  98.3712730   7.5561040  10.8552770  98.5454110   8.8645700  10.1140130
 102.1149130   9.4827720   5.5748030 101.8740490   9.7502280   4.6878550
 103.0551770   9.6533450   5.6298890 113.3753290  11.5022100   6.3758670
 112.8811570  11.8990970   5.6585800 112.7666580  10.8771310   6.7695950
  98.2531130  10.8730380   7.0936090  97.6591450  10.7415080   7.8326130
  98.2454970  10.0368520   6.6278190 111.0592740  12.1445520   3.6545410
 110.5995710  12.8961330   3.2803430 110.4305200  11.4251990   3.5960210
  97.8843360   8.2388760   6.0444130  97.1577420   7.6194050   5.9770080
  97.9452510   8.6329370   5.1742210 101.4888460  10.4533760   2.8293540
 102.0053480   9.8421120   2.3041800 102.1385840  10.9562540   3.3204550
 104.2283960  11.3442250   3.6562520 104.5161770  11.0896550   2.7795530
 104.7407180  10.7919610   4.2468090 104.2956320  12.2658350  11.0230720
 105.2223630  12.0302620  11.0666680 104.2806750  13.0930350  10.5416750
 110.8633880  11.4928210  10.8471760 111.6559200  10.9977440  10.6397720
 111.1567030  12.1718350  11.4547370  88.2150050 152.5597070 150.6979220
  88.1344100 151.6451680 150.4270930  87.8014470 153.0564140 149.9918930
  86.3468090 154.3376090 152.5788490  85.5710190 153.8576530 152.8687060
  86.9981020 153.6581740 152.4044650  78.7725870 149.6097790 147.2406640
  77.8842570 149.9513760 147.1386520  79.0567060 149.4098110 146.3487470
  76.7358880 152.2103440 153.1246340  77.3074990 151.4425640 153.1249980
  76.7360420 152.5092200 152.2152950  86.8182250 149.8203660 152.8127580
  87.1947070 148.9475540 152.7001250  86.7201760 150.1562360 151.9218020
  80.9487260 148.1929290 148.2745020  81.0554010 149.0933020 148.5813780
  80.0379620 148.1447260 147.9839670  90.6006370 147.3154100 149.7455920
  91.4215990 146.8250670 149.7881400  90.6340450 147.9051760 150.4987760
  90.8367850 149.2554480 152.5183460  90.1323420 149.5439370 153.0986570
  91.1980010 150.0654590 152.1583020  84.4374310 145.0006450 151.2048660
  84.7449290 144.4453340 150.4884160  83.5075010 145.1350910 151.0221650
  86.8255070 153.0655280 147.9408780  85.8984350 152.9992660 148.1697250
  86.9779890 154.0035410 147.8264020  86.8124150 149.3372280 144.9375940
  85.8727820 149.4986240 145.0228400  87.1307410 150.0557960 144.3911930
  90.8552360 154.6275580 148.4444030  90.2364780 154.2895130 147.7970330
  90.8376810 153.9835340 149.1523220  82.4311710 153.5920020 150.7228510
  82.0268710 152.8797270 150.2274410  82.5174830 153.2473260 151.6116550
  89.0317060 153.8662390 145.4516780  89.4710340 153.0284820 145.3054600
  89.7445480 154.4991790 145.5380920  92.6134200 145.1205200 143.7657820
  92.3006860 145.2132030 144.6656890  93.3746670 145.6986230 143.7155250
  79.1316340 152.4865000 148.2235160  79.0113940 153.2127090 147.6116430
  78.8217230 151.7167910 147.7463070  81.5980000 145.8300070 151.6058830
  81.1548150 146.6109610 151.2743350  82.1564990 146.1529960 152.3129770
  84.7138820 145.4510770 146.4864660  84.0893000 145.4470640 147.2117970
  84.6268940 144.5841730 146.0900630  81.3894220 150.9533640 149.3340080
  81.1635140 150.7370810 150.2386700  80.6086750 151.3862100 148.9886050
  88.6191980 150.9597010 147.9330730  88.0200870 151.6832810 147.7494350
  89.1671590 150.8973790 147.1507180  87.2256850 149.5960550 149.9634010
  87.6186420 149.9132750 149.1502700  87.5873700 148.7172430 150.0778530
  76.2621020 146.1861350 152.1864210  75.9734070 146.7564210 152.8989190
  77.0066780 145.7065800 152.5495440  76.4491250 150.1281470 143.3966930
  76.3665920 151.0712230 143.5381920  76.0974310 149.9856380 142.5179280
  84.2489380 148.8620500 152.4637280  84.2525440 148.4210450 151.6141820
  85.1440500 149.1837830 152.5709100  80.0991760 148.7446990 151.4231490
  79.7591810 149.2222220 152.1798540  79.3369080 148.2912110 151.0632590
  84.3109530 149.8632580 145.4544040  84.4322350 149.8219060 146.4029860
  83.9258040 150.7256730 145.2990770  83.3231030 152.1733720 144.8527340
  82.7547930 151.7251970 144.2263250  84.0320030 152.5326500 144.3192490
  77.4137840 147.6665970 150.3396160  77.1284760 147.3021640 151.1774780
  77.3516700 146.9346430 149.7259300  87.0876430 146.5595230 147.0609530
  86.2741040 146.0608400 146.9854840  86.8938380 147.3993480 146.6445880
  89.8024820 150.9314880 145.3571690  90.6904440 151.2432110 145.1823030
  89.7729910 150.0587130 144.9652270  92.0739090 152.2426720 144.8251550
  91.9902810 152.6740940 143.9747990  92.7933280 152.7025070 145.2578370
  76.9068500 152.8024920 144.2992860  77.7763350 153.0849720 144.5828780
  76.4158820 153.6160790 144.1841670  84.0703310 154.1898130 148.4201140
  84.5266090 155.0003380 148.6461330  83.7191520 153.8721270 149.2519630
  79.9715090 144.5335780 148.8923660  79.8429720 144.5253680 149.8408580
  79.1477110 144.8718870 148.5414670  91.8309830 147.7406150 146.9119370
  91.2022990 147.8451820 146.1977600  91.3361750 147.9602930 147.7013250
  83.7993860 150.0192100 148.3277250  83.0910010 150.4878440 148.7690860
  84.0838340 149.3614110 148.9622440  87.8309290 146.7442760 149.7673040
  87.7077070 146.7628890 148.8182550  88.7793850 146.7921700 149.8871440
  82.0028880 148.3277180 145.7027960  82.8519410 148.7647330 145.6368150
  81.6360150 148.6397440 146.5300020  90.9238660 152.8989940 150.6159530
  89.9828800 152.9140170 150.7907220  91.2382730 152.1125900 151.0619830
  80.9020300 154.5809540 144.1763490  81.6683570 154.4690900 144.7388920
  80.9794990 153.8847510 143.5240260  79.5967060 152.0134610 144.8596380
  79.6770650 151.0662120 144.9713780  80.4886810 152.3441490 144.9657040
  82.9339330 154.5774670 146.1506130  83.3555750 154.4114540 146.9937520
  83.0590170 153.7674900 145.6561270  85.4466970 153.6012280 143.3983230
  85.9672630 152.8861300 143.0324380  86.0935370 154.2398150 143.6983740
  81.8298230 150.6507900 143.0964290  81.6287290 149.7875260 143.4577630
  81.6590280 150.5641260 142.1585890  89.3086540 145.4616130 145.6251170
  89.5888830 144.6184030 145.9810590  88.5352270 145.6939240 146.1389920
  80.6281030 147.7508520 143.0842170  80.9306930 147.7575950 142.1761320
  81.3675620 147.4006380 143.5809830  83.8465960 146.6943140 144.0698370
  83.4987960 146.0167130 143.4900820  84.0478730 146.2332650 144.8841760
  77.1871600 153.2230790 150.4662740  76.5320440 152.9542430 149.8222440
  78.0249550 153.1135270 150.0164720  90.1362040 148.0172080 144.6881230
  90.5546920 147.8303060 143.8477890  89.8298100 147.1651130 144.9984160
  93.6351770 152.9296220 148.3857030  93.2595370 152.1624150 147.9538320
  92.9054890 153.3118920 148.8731960  76.4009680 150.4329720 146.4088070
  75.4973760 150.6959920 146.2339730  76.8850300 150.7040890 145.6288030
  92.9102730 151.1553710 151.6864270  93.4340210 150.6616360 151.0554440
  93.4962150 151.2904070 152.4311840  78.9436890 149.4895260 144.3182450
  79.6528590 149.0678480 143.8329730  78.2276830 149.5570490 143.6865800
  78.5911050 145.5434590 143.3585100  79.3139180 146.0843530 143.6766320
  78.8635570 145.2698010 142.4826640  92.4002700 150.4127060 147.6256680
  92.8961820 150.1797930 148.4105560  92.2018770 149.5738900 147.2094320
  93.8289860 149.0488010 150.1594360  93.7189140 148.8944050 151.0976630
  94.5897450 148.5208950 149.9169770  94.7180130 146.8795930 143.4000500
  95.6429440 146.7477110 143.1918790  94.6955920 146.9588750 144.3536950
  94.7918620 147.6506590 146.0257210  93.9970120 147.5851710 146.5550120
  94.9961900 148.5857230 146.0142560  91.2238550 145.9803470 152.4756040
  91.6646640 145.9248570 151.6277640  90.9546140 146.8961480 152.5466220
  93.0877120 145.6118710 150.4864860  93.0265520 144.6679930 150.3395880
  93.8669150 145.7198800 151.0318320  78.0157890 145.5827850 146.9520670
  78.7737250 145.6956730 146.3784700  77.5535060 146.4197050 146.9064100
  84.5571700 147.6967120 149.9422980  83.7446210 147.3224010 149.6018860
  85.0613340 146.9412200 150.2444170  89.0596680 144.3609570 151.1806050
  89.6626050 144.9329780 151.6554570  88.3189670 144.9249010 150.9579950
  92.2031280 144.7631130 146.4546330  92.3981910 145.6614580 146.7213760
  91.4161150 144.5318210 146.9479280  80.3883040 146.1091900 145.4922640
  80.9175800 145.3221700 145.3630590  81.0211360 146.7883090 145.7258170
  82.5820880 145.8467040 148.5468030  81.9523620 145.1454350 148.7138160
  82.0426020 146.6071170 148.3301190  88.2150050 152.5597070 131.9235730
  88.1344100 151.6451680 131.6527440  87.8014470 153.0564140 131.2175440
  86.3468090 154.3376090 133.8045000  85.5710190 153.8576530 134.0943570
  86.9981020 153.6581740 133.6301160  80.3633920 154.6495900 134.6820760
  79.5318800 154.3944610 135.0817270  80.9714900 154.7206670 135.4178680
  78.7725870 149.6097790 128.4663150  77.8842570 149.9513760 128.3643030
  79.0567060 149.4098110 127.5743980  76.7358880 152.2103440 134.3502850
  77.3074990 151.4425640 134.3506490  76.7360420 152.5092200 133.4409460
  77.9783750 147.6187800 136.1371780  77.7986590 146.7213550 136.4174540
  77.5763830 148.1659670 136.8118730  86.8182250 149.8203660 134.0384090
  87.1947070 148.9475540 133.9257760  86.7201760 150.1562360 133.1474530
  80.9487260 148.1929290 129.5001530  81.0554010 149.0933020 129.8070290
  80.0379620 148.1447260 129.2096180  90.6006370 147.3154100 130.9712430
  91.4215990 146.8250670 131.0137910  90.6340450 147.9051760 131.7244270
  78.5970420 150.1148300 134.7454120  79.2780530 150.3786670 135.3641520
  78.2818470 149.2749170 135.0792130  82.7894990 151.1615660 133.8326710
  83.2973210 151.6596630 134.4731730  83.3208230 150.3850860 133.6566070
  94.8905920 149.3320850 137.5356060  94.1858090 149.7202560 137.0171170
  95.1563840 150.0271140 138.1376990  81.0731090 145.8014220 138.0990130
  81.0749530 146.3186610 137.2936030  80.2435400 145.3244400 138.0760060
  90.8367850 149.2554480 133.7439970  90.1323420 149.5439370 134.3243080
  91.1980010 150.0654590 133.3839530  80.7546420 147.5124180 136.1060580
  81.0963230 148.3566230 135.8114450  79.8162230 147.6607920 136.2225920
  93.9054770 148.7009270 134.1349180  92.9579680 148.7348250 134.2664610
  94.2304760 149.5148220 134.5198540  84.4374310 145.0006450 132.4305170
  84.7449290 144.4453340 131.7140670  83.5075010 145.1350910 132.2478160
  86.8255070 153.0655280 129.1665290  85.8984350 152.9992660 129.3953760
  86.9779890 154.0035410 129.0520530  86.8124150 149.3372280 126.1632450
  85.8727820 149.4986240 126.2484910  87.1307410 150.0557960 125.6168440
  93.3336910 154.0190800 136.1411480  92.5055540 154.0883890 135.6661610
  93.9287390 154.6045110 135.6727310  90.8552360 154.6275580 129.6700540
  90.2364780 154.2895130 129.0226840  90.8376810 153.9835340 130.3779730
  90.2978920 150.8060120 137.0866350  89.8850100 151.6313830 137.3406340
  89.5654870 150.2205160 136.8942710  82.4311710 153.5920020 131.9485020
  82.0268710 152.8797270 131.4530920  82.5174830 153.2473260 132.8373060
  81.1440330 150.3663230 135.7284060  81.6954920 150.4758570 134.9537310
  81.6583840 150.7400830 136.4439290  89.0317060 153.8662390 126.6773290
  89.4710340 153.0284820 126.5311110  89.7445480 154.4991790 126.7637430
  80.8183060 153.8882590 139.3389400  80.6790830 154.7605390 139.7076800
  79.9364420 153.5455400 139.1937340  92.6134200 145.1205200 124.9914330
  92.3006860 145.2132030 125.8913400  93.3746670 145.6986230 124.9411760
  79.1316340 152.4865000 129.4491670  79.0113940 153.2127090 128.8372940
  78.8217230 151.7167910 128.9719580  93.8235490 149.8576700 140.9688470
  93.2079760 150.3656370 140.4403930  93.5031910 148.9575030 140.9114410
  81.5980000 145.8300070 132.8315340  81.1548150 146.6109610 132.4999860
  82.1564990 146.1529960 133.5386280  85.8849810 148.6968590 138.4350660
  85.4229180 148.9051610 139.2470600  85.4827920 147.8827940 138.1321330
  90.8854320 149.9177540 139.5647320  90.0347910 149.6183290 139.8856390
  90.7256110 150.1619550 138.6531140  87.9804030 151.4179290 141.6646110
  88.3057440 150.5843040 141.3248340  88.7684360 151.9407810 141.8124440
  84.7138820 145.4510770 127.7121170  84.0893000 145.4470640 128.4374480
  84.6268940 144.5841730 127.3157140  83.6355900 146.3747400 134.6904940
  83.9328230 147.2810230 134.6096960  84.1841460 145.8866180 134.0764510
  81.3894220 150.9533640 130.5596590  81.1635140 150.7370810 131.4643210
  80.6086750 151.3862100 130.2142560  88.6191980 150.9597010 129.1587240
  88.0200870 151.6832810 128.9750860  89.1671590 150.8973790 128.3763690
  83.8293430 151.8519220 141.2256860  83.7337030 150.9113950 141.0757260
  84.6725410 152.0734290 140.8304930  87.2256850 149.5960550 131.1890520
  87.6186420 149.9132750 130.3759210  87.5873700 148.7172430 131.3035040
  78.9603970 148.2632890 139.3790640  78.5667360 149.1108100 139.5863420
  78.2722370 147.6259260 139.5699280  85.5349020 148.3467860 142.4487380
  84.8447340 148.1540060 143.0833470  86.2781320 148.6302500 142.9811680
  76.2621020 146.1861350 133.4120720  75.9734070 146.7564210 134.1245700
  77.0066780 145.7065800 133.7751950  76.4491250 150.1281470 124.6223440
  76.3665920 151.0712230 124.7638430  76.0974310 149.9856380 123.7435790
  87.8111990 152.1866300 135.2841300  87.0793110 152.6953110 135.6331400
  87.4136330 151.3696280 134.9830080  84.2489380 148.8620500 133.6893790
  84.2525440 148.4210450 132.8398330  85.1440500 149.1837830 133.7965610
  80.0991760 148.7446990 132.6488000  79.7591810 149.2222220 133.4055050
  79.3369080 148.2912110 132.2889100  84.3109530 149.8632580 126.6800550
  84.4322350 149.8219060 127.6286370  83.9258040 150.7256730 126.5247280
  88.2737900 147.6399980 134.6964240  88.2910640 148.0908630 135.5406090
  88.0253480 146.7405620 134.9097680  83.3231030 152.1733720 126.0783850
  82.7547930 151.7251970 125.4519760  84.0320030 152.5326500 125.5449000
  91.7008650 145.0532160 140.5350620  92.0254420 144.3221820 141.0608600
  91.7365160 144.7345800 139.6331610  84.5497350 152.9222280 135.4359200
  84.9167480 152.4480850 136.1820540  84.3602410 153.7963850 135.7767540
  77.4137840 147.6665970 131.5652670  77.1284760 147.3021640 132.4031290
  77.3516700 146.9346430 130.9515810  82.3396720 151.9630920 137.7543410
  82.0353790 152.8422900 137.9793770  83.2943180 152.0230710 137.7900850
  87.0876430 146.5595230 128.2866040  86.2741040 146.0608400 128.2111350
  86.8938380 147.3993480 127.8702390  89.8024820 150.9314880 126.5828200
  90.6904440 151.2432110 126.4079540  89.7729910 150.0587130 126.1908780
  78.3960450 152.8033660 138.9014770  78.0375390 153.4687510 139.4888110
  78.1015010 151.9717210 139.2727390  81.5973570 153.2617900 141.7854320
  81.2973710 153.4075080 140.8882140  82.3684810 152.7023190 141.6927710
  92.0739090 152.2426720 126.0508060  91.9902810 152.6740940 125.2004500
  92.7933280 152.7025070 126.4834880  76.9068500 152.8024920 125.5249370
  77.7763350 153.0849720 125.8085290  76.4158820 153.6160790 125.4098180
  84.0703310 154.1898130 129.6457650  84.5266090 155.0003380 129.8717840
  83.7191520 153.8721270 130.4776140  79.9715090 144.5335780 130.1180170
  79.8429720 144.5253680 131.0665090  79.1477110 144.8718870 129.7671180
  76.9709020 146.2926900 139.5786870  76.2567540 146.4923820 140.1839480
  77.3904060 145.5166470 139.9501670  88.4647800 148.7849210 137.3288320
  88.8328620 147.9644420 137.6567890  87.6046000 148.8451100 137.7443970
  91.8309830 147.7406150 128.1375880  91.2022990 147.8451820 127.4234110
  91.3361750 147.9602930 128.9269760  83.7993860 150.0192100 129.5533760
  83.0910010 150.4878440 129.9947370  84.0838340 149.3614110 130.1878950
  85.4249790 151.4388800 137.5526290  85.9235040 151.9134620 138.2178140
  85.5672740 150.5152320 137.7596320  87.8309290 146.7442760 130.9929550
  87.7077070 146.7628890 130.0439060  88.7793850 146.7921700 131.1127950
  82.0028880 148.3277180 126.9284470  82.8519410 148.7647330 126.8624660
  81.6360150 148.6397440 127.7556530  92.6316650 147.6556760 138.3954680
  92.1290250 148.3962160 138.7348490  93.4473310 148.0440760 138.0791470
  90.9238660 152.8989940 131.8416040  89.9828800 152.9140170 132.0163730
  91.2382730 152.1125900 132.2876340  80.9020300 154.5809540 125.4020000
  81.6683570 154.4690900 125.9645430  80.9794990 153.8847510 124.7496770
  79.5967060 152.0134610 126.0852890  79.6770650 151.0662120 126.1970290
  80.4886810 152.3441490 126.1913550  77.1237860 153.8349530 141.3209060
  77.6276880 153.2556810 141.8925290  76.3845280 154.1189760 141.8585430
  79.1560940 151.9779120 142.2159130  79.1966280 151.6792990 143.1244360
  80.0106440 152.3786730 142.0566650  82.9339330 154.5774670 127.3762640
  83.3555750 154.4114540 128.2194030  83.0590170 153.7674900 126.8817780
  81.0966750 150.5571220 140.1833620  80.5663210 150.0662170 139.5556960
  81.7654820 150.9855420 139.6491550  85.4466970 153.6012280 124.6239740
  85.9672630 152.8861300 124.2580890  86.0935370 154.2398150 124.9240250
  90.4666980 152.3636840 141.9513960  91.0487750 151.6089160 141.8634440
  90.6428750 152.8944280 141.1745440  81.5839050 147.5233590 140.2630910
  81.4895920 146.9054340 139.5381780  81.0036440 148.2499880 140.0360820
  84.3500490 146.0806830 137.2958300  83.9017790 146.1031090 136.4503850
  83.7165690 145.6825850 137.8928600  87.0923940 152.7077340 139.3008580
  87.2120150 152.1118480 140.0403420  87.9517940 152.7447030 138.8809880
  89.4311840 153.2614530 137.8771090  88.9047060 153.7857150 137.2736230
  89.7743180 153.8941920 138.5080820  81.8298230 150.6507900 124.3220800
  81.6287290 149.7875260 124.6834140  81.6590280 150.5641260 123.3842400
  83.8592710 149.2498690 140.5584400  84.4492400 148.9414540 141.2462220
  83.0412950 148.7778440 140.7144300  88.6786140 148.8664500 140.7917420
  87.9901660 148.2046040 140.7267410  89.3992160 148.4202770 141.2365880
  89.3086540 145.4616130 126.8507680  89.5888830 144.6184030 127.2067100
  88.5352270 145.6939240 127.3646430  80.6281030 147.7508520 124.3098680
  80.9306930 147.7575950 123.4017830  81.3675620 147.4006380 124.8066340
  83.8465960 146.6943140 125.2954880  83.4987960 146.0167130 124.7157330
  84.0478730 146.2332650 126.1098270  77.1871600 153.2230790 131.6919250
  76.5320440 152.9542430 131.0478950  78.0249550 153.1135270 131.2421230
  90.1362040 148.0172080 125.9137740  90.5546920 147.8303060 125.0734400
  89.8298100 147.1651130 126.2240670  93.6351770 152.9296220 129.6113540
  93.2595370 152.1624150 129.1794830  92.9054890 153.3118920 130.0988470
  78.2247530 153.6083360 136.2322590  78.5920570 153.5210760 137.1118610
  77.6558350 152.8449910 136.1329450  93.0251390 152.0767740 139.2453060
  92.7937480 151.8480490 138.3451010  93.2855940 152.9967290 139.1997950
  77.7763530 150.5192450 140.1381010  76.8819580 150.4859210 140.4774720
  78.3161080 150.7179240 140.9032260  91.4639460 147.3024170 142.0232760
  92.3409640 147.3107570 142.4066760  91.4760300 146.5655010 141.4125110
  76.4009680 150.4329720 127.6344580  75.4973760 150.6959920 127.4596240
  76.8850300 150.7040890 126.8544540  92.9102730 151.1553710 132.9120780
  93.4340210 150.6616360 132.2810950  93.4962150 151.2904070 133.6568350
  93.0892450 151.2393580 136.4340330  92.1395160 151.2057120 136.5485320
  93.2705460 152.1493690 136.1990100  78.9436890 149.4895260 125.5438960
  79.6528590 149.0678480 125.0586240  78.2276830 149.5570490 124.9122310
  78.5911050 145.5434590 124.5841610  79.3139180 146.0843530 124.9022830
  78.8635570 145.2698010 123.7083150  92.4002700 150.4127060 128.8513190
  92.8961820 150.1797930 129.6362070  92.2018770 149.5738900 128.4350830
  78.2803240 144.7940780 134.4864230  78.9279430 144.2438160 134.0459390
  78.7005080 145.0483930 135.3080040  93.8289860 149.0488010 131.3850870
  93.7189140 148.8944050 132.3233140  94.5897450 148.5208950 131.1426280
  92.1755580 144.9882140 137.8433870  92.8127800 145.6016280 138.2093060
  92.3230470 145.0242800 136.8983100  94.7180130 146.8795930 124.6257010
  95.6429440 146.7477110 124.4175300  94.6955920 146.9588750 125.5793460
  94.7918620 147.6506590 127.2513720  93.9970120 147.5851710 127.7806630
  94.9961900 148.5857230 127.2399070  78.0335240 144.9496450 137.2289550
  77.6850060 145.4060270 137.9947730  77.7022940 144.0553580 137.3111980
  85.5460060 146.1408330 140.7508970  85.4848950 146.7330160 141.5004380
  86.4860440 146.0334290 140.6059230  88.1834620 145.7978390 140.3901260
  88.7975030 146.1157680 139.7282340  88.7284180 145.3126980 141.0097120
  78.7055880 144.4772650 140.5040320  79.2538870 144.2960700 139.7406430
  78.7711190 143.6866760 141.0396630  88.9242660 144.3610530 136.7170550
  88.0502500 144.6945640 136.5143480  88.8153410 143.8883710 137.5422420
  89.8314640 146.5681400 138.1012270  89.5028000 145.7533160 137.7214000
  90.7796940 146.5251210 137.9777960  86.6717480 145.2780370 135.6563460
  85.8889270 145.7525870 135.9360220  86.3780410 144.3735200 135.5476640
  91.2238550 145.9803470 133.7012550  91.6646640 145.9248570 132.8534150
  90.9546140 146.8961480 133.7722730  93.0877120 145.6118710 131.7121370
  93.0265520 144.6679930 131.5652390  93.8669150 145.7198800 132.2574830
  78.0157890 145.5827850 128.1777180  78.7737250 145.6956730 127.6041210
  77.5535060 146.4197050 128.1320610  84.5571700 147.6967120 131.1679490
  83.7446210 147.3224010 130.8275370  85.0613340 146.9412200 131.4700680
  89.0596680 144.3609570 132.4062560  89.6626050 144.9329780 132.8811080
  88.3189670 144.9249010 132.1836460  92.2031280 144.7631130 127.6802840
  92.3981910 145.6614580 127.9470270  91.4161150 144.5318210 128.1735790
  80.3883040 146.1091900 126.7179150  80.9175800 145.3221700 126.5887100
  81.0211360 146.7883090 126.9514680  82.5820880 145.8467040 129.7724540
  81.9523620 145.1454350 129.9394670  82.0426020 146.6071170 129.5557700
  82.7076440 145.1251020 142.2077030  82.4260710 145.6284620 141.4437850
  83.0896140 144.3272770 141.8419160  89.3091900 144.5404600 142.7857500
  89.1957350 144.8599210 143.6809020  90.1261640 144.9417110 142.4894780
  88.2150050 152.5597070 113.1492240  88.1344100 151.6451680 112.8783950
  87.8014470 153.0564140 112.4431950  86.3468090 154.3376090 115.0301510
  85.5710190 153.8576530 115.3200080  86.9981020 153.6581740 114.8557670
  80.3633920 154.6495900 115.9077270  79.5318800 154.3944610 116.3073780
  80.9714900 154.7206670 116.6435190  78.7725870 149.6097790 109.6919660
  77.8842570 149.9513760 109.5899540  79.0567060 149.4098110 108.8000490
  76.7358880 152.2103440 115.5759360  77.3074990 151.4425640 115.5763000
  76.7360420 152.5092200 114.6665970  77.9783750 147.6187800 117.3628290
  77.7986590 146.7213550 117.6431050  77.5763830 148.1659670 118.0375240
  86.8182250 149.8203660 115.2640600  87.1947070 148.9475540 115.1514270
  86.7201760 150.1562360 114.3731040  80.9487260 148.1929290 110.7258040
  81.0554010 149.0933020 111.0326800  80.0379620 148.1447260 110.4352690
  90.6006370 147.3154100 112.1968940  91.4215990 146.8250670 112.2394420
  90.6340450 147.9051760 112.9500780  78.5970420 150.1148300 115.9710630
  79.2780530 150.3786670 116.5898030  78.2818470 149.2749170 116.3048640
  82.7894990 151.1615660 115.0583220  83.2973210 151.6596630 115.6988240
  83.3208230 150.3850860 114.8822580  94.8905920 149.3320850 118.7612570
  94.1858090 149.7202560 118.2427680  95.1563840 150.0271140 119.3633500
  81.0731090 145.8014220 119.3246640  81.0749530 146.3186610 118.5192540
  80.2435400 145.3244400 119.3016570  90.8367850 149.2554480 114.9696480
  90.1323420 149.5439370 115.5499590  91.1980010 150.0654590 114.6096040
  80.7546420 147.5124180 117.3317090  81.0963230 148.3566230 117.0370960
  79.8162230 147.6607920 117.4482430  93.9054770 148.7009270 115.3605690
  92.9579680 148.7348250 115.4921120  94.2304760 149.5148220 115.7455050
  84.4374310 145.0006450 113.6561680  84.7449290 144.4453340 112.9397180
  83.5075010 145.1350910 113.4734670  86.8255070 153.0655280 110.3921800
  85.8984350 152.9992660 110.6210270  86.9779890 154.0035410 110.2777040
  86.8124150 149.3372280 107.3888960  85.8727820 149.4986240 107.4741420
  87.1307410 150.0557960 106.8424950  93.3336910 154.0190800 117.3667990
  92.5055540 154.0883890 116.8918120  93.9287390 154.6045110 116.8983820
  90.8552360 154.6275580 110.8957050  90.2364780 154.2895130 110.2483350
  90.8376810 153.9835340 111.6036240  90.2978920 150.8060120 118.3122860
  89.8850100 151.6313830 118.5662850  89.5654870 150.2205160 118.1199220
  82.4311710 153.5920020 113.1741530  82.0268710 152.8797270 112.6787430
  82.5174830 153.2473260 114.0629570  81.1440330 150.3663230 116.9540570
  81.6954920 150.4758570 116.1793820  81.6583840 150.7400830 117.6695800
  89.0317060 153.8662390 107.9029800  89.4710340 153.0284820 107.7567620
  89.7445480 154.4991790 107.9893940  80.8183060 153.8882590 120.5645910
  80.6790830 154.7605390 120.9333310  79.9364420 153.5455400 120.4193850
  92.6134200 145.1205200 106.2170840  92.3006860 145.2132030 107.1169910
  93.3746670 145.6986230 106.1668270  79.1316340 152.4865000 110.6748180
  79.0113940 153.2127090 110.0629450  78.8217230 151.7167910 110.1976090
  93.8235490 149.8576700 122.1944980  93.2079760 150.3656370 121.6660440
  93.5031910 148.9575030 122.1370920  81.5980000 145.8300070 114.0571850
  81.1548150 146.6109610 113.7256370  82.1564990 146.1529960 114.7642790
  85.8849810 148.6968590 119.6607170  85.4229180 148.9051610 120.4727110
  85.4827920 147.8827940 119.3577840  90.8854320 149.9177540 120.7903830
  90.0347910 149.6183290 121.1112900  90.7256110 150.1619550 119.8787650
  87.9804030 151.4179290 122.8902620  88.3057440 150.5843040 122.5504850
  88.7684360 151.9407810 123.0380950  84.7138820 145.4510770 108.9377680
  84.0893000 145.4470640 109.6630990  84.6268940 144.5841730 108.5413650
  83.6355900 146.3747400 115.9161450  83.9328230 147.2810230 115.8353470
  84.1841460 145.8866180 115.3021020  81.3894220 150.9533640 111.7853100
  81.1635140 150.7370810 112.6899720  80.6086750 151.3862100 111.4399070
  88.6191980 150.9597010 110.3843750  88.0200870 151.6832810 110.2007370
  89.1671590 150.8973790 109.6020200  83.8293430 151.8519220 122.4513370
  83.7337030 150.9113950 122.3013770  84.6725410 152.0734290 122.0561440
  87.2256850 149.5960550 112.4147030  87.6186420 149.9132750 111.6015720
  87.5873700 148.7172430 112.5291550  78.9603970 148.2632890 120.6047150
  78.5667360 149.1108100 120.8119930  78.2722370 147.6259260 120.7955790
  85.5349020 148.3467860 123.6743890  84.8447340 148.1540060 124.3089980
  86.2781320 148.6302500 124.2068190  76.2621020 146.1861350 114.6377230
  75.9734070 146.7564210 115.3502210  77.0066780 145.7065800 115.0008460
  76.4491250 150.1281470 105.8479950  76.3665920 151.0712230 105.9894940
  76.0974310 149.9856380 104.9692300  87.8111990 152.1866300 116.5097810
  87.0793110 152.6953110 116.8587910  87.4136330 151.3696280 116.2086590
  84.2489380 148.8620500 114.9150300  84.2525440 148.4210450 114.0654840
  85.1440500 149.1837830 115.0222120  80.0991760 148.7446990 113.8744510
  79.7591810 149.2222220 114.6311560  79.3369080 148.2912110 113.5145610
  84.3109530 149.8632580 107.9057060  84.4322350 149.8219060 108.8542880
  83.9258040 150.7256730 107.7503790  88.2737900 147.6399980 115.9220750
  88.2910640 148.0908630 116.7662600  88.0253480 146.7405620 116.1354190
  83.3231030 152.1733720 107.3040360  82.7547930 151.7251970 106.6776270
  84.0320030 152.5326500 106.7705510  91.7008650 145.0532160 121.7607130
  92.0254420 144.3221820 122.2865110  91.7365160 144.7345800 120.8588120
  84.5497350 152.9222280 116.6615710  84.9167480 152.4480850 117.4077050
  84.3602410 153.7963850 117.0024050  77.4137840 147.6665970 112.7909180
  77.1284760 147.3021640 113.6287800  77.3516700 146.9346430 112.1772320
  82.3396720 151.9630920 118.9799920  82.0353790 152.8422900 119.2050280
  83.2943180 152.0230710 119.0157360  87.0876430 146.5595230 109.5122550
  86.2741040 146.0608400 109.4367860  86.8938380 147.3993480 109.0958900
  89.8024820 150.9314880 107.8084710  90.6904440 151.2432110 107.6336050
  89.7729910 150.0587130 107.4165290  78.3960450 152.8033660 120.1271280
  78.0375390 153.4687510 120.7144620  78.1015010 151.9717210 120.4983900
  81.5973570 153.2617900 123.0110830  81.2973710 153.4075080 122.1138650
  82.3684810 152.7023190 122.9184220  92.0739090 152.2426720 107.2764570
  91.9902810 152.6740940 106.4261010  92.7933280 152.7025070 107.7091390
  76.9068500 152.8024920 106.7505880  77.7763350 153.0849720 107.0341800
  76.4158820 153.6160790 106.6354690  84.0703310 154.1898130 110.8714160
  84.5266090 155.0003380 111.0974350  83.7191520 153.8721270 111.7032650
  79.9715090 144.5335780 111.3436680  79.8429720 144.5253680 112.2921600
  79.1477110 144.8718870 110.9927690  76.9709020 146.2926900 120.8043380
  76.2567540 146.4923820 121.4095990  77.3904060 145.5166470 121.1758180
  88.4647800 148.7849210 118.5544830  88.8328620 147.9644420 118.8824400
  87.6046000 148.8451100 118.9700480  91.8309830 147.7406150 109.3632390
  91.2022990 147.8451820 108.6490620  91.3361750 147.9602930 110.1526270
  83.7993860 150.0192100 110.7790270  83.0910010 150.4878440 111.2203880
  84.0838340 149.3614110 111.4135460  85.4249790 151.4388800 118.7782800
  85.9235040 151.9134620 119.4434650  85.5672740 150.5152320 118.9852830
  87.8309290 146.7442760 112.2186060  87.7077070 146.7628890 111.2695570
  88.7793850 146.7921700 112.3384460  82.0028880 148.3277180 108.1540980
  82.8519410 148.7647330 108.0881170  81.6360150 148.6397440 108.9813040
  92.6316650 147.6556760 119.6211190  92.1290250 148.3962160 119.9605000
  93.4473310 148.0440760 119.3047980  90.9238660 152.8989940 113.0672550
  89.9828800 152.9140170 113.2420240  91.2382730 152.1125900 113.5132850
  80.9020300 154.5809540 106.6276510  81.6683570 154.4690900 107.1901940
  80.9794990 153.8847510 105.9753280  79.5967060 152.0134610 107.3109400
  79.6770650 151.0662120 107.4226800  80.4886810 152.3441490 107.4170060
  77.1237860 153.8349530 122.5465570  77.6276880 153.2556810 123.1181800
  76.3845280 154.1189760 123.0841940  79.1560940 151.9779120 123.4415640
  79.1966280 151.6792990 124.3500870  80.0106440 152.3786730 123.2823160
  82.9339330 154.5774670 108.6019150  83.3555750 154.4114540 109.4450540
  83.0590170 153.7674900 108.1074290  81.0966750 150.5571220 121.4090130
  80.5663210 150.0662170 120.7813470  81.7654820 150.9855420 120.8748060
  85.4466970 153.6012280 105.8496250  85.9672630 152.8861300 105.4837400
  86.0935370 154.2398150 106.1496760  90.4666980 152.3636840 123.1770470
  91.0487750 151.6089160 123.0890950  90.6428750 152.8944280 122.4001950
  81.5839050 147.5233590 121.4887420  81.4895920 146.9054340 120.7638290
  81.0036440 148.2499880 121.2617330  84.3500490 146.0806830 118.5214810
  83.9017790 146.1031090 117.6760360  83.7165690 145.6825850 119.1185110
  87.0923940 152.7077340 120.5265090  87.2120150 152.1118480 121.2659930
  87.9517940 152.7447030 120.1066390  89.4311840 153.2614530 119.1027600
  88.9047060 153.7857150 118.4992740  89.7743180 153.8941920 119.7337330
  81.8298230 150.6507900 105.5477310  81.6287290 149.7875260 105.9090650
  81.6590280 150.5641260 104.6098910  83.8592710 149.2498690 121.7840910
  84.4492400 148.9414540 122.4718730  83.0412950 148.7778440 121.9400810
  88.6786140 148.8664500 122.0173930  87.9901660 148.2046040 121.9523920
  89.3992160 148.4202770 122.4622390  89.3086540 145.4616130 108.0764190
  89.5888830 144.6184030 108.4323610  88.5352270 145.6939240 108.5902940
  80.6281030 147.7508520 105.5355190  80.9306930 147.7575950 104.6274340
  81.3675620 147.4006380 106.0322850  83.8465960 146.6943140 106.5211390
  83.4987960 146.0167130 105.9413840  84.0478730 146.2332650 107.3354780
  77.1871600 153.2230790 112.9175760  76.5320440 152.9542430 112.2735460
  78.0249550 153.1135270 112.4677740  90.1362040 148.0172080 107.1394250
  90.5546920 147.8303060 106.2990910  89.8298100 147.1651130 107.4497180
  93.6351770 152.9296220 110.8370050  93.2595370 152.1624150 110.4051340
  92.9054890 153.3118920 111.3244980  78.2247530 153.6083360 117.4579100
  78.5920570 153.5210760 118.3375120  77.6558350 152.8449910 117.3585960
  93.0251390 152.0767740 120.4709570  92.7937480 151.8480490 119.5707520
  93.2855940 152.9967290 120.4254460  77.7763530 150.5192450 121.3637520
  76.8819580 150.4859210 121.7031230  78.3161080 150.7179240 122.1288770
  91.4639460 147.3024170 123.2489270  92.3409640 147.3107570 123.6323270
  91.4760300 146.5655010 122.6381620  76.4009680 150.4329720 108.8601090
  75.4973760 150.6959920 108.6852750  76.8850300 150.7040890 108.0801050
  92.9102730 151.1553710 114.1377290  93.4340210 150.6616360 113.5067460
  93.4962150 151.2904070 114.8824860  93.0892450 151.2393580 117.6596840
  92.1395160 151.2057120 117.7741830  93.2705460 152.1493690 117.4246610
  78.9436890 149.4895260 106.7695470  79.6528590 149.0678480 106.2842750
  78.2276830 149.5570490 106.1378820  78.5911050 145.5434590 105.8098120
  79.3139180 146.0843530 106.1279340  78.8635570 145.2698010 104.9339660
  92.4002700 150.4127060 110.0769700  92.8961820 150.1797930 110.8618580
  92.2018770 149.5738900 109.6607340  78.2803240 144.7940780 115.7120740
  78.9279430 144.2438160 115.2715900  78.7005080 145.0483930 116.5336550
  93.8289860 149.0488010 112.6107380  93.7189140 148.8944050 113.5489650
  94.5897450 148.5208950 112.3682790  92.1755580 144.9882140 119.0690380
  92.8127800 145.6016280 119.4349570  92.3230470 145.0242800 118.1239610
  94.7180130 146.8795930 105.8513520  95.6429440 146.7477110 105.6431810
  94.6955920 146.9588750 106.8049970  94.7918620 147.6506590 108.4770230
  93.9970120 147.5851710 109.0063140  94.9961900 148.5857230 108.4655580
  78.0335240 144.9496450 118.4546060  77.6850060 145.4060270 119.2204240
  77.7022940 144.0553580 118.5368490  85.5460060 146.1408330 121.9765480
  85.4848950 146.7330160 122.7260890  86.4860440 146.0334290 121.8315740
  88.1834620 145.7978390 121.6157770  88.7975030 146.1157680 120.9538850
  88.7284180 145.3126980 122.2353630  78.7055880 144.4772650 121.7296830
  79.2538870 144.2960700 120.9662940  78.7711190 143.6866760 122.2653140
  88.9242660 144.3610530 117.9427060  88.0502500 144.6945640 117.7399990
  88.8153410 143.8883710 118.7678930  89.8314640 146.5681400 119.3268780
  89.5028000 145.7533160 118.9470510  90.7796940 146.5251210 119.2034470
  86.6717480 145.2780370 116.8819970  85.8889270 145.7525870 117.1616730
  86.3780410 144.3735200 116.7733150  91.2238550 145.9803470 114.9269060
  91.6646640 145.9248570 114.0790660  90.9546140 146.8961480 114.9979240
  93.0877120 145.6118710 112.9377880  93.0265520 144.6679930 112.7908900
  93.8669150 145.7198800 113.4831340  78.0157890 145.5827850 109.4033690
  78.7737250 145.6956730 108.8297720  77.5535060 146.4197050 109.3577120
  84.5571700 147.6967120 112.3936000  83.7446210 147.3224010 112.0531880
  85.0613340 146.9412200 112.6957190  89.0596680 144.3609570 113.6319070
  89.6626050 144.9329780 114.1067590  88.3189670 144.9249010 113.4092970
  92.2031280 144.7631130 108.9059350  92.3981910 145.6614580 109.1726780
  91.4161150 144.5318210 109.3992300  80.3883040 146.1091900 107.9435660
  80.9175800 145.3221700 107.8143610  81.0211360 146.7883090 108.1771190
  82.5820880 145.8467040 110.9981050  81.9523620 145.1454350 111.1651180
  82.0426020 146.6071170 110.7814210  82.7076440 145.1251020 123.4333540
  82.4260710 145.6284620 122.6694360  83.0896140 144.3272770 123.0675670
  89.3091900 144.5404600 124.0114010  89.1957350 144.8599210 124.9065530
  90.1261640 144.9417110 123.7151290  88.2150050 152.5597070  94.3748750
  88.1344100 151.6451680  94.1040460  87.8014470 153.0564140  93.6688460
  86.3468090 154.3376090  96.2558020  85.5710190 153.8576530  96.5456590
  86.9981020 153.6581740  96.0814180  80.3633920 154.6495900  97.1333780
  79.5318800 154.3944610  97.5330290  80.9714900 154.7206670  97.8691700
  78.7725870 149.6097790  90.9176170  77.8842570 149.9513760  90.8156050
  79.0567060 149.4098110  90.0257000  76.7358880 152.2103440  96.8015870
  77.3074990 151.4425640  96.8019510  76.7360420 152.5092200  95.8922480
  77.9783750 147.6187800  98.5884800  77.7986590 146.7213550  98.8687560
  77.5763830 148.1659670  99.2631750  86.8182250 149.8203660  96.4897110
  87.1947070 148.9475540  96.3770780  86.7201760 150.1562360  95.5987550
  80.9487260 148.1929290  91.9514550  81.0554010 149.0933020  92.2583310
  80.0379620 148.1447260  91.6609200  90.6006370 147.3154100  93.4225450
  91.4215990 146.8250670  93.4650930  90.6340450 147.9051760  94.1757290
  78.5970420 150.1148300  97.1967140  79.2780530 150.3786670  97.8154540
  78.2818470 149.2749170  97.5305150  82.7894990 151.1615660  96.2839730
  83.2973210 151.6596630  96.9244750  83.3208230 150.3850860  96.1079090
  94.8905920 149.3320850  99.9869080  94.1858090 149.7202560  99.4684190
  95.1563840 150.0271140 100.5890010  81.0731090 145.8014220 100.5503150
  81.0749530 146.3186610  99.7449050  80.2435400 145.3244400 100.5273080
  90.8367850 149.2554480  96.1952990  90.1323420 149.5439370  96.7756100
  91.1980010 150.0654590  95.8352550  80.7546420 147.5124180  98.5573600
  81.0963230 148.3566230  98.2627470  79.8162230 147.6607920  98.6738940
  93.9054770 148.7009270  96.5862200  92.9579680 148.7348250  96.7177630
  94.2304760 149.5148220  96.9711560  84.4374310 145.0006450  94.8818190
  84.7449290 144.4453340  94.1653690  83.5075010 145.1350910  94.6991180
  86.8255070 153.0655280  91.6178310  85.8984350 152.9992660  91.8466780
  86.9779890 154.0035410  91.5033550  86.8124150 149.3372280  88.6145470
  85.8727820 149.4986240  88.6997930  87.1307410 150.0557960  88.0681460
  93.3336910 154.0190800  98.5924500  92.5055540 154.0883890  98.1174630
  93.9287390 154.6045110  98.1240330  90.8552360 154.6275580  92.1213560
  90.2364780 154.2895130  91.4739860  90.8376810 153.9835340  92.8292750
  90.2978920 150.8060120  99.5379370  89.8850100 151.6313830  99.7919360
  89.5654870 150.2205160  99.3455730  82.4311710 153.5920020  94.3998040
  82.0268710 152.8797270  93.9043940  82.5174830 153.2473260  95.2886080
  81.1440330 150.3663230  98.1797080  81.6954920 150.4758570  97.4050330
  81.6583840 150.7400830  98.8952310  89.0317060 153.8662390  89.1286310
  89.4710340 153.0284820  88.9824130  89.7445480 154.4991790  89.2150450
  80.8183060 153.8882590 101.7902420  80.6790830 154.7605390 102.1589820
  79.9364420 153.5455400 101.6450360  92.6134200 145.1205200  87.4427350
  92.3006860 145.2132030  88.3426420  93.3746670 145.6986230  87.3924780
  79.1316340 152.4865000  91.9004690  79.0113940 153.2127090  91.2885960
  78.8217230 151.7167910  91.4232600  93.8235490 149.8576700 103.4201490
  93.2079760 150.3656370 102.8916950  93.5031910 148.9575030 103.3627430
  81.5980000 145.8300070  95.2828360  81.1548150 146.6109610  94.9512880
  82.1564990 146.1529960  95.9899300  85.8849810 148.6968590 100.8863680
  85.4229180 148.9051610 101.6983620  85.4827920 147.8827940 100.5834350
  90.8854320 149.9177540 102.0160340  90.0347910 149.6183290 102.3369410
  90.7256110 150.1619550 101.1044160  87.9804030 151.4179290 104.1159130
  88.3057440 150.5843040 103.7761360  88.7684360 151.9407810 104.2637460
  84.7138820 145.4510770  90.1634190  84.0893000 145.4470640  90.8887500
  84.6268940 144.5841730  89.7670160  83.6355900 146.3747400  97.1417960
  83.9328230 147.2810230  97.0609980  84.1841460 145.8866180  96.5277530
  81.3894220 150.9533640  93.0109610  81.1635140 150.7370810  93.9156230
  80.6086750 151.3862100  92.6655580  88.6191980 150.9597010  91.6100260
  88.0200870 151.6832810  91.4263880  89.1671590 150.8973790  90.8276710
  83.8293430 151.8519220 103.6769880  83.7337030 150.9113950 103.5270280
  84.6725410 152.0734290 103.2817950  87.2256850 149.5960550  93.6403540
  87.6186420 149.9132750  92.8272230  87.5873700 148.7172430  93.7548060
  78.9603970 148.2632890 101.8303660  78.5667360 149.1108100 102.0376440
  78.2722370 147.6259260 102.0212300  85.5349020 148.3467860 104.9000400
  84.8447340 148.1540060 105.5346490  86.2781320 148.6302500 105.4324700
  76.2621020 146.1861350  95.8633740  75.9734070 146.7564210  96.5758720
  77.0066780 145.7065800  96.2264970  76.4491250 150.1281470  87.0736460
  76.3665920 151.0712230  87.2151450  76.0974310 149.9856380  86.1948810
  87.8111990 152.1866300  97.7354320  87.0793110 152.6953110  98.0844420
  87.4136330 151.3696280  97.4343100  84.2489380 148.8620500  96.1406810
  84.2525440 148.4210450  95.2911350  85.1440500 149.1837830  96.2478630
  80.0991760 148.7446990  95.1001020  79.7591810 149.2222220  95.8568070
  79.3369080 148.2912110  94.7402120  84.3109530 149.8632580  89.1313570
  84.4322350 149.8219060  90.0799390  83.9258040 150.7256730  88.9760300
  88.2737900 147.6399980  97.1477260  88.2910640 148.0908630  97.9919110
  88.0253480 146.7405620  97.3610700  83.3231030 152.1733720  88.5296870
  82.7547930 151.7251970  87.9032780  84.0320030 152.5326500  87.9962020
  91.7008650 145.0532160 102.9863640  92.0254420 144.3221820 103.5121620
  91.7365160 144.7345800 102.0844630  84.5497350 152.9222280  97.8872220
  84.9167480 152.4480850  98.6333560  84.3602410 153.7963850  98.2280560
  77.4137840 147.6665970  94.0165690  77.1284760 147.3021640  94.8544310
  77.3516700 146.9346430  93.4028830  82.3396720 151.9630920 100.2056430
  82.0353790 152.8422900 100.4306790  83.2943180 152.0230710 100.2413870
  87.0876430 146.5595230  90.7379060  86.2741040 146.0608400  90.6624370
  86.8938380 147.3993480  90.3215410  89.8024820 150.9314880  89.0341220
  90.6904440 151.2432110  88.8592560  89.7729910 150.0587130  88.6421800
  78.3960450 152.8033660 101.3527790  78.0375390 153.4687510 101.9401130
  78.1015010 151.9717210 101.7240410  81.5973570 153.2617900 104.2367340
  81.2973710 153.4075080 103.3395160  82.3684810 152.7023190 104.1440730
  92.0739090 152.2426720  88.5021080  91.9902810 152.6740940  87.6517520
  92.7933280 152.7025070  88.9347900  76.9068500 152.8024920  87.9762390
  77.7763350 153.0849720  88.2598310  76.4158820 153.6160790  87.8611200
  84.0703310 154.1898130  92.0970670  84.5266090 155.0003380  92.3230860
  83.7191520 153.8721270  92.9289160  79.9715090 144.5335780  92.5693190
  79.8429720 144.5253680  93.5178110  79.1477110 144.8718870  92.2184200
  76.9709020 146.2926900 102.0299890  76.2567540 146.4923820 102.6352500
  77.3904060 145.5166470 102.4014690  88.4647800 148.7849210  99.7801340
  88.8328620 147.9644420 100.1080910  87.6046000 148.8451100 100.1956990
  91.8309830 147.7406150  90.5888900  91.2022990 147.8451820  89.8747130
  91.3361750 147.9602930  91.3782780  83.7993860 150.0192100  92.0046780
  83.0910010 150.4878440  92.4460390  84.0838340 149.3614110  92.6391970
  85.4249790 151.4388800 100.0039310  85.9235040 151.9134620 100.6691160
  85.5672740 150.5152320 100.2109340  87.8309290 146.7442760  93.4442570
  87.7077070 146.7628890  92.4952080  88.7793850 146.7921700  93.5640970
  82.0028880 148.3277180  89.3797490  82.8519410 148.7647330  89.3137680
  81.6360150 148.6397440  90.2069550  92.6316650 147.6556760 100.8467700
  92.1290250 148.3962160 101.1861510  93.4473310 148.0440760 100.5304490
  90.9238660 152.8989940  94.2929060  89.9828800 152.9140170  94.4676750
  91.2382730 152.1125900  94.7389360  80.9020300 154.5809540  87.8533020
  81.6683570 154.4690900  88.4158450  80.9794990 153.8847510  87.2009790
  79.5967060 152.0134610  88.5365910  79.6770650 151.0662120  88.6483310
  80.4886810 152.3441490  88.6426570  77.1237860 153.8349530 103.7722080
  77.6276880 153.2556810 104.3438310  76.3845280 154.1189760 104.3098450
  79.1560940 151.9779120 104.6672150  79.1966280 151.6792990 105.5757380
  80.0106440 152.3786730 104.5079670  82.9339330 154.5774670  89.8275660
  83.3555750 154.4114540  90.6707050  83.0590170 153.7674900  89.3330800
  81.0966750 150.5571220 102.6346640  80.5663210 150.0662170 102.0069980
  81.7654820 150.9855420 102.1004570  85.4466970 153.6012280  87.0752760
  85.9672630 152.8861300  86.7093910  86.0935370 154.2398150  87.3753270
  90.4666980 152.3636840 104.4026980  91.0487750 151.6089160 104.3147460
  90.6428750 152.8944280 103.6258460  81.5839050 147.5233590 102.7143930
  81.4895920 146.9054340 101.9894800  81.0036440 148.2499880 102.4873840
  84.3500490 146.0806830  99.7471320  83.9017790 146.1031090  98.9016870
  83.7165690 145.6825850 100.3441620  87.0923940 152.7077340 101.7521600
  87.2120150 152.1118480 102.4916440  87.9517940 152.7447030 101.3322900
  89.4311840 153.2614530 100.3284110  88.9047060 153.7857150  99.7249250
  89.7743180 153.8941920 100.9593840  81.8298230 150.6507900  86.7733820
  81.6287290 149.7875260  87.1347160  81.6590280 150.5641260  85.8355420
  83.8592710 149.2498690 103.0097420  84.4492400 148.9414540 103.6975240
  83.0412950 148.7778440 103.1657320  88.6786140 148.8664500 103.2430440
  87.9901660 148.2046040 103.1780430  89.3992160 148.4202770 103.6878900
  89.3086540 145.4616130  89.3020700  89.5888830 144.6184030  89.6580120
  88.5352270 145.6939240  89.8159450  80.6281030 147.7508520  86.7611700
  80.9306930 147.7575950  85.8530850  81.3675620 147.4006380  87.2579360
  83.8465960 146.6943140  87.7467900  83.4987960 146.0167130  87.1670350
  84.0478730 146.2332650  88.5611290  77.1871600 153.2230790  94.1432270
  76.5320440 152.9542430  93.4991970  78.0249550 153.1135270  93.6934250
  90.1362040 148.0172080  88.3650760  90.5546920 147.8303060  87.5247420
  89.8298100 147.1651130  88.6753690  93.6351770 152.9296220  92.0626560
  93.2595370 152.1624150  91.6307850  92.9054890 153.3118920  92.5501490
  78.2247530 153.6083360  98.6835610  78.5920570 153.5210760  99.5631630
  77.6558350 152.8449910  98.5842470  93.0251390 152.0767740 101.6966080
  92.7937480 151.8480490 100.7964030  93.2855940 152.9967290 101.6510970
  77.7763530 150.5192450 102.5894030  76.8819580 150.4859210 102.9287740
  78.3161080 150.7179240 103.3545280  91.4639460 147.3024170 104.4745780
  92.3409640 147.3107570 104.8579780  91.4760300 146.5655010 103.8638130
  76.4009680 150.4329720  90.0857600  75.4973760 150.6959920  89.9109260
  76.8850300 150.7040890  89.3057560  92.9102730 151.1553710  95.3633800
  93.4340210 150.6616360  94.7323970  93.4962150 151.2904070  96.1081370
  93.0892450 151.2393580  98.8853350  92.1395160 151.2057120  98.9998340
  93.2705460 152.1493690  98.6503120  78.9436890 149.4895260  87.9951980
  79.6528590 149.0678480  87.5099260  78.2276830 149.5570490  87.3635330
  78.5911050 145.5434590  87.0354630  79.3139180 146.0843530  87.3535850
  78.8635570 145.2698010  86.1596170  92.4002700 150.4127060  91.3026210
  92.8961820 150.1797930  92.0875090  92.2018770 149.5738900  90.8863850
  78.2803240 144.7940780  96.9377250  78.9279430 144.2438160  96.4972410
  78.7005080 145.0483930  97.7593060  93.8289860 149.0488010  93.8363890
  93.7189140 148.8944050  94.7746160  94.5897450 148.5208950  93.5939300
  92.1755580 144.9882140 100.2946890  92.8127800 145.6016280 100.6606080
  92.3230470 145.0242800  99.3496120  94.7180130 146.8795930  87.0770030
  95.6429440 146.7477110  86.8688320  94.6955920 146.9588750  88.0306480
  94.7918620 147.6506590  89.7026740  93.9970120 147.5851710  90.2319650
  94.9961900 148.5857230  89.6912090  78.0335240 144.9496450  99.6802570
  77.6850060 145.4060270 100.4460750  77.7022940 144.0553580  99.7625000
  85.5460060 146.1408330 103.2021990  85.4848950 146.7330160 103.9517400
  86.4860440 146.0334290 103.0572250  88.1834620 145.7978390 102.8414280
  88.7975030 146.1157680 102.1795360  88.7284180 145.3126980 103.4610140
  78.7055880 144.4772650 102.9553340  79.2538870 144.2960700 102.1919450
  78.7711190 143.6866760 103.4909650  88.9242660 144.3610530  99.1683570
  88.0502500 144.6945640  98.9656500  88.8153410 143.8883710  99.9935440
  89.8314640 146.5681400 100.5525290  89.5028000 145.7533160 100.1727020
  90.7796940 146.5251210 100.4290980  86.6717480 145.2780370  98.1076480
  85.8889270 145.7525870  98.3873240  86.3780410 144.3735200  97.9989660
  91.2238550 145.9803470  96.1525570  91.6646640 145.9248570  95.3047170
  90.9546140 146.8961480  96.2235750  93.0877120 145.6118710  94.1634390
  93.0265520 144.6679930  94.0165410  93.8669150 145.7198800  94.7087850
  78.0157890 145.5827850  90.6290200  78.7737250 145.6956730  90.0554230
  77.5535060 146.4197050  90.5833630  84.5571700 147.6967120  93.6192510
  83.7446210 147.3224010  93.2788390  85.0613340 146.9412200  93.9213700
  89.0596680 144.3609570  94.8575580  89.6626050 144.9329780  95.3324100
  88.3189670 144.9249010  94.6349480  92.2031280 144.7631130  90.1315860
  92.3981910 145.6614580  90.3983290  91.4161150 144.5318210  90.6248810
  80.3883040 146.1091900  89.1692170  80.9175800 145.3221700  89.0400120
  81.0211360 146.7883090  89.4027700  82.5820880 145.8467040  92.2237560
  81.9523620 145.1454350  92.3907690  82.0426020 146.6071170  92.0070720
  82.7076440 145.1251020 104.6590050  82.4260710 145.6284620 103.8950870
  83.0896140 144.3272770 104.2932180  89.3091900 144.5404600 105.2370520
  89.1957350 144.8599210 106.1322040  90.1261640 144.9417110 104.9407800
  88.2150050 152.5597070  75.6005260  88.1344100 151.6451680  75.3296970
  87.8014470 153.0564140  74.8944970  86.3468090 154.3376090  77.4814530
  85.5710190 153.8576530  77.7713100  86.9981020 153.6581740  77.3070690
  80.3633920 154.6495900  78.3590290  79.5318800 154.3944610  78.7586800
  80.9714900 154.7206670  79.0948210  78.7725870 149.6097790  72.1432680
  77.8842570 149.9513760  72.0412560  79.0567060 149.4098110  71.2513510
  76.7358880 152.2103440  78.0272380  77.3074990 151.4425640  78.0276020
  76.7360420 152.5092200  77.1178990  77.9783750 147.6187800  79.8141310
  77.7986590 146.7213550  80.0944070  77.5763830 148.1659670  80.4888260
  86.8182250 149.8203660  77.7153620  87.1947070 148.9475540  77.6027290
  86.7201760 150.1562360  76.8244060  80.9487260 148.1929290  73.1771060
  81.0554010 149.0933020  73.4839820  80.0379620 148.1447260  72.8865710
  90.6006370 147.3154100  74.6481960  91.4215990 146.8250670  74.6907440
  90.6340450 147.9051760  75.4013800  78.5970420 150.1148300  78.4223650
  79.2780530 150.3786670  79.0411050  78.2818470 149.2749170  78.7561660
  82.7894990 151.1615660  77.5096240  83.2973210 151.6596630  78.1501260
  83.3208230 150.3850860  77.3335600  94.8905920 149.3320850  81.2125590
  94.1858090 149.7202560  80.6940700  95.1563840 150.0271140  81.8146520
  81.0731090 145.8014220  81.7759660  81.0749530 146.3186610  80.9705560
  80.2435400 145.3244400  81.7529590  90.8367850 149.2554480  77.4209500
  90.1323420 149.5439370  78.0012610  91.1980010 150.0654590  77.0609060
  80.7546420 147.5124180  79.7830110  81.0963230 148.3566230  79.4883980
  79.8162230 147.6607920  79.8995450  93.9054770 148.7009270  77.8118710
  92.9579680 148.7348250  77.9434140  94.2304760 149.5148220  78.1968070
  84.4374310 145.0006450  76.1074700  84.7449290 144.4453340  75.3910200
  83.5075010 145.1350910  75.9247690  86.8255070 153.0655280  72.8434820
  85.8984350 152.9992660  73.0723290  86.9779890 154.0035410  72.7290060
  86.8124150 149.3372280  69.8401980  85.8727820 149.4986240  69.9254440
  87.1307410 150.0557960  69.2937970  93.3336910 154.0190800  79.8181010
  92.5055540 154.0883890  79.3431140  93.9287390 154.6045110  79.3496840
  90.8552360 154.6275580  73.3470070  90.2364780 154.2895130  72.6996370
  90.8376810 153.9835340  74.0549260  90.2978920 150.8060120  80.7635880
  89.8850100 151.6313830  81.0175870  89.5654870 150.2205160  80.5712240
  82.4311710 153.5920020  75.6254550  82.0268710 152.8797270  75.1300450
  82.5174830 153.2473260  76.5142590  81.1440330 150.3663230  79.4053590
  81.6954920 150.4758570  78.6306840  81.6583840 150.7400830  80.1208820
  89.0317060 153.8662390  70.3542820  89.4710340 153.0284820  70.2080640
  89.7445480 154.4991790  70.4406960  80.8183060 153.8882590  83.0158930
  80.6790830 154.7605390  83.3846330  79.9364420 153.5455400  82.8706870
  92.6134200 145.1205200  68.6683860  92.3006860 145.2132030  69.5682930
  93.3746670 145.6986230  68.6181290  79.1316340 152.4865000  73.1261200
  79.0113940 153.2127090  72.5142470  78.8217230 151.7167910  72.6489110
  93.8235490 149.8576700  84.6458000  93.2079760 150.3656370  84.1173460
  93.5031910 148.9575030  84.5883940  81.5980000 145.8300070  76.5084870
  81.1548150 146.6109610  76.1769390  82.1564990 146.1529960  77.2155810
  85.8849810 148.6968590  82.1120190  85.4229180 148.9051610  82.9240130
  85.4827920 147.8827940  81.8090860  90.8854320 149.9177540  83.2416850
  90.0347910 149.6183290  83.5625920  90.7256110 150.1619550  82.3300670
  87.9804030 151.4179290  85.3415640  88.3057440 150.5843040  85.0017870
  88.7684360 151.9407810  85.4893970  84.7138820 145.4510770  71.3890700
  84.0893000 145.4470640  72.1144010  84.6268940 144.5841730  70.9926670
  83.6355900 146.3747400  78.3674470  83.9328230 147.2810230  78.2866490
  84.1841460 145.8866180  77.7534040  81.3894220 150.9533640  74.2366120
  81.1635140 150.7370810  75.1412740  80.6086750 151.3862100  73.8912090
  88.6191980 150.9597010  72.8356770  88.0200870 151.6832810  72.6520390
  89.1671590 150.8973790  72.0533220  83.8293430 151.8519220  84.9026390
  83.7337030 150.9113950  84.7526790  84.6725410 152.0734290  84.5074460
  87.2256850 149.5960550  74.8660050  87.6186420 149.9132750  74.0528740
  87.5873700 148.7172430  74.9804570  78.9603970 148.2632890  83.0560170
  78.5667360 149.1108100  83.2632950  78.2722370 147.6259260  83.2468810
  85.5349020 148.3467860  86.1256910  84.8447340 148.1540060  86.7603000
  86.2781320 148.6302500  86.6581210  76.4491250 150.1281470  68.2992970
  76.3665920 151.0712230  68.4407960  76.0974310 149.9856380  67.4205320
  87.8111990 152.1866300  78.9610830  87.0793110 152.6953110  79.3100930
  87.4136330 151.3696280  78.6599610  84.2489380 148.8620500  77.3663320
  84.2525440 148.4210450  76.5167860  85.1440500 149.1837830  77.4735140
  80.0991760 148.7446990  76.3257530  79.7591810 149.2222220  77.0824580
  79.3369080 148.2912110  75.9658630  84.3109530 149.8632580  70.3570080
  84.4322350 149.8219060  71.3055900  83.9258040 150.7256730  70.2016810
  88.2737900 147.6399980  78.3733770  88.2910640 148.0908630  79.2175620
  88.0253480 146.7405620  78.5867210  83.3231030 152.1733720  69.7553380
  82.7547930 151.7251970  69.1289290  84.0320030 152.5326500  69.2218530
  91.7008650 145.0532160  84.2120150  92.0254420 144.3221820  84.7378130
  91.7365160 144.7345800  83.3101140  84.5497350 152.9222280  79.1128730
  84.9167480 152.4480850  79.8590070  84.3602410 153.7963850  79.4537070
  77.4137840 147.6665970  75.2422200  77.1284760 147.3021640  76.0800820
  77.3516700 146.9346430  74.6285340  82.3396720 151.9630920  81.4312940
  82.0353790 152.8422900  81.6563300  83.2943180 152.0230710  81.4670380
  87.0876430 146.5595230  71.9635570  86.2741040 146.0608400  71.8880880
  86.8938380 147.3993480  71.5471920  89.8024820 150.9314880  70.2597730
  90.6904440 151.2432110  70.0849070  89.7729910 150.0587130  69.8678310
  78.3960450 152.8033660  82.5784300  78.0375390 153.4687510  83.1657640
  78.1015010 151.9717210  82.9496920  81.5973570 153.2617900  85.4623850
  81.2973710 153.4075080  84.5651670  82.3684810 152.7023190  85.3697240
  92.0739090 152.2426720  69.7277590  91.9902810 152.6740940  68.8774030
  92.7933280 152.7025070  70.1604410  76.9068500 152.8024920  69.2018900
  77.7763350 153.0849720  69.4854820  76.4158820 153.6160790  69.0867710
  84.0703310 154.1898130  73.3227180  84.5266090 155.0003380  73.5487370
  83.7191520 153.8721270  74.1545670  79.9715090 144.5335780  73.7949700
  79.8429720 144.5253680  74.7434620  79.1477110 144.8718870  73.4440710
  76.9709020 146.2926900  83.2556400  76.2567540 146.4923820  83.8609010
  77.3904060 145.5166470  83.6271200  88.4647800 148.7849210  81.0057850
  88.8328620 147.9644420  81.3337420  87.6046000 148.8451100  81.4213500
  91.8309830 147.7406150  71.8145410  91.2022990 147.8451820  71.1003640
  91.3361750 147.9602930  72.6039290  83.7993860 150.0192100  73.2303290
  83.0910010 150.4878440  73.6716900  84.0838340 149.3614110  73.8648480
  85.4249790 151.4388800  81.2295820  85.9235040 151.9134620  81.8947670
  85.5672740 150.5152320  81.4365850  87.8309290 146.7442760  74.6699080
  87.7077070 146.7628890  73.7208590  88.7793850 146.7921700  74.7897480
  82.0028880 148.3277180  70.6054000  82.8519410 148.7647330  70.5394190
  81.6360150 148.6397440  71.4326060  92.6316650 147.6556760  82.0724210
  92.1290250 148.3962160  82.4118020  93.4473310 148.0440760  81.7561000
  90.9238660 152.8989940  75.5185570  89.9828800 152.9140170  75.6933260
  91.2382730 152.1125900  75.9645870  80.9020300 154.5809540  69.0789530
  81.6683570 154.4690900  69.6414960  80.9794990 153.8847510  68.4266300
  79.5967060 152.0134610  69.7622420  79.6770650 151.0662120  69.8739820
  80.4886810 152.3441490  69.8683080  77.1237860 153.8349530  84.9978590
  77.6276880 153.2556810  85.5694820  76.3845280 154.1189760  85.5354960
  79.1560940 151.9779120  85.8928660  79.1966280 151.6792990  86.8013890
  80.0106440 152.3786730  85.7336180  82.9339330 154.5774670  71.0532170
  83.3555750 154.4114540  71.8963560  83.0590170 153.7674900  70.5587310
  81.0966750 150.5571220  83.8603150  80.5663210 150.0662170  83.2326490
  81.7654820 150.9855420  83.3261080  85.4466970 153.6012280  68.3009270
  85.9672630 152.8861300  67.9350420  86.0935370 154.2398150  68.6009780
  90.4666980 152.3636840  85.6283490  91.0487750 151.6089160  85.5403970
  90.6428750 152.8944280  84.8514970  81.5839050 147.5233590  83.9400440
  81.4895920 146.9054340  83.2151310  81.0036440 148.2499880  83.7130350
  84.3500490 146.0806830  80.9727830  83.9017790 146.1031090  80.1273380
  83.7165690 145.6825850  81.5698130  87.0923940 152.7077340  82.9778110
  87.2120150 152.1118480  83.7172950  87.9517940 152.7447030  82.5579410
  89.4311840 153.2614530  81.5540620  88.9047060 153.7857150  80.9505760
  89.7743180 153.8941920  82.1850350  81.8298230 150.6507900  67.9990330
  81.6287290 149.7875260  68.3603670  81.6590280 150.5641260  67.0611930
  83.8592710 149.2498690  84.2353930  84.4492400 148.9414540  84.9231750
  83.0412950 148.7778440  84.3913830  88.6786140 148.8664500  84.4686950
  87.9901660 148.2046040  84.4036940  89.3992160 148.4202770  84.9135410
  89.3086540 145.4616130  70.5277210  89.5888830 144.6184030  70.8836630
  88.5352270 145.6939240  71.0415960  80.6281030 147.7508520  67.9868210
  80.9306930 147.7575950  67.0787360  81.3675620 147.4006380  68.4835870
  83.8465960 146.6943140  68.9724410  83.4987960 146.0167130  68.3926860
  84.0478730 146.2332650  69.7867800  77.1871600 153.2230790  75.3688780
  76.5320440 152.9542430  74.7248480  78.0249550 153.1135270  74.9190760
  90.1362040 148.0172080  69.5907270  90.5546920 147.8303060  68.7503930
  89.8298100 147.1651130  69.9010200  93.6351770 152.9296220  73.2883070
  93.2595370 152.1624150  72.8564360  92.9054890 153.3118920  73.7758000
  78.2247530 153.6083360  79.9092120  78.5920570 153.5210760  80.7888140
  77.6558350 152.8449910  79.8098980  93.0251390 152.0767740  82.9222590
  92.7937480 151.8480490  82.0220540  93.2855940 152.9967290  82.8767480
  77.7763530 150.5192450  83.8150540  76.8819580 150.4859210  84.1544250
  78.3161080 150.7179240  84.5801790  91.4639460 147.3024170  85.7002290
  92.3409640 147.3107570  86.0836290  91.4760300 146.5655010  85.0894640
  76.4009680 150.4329720  71.3114110  75.4973760 150.6959920  71.1365770
  76.8850300 150.7040890  70.5314070  92.9102730 151.1553710  76.5890310
  93.4340210 150.6616360  75.9580480  93.4962150 151.2904070  77.3337880
  93.0892450 151.2393580  80.1109860  92.1395160 151.2057120  80.2254850
  93.2705460 152.1493690  79.8759630  78.9436890 149.4895260  69.2208490
  79.6528590 149.0678480  68.7355770  78.2276830 149.5570490  68.5891840
  78.5911050 145.5434590  68.2611140  79.3139180 146.0843530  68.5792360
  78.8635570 145.2698010  67.3852680  92.4002700 150.4127060  72.5282720
  92.8961820 150.1797930  73.3131600  92.2018770 149.5738900  72.1120360
  93.8289860 149.0488010  75.0620400  93.7189140 148.8944050  76.0002670
  94.5897450 148.5208950  74.8195810  92.1755580 144.9882140  81.5203400
  92.8127800 145.6016280  81.8862590  92.3230470 145.0242800  80.5752630
  94.7180130 146.8795930  68.3026540  95.6429440 146.7477110  68.0944830
  94.6955920 146.9588750  69.2562990  94.7918620 147.6506590  70.9283250
  93.9970120 147.5851710  71.4576160  94.9961900 148.5857230  70.9168600
  85.5460060 146.1408330  84.4278500  85.4848950 146.7330160  85.1773910
  86.4860440 146.0334290  84.2828760  88.1834620 145.7978390  84.0670790
  88.7975030 146.1157680  83.4051870  88.7284180 145.3126980  84.6866650
  78.7055880 144.4772650  84.1809850  79.2538870 144.2960700  83.4175960
  78.7711190 143.6866760  84.7166160  88.9242660 144.3610530  80.3940080
  88.0502500 144.6945640  80.1913010  88.8153410 143.8883710  81.2191950
  89.8314640 146.5681400  81.7781800  89.5028000 145.7533160  81.3983530
  90.7796940 146.5251210  81.6547490  86.6717480 145.2780370  79.3332990
  85.8889270 145.7525870  79.6129750  86.3780410 144.3735200  79.2246170
  91.2238550 145.9803470  77.3782080  91.6646640 145.9248570  76.5303680
  90.9546140 146.8961480  77.4492260  93.0877120 145.6118710  75.3890900
  93.0265520 144.6679930  75.2421920  93.8669150 145.7198800  75.9344360
  78.0157890 145.5827850  71.8546710  78.7737250 145.6956730  71.2810740
  77.5535060 146.4197050  71.8090140  84.5571700 147.6967120  74.8449020
  83.7446210 147.3224010  74.5044900  85.0613340 146.9412200  75.1470210
  89.0596680 144.3609570  76.0832090  89.6626050 144.9329780  76.5580610
  88.3189670 144.9249010  75.8605990  92.2031280 144.7631130  71.3572370
  92.3981910 145.6614580  71.6239800  91.4161150 144.5318210  71.8505320
  80.3883040 146.1091900  70.3948680  80.9175800 145.3221700  70.2656630
  81.0211360 146.7883090  70.6284210  82.5820880 145.8467040  73.4494070
  81.9523620 145.1454350  73.6164200  82.0426020 146.6071170  73.2327230
  82.7076440 145.1251020  85.8846560  82.4260710 145.6284620  85.1207380
  83.0896140 144.3272770  85.5188690  89.3091900 144.5404600  86.4627030
  89.1957350 144.8599210  87.3578550  90.1261640 144.9417110  86.1664310
  88.2150050 152.5597070  56.8261770  88.1344100 151.6451680  56.5553480
  87.8014470 153.0564140  56.1201480  86.3468090 154.3376090  58.7071040
  85.5710190 153.8576530  58.9969610  86.9981020 153.6581740  58.5327200
  80.3633920 154.6495900  59.5846800  79.5318800 154.3944610  59.9843310
  80.9714900 154.7206670  60.3204720  78.7725870 149.6097790  53.3689190
  77.8842570 149.9513760  53.2669070  79.0567060 149.4098110  52.4770020
  76.7358880 152.2103440  59.2528890  77.3074990 151.4425640  59.2532530
  76.7360420 152.5092200  58.3435500  77.9783750 147.6187800  61.0397820
  77.7986590 146.7213550  61.3200580  77.5763830 148.1659670  61.7144770
  86.8182250 149.8203660  58.9410130  87.1947070 148.9475540  58.8283800
  86.7201760 150.1562360  58.0500570  80.9487260 148.1929290  54.4027570
  81.0554010 149.0933020  54.7096330  80.0379620 148.1447260  54.1122220
  90.6006370 147.3154100  55.8738470  91.4215990 146.8250670  55.9163950
  90.6340450 147.9051760  56.6270310  78.5970420 150.1148300  59.6480160
  79.2780530 150.3786670  60.2667560  78.2818470 149.2749170  59.9818170
  82.7894990 151.1615660  58.7352750  83.2973210 151.6596630  59.3757770
  83.3208230 150.3850860  58.5592110  94.8905920 149.3320850  62.4382100
  94.1858090 149.7202560  61.9197210  95.1563840 150.0271140  63.0403030
  81.0731090 145.8014220  63.0016170  81.0749530 146.3186610  62.1962070
  80.2435400 145.3244400  62.9786100  90.8367850 149.2554480  58.6466010
  90.1323420 149.5439370  59.2269120  91.1980010 150.0654590  58.2865570
  80.7546420 147.5124180  61.0086620  81.0963230 148.3566230  60.7140490
  79.8162230 147.6607920  61.1251960  93.9054770 148.7009270  59.0375220
  92.9579680 148.7348250  59.1690650  94.2304760 149.5148220  59.4224580
  84.4374310 145.0006450  57.3331210  84.7449290 144.4453340  56.6166710
  83.5075010 145.1350910  57.1504200  86.8255070 153.0655280  54.0691330
  85.8984350 152.9992660  54.2979800  86.9779890 154.0035410  53.9546570
  86.8124150 149.3372280  51.0658490  85.8727820 149.4986240  51.1510950
  87.1307410 150.0557960  50.5194480  93.3336910 154.0190800  61.0437520
  92.5055540 154.0883890  60.5687650  93.9287390 154.6045110  60.5753350
  90.8552360 154.6275580  54.5726580  90.2364780 154.2895130  53.9252880
  90.8376810 153.9835340  55.2805770  90.2978920 150.8060120  61.9892390
  89.8850100 151.6313830  62.2432380  89.5654870 150.2205160  61.7968750
  82.4311710 153.5920020  56.8511060  82.0268710 152.8797270  56.3556960
  82.5174830 153.2473260  57.7399100  81.1440330 150.3663230  60.6310100
  81.6954920 150.4758570  59.8563350  81.6583840 150.7400830  61.3465330
  89.0317060 153.8662390  51.5799330  89.4710340 153.0284820  51.4337150
  89.7445480 154.4991790  51.6663470  80.8183060 153.8882590  64.2415440
  80.6790830 154.7605390  64.6102840  79.9364420 153.5455400  64.0963380
  92.6134200 145.1205200  49.8940370  92.3006860 145.2132030  50.7939440
  93.3746670 145.6986230  49.8437800  79.1316340 152.4865000  54.3517710
  79.0113940 153.2127090  53.7398980  78.8217230 151.7167910  53.8745620
  93.8235490 149.8576700  65.8714510  93.2079760 150.3656370  65.3429970
  93.5031910 148.9575030  65.8140450  81.5980000 145.8300070  57.7341380
  81.1548150 146.6109610  57.4025900  82.1564990 146.1529960  58.4412320
  85.8849810 148.6968590  63.3376700  85.4229180 148.9051610  64.1496640
  85.4827920 147.8827940  63.0347370  90.8854320 149.9177540  64.4673360
  90.0347910 149.6183290  64.7882430  90.7256110 150.1619550  63.5557180
  87.9804030 151.4179290  66.5672150  88.3057440 150.5843040  66.2274380
  88.7684360 151.9407810  66.7150480  84.7138820 145.4510770  52.6147210
  84.0893000 145.4470640  53.3400520  84.6268940 144.5841730  52.2183180
  83.6355900 146.3747400  59.5930980  83.9328230 147.2810230  59.5123000
  84.1841460 145.8866180  58.9790550  81.3894220 150.9533640  55.4622630
  81.1635140 150.7370810  56.3669250  80.6086750 151.3862100  55.1168600
  88.6191980 150.9597010  54.0613280  88.0200870 151.6832810  53.8776900
  89.1671590 150.8973790  53.2789730  83.8293430 151.8519220  66.1282900
  83.7337030 150.9113950  65.9783300  84.6725410 152.0734290  65.7330970
  87.2256850 149.5960550  56.0916560  87.6186420 149.9132750  55.2785250
  87.5873700 148.7172430  56.2061080  78.9603970 148.2632890  64.2816680
  78.5667360 149.1108100  64.4889460  78.2722370 147.6259260  64.4725320
  85.5349020 148.3467860  67.3513420  84.8447340 148.1540060  67.9859510
  86.2781320 148.6302500  67.8837720  76.2621020 146.1861350  58.3146760
  75.9734070 146.7564210  59.0271740  77.0066780 145.7065800  58.6777990
  76.4491250 150.1281470  49.5249480  76.3665920 151.0712230  49.6664470
  76.0974310 149.9856380  48.6461830  87.8111990 152.1866300  60.1867340
  87.0793110 152.6953110  60.5357440  87.4136330 151.3696280  59.8856120
  84.2489380 148.8620500  58.5919830  84.2525440 148.4210450  57.7424370
  85.1440500 149.1837830  58.6991650  80.0991760 148.7446990  57.5514040
  79.7591810 149.2222220  58.3081090  79.3369080 148.2912110  57.1915140
  84.3109530 149.8632580  51.5826590  84.4322350 149.8219060  52.5312410
  83.9258040 150.7256730  51.4273320  88.2737900 147.6399980  59.5990280
  88.2910640 148.0908630  60.4432130  88.0253480 146.7405620  59.8123720
  83.3231030 152.1733720  50.9809890  82.7547930 151.7251970  50.3545800
  84.0320030 152.5326500  50.4475040  91.7008650 145.0532160  65.4376660
  92.0254420 144.3221820  65.9634640  91.7365160 144.7345800  64.5357650
  84.5497350 152.9222280  60.3385240  84.9167480 152.4480850  61.0846580
  84.3602410 153.7963850  60.6793580  77.4137840 147.6665970  56.4678710
  77.1284760 147.3021640  57.3057330  77.3516700 146.9346430  55.8541850
  82.3396720 151.9630920  62.6569450  82.0353790 152.8422900  62.8819810
  83.2943180 152.0230710  62.6926890  87.0876430 146.5595230  53.1892080
  86.2741040 146.0608400  53.1137390  86.8938380 147.3993480  52.7728430
  89.8024820 150.9314880  51.4854240  90.6904440 151.2432110  51.3105580
  89.7729910 150.0587130  51.0934820  78.3960450 152.8033660  63.8040810
  78.0375390 153.4687510  64.3914150  78.1015010 151.9717210  64.1753430
  81.5973570 153.2617900  66.6880360  81.2973710 153.4075080  65.7908180
  82.3684810 152.7023190  66.5953750  92.0739090 152.2426720  50.9534100
  91.9902810 152.6740940  50.1030540  92.7933280 152.7025070  51.3860920
  76.9068500 152.8024920  50.4275410  77.7763350 153.0849720  50.7111330
  76.4158820 153.6160790  50.3124220  84.0703310 154.1898130  54.5483690
  84.5266090 155.0003380  54.7743880  83.7191520 153.8721270  55.3802180
  79.9715090 144.5335780  55.0206210  79.8429720 144.5253680  55.9691130
  79.1477110 144.8718870  54.6697220  76.9709020 146.2926900  64.4812910
  76.2567540 146.4923820  65.0865520  77.3904060 145.5166470  64.8527710
  88.4647800 148.7849210  62.2314360  88.8328620 147.9644420  62.5593930
  87.6046000 148.8451100  62.6470010  91.8309830 147.7406150  53.0401920
  91.2022990 147.8451820  52.3260150  91.3361750 147.9602930  53.8295800
  83.7993860 150.0192100  54.4559800  83.0910010 150.4878440  54.8973410
  84.0838340 149.3614110  55.0904990  85.4249790 151.4388800  62.4552330
  85.9235040 151.9134620  63.1204180  85.5672740 150.5152320  62.6622360
  87.8309290 146.7442760  55.8955590  87.7077070 146.7628890  54.9465100
  88.7793850 146.7921700  56.0153990  82.0028880 148.3277180  51.8310510
  82.8519410 148.7647330  51.7650700  81.6360150 148.6397440  52.6582570
  92.6316650 147.6556760  63.2980720  92.1290250 148.3962160  63.6374530
  93.4473310 148.0440760  62.9817510  90.9238660 152.8989940  56.7442080
  89.9828800 152.9140170  56.9189770  91.2382730 152.1125900  57.1902380
  80.9020300 154.5809540  50.3046040  81.6683570 154.4690900  50.8671470
  80.9794990 153.8847510  49.6522810  79.5967060 152.0134610  50.9878930
  79.6770650 151.0662120  51.0996330  80.4886810 152.3441490  51.0939590
  77.1237860 153.8349530  66.2235100  77.6276880 153.2556810  66.7951330
  76.3845280 154.1189760  66.7611470  79.1560940 151.9779120  67.1185170
  79.1966280 151.6792990  68.0270400  80.0106440 152.3786730  66.9592690
  82.9339330 154.5774670  52.2788680  83.3555750 154.4114540  53.1220070
  83.0590170 153.7674900  51.7843820  81.0966750 150.5571220  65.0859660
  80.5663210 150.0662170  64.4583000  81.7654820 150.9855420  64.5517590
  85.4466970 153.6012280  49.5265780  85.9672630 152.8861300  49.1606930
  86.0935370 154.2398150  49.8266290  90.4666980 152.3636840  66.8540000
  91.0487750 151.6089160  66.7660480  90.6428750 152.8944280  66.0771480
  81.5839050 147.5233590  65.1656950  81.4895920 146.9054340  64.4407820
  81.0036440 148.2499880  64.9386860  84.3500490 146.0806830  62.1984340
  83.9017790 146.1031090  61.3529890  83.7165690 145.6825850  62.7954640
  87.0923940 152.7077340  64.2034620  87.2120150 152.1118480  64.9429460
  87.9517940 152.7447030  63.7835920  89.4311840 153.2614530  62.7797130
  88.9047060 153.7857150  62.1762270  89.7743180 153.8941920  63.4106860
  81.8298230 150.6507900  49.2246840  81.6287290 149.7875260  49.5860180
  81.6590280 150.5641260  48.2868440  83.8592710 149.2498690  65.4610440
  84.4492400 148.9414540  66.1488260  83.0412950 148.7778440  65.6170340
  88.6786140 148.8664500  65.6943460  87.9901660 148.2046040  65.6293450
  89.3992160 148.4202770  66.1391920  89.3086540 145.4616130  51.7533720
  89.5888830 144.6184030  52.1093140  88.5352270 145.6939240  52.2672470
  80.6281030 147.7508520  49.2124720  80.9306930 147.7575950  48.3043870
  81.3675620 147.4006380  49.7092380  83.8465960 146.6943140  50.1980920
  83.4987960 146.0167130  49.6183370  84.0478730 146.2332650  51.0124310
  77.1871600 153.2230790  56.5945290  76.5320440 152.9542430  55.9504990
  78.0249550 153.1135270  56.1447270  90.1362040 148.0172080  50.8163780
  90.5546920 147.8303060  49.9760440  89.8298100 147.1651130  51.1266710
  93.6351770 152.9296220  54.5139580  93.2595370 152.1624150  54.0820870
  92.9054890 153.3118920  55.0014510  78.2247530 153.6083360  61.1348630
  78.5920570 153.5210760  62.0144650  77.6558350 152.8449910  61.0355490
  93.0251390 152.0767740  64.1479100  92.7937480 151.8480490  63.2477050
  93.2855940 152.9967290  64.1023990  77.7763530 150.5192450  65.0407050
  76.8819580 150.4859210  65.3800760  78.3161080 150.7179240  65.8058300
  91.4639460 147.3024170  66.9258800  92.3409640 147.3107570  67.3092800
  91.4760300 146.5655010  66.3151150  76.4009680 150.4329720  52.5370620
  75.4973760 150.6959920  52.3622280  76.8850300 150.7040890  51.7570580
  92.9102730 151.1553710  57.8146820  93.4340210 150.6616360  57.1836990
  93.4962150 151.2904070  58.5594390  93.0892450 151.2393580  61.3366370
  92.1395160 151.2057120  61.4511360  93.2705460 152.1493690  61.1016140
  78.9436890 149.4895260  50.4465000  79.6528590 149.0678480  49.9612280
  78.2276830 149.5570490  49.8148350  78.5911050 145.5434590  49.4867650
  79.3139180 146.0843530  49.8048870  78.8635570 145.2698010  48.6109190
  92.4002700 150.4127060  53.7539230  92.8961820 150.1797930  54.5388110
  92.2018770 149.5738900  53.3376870  78.2803240 144.7940780  59.3890270
  78.9279430 144.2438160  58.9485430  78.7005080 145.0483930  60.2106080
  93.8289860 149.0488010  56.2876910  93.7189140 148.8944050  57.2259180
  94.5897450 148.5208950  56.0452320  92.1755580 144.9882140  62.7459910
  92.8127800 145.6016280  63.1119100  92.3230470 145.0242800  61.8009140
  94.7180130 146.8795930  49.5283050  95.6429440 146.7477110  49.3201340
  94.6955920 146.9588750  50.4819500  94.7918620 147.6506590  52.1539760
  93.9970120 147.5851710  52.6832670  94.9961900 148.5857230  52.1425110
  78.0335240 144.9496450  62.1315590  77.6850060 145.4060270  62.8973770
  77.7022940 144.0553580  62.2138020  85.5460060 146.1408330  65.6535010
  85.4848950 146.7330160  66.4030420  86.4860440 146.0334290  65.5085270
  88.1834620 145.7978390  65.2927300  88.7975030 146.1157680  64.6308380
  88.7284180 145.3126980  65.9123160  78.7055880 144.4772650  65.4066360
  79.2538870 144.2960700  64.6432470  78.7711190 143.6866760  65.9422670
  88.9242660 144.3610530  61.6196590  88.0502500 144.6945640  61.4169520
  88.8153410 143.8883710  62.4448460  89.8314640 146.5681400  63.0038310
  89.5028000 145.7533160  62.6240040  90.7796940 146.5251210  62.8804000
  86.6717480 145.2780370  60.5589500  85.8889270 145.7525870  60.8386260
  86.3780410 144.3735200  60.4502680  91.2238550 145.9803470  58.6038590
  91.6646640 145.9248570  57.7560190  90.9546140 146.8961480  58.6748770
  93.0877120 145.6118710  56.6147410  93.0265520 144.6679930  56.4678430
  93.8669150 145.7198800  57.1600870  78.0157890 145.5827850  53.0803220
  78.7737250 145.6956730  52.5067250  77.5535060 146.4197050  53.0346650
  84.5571700 147.6967120  56.0705530  83.7446210 147.3224010  55.7301410
  85.0613340 146.9412200  56.3726720  89.0596680 144.3609570  57.3088600
  89.6626050 144.9329780  57.7837120  88.3189670 144.9249010  57.0862500
  92.2031280 144.7631130  52.5828880  92.3981910 145.6614580  52.8496310
  91.4161150 144.5318210  53.0761830  80.3883040 146.1091900  51.6205190
  80.9175800 145.3221700  51.4913140  81.0211360 146.7883090  51.8540720
  82.5820880 145.8467040  54.6750580  81.9523620 145.1454350  54.8420710
  82.0426020 146.6071170  54.4583740  82.7076440 145.1251020  67.1103070
  82.4260710 145.6284620  66.3463890  83.0896140 144.3272770  66.7445200
  89.3091900 144.5404600  67.6883540  89.1957350 144.8599210  68.5835060
  90.1261640 144.9417110  67.3920820  88.2150050 152.5597070  38.0518280
  88.1344100 151.6451680  37.7809990  87.8014470 153.0564140  37.3457990
  86.3468090 154.3376090  39.9327550  85.5710190 153.8576530  40.2226120
  86.9981020 153.6581740  39.7583710  80.3633920 154.6495900  40.8103310
  79.5318800 154.3944610  41.2099820  80.9714900 154.7206670  41.5461230
  78.7725870 149.6097790  34.5945700  77.8842570 149.9513760  34.4925580
  79.0567060 149.4098110  33.7026530  76.7358880 152.2103440  40.4785400
  77.3074990 151.4425640  40.4789040  76.7360420 152.5092200  39.5692010
  77.9783750 147.6187800  42.2654330  77.7986590 146.7213550  42.5457090
  77.5763830 148.1659670  42.9401280  86.8182250 149.8203660  40.1666640
  87.1947070 148.9475540  40.0540310  86.7201760 150.1562360  39.2757080
  80.9487260 148.1929290  35.6284080  81.0554010 149.0933020  35.9352840
  80.0379620 148.1447260  35.3378730  90.6006370 147.3154100  37.0994980
  91.4215990 146.8250670  37.1420460  90.6340450 147.9051760  37.8526820
  78.5970420 150.1148300  40.8736670  79.2780530 150.3786670  41.4924070
  78.2818470 149.2749170  41.2074680  82.7894990 151.1615660  39.9609260
  83.2973210 151.6596630  40.6014280  83.3208230 150.3850860  39.7848620
  94.8905920 149.3320850  43.6638610  94.1858090 149.7202560  43.1453720
  95.1563840 150.0271140  44.2659540  81.0731090 145.8014220  44.2272680
  81.0749530 146.3186610  43.4218580  80.2435400 145.3244400  44.2042610
  90.8367850 149.2554480  39.8722520  90.1323420 149.5439370  40.4525630
  91.1980010 150.0654590  39.5122080  80.7546420 147.5124180  42.2343130
  81.0963230 148.3566230  41.9397000  79.8162230 147.6607920  42.3508470
  93.9054770 148.7009270  40.2631730  92.9579680 148.7348250  40.3947160
  94.2304760 149.5148220  40.6481090  84.4374310 145.0006450  38.5587720
  84.7449290 144.4453340  37.8423220  83.5075010 145.1350910  38.3760710
  86.8255070 153.0655280  35.2947840  85.8984350 152.9992660  35.5236310
  86.9779890 154.0035410  35.1803080  86.8124150 149.3372280  32.2915000
  85.8727820 149.4986240  32.3767460  87.1307410 150.0557960  31.7450990
  93.3336910 154.0190800  42.2694030  92.5055540 154.0883890  41.7944160
  93.9287390 154.6045110  41.8009860  90.8552360 154.6275580  35.7983090
  90.2364780 154.2895130  35.1509390  90.8376810 153.9835340  36.5062280
  90.2978920 150.8060120  43.2148900  89.8850100 151.6313830  43.4688890
  89.5654870 150.2205160  43.0225260  82.4311710 153.5920020  38.0767570
  82.0268710 152.8797270  37.5813470  82.5174830 153.2473260  38.9655610
  81.1440330 150.3663230  41.8566610  81.6954920 150.4758570  41.0819860
  81.6583840 150.7400830  42.5721840  89.0317060 153.8662390  32.8055840
  89.4710340 153.0284820  32.6593660  89.7445480 154.4991790  32.8919980
  80.8183060 153.8882590  45.4671950  80.6790830 154.7605390  45.8359350
  79.9364420 153.5455400  45.3219890  92.6134200 145.1205200  31.1196880
  92.3006860 145.2132030  32.0195950  93.3746670 145.6986230  31.0694310
  79.1316340 152.4865000  35.5774220  79.0113940 153.2127090  34.9655490
  78.8217230 151.7167910  35.1002130  93.8235490 149.8576700  47.0971020
  93.2079760 150.3656370  46.5686480  93.5031910 148.9575030  47.0396960
  81.5980000 145.8300070  38.9597890  81.1548150 146.6109610  38.6282410
  82.1564990 146.1529960  39.6668830  85.8849810 148.6968590  44.5633210
  85.4229180 148.9051610  45.3753150  85.4827920 147.8827940  44.2603880
  90.8854320 149.9177540  45.6929870  90.0347910 149.6183290  46.0138940
  90.7256110 150.1619550  44.7813690  87.9804030 151.4179290  47.7928660
  88.3057440 150.5843040  47.4530890  88.7684360 151.9407810  47.9406990
  84.7138820 145.4510770  33.8403720  84.0893000 145.4470640  34.5657030
  84.6268940 144.5841730  33.4439690  83.6355900 146.3747400  40.8187490
  83.9328230 147.2810230  40.7379510  84.1841460 145.8866180  40.2047060
  81.3894220 150.9533640  36.6879140  81.1635140 150.7370810  37.5925760
  80.6086750 151.3862100  36.3425110  88.6191980 150.9597010  35.2869790
  88.0200870 151.6832810  35.1033410  89.1671590 150.8973790  34.5046240
  83.8293430 151.8519220  47.3539410  83.7337030 150.9113950  47.2039810
  84.6725410 152.0734290  46.9587480  87.2256850 149.5960550  37.3173070
  87.6186420 149.9132750  36.5041760  87.5873700 148.7172430  37.4317590
  78.9603970 148.2632890  45.5073190  78.5667360 149.1108100  45.7145970
  78.2722370 147.6259260  45.6981830  85.5349020 148.3467860  48.5769930
  84.8447340 148.1540060  49.2116020  86.2781320 148.6302500  49.1094230
  76.2621020 146.1861350  39.5403270  75.9734070 146.7564210  40.2528250
  77.0066780 145.7065800  39.9034500  76.4491250 150.1281470  30.7505990
  76.3665920 151.0712230  30.8920980  76.0974310 149.9856380  29.8718340
  87.8111990 152.1866300  41.4123850  87.0793110 152.6953110  41.7613950
  87.4136330 151.3696280  41.1112630  84.2489380 148.8620500  39.8176340
  84.2525440 148.4210450  38.9680880  85.1440500 149.1837830  39.9248160
  80.0991760 148.7446990  38.7770550  79.7591810 149.2222220  39.5337600
  79.3369080 148.2912110  38.4171650  84.3109530 149.8632580  32.8083100
  84.4322350 149.8219060  33.7568920  83.9258040 150.7256730  32.6529830
  88.2737900 147.6399980  40.8246790  88.2910640 148.0908630  41.6688640
  88.0253480 146.7405620  41.0380230  83.3231030 152.1733720  32.2066400
  82.7547930 151.7251970  31.5802310  84.0320030 152.5326500  31.6731550
  91.7008650 145.0532160  46.6633170  92.0254420 144.3221820  47.1891150
  91.7365160 144.7345800  45.7614160  84.5497350 152.9222280  41.5641750
  84.9167480 152.4480850  42.3103090  84.3602410 153.7963850  41.9050090
  77.4137840 147.6665970  37.6935220  77.1284760 147.3021640  38.5313840
  77.3516700 146.9346430  37.0798360  82.3396720 151.9630920  43.8825960
  82.0353790 152.8422900  44.1076320  83.2943180 152.0230710  43.9183400
  87.0876430 146.5595230  34.4148590  86.2741040 146.0608400  34.3393900
  86.8938380 147.3993480  33.9984940  89.8024820 150.9314880  32.7110750
  90.6904440 151.2432110  32.5362090  89.7729910 150.0587130  32.3191330
  78.3960450 152.8033660  45.0297320  78.0375390 153.4687510  45.6170660
  78.1015010 151.9717210  45.4009940  81.5973570 153.2617900  47.9136870
  81.2973710 153.4075080  47.0164690  82.3684810 152.7023190  47.8210260
  92.0739090 152.2426720  32.1790610  91.9902810 152.6740940  31.3287050
  92.7933280 152.7025070  32.6117430  76.9068500 152.8024920  31.6531920
  77.7763350 153.0849720  31.9367840  76.4158820 153.6160790  31.5380730
  84.0703310 154.1898130  35.7740200  84.5266090 155.0003380  36.0000390
  83.7191520 153.8721270  36.6058690  79.9715090 144.5335780  36.2462720
  79.8429720 144.5253680  37.1947640  79.1477110 144.8718870  35.8953730
  76.9709020 146.2926900  45.7069420  76.2567540 146.4923820  46.3122030
  77.3904060 145.5166470  46.0784220  88.4647800 148.7849210  43.4570870
  88.8328620 147.9644420  43.7850440  87.6046000 148.8451100  43.8726520
  91.8309830 147.7406150  34.2658430  91.2022990 147.8451820  33.5516660
  91.3361750 147.9602930  35.0552310  83.7993860 150.0192100  35.6816310
  83.0910010 150.4878440  36.1229920  84.0838340 149.3614110  36.3161500
  85.4249790 151.4388800  43.6808840  85.9235040 151.9134620  44.3460690
  85.5672740 150.5152320  43.8878870  87.8309290 146.7442760  37.1212100
  87.7077070 146.7628890  36.1721610  88.7793850 146.7921700  37.2410500
  82.0028880 148.3277180  33.0567020  82.8519410 148.7647330  32.9907210
  81.6360150 148.6397440  33.8839080  92.6316650 147.6556760  44.5237230
  92.1290250 148.3962160  44.8631040  93.4473310 148.0440760  44.2074020
  90.9238660 152.8989940  37.9698590  89.9828800 152.9140170  38.1446280
  91.2382730 152.1125900  38.4158890  80.9020300 154.5809540  31.5302550
  81.6683570 154.4690900  32.0927980  80.9794990 153.8847510  30.8779320
  79.5967060 152.0134610  32.2135440  79.6770650 151.0662120  32.3252840
  80.4886810 152.3441490  32.3196100  77.1237860 153.8349530  47.4491610
  77.6276880 153.2556810  48.0207840  76.3845280 154.1189760  47.9867980
  79.1560940 151.9779120  48.3441680  79.1966280 151.6792990  49.2526910
  80.0106440 152.3786730  48.1849200  82.9339330 154.5774670  33.5045190
  83.3555750 154.4114540  34.3476580  83.0590170 153.7674900  33.0100330
  81.0966750 150.5571220  46.3116170  80.5663210 150.0662170  45.6839510
  81.7654820 150.9855420  45.7774100  85.4466970 153.6012280  30.7522290
  85.9672630 152.8861300  30.3863440  86.0935370 154.2398150  31.0522800
  90.4666980 152.3636840  48.0796510  91.0487750 151.6089160  47.9916990
  90.6428750 152.8944280  47.3027990  81.5839050 147.5233590  46.3913460
  81.4895920 146.9054340  45.6664330  81.0036440 148.2499880  46.1643370
  84.3500490 146.0806830  43.4240850  83.9017790 146.1031090  42.5786400
  83.7165690 145.6825850  44.0211150  87.0923940 152.7077340  45.4291130
  87.2120150 152.1118480  46.1685970  87.9517940 152.7447030  45.0092430
  89.4311840 153.2614530  44.0053640  88.9047060 153.7857150  43.4018780
  89.7743180 153.8941920  44.6363370  81.8298230 150.6507900  30.4503350
  81.6287290 149.7875260  30.8116690  81.6590280 150.5641260  29.5124950
  83.8592710 149.2498690  46.6866950  84.4492400 148.9414540  47.3744770
  83.0412950 148.7778440  46.8426850  88.6786140 148.8664500  46.9199970
  87.9901660 148.2046040  46.8549960  89.3992160 148.4202770  47.3648430
  89.3086540 145.4616130  32.9790230  89.5888830 144.6184030  33.3349650
  88.5352270 145.6939240  33.4928980  80.6281030 147.7508520  30.4381230
  80.9306930 147.7575950  29.5300380  81.3675620 147.4006380  30.9348890
  83.8465960 146.6943140  31.4237430  83.4987960 146.0167130  30.8439880
  84.0478730 146.2332650  32.2380820  77.1871600 153.2230790  37.8201800
  76.5320440 152.9542430  37.1761500  78.0249550 153.1135270  37.3703780
  90.1362040 148.0172080  32.0420290  90.5546920 147.8303060  31.2016950
  89.8298100 147.1651130  32.3523220  93.6351770 152.9296220  35.7396090
  93.2595370 152.1624150  35.3077380  92.9054890 153.3118920  36.2271020
  78.2247530 153.6083360  42.3605140  78.5920570 153.5210760  43.2401160
  77.6558350 152.8449910  42.2612000  93.0251390 152.0767740  45.3735610
  92.7937480 151.8480490  44.4733560  93.2855940 152.9967290  45.3280500
  77.7763530 150.5192450  46.2663560  76.8819580 150.4859210  46.6057270
  78.3161080 150.7179240  47.0314810  91.4639460 147.3024170  48.1515310
  92.3409640 147.3107570  48.5349310  91.4760300 146.5655010  47.5407660
  76.4009680 150.4329720  33.7627130  75.4973760 150.6959920  33.5878790
  76.8850300 150.7040890  32.9827090  92.9102730 151.1553710  39.0403330
  93.4340210 150.6616360  38.4093500  93.4962150 151.2904070  39.7850900
  93.0892450 151.2393580  42.5622880  92.1395160 151.2057120  42.6767870
  93.2705460 152.1493690  42.3272650  78.9436890 149.4895260  31.6721510
  79.6528590 149.0678480  31.1868790  78.2276830 149.5570490  31.0404860
  78.5911050 145.5434590  30.7124160  79.3139180 146.0843530  31.0305380
  78.8635570 145.2698010  29.8365700  92.4002700 150.4127060  34.9795740
  92.8961820 150.1797930  35.7644620  92.2018770 149.5738900  34.5633380
  78.2803240 144.7940780  40.6146780  78.9279430 144.2438160  40.1741940
  78.7005080 145.0483930  41.4362590  93.8289860 149.0488010  37.5133420
  93.7189140 148.8944050  38.4515690  94.5897450 148.5208950  37.2708830
  92.1755580 144.9882140  43.9716420  92.8127800 145.6016280  44.3375610
  92.3230470 145.0242800  43.0265650  94.7180130 146.8795930  30.7539560
  95.6429440 146.7477110  30.5457850  94.6955920 146.9588750  31.7076010
  94.7918620 147.6506590  33.3796270  93.9970120 147.5851710  33.9089180
  94.9961900 148.5857230  33.3681620  78.0335240 144.9496450  43.3572100
  77.6850060 145.4060270  44.1230280  77.7022940 144.0553580  43.4394530
  85.5460060 146.1408330  46.8791520  85.4848950 146.7330160  47.6286930
  86.4860440 146.0334290  46.7341780  88.1834620 145.7978390  46.5183810
  88.7975030 146.1157680  45.8564890  88.7284180 145.3126980  47.1379670
  78.7055880 144.4772650  46.6322870  79.2538870 144.2960700  45.8688980
  78.7711190 143.6866760  47.1679180  88.9242660 144.3610530  42.8453100
  88.0502500 144.6945640  42.6426030  88.8153410 143.8883710  43.6704970
  89.8314640 146.5681400  44.2294820  89.5028000 145.7533160  43.8496550
  90.7796940 146.5251210  44.1060510  86.6717480 145.2780370  41.7846010
  85.8889270 145.7525870  42.0642770  86.3780410 144.3735200  41.6759190
  91.2238550 145.9803470  39.8295100  91.6646640 145.9248570  38.9816700
  90.9546140 146.8961480  39.9005280  93.0877120 145.6118710  37.8403920
  93.0265520 144.6679930  37.6934940  93.8669150 145.7198800  38.3857380
  78.0157890 145.5827850  34.3059730  78.7737250 145.6956730  33.7323760
  77.5535060 146.4197050  34.2603160  84.5571700 147.6967120  37.2962040
  83.7446210 147.3224010  36.9557920  85.0613340 146.9412200  37.5983230
  89.0596680 144.3609570  38.5345110  89.6626050 144.9329780  39.0093630
  88.3189670 144.9249010  38.3119010  92.2031280 144.7631130  33.8085390
  92.3981910 145.6614580  34.0752820  91.4161150 144.5318210  34.3018340
  80.3883040 146.1091900  32.8461700  80.9175800 145.3221700  32.7169650
  81.0211360 146.7883090  33.0797230  82.5820880 145.8467040  35.9007090
  81.9523620 145.1454350  36.0677220  82.0426020 146.6071170  35.6840250
  82.7076440 145.1251020  48.3359580  82.4260710 145.6284620  47.5720400
  83.0896140 144.3272770  47.9701710  89.3091900 144.5404600  48.9140050
  89.1957350 144.8599210  49.8091570  90.1261640 144.9417110  48.6177330
  88.2150050 152.5597070  19.2774790  88.1344100 151.6451680  19.0066500
  87.8014470 153.0564140  18.5714500  86.3468090 154.3376090  21.1584060
  85.5710190 153.8576530  21.4482630  86.9981020 153.6581740  20.9840220
  80.3633920 154.6495900  22.0359820  79.5318800 154.3944610  22.4356330
  80.9714900 154.7206670  22.7717740  78.7725870 149.6097790  15.8202210
  77.8842570 149.9513760  15.7182090  79.0567060 149.4098110  14.9283040
  76.7358880 152.2103440  21.7041910  77.3074990 151.4425640  21.7045550
  76.7360420 152.5092200  20.7948520  77.9783750 147.6187800  23.4910840
  77.7986590 146.7213550  23.7713600  77.5763830 148.1659670  24.1657790
  86.8182250 149.8203660  21.3923150  87.1947070 148.9475540  21.2796820
  86.7201760 150.1562360  20.5013590  80.9487260 148.1929290  16.8540590
  81.0554010 149.0933020  17.1609350  80.0379620 148.1447260  16.5635240
  90.6006370 147.3154100  18.3251490  91.4215990 146.8250670  18.3676970
  90.6340450 147.9051760  19.0783330  78.5970420 150.1148300  22.0993180
  79.2780530 150.3786670  22.7180580  78.2818470 149.2749170  22.4331190
  82.7894990 151.1615660  21.1865770  83.2973210 151.6596630  21.8270790
  83.3208230 150.3850860  21.0105130  94.8905920 149.3320850  24.8895120
  94.1858090 149.7202560  24.3710230  95.1563840 150.0271140  25.4916050
  81.0731090 145.8014220  25.4529190  81.0749530 146.3186610  24.6475090
  80.2435400 145.3244400  25.4299120  90.8367850 149.2554480  21.0979030
  90.1323420 149.5439370  21.6782140  91.1980010 150.0654590  20.7378590
  80.7546420 147.5124180  23.4599640  81.0963230 148.3566230  23.1653510
  79.8162230 147.6607920  23.5764980  93.9054770 148.7009270  21.4888240
  92.9579680 148.7348250  21.6203670  94.2304760 149.5148220  21.8737600
  84.4374310 145.0006450  19.7844230  84.7449290 144.4453340  19.0679730
  83.5075010 145.1350910  19.6017220  86.8255070 153.0655280  16.5204350
  85.8984350 152.9992660  16.7492820  86.9779890 154.0035410  16.4059590
  86.8124150 149.3372280  13.5171510  85.8727820 149.4986240  13.6023970
  87.1307410 150.0557960  12.9707500  93.3336910 154.0190800  23.4950540
  92.5055540 154.0883890  23.0200670  93.9287390 154.6045110  23.0266370
  90.8552360 154.6275580  17.0239600  90.2364780 154.2895130  16.3765900
  90.8376810 153.9835340  17.7318790  90.2978920 150.8060120  24.4405410
  89.8850100 151.6313830  24.6945400  89.5654870 150.2205160  24.2481770
  82.4311710 153.5920020  19.3024080  82.0268710 152.8797270  18.8069980
  82.5174830 153.2473260  20.1912120  81.1440330 150.3663230  23.0823120
  81.6954920 150.4758570  22.3076370  81.6583840 150.7400830  23.7978350
  89.0317060 153.8662390  14.0312350  89.4710340 153.0284820  13.8850170
  89.7445480 154.4991790  14.1176490  80.8183060 153.8882590  26.6928460
  80.6790830 154.7605390  27.0615860  79.9364420 153.5455400  26.5476400
  92.6134200 145.1205200  12.3453390  92.3006860 145.2132030  13.2452460
  93.3746670 145.6986230  12.2950820  79.1316340 152.4865000  16.8030730
  79.0113940 153.2127090  16.1912000  78.8217230 151.7167910  16.3258640
  93.8235490 149.8576700  28.3227530  93.2079760 150.3656370  27.7942990
  93.5031910 148.9575030  28.2653470  81.5980000 145.8300070  20.1854400
  81.1548150 146.6109610  19.8538920  82.1564990 146.1529960  20.8925340
  85.8849810 148.6968590  25.7889720  85.4229180 148.9051610  26.6009660
  85.4827920 147.8827940  25.4860390  90.8854320 149.9177540  26.9186380
  90.0347910 149.6183290  27.2395450  90.7256110 150.1619550  26.0070200
  87.9804030 151.4179290  29.0185170  88.3057440 150.5843040  28.6787400
  88.7684360 151.9407810  29.1663500  84.7138820 145.4510770  15.0660230
  84.0893000 145.4470640  15.7913540  84.6268940 144.5841730  14.6696200
  83.6355900 146.3747400  22.0444000  83.9328230 147.2810230  21.9636020
  84.1841460 145.8866180  21.4303570  81.3894220 150.9533640  17.9135650
  81.1635140 150.7370810  18.8182270  80.6086750 151.3862100  17.5681620
  88.6191980 150.9597010  16.5126300  88.0200870 151.6832810  16.3289920
  89.1671590 150.8973790  15.7302750  83.8293430 151.8519220  28.5795920
  83.7337030 150.9113950  28.4296320  84.6725410 152.0734290  28.1843990
  87.2256850 149.5960550  18.5429580  87.6186420 149.9132750  17.7298270
  87.5873700 148.7172430  18.6574100  78.9603970 148.2632890  26.7329700
  78.5667360 149.1108100  26.9402480  78.2722370 147.6259260  26.9238340
  85.5349020 148.3467860  29.8026440  84.8447340 148.1540060  30.4372530
  86.2781320 148.6302500  30.3350740  76.2621020 146.1861350  20.7659780
  75.9734070 146.7564210  21.4784760  77.0066780 145.7065800  21.1291010
  76.4491250 150.1281470  11.9762500  76.3665920 151.0712230  12.1177490
  76.0974310 149.9856380  11.0974850  87.8111990 152.1866300  22.6380360
  87.0793110 152.6953110  22.9870460  87.4136330 151.3696280  22.3369140
  84.2489380 148.8620500  21.0432850  84.2525440 148.4210450  20.1937390
  85.1440500 149.1837830  21.1504670  80.0991760 148.7446990  20.0027060
  79.7591810 149.2222220  20.7594110  79.3369080 148.2912110  19.6428160
  84.3109530 149.8632580  14.0339610  84.4322350 149.8219060  14.9825430
  83.9258040 150.7256730  13.8786340  88.2737900 147.6399980  22.0503300
  88.2910640 148.0908630  22.8945150  88.0253480 146.7405620  22.2636740
  83.3231030 152.1733720  13.4322910  82.7547930 151.7251970  12.8058820
  84.0320030 152.5326500  12.8988060  91.7008650 145.0532160  27.8889680
  92.0254420 144.3221820  28.4147660  91.7365160 144.7345800  26.9870670
  84.5497350 152.9222280  22.7898260  84.9167480 152.4480850  23.5359600
  84.3602410 153.7963850  23.1306600  77.4137840 147.6665970  18.9191730
  77.1284760 147.3021640  19.7570350  77.3516700 146.9346430  18.3054870
  82.3396720 151.9630920  25.1082470  82.0353790 152.8422900  25.3332830
  83.2943180 152.0230710  25.1439910  87.0876430 146.5595230  15.6405100
  86.2741040 146.0608400  15.5650410  86.8938380 147.3993480  15.2241450
  89.8024820 150.9314880  13.9367260  90.6904440 151.2432110  13.7618600
  89.7729910 150.0587130  13.5447840  78.3960450 152.8033660  26.2553830
  78.0375390 153.4687510  26.8427170  78.1015010 151.9717210  26.6266450
  81.5973570 153.2617900  29.1393380  81.2973710 153.4075080  28.2421200
  82.3684810 152.7023190  29.0466770  92.0739090 152.2426720  13.4047120
  91.9902810 152.6740940  12.5543560  92.7933280 152.7025070  13.8373940
  76.9068500 152.8024920  12.8788430  77.7763350 153.0849720  13.1624350
  76.4158820 153.6160790  12.7637240  84.0703310 154.1898130  16.9996710
  84.5266090 155.0003380  17.2256900  83.7191520 153.8721270  17.8315200
  79.9715090 144.5335780  17.4719230  79.8429720 144.5253680  18.4204150
  79.1477110 144.8718870  17.1210240  76.9709020 146.2926900  26.9325930
  76.2567540 146.4923820  27.5378540  77.3904060 145.5166470  27.3040730
  88.4647800 148.7849210  24.6827380  88.8328620 147.9644420  25.0106950
  87.6046000 148.8451100  25.0983030  91.8309830 147.7406150  15.4914940
  91.2022990 147.8451820  14.7773170  91.3361750 147.9602930  16.2808820
  83.7993860 150.0192100  16.9072820  83.0910010 150.4878440  17.3486430
  84.0838340 149.3614110  17.5418010  85.4249790 151.4388800  24.9065350
  85.9235040 151.9134620  25.5717200  85.5672740 150.5152320  25.1135380
  87.8309290 146.7442760  18.3468610  87.7077070 146.7628890  17.3978120
  88.7793850 146.7921700  18.4667010  82.0028880 148.3277180  14.2823530
  82.8519410 148.7647330  14.2163720  81.6360150 148.6397440  15.1095590
  92.6316650 147.6556760  25.7493740  92.1290250 148.3962160  26.0887550
  93.4473310 148.0440760  25.4330530  90.9238660 152.8989940  19.1955100
  89.9828800 152.9140170  19.3702790  91.2382730 152.1125900  19.6415400
  80.9020300 154.5809540  12.7559060  81.6683570 154.4690900  13.3184490
  80.9794990 153.8847510  12.1035830  79.5967060 152.0134610  13.4391950
  79.6770650 151.0662120  13.5509350  80.4886810 152.3441490  13.5452610
  77.1237860 153.8349530  28.6748120  77.6276880 153.2556810  29.2464350
  76.3845280 154.1189760  29.2124490  79.1560940 151.9779120  29.5698190
  79.1966280 151.6792990  30.4783420  80.0106440 152.3786730  29.4105710
  82.9339330 154.5774670  14.7301700  83.3555750 154.4114540  15.5733090
  83.0590170 153.7674900  14.2356840  81.0966750 150.5571220  27.5372680
  80.5663210 150.0662170  26.9096020  81.7654820 150.9855420  27.0030610
  85.4466970 153.6012280  11.9778800  85.9672630 152.8861300  11.6119950
  86.0935370 154.2398150  12.2779310  90.4666980 152.3636840  29.3053020
  91.0487750 151.6089160  29.2173500  90.6428750 152.8944280  28.5284500
  81.5839050 147.5233590  27.6169970  81.4895920 146.9054340  26.8920840
  81.0036440 148.2499880  27.3899880  84.3500490 146.0806830  24.6497360
  83.9017790 146.1031090  23.8042910  83.7165690 145.6825850  25.2467660
  87.0923940 152.7077340  26.6547640  87.2120150 152.1118480  27.3942480
  87.9517940 152.7447030  26.2348940  89.4311840 153.2614530  25.2310150
  88.9047060 153.7857150  24.6275290  89.7743180 153.8941920  25.8619880
  81.8298230 150.6507900  11.6759860  81.6287290 149.7875260  12.0373200
  81.6590280 150.5641260  10.7381460  83.8592710 149.2498690  27.9123460
  84.4492400 148.9414540  28.6001280  83.0412950 148.7778440  28.0683360
  88.6786140 148.8664500  28.1456480  87.9901660 148.2046040  28.0806470
  89.3992160 148.4202770  28.5904940  89.3086540 145.4616130  14.2046740
  89.5888830 144.6184030  14.5606160  88.5352270 145.6939240  14.7185490
  80.6281030 147.7508520  11.6637740  80.9306930 147.7575950  10.7556890
  81.3675620 147.4006380  12.1605400  83.8465960 146.6943140  12.6493940
  83.4987960 146.0167130  12.0696390  84.0478730 146.2332650  13.4637330
  77.1871600 153.2230790  19.0458310  76.5320440 152.9542430  18.4018010
  78.0249550 153.1135270  18.5960290  90.1362040 148.0172080  13.2676800
  90.5546920 147.8303060  12.4273460  89.8298100 147.1651130  13.5779730
  93.6351770 152.9296220  16.9652600  93.2595370 152.1624150  16.5333890
  92.9054890 153.3118920  17.4527530  78.2247530 153.6083360  23.5861650
  78.5920570 153.5210760  24.4657670  77.6558350 152.8449910  23.4868510
  93.0251390 152.0767740  26.5992120  92.7937480 151.8480490  25.6990070
  93.2855940 152.9967290  26.5537010  77.7763530 150.5192450  27.4920070
  76.8819580 150.4859210  27.8313780  78.3161080 150.7179240  28.2571320
  91.4639460 147.3024170  29.3771820  92.3409640 147.3107570  29.7605820
  91.4760300 146.5655010  28.7664170  76.4009680 150.4329720  14.9883640
  75.4973760 150.6959920  14.8135300  76.8850300 150.7040890  14.2083600
  92.9102730 151.1553710  20.2659840  93.4340210 150.6616360  19.6350010
  93.4962150 151.2904070  21.0107410  93.0892450 151.2393580  23.7879390
  92.1395160 151.2057120  23.9024380  93.2705460 152.1493690  23.5529160
  78.9436890 149.4895260  12.8978020  79.6528590 149.0678480  12.4125300
  78.2276830 149.5570490  12.2661370  78.5911050 145.5434590  11.9380670
  79.3139180 146.0843530  12.2561890  78.8635570 145.2698010  11.0622210
  92.4002700 150.4127060  16.2052250  92.8961820 150.1797930  16.9901130
  92.2018770 149.5738900  15.7889890  78.2803240 144.7940780  21.8403290
  78.9279430 144.2438160  21.3998450  78.7005080 145.0483930  22.6619100
  93.8289860 149.0488010  18.7389930  93.7189140 148.8944050  19.6772200
  94.5897450 148.5208950  18.4965340  92.1755580 144.9882140  25.1972930
  92.8127800 145.6016280  25.5632120  92.3230470 145.0242800  24.2522160
  94.7180130 146.8795930  11.9796070  95.6429440 146.7477110  11.7714360
  94.6955920 146.9588750  12.9332520  94.7918620 147.6506590  14.6052780
  93.9970120 147.5851710  15.1345690  94.9961900 148.5857230  14.5938130
  78.0335240 144.9496450  24.5828610  77.6850060 145.4060270  25.3486790
  77.7022940 144.0553580  24.6651040  85.5460060 146.1408330  28.1048030
  85.4848950 146.7330160  28.8543440  86.4860440 146.0334290  27.9598290
  88.1834620 145.7978390  27.7440320  88.7975030 146.1157680  27.0821400
  88.7284180 145.3126980  28.3636180  78.7055880 144.4772650  27.8579380
  79.2538870 144.2960700  27.0945490  78.7711190 143.6866760  28.3935690
  88.9242660 144.3610530  24.0709610  88.0502500 144.6945640  23.8682540
  88.8153410 143.8883710  24.8961480  89.8314640 146.5681400  25.4551330
  89.5028000 145.7533160  25.0753060  90.7796940 146.5251210  25.3317020
  86.6717480 145.2780370  23.0102520  85.8889270 145.7525870  23.2899280
  86.3780410 144.3735200  22.9015700  91.2238550 145.9803470  21.0551610
  91.6646640 145.9248570  20.2073210  90.9546140 146.8961480  21.1261790
  93.0877120 145.6118710  19.0660430  93.0265520 144.6679930  18.9191450
  93.8669150 145.7198800  19.6113890  78.0157890 145.5827850  15.5316240
  78.7737250 145.6956730  14.9580270  77.5535060 146.4197050  15.4859670
  84.5571700 147.6967120  18.5218550  83.7446210 147.3224010  18.1814430
  85.0613340 146.9412200  18.8239740  89.0596680 144.3609570  19.7601620
  89.6626050 144.9329780  20.2350140  88.3189670 144.9249010  19.5375520
  92.2031280 144.7631130  15.0341900  92.3981910 145.6614580  15.3009330
  91.4161150 144.5318210  15.5274850  80.3883040 146.1091900  14.0718210
  80.9175800 145.3221700  13.9426160  81.0211360 146.7883090  14.3053740
  82.5820880 145.8467040  17.1263600  81.9523620 145.1454350  17.2933730
  82.0426020 146.6071170  16.9096760  82.7076440 145.1251020  29.5616090
  82.4260710 145.6284620  28.7976910  83.0896140 144.3272770  29.1958220
  89.3091900 144.5404600  30.1396560  89.1957350 144.8599210  31.0348080
  90.1261640 144.9417110  29.8433840  86.3468090 154.3376090   2.3840570
  85.5710190 153.8576530   2.6739140  86.9981020 153.6581740   2.2096730
  80.3633920 154.6495900   3.2616330  79.5318800 154.3944610   3.6612840
  80.9714900 154.7206670   3.9974250  76.7358880 152.2103440   2.9298420
  77.3074990 151.4425640   2.9302060  76.7360420 152.5092200   2.0205030
  77.9783750 147.6187800   4.7167350  77.7986590 146.7213550   4.9970110
  77.5763830 148.1659670   5.3914300  86.8182250 149.8203660   2.6179660
  87.1947070 148.9475540   2.5053330  86.7201760 150.1562360   1.7270100
  78.5970420 150.1148300   3.3249690  79.2780530 150.3786670   3.9437090
  78.2818470 149.2749170   3.6587700  82.7894990 151.1615660   2.4122280
  83.2973210 151.6596630   3.0527300  83.3208230 150.3850860   2.2361640
  94.8905920 149.3320850   6.1151630  94.1858090 149.7202560   5.5966740
  95.1563840 150.0271140   6.7172560  81.0731090 145.8014220   6.6785700
  81.0749530 146.3186610   5.8731600  80.2435400 145.3244400   6.6555630
  90.8367850 149.2554480   2.3235540  90.1323420 149.5439370   2.9038650
  91.1980010 150.0654590   1.9635100  80.7546420 147.5124180   4.6856150
  81.0963230 148.3566230   4.3910020  79.8162230 147.6607920   4.8021490
  93.9054770 148.7009270   2.7144750  92.9579680 148.7348250   2.8460180
  94.2304760 149.5148220   3.0994110  93.3336910 154.0190800   4.7207050
  92.5055540 154.0883890   4.2457180  93.9287390 154.6045110   4.2522880
  90.2978920 150.8060120   5.6661920  89.8850100 151.6313830   5.9201910
  89.5654870 150.2205160   5.4738280  81.1440330 150.3663230   4.3079630
  81.6954920 150.4758570   3.5332880  81.6583840 150.7400830   5.0234860
  80.8183060 153.8882590   7.9184970  80.6790830 154.7605390   8.2872370
  79.9364420 153.5455400   7.7732910  93.8235490 149.8576700   9.5484040
  93.2079760 150.3656370   9.0199500  93.5031910 148.9575030   9.4909980
  85.8849810 148.6968590   7.0146230  85.4229180 148.9051610   7.8266170
  85.4827920 147.8827940   6.7116900  90.8854320 149.9177540   8.1442890
  90.0347910 149.6183290   8.4651960  90.7256110 150.1619550   7.2326710
  87.9804030 151.4179290  10.2441680  88.3057440 150.5843040   9.9043910
  88.7684360 151.9407810  10.3920010  83.6355900 146.3747400   3.2700510
  83.9328230 147.2810230   3.1892530  84.1841460 145.8866180   2.6560080
  83.8293430 151.8519220   9.8052430  83.7337030 150.9113950   9.6552830
  84.6725410 152.0734290   9.4100500  78.9603970 148.2632890   7.9586210
  78.5667360 149.1108100   8.1658990  78.2722370 147.6259260   8.1494850
  85.5349020 148.3467860  11.0282950  84.8447340 148.1540060  11.6629040
  86.2781320 148.6302500  11.5607250  76.2621020 146.1861350   1.9916290
  75.9734070 146.7564210   2.7041270  77.0066780 145.7065800   2.3547520
  87.8111990 152.1866300   3.8636870  87.0793110 152.6953110   4.2126970
  87.4136330 151.3696280   3.5625650  84.2489380 148.8620500   2.2689360
  84.2525440 148.4210450   1.4193900  85.1440500 149.1837830   2.3761180
  88.2737900 147.6399980   3.2759810  88.2910640 148.0908630   4.1201660
  88.0253480 146.7405620   3.4893250  91.7008650 145.0532160   9.1146190
  92.0254420 144.3221820   9.6404170  91.7365160 144.7345800   8.2127180
  84.5497350 152.9222280   4.0154770  84.9167480 152.4480850   4.7616110
  84.3602410 153.7963850   4.3563110  82.3396720 151.9630920   6.3338980
  82.0353790 152.8422900   6.5589340  83.2943180 152.0230710   6.3696420
  78.3960450 152.8033660   7.4810340  78.0375390 153.4687510   8.0683680
  78.1015010 151.9717210   7.8522960  81.5973570 153.2617900  10.3649890
  81.2973710 153.4075080   9.4677710  82.3684810 152.7023190  10.2723280
  76.9709020 146.2926900   8.1582440  76.2567540 146.4923820   8.7635050
  77.3904060 145.5166470   8.5297240  88.4647800 148.7849210   5.9083890
  88.8328620 147.9644420   6.2363460  87.6046000 148.8451100   6.3239540
  85.4249790 151.4388800   6.1321860  85.9235040 151.9134620   6.7973710
  85.5672740 150.5152320   6.3391890  92.6316650 147.6556760   6.9750250
  92.1290250 148.3962160   7.3144060  93.4473310 148.0440760   6.6587040
  77.1237860 153.8349530   9.9004630  77.6276880 153.2556810  10.4720860
  76.3845280 154.1189760  10.4381000  79.1560940 151.9779120  10.7954700
  79.1966280 151.6792990  11.7039930  80.0106440 152.3786730  10.6362220
  81.0966750 150.5571220   8.7629190  80.5663210 150.0662170   8.1352530
  81.7654820 150.9855420   8.2287120  90.4666980 152.3636840  10.5309530
  91.0487750 151.6089160  10.4430010  90.6428750 152.8944280   9.7541010
  81.5839050 147.5233590   8.8426480  81.4895920 146.9054340   8.1177350
  81.0036440 148.2499880   8.6156390  84.3500490 146.0806830   5.8753870
  83.9017790 146.1031090   5.0299420  83.7165690 145.6825850   6.4724170
  87.0923940 152.7077340   7.8804150  87.2120150 152.1118480   8.6198990
  87.9517940 152.7447030   7.4605450  89.4311840 153.2614530   6.4566660
  88.9047060 153.7857150   5.8531800  89.7743180 153.8941920   7.0876390
  83.8592710 149.2498690   9.1379970  84.4492400 148.9414540   9.8257790
  83.0412950 148.7778440   9.2939870  88.6786140 148.8664500   9.3712990
  87.9901660 148.2046040   9.3062980  89.3992160 148.4202770   9.8161450
  78.2247530 153.6083360   4.8118160  78.5920570 153.5210760   5.6914180
  77.6558350 152.8449910   4.7125020  93.0251390 152.0767740   7.8248630
  92.7937480 151.8480490   6.9246580  93.2855940 152.9967290   7.7793520
  77.7763530 150.5192450   8.7176580  76.8819580 150.4859210   9.0570290
  78.3161080 150.7179240   9.4827830  91.4639460 147.3024170  10.6028330
  92.3409640 147.3107570  10.9862330  91.4760300 146.5655010   9.9920680
  93.0892450 151.2393580   5.0135900  92.1395160 151.2057120   5.1280890
  93.2705460 152.1493690   4.7785670  78.2803240 144.7940780   3.0659800
  78.9279430 144.2438160   2.6254960  78.7005080 145.0483930   3.8875610
  92.1755580 144.9882140   6.4229440  92.8127800 145.6016280   6.7888630
  92.3230470 145.0242800   5.4778670  78.0335240 144.9496450   5.8085120
  77.6850060 145.4060270   6.5743300  77.7022940 144.0553580   5.8907550
  85.5460060 146.1408330   9.3304540  85.4848950 146.7330160  10.0799950
  86.4860440 146.0334290   9.1854800  88.1834620 145.7978390   8.9696830
  88.7975030 146.1157680   8.3077910  88.7284180 145.3126980   9.5892690
  78.7055880 144.4772650   9.0835890  79.2538870 144.2960700   8.3202000
  78.7711190 143.6866760   9.6192200  88.9242660 144.3610530   5.2966120
  88.0502500 144.6945640   5.0939050  88.8153410 143.8883710   6.1217990
  89.8314640 146.5681400   6.6807840  89.5028000 145.7533160   6.3009570
  90.7796940 146.5251210   6.5573530  86.6717480 145.2780370   4.2359030
  85.8889270 145.7525870   4.5155790  86.3780410 144.3735200   4.1272210
  91.2238550 145.9803470   2.2808120  91.6646640 145.9248570   1.4329720
  90.9546140 146.8961480   2.3518300  82.7076440 145.1251020  10.7872600
  82.4260710 145.6284620  10.0233420  83.0896140 144.3272770  10.4214730
  89.3091900 144.5404600  11.3653070  89.1957350 144.8599210  12.2604590
  90.1261640 144.9417110  11.0690350  88.2150050 133.7853580 150.6979220
  88.1344100 132.8708190 150.4270930  87.8014470 134.2820650 149.9918930
  86.3468090 135.5632600 152.5788490  85.5710190 135.0833040 152.8687060
  86.9981020 134.8838250 152.4044650  90.3675520 139.9692790 151.3587620
  89.9057050 139.1980030 151.6874790  91.1801070 139.9958860 151.8640070
  78.7725870 130.8354300 147.2406640  77.8842570 131.1770270 147.1386520
  79.0567060 130.6354620 146.3487470  76.7358880 133.4359950 153.1246340
  77.3074990 132.6682150 153.1249980  76.7360420 133.7348710 152.2152950
  86.5938830 142.2550800 150.9791610  85.9750270 142.7108300 150.4086050
  87.4490610 142.4102260 150.5781310  85.7877080 138.2389790 152.5858650
  85.7185360 137.2979730 152.4247780  86.5496940 138.3291200 153.1581220
  86.8182250 131.0460170 152.8127580  87.1947070 130.1732050 152.7001250
  86.7201760 131.3818870 151.9218020  80.9487260 129.4185800 148.2745020
  81.0554010 130.3189530 148.5813780  80.0379620 129.3703770 147.9839670
  90.6006370 128.5410610 149.7455920  91.4215990 128.0507180 149.7881400
  90.6340450 129.1308270 150.4987760  87.4602180 137.1390040 148.3723520
  86.8419450 137.6039490 147.8086240  87.9725430 137.8317520 148.7893030
  90.8367850 130.4810990 152.5183460  90.1323420 130.7695880 153.0986570
  91.1980010 131.2911100 152.1583020  76.8285380 137.8246570 145.7463150
  76.4513360 138.3133670 145.0148050  77.0858450 138.4971850 146.3769680
  84.4374310 126.2262960 151.2048660  84.7449290 125.6709850 150.4884160
  83.5075010 126.3607420 151.0221650  91.2834790 138.6646470 148.5846290
  91.1731120 137.7220800 148.7095710  91.2803040 139.0262110 149.4709050
  86.8255070 134.2911790 147.9408780  85.8984350 134.2249170 148.1697250
  86.9779890 135.2291920 147.8264020  86.8124150 130.5628790 144.9375940
  85.8727820 130.7242750 145.0228400  87.1307410 131.2814470 144.3911930
  90.8552360 135.8532090 148.4444030  90.2364780 135.5151640 147.7970330
  90.8376810 135.2091850 149.1523220  82.4311710 134.8176530 150.7228510
  82.0268710 134.1053780 150.2274410  82.5174830 134.4729770 151.6116550
  82.8993410 138.5044090 152.8867720  82.6021700 137.8989560 152.2075500
  83.8493230 138.5421400 152.7757080  89.0317060 135.0918900 145.4516780
  89.4710340 134.2541330 145.3054600  89.7445480 135.7248300 145.5380920
  87.1412440 140.0314970 149.4198020  87.5808350 140.7739300 149.0053410
  87.0799330 140.2741540 150.3436980  92.6134200 126.3461710 143.7657820
  92.3006860 126.4388540 144.6656890  93.3746670 126.9242740 143.7155250
  79.1316340 133.7121510 148.2235160  79.0113940 134.4383600 147.6116430
  78.8217230 132.9424420 147.7463070  78.0149340 138.5836840 150.4409980
  77.6077420 138.7251430 149.5863580  78.9062350 138.2997000 150.2381190
  89.8082620 143.0184090 146.7761030  89.6483760 142.7287030 147.6742860
  89.6429330 142.2424220 146.2406260  82.2871000 142.7982620 148.5532650
  82.1113480 141.8818160 148.3400450  81.4326740 143.1569910 148.7930450
  89.5108750 140.5271650 145.3359030  88.8173910 140.5248940 144.6761310
  90.2531610 140.1030970 144.9053200  89.0758680 142.1534360 149.4107520
  89.5315630 141.3723740 149.7246140  89.4151200 142.8641180 149.9548700
  81.5980000 127.0556580 151.6058830  81.1548150 127.8366120 151.2743350
  82.1564990 127.3786470 152.3129770  84.7138820 126.6767280 146.4864660
  84.0893000 126.6727150 147.2117970  84.6268940 125.8098240 146.0900630
  81.3894220 132.1790150 149.3340080  81.1635140 131.9627320 150.2386700
  80.6086750 132.6118610 148.9886050  88.6191980 132.1853520 147.9330730
  88.0200870 132.9089320 147.7494350  89.1671590 132.1230300 147.1507180
  87.2256850 130.8217060 149.9634010  87.6186420 131.1389260 149.1502700
  87.5873700 129.9428940 150.0778530  76.2621020 127.4117860 152.1864210
  75.9734070 127.9820720 152.8989190  77.0066780 126.9322310 152.5495440
  76.4491250 131.3537980 143.3966930  76.3665920 132.2968740 143.5381920
  76.0974310 131.2112890 142.5179280  84.2489380 130.0877010 152.4637280
  84.2525440 129.6466960 151.6141820  85.1440500 130.4094340 152.5709100
  80.0991760 129.9703500 151.4231490  79.7591810 130.4478730 152.1798540
  79.3369080 129.5168620 151.0632590  84.3109530 131.0889090 145.4544040
  84.4322350 131.0475570 146.4029860  83.9258040 131.9513240 145.2990770
  83.3231030 133.3990230 144.8527340  82.7547930 132.9508480 144.2263250
  84.0320030 133.7583010 144.3192490  77.4137840 128.8922480 150.3396160
  77.1284760 128.5278150 151.1774780  77.3516700 128.1602940 149.7259300
  80.8678510 137.3948420 147.1253750  80.0940770 136.8546040 146.9652470
  81.5973140 136.8755030 146.7871510  91.6266490 136.3913780 152.9180140
  92.3465610 136.8869070 152.5276250  91.4248310 135.7131670 152.2734010
  87.0876430 127.7851740 147.0609530  86.2741040 127.2864910 146.9854840
  86.8938380 128.6249990 146.6445880  89.8024820 132.1571390 145.3571690
  90.6904440 132.4688620 145.1823030  89.7729910 131.2843640 144.9652270
  80.9115910 137.0628800 150.7632560  81.4294580 136.2597060 150.7089450
  80.4599930 137.0007940 151.6049390  85.7985410 138.3295080 146.0359860
  86.1401110 139.0737310 145.5403180  84.9698120 138.6426200 146.3984690
  92.0739090 133.4683230 144.8251550  91.9902810 133.8997450 143.9747990
  92.7933280 133.9281580 145.2578370  93.1026340 140.3225490 147.5533680
  92.4602500 139.6681110 147.8277400  92.7157000 140.7280580 146.7774350
  88.6812820 137.6510920 151.4005370  89.0336640 137.0539050 150.7406740
  87.7975150 137.3255150 151.5713620  84.7676100 138.4108610 148.8075780
  85.4547230 138.9577820 149.1883370  83.9808520 138.9549340 148.8425390
  76.9068500 134.0281430 144.2992860  77.7763350 134.3106230 144.5828780
  76.4158820 134.8417300 144.1841670  84.0703310 135.4154640 148.4201140
  84.5266090 136.2259890 148.6461330  83.7191520 135.0977780 149.2519630
  79.9715090 125.7592290 148.8923660  79.8429720 125.7510190 149.8408580
  79.1477110 126.0975380 148.5414670  91.4923720 139.2141950 144.0910030
  91.2661300 138.4972390 144.6834670  91.1019920 138.9654390 143.2531780
  77.2739750 143.2408810 144.8654490  77.6337390 143.8398150 144.2111760
  77.1332090 143.7868700 145.6389520  91.0739970 137.1313890 145.7524190
  90.7861670 137.5926580 146.5402070  91.8692140 136.6711660 146.0208410
  83.2908370 140.6240010 145.6828160  83.2818470 141.3569700 145.0672670
  82.3706730 140.3771590 145.7755120  78.8915010 135.8454900 146.4274920
  78.2842960 136.5853800 146.4370220  79.3664360 135.9354260 145.6013120
  91.8309830 128.9662660 146.9119370  91.2022990 129.0708330 146.1977600
  91.3361750 129.1859440 147.7013250  86.2767970 140.6868250 144.3453350
  86.3779950 140.4832240 143.4155330  85.3769710 140.4326530 144.5501130
  83.7993860 131.2448610 148.3277250  83.0910010 131.7134950 148.7690860
  84.0838340 130.5870620 148.9622440  87.8309290 127.9699270 149.7673040
  87.7077070 127.9885400 148.8182550  88.7793850 128.0178210 149.8871440
  84.9186080 143.2054570 149.0401020  85.1727580 143.1675960 148.1180390
  83.9698560 143.0787900 149.0329270  82.0028880 129.5533690 145.7027960
  82.8519410 129.9903840 145.6368150  81.6360150 129.8653950 146.5300020
  90.9238660 134.1246450 150.6159530  89.9828800 134.1396680 150.7907220
  91.2382730 133.3382410 151.0619830  80.9020300 135.8066050 144.1763490
  81.6683570 135.6947410 144.7388920  80.9794990 135.1104020 143.5240260
  79.5967060 133.2391120 144.8596380  79.6770650 132.2918630 144.9713780
  80.4886810 133.5698000 144.9657040  92.9264240 141.2955300 152.2913790
  93.0511660 142.1186470 152.7637600  93.7929800 141.0846030 151.9437940
  80.3981770 143.3886510 151.9630920  81.1344250 142.8401970 152.2339490
  80.7822690 144.2542520 151.8236910  77.2827250 139.4560080 147.8372430
  76.3567030 139.6981220 147.8277840  77.7483680 140.2834340 147.7157180
  83.5084080 142.5616820 143.7856490  84.3012690 142.8505650 143.3338280
  82.9888430 142.1308990 143.1068970  92.5614250 141.7886950 145.2093230
  92.2755760 141.3752090 144.3947410  92.3633800 142.7174660 145.0893750
  84.0261480 137.7820230 143.6498840  83.9212120 137.1672580 144.3760220
  83.8585700 137.2586120 142.8661850  87.2664210 136.8440260 144.2540830
  86.7174310 137.2909560 144.8983570  87.8883470 136.3389510 144.7778500
  82.9339330 135.8031180 146.1506130  83.3555750 135.6371050 146.9937520
  83.0590170 134.9931410 145.6561270  85.4466970 134.8268790 143.3983230
  85.9672630 134.1117810 143.0324380  86.0935370 135.4654660 143.6983740
  81.8298230 131.8764410 143.0964290  81.6287290 131.0131770 143.4577630
  81.6590280 131.7897770 142.1585890  89.3086540 126.6872640 145.6251170
  89.5888830 125.8440540 145.9810590  88.5352270 126.9195750 146.1389920
  80.6281030 128.9765030 143.0842170  80.9306930 128.9832460 142.1761320
  81.3675620 128.6262890 143.5809830  83.8465960 127.9199650 144.0698370
  83.4987960 127.2423640 143.4900820  84.0478730 127.4589160 144.8841760
  86.0115000 142.9080400 145.6884970  86.9065790 143.2465370 145.7103730
  86.0432630 142.1859810 145.0609250  79.6511160 138.2807450 143.9171970
  80.0886030 138.8237120 144.5729550  80.1358890 137.4554400 143.9268310
  76.8656960 141.0696480 151.3692230  77.1959970 140.2017540 151.1370870
  77.2947960 141.2755000 152.1997190  81.4618880 139.4005490 149.0294200
  81.1614420 139.2770460 149.9298110  81.3556370 138.5414080 148.6209930
  94.2310800 139.1801890 143.7320880  93.4003760 139.2478540 144.2028110
  94.4082630 140.0706010 143.4287740  93.6867260 135.9249370 146.2355080
  94.4486170 136.4946020 146.3414770  93.7021630 135.3576570 147.0063390
  77.1871600 134.4487300 150.4662740  76.5320440 134.1798940 149.8222440
  78.0249550 134.3391780 150.0164720  94.6927230 136.7799470 151.0797010
  95.0636060 135.9966790 150.6732980  95.3329160 137.4688570 150.9014310
  93.7386430 136.2183740 143.3927600  94.0135270 137.1262620 143.2646820
  93.5497170 136.1546270 144.3289590  90.1362040 129.2428590 144.6881230
  90.5546920 129.0559570 143.8477890  89.8298100 128.3907640 144.9984160
  93.6351770 134.1552730 148.3857030  93.2595370 133.3880660 147.9538320
  92.9054890 134.5375430 148.8731960  76.4009680 131.6586230 146.4088070
  75.4973760 131.9216430 146.2339730  76.8850300 131.9297400 145.6288030
  92.9102730 132.3810220 151.6864270  93.4340210 131.8872870 151.0554440
  93.4962150 132.5160580 152.4311840  78.9436890 130.7151770 144.3182450
  79.6528590 130.2934990 143.8329730  78.2276830 130.7827000 143.6865800
  78.5911050 126.7691100 143.3585100  79.3139180 127.3100040 143.6766320
  78.8635570 126.4954520 142.4826640  92.4002700 131.6383570 147.6256680
  92.8961820 131.4054440 148.4105560  92.2018770 130.7995410 147.2094320
  93.8289860 130.2744520 150.1594360  93.7189140 130.1200560 151.0976630
  94.5897450 129.7465460 149.9169770  94.7180130 128.1052440 143.4000500
  95.6429440 127.9733620 143.1918790  94.6955920 128.1845260 144.3536950
  94.7918620 128.8763100 146.0257210  93.9970120 128.8108220 146.5550120
  94.9961900 129.8113740 146.0142560  91.7337040 142.9154650 150.0195600
  92.3296110 142.5939220 149.3430020  91.9915190 142.4426470 150.8108870
  91.2238550 127.2059980 152.4756040  91.6646640 127.1505080 151.6277640
  90.9546140 128.1217990 152.5466220  93.0877120 126.8375220 150.4864860
  93.0265520 125.8936440 150.3395880  93.8669150 126.9455310 151.0318320
  77.3929870 142.9767580 149.4488810  77.2251910 142.3438260 150.1470700
  76.5264380 143.1826980 149.0983000  78.0157890 126.8084360 146.9520670
  78.7737250 126.9213240 146.3784700  77.5535060 127.6453560 146.9064100
  84.5571700 128.9223630 149.9422980  83.7446210 128.5480520 149.6018860
  85.0613340 128.1668710 150.2444170  89.0596680 125.5866080 151.1806050
  89.6626050 126.1586290 151.6554570  88.3189670 126.1505520 150.9579950
  92.2031280 125.9887640 146.4546330  92.3981910 126.8871090 146.7213760
  91.4161150 125.7574720 146.9479280  78.9992570 141.6700810 146.8938950
  78.4740190 142.0508840 146.1900910  78.9237150 142.2951580 147.6148660
  80.3883040 127.3348410 145.4922640  80.9175800 126.5478210 145.3630590
  81.0211360 128.0139600 145.7258170  82.5820880 127.0723550 148.5468030
  81.9523620 126.3710860 148.7138160  82.0426020 127.8327680 148.3301190
  93.7557890 143.2288350 148.2152890  93.9310080 142.5426090 147.5713810
  93.0579460 143.7535400 147.8229560  81.5985540 143.6183190 145.7688200
  82.3304360 143.3342470 145.2212090  81.8579210 143.3796470 146.6587580
  80.7600330 139.7347920 145.7734530  80.1309210 140.2033020 146.3220360
  80.8748160 138.8897140 146.2080720  88.2150050 133.7853580 131.9235730
  88.1344100 132.8708190 131.6527440  87.8014470 134.2820650 131.2175440
  86.3468090 135.5632600 133.8045000  85.5710190 135.0833040 134.0943570
  86.9981020 134.8838250 133.6301160  80.3633920 135.8752410 134.6820760
  79.5318800 135.6201120 135.0817270  80.9714900 135.9463180 135.4178680
  90.3675520 139.9692790 132.5844130  89.9057050 139.1980030 132.9131300
  91.1801070 139.9958860 133.0896580  80.3435180 139.9092500 134.8778780
  80.6463220 139.0190240 134.6989000  81.0878770 140.4662720 134.6501030
  78.7725870 130.8354300 128.4663150  77.8842570 131.1770270 128.3643030
  79.0567060 130.6354620 127.5743980  76.7358880 133.4359950 134.3502850
  77.3074990 132.6682150 134.3506490  76.7360420 133.7348710 133.4409460
  86.5938830 142.2550800 132.2048120  85.9750270 142.7108300 131.6342560
  87.4490610 142.4102260 131.8037820  85.7877080 138.2389790 133.8115160
  85.7185360 137.2979730 133.6504290  86.5496940 138.3291200 134.3837730
  77.9783750 128.8444310 136.1371780  77.7986590 127.9470060 136.4174540
  77.5763830 129.3916180 136.8118730  86.8182250 131.0460170 134.0384090
  87.1947070 130.1732050 133.9257760  86.7201760 131.3818870 133.1474530
  80.9487260 129.4185800 129.5001530  81.0554010 130.3189530 129.8070290
  80.0379620 129.3703770 129.2096180  90.6006370 128.5410610 130.9712430
  91.4215990 128.0507180 131.0137910  90.6340450 129.1308270 131.7244270
  78.5970420 131.3404810 134.7454120  79.2780530 131.6043180 135.3641520
  78.2818470 130.5005680 135.0792130  82.7894990 132.3872170 133.8326710
  83.2973210 132.8853140 134.4731730  83.3208230 131.6107370 133.6566070
  94.8905920 130.5577360 137.5356060  94.1858090 130.9459070 137.0171170
  95.1563840 131.2527650 138.1376990  81.0731090 127.0270730 138.0990130
  81.0749530 127.5443120 137.2936030  80.2435400 126.5500910 138.0760060
  87.4602180 137.1390040 129.5980030  86.8419450 137.6039490 129.0342750
  87.9725430 137.8317520 130.0149540  82.3233940 136.6665910 136.2763630
  81.9903320 137.2934830 136.9184700  82.5000620 137.1927790 135.4965300
  90.8367850 130.4810990 133.7439970  90.1323420 130.7695880 134.3243080
  91.1980010 131.2911100 133.3839530  80.7546420 128.7380690 136.1060580
  81.0963230 129.5822740 135.8114450  79.8162230 128.8864430 136.2225920
  81.5353040 138.6346710 138.0912810  82.1527040 139.3097790 137.8097260
  80.6746160 139.0434690 138.0000310  76.8285380 137.8246570 126.9719660
  76.4513360 138.3133670 126.2404560  77.0858450 138.4971850 127.6026190
  92.4530630 140.0986120 136.0067450  91.7694150 140.7685230 135.9984120
  92.9924920 140.2966770 135.2412310  93.9054770 129.9265780 134.1349180
  92.9579680 129.9604760 134.2664610  94.2304760 130.7404730 134.5198540
  84.4374310 126.2262960 132.4305170  84.7449290 125.6709850 131.7140670
  83.5075010 126.3607420 132.2478160  89.9889370 141.9430250 134.7212630
  90.0016530 141.5392540 133.8534890  89.4364590 142.7177540 134.6174060
  91.2834790 138.6646470 129.8102800  91.1731120 137.7220800 129.9352220
  91.2803040 139.0262110 130.6965560  89.3874810 136.8460090 136.0495240
  89.8043600 136.6320200 135.2148700  90.1114630 137.1032880 136.6203860
  86.8255070 134.2911790 129.1665290  85.8984350 134.2249170 129.3953760
  86.9779890 135.2291920 129.0520530  86.8124150 130.5628790 126.1632450
  85.8727820 130.7242750 126.2484910  87.1307410 131.2814470 125.6168440
  93.3336910 135.2447310 136.1411480  92.5055540 135.3140400 135.6661610
  93.9287390 135.8301620 135.6727310  90.8552360 135.8532090 129.6700540
  90.2364780 135.5151640 129.0226840  90.8376810 135.2091850 130.3779730
  90.2978920 132.0316630 137.0866350  89.8850100 132.8570340 137.3406340
  89.5654870 131.4461670 136.8942710  82.4311710 134.8176530 131.9485020
  82.0268710 134.1053780 131.4530920  82.5174830 134.4729770 132.8373060
  82.8993410 138.5044090 134.1124230  82.6021700 137.8989560 133.4332010
  83.8493230 138.5421400 134.0013590  81.1440330 131.5919740 135.7284060
  81.6954920 131.7015080 134.9537310  81.6583840 131.9657340 136.4439290
  90.9879020 142.0775960 137.7747330  90.5109580 142.8848150 137.5819940
  90.3040810 141.4254290 137.9273540  81.9911840 138.2425780 140.7632030
  81.0940370 138.4665750 141.0105430  82.0164710 138.3660720 139.8143430
  89.0317060 135.0918900 126.6773290  89.4710340 134.2541330 126.5311110
  89.7445480 135.7248300 126.7637430  80.8183060 135.1139100 139.3389400
  80.6790830 135.9861900 139.7076800  79.9364420 134.7711910 139.1937340
  87.1412440 140.0314970 130.6454530  87.5808350 140.7739300 130.2309920
  87.0799330 140.2741540 131.5693490  82.6163410 141.0560800 141.5474550
  82.5878840 141.4603750 140.6802980  82.4528380 140.1271160 141.3846150
  92.6134200 126.3461710 124.9914330  92.3006860 126.4388540 125.8913400
  93.3746670 126.9242740 124.9411760  79.1316340 133.7121510 129.4491670
  79.0113940 134.4383600 128.8372940  78.8217230 132.9424420 128.9719580
  94.5678230 141.8387900 142.8438720  95.0437950 142.3170790 143.5227800
  95.1885390 141.7705390 142.1184220  76.7701710 136.8836650 135.2560310
  76.8482130 137.0185420 134.3116030  77.3843390 136.1752540 135.4488430
  78.0149340 138.5836840 131.6666490  77.6077420 138.7251430 130.8120090
  78.9062350 138.2997000 131.4637700  93.9711480 139.0300750 140.0038730
  94.0974540 138.7912630 139.0855910  94.0132860 138.1985290 140.4760810
  87.8328220 142.7328750 138.5733540  88.3472890 142.6436760 139.3755970
  86.9897300 143.0788450 138.8661450  89.8082620 143.0184090 128.0017540
  89.6483760 142.7287030 128.8999370  89.6429330 142.2424220 127.4662770
  82.2871000 142.7982620 129.7789160  82.1113480 141.8818160 129.5656960
  81.4326740 143.1569910 130.0186960  89.5108750 140.5271650 126.5615540
  88.8173910 140.5248940 125.9017820  90.2531610 140.1030970 126.1309710
  89.0758680 142.1534360 130.6364030  89.5315630 141.3723740 130.9502650
  89.4151200 142.8641180 131.1805210  93.8235490 131.0833210 140.9688470
  93.2079760 131.5912880 140.4403930  93.5031910 130.1831540 140.9114410
  76.8261230 137.9250820 137.7954770  76.9892270 137.4556180 136.9774140
  77.2913680 137.4174380 138.4603610  81.5980000 127.0556580 132.8315340
  81.1548150 127.8366120 132.4999860  82.1564990 127.3786470 133.5386280
  85.8849810 129.9225100 138.4350660  85.4229180 130.1308120 139.2470600
  85.4827920 129.1084450 138.1321330  90.8854320 131.1434050 139.5647320
  90.0347910 130.8439800 139.8856390  90.7256110 131.3876060 138.6531140
  87.9804030 132.6435800 141.6646110  88.3057440 131.8099550 141.3248340
  88.7684360 133.1664320 141.8124440  84.7138820 126.6767280 127.7121170
  84.0893000 126.6727150 128.4374480  84.6268940 125.8098240 127.3157140
  83.6355900 127.6003910 134.6904940  83.9328230 128.5066740 134.6096960
  84.1841460 127.1122690 134.0764510  81.3894220 132.1790150 130.5596590
  81.1635140 131.9627320 131.4643210  80.6086750 132.6118610 130.2142560
  88.6191980 132.1853520 129.1587240  88.0200870 132.9089320 128.9750860
  89.1671590 132.1230300 128.3763690  83.8293430 133.0775730 141.2256860
  83.7337030 132.1370460 141.0757260  84.6725410 133.2990800 140.8304930
  87.2256850 130.8217060 131.1890520  87.6186420 131.1389260 130.3759210
  87.5873700 129.9428940 131.3035040  78.9603970 129.4889400 139.3790640
  78.5667360 130.3364610 139.5863420  78.2722370 128.8515770 139.5699280
  85.5349020 129.5724370 142.4487380  84.8447340 129.3796570 143.0833470
  86.2781320 129.8559010 142.9811680  76.2621020 127.4117860 133.4120720
  75.9734070 127.9820720 134.1245700  77.0066780 126.9322310 133.7751950
  76.4491250 131.3537980 124.6223440  76.3665920 132.2968740 124.7638430
  76.0974310 131.2112890 123.7435790  87.8111990 133.4122810 135.2841300
  87.0793110 133.9209620 135.6331400  87.4136330 132.5952790 134.9830080
  84.2489380 130.0877010 133.6893790  84.2525440 129.6466960 132.8398330
  85.1440500 130.4094340 133.7965610  80.0991760 129.9703500 132.6488000
  79.7591810 130.4478730 133.4055050  79.3369080 129.5168620 132.2889100
  84.3109530 131.0889090 126.6800550  84.4322350 131.0475570 127.6286370
  83.9258040 131.9513240 126.5247280  88.2737900 128.8656490 134.6964240
  88.2910640 129.3165140 135.5406090  88.0253480 127.9662130 134.9097680
  83.3231030 133.3990230 126.0783850  82.7547930 132.9508480 125.4519760
  84.0320030 133.7583010 125.5449000  91.7008650 126.2788670 140.5350620
  92.0254420 125.5478330 141.0608600  91.7365160 125.9602310 139.6331610
  78.4000210 137.3002250 139.9550580  78.0155000 136.6595920 140.5533540
  78.7112400 138.0038370 140.5245310  84.5497350 134.1478790 135.4359200
  84.9167480 133.6737360 136.1820540  84.3602410 135.0220360 135.7767540
  77.4137840 128.8922480 131.5652670  77.1284760 128.5278150 132.4031290
  77.3516700 128.1602940 130.9515810  82.3396720 133.1887430 137.7543410
  82.0353790 134.0679410 137.9793770  83.2943180 133.2487220 137.7900850
  80.8678510 137.3948420 128.3510260  80.0940770 136.8546040 128.1908980
  81.5973140 136.8755030 128.0128020  91.6266490 136.3913780 134.1436650
  92.3465610 136.8869070 133.7532760  91.4248310 135.7131670 133.4990520
  87.0876430 127.7851740 128.2866040  86.2741040 127.2864910 128.2111350
  86.8938380 128.6249990 127.8702390  87.0085290 136.4622840 140.0305650
  86.9422600 135.5418510 139.7763240  86.3790430 136.5598280 140.7450290
  89.8024820 132.1571390 126.5828200  90.6904440 132.4688620 126.4079540
  89.7729910 131.2843640 126.1908780  80.9115910 137.0628800 131.9889070
  81.4294580 136.2597060 131.9345960  80.4599930 137.0007940 132.8305900
  85.7985410 138.3295080 127.2616370  86.1401110 139.0737310 126.7659690
  84.9698120 138.6426200 127.6241200  78.3960450 134.0290170 138.9014770
  78.0375390 134.6944020 139.4888110  78.1015010 133.1973720 139.2727390
  81.5973570 134.4874410 141.7854320  81.2973710 134.6331590 140.8882140
  82.3684810 133.9279700 141.6927710  86.9402020 139.2843410 139.7809450
  86.9546560 138.3524370 139.5628360  86.2327120 139.3703170 140.4199220
  92.0739090 133.4683230 126.0508060  91.9902810 133.8997450 125.2004500
  92.7933280 133.9281580 126.4834880  93.1513230 135.9250750 139.1278030
  92.4261420 136.5179530 138.9307420  93.6788690 135.9174290 138.3291400
  93.1026340 140.3225490 128.7790190  92.4602500 139.6681110 129.0533910
  92.7157000 140.7280580 128.0030860  88.6812820 137.6510920 132.6261880
  89.0336640 137.0539050 131.9663250  87.7975150 137.3255150 132.7970130
  84.7676100 138.4108610 130.0332290  85.4547230 138.9577820 130.4139880
  83.9808520 138.9549340 130.0681900  76.9068500 134.0281430 125.5249370
  77.7763350 134.3106230 125.8085290  76.4158820 134.8417300 125.4098180
  84.0703310 135.4154640 129.6457650  84.5266090 136.2259890 129.8717840
  83.7191520 135.0977780 130.4776140  86.3735920 140.9260980 136.8749950
  87.0178140 141.1320360 137.5523370  86.7365360 140.1649380 136.4220800
  79.9715090 125.7592290 130.1180170  79.8429720 125.7510190 131.0665090
  79.1477110 126.0975380 129.7671180  87.6468000 138.9293330 135.5927400
  88.2890230 138.2286490 135.7059570  88.1717350 139.7091770 135.4124290
  91.4923720 139.2141950 125.3166540  91.2661300 138.4972390 125.9091180
  91.1019920 138.9654390 124.4788290  89.4205620 139.7288230 138.7963460
  89.7561860 140.3154920 139.4741380  88.5005960 139.5980940 139.0261250
  77.2739750 143.2408810 126.0911000  77.6337390 143.8398150 125.4368270
  77.1332090 143.7868700 126.8646030  76.9709020 127.5183410 139.5786870
  76.2567540 127.7180330 140.1839480  77.3904060 126.7422980 139.9501670
  91.0739970 137.1313890 126.9780700  90.7861670 137.5926580 127.7658580
  91.8692140 136.6711660 127.2464920  77.2581610 141.5063670 140.5653400
  77.3672730 140.5658410 140.4248790  76.6062170 141.7718420 139.9167130
  85.2494200 139.7779560 141.9651520  84.9291070 139.0588800 142.5097210
  84.5752560 140.4534630 142.0387580  83.2908370 140.6240010 126.9084670
  83.2818470 141.3569700 126.2929180  82.3706730 140.3771590 127.0011630
  78.8915010 135.8454900 127.6531430  78.2842960 136.5853800 127.6626730
  79.3664360 135.9354260 126.8269630  88.4647800 130.0105720 137.3288320
  88.8328620 129.1900930 137.6567890  87.6046000 130.0707610 137.7443970
  91.8309830 128.9662660 128.1375880  91.2022990 129.0708330 127.4234110
  91.3361750 129.1859440 128.9269760  86.2767970 140.6868250 125.5709860
  86.3779950 140.4832240 124.6411840  85.3769710 140.4326530 125.7757640
  83.7993860 131.2448610 129.5533760  83.0910010 131.7134950 129.9947370
  84.0838340 130.5870620 130.1878950  85.4249790 132.6645310 137.5526290
  85.9235040 133.1391130 138.2178140  85.5672740 131.7408830 137.7596320
  87.8309290 127.9699270 130.9929550  87.7077070 127.9885400 130.0439060
  88.7793850 128.0178210 131.1127950  84.9186080 143.2054570 130.2657530
  85.1727580 143.1675960 129.3436900  83.9698560 143.0787900 130.2585780
  82.0028880 129.5533690 126.9284470  82.8519410 129.9903840 126.8624660
  81.6360150 129.8653950 127.7556530  92.6316650 128.8813270 138.3954680
  92.1290250 129.6218670 138.7348490  93.4473310 129.2697270 138.0791470
  90.9238660 134.1246450 131.8416040  89.9828800 134.1396680 132.0163730
  91.2382730 133.3382410 132.2876340  80.9020300 135.8066050 125.4020000
  81.6683570 135.6947410 125.9645430  80.9794990 135.1104020 124.7496770
  79.5967060 133.2391120 126.0852890  79.6770650 132.2918630 126.1970290
  80.4886810 133.5698000 126.1913550  92.9264240 141.2955300 133.5170300
  93.0511660 142.1186470 133.9894110  93.7929800 141.0846030 133.1694450
  80.3981770 143.3886510 133.1887430  81.1344250 142.8401970 133.4596000
  80.7822690 144.2542520 133.0493420  77.2827250 139.4560080 129.0628940
  76.3567030 139.6981220 129.0534350  77.7483680 140.2834340 128.9413690
  79.4040050 142.5732580 142.3773010  80.2052780 142.8944630 142.7908410
  78.8891870 142.2128160 143.0992920  83.5084080 142.5616820 125.0113000
  84.3012690 142.8505650 124.5594790  82.9888430 142.1308990 124.3325480
  88.2404680 138.6812450 142.3248420  87.6342840 138.7044050 141.5844170
  87.9358790 137.9495490 142.8615670  89.6705050 142.4092740 140.9357830
  90.6226800 142.3250760 140.8858070  89.5233270 143.0734450 141.6091620
  92.5614250 141.7886950 126.4349740  92.2755760 141.3752090 125.6203920
  92.3633800 142.7174660 126.3150260  77.1237860 135.0606040 141.3209060
  77.6276880 134.4813320 141.8925290  76.3845280 135.3446270 141.8585430
  84.0261480 137.7820230 124.8755350  83.9212120 137.1672580 125.6016730
  83.8585700 137.2586120 124.0918360  84.1775800 136.4677030 140.8544580
  83.4121470 137.0362030 140.7699250  84.3591760 136.1753240 139.9612810
  87.2664210 136.8440260 125.4797340  86.7174310 137.2909560 126.1240080
  87.8883470 136.3389510 126.0035010  91.3199150 138.1982360 141.4119600
  92.0608620 138.5358120 140.9087060  90.5571830 138.3674420 140.8589370
  79.1560940 133.2035630 142.2159130  79.1966280 132.9049500 143.1244360
  80.0106440 133.6043240 142.0566650  82.9339330 135.8031180 127.3762640
  83.3555750 135.6371050 128.2194030  83.0590170 134.9931410 126.8817780
  81.0966750 131.7827730 140.1833620  80.5663210 131.2918680 139.5556960
  81.7654820 132.2111930 139.6491550  85.4466970 134.8268790 124.6239740
  85.9672630 134.1117810 124.2580890  86.0935370 135.4654660 124.9240250
  89.9944810 136.2497190 139.9474810  90.4085830 136.4042270 140.7965230
  89.0595810 136.3752410 140.1100590  90.4666980 133.5893350 141.9513960
  91.0487750 132.8345670 141.8634440  90.6428750 134.1200790 141.1745440
  81.5839050 128.7490100 140.2630910  81.4895920 128.1310850 139.5381780
  81.0036440 129.4756390 140.0360820  84.3500490 127.3063340 137.2958300
  83.9017790 127.3287600 136.4503850  83.7165690 126.9082360 137.8928600
  84.7560040 136.2017670 137.9170740  85.1748150 137.0450400 137.7446980
  83.8368670 136.3389710 137.6877520  87.0923940 133.9333850 139.3008580
  87.2120150 133.3374990 140.0403420  87.9517940 133.9703540 138.8809880
  89.4311840 134.4871040 137.8771090  88.9047060 135.0113660 137.2736230
  89.7743180 135.1198430 138.5080820  81.8298230 131.8764410 124.3220800
  81.6287290 131.0131770 124.6834140  81.6590280 131.7897770 123.3842400
  82.6067460 142.5070680 139.0328470  82.0688550 143.2316740 138.7137170
  82.8601420 142.0301020 138.2425810  83.8592710 130.4755200 140.5584400
  84.4492400 130.1671050 141.2462220  83.0412950 130.0034950 140.7144300
  88.6786140 130.0921010 140.7917420  87.9901660 129.4302550 140.7267410
  89.3992160 129.6459280 141.2365880  89.3086540 126.6872640 126.8507680
  89.5888830 125.8440540 127.2067100  88.5352270 126.9195750 127.3646430
  80.6281030 128.9765030 124.3098680  80.9306930 128.9832460 123.4017830
  81.3675620 128.6262890 124.8066340  85.4629670 143.7421890 139.2915120
  85.3888370 144.6457030 139.5987490  84.5608510 143.4233790 139.2637190
  83.8465960 127.9199650 125.2954880  83.4987960 127.2423640 124.7157330
  84.0478730 127.4589160 126.1098270  86.0115000 142.9080400 126.9141480
  86.9065790 143.2465370 126.9360240  86.0432630 142.1859810 126.2865760
  79.6511160 138.2807450 125.1428480  80.0886030 138.8237120 125.7986060
  80.1358890 137.4554400 125.1524820  76.8656960 141.0696480 132.5948740
  77.1959970 140.2017540 132.3627380  77.2947960 141.2755000 133.4253700
  81.4618880 139.4005490 130.2550710  81.1614420 139.2770460 131.1554620
  81.3556370 138.5414080 129.8466440  77.3547170 141.9367070 135.3330370
  76.9178160 142.1167870 136.1654520  77.9224850 142.6941690 135.1912090
  92.9909350 141.4384070 139.6207680  92.3911340 141.4976630 138.8771600
  93.1203250 140.4989050 139.7504530  94.2310800 139.1801890 124.9577390
  93.4003760 139.2478540 125.4284620  94.4082630 140.0706010 124.6544250
  93.6867260 135.9249370 127.4611590  94.4486170 136.4946020 127.5671280
  93.7021630 135.3576570 128.2319900  77.1871600 134.4487300 131.6919250
  76.5320440 134.1798940 131.0478950  78.0249550 134.3391780 131.2421230
  94.6927230 136.7799470 132.3053520  95.0636060 135.9966790 131.8989490
  95.3329160 137.4688570 132.1270820  91.6760990 138.1636050 137.7183840
  90.8620830 138.5933210 137.9809630  92.0835190 138.7754460 137.1052890
  93.7386430 136.2183740 124.6184110  94.0135270 137.1262620 124.4903330
  93.5497170 136.1546270 125.5546100  90.1362040 129.2428590 125.9137740
  90.5546920 129.0559570 125.0734400  89.8298100 128.3907640 126.2240670
  93.6351770 134.1552730 129.6113540  93.2595370 133.3880660 129.1794830
  92.9054890 134.5375430 130.0988470  78.2247530 134.8339870 136.2322590
  78.5920570 134.7467270 137.1118610  77.6558350 134.0706420 136.1329450
  93.0251390 133.3024250 139.2453060  92.7937480 133.0737000 138.3451010
  93.2855940 134.2223800 139.1997950  77.7763530 131.7448960 140.1381010
  76.8819580 131.7115720 140.4774720  78.3161080 131.9435750 140.9032260
  91.4639460 128.5280680 142.0232760  92.3409640 128.5364080 142.4066760
  91.4760300 127.7911520 141.4125110  76.4009680 131.6586230 127.6344580
  75.4973760 131.9216430 127.4596240  76.8850300 131.9297400 126.8544540
  92.9102730 132.3810220 132.9120780  93.4340210 131.8872870 132.2810950
  93.4962150 132.5160580 133.6568350  93.0892450 132.4650090 136.4340330
  92.1395160 132.4313630 136.5485320  93.2705460 133.3750200 136.1990100
  78.9436890 130.7151770 125.5438960  79.6528590 130.2934990 125.0586240
  78.2276830 130.7827000 124.9122310  78.5911050 126.7691100 124.5841610
  79.3139180 127.3100040 124.9022830  78.8635570 126.4954520 123.7083150
  92.4002700 131.6383570 128.8513190  92.8961820 131.4054440 129.6362070
  92.2018770 130.7995410 128.4350830  78.2803240 126.0197290 134.4864230
  78.9279430 125.4694670 134.0459390  78.7005080 126.2740440 135.3080040
  93.8289860 130.2744520 131.3850870  93.7189140 130.1200560 132.3233140
  94.5897450 129.7465460 131.1426280  92.1755580 126.2138650 137.8433870
  92.8127800 126.8272790 138.2093060  92.3230470 126.2499310 136.8983100
  94.7180130 128.1052440 124.6257010  95.6429440 127.9733620 124.4175300
  94.6955920 128.1845260 125.5793460  94.7918620 128.8763100 127.2513720
  93.9970120 128.8108220 127.7806630  94.9961900 129.8113740 127.2399070
  91.7337040 142.9154650 131.2452110  92.3296110 142.5939220 130.5686530
  91.9915190 142.4426470 132.0365380  78.0335240 126.1752960 137.2289550
  77.6850060 126.6316780 137.9947730  77.7022940 125.2810090 137.3111980
  79.6399610 139.3472560 141.3942740  79.5969240 138.9765470 142.2757200
  79.7710620 140.2850130 141.5344560  83.3405640 140.9032150 136.9952460
  83.0997000 141.1706710 136.1082980  84.2808280 141.0737880 137.0503320
  85.5460060 127.3664840 140.7508970  85.4848950 127.9586670 141.5004380
  86.4860440 127.2590800 140.6059230  88.1834620 127.0234900 140.3901260
  88.7975030 127.3414190 139.7282340  88.7284180 126.5383490 141.0097120
  94.6009800 142.9226530 137.7963100  94.1068080 143.3195400 137.0790230
  93.9923090 142.2975740 138.1900380  78.7055880 125.7029160 140.5040320
  79.2538870 125.5217210 139.7406430  78.7711190 124.9123270 141.0396630
  79.4787640 142.2934810 138.5140520  78.8847960 142.1619510 139.2530560
  79.4711480 141.4572950 138.0482620  88.9242660 125.5867040 136.7170550
  88.0502500 125.9202150 136.5143480  88.8153410 125.1140220 137.5422420
  89.8314640 127.7937910 138.1012270  89.5028000 126.9789670 137.7214000
  90.7796940 127.7507720 137.9777960  92.2849250 143.5649950 135.0749840
  91.8252220 144.3165760 134.7007860  91.6561710 142.8456420 135.0164640
  79.1099870 139.6593190 137.4648560  78.3833930 139.0398480 137.3974510
  79.1709020 140.0533800 136.5946640  82.7144970 141.8738190 134.2497970
  83.2309990 141.2625550 133.7246230  83.3642350 142.3766970 134.7408980
  85.4540470 142.7646680 135.0766950  85.7418280 142.5100980 134.1999960
  85.9663690 142.2124040 135.6672520  86.6717480 126.5036880 135.6563460
  85.8889270 126.9782380 135.9360220  86.3780410 125.5991710 135.5476640
  91.2238550 127.2059980 133.7012550  91.6646640 127.1505080 132.8534150
  90.9546140 128.1217990 133.7722730  93.0877120 126.8375220 131.7121370
  93.0265520 125.8936440 131.5652390  93.8669150 126.9455310 132.2574830
  77.3929870 142.9767580 130.6745320  77.2251910 142.3438260 131.3727210
  76.5264380 143.1826980 130.3239510  78.0157890 126.8084360 128.1777180
  78.7737250 126.9213240 127.6041210  77.5535060 127.6453560 128.1320610
  84.5571700 128.9223630 131.1679490  83.7446210 128.5480520 130.8275370
  85.0613340 128.1668710 131.4700680  89.0596680 125.5866080 132.4062560
  89.6626050 126.1586290 132.8811080  88.3189670 126.1505520 132.1836460
  92.2031280 125.9887640 127.6802840  92.3981910 126.8871090 127.9470270
  91.4161150 125.7574720 128.1735790  78.9992570 141.6700810 128.1195460
  78.4740190 142.0508840 127.4157420  78.9237150 142.2951580 128.8405170
  80.3883040 127.3348410 126.7179150  80.9175800 126.5478210 126.5887100
  81.0211360 128.0139600 126.9514680  82.5820880 127.0723550 129.7724540
  81.9523620 126.3710860 129.9394670  82.0426020 127.8327680 129.5557700
  85.5212830 143.6862780 142.4435150  86.4480140 143.4507050 142.4871110
  85.5063260 144.5134780 141.9621180  93.7557890 143.2288350 129.4409400
  93.9310080 142.5426090 128.7970320  93.0579460 143.7535400 129.0486070
  82.7076440 126.3507530 142.2077030  82.4260710 126.8541130 141.4437850
  83.0896140 125.5529280 141.8419160  81.5985540 143.6183190 126.9944710
  82.3304360 143.3342470 126.4468600  81.8579210 143.3796470 127.8844090
  80.7600330 139.7347920 126.9991040  80.1309210 140.2033020 127.5476870
  80.8748160 138.8897140 127.4337230  89.3091900 125.7661110 142.7857500
  89.1957350 126.0855720 143.6809020  90.1261640 126.1673620 142.4894780
  92.0890390 142.9132640 142.2676190  92.8815710 142.4181870 142.0602150
  92.3823540 143.5922780 142.8751800  88.2150050 133.7853580 113.1492240
  88.1344100 132.8708190 112.8783950  87.8014470 134.2820650 112.4431950
  86.3468090 135.5632600 115.0301510  85.5710190 135.0833040 115.3200080
  86.9981020 134.8838250 114.8557670  80.3633920 135.8752410 115.9077270
  79.5318800 135.6201120 116.3073780  80.9714900 135.9463180 116.6435190
  90.3675520 139.9692790 113.8100640  89.9057050 139.1980030 114.1387810
  91.1801070 139.9958860 114.3153090  80.3435180 139.9092500 116.1035290
  80.6463220 139.0190240 115.9245510  81.0878770 140.4662720 115.8757540
  78.7725870 130.8354300 109.6919660  77.8842570 131.1770270 109.5899540
  79.0567060 130.6354620 108.8000490  76.7358880 133.4359950 115.5759360
  77.3074990 132.6682150 115.5763000  76.7360420 133.7348710 114.6665970
  86.5938830 142.2550800 113.4304630  85.9750270 142.7108300 112.8599070
  87.4490610 142.4102260 113.0294330  85.7877080 138.2389790 115.0371670
  85.7185360 137.2979730 114.8760800  86.5496940 138.3291200 115.6094240
  77.9783750 128.8444310 117.3628290  77.7986590 127.9470060 117.6431050
  77.5763830 129.3916180 118.0375240  86.8182250 131.0460170 115.2640600
  87.1947070 130.1732050 115.1514270  86.7201760 131.3818870 114.3731040
  80.9487260 129.4185800 110.7258040  81.0554010 130.3189530 111.0326800
  80.0379620 129.3703770 110.4352690  90.6006370 128.5410610 112.1968940
  91.4215990 128.0507180 112.2394420  90.6340450 129.1308270 112.9500780
  78.5970420 131.3404810 115.9710630  79.2780530 131.6043180 116.5898030
  78.2818470 130.5005680 116.3048640  82.7894990 132.3872170 115.0583220
  83.2973210 132.8853140 115.6988240  83.3208230 131.6107370 114.8822580
  94.8905920 130.5577360 118.7612570  94.1858090 130.9459070 118.2427680
  95.1563840 131.2527650 119.3633500  81.0731090 127.0270730 119.3246640
  81.0749530 127.5443120 118.5192540  80.2435400 126.5500910 119.3016570
  87.4602180 137.1390040 110.8236540  86.8419450 137.6039490 110.2599260
  87.9725430 137.8317520 111.2406050  82.3233940 136.6665910 117.5020140
  81.9903320 137.2934830 118.1441210  82.5000620 137.1927790 116.7221810
  90.8367850 130.4810990 114.9696480  90.1323420 130.7695880 115.5499590
  91.1980010 131.2911100 114.6096040  80.7546420 128.7380690 117.3317090
  81.0963230 129.5822740 117.0370960  79.8162230 128.8864430 117.4482430
  81.5353040 138.6346710 119.3169320  82.1527040 139.3097790 119.0353770
  80.6746160 139.0434690 119.2256820  76.8285380 137.8246570 108.1976170
  76.4513360 138.3133670 107.4661070  77.0858450 138.4971850 108.8282700
  92.4530630 140.0986120 117.2323960  91.7694150 140.7685230 117.2240630
  92.9924920 140.2966770 116.4668820  93.9054770 129.9265780 115.3605690
  92.9579680 129.9604760 115.4921120  94.2304760 130.7404730 115.7455050
  84.4374310 126.2262960 113.6561680  84.7449290 125.6709850 112.9397180
  83.5075010 126.3607420 113.4734670  89.9889370 141.9430250 115.9469140
  90.0016530 141.5392540 115.0791400  89.4364590 142.7177540 115.8430570
  91.2834790 138.6646470 111.0359310  91.1731120 137.7220800 111.1608730
  91.2803040 139.0262110 111.9222070  89.3874810 136.8460090 117.2751750
  89.8043600 136.6320200 116.4405210  90.1114630 137.1032880 117.8460370
  86.8255070 134.2911790 110.3921800  85.8984350 134.2249170 110.6210270
  86.9779890 135.2291920 110.2777040  86.8124150 130.5628790 107.3888960
  85.8727820 130.7242750 107.4741420  87.1307410 131.2814470 106.8424950
  93.3336910 135.2447310 117.3667990  92.5055540 135.3140400 116.8918120
  93.9287390 135.8301620 116.8983820  90.8552360 135.8532090 110.8957050
  90.2364780 135.5151640 110.2483350  90.8376810 135.2091850 111.6036240
  90.2978920 132.0316630 118.3122860  89.8850100 132.8570340 118.5662850
  89.5654870 131.4461670 118.1199220  82.4311710 134.8176530 113.1741530
  82.0268710 134.1053780 112.6787430  82.5174830 134.4729770 114.0629570
  82.8993410 138.5044090 115.3380740  82.6021700 137.8989560 114.6588520
  83.8493230 138.5421400 115.2270100  81.1440330 131.5919740 116.9540570
  81.6954920 131.7015080 116.1793820  81.6583840 131.9657340 117.6695800
  90.9879020 142.0775960 119.0003840  90.5109580 142.8848150 118.8076450
  90.3040810 141.4254290 119.1530050  81.9911840 138.2425780 121.9888540
  81.0940370 138.4665750 122.2361940  82.0164710 138.3660720 121.0399940
  89.0317060 135.0918900 107.9029800  89.4710340 134.2541330 107.7567620
  89.7445480 135.7248300 107.9893940  80.8183060 135.1139100 120.5645910
  80.6790830 135.9861900 120.9333310  79.9364420 134.7711910 120.4193850
  87.1412440 140.0314970 111.8711040  87.5808350 140.7739300 111.4566430
  87.0799330 140.2741540 112.7950000  82.6163410 141.0560800 122.7731060
  82.5878840 141.4603750 121.9059490  82.4528380 140.1271160 122.6102660
  92.6134200 126.3461710 106.2170840  92.3006860 126.4388540 107.1169910
  93.3746670 126.9242740 106.1668270  79.1316340 133.7121510 110.6748180
  79.0113940 134.4383600 110.0629450  78.8217230 132.9424420 110.1976090
  94.5678230 141.8387900 124.0695230  95.0437950 142.3170790 124.7484310
  95.1885390 141.7705390 123.3440730  76.7701710 136.8836650 116.4816820
  76.8482130 137.0185420 115.5372540  77.3843390 136.1752540 116.6744940
  78.0149340 138.5836840 112.8923000  77.6077420 138.7251430 112.0376600
  78.9062350 138.2997000 112.6894210  93.9711480 139.0300750 121.2295240
  94.0974540 138.7912630 120.3112420  94.0132860 138.1985290 121.7017320
  87.8328220 142.7328750 119.7990050  88.3472890 142.6436760 120.6012480
  86.9897300 143.0788450 120.0917960  89.8082620 143.0184090 109.2274050
  89.6483760 142.7287030 110.1255880  89.6429330 142.2424220 108.6919280
  82.2871000 142.7982620 111.0045670  82.1113480 141.8818160 110.7913470
  81.4326740 143.1569910 111.2443470  89.5108750 140.5271650 107.7872050
  88.8173910 140.5248940 107.1274330  90.2531610 140.1030970 107.3566220
  89.0758680 142.1534360 111.8620540  89.5315630 141.3723740 112.1759160
  89.4151200 142.8641180 112.4061720  93.8235490 131.0833210 122.1944980
  93.2079760 131.5912880 121.6660440  93.5031910 130.1831540 122.1370920
  76.8261230 137.9250820 119.0211280  76.9892270 137.4556180 118.2030650
  77.2913680 137.4174380 119.6860120  81.5980000 127.0556580 114.0571850
  81.1548150 127.8366120 113.7256370  82.1564990 127.3786470 114.7642790
  85.8849810 129.9225100 119.6607170  85.4229180 130.1308120 120.4727110
  85.4827920 129.1084450 119.3577840  90.8854320 131.1434050 120.7903830
  90.0347910 130.8439800 121.1112900  90.7256110 131.3876060 119.8787650
  87.9804030 132.6435800 122.8902620  88.3057440 131.8099550 122.5504850
  88.7684360 133.1664320 123.0380950  84.7138820 126.6767280 108.9377680
  84.0893000 126.6727150 109.6630990  84.6268940 125.8098240 108.5413650
  83.6355900 127.6003910 115.9161450  83.9328230 128.5066740 115.8353470
  84.1841460 127.1122690 115.3021020  81.3894220 132.1790150 111.7853100
  81.1635140 131.9627320 112.6899720  80.6086750 132.6118610 111.4399070
  88.6191980 132.1853520 110.3843750  88.0200870 132.9089320 110.2007370
  89.1671590 132.1230300 109.6020200  83.8293430 133.0775730 122.4513370
  83.7337030 132.1370460 122.3013770  84.6725410 133.2990800 122.0561440
  87.2256850 130.8217060 112.4147030  87.6186420 131.1389260 111.6015720
  87.5873700 129.9428940 112.5291550  78.9603970 129.4889400 120.6047150
  78.5667360 130.3364610 120.8119930  78.2722370 128.8515770 120.7955790
  85.5349020 129.5724370 123.6743890  84.8447340 129.3796570 124.3089980
  86.2781320 129.8559010 124.2068190  87.8111990 133.4122810 116.5097810
  87.0793110 133.9209620 116.8587910  87.4136330 132.5952790 116.2086590
  84.2489380 130.0877010 114.9150300  84.2525440 129.6466960 114.0654840
  85.1440500 130.4094340 115.0222120  80.0991760 129.9703500 113.8744510
  79.7591810 130.4478730 114.6311560  79.3369080 129.5168620 113.5145610
  84.3109530 131.0889090 107.9057060  84.4322350 131.0475570 108.8542880
  83.9258040 131.9513240 107.7503790  88.2737900 128.8656490 115.9220750
  88.2910640 129.3165140 116.7662600  88.0253480 127.9662130 116.1354190
  83.3231030 133.3990230 107.3040360  82.7547930 132.9508480 106.6776270
  84.0320030 133.7583010 106.7705510  91.7008650 126.2788670 121.7607130
  92.0254420 125.5478330 122.2865110  91.7365160 125.9602310 120.8588120
  78.4000210 137.3002250 121.1807090  78.0155000 136.6595920 121.7790050
  78.7112400 138.0038370 121.7501820  84.5497350 134.1478790 116.6615710
  84.9167480 133.6737360 117.4077050  84.3602410 135.0220360 117.0024050
  77.4137840 128.8922480 112.7909180  77.1284760 128.5278150 113.6287800
  77.3516700 128.1602940 112.1772320  82.3396720 133.1887430 118.9799920
  82.0353790 134.0679410 119.2050280  83.2943180 133.2487220 119.0157360
  80.8678510 137.3948420 109.5766770  80.0940770 136.8546040 109.4165490
  81.5973140 136.8755030 109.2384530  91.6266490 136.3913780 115.3693160
  92.3465610 136.8869070 114.9789270  91.4248310 135.7131670 114.7247030
  87.0876430 127.7851740 109.5122550  86.2741040 127.2864910 109.4367860
  86.8938380 128.6249990 109.0958900  87.0085290 136.4622840 121.2562160
  86.9422600 135.5418510 121.0019750  86.3790430 136.5598280 121.9706800
  89.8024820 132.1571390 107.8084710  90.6904440 132.4688620 107.6336050
  89.7729910 131.2843640 107.4165290  80.9115910 137.0628800 113.2145580
  81.4294580 136.2597060 113.1602470  80.4599930 137.0007940 114.0562410
  85.7985410 138.3295080 108.4872880  86.1401110 139.0737310 107.9916200
  84.9698120 138.6426200 108.8497710  78.3960450 134.0290170 120.1271280
  78.0375390 134.6944020 120.7144620  78.1015010 133.1973720 120.4983900
  81.5973570 134.4874410 123.0110830  81.2973710 134.6331590 122.1138650
  82.3684810 133.9279700 122.9184220  86.9402020 139.2843410 121.0065960
  86.9546560 138.3524370 120.7884870  86.2327120 139.3703170 121.6455730
  92.0739090 133.4683230 107.2764570  91.9902810 133.8997450 106.4261010
  92.7933280 133.9281580 107.7091390  93.1513230 135.9250750 120.3534540
  92.4261420 136.5179530 120.1563930  93.6788690 135.9174290 119.5547910
  93.1026340 140.3225490 110.0046700  92.4602500 139.6681110 110.2790420
  92.7157000 140.7280580 109.2287370  88.6812820 137.6510920 113.8518390
  89.0336640 137.0539050 113.1919760  87.7975150 137.3255150 114.0226640
  84.7676100 138.4108610 111.2588800  85.4547230 138.9577820 111.6396390
  83.9808520 138.9549340 111.2938410  76.9068500 134.0281430 106.7505880
  77.7763350 134.3106230 107.0341800  76.4158820 134.8417300 106.6354690
  84.0703310 135.4154640 110.8714160  84.5266090 136.2259890 111.0974350
  83.7191520 135.0977780 111.7032650  86.3735920 140.9260980 118.1006460
  87.0178140 141.1320360 118.7779880  86.7365360 140.1649380 117.6477310
  87.6468000 138.9293330 116.8183910  88.2890230 138.2286490 116.9316080
  88.1717350 139.7091770 116.6380800  91.4923720 139.2141950 106.5423050
  91.2661300 138.4972390 107.1347690  91.1019920 138.9654390 105.7044800
  89.4205620 139.7288230 120.0219970  89.7561860 140.3154920 120.6997890
  88.5005960 139.5980940 120.2517760  77.2739750 143.2408810 107.3167510
  77.6337390 143.8398150 106.6624780  77.1332090 143.7868700 108.0902540
  76.9709020 127.5183410 120.8043380  76.2567540 127.7180330 121.4095990
  77.3904060 126.7422980 121.1758180  91.0739970 137.1313890 108.2037210
  90.7861670 137.5926580 108.9915090  91.8692140 136.6711660 108.4721430
  77.2581610 141.5063670 121.7909910  77.3672730 140.5658410 121.6505300
  76.6062170 141.7718420 121.1423640  85.2494200 139.7779560 123.1908030
  84.9291070 139.0588800 123.7353720  84.5752560 140.4534630 123.2644090
  83.2908370 140.6240010 108.1341180  83.2818470 141.3569700 107.5185690
  82.3706730 140.3771590 108.2268140  78.8915010 135.8454900 108.8787940
  78.2842960 136.5853800 108.8883240  79.3664360 135.9354260 108.0526140
  88.4647800 130.0105720 118.5544830  88.8328620 129.1900930 118.8824400
  87.6046000 130.0707610 118.9700480  91.8309830 128.9662660 109.3632390
  91.2022990 129.0708330 108.6490620  91.3361750 129.1859440 110.1526270
  86.2767970 140.6868250 106.7966370  86.3779950 140.4832240 105.8668350
  85.3769710 140.4326530 107.0014150  83.7993860 131.2448610 110.7790270
  83.0910010 131.7134950 111.2203880  84.0838340 130.5870620 111.4135460
  85.4249790 132.6645310 118.7782800  85.9235040 133.1391130 119.4434650
  85.5672740 131.7408830 118.9852830  87.8309290 127.9699270 112.2186060
  87.7077070 127.9885400 111.2695570  88.7793850 128.0178210 112.3384460
  84.9186080 143.2054570 111.4914040  85.1727580 143.1675960 110.5693410
  83.9698560 143.0787900 111.4842290  82.0028880 129.5533690 108.1540980
  82.8519410 129.9903840 108.0881170  81.6360150 129.8653950 108.9813040
  92.6316650 128.8813270 119.6211190  92.1290250 129.6218670 119.9605000
  93.4473310 129.2697270 119.3047980  90.9238660 134.1246450 113.0672550
  89.9828800 134.1396680 113.2420240  91.2382730 133.3382410 113.5132850
  80.9020300 135.8066050 106.6276510  81.6683570 135.6947410 107.1901940
  80.9794990 135.1104020 105.9753280  79.5967060 133.2391120 107.3109400
  79.6770650 132.2918630 107.4226800  80.4886810 133.5698000 107.4170060
  92.9264240 141.2955300 114.7426810  93.0511660 142.1186470 115.2150620
  93.7929800 141.0846030 114.3950960  80.3981770 143.3886510 114.4143940
  81.1344250 142.8401970 114.6852510  80.7822690 144.2542520 114.2749930
  77.2827250 139.4560080 110.2885450  76.3567030 139.6981220 110.2790860
  77.7483680 140.2834340 110.1670200  79.4040050 142.5732580 123.6029520
  80.2052780 142.8944630 124.0164920  78.8891870 142.2128160 124.3249430
  83.5084080 142.5616820 106.2369510  84.3012690 142.8505650 105.7851300
  82.9888430 142.1308990 105.5581990  88.2404680 138.6812450 123.5504930
  87.6342840 138.7044050 122.8100680  87.9358790 137.9495490 124.0872180
  89.6705050 142.4092740 122.1614340  90.6226800 142.3250760 122.1114580
  89.5233270 143.0734450 122.8348130  92.5614250 141.7886950 107.6606250
  92.2755760 141.3752090 106.8460430  92.3633800 142.7174660 107.5406770
  77.1237860 135.0606040 122.5465570  77.6276880 134.4813320 123.1181800
  76.3845280 135.3446270 123.0841940  84.0261480 137.7820230 106.1011860
  83.9212120 137.1672580 106.8273240  83.8585700 137.2586120 105.3174870
  84.1775800 136.4677030 122.0801090  83.4121470 137.0362030 121.9955760
  84.3591760 136.1753240 121.1869320  87.2664210 136.8440260 106.7053850
  86.7174310 137.2909560 107.3496590  87.8883470 136.3389510 107.2291520
  91.3199150 138.1982360 122.6376110  92.0608620 138.5358120 122.1343570
  90.5571830 138.3674420 122.0845880  79.1560940 133.2035630 123.4415640
  79.1966280 132.9049500 124.3500870  80.0106440 133.6043240 123.2823160
  82.9339330 135.8031180 108.6019150  83.3555750 135.6371050 109.4450540
  83.0590170 134.9931410 108.1074290  81.0966750 131.7827730 121.4090130
  80.5663210 131.2918680 120.7813470  81.7654820 132.2111930 120.8748060
  85.4466970 134.8268790 105.8496250  85.9672630 134.1117810 105.4837400
  86.0935370 135.4654660 106.1496760  89.9944810 136.2497190 121.1731320
  90.4085830 136.4042270 122.0221740  89.0595810 136.3752410 121.3357100
  90.4666980 133.5893350 123.1770470  91.0487750 132.8345670 123.0890950
  90.6428750 134.1200790 122.4001950  81.5839050 128.7490100 121.4887420
  81.4895920 128.1310850 120.7638290  81.0036440 129.4756390 121.2617330
  84.3500490 127.3063340 118.5214810  83.9017790 127.3287600 117.6760360
  83.7165690 126.9082360 119.1185110  84.7560040 136.2017670 119.1427250
  85.1748150 137.0450400 118.9703490  83.8368670 136.3389710 118.9134030
  87.0923940 133.9333850 120.5265090  87.2120150 133.3374990 121.2659930
  87.9517940 133.9703540 120.1066390  89.4311840 134.4871040 119.1027600
  88.9047060 135.0113660 118.4992740  89.7743180 135.1198430 119.7337330
  82.6067460 142.5070680 120.2584980  82.0688550 143.2316740 119.9393680
  82.8601420 142.0301020 119.4682320  83.8592710 130.4755200 121.7840910
  84.4492400 130.1671050 122.4718730  83.0412950 130.0034950 121.9400810
  88.6786140 130.0921010 122.0173930  87.9901660 129.4302550 121.9523920
  89.3992160 129.6459280 122.4622390  89.3086540 126.6872640 108.0764190
  89.5888830 125.8440540 108.4323610  88.5352270 126.9195750 108.5902940
  85.4629670 143.7421890 120.5171630  85.3888370 144.6457030 120.8244000
  84.5608510 143.4233790 120.4893700  83.8465960 127.9199650 106.5211390
  83.4987960 127.2423640 105.9413840  84.0478730 127.4589160 107.3354780
  86.0115000 142.9080400 108.1397990  86.9065790 143.2465370 108.1616750
  86.0432630 142.1859810 107.5122270  79.6511160 138.2807450 106.3684990
  80.0886030 138.8237120 107.0242570  80.1358890 137.4554400 106.3781330
  76.8656960 141.0696480 113.8205250  77.1959970 140.2017540 113.5883890
  77.2947960 141.2755000 114.6510210  81.4618880 139.4005490 111.4807220
  81.1614420 139.2770460 112.3811130  81.3556370 138.5414080 111.0722950
  77.3547170 141.9367070 116.5586880  76.9178160 142.1167870 117.3911030
  77.9224850 142.6941690 116.4168600  92.9909350 141.4384070 120.8464190
  92.3911340 141.4976630 120.1028110  93.1203250 140.4989050 120.9761040
  94.2310800 139.1801890 106.1833900  93.4003760 139.2478540 106.6541130
  94.4082630 140.0706010 105.8800760  93.6867260 135.9249370 108.6868100
  94.4486170 136.4946020 108.7927790  93.7021630 135.3576570 109.4576410
  77.1871600 134.4487300 112.9175760  76.5320440 134.1798940 112.2735460
  78.0249550 134.3391780 112.4677740  94.6927230 136.7799470 113.5310030
  95.0636060 135.9966790 113.1246000  95.3329160 137.4688570 113.3527330
  91.6760990 138.1636050 118.9440350  90.8620830 138.5933210 119.2066140
  92.0835190 138.7754460 118.3309400  93.7386430 136.2183740 105.8440620
  94.0135270 137.1262620 105.7159840  93.5497170 136.1546270 106.7802610
  90.1362040 129.2428590 107.1394250  90.5546920 129.0559570 106.2990910
  89.8298100 128.3907640 107.4497180  93.6351770 134.1552730 110.8370050
  93.2595370 133.3880660 110.4051340  92.9054890 134.5375430 111.3244980
  78.2247530 134.8339870 117.4579100  78.5920570 134.7467270 118.3375120
  77.6558350 134.0706420 117.3585960  93.0251390 133.3024250 120.4709570
  92.7937480 133.0737000 119.5707520  93.2855940 134.2223800 120.4254460
  77.7763530 131.7448960 121.3637520  76.8819580 131.7115720 121.7031230
  78.3161080 131.9435750 122.1288770  91.4639460 128.5280680 123.2489270
  92.3409640 128.5364080 123.6323270  91.4760300 127.7911520 122.6381620
  76.4009680 131.6586230 108.8601090  75.4973760 131.9216430 108.6852750
  76.8850300 131.9297400 108.0801050  92.9102730 132.3810220 114.1377290
  93.4340210 131.8872870 113.5067460  93.4962150 132.5160580 114.8824860
  93.0892450 132.4650090 117.6596840  92.1395160 132.4313630 117.7741830
  93.2705460 133.3750200 117.4246610  92.4002700 131.6383570 110.0769700
  92.8961820 131.4054440 110.8618580  92.2018770 130.7995410 109.6607340
  93.8289860 130.2744520 112.6107380  93.7189140 130.1200560 113.5489650
  94.5897450 129.7465460 112.3682790  92.1755580 126.2138650 119.0690380
  92.8127800 126.8272790 119.4349570  92.3230470 126.2499310 118.1239610
  94.7180130 128.1052440 105.8513520  95.6429440 127.9733620 105.6431810
  94.6955920 128.1845260 106.8049970  94.7918620 128.8763100 108.4770230
  93.9970120 128.8108220 109.0063140  94.9961900 129.8113740 108.4655580
  91.7337040 142.9154650 112.4708620  92.3296110 142.5939220 111.7943040
  91.9915190 142.4426470 113.2621890  79.6399610 139.3472560 122.6199250
  79.5969240 138.9765470 123.5013710  79.7710620 140.2850130 122.7601070
  83.3405640 140.9032150 118.2208970  83.0997000 141.1706710 117.3339490
  84.2808280 141.0737880 118.2759830  88.1834620 127.0234900 121.6157770
  88.7975030 127.3414190 120.9538850  88.7284180 126.5383490 122.2353630
  94.6009800 142.9226530 119.0219610  94.1068080 143.3195400 118.3046740
  93.9923090 142.2975740 119.4156890  78.7055880 125.7029160 121.7296830
  79.2538870 125.5217210 120.9662940  78.7711190 124.9123270 122.2653140
  79.4787640 142.2934810 119.7397030  78.8847960 142.1619510 120.4787070
  79.4711480 141.4572950 119.2739130  89.8314640 127.7937910 119.3268780
  89.5028000 126.9789670 118.9470510  90.7796940 127.7507720 119.2034470
  92.2849250 143.5649950 116.3006350  91.8252220 144.3165760 115.9264370
  91.6561710 142.8456420 116.2421150  79.1099870 139.6593190 118.6905070
  78.3833930 139.0398480 118.6231020  79.1709020 140.0533800 117.8203150
  82.7144970 141.8738190 115.4754480  83.2309990 141.2625550 114.9502740
  83.3642350 142.3766970 115.9665490  85.4540470 142.7646680 116.3023460
  85.7418280 142.5100980 115.4256470  85.9663690 142.2124040 116.8929030
  86.6717480 126.5036880 116.8819970  85.8889270 126.9782380 117.1616730
  86.3780410 125.5991710 116.7733150  91.2238550 127.2059980 114.9269060
  91.6646640 127.1505080 114.0790660  90.9546140 128.1217990 114.9979240
  93.0877120 126.8375220 112.9377880  93.0265520 125.8936440 112.7908900
  93.8669150 126.9455310 113.4831340  77.3929870 142.9767580 111.9001830
  77.2251910 142.3438260 112.5983720  76.5264380 143.1826980 111.5496020
  84.5571700 128.9223630 112.3936000  83.7446210 128.5480520 112.0531880
  85.0613340 128.1668710 112.6957190  92.2031280 125.9887640 108.9059350
  92.3981910 126.8871090 109.1726780  91.4161150 125.7574720 109.3992300
  78.9992570 141.6700810 109.3451970  78.4740190 142.0508840 108.6413930
  78.9237150 142.2951580 110.0661680  80.3883040 127.3348410 107.9435660
  80.9175800 126.5478210 107.8143610  81.0211360 128.0139600 108.1771190
  82.5820880 127.0723550 110.9981050  81.9523620 126.3710860 111.1651180
  82.0426020 127.8327680 110.7814210  85.5212830 143.6862780 123.6691660
  86.4480140 143.4507050 123.7127620  85.5063260 144.5134780 123.1877690
  93.7557890 143.2288350 110.6665910  93.9310080 142.5426090 110.0226830
  93.0579460 143.7535400 110.2742580  82.7076440 126.3507530 123.4333540
  82.4260710 126.8541130 122.6694360  83.0896140 125.5529280 123.0675670
  81.5985540 143.6183190 108.2201220  82.3304360 143.3342470 107.6725110
  81.8579210 143.3796470 109.1100600  80.7600330 139.7347920 108.2247550
  80.1309210 140.2033020 108.7733380  80.8748160 138.8897140 108.6593740
  89.3091900 125.7661110 124.0114010  89.1957350 126.0855720 124.9065530
  90.1261640 126.1673620 123.7151290  92.0890390 142.9132640 123.4932700
  92.8815710 142.4181870 123.2858660  92.3823540 143.5922780 124.1008310
  80.3633920 135.8752410  97.1333780  79.5318800 135.6201120  97.5330290
  80.9714900 135.9463180  97.8691700  90.3675520 139.9692790  95.0357150
  89.9057050 139.1980030  95.3644320  91.1801070 139.9958860  95.5409600
  80.3435180 139.9092500  97.3291800  80.6463220 139.0190240  97.1502020
  81.0878770 140.4662720  97.1014050  78.7725870 130.8354300  90.9176170
  77.8842570 131.1770270  90.8156050  79.0567060 130.6354620  90.0257000
  76.7358880 133.4359950  96.8015870  77.3074990 132.6682150  96.8019510
  76.7360420 133.7348710  95.8922480  86.5938830 142.2550800  94.6561140
  85.9750270 142.7108300  94.0855580  87.4490610 142.4102260  94.2550840
  82.7894990 132.3872170  96.2839730  83.2973210 132.8853140  96.9244750
  83.3208230 131.6107370  96.1079090  94.8905920 130.5577360  99.9869080
  94.1858090 130.9459070  99.4684190  95.1563840 131.2527650 100.5890010
  81.0731090 127.0270730 100.5503150  81.0749530 127.5443120  99.7449050
  80.2435400 126.5500910 100.5273080  81.5353040 138.6346710 100.5425830
  82.1527040 139.3097790 100.2610280  80.6746160 139.0434690 100.4513330
  76.8285380 137.8246570  89.4232680  76.4513360 138.3133670  88.6917580
  77.0858450 138.4971850  90.0539210  92.4530630 140.0986120  98.4580470
  91.7694150 140.7685230  98.4497140  92.9924920 140.2966770  97.6925330
  84.4374310 126.2262960  94.8818190  84.7449290 125.6709850  94.1653690
  83.5075010 126.3607420  94.6991180  89.9889370 141.9430250  97.1725650
  90.0016530 141.5392540  96.3047910  89.4364590 142.7177540  97.0687080
  89.3874810 136.8460090  98.5008260  89.8043600 136.6320200  97.6661720
  90.1114630 137.1032880  99.0716880  93.3336910 135.2447310  98.5924500
  92.5055540 135.3140400  98.1174630  93.9287390 135.8301620  98.1240330
  90.2978920 132.0316630  99.5379370  89.8850100 132.8570340  99.7919360
  89.5654870 131.4461670  99.3455730  90.9879020 142.0775960 100.2260350
  90.5109580 142.8848150 100.0332960  90.3040810 141.4254290 100.3786560
  81.9911840 138.2425780 103.2145050  81.0940370 138.4665750 103.4618450
  82.0164710 138.3660720 102.2656450  80.8183060 135.1139100 101.7902420
  80.6790830 135.9861900 102.1589820  79.9364420 134.7711910 101.6450360
  82.6163410 141.0560800 103.9987570  82.5878840 141.4603750 103.1316000
  82.4528380 140.1271160 103.8359170  92.6134200 126.3461710  87.4427350
  92.3006860 126.4388540  88.3426420  93.3746670 126.9242740  87.3924780
  79.1316340 133.7121510  91.9004690  79.0113940 134.4383600  91.2885960
  78.8217230 132.9424420  91.4232600  94.5678230 141.8387900 105.2951740
  95.0437950 142.3170790 105.9740820  95.1885390 141.7705390 104.5697240
  76.7701710 136.8836650  97.7073330  76.8482130 137.0185420  96.7629050
  77.3843390 136.1752540  97.9001450  78.0149340 138.5836840  94.1179510
  77.6077420 138.7251430  93.2633110  78.9062350 138.2997000  93.9150720
  93.9711480 139.0300750 102.4551750  94.0974540 138.7912630 101.5368930
  94.0132860 138.1985290 102.9273830  87.8328220 142.7328750 101.0246560
  88.3472890 142.6436760 101.8268990  86.9897300 143.0788450 101.3174470
  89.8082620 143.0184090  90.4530560  89.6483760 142.7287030  91.3512390
  89.6429330 142.2424220  89.9175790  82.2871000 142.7982620  92.2302180
  82.1113480 141.8818160  92.0169980  81.4326740 143.1569910  92.4699980
  89.5108750 140.5271650  89.0128560  88.8173910 140.5248940  88.3530840
  90.2531610 140.1030970  88.5822730  89.0758680 142.1534360  93.0877050
  89.5315630 141.3723740  93.4015670  89.4151200 142.8641180  93.6318230
  93.8235490 131.0833210 103.4201490  93.2079760 131.5912880 102.8916950
  93.5031910 130.1831540 103.3627430  76.8261230 137.9250820 100.2467790
  76.9892270 137.4556180  99.4287160  77.2913680 137.4174380 100.9116630
  81.5980000 127.0556580  95.2828360  81.1548150 127.8366120  94.9512880
  82.1564990 127.3786470  95.9899300  90.8854320 131.1434050 102.0160340
  90.0347910 130.8439800 102.3369410  90.7256110 131.3876060 101.1044160
  87.9804030 132.6435800 104.1159130  88.3057440 131.8099550 103.7761360
  88.7684360 133.1664320 104.2637460  84.7138820 126.6767280  90.1634190
  84.0893000 126.6727150  90.8887500  84.6268940 125.8098240  89.7670160
  83.6355900 127.6003910  97.1417960  83.9328230 128.5066740  97.0609980
  84.1841460 127.1122690  96.5277530  83.8293430 133.0775730 103.6769880
  83.7337030 132.1370460 103.5270280  84.6725410 133.2990800 103.2817950
  85.5349020 129.5724370 104.9000400  84.8447340 129.3796570 105.5346490
  86.2781320 129.8559010 105.4324700  84.2489380 130.0877010  96.1406810
  84.2525440 129.6466960  95.2911350  85.1440500 130.4094340  96.2478630
  91.7008650 126.2788670 102.9863640  92.0254420 125.5478330 103.5121620
  91.7365160 125.9602310 102.0844630  78.4000210 137.3002250 102.4063600
  78.0155000 136.6595920 103.0046560  78.7112400 138.0038370 102.9758330
  82.3396720 133.1887430 100.2056430  82.0353790 134.0679410 100.4306790
  83.2943180 133.2487220 100.2413870  91.6266490 136.3913780  96.5949670
  92.3465610 136.8869070  96.2045780  91.4248310 135.7131670  95.9503540
  87.0876430 127.7851740  90.7379060  86.2741040 127.2864910  90.6624370
  86.8938380 128.6249990  90.3215410  87.0085290 136.4622840 102.4818670
  86.9422600 135.5418510 102.2276260  86.3790430 136.5598280 103.1963310
  78.3960450 134.0290170 101.3527790  78.0375390 134.6944020 101.9401130
  78.1015010 133.1973720 101.7240410  81.5973570 134.4874410 104.2367340
  81.2973710 134.6331590 103.3395160  82.3684810 133.9279700 104.1440730
  86.9402020 139.2843410 102.2322470  86.9546560 138.3524370 102.0141380
  86.2327120 139.3703170 102.8712240  93.1513230 135.9250750 101.5791050
  92.4261420 136.5179530 101.3820440  93.6788690 135.9174290 100.7804420
  76.9068500 134.0281430  87.9762390  77.7763350 134.3106230  88.2598310
  76.4158820 134.8417300  87.8611200  86.3735920 140.9260980  99.3262970
  87.0178140 141.1320360 100.0036390  86.7365360 140.1649380  98.8733820
  79.9715090 125.7592290  92.5693190  79.8429720 125.7510190  93.5178110
  79.1477110 126.0975380  92.2184200  91.4923720 139.2141950  87.7679560
  91.2661300 138.4972390  88.3604200  91.1019920 138.9654390  86.9301310
  89.4205620 139.7288230 101.2476480  89.7561860 140.3154920 101.9254400
  88.5005960 139.5980940 101.4774270  77.2739750 143.2408810  88.5424020
  77.6337390 143.8398150  87.8881290  77.1332090 143.7868700  89.3159050
  77.2581610 141.5063670 103.0166420  77.3672730 140.5658410 102.8761810
  76.6062170 141.7718420 102.3680150  85.2494200 139.7779560 104.4164540
  84.9291070 139.0588800 104.9610230  84.5752560 140.4534630 104.4900600
  78.8915010 135.8454900  90.1044450  78.2842960 136.5853800  90.1139750
  79.3664360 135.9354260  89.2782650  88.4647800 130.0105720  99.7801340
  88.8328620 129.1900930 100.1080910  87.6046000 130.0707610 100.1956990
  85.4249790 132.6645310 100.0039310  85.9235040 133.1391130 100.6691160
  85.5672740 131.7408830 100.2109340  84.9186080 143.2054570  92.7170550
  85.1727580 143.1675960  91.7949920  83.9698560 143.0787900  92.7098800
  92.6316650 128.8813270 100.8467700  92.1290250 129.6218670 101.1861510
  93.4473310 129.2697270 100.5304490  79.5967060 133.2391120  88.5365910
  79.6770650 132.2918630  88.6483310  80.4886810 133.5698000  88.6426570
  92.9264240 141.2955300  95.9683320  93.0511660 142.1186470  96.4407130
  93.7929800 141.0846030  95.6207470  80.3981770 143.3886510  95.6400450
  81.1344250 142.8401970  95.9109020  80.7822690 144.2542520  95.5006440
  77.2827250 139.4560080  91.5141960  76.3567030 139.6981220  91.5047370
  77.7483680 140.2834340  91.3926710  79.4040050 142.5732580 104.8286030
  80.2052780 142.8944630 105.2421430  78.8891870 142.2128160 105.5505940
  88.2404680 138.6812450 104.7761440  87.6342840 138.7044050 104.0357190
  87.9358790 137.9495490 105.3128690  89.6705050 142.4092740 103.3870850
  90.6226800 142.3250760 103.3371090  89.5233270 143.0734450 104.0604640
  92.5614250 141.7886950  88.8862760  92.2755760 141.3752090  88.0716940
  92.3633800 142.7174660  88.7663280  77.1237860 135.0606040 103.7722080
  77.6276880 134.4813320 104.3438310  76.3845280 135.3446270 104.3098450
  84.1775800 136.4677030 103.3057600  83.4121470 137.0362030 103.2212270
  84.3591760 136.1753240 102.4125830  91.3199150 138.1982360 103.8632620
  92.0608620 138.5358120 103.3600080  90.5571830 138.3674420 103.3102390
  89.9944810 136.2497190 102.3987830  90.4085830 136.4042270 103.2478250
  89.0595810 136.3752410 102.5613610  90.4666980 133.5893350 104.4026980
  91.0487750 132.8345670 104.3147460  90.6428750 134.1200790 103.6258460
  84.7560040 136.2017670 100.3683760  85.1748150 137.0450400 100.1960000
  83.8368670 136.3389710 100.1390540  87.0923940 133.9333850 101.7521600
  87.2120150 133.3374990 102.4916440  87.9517940 133.9703540 101.3322900
  89.4311840 134.4871040 100.3284110  88.9047060 135.0113660  99.7249250
  89.7743180 135.1198430 100.9593840  82.6067460 142.5070680 101.4841490
  82.0688550 143.2316740 101.1650190  82.8601420 142.0301020 100.6938830
  88.6786140 130.0921010 103.2430440  87.9901660 129.4302550 103.1780430
  89.3992160 129.6459280 103.6878900  85.4629670 143.7421890 101.7428140
  85.3888370 144.6457030 102.0500510  84.5608510 143.4233790 101.7150210
  83.8465960 127.9199650  87.7467900  83.4987960 127.2423640  87.1670350
  84.0478730 127.4589160  88.5611290  86.0115000 142.9080400  89.3654500
  86.9065790 143.2465370  89.3873260  86.0432630 142.1859810  88.7378780
  76.8656960 141.0696480  95.0461760  77.1959970 140.2017540  94.8140400
  77.2947960 141.2755000  95.8766720  81.4618880 139.4005490  92.7063730
  81.1614420 139.2770460  93.6067640  81.3556370 138.5414080  92.2979460
  77.3547170 141.9367070  97.7843390  76.9178160 142.1167870  98.6167540
  77.9224850 142.6941690  97.6425110  92.9909350 141.4384070 102.0720700
  92.3911340 141.4976630 101.3284620  93.1203250 140.4989050 102.2017550
  77.1871600 134.4487300  94.1432270  76.5320440 134.1798940  93.4991970
  78.0249550 134.3391780  93.6934250  94.6927230 136.7799470  94.7566540
  95.0636060 135.9966790  94.3502510  95.3329160 137.4688570  94.5783840
  91.6760990 138.1636050 100.1696860  90.8620830 138.5933210 100.4322650
  92.0835190 138.7754460  99.5565910  78.2247530 134.8339870  98.6835610
  78.5920570 134.7467270  99.5631630  77.6558350 134.0706420  98.5842470
  93.0251390 133.3024250 101.6966080  92.7937480 133.0737000 100.7964030
  93.2855940 134.2223800 101.6510970  91.4639460 128.5280680 104.4745780
  92.3409640 128.5364080 104.8579780  91.4760300 127.7911520 103.8638130
  76.4009680 131.6586230  90.0857600  75.4973760 131.9216430  89.9109260
  76.8850300 131.9297400  89.3057560  93.0892450 132.4650090  98.8853350
  92.1395160 132.4313630  98.9998340  93.2705460 133.3750200  98.6503120
  92.1755580 126.2138650 100.2946890  92.8127800 126.8272790 100.6606080
  92.3230470 126.2499310  99.3496120  94.7180130 128.1052440  87.0770030
  95.6429440 127.9733620  86.8688320  94.6955920 128.1845260  88.0306480
  94.7918620 128.8763100  89.7026740  93.9970120 128.8108220  90.2319650
  94.9961900 129.8113740  89.6912090  91.7337040 142.9154650  93.6965130
  92.3296110 142.5939220  93.0199550  91.9915190 142.4426470  94.4878400
  79.6399610 139.3472560 103.8455760  79.5969240 138.9765470 104.7270220
  79.7710620 140.2850130 103.9857580  83.3405640 140.9032150  99.4465480
  83.0997000 141.1706710  98.5596000  84.2808280 141.0737880  99.5016340
  85.5460060 127.3664840 103.2021990  85.4848950 127.9586670 103.9517400
  86.4860440 127.2590800 103.0572250  88.1834620 127.0234900 102.8414280
  88.7975030 127.3414190 102.1795360  88.7284180 126.5383490 103.4610140
  94.6009800 142.9226530 100.2476120  94.1068080 143.3195400  99.5303250
  93.9923090 142.2975740 100.6413400  79.4787640 142.2934810 100.9653540
  78.8847960 142.1619510 101.7043580  79.4711480 141.4572950 100.4995640
  88.9242660 125.5867040  99.1683570  88.0502500 125.9202150  98.9656500
  88.8153410 125.1140220  99.9935440  89.8314640 127.7937910 100.5525290
  89.5028000 126.9789670 100.1727020  90.7796940 127.7507720 100.4290980
  92.2849250 143.5649950  97.5262860  91.8252220 144.3165760  97.1520880
  91.6561710 142.8456420  97.4677660  79.1099870 139.6593190  99.9161580
  78.3833930 139.0398480  99.8487530  79.1709020 140.0533800  99.0459660
  82.7144970 141.8738190  96.7010990  83.2309990 141.2625550  96.1759250
  83.3642350 142.3766970  97.1922000  85.4540470 142.7646680  97.5279970
  85.7418280 142.5100980  96.6512980  85.9663690 142.2124040  98.1185540
  77.3929870 142.9767580  93.1258340  77.2251910 142.3438260  93.8240230
  76.5264380 143.1826980  92.7752530  78.0157890 126.8084360  90.6290200
  78.7737250 126.9213240  90.0554230  77.5535060 127.6453560  90.5833630
  80.3883040 127.3348410  89.1692170  80.9175800 126.5478210  89.0400120
  81.0211360 128.0139600  89.4027700  82.5820880 127.0723550  92.2237560
  81.9523620 126.3710860  92.3907690  82.0426020 127.8327680  92.0070720
  85.5212830 143.6862780 104.8948170  86.4480140 143.4507050 104.9384130
  85.5063260 144.5134780 104.4134200  93.7557890 143.2288350  91.8922420
  93.9310080 142.5426090  91.2483340  93.0579460 143.7535400  91.4999090
  89.3091900 125.7661110 105.2370520  89.1957350 126.0855720 106.1322040
  90.1261640 126.1673620 104.9407800  92.0890390 142.9132640 104.7189210
  92.8815710 142.4181870 104.5115170  92.3823540 143.5922780 105.3264820
  88.2150050 133.7853580  75.6005260  88.1344100 132.8708190  75.3296970
  87.8014470 134.2820650  74.8944970  90.3675520 139.9692790  76.2613660
  89.9057050 139.1980030  76.5900830  91.1801070 139.9958860  76.7666110
  80.3435180 139.9092500  78.5548310  80.6463220 139.0190240  78.3758530
  81.0878770 140.4662720  78.3270560  78.7725870 130.8354300  72.1432680
  77.8842570 131.1770270  72.0412560  79.0567060 130.6354620  71.2513510
  86.5938830 142.2550800  75.8817650  85.9750270 142.7108300  75.3112090
  87.4490610 142.4102260  75.4807350  85.7877080 138.2389790  77.4884690
  85.7185360 137.2979730  77.3273820  86.5496940 138.3291200  78.0607260
  86.8182250 131.0460170  77.7153620  87.1947070 130.1732050  77.6027290
  86.7201760 131.3818870  76.8244060  87.4602180 137.1390040  73.2749560
  86.8419450 137.6039490  72.7112280  87.9725430 137.8317520  73.6919070
  81.5353040 138.6346710  81.7682340  82.1527040 139.3097790  81.4866790
  80.6746160 139.0434690  81.6769840  84.4374310 126.2262960  76.1074700
  84.7449290 125.6709850  75.3910200  83.5075010 126.3607420  75.9247690
  89.3874810 136.8460090  79.7264770  89.8043600 136.6320200  78.8918230
  90.1114630 137.1032880  80.2973390  86.8255070 134.2911790  72.8434820
  85.8984350 134.2249170  73.0723290  86.9779890 135.2291920  72.7290060
  82.8993410 138.5044090  77.7893760  82.6021700 137.8989560  77.1101540
  83.8493230 138.5421400  77.6783120  80.8183060 135.1139100  83.0158930
  80.6790830 135.9861900  83.3846330  79.9364420 134.7711910  82.8706870
  87.1412440 140.0314970  74.3224060  87.5808350 140.7739300  73.9079450
  87.0799330 140.2741540  75.2463020  79.1316340 133.7121510  73.1261200
  79.0113940 134.4383600  72.5142470  78.8217230 132.9424420  72.6489110
  94.5678230 141.8387900  86.5208250  95.0437950 142.3170790  87.1997330
  95.1885390 141.7705390  85.7953750  78.0149340 138.5836840  75.3436020
  77.6077420 138.7251430  74.4889620  78.9062350 138.2997000  75.1407230
  93.9711480 139.0300750  83.6808260  94.0974540 138.7912630  82.7625440
  94.0132860 138.1985290  84.1530340  87.8328220 142.7328750  82.2503070
  88.3472890 142.6436760  83.0525500  86.9897300 143.0788450  82.5430980
  89.8082620 143.0184090  71.6787070  89.6483760 142.7287030  72.5768900
  89.6429330 142.2424220  71.1432300  82.2871000 142.7982620  73.4558690
  82.1113480 141.8818160  73.2426490  81.4326740 143.1569910  73.6956490
  89.0758680 142.1534360  74.3133560  89.5315630 141.3723740  74.6272180
  89.4151200 142.8641180  74.8574740  81.5980000 127.0556580  76.5084870
  81.1548150 127.8366120  76.1769390  82.1564990 127.3786470  77.2155810
  85.8849810 129.9225100  82.1120190  85.4229180 130.1308120  82.9240130
  85.4827920 129.1084450  81.8090860  87.9804030 132.6435800  85.3415640
  88.3057440 131.8099550  85.0017870  88.7684360 133.1664320  85.4893970
  83.6355900 127.6003910  78.3674470  83.9328230 128.5066740  78.2866490
  84.1841460 127.1122690  77.7534040  85.5349020 129.5724370  86.1256910
  84.8447340 129.3796570  86.7603000  86.2781320 129.8559010  86.6581210
  76.2621020 127.4117860  77.0890250  75.9734070 127.9820720  77.8015230
  77.0066780 126.9322310  77.4521480  87.8111990 133.4122810  78.9610830
  87.0793110 133.9209620  79.3100930  87.4136330 132.5952790  78.6599610
  80.0991760 129.9703500  76.3257530  79.7591810 130.4478730  77.0824580
  79.3369080 129.5168620  75.9658630  88.2737900 128.8656490  78.3733770
  88.2910640 129.3165140  79.2175620  88.0253480 127.9662130  78.5867210
  83.3231030 133.3990230  69.7553380  82.7547930 132.9508480  69.1289290
  84.0320030 133.7583010  69.2218530  78.4000210 137.3002250  83.6320110
  78.0155000 136.6595920  84.2303070  78.7112400 138.0038370  84.2014840
  77.4137840 128.8922480  75.2422200  77.1284760 128.5278150  76.0800820
  77.3516700 128.1602940  74.6285340  80.8678510 137.3948420  72.0279790
  80.0940770 136.8546040  71.8678510  81.5973140 136.8755030  71.6897550
  91.6266490 136.3913780  77.8206180  92.3465610 136.8869070  77.4302290
  91.4248310 135.7131670  77.1760050  89.8024820 132.1571390  70.2597730
  90.6904440 132.4688620  70.0849070  89.7729910 131.2843640  69.8678310
  78.3960450 134.0290170  82.5784300  78.0375390 134.6944020  83.1657640
  78.1015010 133.1973720  82.9496920  92.0739090 133.4683230  69.7277590
  91.9902810 133.8997450  68.8774030  92.7933280 133.9281580  70.1604410
  93.1026340 140.3225490  72.4559720  92.4602500 139.6681110  72.7303440
  92.7157000 140.7280580  71.6800390  88.6812820 137.6510920  76.3031410
  89.0336640 137.0539050  75.6432780  87.7975150 137.3255150  76.4739660
  84.7676100 138.4108610  73.7101820  85.4547230 138.9577820  74.0909410
  83.9808520 138.9549340  73.7451430  84.0703310 135.4154640  73.3227180
  84.5266090 136.2259890  73.5487370  83.7191520 135.0977780  74.1545670
  79.9715090 125.7592290  73.7949700  79.8429720 125.7510190  74.7434620
  79.1477110 126.0975380  73.4440710  89.4205620 139.7288230  82.4732990
  89.7561860 140.3154920  83.1510910  88.5005960 139.5980940  82.7030780
  77.2581610 141.5063670  84.2422930  77.3672730 140.5658410  84.1018320
  76.6062170 141.7718420  83.5936660  83.2908370 140.6240010  70.5854200
  83.2818470 141.3569700  69.9698710  82.3706730 140.3771590  70.6781160
  78.8915010 135.8454900  71.3300960  78.2842960 136.5853800  71.3396260
  79.3664360 135.9354260  70.5039160  86.2767970 140.6868250  69.2479390
  86.3779950 140.4832240  68.3181370  85.3769710 140.4326530  69.4527170
  85.4249790 132.6645310  81.2295820  85.9235040 133.1391130  81.8947670
  85.5672740 131.7408830  81.4365850  87.8309290 127.9699270  74.6699080
  87.7077070 127.9885400  73.7208590  88.7793850 128.0178210  74.7897480
  84.9186080 143.2054570  73.9427060  85.1727580 143.1675960  73.0206430
  83.9698560 143.0787900  73.9355310  90.9238660 134.1246450  75.5185570
  89.9828800 134.1396680  75.6933260  91.2382730 133.3382410  75.9645870
  79.5967060 133.2391120  69.7622420  79.6770650 132.2918630  69.8739820
  80.4886810 133.5698000  69.8683080  80.3981770 143.3886510  76.8656960
  81.1344250 142.8401970  77.1365530  80.7822690 144.2542520  76.7262950
  77.2827250 139.4560080  72.7398470  76.3567030 139.6981220  72.7303880
  77.7483680 140.2834340  72.6183220  83.5084080 142.5616820  68.6882530
  84.3012690 142.8505650  68.2364320  82.9888430 142.1308990  68.0095010
  89.6705050 142.4092740  84.6127360  90.6226800 142.3250760  84.5627600
  89.5233270 143.0734450  85.2861150  92.5614250 141.7886950  70.1119270
  92.2755760 141.3752090  69.2973450  92.3633800 142.7174660  69.9919790
  77.1237860 135.0606040  84.9978590  77.6276880 134.4813320  85.5694820
  76.3845280 135.3446270  85.5354960  91.3199150 138.1982360  85.0889130
  92.0608620 138.5358120  84.5856590  90.5571830 138.3674420  84.5358900
  82.9339330 135.8031180  71.0532170  83.3555750 135.6371050  71.8963560
  83.0590170 134.9931410  70.5587310  84.3500490 127.3063340  80.9727830
  83.9017790 127.3287600  80.1273380  83.7165690 126.9082360  81.5698130
  89.4311840 134.4871040  81.5540620  88.9047060 135.0113660  80.9505760
  89.7743180 135.1198430  82.1850350  81.8298230 131.8764410  67.9990330
  81.6287290 131.0131770  68.3603670  81.6590280 131.7897770  67.0611930
  82.6067460 142.5070680  82.7098000  82.0688550 143.2316740  82.3906700
  82.8601420 142.0301020  81.9195340  83.8592710 130.4755200  84.2353930
  84.4492400 130.1671050  84.9231750  83.0412950 130.0034950  84.3913830
  85.4629670 143.7421890  82.9684650  85.3888370 144.6457030  83.2757020
  84.5608510 143.4233790  82.9406720  86.0115000 142.9080400  70.5911010
  86.9065790 143.2465370  70.6129770  86.0432630 142.1859810  69.9635290
  81.4618880 139.4005490  73.9320240  81.1614420 139.2770460  74.8324150
  81.3556370 138.5414080  73.5235970  92.9909350 141.4384070  83.2977210
  92.3911340 141.4976630  82.5541130  93.1203250 140.4989050  83.4274060
  94.2310800 139.1801890  68.6346920  93.4003760 139.2478540  69.1054150
  94.4082630 140.0706010  68.3313780  77.1871600 134.4487300  75.3688780
  76.5320440 134.1798940  74.7248480  78.0249550 134.3391780  74.9190760
  94.6927230 136.7799470  75.9823050  95.0636060 135.9966790  75.5759020
  95.3329160 137.4688570  75.8040350  93.7386430 136.2183740  68.2953640
  94.0135270 137.1262620  68.1672860  93.5497170 136.1546270  69.2315630
  91.4639460 128.5280680  85.7002290  92.3409640 128.5364080  86.0836290
  91.4760300 127.7911520  85.0894640  76.4009680 131.6586230  71.3114110
  75.4973760 131.9216430  71.1365770  76.8850300 131.9297400  70.5314070
  92.9102730 132.3810220  76.5890310  93.4340210 131.8872870  75.9580480
  93.4962150 132.5160580  77.3337880  78.9436890 130.7151770  69.2208490
  79.6528590 130.2934990  68.7355770  78.2276830 130.7827000  68.5891840
  92.4002700 131.6383570  72.5282720  92.8961820 131.4054440  73.3131600
  92.2018770 130.7995410  72.1120360  78.2803240 126.0197290  78.1633760
  78.9279430 125.4694670  77.7228920  78.7005080 126.2740440  78.9849570
  93.8289860 130.2744520  75.0620400  93.7189140 130.1200560  76.0002670
  94.5897450 129.7465460  74.8195810  94.7180130 128.1052440  68.3026540
  95.6429440 127.9733620  68.0944830  94.6955920 128.1845260  69.2562990
  94.7918620 128.8763100  70.9283250  93.9970120 128.8108220  71.4576160
  94.9961900 129.8113740  70.9168600  91.7337040 142.9154650  74.9221640
  92.3296110 142.5939220  74.2456060  91.9915190 142.4426470  75.7134910
  83.3405640 140.9032150  80.6721990  83.0997000 141.1706710  79.7852510
  84.2808280 141.0737880  80.7272850  85.5460060 127.3664840  84.4278500
  85.4848950 127.9586670  85.1773910  86.4860440 127.2590800  84.2828760
  94.6009800 142.9226530  81.4732630  94.1068080 143.3195400  80.7559760
  93.9923090 142.2975740  81.8669910  79.4787640 142.2934810  82.1910050
  78.8847960 142.1619510  82.9300090  79.4711480 141.4572950  81.7252150
  79.1099870 139.6593190  81.1418090  78.3833930 139.0398480  81.0744040
  79.1709020 140.0533800  80.2716170  82.7144970 141.8738190  77.9267500
  83.2309990 141.2625550  77.4015760  83.3642350 142.3766970  78.4178510
  85.4540470 142.7646680  78.7536480  85.7418280 142.5100980  77.8769490
  85.9663690 142.2124040  79.3442050  91.2238550 127.2059980  77.3782080
  91.6646640 127.1505080  76.5303680  90.9546140 128.1217990  77.4492260
  93.0877120 126.8375220  75.3890900  93.0265520 125.8936440  75.2421920
  93.8669150 126.9455310  75.9344360  78.0157890 126.8084360  71.8546710
  78.7737250 126.9213240  71.2810740  77.5535060 127.6453560  71.8090140
  89.0596680 125.5866080  76.0832090  89.6626050 126.1586290  76.5580610
  88.3189670 126.1505520  75.8605990  78.9992570 141.6700810  71.7964990
  78.4740190 142.0508840  71.0926950  78.9237150 142.2951580  72.5174700
  85.5212830 143.6862780  86.1204680  86.4480140 143.4507050  86.1640640
  85.5063260 144.5134780  85.6390710  93.7557890 143.2288350  73.1178930
  93.9310080 142.5426090  72.4739850  93.0579460 143.7535400  72.7255600
  82.7076440 126.3507530  85.8846560  82.4260710 126.8541130  85.1207380
  83.0896140 125.5529280  85.5188690  81.5985540 143.6183190  70.6714240
  82.3304360 143.3342470  70.1238130  81.8579210 143.3796470  71.5613620
  89.3091900 125.7661110  86.4627030  89.1957350 126.0855720  87.3578550
  90.1261640 126.1673620  86.1664310  92.0890390 142.9132640  85.9445720
  92.8815710 142.4181870  85.7371680  92.3823540 143.5922780  86.5521330
  88.2150050 133.7853580  56.8261770  88.1344100 132.8708190  56.5553480
  87.8014470 134.2820650  56.1201480  86.3468090 135.5632600  58.7071040
  85.5710190 135.0833040  58.9969610  86.9981020 134.8838250  58.5327200
  90.3675520 139.9692790  57.4870170  89.9057050 139.1980030  57.8157340
  91.1801070 139.9958860  57.9922620  76.7358880 133.4359950  59.2528890
  77.3074990 132.6682150  59.2532530  76.7360420 133.7348710  58.3435500
  86.5938830 142.2550800  57.1074160  85.9750270 142.7108300  56.5368600
  87.4490610 142.4102260  56.7063860  85.7877080 138.2389790  58.7141200
  85.7185360 137.2979730  58.5530330  86.5496940 138.3291200  59.2863770
  77.9783750 128.8444310  61.0397820  77.7986590 127.9470060  61.3200580
  77.5763830 129.3916180  61.7144770  90.6006370 128.5410610  55.8738470
  91.4215990 128.0507180  55.9163950  90.6340450 129.1308270  56.6270310
  81.0731090 127.0270730  63.0016170  81.0749530 127.5443120  62.1962070
  80.2435400 126.5500910  62.9786100  87.4602180 137.1390040  54.5006070
  86.8419450 137.6039490  53.9368790  87.9725430 137.8317520  54.9175580
  90.8367850 130.4810990  58.6466010  90.1323420 130.7695880  59.2269120
  91.1980010 131.2911100  58.2865570  76.8285380 137.8246570  51.8745700
  76.4513360 138.3133670  51.1430600  77.0858450 138.4971850  52.5052230
  92.4530630 140.0986120  60.9093490  91.7694150 140.7685230  60.9010160
  92.9924920 140.2966770  60.1438350  93.9054770 129.9265780  59.0375220
  92.9579680 129.9604760  59.1690650  94.2304760 130.7404730  59.4224580
  89.9889370 141.9430250  59.6238670  90.0016530 141.5392540  58.7560930
  89.4364590 142.7177540  59.5200100  91.2834790 138.6646470  54.7128840
  91.1731120 137.7220800  54.8378260  91.2803040 139.0262110  55.5991600
  89.3874810 136.8460090  60.9521280  89.8043600 136.6320200  60.1174740
  90.1114630 137.1032880  61.5229900  86.8255070 134.2911790  54.0691330
  85.8984350 134.2249170  54.2979800  86.9779890 135.2291920  53.9546570
  86.8124150 130.5628790  51.0658490  85.8727820 130.7242750  51.1510950
  87.1307410 131.2814470  50.5194480  93.3336910 135.2447310  61.0437520
  92.5055540 135.3140400  60.5687650  93.9287390 135.8301620  60.5753350
  90.8552360 135.8532090  54.5726580  90.2364780 135.5151640  53.9252880
  90.8376810 135.2091850  55.2805770  90.9879020 142.0775960  62.6773370
  90.5109580 142.8848150  62.4845980  90.3040810 141.4254290  62.8299580
  89.0317060 135.0918900  51.5799330  89.4710340 134.2541330  51.4337150
  89.7445480 135.7248300  51.6663470  87.1412440 140.0314970  55.5480570
  87.5808350 140.7739300  55.1335960  87.0799330 140.2741540  56.4719530
  92.6134200 126.3461710  49.8940370  92.3006860 126.4388540  50.7939440
  93.3746670 126.9242740  49.8437800  94.5678230 141.8387900  67.7464760
  95.0437950 142.3170790  68.4253840  95.1885390 141.7705390  67.0210260
  76.7701710 136.8836650  60.1586350  76.8482130 137.0185420  59.2142070
  77.3843390 136.1752540  60.3514470  93.9711480 139.0300750  64.9064770
  94.0974540 138.7912630  63.9881950  94.0132860 138.1985290  65.3786850
  87.8328220 142.7328750  63.4759580  88.3472890 142.6436760  64.2782010
  86.9897300 143.0788450  63.7687490  89.8082620 143.0184090  52.9043580
  89.6483760 142.7287030  53.8025410  89.6429330 142.2424220  52.3688810
  89.5108750 140.5271650  51.4641580  88.8173910 140.5248940  50.8043860
  90.2531610 140.1030970  51.0335750  89.0758680 142.1534360  55.5390070
  89.5315630 141.3723740  55.8528690  89.4151200 142.8641180  56.0831250
  93.8235490 131.0833210  65.8714510  93.2079760 131.5912880  65.3429970
  93.5031910 130.1831540  65.8140450  76.8261230 137.9250820  62.6980810
  76.9892270 137.4556180  61.8800180  77.2913680 137.4174380  63.3629650
  84.7138820 126.6767280  52.6147210  84.0893000 126.6727150  53.3400520
  84.6268940 125.8098240  52.2183180  88.6191980 132.1853520  54.0613280
  88.0200870 132.9089320  53.8776900  89.1671590 132.1230300  53.2789730
  83.8293430 133.0775730  66.1282900  83.7337030 132.1370460  65.9783300
  84.6725410 133.2990800  65.7330970  87.2256850 130.8217060  56.0916560
  87.6186420 131.1389260  55.2785250  87.5873700 129.9428940  56.2061080
  78.9603970 129.4889400  64.2816680  78.5667360 130.3364610  64.4889460
  78.2722370 128.8515770  64.4725320  76.2621020 127.4117860  58.3146760
  75.9734070 127.9820720  59.0271740  77.0066780 126.9322310  58.6777990
  84.3109530 131.0889090  51.5826590  84.4322350 131.0475570  52.5312410
  83.9258040 131.9513240  51.4273320  83.3231030 133.3990230  50.9809890
  82.7547930 132.9508480  50.3545800  84.0320030 133.7583010  50.4475040
  91.7008650 126.2788670  65.4376660  92.0254420 125.5478330  65.9634640
  91.7365160 125.9602310  64.5357650  84.5497350 134.1478790  60.3385240
  84.9167480 133.6737360  61.0846580  84.3602410 135.0220360  60.6793580
  82.3396720 133.1887430  62.6569450  82.0353790 134.0679410  62.8819810
  83.2943180 133.2487220  62.6926890  87.0876430 127.7851740  53.1892080
  86.2741040 127.2864910  53.1137390  86.8938380 128.6249990  52.7728430
  89.8024820 132.1571390  51.4854240  90.6904440 132.4688620  51.3105580
  89.7729910 131.2843640  51.0934820  85.7985410 138.3295080  52.1642410
  86.1401110 139.0737310  51.6685730  84.9698120 138.6426200  52.5267240
  78.3960450 134.0290170  63.8040810  78.0375390 134.6944020  64.3914150
  78.1015010 133.1973720  64.1753430  81.5973570 134.4874410  66.6880360
  81.2973710 134.6331590  65.7908180  82.3684810 133.9279700  66.5953750
  86.9402020 139.2843410  64.6835490  86.9546560 138.3524370  64.4654400
  86.2327120 139.3703170  65.3225260  92.0739090 133.4683230  50.9534100
  91.9902810 133.8997450  50.1030540  92.7933280 133.9281580  51.3860920
  93.1513230 135.9250750  64.0304070  92.4261420 136.5179530  63.8333460
  93.6788690 135.9174290  63.2317440  93.1026340 140.3225490  53.6816230
  92.4602500 139.6681110  53.9559950  92.7157000 140.7280580  52.9056900
  88.6812820 137.6510920  57.5287920  89.0336640 137.0539050  56.8689290
  87.7975150 137.3255150  57.6996170  84.0703310 135.4154640  54.5483690
  84.5266090 136.2259890  54.7743880  83.7191520 135.0977780  55.3802180
  86.3735920 140.9260980  61.7775990  87.0178140 141.1320360  62.4549410
  86.7365360 140.1649380  61.3246840  79.9715090 125.7592290  55.0206210
  79.8429720 125.7510190  55.9691130  79.1477110 126.0975380  54.6697220
  87.6468000 138.9293330  60.4953440  88.2890230 138.2286490  60.6085610
  88.1717350 139.7091770  60.3150330  91.4923720 139.2141950  50.2192580
  91.2661300 138.4972390  50.8117220  91.1019920 138.9654390  49.3814330
  89.4205620 139.7288230  63.6989500  89.7561860 140.3154920  64.3767420
  88.5005960 139.5980940  63.9287290  77.2739750 143.2408810  50.9937040
  77.6337390 143.8398150  50.3394310  77.1332090 143.7868700  51.7672070
  76.9709020 127.5183410  64.4812910  76.2567540 127.7180330  65.0865520
  77.3904060 126.7422980  64.8527710  91.0739970 137.1313890  51.8806740
  90.7861670 137.5926580  52.6684620  91.8692140 136.6711660  52.1490960
  85.2494200 139.7779560  66.8677560  84.9291070 139.0588800  67.4123250
  84.5752560 140.4534630  66.9413620  83.2908370 140.6240010  51.8110710
  83.2818470 141.3569700  51.1955220  82.3706730 140.3771590  51.9037670
  91.8309830 128.9662660  53.0401920  91.2022990 129.0708330  52.3260150
  91.3361750 129.1859440  53.8295800  86.2767970 140.6868250  50.4735900
  86.3779950 140.4832240  49.5437880  85.3769710 140.4326530  50.6783680
  87.8309290 127.9699270  55.8955590  87.7077070 127.9885400  54.9465100
  88.7793850 128.0178210  56.0153990  84.9186080 143.2054570  55.1683570
  85.1727580 143.1675960  54.2462940  83.9698560 143.0787900  55.1611820
  82.0028880 129.5533690  51.8310510  82.8519410 129.9903840  51.7650700
  81.6360150 129.8653950  52.6582570  92.6316650 128.8813270  63.2980720
  92.1290250 129.6218670  63.6374530  93.4473310 129.2697270  62.9817510
  90.9238660 134.1246450  56.7442080  89.9828800 134.1396680  56.9189770
  91.2382730 133.3382410  57.1902380  80.9020300 135.8066050  50.3046040
  81.6683570 135.6947410  50.8671470  80.9794990 135.1104020  49.6522810
  79.5967060 133.2391120  50.9878930  79.6770650 132.2918630  51.0996330
  80.4886810 133.5698000  51.0939590  92.9264240 141.2955300  58.4196340
  93.0511660 142.1186470  58.8920150  93.7929800 141.0846030  58.0720490
  80.3981770 143.3886510  58.0913470  81.1344250 142.8401970  58.3622040
  80.7822690 144.2542520  57.9519460  83.5084080 142.5616820  49.9139040
  84.3012690 142.8505650  49.4620830  82.9888430 142.1308990  49.2351520
  89.6705050 142.4092740  65.8383870  90.6226800 142.3250760  65.7884110
  89.5233270 143.0734450  66.5117660  92.5614250 141.7886950  51.3375780
  92.2755760 141.3752090  50.5229960  92.3633800 142.7174660  51.2176300
  77.1237860 135.0606040  66.2235100  77.6276880 134.4813320  66.7951330
  76.3845280 135.3446270  66.7611470  84.0261480 137.7820230  49.7781390
  83.9212120 137.1672580  50.5042770  83.8585700 137.2586120  48.9944400
  87.2664210 136.8440260  50.3823380  86.7174310 137.2909560  51.0266120
  87.8883470 136.3389510  50.9061050  79.1560940 133.2035630  67.1185170
  79.1966280 132.9049500  68.0270400  80.0106440 133.6043240  66.9592690
  82.9339330 135.8031180  52.2788680  83.3555750 135.6371050  53.1220070
  83.0590170 134.9931410  51.7843820  81.0966750 131.7827730  65.0859660
  80.5663210 131.2918680  64.4583000  81.7654820 132.2111930  64.5517590
  85.4466970 134.8268790  49.5265780  85.9672630 134.1117810  49.1606930
  86.0935370 135.4654660  49.8266290  81.5839050 128.7490100  65.1656950
  81.4895920 128.1310850  64.4407820  81.0036440 129.4756390  64.9386860
  81.8298230 131.8764410  49.2246840  81.6287290 131.0131770  49.5860180
  81.6590280 131.7897770  48.2868440  83.8592710 130.4755200  65.4610440
  84.4492400 130.1671050  66.1488260  83.0412950 130.0034950  65.6170340
  89.3086540 126.6872640  51.7533720  89.5888830 125.8440540  52.1093140
  88.5352270 126.9195750  52.2672470  80.6281030 128.9765030  49.2124720
  80.9306930 128.9832460  48.3043870  81.3675620 128.6262890  49.7092380
  85.4629670 143.7421890  64.1941160  85.3888370 144.6457030  64.5013530
  84.5608510 143.4233790  64.1663230  86.0115000 142.9080400  51.8167520
  86.9065790 143.2465370  51.8386280  86.0432630 142.1859810  51.1891800
  79.6511160 138.2807450  50.0454520  80.0886030 138.8237120  50.7012100
  80.1358890 137.4554400  50.0550860  76.8656960 141.0696480  57.4974780
  77.1959970 140.2017540  57.2653420  77.2947960 141.2755000  58.3279740
  77.3547170 141.9367070  60.2356410  76.9178160 142.1167870  61.0680560
  77.9224850 142.6941690  60.0938130  92.9909350 141.4384070  64.5233720
  92.3911340 141.4976630  63.7797640  93.1203250 140.4989050  64.6530570
  94.2310800 139.1801890  49.8603430  93.4003760 139.2478540  50.3310660
  94.4082630 140.0706010  49.5570290  93.6867260 135.9249370  52.3637630
  94.4486170 136.4946020  52.4697320  93.7021630 135.3576570  53.1345940
  91.6760990 138.1636050  62.6209880  90.8620830 138.5933210  62.8835670
  92.0835190 138.7754460  62.0078930  93.7386430 136.2183740  49.5210150
  94.0135270 137.1262620  49.3929370  93.5497170 136.1546270  50.4572140
  90.1362040 129.2428590  50.8163780  90.5546920 129.0559570  49.9760440
  89.8298100 128.3907640  51.1266710  93.6351770 134.1552730  54.5139580
  93.2595370 133.3880660  54.0820870  92.9054890 134.5375430  55.0014510
  78.2247530 134.8339870  61.1348630  78.5920570 134.7467270  62.0144650
  77.6558350 134.0706420  61.0355490  93.0251390 133.3024250  64.1479100
  92.7937480 133.0737000  63.2477050  93.2855940 134.2223800  64.1023990
  77.7763530 131.7448960  65.0407050  76.8819580 131.7115720  65.3800760
  78.3161080 131.9435750  65.8058300  91.4639460 128.5280680  66.9258800
  92.3409640 128.5364080  67.3092800  91.4760300 127.7911520  66.3151150
  92.9102730 132.3810220  57.8146820  93.4340210 131.8872870  57.1836990
  93.4962150 132.5160580  58.5594390  92.4002700 131.6383570  53.7539230
  92.8961820 131.4054440  54.5388110  92.2018770 130.7995410  53.3376870
  78.2803240 126.0197290  59.3890270  78.9279430 125.4694670  58.9485430
  78.7005080 126.2740440  60.2106080  93.8289860 130.2744520  56.2876910
  93.7189140 130.1200560  57.2259180  94.5897450 129.7465460  56.0452320
  92.1755580 126.2138650  62.7459910  92.8127800 126.8272790  63.1119100
  92.3230470 126.2499310  61.8009140  94.7180130 128.1052440  49.5283050
  95.6429440 127.9733620  49.3201340  94.6955920 128.1845260  50.4819500
  94.7918620 128.8763100  52.1539760  93.9970120 128.8108220  52.6832670
  94.9961900 129.8113740  52.1425110  91.7337040 142.9154650  56.1478150
  92.3296110 142.5939220  55.4712570  91.9915190 142.4426470  56.9391420
  78.0335240 126.1752960  62.1315590  77.6850060 126.6316780  62.8973770
  77.7022940 125.2810090  62.2138020  85.5460060 127.3664840  65.6535010
  85.4848950 127.9586670  66.4030420  86.4860440 127.2590800  65.5085270
  88.1834620 127.0234900  65.2927300  88.7975030 127.3414190  64.6308380
  88.7284180 126.5383490  65.9123160  94.6009800 142.9226530  62.6989140
  94.1068080 143.3195400  61.9816270  93.9923090 142.2975740  63.0926420
  78.7055880 125.7029160  65.4066360  79.2538870 125.5217210  64.6432470
  78.7711190 124.9123270  65.9422670  92.2849250 143.5649950  59.9775880
  91.8252220 144.3165760  59.6033900  91.6561710 142.8456420  59.9190680
  85.4540470 142.7646680  59.9792990  85.7418280 142.5100980  59.1026000
  85.9663690 142.2124040  60.5698560  91.2238550 127.2059980  58.6038590
  91.6646640 127.1505080  57.7560190  90.9546140 128.1217990  58.6748770
  93.0877120 126.8375220  56.6147410  93.0265520 125.8936440  56.4678430
  93.8669150 126.9455310  57.1600870  77.3929870 142.9767580  55.5771360
  77.2251910 142.3438260  56.2753250  76.5264380 143.1826980  55.2265550
  89.0596680 125.5866080  57.3088600  89.6626050 126.1586290  57.7837120
  88.3189670 126.1505520  57.0862500  92.2031280 125.9887640  52.5828880
  92.3981910 126.8871090  52.8496310  91.4161150 125.7574720  53.0761830
  80.3883040 127.3348410  51.6205190  80.9175800 126.5478210  51.4913140
  81.0211360 128.0139600  51.8540720  85.5212830 143.6862780  67.3461190
  86.4480140 143.4507050  67.3897150  85.5063260 144.5134780  66.8647220
  93.7557890 143.2288350  54.3435440  93.9310080 142.5426090  53.6996360
  93.0579460 143.7535400  53.9512110  81.5985540 143.6183190  51.8970750
  82.3304360 143.3342470  51.3494640  81.8579210 143.3796470  52.7870130
  89.3091900 125.7661110  67.6883540  89.1957350 126.0855720  68.5835060
  90.1261640 126.1673620  67.3920820  92.0890390 142.9132640  67.1702230
  92.8815710 142.4181870  66.9628190  92.3823540 143.5922780  67.7777840
  88.2150050 133.7853580  38.0518280  88.1344100 132.8708190  37.7809990
  87.8014470 134.2820650  37.3457990  86.3468090 135.5632600  39.9327550
  85.5710190 135.0833040  40.2226120  86.9981020 134.8838250  39.7583710
  80.3633920 135.8752410  40.8103310  79.5318800 135.6201120  41.2099820
  80.9714900 135.9463180  41.5461230  90.3675520 139.9692790  38.7126680
  89.9057050 139.1980030  39.0413850  91.1801070 139.9958860  39.2179130
  80.3435180 139.9092500  41.0061330  80.6463220 139.0190240  40.8271550
  81.0878770 140.4662720  40.7783580  78.7725870 130.8354300  34.5945700
  77.8842570 131.1770270  34.4925580  79.0567060 130.6354620  33.7026530
  76.7358880 133.4359950  40.4785400  77.3074990 132.6682150  40.4789040
  76.7360420 133.7348710  39.5692010  86.5938830 142.2550800  38.3330670
  85.9750270 142.7108300  37.7625110  87.4490610 142.4102260  37.9320370
  85.7877080 138.2389790  39.9397710  85.7185360 137.2979730  39.7786840
  86.5496940 138.3291200  40.5120280  77.9783750 128.8444310  42.2654330
  77.7986590 127.9470060  42.5457090  77.5763830 129.3916180  42.9401280
  86.8182250 131.0460170  40.1666640  87.1947070 130.1732050  40.0540310
  86.7201760 131.3818870  39.2757080  80.9487260 129.4185800  35.6284080
  81.0554010 130.3189530  35.9352840  80.0379620 129.3703770  35.3378730
  78.5970420 131.3404810  40.8736670  79.2780530 131.6043180  41.4924070
  78.2818470 130.5005680  41.2074680  82.7894990 132.3872170  39.9609260
  83.2973210 132.8853140  40.6014280  83.3208230 131.6107370  39.7848620
  87.4602180 137.1390040  35.7262580  86.8419450 137.6039490  35.1625300
  87.9725430 137.8317520  36.1432090  82.3233940 136.6665910  42.4046180
  81.9903320 137.2934830  43.0467250  82.5000620 137.1927790  41.6247850
  80.7546420 128.7380690  42.2343130  81.0963230 129.5822740  41.9397000
  79.8162230 128.8864430  42.3508470  81.5353040 138.6346710  44.2195360
  82.1527040 139.3097790  43.9379810  80.6746160 139.0434690  44.1282860
  76.8285380 137.8246570  33.1002210  76.4513360 138.3133670  32.3687110
  77.0858450 138.4971850  33.7308740  92.4530630 140.0986120  42.1350000
  91.7694150 140.7685230  42.1266670  92.9924920 140.2966770  41.3694860
  89.9889370 141.9430250  40.8495180  90.0016530 141.5392540  39.9817440
  89.4364590 142.7177540  40.7456610  91.2834790 138.6646470  35.9385350
  91.1731120 137.7220800  36.0634770  91.2803040 139.0262110  36.8248110
  89.3874810 136.8460090  42.1777790  89.8043600 136.6320200  41.3431250
  90.1114630 137.1032880  42.7486410  86.8255070 134.2911790  35.2947840
  85.8984350 134.2249170  35.5236310  86.9779890 135.2291920  35.1803080
  86.8124150 130.5628790  32.2915000  85.8727820 130.7242750  32.3767460
  87.1307410 131.2814470  31.7450990  93.3336910 135.2447310  42.2694030
  92.5055540 135.3140400  41.7944160  93.9287390 135.8301620  41.8009860
  90.8552360 135.8532090  35.7983090  90.2364780 135.5151640  35.1509390
  90.8376810 135.2091850  36.5062280  82.4311710 134.8176530  38.0767570
  82.0268710 134.1053780  37.5813470  82.5174830 134.4729770  38.9655610
  82.8993410 138.5044090  40.2406780  82.6021700 137.8989560  39.5614560
  83.8493230 138.5421400  40.1296140  81.1440330 131.5919740  41.8566610
  81.6954920 131.7015080  41.0819860  81.6583840 131.9657340  42.5721840
  90.9879020 142.0775960  43.9029880  90.5109580 142.8848150  43.7102490
  90.3040810 141.4254290  44.0556090  81.9911840 138.2425780  46.8914580
  81.0940370 138.4665750  47.1387980  82.0164710 138.3660720  45.9425980
  89.0317060 135.0918900  32.8055840  89.4710340 134.2541330  32.6593660
  89.7445480 135.7248300  32.8919980  80.8183060 135.1139100  45.4671950
  80.6790830 135.9861900  45.8359350  79.9364420 134.7711910  45.3219890
  87.1412440 140.0314970  36.7737080  87.5808350 140.7739300  36.3592470
  87.0799330 140.2741540  37.6976040  82.6163410 141.0560800  47.6757100
  82.5878840 141.4603750  46.8085530  82.4528380 140.1271160  47.5128700
  92.6134200 126.3461710  31.1196880  92.3006860 126.4388540  32.0195950
  93.3746670 126.9242740  31.0694310  79.1316340 133.7121510  35.5774220
  79.0113940 134.4383600  34.9655490  78.8217230 132.9424420  35.1002130
  94.5678230 141.8387900  48.9721270  95.0437950 142.3170790  49.6510350
  95.1885390 141.7705390  48.2466770  76.7701710 136.8836650  41.3842860
  76.8482130 137.0185420  40.4398580  77.3843390 136.1752540  41.5770980
  78.0149340 138.5836840  37.7949040  77.6077420 138.7251430  36.9402640
  78.9062350 138.2997000  37.5920250  93.9711480 139.0300750  46.1321280
  94.0974540 138.7912630  45.2138460  94.0132860 138.1985290  46.6043360
  87.8328220 142.7328750  44.7016090  88.3472890 142.6436760  45.5038520
  86.9897300 143.0788450  44.9944000  89.8082620 143.0184090  34.1300090
  89.6483760 142.7287030  35.0281920  89.6429330 142.2424220  33.5945320
  82.2871000 142.7982620  35.9071710  82.1113480 141.8818160  35.6939510
  81.4326740 143.1569910  36.1469510  89.5108750 140.5271650  32.6898090
  88.8173910 140.5248940  32.0300370  90.2531610 140.1030970  32.2592260
  89.0758680 142.1534360  36.7646580  89.5315630 141.3723740  37.0785200
  89.4151200 142.8641180  37.3087760  76.8261230 137.9250820  43.9237320
  76.9892270 137.4556180  43.1056690  77.2913680 137.4174380  44.5886160
  81.5980000 127.0556580  38.9597890  81.1548150 127.8366120  38.6282410
  82.1564990 127.3786470  39.6668830  84.7138820 126.6767280  33.8403720
  84.0893000 126.6727150  34.5657030  84.6268940 125.8098240  33.4439690
  83.6355900 127.6003910  40.8187490  83.9328230 128.5066740  40.7379510
  84.1841460 127.1122690  40.2047060  81.3894220 132.1790150  36.6879140
  81.1635140 131.9627320  37.5925760  80.6086750 132.6118610  36.3425110
  88.6191980 132.1853520  35.2869790  88.0200870 132.9089320  35.1033410
  89.1671590 132.1230300  34.5046240  87.2256850 130.8217060  37.3173070
  87.6186420 131.1389260  36.5041760  87.5873700 129.9428940  37.4317590
  78.9603970 129.4889400  45.5073190  78.5667360 130.3364610  45.7145970
  78.2722370 128.8515770  45.6981830  76.2621020 127.4117860  39.5403270
  75.9734070 127.9820720  40.2528250  77.0066780 126.9322310  39.9034500
  76.4491250 131.3537980  30.7505990  76.3665920 132.2968740  30.8920980
  76.0974310 131.2112890  29.8718340  84.2489380 130.0877010  39.8176340
  84.2525440 129.6466960  38.9680880  85.1440500 130.4094340  39.9248160
  80.0991760 129.9703500  38.7770550  79.7591810 130.4478730  39.5337600
  79.3369080 129.5168620  38.4171650  84.3109530 131.0889090  32.8083100
  84.4322350 131.0475570  33.7568920  83.9258040 131.9513240  32.6529830
  88.2737900 128.8656490  40.8246790  88.2910640 129.3165140  41.6688640
  88.0253480 127.9662130  41.0380230  83.3231030 133.3990230  32.2066400
  82.7547930 132.9508480  31.5802310  84.0320030 133.7583010  31.6731550
  78.4000210 137.3002250  46.0833130  78.0155000 136.6595920  46.6816090
  78.7112400 138.0038370  46.6527860  84.5497350 134.1478790  41.5641750
  84.9167480 133.6737360  42.3103090  84.3602410 135.0220360  41.9050090
  77.4137840 128.8922480  37.6935220  77.1284760 128.5278150  38.5313840
  77.3516700 128.1602940  37.0798360  82.3396720 133.1887430  43.8825960
  82.0353790 134.0679410  44.1076320  83.2943180 133.2487220  43.9183400
  80.8678510 137.3948420  34.4792810  80.0940770 136.8546040  34.3191530
  81.5973140 136.8755030  34.1410570  91.6266490 136.3913780  40.2719200
  92.3465610 136.8869070  39.8815310  91.4248310 135.7131670  39.6273070
  87.0876430 127.7851740  34.4148590  86.2741040 127.2864910  34.3393900
  86.8938380 128.6249990  33.9984940  87.0085290 136.4622840  46.1588200
  86.9422600 135.5418510  45.9045790  86.3790430 136.5598280  46.8732840
  89.8024820 132.1571390  32.7110750  90.6904440 132.4688620  32.5362090
  89.7729910 131.2843640  32.3191330  80.9115910 137.0628800  38.1171620
  81.4294580 136.2597060  38.0628510  80.4599930 137.0007940  38.9588450
  85.7985410 138.3295080  33.3898920  86.1401110 139.0737310  32.8942240
  84.9698120 138.6426200  33.7523750  78.3960450 134.0290170  45.0297320
  78.0375390 134.6944020  45.6170660  78.1015010 133.1973720  45.4009940
  81.5973570 134.4874410  47.9136870  81.2973710 134.6331590  47.0164690
  82.3684810 133.9279700  47.8210260  86.9402020 139.2843410  45.9092000
  86.9546560 138.3524370  45.6910910  86.2327120 139.3703170  46.5481770
  92.0739090 133.4683230  32.1790610  91.9902810 133.8997450  31.3287050
  92.7933280 133.9281580  32.6117430  93.1513230 135.9250750  45.2560580
  92.4261420 136.5179530  45.0589970  93.6788690 135.9174290  44.4573950
  93.1026340 140.3225490  34.9072740  92.4602500 139.6681110  35.1816460
  92.7157000 140.7280580  34.1313410  88.6812820 137.6510920  38.7544430
  89.0336640 137.0539050  38.0945800  87.7975150 137.3255150  38.9252680
  84.7676100 138.4108610  36.1614840  85.4547230 138.9577820  36.5422430
  83.9808520 138.9549340  36.1964450  76.9068500 134.0281430  31.6531920
  77.7763350 134.3106230  31.9367840  76.4158820 134.8417300  31.5380730
  84.0703310 135.4154640  35.7740200  84.5266090 136.2259890  36.0000390
  83.7191520 135.0977780  36.6058690  86.3735920 140.9260980  43.0032500
  87.0178140 141.1320360  43.6805920  86.7365360 140.1649380  42.5503350
  79.9715090 125.7592290  36.2462720  79.8429720 125.7510190  37.1947640
  79.1477110 126.0975380  35.8953730  87.6468000 138.9293330  41.7209950
  88.2890230 138.2286490  41.8342120  88.1717350 139.7091770  41.5406840
  91.4923720 139.2141950  31.4449090  91.2661300 138.4972390  32.0373730
  91.1019920 138.9654390  30.6070840  89.4205620 139.7288230  44.9246010
  89.7561860 140.3154920  45.6023930  88.5005960 139.5980940  45.1543800
  77.2739750 143.2408810  32.2193550  77.6337390 143.8398150  31.5650820
  77.1332090 143.7868700  32.9928580  91.0739970 137.1313890  33.1063250
  90.7861670 137.5926580  33.8941130  91.8692140 136.6711660  33.3747470
  77.2581610 141.5063670  46.6935950  77.3672730 140.5658410  46.5531340
  76.6062170 141.7718420  46.0449680  85.2494200 139.7779560  48.0934070
  84.9291070 139.0588800  48.6379760  84.5752560 140.4534630  48.1670130
  83.2908370 140.6240010  33.0367220  83.2818470 141.3569700  32.4211730
  82.3706730 140.3771590  33.1294180  78.8915010 135.8454900  33.7813980
  78.2842960 136.5853800  33.7909280  79.3664360 135.9354260  32.9552180
  91.8309830 128.9662660  34.2658430  91.2022990 129.0708330  33.5516660
  91.3361750 129.1859440  35.0552310  86.2767970 140.6868250  31.6992410
  86.3779950 140.4832240  30.7694390  85.3769710 140.4326530  31.9040190
  83.7993860 131.2448610  35.6816310  83.0910010 131.7134950  36.1229920
  84.0838340 130.5870620  36.3161500  84.9186080 143.2054570  36.3940080
  85.1727580 143.1675960  35.4719450  83.9698560 143.0787900  36.3868330
  82.0028880 129.5533690  33.0567020  82.8519410 129.9903840  32.9907210
  81.6360150 129.8653950  33.8839080  90.9238660 134.1246450  37.9698590
  89.9828800 134.1396680  38.1446280  91.2382730 133.3382410  38.4158890
  80.9020300 135.8066050  31.5302550  81.6683570 135.6947410  32.0927980
  80.9794990 135.1104020  30.8779320  79.5967060 133.2391120  32.2135440
  79.6770650 132.2918630  32.3252840  80.4886810 133.5698000  32.3196100
  92.9264240 141.2955300  39.6452850  93.0511660 142.1186470  40.1176660
  93.7929800 141.0846030  39.2977000  80.3981770 143.3886510  39.3169980
  81.1344250 142.8401970  39.5878550  80.7822690 144.2542520  39.1775970
  77.2827250 139.4560080  35.1911490  76.3567030 139.6981220  35.1816900
  77.7483680 140.2834340  35.0696240  79.4040050 142.5732580  48.5055560
  80.2052780 142.8944630  48.9190960  78.8891870 142.2128160  49.2275470
  83.5084080 142.5616820  31.1395550  84.3012690 142.8505650  30.6877340
  82.9888430 142.1308990  30.4608030  88.2404680 138.6812450  48.4530970
  87.6342840 138.7044050  47.7126720  87.9358790 137.9495490  48.9898220
  89.6705050 142.4092740  47.0640380  90.6226800 142.3250760  47.0140620
  89.5233270 143.0734450  47.7374170  92.5614250 141.7886950  32.5632290
  92.2755760 141.3752090  31.7486470  92.3633800 142.7174660  32.4432810
  77.1237860 135.0606040  47.4491610  77.6276880 134.4813320  48.0207840
  76.3845280 135.3446270  47.9867980  84.0261480 137.7820230  31.0037900
  83.9212120 137.1672580  31.7299280  83.8585700 137.2586120  30.2200910
  84.1775800 136.4677030  46.9827130  83.4121470 137.0362030  46.8981800
  84.3591760 136.1753240  46.0895360  87.2664210 136.8440260  31.6079890
  86.7174310 137.2909560  32.2522630  87.8883470 136.3389510  32.1317560
  91.3199150 138.1982360  47.5402150  92.0608620 138.5358120  47.0369610
  90.5571830 138.3674420  46.9871920  79.1560940 133.2035630  48.3441680
  79.1966280 132.9049500  49.2526910  80.0106440 133.6043240  48.1849200
  82.9339330 135.8031180  33.5045190  83.3555750 135.6371050  34.3476580
  83.0590170 134.9931410  33.0100330  81.0966750 131.7827730  46.3116170
  80.5663210 131.2918680  45.6839510  81.7654820 132.2111930  45.7774100
  85.4466970 134.8268790  30.7522290  85.9672630 134.1117810  30.3863440
  86.0935370 135.4654660  31.0522800  89.9944810 136.2497190  46.0757360
  90.4085830 136.4042270  46.9247780  89.0595810 136.3752410  46.2383140
  84.7560040 136.2017670  44.0453290  85.1748150 137.0450400  43.8729530
  83.8368670 136.3389710  43.8160070  81.8298230 131.8764410  30.4503350
  81.6287290 131.0131770  30.8116690  81.6590280 131.7897770  29.5124950
  82.6067460 142.5070680  45.1611020  82.0688550 143.2316740  44.8419720
  82.8601420 142.0301020  44.3708360  89.3086540 126.6872640  32.9790230
  89.5888830 125.8440540  33.3349650  88.5352270 126.9195750  33.4928980
  80.6281030 128.9765030  30.4381230  80.9306930 128.9832460  29.5300380
  81.3675620 128.6262890  30.9348890  85.4629670 143.7421890  45.4197670
  85.3888370 144.6457030  45.7270040  84.5608510 143.4233790  45.3919740
  83.8465960 127.9199650  31.4237430  83.4987960 127.2423640  30.8439880
  84.0478730 127.4589160  32.2380820  86.0115000 142.9080400  33.0424030
  86.9065790 143.2465370  33.0642790  86.0432630 142.1859810  32.4148310
  79.6511160 138.2807450  31.2711030  80.0886030 138.8237120  31.9268610
  80.1358890 137.4554400  31.2807370  76.8656960 141.0696480  38.7231290
  77.1959970 140.2017540  38.4909930  77.2947960 141.2755000  39.5536250
  81.4618880 139.4005490  36.3833260  81.1614420 139.2770460  37.2837170
  81.3556370 138.5414080  35.9748990  77.3547170 141.9367070  41.4612920
  76.9178160 142.1167870  42.2937070  77.9224850 142.6941690  41.3194640
  92.9909350 141.4384070  45.7490230  92.3911340 141.4976630  45.0054150
  93.1203250 140.4989050  45.8787080  94.2310800 139.1801890  31.0859940
  93.4003760 139.2478540  31.5567170  94.4082630 140.0706010  30.7826800
  93.6867260 135.9249370  33.5894140  94.4486170 136.4946020  33.6953830
  93.7021630 135.3576570  34.3602450  77.1871600 134.4487300  37.8201800
  76.5320440 134.1798940  37.1761500  78.0249550 134.3391780  37.3703780
  94.6927230 136.7799470  38.4336070  95.0636060 135.9966790  38.0272040
  95.3329160 137.4688570  38.2553370  91.6760990 138.1636050  43.8466390
  90.8620830 138.5933210  44.1092180  92.0835190 138.7754460  43.2335440
  93.7386430 136.2183740  30.7466660  94.0135270 137.1262620  30.6185880
  93.5497170 136.1546270  31.6828650  90.1362040 129.2428590  32.0420290
  90.5546920 129.0559570  31.2016950  89.8298100 128.3907640  32.3523220
  93.6351770 134.1552730  35.7396090  93.2595370 133.3880660  35.3077380
  92.9054890 134.5375430  36.2271020  78.2247530 134.8339870  42.3605140
  78.5920570 134.7467270  43.2401160  77.6558350 134.0706420  42.2612000
  77.7763530 131.7448960  46.2663560  76.8819580 131.7115720  46.6057270
  78.3161080 131.9435750  47.0314810  76.4009680 131.6586230  33.7627130
  75.4973760 131.9216430  33.5878790  76.8850300 131.9297400  32.9827090
  92.9102730 132.3810220  39.0403330  93.4340210 131.8872870  38.4093500
  93.4962150 132.5160580  39.7850900  78.9436890 130.7151770  31.6721510
  79.6528590 130.2934990  31.1868790  78.2276830 130.7827000  31.0404860
  78.5911050 126.7691100  30.7124160  79.3139180 127.3100040  31.0305380
  78.8635570 126.4954520  29.8365700  92.4002700 131.6383570  34.9795740
  92.8961820 131.4054440  35.7644620  92.2018770 130.7995410  34.5633380
  78.2803240 126.0197290  40.6146780  78.9279430 125.4694670  40.1741940
  78.7005080 126.2740440  41.4362590  94.7180130 128.1052440  30.7539560
  95.6429440 127.9733620  30.5457850  94.6955920 128.1845260  31.7076010
  94.7918620 128.8763100  33.3796270  93.9970120 128.8108220  33.9089180
  94.9961900 129.8113740  33.3681620  91.7337040 142.9154650  37.3734660
  92.3296110 142.5939220  36.6969080  91.9915190 142.4426470  38.1647930
  78.0335240 126.1752960  43.3572100  77.6850060 126.6316780  44.1230280
  77.7022940 125.2810090  43.4394530  79.6399610 139.3472560  47.5225290
  79.5969240 138.9765470  48.4039750  79.7710620 140.2850130  47.6627110
  83.3405640 140.9032150  43.1235010  83.0997000 141.1706710  42.2365530
  84.2808280 141.0737880  43.1785870  94.6009800 142.9226530  43.9245650
  94.1068080 143.3195400  43.2072780  93.9923090 142.2975740  44.3182930
  79.4787640 142.2934810  44.6423070  78.8847960 142.1619510  45.3813110
  79.4711480 141.4572950  44.1765170  92.2849250 143.5649950  41.2032390
  91.8252220 144.3165760  40.8290410  91.6561710 142.8456420  41.1447190
  79.1099870 139.6593190  43.5931110  78.3833930 139.0398480  43.5257060
  79.1709020 140.0533800  42.7229190  82.7144970 141.8738190  40.3780520
  83.2309990 141.2625550  39.8528780  83.3642350 142.3766970  40.8691530
  85.4540470 142.7646680  41.2049500  85.7418280 142.5100980  40.3282510
  85.9663690 142.2124040  41.7955070  77.3929870 142.9767580  36.8027870
  77.2251910 142.3438260  37.5009760  76.5264380 143.1826980  36.4522060
  78.0157890 126.8084360  34.3059730  78.7737250 126.9213240  33.7323760
  77.5535060 127.6453560  34.2603160  92.2031280 125.9887640  33.8085390
  92.3981910 126.8871090  34.0752820  91.4161150 125.7574720  34.3018340
  78.9992570 141.6700810  34.2478010  78.4740190 142.0508840  33.5439970
  78.9237150 142.2951580  34.9687720  80.3883040 127.3348410  32.8461700
  80.9175800 126.5478210  32.7169650  81.0211360 128.0139600  33.0797230
  82.5820880 127.0723550  35.9007090  81.9523620 126.3710860  36.0677220
  82.0426020 127.8327680  35.6840250  85.5212830 143.6862780  48.5717700
  86.4480140 143.4507050  48.6153660  85.5063260 144.5134780  48.0903730
  93.7557890 143.2288350  35.5691950  93.9310080 142.5426090  34.9252870
  93.0579460 143.7535400  35.1768620  81.5985540 143.6183190  33.1227260
  82.3304360 143.3342470  32.5751150  81.8579210 143.3796470  34.0126640
  80.7600330 139.7347920  33.1273590  80.1309210 140.2033020  33.6759420
  80.8748160 138.8897140  33.5619780  89.3091900 125.7661110  48.9140050
  89.1957350 126.0855720  49.8091570  90.1261640 126.1673620  48.6177330
  92.0890390 142.9132640  48.3958740  92.8815710 142.4181870  48.1884700
  92.3823540 143.5922780  49.0034350  88.2150050 133.7853580  19.2774790
  88.1344100 132.8708190  19.0066500  87.8014470 134.2820650  18.5714500
  86.3468090 135.5632600  21.1584060  85.5710190 135.0833040  21.4482630
  86.9981020 134.8838250  20.9840220  80.3633920 135.8752410  22.0359820
  79.5318800 135.6201120  22.4356330  80.9714900 135.9463180  22.7717740
  90.3675520 139.9692790  19.9383190  89.9057050 139.1980030  20.2670360
  91.1801070 139.9958860  20.4435640  80.3435180 139.9092500  22.2317840
  80.6463220 139.0190240  22.0528060  81.0878770 140.4662720  22.0040090
  78.7725870 130.8354300  15.8202210  77.8842570 131.1770270  15.7182090
  79.0567060 130.6354620  14.9283040  76.7358880 133.4359950  21.7041910
  77.3074990 132.6682150  21.7045550  76.7360420 133.7348710  20.7948520
  86.5938830 142.2550800  19.5587180  85.9750270 142.7108300  18.9881620
  87.4490610 142.4102260  19.1576880  85.7877080 138.2389790  21.1654220
  85.7185360 137.2979730  21.0043350  86.5496940 138.3291200  21.7376790
  77.9783750 128.8444310  23.4910840  77.7986590 127.9470060  23.7713600
  77.5763830 129.3916180  24.1657790  86.8182250 131.0460170  21.3923150
  87.1947070 130.1732050  21.2796820  86.7201760 131.3818870  20.5013590
  80.9487260 129.4185800  16.8540590  81.0554010 130.3189530  17.1609350
  80.0379620 129.3703770  16.5635240  90.6006370 128.5410610  18.3251490
  91.4215990 128.0507180  18.3676970  90.6340450 129.1308270  19.0783330
  78.5970420 131.3404810  22.0993180  79.2780530 131.6043180  22.7180580
  78.2818470 130.5005680  22.4331190  82.7894990 132.3872170  21.1865770
  83.2973210 132.8853140  21.8270790  83.3208230 131.6107370  21.0105130
  94.8905920 130.5577360  24.8895120  94.1858090 130.9459070  24.3710230
  95.1563840 131.2527650  25.4916050  81.0731090 127.0270730  25.4529190
  81.0749530 127.5443120  24.6475090  80.2435400 126.5500910  25.4299120
  87.4602180 137.1390040  16.9519090  86.8419450 137.6039490  16.3881810
  87.9725430 137.8317520  17.3688600  82.3233940 136.6665910  23.6302690
  81.9903320 137.2934830  24.2723760  82.5000620 137.1927790  22.8504360
  90.8367850 130.4810990  21.0979030  90.1323420 130.7695880  21.6782140
  91.1980010 131.2911100  20.7378590  80.7546420 128.7380690  23.4599640
  81.0963230 129.5822740  23.1653510  79.8162230 128.8864430  23.5764980
  81.5353040 138.6346710  25.4451870  82.1527040 139.3097790  25.1636320
  80.6746160 139.0434690  25.3539370  76.8285380 137.8246570  14.3258720
  76.4513360 138.3133670  13.5943620  77.0858450 138.4971850  14.9565250
  92.4530630 140.0986120  23.3606510  91.7694150 140.7685230  23.3523180
  92.9924920 140.2966770  22.5951370  93.9054770 129.9265780  21.4888240
  92.9579680 129.9604760  21.6203670  94.2304760 130.7404730  21.8737600
  84.4374310 126.2262960  19.7844230  84.7449290 125.6709850  19.0679730
  83.5075010 126.3607420  19.6017220  89.9889370 141.9430250  22.0751690
  90.0016530 141.5392540  21.2073950  89.4364590 142.7177540  21.9713120
  91.2834790 138.6646470  17.1641860  91.1731120 137.7220800  17.2891280
  91.2803040 139.0262110  18.0504620  89.3874810 136.8460090  23.4034300
  89.8043600 136.6320200  22.5687760  90.1114630 137.1032880  23.9742920
  86.8255070 134.2911790  16.5204350  85.8984350 134.2249170  16.7492820
  86.9779890 135.2291920  16.4059590  86.8124150 130.5628790  13.5171510
  85.8727820 130.7242750  13.6023970  87.1307410 131.2814470  12.9707500
  93.3336910 135.2447310  23.4950540  92.5055540 135.3140400  23.0200670
  93.9287390 135.8301620  23.0266370  90.8552360 135.8532090  17.0239600
  90.2364780 135.5151640  16.3765900  90.8376810 135.2091850  17.7318790
  90.2978920 132.0316630  24.4405410  89.8850100 132.8570340  24.6945400
  89.5654870 131.4461670  24.2481770  82.4311710 134.8176530  19.3024080
  82.0268710 134.1053780  18.8069980  82.5174830 134.4729770  20.1912120
  82.8993410 138.5044090  21.4663290  82.6021700 137.8989560  20.7871070
  83.8493230 138.5421400  21.3552650  81.1440330 131.5919740  23.0823120
  81.6954920 131.7015080  22.3076370  81.6583840 131.9657340  23.7978350
  90.9879020 142.0775960  25.1286390  90.5109580 142.8848150  24.9359000
  90.3040810 141.4254290  25.2812600  81.9911840 138.2425780  28.1171090
  81.0940370 138.4665750  28.3644490  82.0164710 138.3660720  27.1682490
  89.0317060 135.0918900  14.0312350  89.4710340 134.2541330  13.8850170
  89.7445480 135.7248300  14.1176490  80.8183060 135.1139100  26.6928460
  80.6790830 135.9861900  27.0615860  79.9364420 134.7711910  26.5476400
  87.1412440 140.0314970  17.9993590  87.5808350 140.7739300  17.5848980
  87.0799330 140.2741540  18.9232550  82.6163410 141.0560800  28.9013610
  82.5878840 141.4603750  28.0342040  82.4528380 140.1271160  28.7385210
  92.6134200 126.3461710  12.3453390  92.3006860 126.4388540  13.2452460
  93.3746670 126.9242740  12.2950820  79.1316340 133.7121510  16.8030730
  79.0113940 134.4383600  16.1912000  78.8217230 132.9424420  16.3258640
  94.5678230 141.8387900  30.1977780  95.0437950 142.3170790  30.8766860
  95.1885390 141.7705390  29.4723280  76.7701710 136.8836650  22.6099370
  76.8482130 137.0185420  21.6655090  77.3843390 136.1752540  22.8027490
  78.0149340 138.5836840  19.0205550  77.6077420 138.7251430  18.1659150
  78.9062350 138.2997000  18.8176760  93.9711480 139.0300750  27.3577790
  94.0974540 138.7912630  26.4394970  94.0132860 138.1985290  27.8299870
  87.8328220 142.7328750  25.9272600  88.3472890 142.6436760  26.7295030
  86.9897300 143.0788450  26.2200510  89.8082620 143.0184090  15.3556600
  89.6483760 142.7287030  16.2538430  89.6429330 142.2424220  14.8201830
  82.2871000 142.7982620  17.1328220  82.1113480 141.8818160  16.9196020
  81.4326740 143.1569910  17.3726020  89.5108750 140.5271650  13.9154600
  88.8173910 140.5248940  13.2556880  90.2531610 140.1030970  13.4848770
  89.0758680 142.1534360  17.9903090  89.5315630 141.3723740  18.3041710
  89.4151200 142.8641180  18.5344270  93.8235490 131.0833210  28.3227530
  93.2079760 131.5912880  27.7942990  93.5031910 130.1831540  28.2653470
  76.8261230 137.9250820  25.1493830  76.9892270 137.4556180  24.3313200
  77.2913680 137.4174380  25.8142670  81.5980000 127.0556580  20.1854400
  81.1548150 127.8366120  19.8538920  82.1564990 127.3786470  20.8925340
  85.8849810 129.9225100  25.7889720  85.4229180 130.1308120  26.6009660
  85.4827920 129.1084450  25.4860390  90.8854320 131.1434050  26.9186380
  90.0347910 130.8439800  27.2395450  90.7256110 131.3876060  26.0070200
  87.9804030 132.6435800  29.0185170  88.3057440 131.8099550  28.6787400
  88.7684360 133.1664320  29.1663500  84.7138820 126.6767280  15.0660230
  84.0893000 126.6727150  15.7913540  84.6268940 125.8098240  14.6696200
  83.6355900 127.6003910  22.0444000  83.9328230 128.5066740  21.9636020
  84.1841460 127.1122690  21.4303570  81.3894220 132.1790150  17.9135650
  81.1635140 131.9627320  18.8182270  80.6086750 132.6118610  17.5681620
  88.6191980 132.1853520  16.5126300  88.0200870 132.9089320  16.3289920
  89.1671590 132.1230300  15.7302750  83.8293430 133.0775730  28.5795920
  83.7337030 132.1370460  28.4296320  84.6725410 133.2990800  28.1843990
  87.2256850 130.8217060  18.5429580  87.6186420 131.1389260  17.7298270
  87.5873700 129.9428940  18.6574100  78.9603970 129.4889400  26.7329700
  78.5667360 130.3364610  26.9402480  78.2722370 128.8515770  26.9238340
  85.5349020 129.5724370  29.8026440  84.8447340 129.3796570  30.4372530
  86.2781320 129.8559010  30.3350740  76.2621020 127.4117860  20.7659780
  75.9734070 127.9820720  21.4784760  77.0066780 126.9322310  21.1291010
  76.4491250 131.3537980  11.9762500  76.3665920 132.2968740  12.1177490
  76.0974310 131.2112890  11.0974850  87.8111990 133.4122810  22.6380360
  87.0793110 133.9209620  22.9870460  87.4136330 132.5952790  22.3369140
  84.2489380 130.0877010  21.0432850  84.2525440 129.6466960  20.1937390
  85.1440500 130.4094340  21.1504670  80.0991760 129.9703500  20.0027060
  79.7591810 130.4478730  20.7594110  79.3369080 129.5168620  19.6428160
  84.3109530 131.0889090  14.0339610  84.4322350 131.0475570  14.9825430
  83.9258040 131.9513240  13.8786340  88.2737900 128.8656490  22.0503300
  88.2910640 129.3165140  22.8945150  88.0253480 127.9662130  22.2636740
  83.3231030 133.3990230  13.4322910  82.7547930 132.9508480  12.8058820
  84.0320030 133.7583010  12.8988060  91.7008650 126.2788670  27.8889680
  92.0254420 125.5478330  28.4147660  91.7365160 125.9602310  26.9870670
  78.4000210 137.3002250  27.3089640  78.0155000 136.6595920  27.9072600
  78.7112400 138.0038370  27.8784370  84.5497350 134.1478790  22.7898260
  84.9167480 133.6737360  23.5359600  84.3602410 135.0220360  23.1306600
  77.4137840 128.8922480  18.9191730  77.1284760 128.5278150  19.7570350
  77.3516700 128.1602940  18.3054870  82.3396720 133.1887430  25.1082470
  82.0353790 134.0679410  25.3332830  83.2943180 133.2487220  25.1439910
  80.8678510 137.3948420  15.7049320  80.0940770 136.8546040  15.5448040
  81.5973140 136.8755030  15.3667080  91.6266490 136.3913780  21.4975710
  92.3465610 136.8869070  21.1071820  91.4248310 135.7131670  20.8529580
  87.0876430 127.7851740  15.6405100  86.2741040 127.2864910  15.5650410
  86.8938380 128.6249990  15.2241450  87.0085290 136.4622840  27.3844710
  86.9422600 135.5418510  27.1302300  86.3790430 136.5598280  28.0989350
  89.8024820 132.1571390  13.9367260  90.6904440 132.4688620  13.7618600
  89.7729910 131.2843640  13.5447840  80.9115910 137.0628800  19.3428130
  81.4294580 136.2597060  19.2885020  80.4599930 137.0007940  20.1844960
  85.7985410 138.3295080  14.6155430  86.1401110 139.0737310  14.1198750
  84.9698120 138.6426200  14.9780260  78.3960450 134.0290170  26.2553830
  78.0375390 134.6944020  26.8427170  78.1015010 133.1973720  26.6266450
  81.5973570 134.4874410  29.1393380  81.2973710 134.6331590  28.2421200
  82.3684810 133.9279700  29.0466770  86.9402020 139.2843410  27.1348510
  86.9546560 138.3524370  26.9167420  86.2327120 139.3703170  27.7738280
  92.0739090 133.4683230  13.4047120  91.9902810 133.8997450  12.5543560
  92.7933280 133.9281580  13.8373940  93.1513230 135.9250750  26.4817090
  92.4261420 136.5179530  26.2846480  93.6788690 135.9174290  25.6830460
  93.1026340 140.3225490  16.1329250  92.4602500 139.6681110  16.4072970
  92.7157000 140.7280580  15.3569920  88.6812820 137.6510920  19.9800940
  89.0336640 137.0539050  19.3202310  87.7975150 137.3255150  20.1509190
  84.7676100 138.4108610  17.3871350  85.4547230 138.9577820  17.7678940
  83.9808520 138.9549340  17.4220960  76.9068500 134.0281430  12.8788430
  77.7763350 134.3106230  13.1624350  76.4158820 134.8417300  12.7637240
  84.0703310 135.4154640  16.9996710  84.5266090 136.2259890  17.2256900
  83.7191520 135.0977780  17.8315200  86.3735920 140.9260980  24.2289010
  87.0178140 141.1320360  24.9062430  86.7365360 140.1649380  23.7759860
  79.9715090 125.7592290  17.4719230  79.8429720 125.7510190  18.4204150
  79.1477110 126.0975380  17.1210240  87.6468000 138.9293330  22.9466460
  88.2890230 138.2286490  23.0598630  88.1717350 139.7091770  22.7663350
  91.4923720 139.2141950  12.6705600  91.2661300 138.4972390  13.2630240
  91.1019920 138.9654390  11.8327350  89.4205620 139.7288230  26.1502520
  89.7561860 140.3154920  26.8280440  88.5005960 139.5980940  26.3800310
  77.2739750 143.2408810  13.4450060  77.6337390 143.8398150  12.7907330
  77.1332090 143.7868700  14.2185090  76.9709020 127.5183410  26.9325930
  76.2567540 127.7180330  27.5378540  77.3904060 126.7422980  27.3040730
  91.0739970 137.1313890  14.3319760  90.7861670 137.5926580  15.1197640
  91.8692140 136.6711660  14.6003980  77.2581610 141.5063670  27.9192460
  77.3672730 140.5658410  27.7787850  76.6062170 141.7718420  27.2706190
  85.2494200 139.7779560  29.3190580  84.9291070 139.0588800  29.8636270
  84.5752560 140.4534630  29.3926640  83.2908370 140.6240010  14.2623730
  83.2818470 141.3569700  13.6468240  82.3706730 140.3771590  14.3550690
  78.8915010 135.8454900  15.0070490  78.2842960 136.5853800  15.0165790
  79.3664360 135.9354260  14.1808690  88.4647800 130.0105720  24.6827380
  88.8328620 129.1900930  25.0106950  87.6046000 130.0707610  25.0983030
  91.8309830 128.9662660  15.4914940  91.2022990 129.0708330  14.7773170
  91.3361750 129.1859440  16.2808820  86.2767970 140.6868250  12.9248920
  86.3779950 140.4832240  11.9950900  85.3769710 140.4326530  13.1296700
  83.7993860 131.2448610  16.9072820  83.0910010 131.7134950  17.3486430
  84.0838340 130.5870620  17.5418010  85.4249790 132.6645310  24.9065350
  85.9235040 133.1391130  25.5717200  85.5672740 131.7408830  25.1135380
  87.8309290 127.9699270  18.3468610  87.7077070 127.9885400  17.3978120
  88.7793850 128.0178210  18.4667010  84.9186080 143.2054570  17.6196590
  85.1727580 143.1675960  16.6975960  83.9698560 143.0787900  17.6124840
  82.0028880 129.5533690  14.2823530  82.8519410 129.9903840  14.2163720
  81.6360150 129.8653950  15.1095590  92.6316650 128.8813270  25.7493740
  92.1290250 129.6218670  26.0887550  93.4473310 129.2697270  25.4330530
  90.9238660 134.1246450  19.1955100  89.9828800 134.1396680  19.3702790
  91.2382730 133.3382410  19.6415400  80.9020300 135.8066050  12.7559060
  81.6683570 135.6947410  13.3184490  80.9794990 135.1104020  12.1035830
  79.5967060 133.2391120  13.4391950  79.6770650 132.2918630  13.5509350
  80.4886810 133.5698000  13.5452610  92.9264240 141.2955300  20.8709360
  93.0511660 142.1186470  21.3433170  93.7929800 141.0846030  20.5233510
  80.3981770 143.3886510  20.5426490  81.1344250 142.8401970  20.8135060
  80.7822690 144.2542520  20.4032480  77.2827250 139.4560080  16.4168000
  76.3567030 139.6981220  16.4073410  77.7483680 140.2834340  16.2952750
  79.4040050 142.5732580  29.7312070  80.2052780 142.8944630  30.1447470
  78.8891870 142.2128160  30.4531980  83.5084080 142.5616820  12.3652060
  84.3012690 142.8505650  11.9133850  82.9888430 142.1308990  11.6864540
  88.2404680 138.6812450  29.6787480  87.6342840 138.7044050  28.9383230
  87.9358790 137.9495490  30.2154730  89.6705050 142.4092740  28.2896890
  90.6226800 142.3250760  28.2397130  89.5233270 143.0734450  28.9630680
  92.5614250 141.7886950  13.7888800  92.2755760 141.3752090  12.9742980
  92.3633800 142.7174660  13.6689320  77.1237860 135.0606040  28.6748120
  77.6276880 134.4813320  29.2464350  76.3845280 135.3446270  29.2124490
  84.0261480 137.7820230  12.2294410  83.9212120 137.1672580  12.9555790
  83.8585700 137.2586120  11.4457420  84.1775800 136.4677030  28.2083640
  83.4121470 137.0362030  28.1238310  84.3591760 136.1753240  27.3151870
  87.2664210 136.8440260  12.8336400  86.7174310 137.2909560  13.4779140
  87.8883470 136.3389510  13.3574070  91.3199150 138.1982360  28.7658660
  92.0608620 138.5358120  28.2626120  90.5571830 138.3674420  28.2128430
  79.1560940 133.2035630  29.5698190  79.1966280 132.9049500  30.4783420
  80.0106440 133.6043240  29.4105710  82.9339330 135.8031180  14.7301700
  83.3555750 135.6371050  15.5733090  83.0590170 134.9931410  14.2356840
  81.0966750 131.7827730  27.5372680  80.5663210 131.2918680  26.9096020
  81.7654820 132.2111930  27.0030610  85.4466970 134.8268790  11.9778800
  85.9672630 134.1117810  11.6119950  86.0935370 135.4654660  12.2779310
  89.9944810 136.2497190  27.3013870  90.4085830 136.4042270  28.1504290
  89.0595810 136.3752410  27.4639650  90.4666980 133.5893350  29.3053020
  91.0487750 132.8345670  29.2173500  90.6428750 134.1200790  28.5284500
  81.5839050 128.7490100  27.6169970  81.4895920 128.1310850  26.8920840
  81.0036440 129.4756390  27.3899880  84.3500490 127.3063340  24.6497360
  83.9017790 127.3287600  23.8042910  83.7165690 126.9082360  25.2467660
  84.7560040 136.2017670  25.2709800  85.1748150 137.0450400  25.0986040
  83.8368670 136.3389710  25.0416580  87.0923940 133.9333850  26.6547640
  87.2120150 133.3374990  27.3942480  87.9517940 133.9703540  26.2348940
  89.4311840 134.4871040  25.2310150  88.9047060 135.0113660  24.6275290
  89.7743180 135.1198430  25.8619880  81.8298230 131.8764410  11.6759860
  81.6287290 131.0131770  12.0373200  81.6590280 131.7897770  10.7381460
  82.6067460 142.5070680  26.3867530  82.0688550 143.2316740  26.0676230
  82.8601420 142.0301020  25.5964870  83.8592710 130.4755200  27.9123460
  84.4492400 130.1671050  28.6001280  83.0412950 130.0034950  28.0683360
  88.6786140 130.0921010  28.1456480  87.9901660 129.4302550  28.0806470
  89.3992160 129.6459280  28.5904940  89.3086540 126.6872640  14.2046740
  89.5888830 125.8440540  14.5606160  88.5352270 126.9195750  14.7185490
  80.6281030 128.9765030  11.6637740  80.9306930 128.9832460  10.7556890
  81.3675620 128.6262890  12.1605400  85.4629670 143.7421890  26.6454180
  85.3888370 144.6457030  26.9526550  84.5608510 143.4233790  26.6176250
  83.8465960 127.9199650  12.6493940  83.4987960 127.2423640  12.0696390
  84.0478730 127.4589160  13.4637330  86.0115000 142.9080400  14.2680540
  86.9065790 143.2465370  14.2899300  86.0432630 142.1859810  13.6404820
  79.6511160 138.2807450  12.4967540  80.0886030 138.8237120  13.1525120
  80.1358890 137.4554400  12.5063880  76.8656960 141.0696480  19.9487800
  77.1959970 140.2017540  19.7166440  77.2947960 141.2755000  20.7792760
  81.4618880 139.4005490  17.6089770  81.1614420 139.2770460  18.5093680
  81.3556370 138.5414080  17.2005500  77.3547170 141.9367070  22.6869430
  76.9178160 142.1167870  23.5193580  77.9224850 142.6941690  22.5451150
  92.9909350 141.4384070  26.9746740  92.3911340 141.4976630  26.2310660
  93.1203250 140.4989050  27.1043590  94.2310800 139.1801890  12.3116450
  93.4003760 139.2478540  12.7823680  94.4082630 140.0706010  12.0083310
  93.6867260 135.9249370  14.8150650  94.4486170 136.4946020  14.9210340
  93.7021630 135.3576570  15.5858960  77.1871600 134.4487300  19.0458310
  76.5320440 134.1798940  18.4018010  78.0249550 134.3391780  18.5960290
  94.6927230 136.7799470  19.6592580  95.0636060 135.9966790  19.2528550
  95.3329160 137.4688570  19.4809880  91.6760990 138.1636050  25.0722900
  90.8620830 138.5933210  25.3348690  92.0835190 138.7754460  24.4591950
  93.7386430 136.2183740  11.9723170  94.0135270 137.1262620  11.8442390
  93.5497170 136.1546270  12.9085160  90.1362040 129.2428590  13.2676800
  90.5546920 129.0559570  12.4273460  89.8298100 128.3907640  13.5779730
  93.6351770 134.1552730  16.9652600  93.2595370 133.3880660  16.5333890
  92.9054890 134.5375430  17.4527530  78.2247530 134.8339870  23.5861650
  78.5920570 134.7467270  24.4657670  77.6558350 134.0706420  23.4868510
  93.0251390 133.3024250  26.5992120  92.7937480 133.0737000  25.6990070
  93.2855940 134.2223800  26.5537010  77.7763530 131.7448960  27.4920070
  76.8819580 131.7115720  27.8313780  78.3161080 131.9435750  28.2571320
  91.4639460 128.5280680  29.3771820  92.3409640 128.5364080  29.7605820
  91.4760300 127.7911520  28.7664170  76.4009680 131.6586230  14.9883640
  75.4973760 131.9216430  14.8135300  76.8850300 131.9297400  14.2083600
  92.9102730 132.3810220  20.2659840  93.4340210 131.8872870  19.6350010
  93.4962150 132.5160580  21.0107410  93.0892450 132.4650090  23.7879390
  92.1395160 132.4313630  23.9024380  93.2705460 133.3750200  23.5529160
  78.9436890 130.7151770  12.8978020  79.6528590 130.2934990  12.4125300
  78.2276830 130.7827000  12.2661370  78.5911050 126.7691100  11.9380670
  79.3139180 127.3100040  12.2561890  78.8635570 126.4954520  11.0622210
  92.4002700 131.6383570  16.2052250  92.8961820 131.4054440  16.9901130
  92.2018770 130.7995410  15.7889890  78.2803240 126.0197290  21.8403290
  78.9279430 125.4694670  21.3998450  78.7005080 126.2740440  22.6619100
  93.8289860 130.2744520  18.7389930  93.7189140 130.1200560  19.6772200
  94.5897450 129.7465460  18.4965340  92.1755580 126.2138650  25.1972930
  92.8127800 126.8272790  25.5632120  92.3230470 126.2499310  24.2522160
  94.7180130 128.1052440  11.9796070  95.6429440 127.9733620  11.7714360
  94.6955920 128.1845260  12.9332520  94.7918620 128.8763100  14.6052780
  93.9970120 128.8108220  15.1345690  94.9961900 129.8113740  14.5938130
  91.7337040 142.9154650  18.5991170  92.3296110 142.5939220  17.9225590
  91.9915190 142.4426470  19.3904440  78.0335240 126.1752960  24.5828610
  77.6850060 126.6316780  25.3486790  77.7022940 125.2810090  24.6651040
  79.6399610 139.3472560  28.7481800  79.5969240 138.9765470  29.6296260
  79.7710620 140.2850130  28.8883620  83.3405640 140.9032150  24.3491520
  83.0997000 141.1706710  23.4622040  84.2808280 141.0737880  24.4042380
  85.5460060 127.3664840  28.1048030  85.4848950 127.9586670  28.8543440
  86.4860440 127.2590800  27.9598290  88.1834620 127.0234900  27.7440320
  88.7975030 127.3414190  27.0821400  88.7284180 126.5383490  28.3636180
  94.6009800 142.9226530  25.1502160  94.1068080 143.3195400  24.4329290
  93.9923090 142.2975740  25.5439440  78.7055880 125.7029160  27.8579380
  79.2538870 125.5217210  27.0945490  78.7711190 124.9123270  28.3935690
  79.4787640 142.2934810  25.8679580  78.8847960 142.1619510  26.6069620
  79.4711480 141.4572950  25.4021680  88.9242660 125.5867040  24.0709610
  88.0502500 125.9202150  23.8682540  88.8153410 125.1140220  24.8961480
  89.8314640 127.7937910  25.4551330  89.5028000 126.9789670  25.0753060
  90.7796940 127.7507720  25.3317020  92.2849250 143.5649950  22.4288900
  91.8252220 144.3165760  22.0546920  91.6561710 142.8456420  22.3703700
  79.1099870 139.6593190  24.8187620  78.3833930 139.0398480  24.7513570
  79.1709020 140.0533800  23.9485700  82.7144970 141.8738190  21.6037030
  83.2309990 141.2625550  21.0785290  83.3642350 142.3766970  22.0948040
  85.4540470 142.7646680  22.4306010  85.7418280 142.5100980  21.5539020
  85.9663690 142.2124040  23.0211580  86.6717480 126.5036880  23.0102520
  85.8889270 126.9782380  23.2899280  86.3780410 125.5991710  22.9015700
  91.2238550 127.2059980  21.0551610  91.6646640 127.1505080  20.2073210
  90.9546140 128.1217990  21.1261790  93.0877120 126.8375220  19.0660430
  93.0265520 125.8936440  18.9191450  93.8669150 126.9455310  19.6113890
  77.3929870 142.9767580  18.0284380  77.2251910 142.3438260  18.7266270
  76.5264380 143.1826980  17.6778570  78.0157890 126.8084360  15.5316240
  78.7737250 126.9213240  14.9580270  77.5535060 127.6453560  15.4859670
  84.5571700 128.9223630  18.5218550  83.7446210 128.5480520  18.1814430
  85.0613340 128.1668710  18.8239740  89.0596680 125.5866080  19.7601620
  89.6626050 126.1586290  20.2350140  88.3189670 126.1505520  19.5375520
  92.2031280 125.9887640  15.0341900  92.3981910 126.8871090  15.3009330
  91.4161150 125.7574720  15.5274850  78.9992570 141.6700810  15.4734520
  78.4740190 142.0508840  14.7696480  78.9237150 142.2951580  16.1944230
  80.3883040 127.3348410  14.0718210  80.9175800 126.5478210  13.9426160
  81.0211360 128.0139600  14.3053740  82.5820880 127.0723550  17.1263600
  81.9523620 126.3710860  17.2933730  82.0426020 127.8327680  16.9096760
  85.5212830 143.6862780  29.7974210  86.4480140 143.4507050  29.8410170
  85.5063260 144.5134780  29.3160240  93.7557890 143.2288350  16.7948460
  93.9310080 142.5426090  16.1509380  93.0579460 143.7535400  16.4025130
  82.7076440 126.3507530  29.5616090  82.4260710 126.8541130  28.7976910
  83.0896140 125.5529280  29.1958220  81.5985540 143.6183190  14.3483770
  82.3304360 143.3342470  13.8007660  81.8579210 143.3796470  15.2383150
  80.7600330 139.7347920  14.3530100  80.1309210 140.2033020  14.9015930
  80.8748160 138.8897140  14.7876290  89.3091900 125.7661110  30.1396560
  89.1957350 126.0855720  31.0348080  90.1261640 126.1673620  29.8433840
  92.0890390 142.9132640  29.6215250  92.8815710 142.4181870  29.4141210
  92.3823540 143.5922780  30.2290860  86.3468090 135.5632600   2.3840570
  85.5710190 135.0833040   2.6739140  86.9981020 134.8838250   2.2096730
  80.3633920 135.8752410   3.2616330  79.5318800 135.6201120   3.6612840
  80.9714900 135.9463180   3.9974250  80.3435180 139.9092500   3.4574350
  80.6463220 139.0190240   3.2784570  81.0878770 140.4662720   3.2296600
  76.7358880 133.4359950   2.9298420  77.3074990 132.6682150   2.9302060
  76.7360420 133.7348710   2.0205030  85.7877080 138.2389790   2.3910730
  85.7185360 137.2979730   2.2299860  86.5496940 138.3291200   2.9633300
  77.9783750 128.8444310   4.7167350  77.7986590 127.9470060   4.9970110
  77.5763830 129.3916180   5.3914300  86.8182250 131.0460170   2.6179660
  87.1947070 130.1732050   2.5053330  86.7201760 131.3818870   1.7270100
  78.5970420 131.3404810   3.3249690  79.2780530 131.6043180   3.9437090
  78.2818470 130.5005680   3.6587700  82.7894990 132.3872170   2.4122280
  83.2973210 132.8853140   3.0527300  83.3208230 131.6107370   2.2361640
  94.8905920 130.5577360   6.1151630  94.1858090 130.9459070   5.5966740
  95.1563840 131.2527650   6.7172560  81.0731090 127.0270730   6.6785700
  81.0749530 127.5443120   5.8731600  80.2435400 126.5500910   6.6555630
  82.3233940 136.6665910   4.8559200  81.9903320 137.2934830   5.4980270
  82.5000620 137.1927790   4.0760870  90.8367850 130.4810990   2.3235540
  90.1323420 130.7695880   2.9038650  91.1980010 131.2911100   1.9635100
  80.7546420 128.7380690   4.6856150  81.0963230 129.5822740   4.3910020
  79.8162230 128.8864430   4.8021490  81.5353040 138.6346710   6.6708380
  82.1527040 139.3097790   6.3892830  80.6746160 139.0434690   6.5795880
  92.4530630 140.0986120   4.5863020  91.7694150 140.7685230   4.5779690
  92.9924920 140.2966770   3.8207880  93.9054770 129.9265780   2.7144750
  92.9579680 129.9604760   2.8460180  94.2304760 130.7404730   3.0994110
  89.9889370 141.9430250   3.3008200  90.0016530 141.5392540   2.4330460
  89.4364590 142.7177540   3.1969630  89.3874810 136.8460090   4.6290810
  89.8043600 136.6320200   3.7944270  90.1114630 137.1032880   5.1999430
  93.3336910 135.2447310   4.7207050  92.5055540 135.3140400   4.2457180
  93.9287390 135.8301620   4.2522880  90.2978920 132.0316630   5.6661920
  89.8850100 132.8570340   5.9201910  89.5654870 131.4461670   5.4738280
  82.8993410 138.5044090   2.6919800  82.6021700 137.8989560   2.0127580
  83.8493230 138.5421400   2.5809160  81.1440330 131.5919740   4.3079630
  81.6954920 131.7015080   3.5332880  81.6583840 131.9657340   5.0234860
  90.9879020 142.0775960   6.3542900  90.5109580 142.8848150   6.1615510
  90.3040810 141.4254290   6.5069110  81.9911840 138.2425780   9.3427600
  81.0940370 138.4665750   9.5901000  82.0164710 138.3660720   8.3939000
  80.8183060 135.1139100   7.9184970  80.6790830 135.9861900   8.2872370
  79.9364420 134.7711910   7.7732910  82.6163410 141.0560800  10.1270120
  82.5878840 141.4603750   9.2598550  82.4528380 140.1271160   9.9641720
  94.5678230 141.8387900  11.4234290  95.0437950 142.3170790  12.1023370
  95.1885390 141.7705390  10.6979790  76.7701710 136.8836650   3.8355880
  76.8482130 137.0185420   2.8911600  77.3843390 136.1752540   4.0284000
  93.9711480 139.0300750   8.5834300  94.0974540 138.7912630   7.6651480
  94.0132860 138.1985290   9.0556380  87.8328220 142.7328750   7.1529110
  88.3472890 142.6436760   7.9551540  86.9897300 143.0788450   7.4457020
  93.8235490 131.0833210   9.5484040  93.2079760 131.5912880   9.0199500
  93.5031910 130.1831540   9.4909980  76.8261230 137.9250820   6.3750340
  76.9892270 137.4556180   5.5569710  77.2913680 137.4174380   7.0399180
  85.8849810 129.9225100   7.0146230  85.4229180 130.1308120   7.8266170
  85.4827920 129.1084450   6.7116900  90.8854320 131.1434050   8.1442890
  90.0347910 130.8439800   8.4651960  90.7256110 131.3876060   7.2326710
  87.9804030 132.6435800  10.2441680  88.3057440 131.8099550   9.9043910
  88.7684360 133.1664320  10.3920010  83.6355900 127.6003910   3.2700510
  83.9328230 128.5066740   3.1892530  84.1841460 127.1122690   2.6560080
  83.8293430 133.0775730   9.8052430  83.7337030 132.1370460   9.6552830
  84.6725410 133.2990800   9.4100500  78.9603970 129.4889400   7.9586210
  78.5667360 130.3364610   8.1658990  78.2722370 128.8515770   8.1494850
  85.5349020 129.5724370  11.0282950  84.8447340 129.3796570  11.6629040
  86.2781320 129.8559010  11.5607250  76.2621020 127.4117860   1.9916290
  75.9734070 127.9820720   2.7041270  77.0066780 126.9322310   2.3547520
  87.8111990 133.4122810   3.8636870  87.0793110 133.9209620   4.2126970
  87.4136330 132.5952790   3.5625650  84.2489380 130.0877010   2.2689360
  84.2525440 129.6466960   1.4193900  85.1440500 130.4094340   2.3761180
  88.2737900 128.8656490   3.2759810  88.2910640 129.3165140   4.1201660
  88.0253480 127.9662130   3.4893250  91.7008650 126.2788670   9.1146190
  92.0254420 125.5478330   9.6404170  91.7365160 125.9602310   8.2127180
  78.4000210 137.3002250   8.5346150  78.0155000 136.6595920   9.1329110
  78.7112400 138.0038370   9.1040880  84.5497350 134.1478790   4.0154770
  84.9167480 133.6737360   4.7616110  84.3602410 135.0220360   4.3563110
  82.3396720 133.1887430   6.3338980  82.0353790 134.0679410   6.5589340
  83.2943180 133.2487220   6.3696420  91.6266490 136.3913780   2.7232220
  92.3465610 136.8869070   2.3328330  91.4248310 135.7131670   2.0786090
  87.0085290 136.4622840   8.6101220  86.9422600 135.5418510   8.3558810
  86.3790430 136.5598280   9.3245860  78.3960450 134.0290170   7.4810340
  78.0375390 134.6944020   8.0683680  78.1015010 133.1973720   7.8522960
  81.5973570 134.4874410  10.3649890  81.2973710 134.6331590   9.4677710
  82.3684810 133.9279700  10.2723280  86.9402020 139.2843410   8.3605020
  86.9546560 138.3524370   8.1423930  86.2327120 139.3703170   8.9994790
  93.1513230 135.9250750   7.7073600  92.4261420 136.5179530   7.5102990
  93.6788690 135.9174290   6.9086970  86.3735920 140.9260980   5.4545520
  87.0178140 141.1320360   6.1318940  86.7365360 140.1649380   5.0016370
  87.6468000 138.9293330   4.1722970  88.2890230 138.2286490   4.2855140
  88.1717350 139.7091770   3.9919860  89.4205620 139.7288230   7.3759030
  89.7561860 140.3154920   8.0536950  88.5005960 139.5980940   7.6056820
  76.9709020 127.5183410   8.1582440  76.2567540 127.7180330   8.7635050
  77.3904060 126.7422980   8.5297240  77.2581610 141.5063670   9.1448970
  77.3672730 140.5658410   9.0044360  76.6062170 141.7718420   8.4962700
  85.2494200 139.7779560  10.5447090  84.9291070 139.0588800  11.0892780
  84.5752560 140.4534630  10.6183150  88.4647800 130.0105720   5.9083890
  88.8328620 129.1900930   6.2363460  87.6046000 130.0707610   6.3239540
  85.4249790 132.6645310   6.1321860  85.9235040 133.1391130   6.7973710
  85.5672740 131.7408830   6.3391890  92.6316650 128.8813270   6.9750250
  92.1290250 129.6218670   7.3144060  93.4473310 129.2697270   6.6587040
  92.9264240 141.2955300   2.0965870  93.0511660 142.1186470   2.5689680
  93.7929800 141.0846030   1.7490020  80.3981770 143.3886510   1.7683000
  81.1344250 142.8401970   2.0391570  80.7822690 144.2542520   1.6288990
  79.4040050 142.5732580  10.9568580  80.2052780 142.8944630  11.3703980
  78.8891870 142.2128160  11.6788490  88.2404680 138.6812450  10.9043990
  87.6342840 138.7044050  10.1639740  87.9358790 137.9495490  11.4411240
  89.6705050 142.4092740   9.5153400  90.6226800 142.3250760   9.4653640
  89.5233270 143.0734450  10.1887190  77.1237860 135.0606040   9.9004630
  77.6276880 134.4813320  10.4720860  76.3845280 135.3446270  10.4381000
  84.1775800 136.4677030   9.4340150  83.4121470 137.0362030   9.3494820
  84.3591760 136.1753240   8.5408380  91.3199150 138.1982360   9.9915170
  92.0608620 138.5358120   9.4882630  90.5571830 138.3674420   9.4384940
  79.1560940 133.2035630  10.7954700  79.1966280 132.9049500  11.7039930
  80.0106440 133.6043240  10.6362220  81.0966750 131.7827730   8.7629190
  80.5663210 131.2918680   8.1352530  81.7654820 132.2111930   8.2287120
  89.9944810 136.2497190   8.5270380  90.4085830 136.4042270   9.3760800
  89.0595810 136.3752410   8.6896160  90.4666980 133.5893350  10.5309530
  91.0487750 132.8345670  10.4430010  90.6428750 134.1200790   9.7541010
  81.5839050 128.7490100   8.8426480  81.4895920 128.1310850   8.1177350
  81.0036440 129.4756390   8.6156390  84.3500490 127.3063340   5.8753870
  83.9017790 127.3287600   5.0299420  83.7165690 126.9082360   6.4724170
  84.7560040 136.2017670   6.4966310  85.1748150 137.0450400   6.3242550
  83.8368670 136.3389710   6.2673090  87.0923940 133.9333850   7.8804150
  87.2120150 133.3374990   8.6198990  87.9517940 133.9703540   7.4605450
  89.4311840 134.4871040   6.4566660  88.9047060 135.0113660   5.8531800
  89.7743180 135.1198430   7.0876390  82.6067460 142.5070680   7.6124040
  82.0688550 143.2316740   7.2932740  82.8601420 142.0301020   6.8221380
  83.8592710 130.4755200   9.1379970  84.4492400 130.1671050   9.8257790
  83.0412950 130.0034950   9.2939870  88.6786140 130.0921010   9.3712990
  87.9901660 129.4302550   9.3062980  89.3992160 129.6459280   9.8161450
  85.4629670 143.7421890   7.8710690  85.3888370 144.6457030   8.1783060
  84.5608510 143.4233790   7.8432760  77.3547170 141.9367070   3.9125940
  76.9178160 142.1167870   4.7450090  77.9224850 142.6941690   3.7707660
  92.9909350 141.4384070   8.2003250  92.3911340 141.4976630   7.4567170
  93.1203250 140.4989050   8.3300100  91.6760990 138.1636050   6.2979410
  90.8620830 138.5933210   6.5605200  92.0835190 138.7754460   5.6848460
  78.2247530 134.8339870   4.8118160  78.5920570 134.7467270   5.6914180
  77.6558350 134.0706420   4.7125020  93.0251390 133.3024250   7.8248630
  92.7937480 133.0737000   6.9246580  93.2855940 134.2223800   7.7793520
  77.7763530 131.7448960   8.7176580  76.8819580 131.7115720   9.0570290
  78.3161080 131.9435750   9.4827830  91.4639460 128.5280680  10.6028330
  92.3409640 128.5364080  10.9862330  91.4760300 127.7911520   9.9920680
  93.0892450 132.4650090   5.0135900  92.1395160 132.4313630   5.1280890
  93.2705460 133.3750200   4.7785670  78.2803240 126.0197290   3.0659800
  78.9279430 125.4694670   2.6254960  78.7005080 126.2740440   3.8875610
  92.1755580 126.2138650   6.4229440  92.8127800 126.8272790   6.7888630
  92.3230470 126.2499310   5.4778670  78.0335240 126.1752960   5.8085120
  77.6850060 126.6316780   6.5743300  77.7022940 125.2810090   5.8907550
  79.6399610 139.3472560   9.9738310  79.5969240 138.9765470  10.8552770
  79.7710620 140.2850130  10.1140130  83.3405640 140.9032150   5.5748030
  83.0997000 141.1706710   4.6878550  84.2808280 141.0737880   5.6298890
  85.5460060 127.3664840   9.3304540  85.4848950 127.9586670  10.0799950
  86.4860440 127.2590800   9.1854800  88.1834620 127.0234900   8.9696830
  88.7975030 127.3414190   8.3077910  88.7284180 126.5383490   9.5892690
  94.6009800 142.9226530   6.3758670  94.1068080 143.3195400   5.6585800
  93.9923090 142.2975740   6.7695950  78.7055880 125.7029160   9.0835890
  79.2538870 125.5217210   8.3202000  78.7711190 124.9123270   9.6192200
  79.4787640 142.2934810   7.0936090  78.8847960 142.1619510   7.8326130
  79.4711480 141.4572950   6.6278190  88.9242660 125.5867040   5.2966120
  88.0502500 125.9202150   5.0939050  88.8153410 125.1140220   6.1217990
  89.8314640 127.7937910   6.6807840  89.5028000 126.9789670   6.3009570
  90.7796940 127.7507720   6.5573530  92.2849250 143.5649950   3.6545410
  91.8252220 144.3165760   3.2803430  91.6561710 142.8456420   3.5960210
  79.1099870 139.6593190   6.0444130  78.3833930 139.0398480   5.9770080
  79.1709020 140.0533800   5.1742210  82.7144970 141.8738190   2.8293540
  83.2309990 141.2625550   2.3041800  83.3642350 142.3766970   3.3204550
  85.4540470 142.7646680   3.6562520  85.7418280 142.5100980   2.7795530
  85.9663690 142.2124040   4.2468090  86.6717480 126.5036880   4.2359030
  85.8889270 126.9782380   4.5155790  86.3780410 125.5991710   4.1272210
  91.2238550 127.2059980   2.2808120  91.6646640 127.1505080   1.4329720
  90.9546140 128.1217990   2.3518300  85.5212830 143.6862780  11.0230720
  86.4480140 143.4507050  11.0666680  85.5063260 144.5134780  10.5416750
  82.7076440 126.3507530  10.7872600  82.4260710 126.8541130  10.0233420
  83.0896140 125.5529280  10.4214730  89.3091900 125.7661110  11.3653070
  89.1957350 126.0855720  12.2604590  90.1261640 126.1673620  11.0690350
  92.0890390 142.9132640  10.8471760  92.8815710 142.4181870  10.6397720
  92.3823540 143.5922780  11.4547370  88.2150050 115.0110090 150.6979220
  88.1344100 114.0964700 150.4270930  87.8014470 115.5077160 149.9918930
  86.3468090 116.7889110 152.5788490  85.5710190 116.3089550 152.8687060
  86.9981020 116.1094760 152.4044650  90.3675520 121.1949300 151.3587620
  89.9057050 120.4236540 151.6874790  91.1801070 121.2215370 151.8640070
  78.7725870 112.0610810 147.2406640  77.8842570 112.4026780 147.1386520
  79.0567060 111.8611130 146.3487470  76.7358880 114.6616460 153.1246340
  77.3074990 113.8938660 153.1249980  76.7360420 114.9605220 152.2152950
  86.5938830 123.4807310 150.9791610  85.9750270 123.9364810 150.4086050
  87.4490610 123.6358770 150.5781310  85.7877080 119.4646300 152.5858650
  85.7185360 118.5236240 152.4247780  86.5496940 119.5547710 153.1581220
  86.8182250 112.2716680 152.8127580  87.1947070 111.3988560 152.7001250
  86.7201760 112.6075380 151.9218020  80.9487260 110.6442310 148.2745020
  81.0554010 111.5446040 148.5813780  80.0379620 110.5960280 147.9839670
  90.6006370 109.7667120 149.7455920  91.4215990 109.2763690 149.7881400
  90.6340450 110.3564780 150.4987760  87.4602180 118.3646550 148.3723520
  86.8419450 118.8296000 147.8086240  87.9725430 119.0574030 148.7893030
  90.8367850 111.7067500 152.5183460  90.1323420 111.9952390 153.0986570
  91.1980010 112.5167610 152.1583020  76.8285380 119.0503080 145.7463150
  76.4513360 119.5390180 145.0148050  77.0858450 119.7228360 146.3769680
  84.4374310 107.4519470 151.2048660  84.7449290 106.8966360 150.4884160
  83.5075010 107.5863930 151.0221650  91.2834790 119.8902980 148.5846290
  91.1731120 118.9477310 148.7095710  91.2803040 120.2518620 149.4709050
  86.8255070 115.5168300 147.9408780  85.8984350 115.4505680 148.1697250
  86.9779890 116.4548430 147.8264020  86.8124150 111.7885300 144.9375940
  85.8727820 111.9499260 145.0228400  87.1307410 112.5070980 144.3911930
  90.8552360 117.0788600 148.4444030  90.2364780 116.7408150 147.7970330
  90.8376810 116.4348360 149.1523220  82.4311710 116.0433040 150.7228510
  82.0268710 115.3310290 150.2274410  82.5174830 115.6986280 151.6116550
  82.8993410 119.7300600 152.8867720  82.6021700 119.1246070 152.2075500
  83.8493230 119.7677910 152.7757080  89.0317060 116.3175410 145.4516780
  89.4710340 115.4797840 145.3054600  89.7445480 116.9504810 145.5380920
  87.1412440 121.2571480 149.4198020  87.5808350 121.9995810 149.0053410
  87.0799330 121.4998050 150.3436980  92.6134200 107.5718220 143.7657820
  92.3006860 107.6645050 144.6656890  93.3746670 108.1499250 143.7155250
  79.1316340 114.9378020 148.2235160  79.0113940 115.6640110 147.6116430
  78.8217230 114.1680930 147.7463070  78.0149340 119.8093350 150.4409980
  77.6077420 119.9507940 149.5863580  78.9062350 119.5253510 150.2381190
  89.8082620 124.2440600 146.7761030  89.6483760 123.9543540 147.6742860
  89.6429330 123.4680730 146.2406260  82.2871000 124.0239130 148.5532650
  82.1113480 123.1074670 148.3400450  81.4326740 124.3826420 148.7930450
  89.5108750 121.7528160 145.3359030  88.8173910 121.7505450 144.6761310
  90.2531610 121.3287480 144.9053200  89.0758680 123.3790870 149.4107520
  89.5315630 122.5980250 149.7246140  89.4151200 124.0897690 149.9548700
  81.5980000 108.2813090 151.6058830  81.1548150 109.0622630 151.2743350
  82.1564990 108.6042980 152.3129770  84.7138820 107.9023790 146.4864660
  84.0893000 107.8983660 147.2117970  84.6268940 107.0354750 146.0900630
  81.3894220 113.4046660 149.3340080  81.1635140 113.1883830 150.2386700
  80.6086750 113.8375120 148.9886050  88.6191980 113.4110030 147.9330730
  88.0200870 114.1345830 147.7494350  89.1671590 113.3486810 147.1507180
  87.2256850 112.0473570 149.9634010  87.6186420 112.3645770 149.1502700
  87.5873700 111.1685450 150.0778530  76.2621020 108.6374370 152.1864210
  75.9734070 109.2077230 152.8989190  77.0066780 108.1578820 152.5495440
  76.4491250 112.5794490 143.3966930  76.3665920 113.5225250 143.5381920
  76.0974310 112.4369400 142.5179280  84.2489380 111.3133520 152.4637280
  84.2525440 110.8723470 151.6141820  85.1440500 111.6350850 152.5709100
  80.0991760 111.1960010 151.4231490  79.7591810 111.6735240 152.1798540
  79.3369080 110.7425130 151.0632590  84.3109530 112.3145600 145.4544040
  84.4322350 112.2732080 146.4029860  83.9258040 113.1769750 145.2990770
  83.3231030 114.6246740 144.8527340  82.7547930 114.1764990 144.2263250
  84.0320030 114.9839520 144.3192490  77.4137840 110.1178990 150.3396160
  77.1284760 109.7534660 151.1774780  77.3516700 109.3859450 149.7259300
  80.8678510 118.6204930 147.1253750  80.0940770 118.0802550 146.9652470
  81.5973140 118.1011540 146.7871510  91.6266490 117.6170290 152.9180140
  92.3465610 118.1125580 152.5276250  91.4248310 116.9388180 152.2734010
  87.0876430 109.0108250 147.0609530  86.2741040 108.5121420 146.9854840
  86.8938380 109.8506500 146.6445880  89.8024820 113.3827900 145.3571690
  90.6904440 113.6945130 145.1823030  89.7729910 112.5100150 144.9652270
  80.9115910 118.2885310 150.7632560  81.4294580 117.4853570 150.7089450
  80.4599930 118.2264450 151.6049390  85.7985410 119.5551590 146.0359860
  86.1401110 120.2993820 145.5403180  84.9698120 119.8682710 146.3984690
  92.0739090 114.6939740 144.8251550  91.9902810 115.1253960 143.9747990
  92.7933280 115.1538090 145.2578370  93.1026340 121.5482000 147.5533680
  92.4602500 120.8937620 147.8277400  92.7157000 121.9537090 146.7774350
  88.6812820 118.8767430 151.4005370  89.0336640 118.2795560 150.7406740
  87.7975150 118.5511660 151.5713620  84.7676100 119.6365120 148.8075780
  85.4547230 120.1834330 149.1883370  83.9808520 120.1805850 148.8425390
  76.9068500 115.2537940 144.2992860  77.7763350 115.5362740 144.5828780
  76.4158820 116.0673810 144.1841670  84.0703310 116.6411150 148.4201140
  84.5266090 117.4516400 148.6461330  83.7191520 116.3234290 149.2519630
  79.9715090 106.9848800 148.8923660  79.8429720 106.9766700 149.8408580
  79.1477110 107.3231890 148.5414670  91.4923720 120.4398460 144.0910030
  91.2661300 119.7228900 144.6834670  91.1019920 120.1910900 143.2531780
  77.2739750 124.4665320 144.8654490  77.6337390 125.0654660 144.2111760
  77.1332090 125.0125210 145.6389520  91.0739970 118.3570400 145.7524190
  90.7861670 118.8183090 146.5402070  91.8692140 117.8968170 146.0208410
  83.2908370 121.8496520 145.6828160  83.2818470 122.5826210 145.0672670
  82.3706730 121.6028100 145.7755120  78.8915010 117.0711410 146.4274920
  78.2842960 117.8110310 146.4370220  79.3664360 117.1610770 145.6013120
  91.8309830 110.1919170 146.9119370  91.2022990 110.2964840 146.1977600
  91.3361750 110.4115950 147.7013250  86.2767970 121.9124760 144.3453350
  86.3779950 121.7088750 143.4155330  85.3769710 121.6583040 144.5501130
  83.7993860 112.4705120 148.3277250  83.0910010 112.9391460 148.7690860
  84.0838340 111.8127130 148.9622440  87.8309290 109.1955780 149.7673040
  87.7077070 109.2141910 148.8182550  88.7793850 109.2434720 149.8871440
  84.9186080 124.4311080 149.0401020  85.1727580 124.3932470 148.1180390
  83.9698560 124.3044410 149.0329270  82.0028880 110.7790200 145.7027960
  82.8519410 111.2160350 145.6368150  81.6360150 111.0910460 146.5300020
  90.9238660 115.3502960 150.6159530  89.9828800 115.3653190 150.7907220
  91.2382730 114.5638920 151.0619830  80.9020300 117.0322560 144.1763490
  81.6683570 116.9203920 144.7388920  80.9794990 116.3360530 143.5240260
  79.5967060 114.4647630 144.8596380  79.6770650 113.5175140 144.9713780
  80.4886810 114.7954510 144.9657040  92.9264240 122.5211810 152.2913790
  93.0511660 123.3442980 152.7637600  93.7929800 122.3102540 151.9437940
  80.3981770 124.6143020 151.9630920  81.1344250 124.0658480 152.2339490
  80.7822690 125.4799030 151.8236910  77.2827250 120.6816590 147.8372430
  76.3567030 120.9237730 147.8277840  77.7483680 121.5090850 147.7157180
  83.5084080 123.7873330 143.7856490  84.3012690 124.0762160 143.3338280
  82.9888430 123.3565500 143.1068970  92.5614250 123.0143460 145.2093230
  92.2755760 122.6008600 144.3947410  92.3633800 123.9431170 145.0893750
  84.0261480 119.0076740 143.6498840  83.9212120 118.3929090 144.3760220
  83.8585700 118.4842630 142.8661850  87.2664210 118.0696770 144.2540830
  86.7174310 118.5166070 144.8983570  87.8883470 117.5646020 144.7778500
  82.9339330 117.0287690 146.1506130  83.3555750 116.8627560 146.9937520
  83.0590170 116.2187920 145.6561270  85.4466970 116.0525300 143.3983230
  85.9672630 115.3374320 143.0324380  86.0935370 116.6911170 143.6983740
  81.8298230 113.1020920 143.0964290  81.6287290 112.2388280 143.4577630
  81.6590280 113.0154280 142.1585890  89.3086540 107.9129150 145.6251170
  89.5888830 107.0697050 145.9810590  88.5352270 108.1452260 146.1389920
  80.6281030 110.2021540 143.0842170  80.9306930 110.2088970 142.1761320
  81.3675620 109.8519400 143.5809830  83.8465960 109.1456160 144.0698370
  83.4987960 108.4680150 143.4900820  84.0478730 108.6845670 144.8841760
  86.0115000 124.1336910 145.6884970  86.9065790 124.4721880 145.7103730
  86.0432630 123.4116320 145.0609250  79.6511160 119.5063960 143.9171970
  80.0886030 120.0493630 144.5729550  80.1358890 118.6810910 143.9268310
  76.8656960 122.2952990 151.3692230  77.1959970 121.4274050 151.1370870
  77.2947960 122.5011510 152.1997190  81.4618880 120.6262000 149.0294200
  81.1614420 120.5026970 149.9298110  81.3556370 119.7670590 148.6209930
  94.2310800 120.4058400 143.7320880  93.4003760 120.4735050 144.2028110
  94.4082630 121.2962520 143.4287740  93.6867260 117.1505880 146.2355080
  94.4486170 117.7202530 146.3414770  93.7021630 116.5833080 147.0063390
  77.1871600 115.6743810 150.4662740  76.5320440 115.4055450 149.8222440
  78.0249550 115.5648290 150.0164720  94.6927230 118.0055980 151.0797010
  95.0636060 117.2223300 150.6732980  95.3329160 118.6945080 150.9014310
  93.7386430 117.4440250 143.3927600  94.0135270 118.3519130 143.2646820
  93.5497170 117.3802780 144.3289590  90.1362040 110.4685100 144.6881230
  90.5546920 110.2816080 143.8477890  89.8298100 109.6164150 144.9984160
  93.6351770 115.3809240 148.3857030  93.2595370 114.6137170 147.9538320
  92.9054890 115.7631940 148.8731960  76.4009680 112.8842740 146.4088070
  75.4973760 113.1472940 146.2339730  76.8850300 113.1553910 145.6288030
  92.9102730 113.6066730 151.6864270  93.4340210 113.1129380 151.0554440
  93.4962150 113.7417090 152.4311840  78.9436890 111.9408280 144.3182450
  79.6528590 111.5191500 143.8329730  78.2276830 112.0083510 143.6865800
  78.5911050 107.9947610 143.3585100  79.3139180 108.5356550 143.6766320
  78.8635570 107.7211030 142.4826640  92.4002700 112.8640080 147.6256680
  92.8961820 112.6310950 148.4105560  92.2018770 112.0251920 147.2094320
  93.8289860 111.5001030 150.1594360  93.7189140 111.3457070 151.0976630
  94.5897450 110.9721970 149.9169770  94.7180130 109.3308950 143.4000500
  95.6429440 109.1990130 143.1918790  94.6955920 109.4101770 144.3536950
  94.7918620 110.1019610 146.0257210  93.9970120 110.0364730 146.5550120
  94.9961900 111.0370250 146.0142560  91.7337040 124.1411160 150.0195600
  92.3296110 123.8195730 149.3430020  91.9915190 123.6682980 150.8108870
  91.2238550 108.4316490 152.4756040  91.6646640 108.3761590 151.6277640
  90.9546140 109.3474500 152.5466220  93.0877120 108.0631730 150.4864860
  93.0265520 107.1192950 150.3395880  93.8669150 108.1711820 151.0318320
  77.3929870 124.2024090 149.4488810  77.2251910 123.5694770 150.1470700
  76.5264380 124.4083490 149.0983000  78.0157890 108.0340870 146.9520670
  78.7737250 108.1469750 146.3784700  77.5535060 108.8710070 146.9064100
  84.5571700 110.1480140 149.9422980  83.7446210 109.7737030 149.6018860
  85.0613340 109.3925220 150.2444170  89.0596680 106.8122590 151.1806050
  89.6626050 107.3842800 151.6554570  88.3189670 107.3762030 150.9579950
  92.2031280 107.2144150 146.4546330  92.3981910 108.1127600 146.7213760
  91.4161150 106.9831230 146.9479280  78.9992570 122.8957320 146.8938950
  78.4740190 123.2765350 146.1900910  78.9237150 123.5208090 147.6148660
  80.3883040 108.5604920 145.4922640  80.9175800 107.7734720 145.3630590
  81.0211360 109.2396110 145.7258170  82.5820880 108.2980060 148.5468030
  81.9523620 107.5967370 148.7138160  82.0426020 109.0584190 148.3301190
  93.7557890 124.4544860 148.2152890  93.9310080 123.7682600 147.5713810
  93.0579460 124.9791910 147.8229560  81.5985540 124.8439700 145.7688200
  82.3304360 124.5598980 145.2212090  81.8579210 124.6052980 146.6587580
  80.7600330 120.9604430 145.7734530  80.1309210 121.4289530 146.3220360
  80.8748160 120.1153650 146.2080720  86.3468090 116.7889110 133.8045000
  85.5710190 116.3089550 134.0943570  86.9981020 116.1094760 133.6301160
  80.3633920 117.1008920 134.6820760  79.5318800 116.8457630 135.0817270
  80.9714900 117.1719690 135.4178680  90.3675520 121.1949300 132.5844130
  89.9057050 120.4236540 132.9131300  91.1801070 121.2215370 133.0896580
  80.3435180 121.1349010 134.8778780  80.6463220 120.2446750 134.6989000
  81.0878770 121.6919230 134.6501030  76.7358880 114.6616460 134.3502850
  77.3074990 113.8938660 134.3506490  76.7360420 114.9605220 133.4409460
  86.5938830 123.4807310 132.2048120  85.9750270 123.9364810 131.6342560
  87.4490610 123.6358770 131.8037820  85.7877080 119.4646300 133.8115160
  85.7185360 118.5236240 133.6504290  86.5496940 119.5547710 134.3837730
  77.9783750 110.0700820 136.1371780  77.7986590 109.1726570 136.4174540
  77.5763830 110.6172690 136.8118730  80.9487260 110.6442310 129.5001530
  81.0554010 111.5446040 129.8070290  80.0379620 110.5960280 129.2096180
  90.6006370 109.7667120 130.9712430  91.4215990 109.2763690 131.0137910
  90.6340450 110.3564780 131.7244270  78.5970420 112.5661320 134.7454120
  79.2780530 112.8299690 135.3641520  78.2818470 111.7262190 135.0792130
  82.7894990 113.6128680 133.8326710  83.2973210 114.1109650 134.4731730
  83.3208230 112.8363880 133.6566070  94.8905920 111.7833870 137.5356060
  94.1858090 112.1715580 137.0171170  95.1563840 112.4784160 138.1376990
  81.0731090 108.2527240 138.0990130  81.0749530 108.7699630 137.2936030
  80.2435400 107.7757420 138.0760060  82.3233940 117.8922420 136.2763630
  81.9903320 118.5191340 136.9184700  82.5000620 118.4184300 135.4965300
  90.8367850 111.7067500 133.7439970  90.1323420 111.9952390 134.3243080
  91.1980010 112.5167610 133.3839530  80.7546420 109.9637200 136.1060580
  81.0963230 110.8079250 135.8114450  79.8162230 110.1120940 136.2225920
  81.5353040 119.8603220 138.0912810  82.1527040 120.5354300 137.8097260
  80.6746160 120.2691200 138.0000310  92.4530630 121.3242630 136.0067450
  91.7694150 121.9941740 135.9984120  92.9924920 121.5223280 135.2412310
  93.9054770 111.1522290 134.1349180  92.9579680 111.1861270 134.2664610
  94.2304760 111.9661240 134.5198540  84.4374310 107.4519470 132.4305170
  84.7449290 106.8966360 131.7140670  83.5075010 107.5863930 132.2478160
  89.9889370 123.1686760 134.7212630  90.0016530 122.7649050 133.8534890
  89.4364590 123.9434050 134.6174060  91.2834790 119.8902980 129.8102800
  91.1731120 118.9477310 129.9352220  91.2803040 120.2518620 130.6965560
  89.3874810 118.0716600 136.0495240  89.8043600 117.8576710 135.2148700
  90.1114630 118.3289390 136.6203860  93.3336910 116.4703820 136.1411480
  92.5055540 116.5396910 135.6661610  93.9287390 117.0558130 135.6727310
  90.8552360 117.0788600 129.6700540  90.2364780 116.7408150 129.0226840
  90.8376810 116.4348360 130.3779730  90.2978920 113.2573140 137.0866350
  89.8850100 114.0826850 137.3406340  89.5654870 112.6718180 136.8942710
  82.4311710 116.0433040 131.9485020  82.0268710 115.3310290 131.4530920
  82.5174830 115.6986280 132.8373060  82.8993410 119.7300600 134.1124230
  82.6021700 119.1246070 133.4332010  83.8493230 119.7677910 134.0013590
  81.1440330 112.8176250 135.7284060  81.6954920 112.9271590 134.9537310
  81.6583840 113.1913850 136.4439290  90.9879020 123.3032470 137.7747330
  90.5109580 124.1104660 137.5819940  90.3040810 122.6510800 137.9273540
  81.9911840 119.4682290 140.7632030  81.0940370 119.6922260 141.0105430
  82.0164710 119.5917230 139.8143430  80.8183060 116.3395610 139.3389400
  80.6790830 117.2118410 139.7076800  79.9364420 115.9968420 139.1937340
  87.1412440 121.2571480 130.6454530  87.5808350 121.9995810 130.2309920
  87.0799330 121.4998050 131.5693490  82.6163410 122.2817310 141.5474550
  82.5878840 122.6860260 140.6802980  82.4528380 121.3527670 141.3846150
  94.5678230 123.0644410 142.8438720  95.0437950 123.5427300 143.5227800
  95.1885390 122.9961900 142.1184220  76.7701710 118.1093160 135.2560310
  76.8482130 118.2441930 134.3116030  77.3843390 117.4009050 135.4488430
  78.0149340 119.8093350 131.6666490  77.6077420 119.9507940 130.8120090
  78.9062350 119.5253510 131.4637700  93.9711480 120.2557260 140.0038730
  94.0974540 120.0169140 139.0855910  94.0132860 119.4241800 140.4760810
  87.8328220 123.9585260 138.5733540  88.3472890 123.8693270 139.3755970
  86.9897300 124.3044960 138.8661450  89.8082620 124.2440600 128.0017540
  89.6483760 123.9543540 128.8999370  89.6429330 123.4680730 127.4662770
  82.2871000 124.0239130 129.7789160  82.1113480 123.1074670 129.5656960
  81.4326740 124.3826420 130.0186960  89.5108750 121.7528160 126.5615540
  88.8173910 121.7505450 125.9017820  90.2531610 121.3287480 126.1309710
  89.0758680 123.3790870 130.6364030  89.5315630 122.5980250 130.9502650
  89.4151200 124.0897690 131.1805210  93.8235490 112.3089720 140.9688470
  93.2079760 112.8169390 140.4403930  93.5031910 111.4088050 140.9114410
  76.8261230 119.1507330 137.7954770  76.9892270 118.6812690 136.9774140
  77.2913680 118.6430890 138.4603610  81.5980000 108.2813090 132.8315340
  81.1548150 109.0622630 132.4999860  82.1564990 108.6042980 133.5386280
  85.8849810 111.1481610 138.4350660  85.4229180 111.3564630 139.2470600
  85.4827920 110.3340960 138.1321330  90.8854320 112.3690560 139.5647320
  90.0347910 112.0696310 139.8856390  90.7256110 112.6132570 138.6531140
  87.9804030 113.8692310 141.6646110  88.3057440 113.0356060 141.3248340
  88.7684360 114.3920830 141.8124440  84.7138820 107.9023790 127.7121170
  84.0893000 107.8983660 128.4374480  84.6268940 107.0354750 127.3157140
  83.6355900 108.8260420 134.6904940  83.9328230 109.7323250 134.6096960
  84.1841460 108.3379200 134.0764510  83.8293430 114.3032240 141.2256860
  83.7337030 113.3626970 141.0757260  84.6725410 114.5247310 140.8304930
  78.9603970 110.7145910 139.3790640  78.5667360 111.5621120 139.5863420
  78.2722370 110.0772280 139.5699280  85.5349020 110.7980880 142.4487380
  84.8447340 110.6053080 143.0833470  86.2781320 111.0815520 142.9811680
  76.2621020 108.6374370 133.4120720  75.9734070 109.2077230 134.1245700
  77.0066780 108.1578820 133.7751950  87.8111990 114.6379320 135.2841300
  87.0793110 115.1466130 135.6331400  87.4136330 113.8209300 134.9830080
  80.0991760 111.1960010 132.6488000  79.7591810 111.6735240 133.4055050
  79.3369080 110.7425130 132.2889100  88.2737900 110.0913000 134.6964240
  88.2910640 110.5421650 135.5406090  88.0253480 109.1918640 134.9097680
  91.7008650 107.5045180 140.5350620  92.0254420 106.7734840 141.0608600
  91.7365160 107.1858820 139.6331610  78.4000210 118.5258760 139.9550580
  78.0155000 117.8852430 140.5533540  78.7112400 119.2294880 140.5245310
  84.5497350 115.3735300 135.4359200  84.9167480 114.8993870 136.1820540
  84.3602410 116.2476870 135.7767540  77.4137840 110.1178990 131.5652670
  77.1284760 109.7534660 132.4031290  77.3516700 109.3859450 130.9515810
  82.3396720 114.4143940 137.7543410  82.0353790 115.2935920 137.9793770
  83.2943180 114.4743730 137.7900850  91.6266490 117.6170290 134.1436650
  92.3465610 118.1125580 133.7532760  91.4248310 116.9388180 133.4990520
  87.0876430 109.0108250 128.2866040  86.2741040 108.5121420 128.2111350
  86.8938380 109.8506500 127.8702390  87.0085290 117.6879350 140.0305650
  86.9422600 116.7675020 139.7763240  86.3790430 117.7854790 140.7450290
  80.9115910 118.2885310 131.9889070  81.4294580 117.4853570 131.9345960
  80.4599930 118.2264450 132.8305900  85.7985410 119.5551590 127.2616370
  86.1401110 120.2993820 126.7659690  84.9698120 119.8682710 127.6241200
  78.3960450 115.2546680 138.9014770  78.0375390 115.9200530 139.4888110
  78.1015010 114.4230230 139.2727390  81.5973570 115.7130920 141.7854320
  81.2973710 115.8588100 140.8882140  82.3684810 115.1536210 141.6927710
  86.9402020 120.5099920 139.7809450  86.9546560 119.5780880 139.5628360
  86.2327120 120.5959680 140.4199220  92.0739090 114.6939740 126.0508060
  91.9902810 115.1253960 125.2004500  92.7933280 115.1538090 126.4834880
  93.1513230 117.1507260 139.1278030  92.4261420 117.7436040 138.9307420
  93.6788690 117.1430800 138.3291400  93.1026340 121.5482000 128.7790190
  92.4602500 120.8937620 129.0533910  92.7157000 121.9537090 128.0030860
  88.6812820 118.8767430 132.6261880  89.0336640 118.2795560 131.9663250
  87.7975150 118.5511660 132.7970130  84.7676100 119.6365120 130.0332290
  85.4547230 120.1834330 130.4139880  83.9808520 120.1805850 130.0681900
  86.3735920 122.1517490 136.8749950  87.0178140 122.3576870 137.5523370
  86.7365360 121.3905890 136.4220800  79.9715090 106.9848800 130.1180170
  79.8429720 106.9766700 131.0665090  79.1477110 107.3231890 129.7671180
  87.6468000 120.1549840 135.5927400  88.2890230 119.4543000 135.7059570
  88.1717350 120.9348280 135.4124290  91.4923720 120.4398460 125.3166540
  91.2661300 119.7228900 125.9091180  91.1019920 120.1910900 124.4788290
  89.4205620 120.9544740 138.7963460  89.7561860 121.5411430 139.4741380
  88.5005960 120.8237450 139.0261250  77.2739750 124.4665320 126.0911000
  77.6337390 125.0654660 125.4368270  77.1332090 125.0125210 126.8646030
  76.9709020 108.7439920 139.5786870  76.2567540 108.9436840 140.1839480
  77.3904060 107.9679490 139.9501670  91.0739970 118.3570400 126.9780700
  90.7861670 118.8183090 127.7658580  91.8692140 117.8968170 127.2464920
  77.2581610 122.7320180 140.5653400  77.3672730 121.7914920 140.4248790
  76.6062170 122.9974930 139.9167130  85.2494200 121.0036070 141.9651520
  84.9291070 120.2845310 142.5097210  84.5752560 121.6791140 142.0387580
  88.4647800 111.2362230 137.3288320  88.8328620 110.4157440 137.6567890
  87.6046000 111.2964120 137.7443970  85.4249790 113.8901820 137.5526290
  85.9235040 114.3647640 138.2178140  85.5672740 112.9665340 137.7596320
  87.8309290 109.1955780 130.9929550  87.7077070 109.2141910 130.0439060
  88.7793850 109.2434720 131.1127950  84.9186080 124.4311080 130.2657530
  85.1727580 124.3932470 129.3436900  83.9698560 124.3044410 130.2585780
  92.6316650 110.1069780 138.3954680  92.1290250 110.8475180 138.7348490
  93.4473310 110.4953780 138.0791470  90.9238660 115.3502960 131.8416040
  89.9828800 115.3653190 132.0163730  91.2382730 114.5638920 132.2876340
  92.9264240 122.5211810 133.5170300  93.0511660 123.3442980 133.9894110
  93.7929800 122.3102540 133.1694450  80.3981770 124.6143020 133.1887430
  81.1344250 124.0658480 133.4596000  80.7822690 125.4799030 133.0493420
  77.2827250 120.6816590 129.0628940  76.3567030 120.9237730 129.0534350
  77.7483680 121.5090850 128.9413690  79.4040050 123.7989090 142.3773010
  80.2052780 124.1201140 142.7908410  78.8891870 123.4384670 143.0992920
  88.2404680 119.9068960 142.3248420  87.6342840 119.9300560 141.5844170
  87.9358790 119.1752000 142.8615670  89.6705050 123.6349250 140.9357830
  90.6226800 123.5507270 140.8858070  89.5233270 124.2990960 141.6091620
  92.5614250 123.0143460 126.4349740  92.2755760 122.6008600 125.6203920
  92.3633800 123.9431170 126.3150260  77.1237860 116.2862550 141.3209060
  77.6276880 115.7069830 141.8925290  76.3845280 116.5702780 141.8585430
  84.1775800 117.6933540 140.8544580  83.4121470 118.2618540 140.7699250
  84.3591760 117.4009750 139.9612810  87.2664210 118.0696770 125.4797340
  86.7174310 118.5166070 126.1240080  87.8883470 117.5646020 126.0035010
  91.3199150 119.4238870 141.4119600  92.0608620 119.7614630 140.9087060
  90.5571830 119.5930930 140.8589370  79.1560940 114.4292140 142.2159130
  79.1966280 114.1306010 143.1244360  80.0106440 114.8299750 142.0566650
  81.0966750 113.0084240 140.1833620  80.5663210 112.5175190 139.5556960
  81.7654820 113.4368440 139.6491550  89.9944810 117.4753700 139.9474810
  90.4085830 117.6298780 140.7965230  89.0595810 117.6008920 140.1100590
  90.4666980 114.8149860 141.9513960  91.0487750 114.0602180 141.8634440
  90.6428750 115.3457300 141.1745440  81.5839050 109.9746610 140.2630910
  81.4895920 109.3567360 139.5381780  81.0036440 110.7012900 140.0360820
  84.3500490 108.5319850 137.2958300  83.9017790 108.5544110 136.4503850
  83.7165690 108.1338870 137.8928600  84.7560040 117.4274180 137.9170740
  85.1748150 118.2706910 137.7446980  83.8368670 117.5646220 137.6877520
  87.0923940 115.1590360 139.3008580  87.2120150 114.5631500 140.0403420
  87.9517940 115.1960050 138.8809880  89.4311840 115.7127550 137.8771090
  88.9047060 116.2370170 137.2736230  89.7743180 116.3454940 138.5080820
  82.6067460 123.7327190 139.0328470  82.0688550 124.4573250 138.7137170
  82.8601420 123.2557530 138.2425810  83.8592710 111.7011710 140.5584400
  84.4492400 111.3927560 141.2462220  83.0412950 111.2291460 140.7144300
  88.6786140 111.3177520 140.7917420  87.9901660 110.6559060 140.7267410
  89.3992160 110.8715790 141.2365880  85.4629670 124.9678400 139.2915120
  85.3888370 125.8713540 139.5987490  84.5608510 124.6490300 139.2637190
  79.6511160 119.5063960 125.1428480  80.0886030 120.0493630 125.7986060
  80.1358890 118.6810910 125.1524820  76.8656960 122.2952990 132.5948740
  77.1959970 121.4274050 132.3627380  77.2947960 122.5011510 133.4253700
  81.4618880 120.6262000 130.2550710  81.1614420 120.5026970 131.1554620
  81.3556370 119.7670590 129.8466440  77.3547170 123.1623580 135.3330370
  76.9178160 123.3424380 136.1654520  77.9224850 123.9198200 135.1912090
  92.9909350 122.6640580 139.6207680  92.3911340 122.7233140 138.8771600
  93.1203250 121.7245560 139.7504530  94.2310800 120.4058400 124.9577390
  93.4003760 120.4735050 125.4284620  94.4082630 121.2962520 124.6544250
  93.6867260 117.1505880 127.4611590  94.4486170 117.7202530 127.5671280
  93.7021630 116.5833080 128.2319900  77.1871600 115.6743810 131.6919250
  76.5320440 115.4055450 131.0478950  78.0249550 115.5648290 131.2421230
  94.6927230 118.0055980 132.3053520  95.0636060 117.2223300 131.8989490
  95.3329160 118.6945080 132.1270820  91.6760990 119.3892560 137.7183840
  90.8620830 119.8189720 137.9809630  92.0835190 120.0010970 137.1052890
  93.7386430 117.4440250 124.6184110  94.0135270 118.3519130 124.4903330
  93.5497170 117.3802780 125.5546100  93.6351770 115.3809240 129.6113540
  93.2595370 114.6137170 129.1794830  92.9054890 115.7631940 130.0988470
  78.2247530 116.0596380 136.2322590  78.5920570 115.9723780 137.1118610
  77.6558350 115.2962930 136.1329450  93.0251390 114.5280760 139.2453060
  92.7937480 114.2993510 138.3451010  93.2855940 115.4480310 139.1997950
  77.7763530 112.9705470 140.1381010  76.8819580 112.9372230 140.4774720
  78.3161080 113.1692260 140.9032260  91.4639460 109.7537190 142.0232760
  92.3409640 109.7620590 142.4066760  91.4760300 109.0168030 141.4125110
  76.4009680 112.8842740 127.6344580  75.4973760 113.1472940 127.4596240
  76.8850300 113.1553910 126.8544540  92.9102730 113.6066730 132.9120780
  93.4340210 113.1129380 132.2810950  93.4962150 113.7417090 133.6568350
  93.0892450 113.6906600 136.4340330  92.1395160 113.6570140 136.5485320
  93.2705460 114.6006710 136.1990100  78.2803240 107.2453800 134.4864230
  78.9279430 106.6951180 134.0459390  78.7005080 107.4996950 135.3080040
  93.8289860 111.5001030 131.3850870  93.7189140 111.3457070 132.3233140
  94.5897450 110.9721970 131.1426280  92.1755580 107.4395160 137.8433870
  92.8127800 108.0529300 138.2093060  92.3230470 107.4755820 136.8983100
  91.7337040 124.1411160 131.2452110  92.3296110 123.8195730 130.5686530
  91.9915190 123.6682980 132.0365380  78.0335240 107.4009470 137.2289550
  77.6850060 107.8573290 137.9947730  77.7022940 106.5066600 137.3111980
  79.6399610 120.5729070 141.3942740  79.5969240 120.2021980 142.2757200
  79.7710620 121.5106640 141.5344560  83.3405640 122.1288660 136.9952460
  83.0997000 122.3963220 136.1082980  84.2808280 122.2994390 137.0503320
  85.5460060 108.5921350 140.7508970  85.4848950 109.1843180 141.5004380
  86.4860440 108.4847310 140.6059230  88.1834620 108.2491410 140.3901260
  88.7975030 108.5670700 139.7282340  88.7284180 107.7640000 141.0097120
  94.6009800 124.1483040 137.7963100  94.1068080 124.5451910 137.0790230
  93.9923090 123.5232250 138.1900380  78.7055880 106.9285670 140.5040320
  79.2538870 106.7473720 139.7406430  78.7711190 106.1379780 141.0396630
  79.4787640 123.5191320 138.5140520  78.8847960 123.3876020 139.2530560
  79.4711480 122.6829460 138.0482620  88.9242660 106.8123550 136.7170550
  88.0502500 107.1458660 136.5143480  88.8153410 106.3396730 137.5422420
  89.8314640 109.0194420 138.1012270  89.5028000 108.2046180 137.7214000
  90.7796940 108.9764230 137.9777960  92.2849250 124.7906460 135.0749840
  91.8252220 125.5422270 134.7007860  91.6561710 124.0712930 135.0164640
  79.1099870 120.8849700 137.4648560  78.3833930 120.2654990 137.3974510
  79.1709020 121.2790310 136.5946640  82.7144970 123.0994700 134.2497970
  83.2309990 122.4882060 133.7246230  83.3642350 123.6023480 134.7408980
  85.4540470 123.9903190 135.0766950  85.7418280 123.7357490 134.1999960
  85.9663690 123.4380550 135.6672520  86.6717480 107.7293390 135.6563460
  85.8889270 108.2038890 135.9360220  86.3780410 106.8248220 135.5476640
  91.2238550 108.4316490 133.7012550  91.6646640 108.3761590 132.8534150
  90.9546140 109.3474500 133.7722730  93.0877120 108.0631730 131.7121370
  93.0265520 107.1192950 131.5652390  93.8669150 108.1711820 132.2574830
  77.3929870 124.2024090 130.6745320  77.2251910 123.5694770 131.3727210
  76.5264380 124.4083490 130.3239510  89.0596680 106.8122590 132.4062560
  89.6626050 107.3842800 132.8811080  88.3189670 107.3762030 132.1836460
  78.9992570 122.8957320 128.1195460  78.4740190 123.2765350 127.4157420
  78.9237150 123.5208090 128.8405170  82.5820880 108.2980060 129.7724540
  81.9523620 107.5967370 129.9394670  82.0426020 109.0584190 129.5557700
  85.5212830 124.9119290 142.4435150  86.4480140 124.6763560 142.4871110
  85.5063260 125.7391290 141.9621180  93.7557890 124.4544860 129.4409400
  93.9310080 123.7682600 128.7970320  93.0579460 124.9791910 129.0486070
  82.7076440 107.5764040 142.2077030  82.4260710 108.0797640 141.4437850
  83.0896140 106.7785790 141.8419160  81.5985540 124.8439700 126.9944710
  82.3304360 124.5598980 126.4468600  81.8579210 124.6052980 127.8844090
  80.7600330 120.9604430 126.9991040  80.1309210 121.4289530 127.5476870
  80.8748160 120.1153650 127.4337230  89.3091900 106.9917620 142.7857500
  89.1957350 107.3112230 143.6809020  90.1261640 107.3930130 142.4894780
  92.0890390 124.1389150 142.2676190  92.8815710 123.6438380 142.0602150
  92.3823540 124.8179290 142.8751800  88.2150050 115.0110090 113.1492240
  88.1344100 114.0964700 112.8783950  87.8014470 115.5077160 112.4431950
  86.3468090 116.7889110 115.0301510  85.5710190 116.3089550 115.3200080
  86.9981020 116.1094760 114.8557670  80.3633920 117.1008920 115.9077270
  79.5318800 116.8457630 116.3073780  80.9714900 117.1719690 116.6435190
  80.3435180 121.1349010 116.1035290  80.6463220 120.2446750 115.9245510
  81.0878770 121.6919230 115.8757540  78.7725870 112.0610810 109.6919660
  77.8842570 112.4026780 109.5899540  79.0567060 111.8611130 108.8000490
  86.5938830 123.4807310 113.4304630  85.9750270 123.9364810 112.8599070
  87.4490610 123.6358770 113.0294330  86.8182250 112.2716680 115.2640600
  87.1947070 111.3988560 115.1514270  86.7201760 112.6075380 114.3731040
  80.9487260 110.6442310 110.7258040  81.0554010 111.5446040 111.0326800
  80.0379620 110.5960280 110.4352690  90.6006370 109.7667120 112.1968940
  91.4215990 109.2763690 112.2394420  90.6340450 110.3564780 112.9500780
  78.5970420 112.5661320 115.9710630  79.2780530 112.8299690 116.5898030
  78.2818470 111.7262190 116.3048640  82.7894990 113.6128680 115.0583220
  83.2973210 114.1109650 115.6988240  83.3208230 112.8363880 114.8822580
  87.4602180 118.3646550 110.8236540  86.8419450 118.8296000 110.2599260
  87.9725430 119.0574030 111.2406050  82.3233940 117.8922420 117.5020140
  81.9903320 118.5191340 118.1441210  82.5000620 118.4184300 116.7221810
  90.8367850 111.7067500 114.9696480  90.1323420 111.9952390 115.5499590
  91.1980010 112.5167610 114.6096040  81.5353040 119.8603220 119.3169320
  82.1527040 120.5354300 119.0353770  80.6746160 120.2691200 119.2256820
  76.8285380 119.0503080 108.1976170  76.4513360 119.5390180 107.4661070
  77.0858450 119.7228360 108.8282700  84.4374310 107.4519470 113.6561680
  84.7449290 106.8966360 112.9397180  83.5075010 107.5863930 113.4734670
  86.8255070 115.5168300 110.3921800  85.8984350 115.4505680 110.6210270
  86.9779890 116.4548430 110.2777040  82.4311710 116.0433040 113.1741530
  82.0268710 115.3310290 112.6787430  82.5174830 115.6986280 114.0629570
  82.8993410 119.7300600 115.3380740  82.6021700 119.1246070 114.6588520
  83.8493230 119.7677910 115.2270100  81.1440330 112.8176250 116.9540570
  81.6954920 112.9271590 116.1793820  81.6583840 113.1913850 117.6695800
  80.8183060 116.3395610 120.5645910  80.6790830 117.2118410 120.9333310
  79.9364420 115.9968420 120.4193850  87.1412440 121.2571480 111.8711040
  87.5808350 121.9995810 111.4566430  87.0799330 121.4998050 112.7950000
  79.1316340 114.9378020 110.6748180  79.0113940 115.6640110 110.0629450
  78.8217230 114.1680930 110.1976090  94.5678230 123.0644410 124.0695230
  95.0437950 123.5427300 124.7484310  95.1885390 122.9961900 123.3440730
  76.7701710 118.1093160 116.4816820  76.8482130 118.2441930 115.5372540
  77.3843390 117.4009050 116.6744940  78.0149340 119.8093350 112.8923000
  77.6077420 119.9507940 112.0376600  78.9062350 119.5253510 112.6894210
  93.9711480 120.2557260 121.2295240  94.0974540 120.0169140 120.3112420
  94.0132860 119.4241800 121.7017320  89.8082620 124.2440600 109.2274050
  89.6483760 123.9543540 110.1255880  89.6429330 123.4680730 108.6919280
  82.2871000 124.0239130 111.0045670  82.1113480 123.1074670 110.7913470
  81.4326740 124.3826420 111.2443470  89.5108750 121.7528160 107.7872050
  88.8173910 121.7505450 107.1274330  90.2531610 121.3287480 107.3566220
  89.0758680 123.3790870 111.8620540  89.5315630 122.5980250 112.1759160
  89.4151200 124.0897690 112.4061720  93.8235490 112.3089720 122.1944980
  93.2079760 112.8169390 121.6660440  93.5031910 111.4088050 122.1370920
  76.8261230 119.1507330 119.0211280  76.9892270 118.6812690 118.2030650
  77.2913680 118.6430890 119.6860120  81.5980000 108.2813090 114.0571850
  81.1548150 109.0622630 113.7256370  82.1564990 108.6042980 114.7642790
  90.8854320 112.3690560 120.7903830  90.0347910 112.0696310 121.1112900
  90.7256110 112.6132570 119.8787650  87.9804030 113.8692310 122.8902620
  88.3057440 113.0356060 122.5504850  88.7684360 114.3920830 123.0380950
  83.6355900 108.8260420 115.9161450  83.9328230 109.7323250 115.8353470
  84.1841460 108.3379200 115.3021020  81.3894220 113.4046660 111.7853100
  81.1635140 113.1883830 112.6899720  80.6086750 113.8375120 111.4399070
  88.6191980 113.4110030 110.3843750  88.0200870 114.1345830 110.2007370
  89.1671590 113.3486810 109.6020200  87.2256850 112.0473570 112.4147030
  87.6186420 112.3645770 111.6015720  87.5873700 111.1685450 112.5291550
  76.2621020 108.6374370 114.6377230  75.9734070 109.2077230 115.3502210
  77.0066780 108.1578820 115.0008460  76.4491250 112.5794490 105.8479950
  76.3665920 113.5225250 105.9894940  76.0974310 112.4369400 104.9692300
  87.8111990 114.6379320 116.5097810  87.0793110 115.1466130 116.8587910
  87.4136330 113.8209300 116.2086590  84.2489380 111.3133520 114.9150300
  84.2525440 110.8723470 114.0654840  85.1440500 111.6350850 115.0222120
  80.0991760 111.1960010 113.8744510  79.7591810 111.6735240 114.6311560
  79.3369080 110.7425130 113.5145610  84.3109530 112.3145600 107.9057060
  84.4322350 112.2732080 108.8542880  83.9258040 113.1769750 107.7503790
  88.2737900 110.0913000 115.9220750  88.2910640 110.5421650 116.7662600
  88.0253480 109.1918640 116.1354190  83.3231030 114.6246740 107.3040360
  82.7547930 114.1764990 106.6776270  84.0320030 114.9839520 106.7705510
  78.4000210 118.5258760 121.1807090  78.0155000 117.8852430 121.7790050
  78.7112400 119.2294880 121.7501820  84.5497350 115.3735300 116.6615710
  84.9167480 114.8993870 117.4077050  84.3602410 116.2476870 117.0024050
  80.8678510 118.6204930 109.5766770  80.0940770 118.0802550 109.4165490
  81.5973140 118.1011540 109.2384530  87.0085290 117.6879350 121.2562160
  86.9422600 116.7675020 121.0019750  86.3790430 117.7854790 121.9706800
  80.9115910 118.2885310 113.2145580  81.4294580 117.4853570 113.1602470
  80.4599930 118.2264450 114.0562410  84.7676100 119.6365120 111.2588800
  85.4547230 120.1834330 111.6396390  83.9808520 120.1805850 111.2938410
  76.9068500 115.2537940 106.7505880  77.7763350 115.5362740 107.0341800
  76.4158820 116.0673810 106.6354690  84.0703310 116.6411150 110.8714160
  84.5266090 117.4516400 111.0974350  83.7191520 116.3234290 111.7032650
  79.9715090 106.9848800 111.3436680  79.8429720 106.9766700 112.2921600
  79.1477110 107.3231890 110.9927690  77.2739750 124.4665320 107.3167510
  77.6337390 125.0654660 106.6624780  77.1332090 125.0125210 108.0902540
  83.2908370 121.8496520 108.1341180  83.2818470 122.5826210 107.5185690
  82.3706730 121.6028100 108.2268140  78.8915010 117.0711410 108.8787940
  78.2842960 117.8110310 108.8883240  79.3664360 117.1610770 108.0526140
  88.4647800 111.2362230 118.5544830  88.8328620 110.4157440 118.8824400
  87.6046000 111.2964120 118.9700480  91.8309830 110.1919170 109.3632390
  91.2022990 110.2964840 108.6490620  91.3361750 110.4115950 110.1526270
  83.7993860 112.4705120 110.7790270  83.0910010 112.9391460 111.2203880
  84.0838340 111.8127130 111.4135460  85.4249790 113.8901820 118.7782800
  85.9235040 114.3647640 119.4434650  85.5672740 112.9665340 118.9852830
  87.8309290 109.1955780 112.2186060  87.7077070 109.2141910 111.2695570
  88.7793850 109.2434720 112.3384460  84.9186080 124.4311080 111.4914040
  85.1727580 124.3932470 110.5693410  83.9698560 124.3044410 111.4842290
  82.0028880 110.7790200 108.1540980  82.8519410 111.2160350 108.0881170
  81.6360150 111.0910460 108.9813040  90.9238660 115.3502960 113.0672550
  89.9828800 115.3653190 113.2420240  91.2382730 114.5638920 113.5132850
  80.9020300 117.0322560 106.6276510  81.6683570 116.9203920 107.1901940
  80.9794990 116.3360530 105.9753280  79.5967060 114.4647630 107.3109400
  79.6770650 113.5175140 107.4226800  80.4886810 114.7954510 107.4170060
  77.2827250 120.6816590 110.2885450  76.3567030 120.9237730 110.2790860
  77.7483680 121.5090850 110.1670200  79.4040050 123.7989090 123.6029520
  80.2052780 124.1201140 124.0164920  78.8891870 123.4384670 124.3249430
  92.5614250 123.0143460 107.6606250  92.2755760 122.6008600 106.8460430
  92.3633800 123.9431170 107.5406770  91.3199150 119.4238870 122.6376110
  92.0608620 119.7614630 122.1343570  90.5571830 119.5930930 122.0845880
  82.9339330 117.0287690 108.6019150  83.3555750 116.8627560 109.4450540
  83.0590170 116.2187920 108.1074290  85.4466970 116.0525300 105.8496250
  85.9672630 115.3374320 105.4837400  86.0935370 116.6911170 106.1496760
  89.9944810 117.4753700 121.1731320  90.4085830 117.6298780 122.0221740
  89.0595810 117.6008920 121.3357100  90.4666980 114.8149860 123.1770470
  91.0487750 114.0602180 123.0890950  90.6428750 115.3457300 122.4001950
  84.7560040 117.4274180 119.1427250  85.1748150 118.2706910 118.9703490
  83.8368670 117.5646220 118.9134030  87.0923940 115.1590360 120.5265090
  87.2120150 114.5631500 121.2659930  87.9517940 115.1960050 120.1066390
  81.8298230 113.1020920 105.5477310  81.6287290 112.2388280 105.9090650
  81.6590280 113.0154280 104.6098910  88.6786140 111.3177520 122.0173930
  87.9901660 110.6559060 121.9523920  89.3992160 110.8715790 122.4622390
  80.6281030 110.2021540 105.5355190  80.9306930 110.2088970 104.6274340
  81.3675620 109.8519400 106.0322850  86.0115000 124.1336910 108.1397990
  86.9065790 124.4721880 108.1616750  86.0432630 123.4116320 107.5122270
  79.6511160 119.5063960 106.3684990  80.0886030 120.0493630 107.0242570
  80.1358890 118.6810910 106.3781330  81.4618880 120.6262000 111.4807220
  81.1614420 120.5026970 112.3811130  81.3556370 119.7670590 111.0722950
  92.9909350 122.6640580 120.8464190  92.3911340 122.7233140 120.1028110
  93.1203250 121.7245560 120.9761040  77.1871600 115.6743810 112.9175760
  76.5320440 115.4055450 112.2735460  78.0249550 115.5648290 112.4677740
  93.6351770 115.3809240 110.8370050  93.2595370 114.6137170 110.4051340
  92.9054890 115.7631940 111.3244980  91.4639460 109.7537190 123.2489270
  92.3409640 109.7620590 123.6323270  91.4760300 109.0168030 122.6381620
  78.9436890 111.9408280 106.7695470  79.6528590 111.5191500 106.2842750
  78.2276830 112.0083510 106.1378820  78.5911050 107.9947610 105.8098120
  79.3139180 108.5356550 106.1279340  78.8635570 107.7211030 104.9339660
  92.4002700 112.8640080 110.0769700  92.8961820 112.6310950 110.8618580
  92.2018770 112.0251920 109.6607340  92.1755580 107.4395160 119.0690380
  92.8127800 108.0529300 119.4349570  92.3230470 107.4755820 118.1239610
  94.7918620 110.1019610 108.4770230  93.9970120 110.0364730 109.0063140
  94.9961900 111.0370250 108.4655580  83.3405640 122.1288660 118.2208970
  83.0997000 122.3963220 117.3339490  84.2808280 122.2994390 118.2759830
  88.9242660 106.8123550 117.9427060  88.0502500 107.1458660 117.7399990
  88.8153410 106.3396730 118.7678930  89.8314640 109.0194420 119.3268780
  89.5028000 108.2046180 118.9470510  90.7796940 108.9764230 119.2034470
  82.7144970 123.0994700 115.4754480  83.2309990 122.4882060 114.9502740
  83.3642350 123.6023480 115.9665490  86.6717480 107.7293390 116.8819970
  85.8889270 108.2038890 117.1616730  86.3780410 106.8248220 116.7733150
  91.2238550 108.4316490 114.9269060  91.6646640 108.3761590 114.0790660
  90.9546140 109.3474500 114.9979240  93.0877120 108.0631730 112.9377880
  93.0265520 107.1192950 112.7908900  93.8669150 108.1711820 113.4831340
  78.0157890 108.0340870 109.4033690  78.7737250 108.1469750 108.8297720
  77.5535060 108.8710070 109.3577120  84.5571700 110.1480140 112.3936000
  83.7446210 109.7737030 112.0531880  85.0613340 109.3925220 112.6957190
  89.0596680 106.8122590 113.6319070  89.6626050 107.3842800 114.1067590
  88.3189670 107.3762030 113.4092970  80.3883040 108.5604920 107.9435660
  80.9175800 107.7734720 107.8143610  81.0211360 109.2396110 108.1771190
  82.5820880 108.2980060 110.9981050  81.9523620 107.5967370 111.1651180
  82.0426020 109.0584190 110.7814210  81.5985540 124.8439700 108.2201220
  82.3304360 124.5598980 107.6725110  81.8579210 124.6052980 109.1100600
  80.7600330 120.9604430 108.2247550  80.1309210 121.4289530 108.7733380
  80.8748160 120.1153650 108.6593740  92.0890390 124.1389150 123.4932700
  92.8815710 123.6438380 123.2858660  92.3823540 124.8179290 124.1008310
  90.3675520 121.1949300  95.0357150  89.9057050 120.4236540  95.3644320
  91.1801070 121.2215370  95.5409600  80.3435180 121.1349010  97.3291800
  80.6463220 120.2446750  97.1502020  81.0878770 121.6919230  97.1014050
  86.5938830 123.4807310  94.6561140  85.9750270 123.9364810  94.0855580
  87.4490610 123.6358770  94.2550840  85.7877080 119.4646300  96.2628180
  85.7185360 118.5236240  96.1017310  86.5496940 119.5547710  96.8350750
  82.3233940 117.8922420  98.7276650  81.9903320 118.5191340  99.3697720
  82.5000620 118.4184300  97.9478320  89.9889370 123.1686760  97.1725650
  90.0016530 122.7649050  96.3047910  89.4364590 123.9434050  97.0687080
  89.3874810 118.0716600  98.5008260  89.8043600 117.8576710  97.6661720
  90.1114630 118.3289390  99.0716880  93.3336910 116.4703820  98.5924500
  92.5055540 116.5396910  98.1174630  93.9287390 117.0558130  98.1240330
  90.2978920 113.2573140  99.5379370  89.8850100 114.0826850  99.7919360
  89.5654870 112.6718180  99.3455730  80.8183060 116.3395610 101.7902420
  80.6790830 117.2118410 102.1589820  79.9364420 115.9968420 101.6450360
  87.1412440 121.2571480  93.0967550  87.5808350 121.9995810  92.6822940
  87.0799330 121.4998050  94.0206510  82.2871000 124.0239130  92.2302180
  82.1113480 123.1074670  92.0169980  81.4326740 124.3826420  92.4699980
  89.5108750 121.7528160  89.0128560  88.8173910 121.7505450  88.3530840
  90.2531610 121.3287480  88.5822730  89.0758680 123.3790870  93.0877050
  89.5315630 122.5980250  93.4015670  89.4151200 124.0897690  93.6318230
  93.8235490 112.3089720 103.4201490  93.2079760 112.8169390 102.8916950
  93.5031910 111.4088050 103.3627430  76.8261230 119.1507330 100.2467790
  76.9892270 118.6812690  99.4287160  77.2913680 118.6430890 100.9116630
  87.9804030 113.8692310 104.1159130  88.3057440 113.0356060 103.7761360
  88.7684360 114.3920830 104.2637460  83.8293430 114.3032240 103.6769880
  83.7337030 113.3626970 103.5270280  84.6725410 114.5247310 103.2817950
  78.4000210 118.5258760 102.4063600  78.0155000 117.8852430 103.0046560
  78.7112400 119.2294880 102.9758330  91.6266490 117.6170290  96.5949670
  92.3465610 118.1125580  96.2045780  91.4248310 116.9388180  95.9503540
  78.3960450 115.2546680 101.3527790  78.0375390 115.9200530 101.9401130
  78.1015010 114.4230230 101.7240410  81.5973570 115.7130920 104.2367340
  81.2973710 115.8588100 103.3395160  82.3684810 115.1536210 104.1440730
  93.1513230 117.1507260 101.5791050  92.4261420 117.7436040 101.3820440
  93.6788690 117.1430800 100.7804420  88.6812820 118.8767430  95.0774900
  89.0336640 118.2795560  94.4176270  87.7975150 118.5511660  95.2483150
  87.6468000 120.1549840  98.0440420  88.2890230 119.4543000  98.1572590
  88.1717350 120.9348280  97.8637310  91.4923720 120.4398460  87.7679560
  91.2661300 119.7228900  88.3604200  91.1019920 120.1910900  86.9301310
  77.2739750 124.4665320  88.5424020  77.6337390 125.0654660  87.8881290
  77.1332090 125.0125210  89.3159050  91.0739970 118.3570400  89.4293720
  90.7861670 118.8183090  90.2171600  91.8692140 117.8968170  89.6977940
  77.2581610 122.7320180 103.0166420  77.3672730 121.7914920 102.8761810
  76.6062170 122.9974930 102.3680150  83.2908370 121.8496520  89.3597690
  83.2818470 122.5826210  88.7442200  82.3706730 121.6028100  89.4524650
  86.2767970 121.9124760  88.0222880  86.3779950 121.7088750  87.0924860
  85.3769710 121.6583040  88.2270660  84.9186080 124.4311080  92.7170550
  85.1727580 124.3932470  91.7949920  83.9698560 124.3044410  92.7098800
  79.4040050 123.7989090 104.8286030  80.2052780 124.1201140 105.2421430
  78.8891870 123.4384670 105.5505940  83.5084080 123.7873330  87.4626020
  84.3012690 124.0762160  87.0107810  82.9888430 123.3565500  86.7838500
  77.1237860 116.2862550 103.7722080  77.6276880 115.7069830 104.3438310
  76.3845280 116.5702780 104.3098450  79.1560940 114.4292140 104.6672150
  79.1966280 114.1306010 105.5757380  80.0106440 114.8299750 104.5079670
  81.0966750 113.0084240 102.6346640  80.5663210 112.5175190 102.0069980
  81.7654820 113.4368440 102.1004570  83.8592710 111.7011710 103.0097420
  84.4492400 111.3927560 103.6975240  83.0412950 111.2291460 103.1657320
  86.0115000 124.1336910  89.3654500  86.9065790 124.4721880  89.3873260
  86.0432630 123.4116320  88.7378780  79.6511160 119.5063960  87.5941500
  80.0886030 120.0493630  88.2499080  80.1358890 118.6810910  87.6037840
  94.2310800 120.4058400  87.4090410  93.4003760 120.4735050  87.8797640
  94.4082630 121.2962520  87.1057270  93.6867260 117.1505880  89.9124610
  94.4486170 117.7202530  90.0184300  93.7021630 116.5833080  90.6832920
  93.7386430 117.4440250  87.0697130  94.0135270 118.3519130  86.9416350
  93.5497170 117.3802780  88.0059120  93.6351770 115.3809240  92.0626560
  93.2595370 114.6137170  91.6307850  92.9054890 115.7631940  92.5501490
  93.0251390 114.5280760 101.6966080  92.7937480 114.2993510 100.7964030
  93.2855940 115.4480310 101.6510970  92.9102730 113.6066730  95.3633800
  93.4340210 113.1129380  94.7323970  93.4962150 113.7417090  96.1081370
  93.0892450 113.6906600  98.8853350  92.1395160 113.6570140  98.9998340
  93.2705460 114.6006710  98.6503120  94.6009800 124.1483040 100.2476120
  94.1068080 124.5451910  99.5303250  93.9923090 123.5232250 100.6413400
  79.1099870 120.8849700  99.9161580  78.3833930 120.2654990  99.8487530
  79.1709020 121.2790310  99.0459660  82.7144970 123.0994700  96.7010990
  83.2309990 122.4882060  96.1759250  83.3642350 123.6023480  97.1922000
  85.4540470 123.9903190  97.5279970  85.7418280 123.7357490  96.6512980
  85.9663690 123.4380550  98.1185540  77.3929870 124.2024090  93.1258340
  77.2251910 123.5694770  93.8240230  76.5264380 124.4083490  92.7752530
  81.5985540 124.8439700  89.4457730  82.3304360 124.5598980  88.8981620
  81.8579210 124.6052980  90.3357110  92.0890390 124.1389150 104.7189210
  92.8815710 123.6438380 104.5115170  92.3823540 124.8179290 105.3264820
  80.3633920 117.1008920  78.3590290  79.5318800 116.8457630  78.7586800
  80.9714900 117.1719690  79.0948210  90.3675520 121.1949300  76.2613660
  89.9057050 120.4236540  76.5900830  91.1801070 121.2215370  76.7666110
  80.3435180 121.1349010  78.5548310  80.6463220 120.2446750  78.3758530
  81.0878770 121.6919230  78.3270560  86.5938830 123.4807310  75.8817650
  85.9750270 123.9364810  75.3112090  87.4490610 123.6358770  75.4807350
  90.6006370 109.7667120  74.6481960  91.4215990 109.2763690  74.6907440
  90.6340450 110.3564780  75.4013800  94.8905920 111.7833870  81.2125590
  94.1858090 112.1715580  80.6940700  95.1563840 112.4784160  81.8146520
  90.8367850 111.7067500  77.4209500  90.1323420 111.9952390  78.0012610
  91.1980010 112.5167610  77.0609060  81.5353040 119.8603220  81.7682340
  82.1527040 120.5354300  81.4866790  80.6746160 120.2691200  81.6769840
  92.4530630 121.3242630  79.6836980  91.7694150 121.9941740  79.6753650
  92.9924920 121.5223280  78.9181840  93.9054770 111.1522290  77.8118710
  92.9579680 111.1861270  77.9434140  94.2304760 111.9661240  78.1968070
  93.3336910 116.4703820  79.8181010  92.5055540 116.5396910  79.3431140
  93.9287390 117.0558130  79.3496840  90.2978920 113.2573140  80.7635880
  89.8850100 114.0826850  81.0175870  89.5654870 112.6718180  80.5712240
  82.8993410 119.7300600  77.7893760  82.6021700 119.1246070  77.1101540
  83.8493230 119.7677910  77.6783120  81.9911840 119.4682290  84.4401560
  81.0940370 119.6922260  84.6874960  82.0164710 119.5917230  83.4912960
  89.0317060 116.3175410  70.3542820  89.4710340 115.4797840  70.2080640
  89.7445480 116.9504810  70.4406960  87.1412440 121.2571480  74.3224060
  87.5808350 121.9995810  73.9079450  87.0799330 121.4998050  75.2463020
  82.6163410 122.2817310  85.2244080  82.5878840 122.6860260  84.3572510
  82.4528380 121.3527670  85.0615680  92.6134200 107.5718220  68.6683860
  92.3006860 107.6645050  69.5682930  93.3746670 108.1499250  68.6181290
  94.5678230 123.0644410  86.5208250  95.0437950 123.5427300  87.1997330
  95.1885390 122.9961900  85.7953750  76.7701710 118.1093160  78.9329840
  76.8482130 118.2441930  77.9885560  77.3843390 117.4009050  79.1257960
  78.0149340 119.8093350  75.3436020  77.6077420 119.9507940  74.4889620
  78.9062350 119.5253510  75.1407230  93.9711480 120.2557260  83.6808260
  94.0974540 120.0169140  82.7625440  94.0132860 119.4241800  84.1530340
  89.8082620 124.2440600  71.6787070  89.6483760 123.9543540  72.5768900
  89.6429330 123.4680730  71.1432300  82.2871000 124.0239130  73.4558690
  82.1113480 123.1074670  73.2426490  81.4326740 124.3826420  73.6956490
  89.5108750 121.7528160  70.2385070  88.8173910 121.7505450  69.5787350
  90.2531610 121.3287480  69.8079240  89.0758680 123.3790870  74.3133560
  89.5315630 122.5980250  74.6272180  89.4151200 124.0897690  74.8574740
  76.8261230 119.1507330  81.4724300  76.9892270 118.6812690  80.6543670
  77.2913680 118.6430890  82.1373140  76.4491250 112.5794490  68.2992970
  76.3665920 113.5225250  68.4407960  76.0974310 112.4369400  67.4205320
  83.3231030 114.6246740  69.7553380  82.7547930 114.1764990  69.1289290
  84.0320030 114.9839520  69.2218530  78.4000210 118.5258760  83.6320110
  78.0155000 117.8852430  84.2303070  78.7112400 119.2294880  84.2014840
  80.8678510 118.6204930  72.0279790  80.0940770 118.0802550  71.8678510
  81.5973140 118.1011540  71.6897550  91.6266490 117.6170290  77.8206180
  92.3465610 118.1125580  77.4302290  91.4248310 116.9388180  77.1760050
  89.8024820 113.3827900  70.2597730  90.6904440 113.6945130  70.0849070
  89.7729910 112.5100150  69.8678310  80.9115910 118.2885310  75.6658600
  81.4294580 117.4853570  75.6115490  80.4599930 118.2264450  76.5075430
  85.7985410 119.5551590  70.9385900  86.1401110 120.2993820  70.4429220
  84.9698120 119.8682710  71.3010730  86.9402020 120.5099920  83.4578980
  86.9546560 119.5780880  83.2397890  86.2327120 120.5959680  84.0968750
  92.0739090 114.6939740  69.7277590  91.9902810 115.1253960  68.8774030
  92.7933280 115.1538090  70.1604410  93.1513230 117.1507260  82.8047560
  92.4261420 117.7436040  82.6076950  93.6788690 117.1430800  82.0060930
  86.3735920 122.1517490  80.5519480  87.0178140 122.3576870  81.2292900
  86.7365360 121.3905890  80.0990330  91.4923720 120.4398460  68.9936070
  91.2661300 119.7228900  69.5860710  91.1019920 120.1910900  68.1557820
  89.4205620 120.9544740  82.4732990  89.7561860 121.5411430  83.1510910
  88.5005960 120.8237450  82.7030780  77.2739750 124.4665320  69.7680530
  77.6337390 125.0654660  69.1137800  77.1332090 125.0125210  70.5415560
  77.2581610 122.7320180  84.2422930  77.3672730 121.7914920  84.1018320
  76.6062170 122.9974930  83.5936660  85.2494200 121.0036070  85.6421050
  84.9291070 120.2845310  86.1866740  84.5752560 121.6791140  85.7157110
  83.2908370 121.8496520  70.5854200  83.2818470 122.5826210  69.9698710
  82.3706730 121.6028100  70.6781160  91.8309830 110.1919170  71.8145410
  91.2022990 110.2964840  71.1003640  91.3361750 110.4115950  72.6039290
  86.2767970 121.9124760  69.2479390  86.3779950 121.7088750  68.3181370
  85.3769710 121.6583040  69.4527170  84.9186080 124.4311080  73.9427060
  85.1727580 124.3932470  73.0206430  83.9698560 124.3044410  73.9355310
  80.9020300 117.0322560  69.0789530  81.6683570 116.9203920  69.6414960
  80.9794990 116.3360530  68.4266300  92.9264240 122.5211810  77.1939830
  93.0511660 123.3442980  77.6663640  93.7929800 122.3102540  76.8463980
  80.3981770 124.6143020  76.8656960  81.1344250 124.0658480  77.1365530
  80.7822690 125.4799030  76.7262950  77.2827250 120.6816590  72.7398470
  76.3567030 120.9237730  72.7303880  77.7483680 121.5090850  72.6183220
  79.4040050 123.7989090  86.0542540  80.2052780 124.1201140  86.4677940
  78.8891870 123.4384670  86.7762450  83.5084080 123.7873330  68.6882530
  84.3012690 124.0762160  68.2364320  82.9888430 123.3565500  68.0095010
  88.2404680 119.9068960  86.0017950  87.6342840 119.9300560  85.2613700
  87.9358790 119.1752000  86.5385200  92.5614250 123.0143460  70.1119270
  92.2755760 122.6008600  69.2973450  92.3633800 123.9431170  69.9919790
  77.1237860 116.2862550  84.9978590  77.6276880 115.7069830  85.5694820
  76.3845280 116.5702780  85.5354960  84.0261480 119.0076740  68.5524880
  83.9212120 118.3929090  69.2786260  83.8585700 118.4842630  67.7687890
  87.2664210 118.0696770  69.1566870  86.7174310 118.5166070  69.8009610
  87.8883470 117.5646020  69.6804540  91.3199150 119.4238870  85.0889130
  92.0608620 119.7614630  84.5856590  90.5571830 119.5930930  84.5358900
  82.9339330 117.0287690  71.0532170  83.3555750 116.8627560  71.8963560
  83.0590170 116.2187920  70.5587310  85.4466970 116.0525300  68.3009270
  85.9672630 115.3374320  67.9350420  86.0935370 116.6911170  68.6009780
  89.9944810 117.4753700  83.6244340  90.4085830 117.6298780  84.4734760
  89.0595810 117.6008920  83.7870120  89.4311840 115.7127550  81.5540620
  88.9047060 116.2370170  80.9505760  89.7743180 116.3454940  82.1850350
  81.8298230 113.1020920  67.9990330  81.6287290 112.2388280  68.3603670
  81.6590280 113.0154280  67.0611930  82.6067460 123.7327190  82.7098000
  82.0688550 124.4573250  82.3906700  82.8601420 123.2557530  81.9195340
  89.3086540 107.9129150  70.5277210  89.5888830 107.0697050  70.8836630
  88.5352270 108.1452260  71.0415960  80.6281030 110.2021540  67.9868210
  80.9306930 110.2088970  67.0787360  81.3675620 109.8519400  68.4835870
  85.4629670 124.9678400  82.9684650  85.3888370 125.8713540  83.2757020
  84.5608510 124.6490300  82.9406720  86.0115000 124.1336910  70.5911010
  86.9065790 124.4721880  70.6129770  86.0432630 123.4116320  69.9635290
  79.6511160 119.5063960  68.8198010  80.0886030 120.0493630  69.4755590
  80.1358890 118.6810910  68.8294350  76.8656960 122.2952990  76.2718270
  77.1959970 121.4274050  76.0396910  77.2947960 122.5011510  77.1023230
  81.4618880 120.6262000  73.9320240  81.1614420 120.5026970  74.8324150
  81.3556370 119.7670590  73.5235970  77.3547170 123.1623580  79.0099900
  76.9178160 123.3424380  79.8424050  77.9224850 123.9198200  78.8681620
  92.9909350 122.6640580  83.2977210  92.3911340 122.7233140  82.5541130
  93.1203250 121.7245560  83.4274060  94.2310800 120.4058400  68.6346920
  93.4003760 120.4735050  69.1054150  94.4082630 121.2962520  68.3313780
  91.6760990 119.3892560  81.3953370  90.8620830 119.8189720  81.6579160
  92.0835190 120.0010970  80.7822420  90.1362040 110.4685100  69.5907270
  90.5546920 110.2816080  68.7503930  89.8298100 109.6164150  69.9010200
  78.2247530 116.0596380  79.9092120  78.5920570 115.9723780  80.7888140
  77.6558350 115.2962930  79.8098980  93.0251390 114.5280760  82.9222590
  92.7937480 114.2993510  82.0220540  93.2855940 115.4480310  82.8767480
  92.9102730 113.6066730  76.5890310  93.4340210 113.1129380  75.9580480
  93.4962150 113.7417090  77.3337880  93.0892450 113.6906600  80.1109860
  92.1395160 113.6570140  80.2254850  93.2705460 114.6006710  79.8759630
  78.9436890 111.9408280  69.2208490  79.6528590 111.5191500  68.7355770
  78.2276830 112.0083510  68.5891840  92.4002700 112.8640080  72.5282720
  92.8961820 112.6310950  73.3131600  92.2018770 112.0251920  72.1120360
  93.8289860 111.5001030  75.0620400  93.7189140 111.3457070  76.0002670
  94.5897450 110.9721970  74.8195810  94.7180130 109.3308950  68.3026540
  95.6429440 109.1990130  68.0944830  94.6955920 109.4101770  69.2562990
  94.7918620 110.1019610  70.9283250  93.9970120 110.0364730  71.4576160
  94.9961900 111.0370250  70.9168600  91.7337040 124.1411160  74.9221640
  92.3296110 123.8195730  74.2456060  91.9915190 123.6682980  75.7134910
  79.6399610 120.5729070  85.0712270  79.5969240 120.2021980  85.9526730
  79.7710620 121.5106640  85.2114090  83.3405640 122.1288660  80.6721990
  83.0997000 122.3963220  79.7852510  84.2808280 122.2994390  80.7272850
  79.1099870 120.8849700  81.1418090  78.3833930 120.2654990  81.0744040
  79.1709020 121.2790310  80.2716170  82.7144970 123.0994700  77.9267500
  83.2309990 122.4882060  77.4015760  83.3642350 123.6023480  78.4178510
  85.4540470 123.9903190  78.7536480  85.7418280 123.7357490  77.8769490
  85.9663690 123.4380550  79.3442050  93.0877120 108.0631730  75.3890900
  93.0265520 107.1192950  75.2421920  93.8669150 108.1711820  75.9344360
  77.3929870 124.2024090  74.3514850  77.2251910 123.5694770  75.0496740
  76.5264380 124.4083490  74.0009040  92.2031280 107.2144150  71.3572370
  92.3981910 108.1127600  71.6239800  91.4161150 106.9831230  71.8505320
  78.9992570 122.8957320  71.7964990  78.4740190 123.2765350  71.0926950
  78.9237150 123.5208090  72.5174700  85.5212830 124.9119290  86.1204680
  86.4480140 124.6763560  86.1640640  85.5063260 125.7391290  85.6390710
  93.7557890 124.4544860  73.1178930  93.9310080 123.7682600  72.4739850
  93.0579460 124.9791910  72.7255600  80.7600330 120.9604430  70.6760570
  80.1309210 121.4289530  71.2246400  80.8748160 120.1153650  71.1106760
  92.0890390 124.1389150  85.9445720  92.8815710 123.6438380  85.7371680
  92.3823540 124.8179290  86.5521330  86.3468090 116.7889110  58.7071040
  85.5710190 116.3089550  58.9969610  86.9981020 116.1094760  58.5327200
  78.7725870 112.0610810  53.3689190  77.8842570 112.4026780  53.2669070
  79.0567060 111.8611130  52.4770020  85.7877080 119.4646300  58.7141200
  85.7185360 118.5236240  58.5530330  86.5496940 119.5547710  59.2863770
  86.8182250 112.2716680  58.9410130  87.1947070 111.3988560  58.8283800
  86.7201760 112.6075380  58.0500570  80.9487260 110.6442310  54.4027570
  81.0554010 111.5446040  54.7096330  80.0379620 110.5960280  54.1122220
  90.6006370 109.7667120  55.8738470  91.4215990 109.2763690  55.9163950
  90.6340450 110.3564780  56.6270310  82.3233940 117.8922420  61.1789670
  81.9903320 118.5191340  61.8210740  82.5000620 118.4184300  60.3991340
  81.5353040 119.8603220  62.9938850  82.1527040 120.5354300  62.7123300
  80.6746160 120.2691200  62.9026350  76.8285380 119.0503080  51.8745700
  76.4513360 119.5390180  51.1430600  77.0858450 119.7228360  52.5052230
  92.4530630 121.3242630  60.9093490  91.7694150 121.9941740  60.9010160
  92.9924920 121.5223280  60.1438350  84.4374310 107.4519470  57.3331210
  84.7449290 106.8966360  56.6166710  83.5075010 107.5863930  57.1504200
  89.3874810 118.0716600  60.9521280  89.8043600 117.8576710  60.1174740
  90.1114630 118.3289390  61.5229900  86.8255070 115.5168300  54.0691330
  85.8984350 115.4505680  54.2979800  86.9779890 116.4548430  53.9546570
  90.8552360 117.0788600  54.5726580  90.2364780 116.7408150  53.9252880
  90.8376810 116.4348360  55.2805770  82.8993410 119.7300600  59.0150270
  82.6021700 119.1246070  58.3358050  83.8493230 119.7677910  58.9039630
  81.9911840 119.4682290  65.6658070  81.0940370 119.6922260  65.9131470
  82.0164710 119.5917230  64.7169470  89.0317060 116.3175410  51.5799330
  89.4710340 115.4797840  51.4337150  89.7445480 116.9504810  51.6663470
  80.8183060 116.3395610  64.2415440  80.6790830 117.2118410  64.6102840
  79.9364420 115.9968420  64.0963380  82.6163410 122.2817310  66.4500590
  82.5878840 122.6860260  65.5829020  82.4528380 121.3527670  66.2872190
  79.1316340 114.9378020  54.3517710  79.0113940 115.6640110  53.7398980
  78.8217230 114.1680930  53.8745620  94.5678230 123.0644410  67.7464760
  95.0437950 123.5427300  68.4253840  95.1885390 122.9961900  67.0210260
  76.7701710 118.1093160  60.1586350  76.8482130 118.2441930  59.2142070
  77.3843390 117.4009050  60.3514470  78.0149340 119.8093350  56.5692530
  77.6077420 119.9507940  55.7146130  78.9062350 119.5253510  56.3663740
  93.9711480 120.2557260  64.9064770  94.0974540 120.0169140  63.9881950
  94.0132860 119.4241800  65.3786850  87.8328220 123.9585260  63.4759580
  88.3472890 123.8693270  64.2782010  86.9897300 124.3044960  63.7687490
  82.2871000 124.0239130  54.6815200  82.1113480 123.1074670  54.4683000
  81.4326740 124.3826420  54.9213000  93.8235490 112.3089720  65.8714510
  93.2079760 112.8169390  65.3429970  93.5031910 111.4088050  65.8140450
  76.8261230 119.1507330  62.6980810  76.9892270 118.6812690  61.8800180
  77.2913680 118.6430890  63.3629650  85.8849810 111.1481610  63.3376700
  85.4229180 111.3564630  64.1496640  85.4827920 110.3340960  63.0347370
  90.8854320 112.3690560  64.4673360  90.0347910 112.0696310  64.7882430
  90.7256110 112.6132570  63.5557180  87.9804030 113.8692310  66.5672150
  88.3057440 113.0356060  66.2274380  88.7684360 114.3920830  66.7150480
  84.7138820 107.9023790  52.6147210  84.0893000 107.8983660  53.3400520
  84.6268940 107.0354750  52.2183180  83.8293430 114.3032240  66.1282900
  83.7337030 113.3626970  65.9783300  84.6725410 114.5247310  65.7330970
  87.2256850 112.0473570  56.0916560  87.6186420 112.3645770  55.2785250
  87.5873700 111.1685450  56.2061080  78.9603970 110.7145910  64.2816680
  78.5667360 111.5621120  64.4889460  78.2722370 110.0772280  64.4725320
  76.4491250 112.5794490  49.5249480  76.3665920 113.5225250  49.6664470
  76.0974310 112.4369400  48.6461830  87.8111990 114.6379320  60.1867340
  87.0793110 115.1466130  60.5357440  87.4136330 113.8209300  59.8856120
  84.2489380 111.3133520  58.5919830  84.2525440 110.8723470  57.7424370
  85.1440500 111.6350850  58.6991650  88.2737900 110.0913000  59.5990280
  88.2910640 110.5421650  60.4432130  88.0253480 109.1918640  59.8123720
  78.4000210 118.5258760  64.8576620  78.0155000 117.8852430  65.4559580
  78.7112400 119.2294880  65.4271350  80.8678510 118.6204930  53.2536300
  80.0940770 118.0802550  53.0935020  81.5973140 118.1011540  52.9154060
  91.6266490 117.6170290  59.0462690  92.3465610 118.1125580  58.6558800
  91.4248310 116.9388180  58.4016560  87.0085290 117.6879350  64.9331690
  86.9422600 116.7675020  64.6789280  86.3790430 117.7854790  65.6476330
  80.9115910 118.2885310  56.8915110  81.4294580 117.4853570  56.8372000
  80.4599930 118.2264450  57.7331940  85.7985410 119.5551590  52.1642410
  86.1401110 120.2993820  51.6685730  84.9698120 119.8682710  52.5267240
  81.5973570 115.7130920  66.6880360  81.2973710 115.8588100  65.7908180
  82.3684810 115.1536210  66.5953750  92.0739090 114.6939740  50.9534100
  91.9902810 115.1253960  50.1030540  92.7933280 115.1538090  51.3860920
  93.1513230 117.1507260  64.0304070  92.4261420 117.7436040  63.8333460
  93.6788690 117.1430800  63.2317440  93.1026340 121.5482000  53.6816230
  92.4602500 120.8937620  53.9559950  92.7157000 121.9537090  52.9056900
  84.7676100 119.6365120  54.9358330  85.4547230 120.1834330  55.3165920
  83.9808520 120.1805850  54.9707940  84.0703310 116.6411150  54.5483690
  84.5266090 117.4516400  54.7743880  83.7191520 116.3234290  55.3802180
  86.3735920 122.1517490  61.7775990  87.0178140 122.3576870  62.4549410
  86.7365360 121.3905890  61.3246840  79.9715090 106.9848800  55.0206210
  79.8429720 106.9766700  55.9691130  79.1477110 107.3231890  54.6697220
  87.6468000 120.1549840  60.4953440  88.2890230 119.4543000  60.6085610
  88.1717350 120.9348280  60.3150330  76.9709020 108.7439920  64.4812910
  76.2567540 108.9436840  65.0865520  77.3904060 107.9679490  64.8527710
  77.2581610 122.7320180  65.4679440  77.3672730 121.7914920  65.3274830
  76.6062170 122.9974930  64.8193170  85.2494200 121.0036070  66.8677560
  84.9291070 120.2845310  67.4123250  84.5752560 121.6791140  66.9413620
  83.2908370 121.8496520  51.8110710  83.2818470 122.5826210  51.1955220
  82.3706730 121.6028100  51.9037670  78.8915010 117.0711410  52.5557470
  78.2842960 117.8110310  52.5652770  79.3664360 117.1610770  51.7295670
  88.4647800 111.2362230  62.2314360  88.8328620 110.4157440  62.5593930
  87.6046000 111.2964120  62.6470010  83.7993860 112.4705120  54.4559800
  83.0910010 112.9391460  54.8973410  84.0838340 111.8127130  55.0904990
  84.9186080 124.4311080  55.1683570  85.1727580 124.3932470  54.2462940
  83.9698560 124.3044410  55.1611820  92.9264240 122.5211810  58.4196340
  93.0511660 123.3442980  58.8920150  93.7929800 122.3102540  58.0720490
  80.3981770 124.6143020  58.0913470  81.1344250 124.0658480  58.3622040
  80.7822690 125.4799030  57.9519460  77.2827250 120.6816590  53.9654980
  76.3567030 120.9237730  53.9560390  77.7483680 121.5090850  53.8439730
  79.4040050 123.7989090  67.2799050  80.2052780 124.1201140  67.6934450
  78.8891870 123.4384670  68.0018960  83.5084080 123.7873330  49.9139040
  84.3012690 124.0762160  49.4620830  82.9888430 123.3565500  49.2351520
  88.2404680 119.9068960  67.2274460  87.6342840 119.9300560  66.4870210
  87.9358790 119.1752000  67.7641710  89.6705050 123.6349250  65.8383870
  90.6226800 123.5507270  65.7884110  89.5233270 124.2990960  66.5117660
  92.5614250 123.0143460  51.3375780  92.2755760 122.6008600  50.5229960
  92.3633800 123.9431170  51.2176300  77.1237860 116.2862550  66.2235100
  77.6276880 115.7069830  66.7951330  76.3845280 116.5702780  66.7611470
  84.0261480 119.0076740  49.7781390  83.9212120 118.3929090  50.5042770
  83.8585700 118.4842630  48.9944400  84.1775800 117.6933540  65.7570620
  83.4121470 118.2618540  65.6725290  84.3591760 117.4009750  64.8638850
  87.2664210 118.0696770  50.3823380  86.7174310 118.5166070  51.0266120
  87.8883470 117.5646020  50.9061050  91.3199150 119.4238870  66.3145640
  92.0608620 119.7614630  65.8113100  90.5571830 119.5930930  65.7615410
  79.1560940 114.4292140  67.1185170  79.1966280 114.1306010  68.0270400
  80.0106440 114.8299750  66.9592690  82.9339330 117.0287690  52.2788680
  83.3555750 116.8627560  53.1220070  83.0590170 116.2187920  51.7843820
  81.0966750 113.0084240  65.0859660  80.5663210 112.5175190  64.4583000
  81.7654820 113.4368440  64.5517590  85.4466970 116.0525300  49.5265780
  85.9672630 115.3374320  49.1606930  86.0935370 116.6911170  49.8266290
  89.9944810 117.4753700  64.8500850  90.4085830 117.6298780  65.6991270
  89.0595810 117.6008920  65.0126630  90.4666980 114.8149860  66.8540000
  91.0487750 114.0602180  66.7660480  90.6428750 115.3457300  66.0771480
  81.5839050 109.9746610  65.1656950  81.4895920 109.3567360  64.4407820
  81.0036440 110.7012900  64.9386860  84.3500490 108.5319850  62.1984340
  83.9017790 108.5544110  61.3529890  83.7165690 108.1338870  62.7954640
  84.7560040 117.4274180  62.8196780  85.1748150 118.2706910  62.6473020
  83.8368670 117.5646220  62.5903560  87.0923940 115.1590360  64.2034620
  87.2120150 114.5631500  64.9429460  87.9517940 115.1960050  63.7835920
  89.4311840 115.7127550  62.7797130  88.9047060 116.2370170  62.1762270
  89.7743180 116.3454940  63.4106860  82.6067460 123.7327190  63.9354510
  82.0688550 124.4573250  63.6163210  82.8601420 123.2557530  63.1451850
  83.8592710 111.7011710  65.4610440  84.4492400 111.3927560  66.1488260
  83.0412950 111.2291460  65.6170340  88.6786140 111.3177520  65.6943460
  87.9901660 110.6559060  65.6293450  89.3992160 110.8715790  66.1391920
  80.6281030 110.2021540  49.2124720  80.9306930 110.2088970  48.3043870
  81.3675620 109.8519400  49.7092380  85.4629670 124.9678400  64.1941160
  85.3888370 125.8713540  64.5013530  84.5608510 124.6490300  64.1663230
  83.8465960 109.1456160  50.1980920  83.4987960 108.4680150  49.6183370
  84.0478730 108.6845670  51.0124310  79.6511160 119.5063960  50.0454520
  80.0886030 120.0493630  50.7012100  80.1358890 118.6810910  50.0550860
  76.8656960 122.2952990  57.4974780  77.1959970 121.4274050  57.2653420
  77.2947960 122.5011510  58.3279740  81.4618880 120.6262000  55.1576750
  81.1614420 120.5026970  56.0580660  81.3556370 119.7670590  54.7492480
  77.3547170 123.1623580  60.2356410  76.9178160 123.3424380  61.0680560
  77.9224850 123.9198200  60.0938130  92.9909350 122.6640580  64.5233720
  92.3911340 122.7233140  63.7797640  93.1203250 121.7245560  64.6530570
  94.2310800 120.4058400  49.8603430  93.4003760 120.4735050  50.3310660
  94.4082630 121.2962520  49.5570290  93.7386430 117.4440250  49.5210150
  94.0135270 118.3519130  49.3929370  93.5497170 117.3802780  50.4572140
  93.0251390 114.5280760  64.1479100  92.7937480 114.2993510  63.2477050
  93.2855940 115.4480310  64.1023990  77.7763530 112.9705470  65.0407050
  76.8819580 112.9372230  65.3800760  78.3161080 113.1692260  65.8058300
  91.4639460 109.7537190  66.9258800  92.3409640 109.7620590  67.3092800
  91.4760300 109.0168030  66.3151150  76.4009680 112.8842740  52.5370620
  75.4973760 113.1472940  52.3622280  76.8850300 113.1553910  51.7570580
  78.5911050 107.9947610  49.4867650  79.3139180 108.5356550  49.8048870
  78.8635570 107.7211030  48.6109190  94.7180130 109.3308950  49.5283050
  95.6429440 109.1990130  49.3201340  94.6955920 109.4101770  50.4819500
  94.7918620 110.1019610  52.1539760  93.9970120 110.0364730  52.6832670
  94.9961900 111.0370250  52.1425110  91.7337040 124.1411160  56.1478150
  92.3296110 123.8195730  55.4712570  91.9915190 123.6682980  56.9391420
  79.6399610 120.5729070  66.2968780  79.5969240 120.2021980  67.1783240
  79.7710620 121.5106640  66.4370600  83.3405640 122.1288660  61.8978500
  83.0997000 122.3963220  61.0109020  84.2808280 122.2994390  61.9529360
  85.5460060 108.5921350  65.6535010  85.4848950 109.1843180  66.4030420
  86.4860440 108.4847310  65.5085270  88.1834620 108.2491410  65.2927300
  88.7975030 108.5670700  64.6308380  88.7284180 107.7640000  65.9123160
  94.6009800 124.1483040  62.6989140  94.1068080 124.5451910  61.9816270
  93.9923090 123.5232250  63.0926420  78.7055880 106.9285670  65.4066360
  79.2538870 106.7473720  64.6432470  78.7711190 106.1379780  65.9422670
  79.4787640 123.5191320  63.4166560  78.8847960 123.3876020  64.1556600
  79.4711480 122.6829460  62.9508660  88.9242660 106.8123550  61.6196590
  88.0502500 107.1458660  61.4169520  88.8153410 106.3396730  62.4448460
  92.2849250 124.7906460  59.9775880  91.8252220 125.5422270  59.6033900
  91.6561710 124.0712930  59.9190680  82.7144970 123.0994700  59.1524010
  83.2309990 122.4882060  58.6272270  83.3642350 123.6023480  59.6435020
  85.4540470 123.9903190  59.9792990  85.7418280 123.7357490  59.1026000
  85.9663690 123.4380550  60.5698560  86.6717480 107.7293390  60.5589500
  85.8889270 108.2038890  60.8386260  86.3780410 106.8248220  60.4502680
  77.3929870 124.2024090  55.5771360  77.2251910 123.5694770  56.2753250
  76.5264380 124.4083490  55.2265550  78.0157890 108.0340870  53.0803220
  78.7737250 108.1469750  52.5067250  77.5535060 108.8710070  53.0346650
  84.5571700 110.1480140  56.0705530  83.7446210 109.7737030  55.7301410
  85.0613340 109.3925220  56.3726720  89.0596680 106.8122590  57.3088600
  89.6626050 107.3842800  57.7837120  88.3189670 107.3762030  57.0862500
  78.9992570 122.8957320  53.0221500  78.4740190 123.2765350  52.3183460
  78.9237150 123.5208090  53.7431210  80.3883040 108.5604920  51.6205190
  80.9175800 107.7734720  51.4913140  81.0211360 109.2396110  51.8540720
  82.5820880 108.2980060  54.6750580  81.9523620 107.5967370  54.8420710
  82.0426020 109.0584190  54.4583740  85.5212830 124.9119290  67.3461190
  86.4480140 124.6763560  67.3897150  85.5063260 125.7391290  66.8647220
  93.7557890 124.4544860  54.3435440  93.9310080 123.7682600  53.6996360
  93.0579460 124.9791910  53.9512110  82.7076440 107.5764040  67.1103070
  82.4260710 108.0797640  66.3463890  83.0896140 106.7785790  66.7445200
  81.5985540 124.8439700  51.8970750  82.3304360 124.5598980  51.3494640
  81.8579210 124.6052980  52.7870130  80.7600330 120.9604430  51.9017080
  80.1309210 121.4289530  52.4502910  80.8748160 120.1153650  52.3363270
  89.3091900 106.9917620  67.6883540  89.1957350 107.3112230  68.5835060
  90.1261640 107.3930130  67.3920820  92.0890390 124.1389150  67.1702230
  92.8815710 123.6438380  66.9628190  92.3823540 124.8179290  67.7777840
  86.3468090 116.7889110  39.9327550  85.5710190 116.3089550  40.2226120
  86.9981020 116.1094760  39.7583710  78.7725870 112.0610810  34.5945700
  77.8842570 112.4026780  34.4925580  79.0567060 111.8611130  33.7026530
  76.7358880 114.6616460  40.4785400  77.3074990 113.8938660  40.4789040
  76.7360420 114.9605220  39.5692010  77.9783750 110.0700820  42.2654330
  77.7986590 109.1726570  42.5457090  77.5763830 110.6172690  42.9401280
  86.8182250 112.2716680  40.1666640  87.1947070 111.3988560  40.0540310
  86.7201760 112.6075380  39.2757080  80.9487260 110.6442310  35.6284080
  81.0554010 111.5446040  35.9352840  80.0379620 110.5960280  35.3378730
  90.6006370 109.7667120  37.0994980  91.4215990 109.2763690  37.1420460
  90.6340450 110.3564780  37.8526820  78.5970420 112.5661320  40.8736670
  79.2780530 112.8299690  41.4924070  78.2818470 111.7262190  41.2074680
  82.7894990 113.6128680  39.9609260  83.2973210 114.1109650  40.6014280
  83.3208230 112.8363880  39.7848620  81.0731090 108.2527240  44.2272680
  81.0749530 108.7699630  43.4218580  80.2435400 107.7757420  44.2042610
  82.3233940 117.8922420  42.4046180  81.9903320 118.5191340  43.0467250
  82.5000620 118.4184300  41.6247850  90.8367850 111.7067500  39.8722520
  90.1323420 111.9952390  40.4525630  91.1980010 112.5167610  39.5122080
  80.7546420 109.9637200  42.2343130  81.0963230 110.8079250  41.9397000
  79.8162230 110.1120940  42.3508470  81.5353040 119.8603220  44.2195360
  82.1527040 120.5354300  43.9379810  80.6746160 120.2691200  44.1282860
  93.9054770 111.1522290  40.2631730  92.9579680 111.1861270  40.3947160
  94.2304760 111.9661240  40.6481090  81.1440330 112.8176250  41.8566610
  81.6954920 112.9271590  41.0819860  81.6583840 113.1913850  42.5721840
  81.9911840 119.4682290  46.8914580  81.0940370 119.6922260  47.1387980
  82.0164710 119.5917230  45.9425980  80.8183060 116.3395610  45.4671950
  80.6790830 117.2118410  45.8359350  79.9364420 115.9968420  45.3219890
  92.6134200 107.5718220  31.1196880  92.3006860 107.6645050  32.0195950
  93.3746670 108.1499250  31.0694310  94.5678230 123.0644410  48.9721270
  95.0437950 123.5427300  49.6510350  95.1885390 122.9961900  48.2466770
  93.9711480 120.2557260  46.1321280  94.0974540 120.0169140  45.2138460
  94.0132860 119.4241800  46.6043360  87.8328220 123.9585260  44.7016090
  88.3472890 123.8693270  45.5038520  86.9897300 124.3044960  44.9944000
  82.2871000 124.0239130  35.9071710  82.1113480 123.1074670  35.6939510
  81.4326740 124.3826420  36.1469510  76.8261230 119.1507330  43.9237320
  76.9892270 118.6812690  43.1056690  77.2913680 118.6430890  44.5886160
  85.8849810 111.1481610  44.5633210  85.4229180 111.3564630  45.3753150
  85.4827920 110.3340960  44.2603880  87.9804030 113.8692310  47.7928660
  88.3057440 113.0356060  47.4530890  88.7684360 114.3920830  47.9406990
  81.3894220 113.4046660  36.6879140  81.1635140 113.1883830  37.5925760
  80.6086750 113.8375120  36.3425110  87.2256850 112.0473570  37.3173070
  87.6186420 112.3645770  36.5041760  87.5873700 111.1685450  37.4317590
  78.9603970 110.7145910  45.5073190  78.5667360 111.5621120  45.7145970
  78.2722370 110.0772280  45.6981830  85.5349020 110.7980880  48.5769930
  84.8447340 110.6053080  49.2116020  86.2781320 111.0815520  49.1094230
  76.2621020 108.6374370  39.5403270  75.9734070 109.2077230  40.2528250
  77.0066780 108.1578820  39.9034500  87.8111990 114.6379320  41.4123850
  87.0793110 115.1466130  41.7613950  87.4136330 113.8209300  41.1112630
  84.2489380 111.3133520  39.8176340  84.2525440 110.8723470  38.9680880
  85.1440500 111.6350850  39.9248160  80.0991760 111.1960010  38.7770550
  79.7591810 111.6735240  39.5337600  79.3369080 110.7425130  38.4171650
  88.2737900 110.0913000  40.8246790  88.2910640 110.5421650  41.6688640
  88.0253480 109.1918640  41.0380230  78.4000210 118.5258760  46.0833130
  78.0155000 117.8852430  46.6816090  78.7112400 119.2294880  46.6527860
  84.5497350 115.3735300  41.5641750  84.9167480 114.8993870  42.3103090
  84.3602410 116.2476870  41.9050090  77.4137840 110.1178990  37.6935220
  77.1284760 109.7534660  38.5313840  77.3516700 109.3859450  37.0798360
  78.3960450 115.2546680  45.0297320  78.0375390 115.9200530  45.6170660
  78.1015010 114.4230230  45.4009940  76.9068500 115.2537940  31.6531920
  77.7763350 115.5362740  31.9367840  76.4158820 116.0673810  31.5380730
  84.0703310 116.6411150  35.7740200  84.5266090 117.4516400  36.0000390
  83.7191520 116.3234290  36.6058690  79.9715090 106.9848800  36.2462720
  79.8429720 106.9766700  37.1947640  79.1477110 107.3231890  35.8953730
  91.4923720 120.4398460  31.4449090  91.2661300 119.7228900  32.0373730
  91.1019920 120.1910900  30.6070840  77.2739750 124.4665320  32.2193550
  77.6337390 125.0654660  31.5650820  77.1332090 125.0125210  32.9928580
  91.8309830 110.1919170  34.2658430  91.2022990 110.2964840  33.5516660
  91.3361750 110.4115950  35.0552310  83.7993860 112.4705120  35.6816310
  83.0910010 112.9391460  36.1229920  84.0838340 111.8127130  36.3161500
  87.8309290 109.1955780  37.1212100  87.7077070 109.2141910  36.1721610
  88.7793850 109.2434720  37.2410500  80.3981770 124.6143020  39.3169980
  81.1344250 124.0658480  39.5878550  80.7822690 125.4799030  39.1775970
  83.5084080 123.7873330  31.1395550  84.3012690 124.0762160  30.6877340
  82.9888430 123.3565500  30.4608030  89.6705050 123.6349250  47.0640380
  90.6226800 123.5507270  47.0140620  89.5233270 124.2990960  47.7374170
  92.5614250 123.0143460  32.5632290  92.2755760 122.6008600  31.7486470
  92.3633800 123.9431170  32.4432810  84.0261480 119.0076740  31.0037900
  83.9212120 118.3929090  31.7299280  83.8585700 118.4842630  30.2200910
  81.0966750 113.0084240  46.3116170  80.5663210 112.5175190  45.6839510
  81.7654820 113.4368440  45.7774100  81.5839050 109.9746610  46.3913460
  81.4895920 109.3567360  45.6664330  81.0036440 110.7012900  46.1643370
  84.3500490 108.5319850  43.4240850  83.9017790 108.5544110  42.5786400
  83.7165690 108.1338870  44.0211150  83.8592710 111.7011710  46.6866950
  84.4492400 111.3927560  47.3744770  83.0412950 111.2291460  46.8426850
  88.6786140 111.3177520  46.9199970  87.9901660 110.6559060  46.8549960
  89.3992160 110.8715790  47.3648430  89.3086540 107.9129150  32.9790230
  89.5888830 107.0697050  33.3349650  88.5352270 108.1452260  33.4928980
  79.6511160 119.5063960  31.2711030  80.0886030 120.0493630  31.9268610
  80.1358890 118.6810910  31.2807370  76.8656960 122.2952990  38.7231290
  77.1959970 121.4274050  38.4909930  77.2947960 122.5011510  39.5536250
  77.3547170 123.1623580  41.4612920  76.9178160 123.3424380  42.2937070
  77.9224850 123.9198200  41.3194640  92.9909350 122.6640580  45.7490230
  92.3911340 122.7233140  45.0054150  93.1203250 121.7245560  45.8787080
  94.2310800 120.4058400  31.0859940  93.4003760 120.4735050  31.5567170
  94.4082630 121.2962520  30.7826800  90.1362040 110.4685100  32.0420290
  90.5546920 110.2816080  31.2016950  89.8298100 109.6164150  32.3523220
  78.2247530 116.0596380  42.3605140  78.5920570 115.9723780  43.2401160
  77.6558350 115.2962930  42.2612000  77.7763530 112.9705470  46.2663560
  76.8819580 112.9372230  46.6057270  78.3161080 113.1692260  47.0314810
  76.4009680 112.8842740  33.7627130  75.4973760 113.1472940  33.5878790
  76.8850300 113.1553910  32.9827090  92.9102730 113.6066730  39.0403330
  93.4340210 113.1129380  38.4093500  93.4962150 113.7417090  39.7850900
  78.5911050 107.9947610  30.7124160  79.3139180 108.5356550  31.0305380
  78.8635570 107.7211030  29.8365700  78.2803240 107.2453800  40.6146780
  78.9279430 106.6951180  40.1741940  78.7005080 107.4996950  41.4362590
  93.8289860 111.5001030  37.5133420  93.7189140 111.3457070  38.4515690
  94.5897450 110.9721970  37.2708830  94.7180130 109.3308950  30.7539560
  95.6429440 109.1990130  30.5457850  94.6955920 109.4101770  31.7076010
  78.0335240 107.4009470  43.3572100  77.6850060 107.8573290  44.1230280
  77.7022940 106.5066600  43.4394530  83.3405640 122.1288660  43.1235010
  83.0997000 122.3963220  42.2365530  84.2808280 122.2994390  43.1785870
  85.5460060 108.5921350  46.8791520  85.4848950 109.1843180  47.6286930
  86.4860440 108.4847310  46.7341780  78.7055880 106.9285670  46.6322870
  79.2538870 106.7473720  45.8688980  78.7711190 106.1379780  47.1679180
  79.4787640 123.5191320  44.6423070  78.8847960 123.3876020  45.3813110
  79.4711480 122.6829460  44.1765170  79.1099870 120.8849700  43.5931110
  78.3833930 120.2654990  43.5257060  79.1709020 121.2790310  42.7229190
  86.6717480 107.7293390  41.7846010  85.8889270 108.2038890  42.0642770
  86.3780410 106.8248220  41.6759190  91.2238550 108.4316490  39.8295100
  91.6646640 108.3761590  38.9816700  90.9546140 109.3474500  39.9005280
  78.0157890 108.0340870  34.3059730  78.7737250 108.1469750  33.7323760
  77.5535060 108.8710070  34.2603160  89.0596680 106.8122590  38.5345110
  89.6626050 107.3842800  39.0093630  88.3189670 107.3762030  38.3119010
  92.2031280 107.2144150  33.8085390  92.3981910 108.1127600  34.0752820
  91.4161150 106.9831230  34.3018340  78.9992570 122.8957320  34.2478010
  78.4740190 123.2765350  33.5439970  78.9237150 123.5208090  34.9687720
  82.7076440 107.5764040  48.3359580  82.4260710 108.0797640  47.5720400
  83.0896140 106.7785790  47.9701710  81.5985540 124.8439700  33.1227260
  82.3304360 124.5598980  32.5751150  81.8579210 124.6052980  34.0126640
  92.0890390 124.1389150  48.3958740  92.8815710 123.6438380  48.1884700
  92.3823540 124.8179290  49.0034350  88.2150050 115.0110090  19.2774790
  88.1344100 114.0964700  19.0066500  87.8014470 115.5077160  18.5714500
  86.3468090 116.7889110  21.1584060  85.5710190 116.3089550  21.4482630
  86.9981020 116.1094760  20.9840220  80.3633920 117.1008920  22.0359820
  79.5318800 116.8457630  22.4356330  80.9714900 117.1719690  22.7717740
  90.3675520 121.1949300  19.9383190  89.9057050 120.4236540  20.2670360
  91.1801070 121.2215370  20.4435640  80.3435180 121.1349010  22.2317840
  80.6463220 120.2446750  22.0528060  81.0878770 121.6919230  22.0040090
  78.7725870 112.0610810  15.8202210  77.8842570 112.4026780  15.7182090
  79.0567060 111.8611130  14.9283040  76.7358880 114.6616460  21.7041910
  77.3074990 113.8938660  21.7045550  76.7360420 114.9605220  20.7948520
  86.5938830 123.4807310  19.5587180  85.9750270 123.9364810  18.9881620
  87.4490610 123.6358770  19.1576880  85.7877080 119.4646300  21.1654220
  85.7185360 118.5236240  21.0043350  86.5496940 119.5547710  21.7376790
  77.9783750 110.0700820  23.4910840  77.7986590 109.1726570  23.7713600
  77.5763830 110.6172690  24.1657790  86.8182250 112.2716680  21.3923150
  87.1947070 111.3988560  21.2796820  86.7201760 112.6075380  20.5013590
  80.9487260 110.6442310  16.8540590  81.0554010 111.5446040  17.1609350
  80.0379620 110.5960280  16.5635240  90.6006370 109.7667120  18.3251490
  91.4215990 109.2763690  18.3676970  90.6340450 110.3564780  19.0783330
  78.5970420 112.5661320  22.0993180  79.2780530 112.8299690  22.7180580
  78.2818470 111.7262190  22.4331190  82.7894990 113.6128680  21.1865770
  83.2973210 114.1109650  21.8270790  83.3208230 112.8363880  21.0105130
  94.8905920 111.7833870  24.8895120  94.1858090 112.1715580  24.3710230
  95.1563840 112.4784160  25.4916050  81.0731090 108.2527240  25.4529190
  81.0749530 108.7699630  24.6475090  80.2435400 107.7757420  25.4299120
  87.4602180 118.3646550  16.9519090  86.8419450 118.8296000  16.3881810
  87.9725430 119.0574030  17.3688600  82.3233940 117.8922420  23.6302690
  81.9903320 118.5191340  24.2723760  82.5000620 118.4184300  22.8504360
  90.8367850 111.7067500  21.0979030  90.1323420 111.9952390  21.6782140
  91.1980010 112.5167610  20.7378590  80.7546420 109.9637200  23.4599640
  81.0963230 110.8079250  23.1653510  79.8162230 110.1120940  23.5764980
  81.5353040 119.8603220  25.4451870  82.1527040 120.5354300  25.1636320
  80.6746160 120.2691200  25.3539370  76.8285380 119.0503080  14.3258720
  76.4513360 119.5390180  13.5943620  77.0858450 119.7228360  14.9565250
  92.4530630 121.3242630  23.3606510  91.7694150 121.9941740  23.3523180
  92.9924920 121.5223280  22.5951370  93.9054770 111.1522290  21.4888240
  92.9579680 111.1861270  21.6203670  94.2304760 111.9661240  21.8737600
  84.4374310 107.4519470  19.7844230  84.7449290 106.8966360  19.0679730
  83.5075010 107.5863930  19.6017220  89.9889370 123.1686760  22.0751690
  90.0016530 122.7649050  21.2073950  89.4364590 123.9434050  21.9713120
  91.2834790 119.8902980  17.1641860  91.1731120 118.9477310  17.2891280
  91.2803040 120.2518620  18.0504620  89.3874810 118.0716600  23.4034300
  89.8043600 117.8576710  22.5687760  90.1114630 118.3289390  23.9742920
  86.8255070 115.5168300  16.5204350  85.8984350 115.4505680  16.7492820
  86.9779890 116.4548430  16.4059590  86.8124150 111.7885300  13.5171510
  85.8727820 111.9499260  13.6023970  87.1307410 112.5070980  12.9707500
  93.3336910 116.4703820  23.4950540  92.5055540 116.5396910  23.0200670
  93.9287390 117.0558130  23.0266370  90.8552360 117.0788600  17.0239600
  90.2364780 116.7408150  16.3765900  90.8376810 116.4348360  17.7318790
  90.2978920 113.2573140  24.4405410  89.8850100 114.0826850  24.6945400
  89.5654870 112.6718180  24.2481770  82.4311710 116.0433040  19.3024080
  82.0268710 115.3310290  18.8069980  82.5174830 115.6986280  20.1912120
  82.8993410 119.7300600  21.4663290  82.6021700 119.1246070  20.7871070
  83.8493230 119.7677910  21.3552650  81.1440330 112.8176250  23.0823120
  81.6954920 112.9271590  22.3076370  81.6583840 113.1913850  23.7978350
  90.9879020 123.3032470  25.1286390  90.5109580 124.1104660  24.9359000
  90.3040810 122.6510800  25.2812600  81.9911840 119.4682290  28.1171090
  81.0940370 119.6922260  28.3644490  82.0164710 119.5917230  27.1682490
  89.0317060 116.3175410  14.0312350  89.4710340 115.4797840  13.8850170
  89.7445480 116.9504810  14.1176490  80.8183060 116.3395610  26.6928460
  80.6790830 117.2118410  27.0615860  79.9364420 115.9968420  26.5476400
  87.1412440 121.2571480  17.9993590  87.5808350 121.9995810  17.5848980
  87.0799330 121.4998050  18.9232550  82.6163410 122.2817310  28.9013610
  82.5878840 122.6860260  28.0342040  82.4528380 121.3527670  28.7385210
  92.6134200 107.5718220  12.3453390  92.3006860 107.6645050  13.2452460
  93.3746670 108.1499250  12.2950820  79.1316340 114.9378020  16.8030730
  79.0113940 115.6640110  16.1912000  78.8217230 114.1680930  16.3258640
  94.5678230 123.0644410  30.1977780  95.0437950 123.5427300  30.8766860
  95.1885390 122.9961900  29.4723280  76.7701710 118.1093160  22.6099370
  76.8482130 118.2441930  21.6655090  77.3843390 117.4009050  22.8027490
  78.0149340 119.8093350  19.0205550  77.6077420 119.9507940  18.1659150
  78.9062350 119.5253510  18.8176760  93.9711480 120.2557260  27.3577790
  94.0974540 120.0169140  26.4394970  94.0132860 119.4241800  27.8299870
  87.8328220 123.9585260  25.9272600  88.3472890 123.8693270  26.7295030
  86.9897300 124.3044960  26.2200510  89.8082620 124.2440600  15.3556600
  89.6483760 123.9543540  16.2538430  89.6429330 123.4680730  14.8201830
  82.2871000 124.0239130  17.1328220  82.1113480 123.1074670  16.9196020
  81.4326740 124.3826420  17.3726020  89.5108750 121.7528160  13.9154600
  88.8173910 121.7505450  13.2556880  90.2531610 121.3287480  13.4848770
  89.0758680 123.3790870  17.9903090  89.5315630 122.5980250  18.3041710
  89.4151200 124.0897690  18.5344270  93.8235490 112.3089720  28.3227530
  93.2079760 112.8169390  27.7942990  93.5031910 111.4088050  28.2653470
  76.8261230 119.1507330  25.1493830  76.9892270 118.6812690  24.3313200
  77.2913680 118.6430890  25.8142670  81.5980000 108.2813090  20.1854400
  81.1548150 109.0622630  19.8538920  82.1564990 108.6042980  20.8925340
  90.8854320 112.3690560  26.9186380  90.0347910 112.0696310  27.2395450
  90.7256110 112.6132570  26.0070200  87.9804030 113.8692310  29.0185170
  88.3057440 113.0356060  28.6787400  88.7684360 114.3920830  29.1663500
  84.7138820 107.9023790  15.0660230  84.0893000 107.8983660  15.7913540
  84.6268940 107.0354750  14.6696200  83.6355900 108.8260420  22.0444000
  83.9328230 109.7323250  21.9636020  84.1841460 108.3379200  21.4303570
  81.3894220 113.4046660  17.9135650  81.1635140 113.1883830  18.8182270
  80.6086750 113.8375120  17.5681620  88.6191980 113.4110030  16.5126300
  88.0200870 114.1345830  16.3289920  89.1671590 113.3486810  15.7302750
  87.2256850 112.0473570  18.5429580  87.6186420 112.3645770  17.7298270
  87.5873700 111.1685450  18.6574100  76.2621020 108.6374370  20.7659780
  75.9734070 109.2077230  21.4784760  77.0066780 108.1578820  21.1291010
  76.4491250 112.5794490  11.9762500  76.3665920 113.5225250  12.1177490
  76.0974310 112.4369400  11.0974850  87.8111990 114.6379320  22.6380360
  87.0793110 115.1466130  22.9870460  87.4136330 113.8209300  22.3369140
  84.2489380 111.3133520  21.0432850  84.2525440 110.8723470  20.1937390
  85.1440500 111.6350850  21.1504670  80.0991760 111.1960010  20.0027060
  79.7591810 111.6735240  20.7594110  79.3369080 110.7425130  19.6428160
  84.3109530 112.3145600  14.0339610  84.4322350 112.2732080  14.9825430
  83.9258040 113.1769750  13.8786340  88.2737900 110.0913000  22.0503300
  88.2910640 110.5421650  22.8945150  88.0253480 109.1918640  22.2636740
  83.3231030 114.6246740  13.4322910  82.7547930 114.1764990  12.8058820
  84.0320030 114.9839520  12.8988060  78.4000210 118.5258760  27.3089640
  78.0155000 117.8852430  27.9072600  78.7112400 119.2294880  27.8784370
  84.5497350 115.3735300  22.7898260  84.9167480 114.8993870  23.5359600
  84.3602410 116.2476870  23.1306600  77.4137840 110.1178990  18.9191730
  77.1284760 109.7534660  19.7570350  77.3516700 109.3859450  18.3054870
  82.3396720 114.4143940  25.1082470  82.0353790 115.2935920  25.3332830
  83.2943180 114.4743730  25.1439910  80.8678510 118.6204930  15.7049320
  80.0940770 118.0802550  15.5448040  81.5973140 118.1011540  15.3667080
  91.6266490 117.6170290  21.4975710  92.3465610 118.1125580  21.1071820
  91.4248310 116.9388180  20.8529580  87.0876430 109.0108250  15.6405100
  86.2741040 108.5121420  15.5650410  86.8938380 109.8506500  15.2241450
  87.0085290 117.6879350  27.3844710  86.9422600 116.7675020  27.1302300
  86.3790430 117.7854790  28.0989350  89.8024820 113.3827900  13.9367260
  90.6904440 113.6945130  13.7618600  89.7729910 112.5100150  13.5447840
  80.9115910 118.2885310  19.3428130  81.4294580 117.4853570  19.2885020
  80.4599930 118.2264450  20.1844960  85.7985410 119.5551590  14.6155430
  86.1401110 120.2993820  14.1198750  84.9698120 119.8682710  14.9780260
  86.9402020 120.5099920  27.1348510  86.9546560 119.5780880  26.9167420
  86.2327120 120.5959680  27.7738280  92.0739090 114.6939740  13.4047120
  91.9902810 115.1253960  12.5543560  92.7933280 115.1538090  13.8373940
  93.1513230 117.1507260  26.4817090  92.4261420 117.7436040  26.2846480
  93.6788690 117.1430800  25.6830460  93.1026340 121.5482000  16.1329250
  92.4602500 120.8937620  16.4072970  92.7157000 121.9537090  15.3569920
  88.6812820 118.8767430  19.9800940  89.0336640 118.2795560  19.3202310
  87.7975150 118.5511660  20.1509190  84.7676100 119.6365120  17.3871350
  85.4547230 120.1834330  17.7678940  83.9808520 120.1805850  17.4220960
  76.9068500 115.2537940  12.8788430  77.7763350 115.5362740  13.1624350
  76.4158820 116.0673810  12.7637240  84.0703310 116.6411150  16.9996710
  84.5266090 117.4516400  17.2256900  83.7191520 116.3234290  17.8315200
  86.3735920 122.1517490  24.2289010  87.0178140 122.3576870  24.9062430
  86.7365360 121.3905890  23.7759860  79.9715090 106.9848800  17.4719230
  79.8429720 106.9766700  18.4204150  79.1477110 107.3231890  17.1210240
  87.6468000 120.1549840  22.9466460  88.2890230 119.4543000  23.0598630
  88.1717350 120.9348280  22.7663350  91.4923720 120.4398460  12.6705600
  91.2661300 119.7228900  13.2630240  91.1019920 120.1910900  11.8327350
  89.4205620 120.9544740  26.1502520  89.7561860 121.5411430  26.8280440
  88.5005960 120.8237450  26.3800310  77.2739750 124.4665320  13.4450060
  77.6337390 125.0654660  12.7907330  77.1332090 125.0125210  14.2185090
  91.0739970 118.3570400  14.3319760  90.7861670 118.8183090  15.1197640
  91.8692140 117.8968170  14.6003980  77.2581610 122.7320180  27.9192460
  77.3672730 121.7914920  27.7787850  76.6062170 122.9974930  27.2706190
  85.2494200 121.0036070  29.3190580  84.9291070 120.2845310  29.8636270
  84.5752560 121.6791140  29.3926640  83.2908370 121.8496520  14.2623730
  83.2818470 122.5826210  13.6468240  82.3706730 121.6028100  14.3550690
  78.8915010 117.0711410  15.0070490  78.2842960 117.8110310  15.0165790
  79.3664360 117.1610770  14.1808690  91.8309830 110.1919170  15.4914940
  91.2022990 110.2964840  14.7773170  91.3361750 110.4115950  16.2808820
  86.2767970 121.9124760  12.9248920  86.3779950 121.7088750  11.9950900
  85.3769710 121.6583040  13.1296700  83.7993860 112.4705120  16.9072820
  83.0910010 112.9391460  17.3486430  84.0838340 111.8127130  17.5418010
  85.4249790 113.8901820  24.9065350  85.9235040 114.3647640  25.5717200
  85.5672740 112.9665340  25.1135380  87.8309290 109.1955780  18.3468610
  87.7077070 109.2141910  17.3978120  88.7793850 109.2434720  18.4667010
  84.9186080 124.4311080  17.6196590  85.1727580 124.3932470  16.6975960
  83.9698560 124.3044410  17.6124840  82.0028880 110.7790200  14.2823530
  82.8519410 111.2160350  14.2163720  81.6360150 111.0910460  15.1095590
  92.6316650 110.1069780  25.7493740  92.1290250 110.8475180  26.0887550
  93.4473310 110.4953780  25.4330530  90.9238660 115.3502960  19.1955100
  89.9828800 115.3653190  19.3702790  91.2382730 114.5638920  19.6415400
  80.9020300 117.0322560  12.7559060  81.6683570 116.9203920  13.3184490
  80.9794990 116.3360530  12.1035830  79.5967060 114.4647630  13.4391950
  79.6770650 113.5175140  13.5509350  80.4886810 114.7954510  13.5452610
  92.9264240 122.5211810  20.8709360  93.0511660 123.3442980  21.3433170
  93.7929800 122.3102540  20.5233510  80.3981770 124.6143020  20.5426490
  81.1344250 124.0658480  20.8135060  80.7822690 125.4799030  20.4032480
  77.2827250 120.6816590  16.4168000  76.3567030 120.9237730  16.4073410
  77.7483680 121.5090850  16.2952750  79.4040050 123.7989090  29.7312070
  80.2052780 124.1201140  30.1447470  78.8891870 123.4384670  30.4531980
  83.5084080 123.7873330  12.3652060  84.3012690 124.0762160  11.9133850
  82.9888430 123.3565500  11.6864540  89.6705050 123.6349250  28.2896890
  90.6226800 123.5507270  28.2397130  89.5233270 124.2990960  28.9630680
  92.5614250 123.0143460  13.7888800  92.2755760 122.6008600  12.9742980
  92.3633800 123.9431170  13.6689320  77.1237860 116.2862550  28.6748120
  77.6276880 115.7069830  29.2464350  76.3845280 116.5702780  29.2124490
  84.0261480 119.0076740  12.2294410  83.9212120 118.3929090  12.9555790
  83.8585700 118.4842630  11.4457420  84.1775800 117.6933540  28.2083640
  83.4121470 118.2618540  28.1238310  84.3591760 117.4009750  27.3151870
  87.2664210 118.0696770  12.8336400  86.7174310 118.5166070  13.4779140
  87.8883470 117.5646020  13.3574070  91.3199150 119.4238870  28.7658660
  92.0608620 119.7614630  28.2626120  90.5571830 119.5930930  28.2128430
  82.9339330 117.0287690  14.7301700  83.3555750 116.8627560  15.5733090
  83.0590170 116.2187920  14.2356840  85.4466970 116.0525300  11.9778800
  85.9672630 115.3374320  11.6119950  86.0935370 116.6911170  12.2779310
  89.9944810 117.4753700  27.3013870  90.4085830 117.6298780  28.1504290
  89.0595810 117.6008920  27.4639650  90.4666980 114.8149860  29.3053020
  91.0487750 114.0602180  29.2173500  90.6428750 115.3457300  28.5284500
  84.3500490 108.5319850  24.6497360  83.9017790 108.5544110  23.8042910
  83.7165690 108.1338870  25.2467660  84.7560040 117.4274180  25.2709800
  85.1748150 118.2706910  25.0986040  83.8368670 117.5646220  25.0416580
  87.0923940 115.1590360  26.6547640  87.2120150 114.5631500  27.3942480
  87.9517940 115.1960050  26.2348940  89.4311840 115.7127550  25.2310150
  88.9047060 116.2370170  24.6275290  89.7743180 116.3454940  25.8619880
  81.8298230 113.1020920  11.6759860  81.6287290 112.2388280  12.0373200
  81.6590280 113.0154280  10.7381460  82.6067460 123.7327190  26.3867530
  82.0688550 124.4573250  26.0676230  82.8601420 123.2557530  25.5964870
  89.3086540 107.9129150  14.2046740  89.5888830 107.0697050  14.5606160
  88.5352270 108.1452260  14.7185490  80.6281030 110.2021540  11.6637740
  80.9306930 110.2088970  10.7556890  81.3675620 109.8519400  12.1605400
  85.4629670 124.9678400  26.6454180  85.3888370 125.8713540  26.9526550
  84.5608510 124.6490300  26.6176250  83.8465960 109.1456160  12.6493940
  83.4987960 108.4680150  12.0696390  84.0478730 108.6845670  13.4637330
  86.0115000 124.1336910  14.2680540  86.9065790 124.4721880  14.2899300
  86.0432630 123.4116320  13.6404820  79.6511160 119.5063960  12.4967540
  80.0886030 120.0493630  13.1525120  80.1358890 118.6810910  12.5063880
  76.8656960 122.2952990  19.9487800  77.1959970 121.4274050  19.7166440
  77.2947960 122.5011510  20.7792760  81.4618880 120.6262000  17.6089770
  81.1614420 120.5026970  18.5093680  81.3556370 119.7670590  17.2005500
  77.3547170 123.1623580  22.6869430  76.9178160 123.3424380  23.5193580
  77.9224850 123.9198200  22.5451150  92.9909350 122.6640580  26.9746740
  92.3911340 122.7233140  26.2310660  93.1203250 121.7245560  27.1043590
  94.2310800 120.4058400  12.3116450  93.4003760 120.4735050  12.7823680
  94.4082630 121.2962520  12.0083310  93.6867260 117.1505880  14.8150650
  94.4486170 117.7202530  14.9210340  93.7021630 116.5833080  15.5858960
  77.1871600 115.6743810  19.0458310  76.5320440 115.4055450  18.4018010
  78.0249550 115.5648290  18.5960290  94.6927230 118.0055980  19.6592580
  95.0636060 117.2223300  19.2528550  95.3329160 118.6945080  19.4809880
  91.6760990 119.3892560  25.0722900  90.8620830 119.8189720  25.3348690
  92.0835190 120.0010970  24.4591950  93.7386430 117.4440250  11.9723170
  94.0135270 118.3519130  11.8442390  93.5497170 117.3802780  12.9085160
  90.1362040 110.4685100  13.2676800  90.5546920 110.2816080  12.4273460
  89.8298100 109.6164150  13.5779730  93.6351770 115.3809240  16.9652600
  93.2595370 114.6137170  16.5333890  92.9054890 115.7631940  17.4527530
  78.2247530 116.0596380  23.5861650  78.5920570 115.9723780  24.4657670
  77.6558350 115.2962930  23.4868510  93.0251390 114.5280760  26.5992120
  92.7937480 114.2993510  25.6990070  93.2855940 115.4480310  26.5537010
  91.4639460 109.7537190  29.3771820  92.3409640 109.7620590  29.7605820
  91.4760300 109.0168030  28.7664170  76.4009680 112.8842740  14.9883640
  75.4973760 113.1472940  14.8135300  76.8850300 113.1553910  14.2083600
  92.9102730 113.6066730  20.2659840  93.4340210 113.1129380  19.6350010
  93.4962150 113.7417090  21.0107410  93.0892450 113.6906600  23.7879390
  92.1395160 113.6570140  23.9024380  93.2705460 114.6006710  23.5529160
  78.9436890 111.9408280  12.8978020  79.6528590 111.5191500  12.4125300
  78.2276830 112.0083510  12.2661370  78.5911050 107.9947610  11.9380670
  79.3139180 108.5356550  12.2561890  78.8635570 107.7211030  11.0622210
  92.4002700 112.8640080  16.2052250  92.8961820 112.6310950  16.9901130
  92.2018770 112.0251920  15.7889890  78.2803240 107.2453800  21.8403290
  78.9279430 106.6951180  21.3998450  78.7005080 107.4996950  22.6619100
  93.8289860 111.5001030  18.7389930  93.7189140 111.3457070  19.6772200
  94.5897450 110.9721970  18.4965340  92.1755580 107.4395160  25.1972930
  92.8127800 108.0529300  25.5632120  92.3230470 107.4755820  24.2522160
  94.7180130 109.3308950  11.9796070  95.6429440 109.1990130  11.7714360
  94.6955920 109.4101770  12.9332520  94.7918620 110.1019610  14.6052780
  93.9970120 110.0364730  15.1345690  94.9961900 111.0370250  14.5938130
  91.7337040 124.1411160  18.5991170  92.3296110 123.8195730  17.9225590
  91.9915190 123.6682980  19.3904440  78.0335240 107.4009470  24.5828610
  77.6850060 107.8573290  25.3486790  77.7022940 106.5066600  24.6651040
  79.6399610 120.5729070  28.7481800  79.5969240 120.2021980  29.6296260
  79.7710620 121.5106640  28.8883620  83.3405640 122.1288660  24.3491520
  83.0997000 122.3963220  23.4622040  84.2808280 122.2994390  24.4042380
  94.6009800 124.1483040  25.1502160  94.1068080 124.5451910  24.4329290
  93.9923090 123.5232250  25.5439440  78.7055880 106.9285670  27.8579380
  79.2538870 106.7473720  27.0945490  78.7711190 106.1379780  28.3935690
  79.4787640 123.5191320  25.8679580  78.8847960 123.3876020  26.6069620
  79.4711480 122.6829460  25.4021680  92.2849250 124.7906460  22.4288900
  91.8252220 125.5422270  22.0546920  91.6561710 124.0712930  22.3703700
  79.1099870 120.8849700  24.8187620  78.3833930 120.2654990  24.7513570
  79.1709020 121.2790310  23.9485700  82.7144970 123.0994700  21.6037030
  83.2309990 122.4882060  21.0785290  83.3642350 123.6023480  22.0948040
  85.4540470 123.9903190  22.4306010  85.7418280 123.7357490  21.5539020
  85.9663690 123.4380550  23.0211580  91.2238550 108.4316490  21.0551610
  91.6646640 108.3761590  20.2073210  90.9546140 109.3474500  21.1261790
  93.0877120 108.0631730  19.0660430  93.0265520 107.1192950  18.9191450
  93.8669150 108.1711820  19.6113890  77.3929870 124.2024090  18.0284380
  77.2251910 123.5694770  18.7266270  76.5264380 124.4083490  17.6778570
  78.0157890 108.0340870  15.5316240  78.7737250 108.1469750  14.9580270
  77.5535060 108.8710070  15.4859670  84.5571700 110.1480140  18.5218550
  83.7446210 109.7737030  18.1814430  85.0613340 109.3925220  18.8239740
  89.0596680 106.8122590  19.7601620  89.6626050 107.3842800  20.2350140
  88.3189670 107.3762030  19.5375520  92.2031280 107.2144150  15.0341900
  92.3981910 108.1127600  15.3009330  91.4161150 106.9831230  15.5274850
  78.9992570 122.8957320  15.4734520  78.4740190 123.2765350  14.7696480
  78.9237150 123.5208090  16.1944230  80.3883040 108.5604920  14.0718210
  80.9175800 107.7734720  13.9426160  81.0211360 109.2396110  14.3053740
  82.5820880 108.2980060  17.1263600  81.9523620 107.5967370  17.2933730
  82.0426020 109.0584190  16.9096760  85.5212830 124.9119290  29.7974210
  86.4480140 124.6763560  29.8410170  85.5063260 125.7391290  29.3160240
  93.7557890 124.4544860  16.7948460  93.9310080 123.7682600  16.1509380
  93.0579460 124.9791910  16.4025130  81.5985540 124.8439700  14.3483770
  82.3304360 124.5598980  13.8007660  81.8579210 124.6052980  15.2383150
  80.7600330 120.9604430  14.3530100  80.1309210 121.4289530  14.9015930
  80.8748160 120.1153650  14.7876290  92.0890390 124.1389150  29.6215250
  92.8815710 123.6438380  29.4141210  92.3823540 124.8179290  30.2290860
  86.3468090 116.7889110   2.3840570  85.5710190 116.3089550   2.6739140
  86.9981020 116.1094760   2.2096730  80.3633920 117.1008920   3.2616330
  79.5318800 116.8457630   3.6612840  80.9714900 117.1719690   3.9974250
  80.3435180 121.1349010   3.4574350  80.6463220 120.2446750   3.2784570
  81.0878770 121.6919230   3.2296600  76.7358880 114.6616460   2.9298420
  77.3074990 113.8938660   2.9302060  76.7360420 114.9605220   2.0205030
  85.7877080 119.4646300   2.3910730  85.7185360 118.5236240   2.2299860
  86.5496940 119.5547710   2.9633300  77.9783750 110.0700820   4.7167350
  77.7986590 109.1726570   4.9970110  77.5763830 110.6172690   5.3914300
  86.8182250 112.2716680   2.6179660  87.1947070 111.3988560   2.5053330
  86.7201760 112.6075380   1.7270100  78.5970420 112.5661320   3.3249690
  79.2780530 112.8299690   3.9437090  78.2818470 111.7262190   3.6587700
  82.7894990 113.6128680   2.4122280  83.2973210 114.1109650   3.0527300
  83.3208230 112.8363880   2.2361640  94.8905920 111.7833870   6.1151630
  94.1858090 112.1715580   5.5966740  95.1563840 112.4784160   6.7172560
  81.0731090 108.2527240   6.6785700  81.0749530 108.7699630   5.8731600
  80.2435400 107.7757420   6.6555630  82.3233940 117.8922420   4.8559200
  81.9903320 118.5191340   5.4980270  82.5000620 118.4184300   4.0760870
  90.8367850 111.7067500   2.3235540  90.1323420 111.9952390   2.9038650
  91.1980010 112.5167610   1.9635100  80.7546420 109.9637200   4.6856150
  81.0963230 110.8079250   4.3910020  79.8162230 110.1120940   4.8021490
  81.5353040 119.8603220   6.6708380  82.1527040 120.5354300   6.3892830
  80.6746160 120.2691200   6.5795880  92.4530630 121.3242630   4.5863020
  91.7694150 121.9941740   4.5779690  92.9924920 121.5223280   3.8207880
  93.9054770 111.1522290   2.7144750  92.9579680 111.1861270   2.8460180
  94.2304760 111.9661240   3.0994110  89.9889370 123.1686760   3.3008200
  90.0016530 122.7649050   2.4330460  89.4364590 123.9434050   3.1969630
  89.3874810 118.0716600   4.6290810  89.8043600 117.8576710   3.7944270
  90.1114630 118.3289390   5.1999430  93.3336910 116.4703820   4.7207050
  92.5055540 116.5396910   4.2457180  93.9287390 117.0558130   4.2522880
  90.2978920 113.2573140   5.6661920  89.8850100 114.0826850   5.9201910
  89.5654870 112.6718180   5.4738280  82.8993410 119.7300600   2.6919800
  82.6021700 119.1246070   2.0127580  83.8493230 119.7677910   2.5809160
  81.1440330 112.8176250   4.3079630  81.6954920 112.9271590   3.5332880
  81.6583840 113.1913850   5.0234860  90.9879020 123.3032470   6.3542900
  90.5109580 124.1104660   6.1615510  90.3040810 122.6510800   6.5069110
  81.9911840 119.4682290   9.3427600  81.0940370 119.6922260   9.5901000
  82.0164710 119.5917230   8.3939000  80.8183060 116.3395610   7.9184970
  80.6790830 117.2118410   8.2872370  79.9364420 115.9968420   7.7732910
  82.6163410 122.2817310  10.1270120  82.5878840 122.6860260   9.2598550
  82.4528380 121.3527670   9.9641720  94.5678230 123.0644410  11.4234290
  95.0437950 123.5427300  12.1023370  95.1885390 122.9961900  10.6979790
  76.7701710 118.1093160   3.8355880  76.8482130 118.2441930   2.8911600
  77.3843390 117.4009050   4.0284000  93.9711480 120.2557260   8.5834300
  94.0974540 120.0169140   7.6651480  94.0132860 119.4241800   9.0556380
  87.8328220 123.9585260   7.1529110  88.3472890 123.8693270   7.9551540
  86.9897300 124.3044960   7.4457020  93.8235490 112.3089720   9.5484040
  93.2079760 112.8169390   9.0199500  93.5031910 111.4088050   9.4909980
  76.8261230 119.1507330   6.3750340  76.9892270 118.6812690   5.5569710
  77.2913680 118.6430890   7.0399180  85.8849810 111.1481610   7.0146230
  85.4229180 111.3564630   7.8266170  85.4827920 110.3340960   6.7116900
  90.8854320 112.3690560   8.1442890  90.0347910 112.0696310   8.4651960
  90.7256110 112.6132570   7.2326710  87.9804030 113.8692310  10.2441680
  88.3057440 113.0356060   9.9043910  88.7684360 114.3920830  10.3920010
  83.6355900 108.8260420   3.2700510  83.9328230 109.7323250   3.1892530
  84.1841460 108.3379200   2.6560080  83.8293430 114.3032240   9.8052430
  83.7337030 113.3626970   9.6552830  84.6725410 114.5247310   9.4100500
  78.9603970 110.7145910   7.9586210  78.5667360 111.5621120   8.1658990
  78.2722370 110.0772280   8.1494850  85.5349020 110.7980880  11.0282950
  84.8447340 110.6053080  11.6629040  86.2781320 111.0815520  11.5607250
  76.2621020 108.6374370   1.9916290  75.9734070 109.2077230   2.7041270
  77.0066780 108.1578820   2.3547520  87.8111990 114.6379320   3.8636870
  87.0793110 115.1466130   4.2126970  87.4136330 113.8209300   3.5625650
  84.2489380 111.3133520   2.2689360  84.2525440 110.8723470   1.4193900
  85.1440500 111.6350850   2.3761180  88.2737900 110.0913000   3.2759810
  88.2910640 110.5421650   4.1201660  88.0253480 109.1918640   3.4893250
  91.7008650 107.5045180   9.1146190  92.0254420 106.7734840   9.6404170
  91.7365160 107.1858820   8.2127180  78.4000210 118.5258760   8.5346150
  78.0155000 117.8852430   9.1329110  78.7112400 119.2294880   9.1040880
  84.5497350 115.3735300   4.0154770  84.9167480 114.8993870   4.7616110
  84.3602410 116.2476870   4.3563110  82.3396720 114.4143940   6.3338980
  82.0353790 115.2935920   6.5589340  83.2943180 114.4743730   6.3696420
  91.6266490 117.6170290   2.7232220  92.3465610 118.1125580   2.3328330
  91.4248310 116.9388180   2.0786090  87.0085290 117.6879350   8.6101220
  86.9422600 116.7675020   8.3558810  86.3790430 117.7854790   9.3245860
  78.3960450 115.2546680   7.4810340  78.0375390 115.9200530   8.0683680
  78.1015010 114.4230230   7.8522960  81.5973570 115.7130920  10.3649890
  81.2973710 115.8588100   9.4677710  82.3684810 115.1536210  10.2723280
  86.9402020 120.5099920   8.3605020  86.9546560 119.5780880   8.1423930
  86.2327120 120.5959680   8.9994790  93.1513230 117.1507260   7.7073600
  92.4261420 117.7436040   7.5102990  93.6788690 117.1430800   6.9086970
  86.3735920 122.1517490   5.4545520  87.0178140 122.3576870   6.1318940
  86.7365360 121.3905890   5.0016370  87.6468000 120.1549840   4.1722970
  88.2890230 119.4543000   4.2855140  88.1717350 120.9348280   3.9919860
  89.4205620 120.9544740   7.3759030  89.7561860 121.5411430   8.0536950
  88.5005960 120.8237450   7.6056820  76.9709020 108.7439920   8.1582440
  76.2567540 108.9436840   8.7635050  77.3904060 107.9679490   8.5297240
  77.2581610 122.7320180   9.1448970  77.3672730 121.7914920   9.0044360
  76.6062170 122.9974930   8.4962700  85.2494200 121.0036070  10.5447090
  84.9291070 120.2845310  11.0892780  84.5752560 121.6791140  10.6183150
  88.4647800 111.2362230   5.9083890  88.8328620 110.4157440   6.2363460
  87.6046000 111.2964120   6.3239540  85.4249790 113.8901820   6.1321860
  85.9235040 114.3647640   6.7973710  85.5672740 112.9665340   6.3391890
  92.6316650 110.1069780   6.9750250  92.1290250 110.8475180   7.3144060
  93.4473310 110.4953780   6.6587040  92.9264240 122.5211810   2.0965870
  93.0511660 123.3442980   2.5689680  93.7929800 122.3102540   1.7490020
  80.3981770 124.6143020   1.7683000  81.1344250 124.0658480   2.0391570
  80.7822690 125.4799030   1.6288990  79.4040050 123.7989090  10.9568580
  80.2052780 124.1201140  11.3703980  78.8891870 123.4384670  11.6788490
  88.2404680 119.9068960  10.9043990  87.6342840 119.9300560  10.1639740
  87.9358790 119.1752000  11.4411240  89.6705050 123.6349250   9.5153400
  90.6226800 123.5507270   9.4653640  89.5233270 124.2990960  10.1887190
  77.1237860 116.2862550   9.9004630  77.6276880 115.7069830  10.4720860
  76.3845280 116.5702780  10.4381000  84.1775800 117.6933540   9.4340150
  83.4121470 118.2618540   9.3494820  84.3591760 117.4009750   8.5408380
  91.3199150 119.4238870   9.9915170  92.0608620 119.7614630   9.4882630
  90.5571830 119.5930930   9.4384940  79.1560940 114.4292140  10.7954700
  79.1966280 114.1306010  11.7039930  80.0106440 114.8299750  10.6362220
  81.0966750 113.0084240   8.7629190  80.5663210 112.5175190   8.1352530
  81.7654820 113.4368440   8.2287120  89.9944810 117.4753700   8.5270380
  90.4085830 117.6298780   9.3760800  89.0595810 117.6008920   8.6896160
  90.4666980 114.8149860  10.5309530  91.0487750 114.0602180  10.4430010
  90.6428750 115.3457300   9.7541010  81.5839050 109.9746610   8.8426480
  81.4895920 109.3567360   8.1177350  81.0036440 110.7012900   8.6156390
  84.3500490 108.5319850   5.8753870  83.9017790 108.5544110   5.0299420
  83.7165690 108.1338870   6.4724170  84.7560040 117.4274180   6.4966310
  85.1748150 118.2706910   6.3242550  83.8368670 117.5646220   6.2673090
  87.0923940 115.1590360   7.8804150  87.2120150 114.5631500   8.6198990
  87.9517940 115.1960050   7.4605450  89.4311840 115.7127550   6.4566660
  88.9047060 116.2370170   5.8531800  89.7743180 116.3454940   7.0876390
  82.6067460 123.7327190   7.6124040  82.0688550 124.4573250   7.2932740
  82.8601420 123.2557530   6.8221380  83.8592710 111.7011710   9.1379970
  84.4492400 111.3927560   9.8257790  83.0412950 111.2291460   9.2939870
  88.6786140 111.3177520   9.3712990  87.9901660 110.6559060   9.3062980
  89.3992160 110.8715790   9.8161450  85.4629670 124.9678400   7.8710690
  85.3888370 125.8713540   8.1783060  84.5608510 124.6490300   7.8432760
  77.3547170 123.1623580   3.9125940  76.9178160 123.3424380   4.7450090
  77.9224850 123.9198200   3.7707660  92.9909350 122.6640580   8.2003250
  92.3911340 122.7233140   7.4567170  93.1203250 121.7245560   8.3300100
  91.6760990 119.3892560   6.2979410  90.8620830 119.8189720   6.5605200
  92.0835190 120.0010970   5.6848460  78.2247530 116.0596380   4.8118160
  78.5920570 115.9723780   5.6914180  77.6558350 115.2962930   4.7125020
  93.0251390 114.5280760   7.8248630  92.7937480 114.2993510   6.9246580
  93.2855940 115.4480310   7.7793520  77.7763530 112.9705470   8.7176580
  76.8819580 112.9372230   9.0570290  78.3161080 113.1692260   9.4827830
  91.4639460 109.7537190  10.6028330  92.3409640 109.7620590  10.9862330
  91.4760300 109.0168030   9.9920680  93.0892450 113.6906600   5.0135900
  92.1395160 113.6570140   5.1280890  93.2705460 114.6006710   4.7785670
  78.2803240 107.2453800   3.0659800  78.9279430 106.6951180   2.6254960
  78.7005080 107.4996950   3.8875610  92.1755580 107.4395160   6.4229440
  92.8127800 108.0529300   6.7888630  92.3230470 107.4755820   5.4778670
  78.0335240 107.4009470   5.8085120  77.6850060 107.8573290   6.5743300
  77.7022940 106.5066600   5.8907550  79.6399610 120.5729070   9.9738310
  79.5969240 120.2021980  10.8552770  79.7710620 121.5106640  10.1140130
  83.3405640 122.1288660   5.5748030  83.0997000 122.3963220   4.6878550
  84.2808280 122.2994390   5.6298890  85.5460060 108.5921350   9.3304540
  85.4848950 109.1843180  10.0799950  86.4860440 108.4847310   9.1854800
  88.1834620 108.2491410   8.9696830  88.7975030 108.5670700   8.3077910
  88.7284180 107.7640000   9.5892690  94.6009800 124.1483040   6.3758670
  94.1068080 124.5451910   5.6585800  93.9923090 123.5232250   6.7695950
  78.7055880 106.9285670   9.0835890  79.2538870 106.7473720   8.3202000
  78.7711190 106.1379780   9.6192200  79.4787640 123.5191320   7.0936090
  78.8847960 123.3876020   7.8326130  79.4711480 122.6829460   6.6278190
  88.9242660 106.8123550   5.2966120  88.0502500 107.1458660   5.0939050
  88.8153410 106.3396730   6.1217990  89.8314640 109.0194420   6.6807840
  89.5028000 108.2046180   6.3009570  90.7796940 108.9764230   6.5573530
  92.2849250 124.7906460   3.6545410  91.8252220 125.5422270   3.2803430
  91.6561710 124.0712930   3.5960210  79.1099870 120.8849700   6.0444130
  78.3833930 120.2654990   5.9770080  79.1709020 121.2790310   5.1742210
  82.7144970 123.0994700   2.8293540  83.2309990 122.4882060   2.3041800
  83.3642350 123.6023480   3.3204550  85.4540470 123.9903190   3.6562520
  85.7418280 123.7357490   2.7795530  85.9663690 123.4380550   4.2468090
  86.6717480 107.7293390   4.2359030  85.8889270 108.2038890   4.5155790
  86.3780410 106.8248220   4.1272210  91.2238550 108.4316490   2.2808120
  91.6646640 108.3761590   1.4329720  90.9546140 109.3474500   2.3518300
  85.5212830 124.9119290  11.0230720  86.4480140 124.6763560  11.0666680
  85.5063260 125.7391290  10.5416750  82.7076440 107.5764040  10.7872600
  82.4260710 108.0797640  10.0233420  83.0896140 106.7785790  10.4214730
  89.3091900 106.9917620  11.3653070  89.1957350 107.3112230  12.2604590
  90.1261640 107.3930130  11.0690350  92.0890390 124.1389150  10.8471760
  92.8815710 123.6438380  10.6397720  92.3823540 124.8179290  11.4547370
  88.2150050  96.2366600 150.6979220  88.1344100  95.3221210 150.4270930
  87.8014470  96.7333670 149.9918930  86.3468090  98.0145620 152.5788490
  85.5710190  97.5346060 152.8687060  86.9981020  97.3351270 152.4044650
  90.3675520 102.4205810 151.3587620  89.9057050 101.6493050 151.6874790
  91.1801070 102.4471880 151.8640070  78.7725870  93.2867320 147.2406640
  77.8842570  93.6283290 147.1386520  79.0567060  93.0867640 146.3487470
  76.7358880  95.8872970 153.1246340  77.3074990  95.1195170 153.1249980
  76.7360420  96.1861730 152.2152950  86.5938830 104.7063820 150.9791610
  85.9750270 105.1621320 150.4086050  87.4490610 104.8615280 150.5781310
  85.7877080 100.6902810 152.5858650  85.7185360  99.7492750 152.4247780
  86.5496940 100.7804220 153.1581220  86.8182250  93.4973190 152.8127580
  87.1947070  92.6245070 152.7001250  86.7201760  93.8331890 151.9218020
  80.9487260  91.8698820 148.2745020  81.0554010  92.7702550 148.5813780
  80.0379620  91.8216790 147.9839670  90.6006370  90.9923630 149.7455920
  91.4215990  90.5020200 149.7881400  90.6340450  91.5821290 150.4987760
  87.4602180  99.5903060 148.3723520  86.8419450 100.0552510 147.8086240
  87.9725430 100.2830540 148.7893030  90.8367850  92.9324010 152.5183460
  90.1323420  93.2208900 153.0986570  91.1980010  93.7424120 152.1583020
  76.8285380 100.2759590 145.7463150  76.4513360 100.7646690 145.0148050
  77.0858450 100.9484870 146.3769680  84.4374310  88.6775980 151.2048660
  84.7449290  88.1222870 150.4884160  83.5075010  88.8120440 151.0221650
  91.2834790 101.1159490 148.5846290  91.1731120 100.1733820 148.7095710
  91.2803040 101.4775130 149.4709050  86.8255070  96.7424810 147.9408780
  85.8984350  96.6762190 148.1697250  86.9779890  97.6804940 147.8264020
  86.8124150  93.0141810 144.9375940  85.8727820  93.1755770 145.0228400
  87.1307410  93.7327490 144.3911930  90.8552360  98.3045110 148.4444030
  90.2364780  97.9664660 147.7970330  90.8376810  97.6604870 149.1523220
  82.4311710  97.2689550 150.7228510  82.0268710  96.5566800 150.2274410
  82.5174830  96.9242790 151.6116550  82.8993410 100.9557110 152.8867720
  82.6021700 100.3502580 152.2075500  83.8493230 100.9934420 152.7757080
  89.0317060  97.5431920 145.4516780  89.4710340  96.7054350 145.3054600
  89.7445480  98.1761320 145.5380920  87.1412440 102.4827990 149.4198020
  87.5808350 103.2252320 149.0053410  87.0799330 102.7254560 150.3436980
  92.6134200  88.7974730 143.7657820  92.3006860  88.8901560 144.6656890
  93.3746670  89.3755760 143.7155250  79.1316340  96.1634530 148.2235160
  79.0113940  96.8896620 147.6116430  78.8217230  95.3937440 147.7463070
  78.0149340 101.0349860 150.4409980  77.6077420 101.1764450 149.5863580
  78.9062350 100.7510020 150.2381190  89.8082620 105.4697110 146.7761030
  89.6483760 105.1800050 147.6742860  89.6429330 104.6937240 146.2406260
  82.2871000 105.2495640 148.5532650  82.1113480 104.3331180 148.3400450
  81.4326740 105.6082930 148.7930450  89.5108750 102.9784670 145.3359030
  88.8173910 102.9761960 144.6761310  90.2531610 102.5543990 144.9053200
  89.0758680 104.6047380 149.4107520  89.5315630 103.8236760 149.7246140
  89.4151200 105.3154200 149.9548700  81.5980000  89.5069600 151.6058830
  81.1548150  90.2879140 151.2743350  82.1564990  89.8299490 152.3129770
  84.7138820  89.1280300 146.4864660  84.0893000  89.1240170 147.2117970
  84.6268940  88.2611260 146.0900630  81.3894220  94.6303170 149.3340080
  81.1635140  94.4140340 150.2386700  80.6086750  95.0631630 148.9886050
  88.6191980  94.6366540 147.9330730  88.0200870  95.3602340 147.7494350
  89.1671590  94.5743320 147.1507180  87.2256850  93.2730080 149.9634010
  87.6186420  93.5902280 149.1502700  87.5873700  92.3941960 150.0778530
  76.2621020  89.8630880 152.1864210  75.9734070  90.4333740 152.8989190
  77.0066780  89.3835330 152.5495440  76.4491250  93.8051000 143.3966930
  76.3665920  94.7481760 143.5381920  76.0974310  93.6625910 142.5179280
  84.2489380  92.5390030 152.4637280  84.2525440  92.0979980 151.6141820
  85.1440500  92.8607360 152.5709100  80.0991760  92.4216520 151.4231490
  79.7591810  92.8991750 152.1798540  79.3369080  91.9681640 151.0632590
  84.3109530  93.5402110 145.4544040  84.4322350  93.4988590 146.4029860
  83.9258040  94.4026260 145.2990770  83.3231030  95.8503250 144.8527340
  82.7547930  95.4021500 144.2263250  84.0320030  96.2096030 144.3192490
  77.4137840  91.3435500 150.3396160  77.1284760  90.9791170 151.1774780
  77.3516700  90.6115960 149.7259300  80.8678510  99.8461440 147.1253750
  80.0940770  99.3059060 146.9652470  81.5973140  99.3268050 146.7871510
  91.6266490  98.8426800 152.9180140  92.3465610  99.3382090 152.5276250
  91.4248310  98.1644690 152.2734010  87.0876430  90.2364760 147.0609530
  86.2741040  89.7377930 146.9854840  86.8938380  91.0763010 146.6445880
  89.8024820  94.6084410 145.3571690  90.6904440  94.9201640 145.1823030
  89.7729910  93.7356660 144.9652270  80.9115910  99.5141820 150.7632560
  81.4294580  98.7110080 150.7089450  80.4599930  99.4520960 151.6049390
  85.7985410 100.7808100 146.0359860  86.1401110 101.5250330 145.5403180
  84.9698120 101.0939220 146.3984690  92.0739090  95.9196250 144.8251550
  91.9902810  96.3510470 143.9747990  92.7933280  96.3794600 145.2578370
  93.1026340 102.7738510 147.5533680  92.4602500 102.1194130 147.8277400
  92.7157000 103.1793600 146.7774350  88.6812820 100.1023940 151.4005370
  89.0336640  99.5052070 150.7406740  87.7975150  99.7768170 151.5713620
  84.7676100 100.8621630 148.8075780  85.4547230 101.4090840 149.1883370
  83.9808520 101.4062360 148.8425390  76.9068500  96.4794450 144.2992860
  77.7763350  96.7619250 144.5828780  76.4158820  97.2930320 144.1841670
  84.0703310  97.8667660 148.4201140  84.5266090  98.6772910 148.6461330
  83.7191520  97.5490800 149.2519630  79.9715090  88.2105310 148.8923660
  79.8429720  88.2023210 149.8408580  79.1477110  88.5488400 148.5414670
  91.4923720 101.6654970 144.0910030  91.2661300 100.9485410 144.6834670
  91.1019920 101.4167410 143.2531780  77.2739750 105.6921830 144.8654490
  77.6337390 106.2911170 144.2111760  77.1332090 106.2381720 145.6389520
  91.0739970  99.5826910 145.7524190  90.7861670 100.0439600 146.5402070
  91.8692140  99.1224680 146.0208410  83.2908370 103.0753030 145.6828160
  83.2818470 103.8082720 145.0672670  82.3706730 102.8284610 145.7755120
  78.8915010  98.2967920 146.4274920  78.2842960  99.0366820 146.4370220
  79.3664360  98.3867280 145.6013120  91.8309830  91.4175680 146.9119370
  91.2022990  91.5221350 146.1977600  91.3361750  91.6372460 147.7013250
  86.2767970 103.1381270 144.3453350  86.3779950 102.9345260 143.4155330
  85.3769710 102.8839550 144.5501130  83.7993860  93.6961630 148.3277250
  83.0910010  94.1647970 148.7690860  84.0838340  93.0383640 148.9622440
  87.8309290  90.4212290 149.7673040  87.7077070  90.4398420 148.8182550
  88.7793850  90.4691230 149.8871440  84.9186080 105.6567590 149.0401020
  85.1727580 105.6188980 148.1180390  83.9698560 105.5300920 149.0329270
  82.0028880  92.0046710 145.7027960  82.8519410  92.4416860 145.6368150
  81.6360150  92.3166970 146.5300020  90.9238660  96.5759470 150.6159530
  89.9828800  96.5909700 150.7907220  91.2382730  95.7895430 151.0619830
  80.9020300  98.2579070 144.1763490  81.6683570  98.1460430 144.7388920
  80.9794990  97.5617040 143.5240260  79.5967060  95.6904140 144.8596380
  79.6770650  94.7431650 144.9713780  80.4886810  96.0211020 144.9657040
  92.9264240 103.7468320 152.2913790  93.0511660 104.5699490 152.7637600
  93.7929800 103.5359050 151.9437940  80.3981770 105.8399530 151.9630920
  81.1344250 105.2914990 152.2339490  80.7822690 106.7055540 151.8236910
  77.2827250 101.9073100 147.8372430  76.3567030 102.1494240 147.8277840
  77.7483680 102.7347360 147.7157180  83.5084080 105.0129840 143.7856490
  84.3012690 105.3018670 143.3338280  82.9888430 104.5822010 143.1068970
  92.5614250 104.2399970 145.2093230  92.2755760 103.8265110 144.3947410
  92.3633800 105.1687680 145.0893750  84.0261480 100.2333250 143.6498840
  83.9212120  99.6185600 144.3760220  83.8585700  99.7099140 142.8661850
  87.2664210  99.2953280 144.2540830  86.7174310  99.7422580 144.8983570
  87.8883470  98.7902530 144.7778500  82.9339330  98.2544200 146.1506130
  83.3555750  98.0884070 146.9937520  83.0590170  97.4444430 145.6561270
  85.4466970  97.2781810 143.3983230  85.9672630  96.5630830 143.0324380
  86.0935370  97.9167680 143.6983740  81.8298230  94.3277430 143.0964290
  81.6287290  93.4644790 143.4577630  81.6590280  94.2410790 142.1585890
  89.3086540  89.1385660 145.6251170  89.5888830  88.2953560 145.9810590
  88.5352270  89.3708770 146.1389920  80.6281030  91.4278050 143.0842170
  80.9306930  91.4345480 142.1761320  81.3675620  91.0775910 143.5809830
  83.8465960  90.3712670 144.0698370  83.4987960  89.6936660 143.4900820
  84.0478730  89.9102180 144.8841760  86.0115000 105.3593420 145.6884970
  86.9065790 105.6978390 145.7103730  86.0432630 104.6372830 145.0609250
  79.6511160 100.7320470 143.9171970  80.0886030 101.2750140 144.5729550
  80.1358890  99.9067420 143.9268310  76.8656960 103.5209500 151.3692230
  77.1959970 102.6530560 151.1370870  77.2947960 103.7268020 152.1997190
  81.4618880 101.8518510 149.0294200  81.1614420 101.7283480 149.9298110
  81.3556370 100.9927100 148.6209930  94.2310800 101.6314910 143.7320880
  93.4003760 101.6991560 144.2028110  94.4082630 102.5219030 143.4287740
  93.6867260  98.3762390 146.2355080  94.4486170  98.9459040 146.3414770
  93.7021630  97.8089590 147.0063390  77.1871600  96.9000320 150.4662740
  76.5320440  96.6311960 149.8222440  78.0249550  96.7904800 150.0164720
  94.6927230  99.2312490 151.0797010  95.0636060  98.4479810 150.6732980
  95.3329160  99.9201590 150.9014310  93.7386430  98.6696760 143.3927600
  94.0135270  99.5775640 143.2646820  93.5497170  98.6059290 144.3289590
  90.1362040  91.6941610 144.6881230  90.5546920  91.5072590 143.8477890
  89.8298100  90.8420660 144.9984160  93.6351770  96.6065750 148.3857030
  93.2595370  95.8393680 147.9538320  92.9054890  96.9888450 148.8731960
  76.4009680  94.1099250 146.4088070  75.4973760  94.3729450 146.2339730
  76.8850300  94.3810420 145.6288030  92.9102730  94.8323240 151.6864270
  93.4340210  94.3385890 151.0554440  93.4962150  94.9673600 152.4311840
  78.9436890  93.1664790 144.3182450  79.6528590  92.7448010 143.8329730
  78.2276830  93.2340020 143.6865800  78.5911050  89.2204120 143.3585100
  79.3139180  89.7613060 143.6766320  78.8635570  88.9467540 142.4826640
  92.4002700  94.0896590 147.6256680  92.8961820  93.8567460 148.4105560
  92.2018770  93.2508430 147.2094320  93.8289860  92.7257540 150.1594360
  93.7189140  92.5713580 151.0976630  94.5897450  92.1978480 149.9169770
  94.7180130  90.5565460 143.4000500  95.6429440  90.4246640 143.1918790
  94.6955920  90.6358280 144.3536950  94.7918620  91.3276120 146.0257210
  93.9970120  91.2621240 146.5550120  94.9961900  92.2626760 146.0142560
  91.7337040 105.3667670 150.0195600  92.3296110 105.0452240 149.3430020
  91.9915190 104.8939490 150.8108870  91.2238550  89.6573000 152.4756040
  91.6646640  89.6018100 151.6277640  90.9546140  90.5731010 152.5466220
  93.0877120  89.2888240 150.4864860  93.0265520  88.3449460 150.3395880
  93.8669150  89.3968330 151.0318320  77.3929870 105.4280600 149.4488810
  77.2251910 104.7951280 150.1470700  76.5264380 105.6340000 149.0983000
  78.0157890  89.2597380 146.9520670  78.7737250  89.3726260 146.3784700
  77.5535060  90.0966580 146.9064100  84.5571700  91.3736650 149.9422980
  83.7446210  90.9993540 149.6018860  85.0613340  90.6181730 150.2444170
  89.0596680  88.0379100 151.1806050  89.6626050  88.6099310 151.6554570
  88.3189670  88.6018540 150.9579950  92.2031280  88.4400660 146.4546330
  92.3981910  89.3384110 146.7213760  91.4161150  88.2087740 146.9479280
  78.9992570 104.1213830 146.8938950  78.4740190 104.5021860 146.1900910
  78.9237150 104.7464600 147.6148660  80.3883040  89.7861430 145.4922640
  80.9175800  88.9991230 145.3630590  81.0211360  90.4652620 145.7258170
  82.5820880  89.5236570 148.5468030  81.9523620  88.8223880 148.7138160
  82.0426020  90.2840700 148.3301190  93.7557890 105.6801370 148.2152890
  93.9310080 104.9939110 147.5713810  93.0579460 106.2048420 147.8229560
  81.5985540 106.0696210 145.7688200  82.3304360 105.7855490 145.2212090
  81.8579210 105.8309490 146.6587580  80.7600330 102.1860940 145.7734530
  80.1309210 102.6546040 146.3220360  80.8748160 101.3410160 146.2080720
  86.3468090  98.0145620 133.8045000  85.5710190  97.5346060 134.0943570
  86.9981020  97.3351270 133.6301160  90.3675520 102.4205810 132.5844130
  89.9057050 101.6493050 132.9131300  91.1801070 102.4471880 133.0896580
  76.7358880  95.8872970 134.3502850  77.3074990  95.1195170 134.3506490
  76.7360420  96.1861730 133.4409460  86.5938830 104.7063820 132.2048120
  85.9750270 105.1621320 131.6342560  87.4490610 104.8615280 131.8037820
  77.9783750  91.2957330 136.1371780  77.7986590  90.3983080 136.4174540
  77.5763830  91.8429200 136.8118730  90.6006370  90.9923630 130.9712430
  91.4215990  90.5020200 131.0137910  90.6340450  91.5821290 131.7244270
  78.5970420  93.7917830 134.7454120  79.2780530  94.0556200 135.3641520
  78.2818470  92.9518700 135.0792130  82.7894990  94.8385190 133.8326710
  83.2973210  95.3366160 134.4731730  83.3208230  94.0620390 133.6566070
  94.8905920  93.0090380 137.5356060  94.1858090  93.3972090 137.0171170
  95.1563840  93.7040670 138.1376990  81.0731090  89.4783750 138.0990130
  81.0749530  89.9956140 137.2936030  80.2435400  89.0013930 138.0760060
  80.7546420  91.1893710 136.1060580  81.0963230  92.0335760 135.8114450
  79.8162230  91.3377450 136.2225920  81.5353040 101.0859730 138.0912810
  82.1527040 101.7610810 137.8097260  80.6746160 101.4947710 138.0000310
  92.4530630 102.5499140 136.0067450  91.7694150 103.2198250 135.9984120
  92.9924920 102.7479790 135.2412310  93.9054770  92.3778800 134.1349180
  92.9579680  92.4117780 134.2664610  94.2304760  93.1917750 134.5198540
  84.4374310  88.6775980 132.4305170  84.7449290  88.1222870 131.7140670
  83.5075010  88.8120440 132.2478160  89.9889370 104.3943270 134.7212630
  90.0016530 103.9905560 133.8534890  89.4364590 105.1690560 134.6174060
  89.3874810  99.2973110 136.0495240  89.8043600  99.0833220 135.2148700
  90.1114630  99.5545900 136.6203860  86.8124150  93.0141810 126.1632450
  85.8727820  93.1755770 126.2484910  87.1307410  93.7327490 125.6168440
  90.2978920  94.4829650 137.0866350  89.8850100  95.3083360 137.3406340
  89.5654870  93.8974690 136.8942710  81.1440330  94.0432760 135.7284060
  81.6954920  94.1528100 134.9537310  81.6583840  94.4170360 136.4439290
  90.9879020 104.5288980 137.7747330  90.5109580 105.3361170 137.5819940
  90.3040810 103.8767310 137.9273540  81.9911840 100.6938800 140.7632030
  81.0940370 100.9178770 141.0105430  82.0164710 100.8173740 139.8143430
  80.8183060  97.5652120 139.3389400  80.6790830  98.4374920 139.7076800
  79.9364420  97.2224930 139.1937340  82.6163410 103.5073820 141.5474550
  82.5878840 103.9116770 140.6802980  82.4528380 102.5784180 141.3846150
  94.5678230 104.2900920 142.8438720  95.0437950 104.7683810 143.5227800
  95.1885390 104.2218410 142.1184220  93.9711480 101.4813770 140.0038730
  94.0974540 101.2425650 139.0855910  94.0132860 100.6498310 140.4760810
  87.8328220 105.1841770 138.5733540  88.3472890 105.0949780 139.3755970
  86.9897300 105.5301470 138.8661450  82.2871000 105.2495640 129.7789160
  82.1113480 104.3331180 129.5656960  81.4326740 105.6082930 130.0186960
  89.5108750 102.9784670 126.5615540  88.8173910 102.9761960 125.9017820
  90.2531610 102.5543990 126.1309710  89.0758680 104.6047380 130.6364030
  89.5315630 103.8236760 130.9502650  89.4151200 105.3154200 131.1805210
  93.8235490  93.5346230 140.9688470  93.2079760  94.0425900 140.4403930
  93.5031910  92.6344560 140.9114410  76.8261230 100.3763840 137.7954770
  76.9892270  99.9069200 136.9774140  77.2913680  99.8687400 138.4603610
  81.5980000  89.5069600 132.8315340  81.1548150  90.2879140 132.4999860
  82.1564990  89.8299490 133.5386280  85.8849810  92.3738120 138.4350660
  85.4229180  92.5821140 139.2470600  85.4827920  91.5597470 138.1321330
  90.8854320  93.5947070 139.5647320  90.0347910  93.2952820 139.8856390
  90.7256110  93.8389080 138.6531140  87.9804030  95.0948820 141.6646110
  88.3057440  94.2612570 141.3248340  88.7684360  95.6177340 141.8124440
  84.7138820  89.1280300 127.7121170  84.0893000  89.1240170 128.4374480
  84.6268940  88.2611260 127.3157140  83.6355900  90.0516930 134.6904940
  83.9328230  90.9579760 134.6096960  84.1841460  89.5635710 134.0764510
  83.8293430  95.5288750 141.2256860  83.7337030  94.5883480 141.0757260
  84.6725410  95.7503820 140.8304930  78.9603970  91.9402420 139.3790640
  78.5667360  92.7877630 139.5863420  78.2722370  91.3028790 139.5699280
  85.5349020  92.0237390 142.4487380  84.8447340  91.8309590 143.0833470
  86.2781320  92.3072030 142.9811680  76.4491250  93.8051000 124.6223440
  76.3665920  94.7481760 124.7638430  76.0974310  93.6625910 123.7435790
  87.8111990  95.8635830 135.2841300  87.0793110  96.3722640 135.6331400
  87.4136330  95.0465810 134.9830080  84.2489380  92.5390030 133.6893790
  84.2525440  92.0979980 132.8398330  85.1440500  92.8607360 133.7965610
  80.0991760  92.4216520 132.6488000  79.7591810  92.8991750 133.4055050
  79.3369080  91.9681640 132.2889100  88.2737900  91.3169510 134.6964240
  88.2910640  91.7678160 135.5406090  88.0253480  90.4175150 134.9097680
  91.7008650  88.7301690 140.5350620  92.0254420  87.9991350 141.0608600
  91.7365160  88.4115330 139.6331610  78.4000210  99.7515270 139.9550580
  78.0155000  99.1108940 140.5533540  78.7112400 100.4551390 140.5245310
  84.5497350  96.5991810 135.4359200  84.9167480  96.1250380 136.1820540
  84.3602410  97.4733380 135.7767540  77.4137840  91.3435500 131.5652670
  77.1284760  90.9791170 132.4031290  77.3516700  90.6115960 130.9515810
  82.3396720  95.6400450 137.7543410  82.0353790  96.5192430 137.9793770
  83.2943180  95.7000240 137.7900850  87.0876430  90.2364760 128.2866040
  86.2741040  89.7377930 128.2111350  86.8938380  91.0763010 127.8702390
  87.0085290  98.9135860 140.0305650  86.9422600  97.9931530 139.7763240
  86.3790430  99.0111300 140.7450290  85.7985410 100.7808100 127.2616370
  86.1401110 101.5250330 126.7659690  84.9698120 101.0939220 127.6241200
  78.3960450  96.4803190 138.9014770  78.0375390  97.1457040 139.4888110
  78.1015010  95.6486740 139.2727390  81.5973570  96.9387430 141.7854320
  81.2973710  97.0844610 140.8882140  82.3684810  96.3792720 141.6927710
  86.9402020 101.7356430 139.7809450  86.9546560 100.8037390 139.5628360
  86.2327120 101.8216190 140.4199220  93.1513230  98.3763770 139.1278030
  92.4261420  98.9692550 138.9307420  93.6788690  98.3687310 138.3291400
  93.1026340 102.7738510 128.7790190  92.4602500 102.1194130 129.0533910
  92.7157000 103.1793600 128.0030860  86.3735920 103.3774000 136.8749950
  87.0178140 103.5833380 137.5523370  86.7365360 102.6162400 136.4220800
  79.9715090  88.2105310 130.1180170  79.8429720  88.2023210 131.0665090
  79.1477110  88.5488400 129.7671180  87.6468000 101.3806350 135.5927400
  88.2890230 100.6799510 135.7059570  88.1717350 102.1604790 135.4124290
  89.4205620 102.1801250 138.7963460  89.7561860 102.7667940 139.4741380
  88.5005960 102.0493960 139.0261250  76.9709020  89.9696430 139.5786870
  76.2567540  90.1693350 140.1839480  77.3904060  89.1936000 139.9501670
  77.2581610 103.9576690 140.5653400  77.3672730 103.0171430 140.4248790
  76.6062170 104.2231440 139.9167130  85.2494200 102.2292580 141.9651520
  84.9291070 101.5101820 142.5097210  84.5752560 102.9047650 142.0387580
  88.4647800  92.4618740 137.3288320  88.8328620  91.6413950 137.6567890
  87.6046000  92.5220630 137.7443970  86.2767970 103.1381270 125.5709860
  86.3779950 102.9345260 124.6411840  85.3769710 102.8839550 125.7757640
  85.4249790  95.1158330 137.5526290  85.9235040  95.5904150 138.2178140
  85.5672740  94.1921850 137.7596320  87.8309290  90.4212290 130.9929550
  87.7077070  90.4398420 130.0439060  88.7793850  90.4691230 131.1127950
  84.9186080 105.6567590 130.2657530  85.1727580 105.6188980 129.3436900
  83.9698560 105.5300920 130.2585780  92.6316650  91.3326290 138.3954680
  92.1290250  92.0731690 138.7348490  93.4473310  91.7210290 138.0791470
  92.9264240 103.7468320 133.5170300  93.0511660 104.5699490 133.9894110
  93.7929800 103.5359050 133.1694450  80.3981770 105.8399530 133.1887430
  81.1344250 105.2914990 133.4596000  80.7822690 106.7055540 133.0493420
  79.4040050 105.0245600 142.3773010  80.2052780 105.3457650 142.7908410
  78.8891870 104.6641180 143.0992920  88.2404680 101.1325470 142.3248420
  87.6342840 101.1557070 141.5844170  87.9358790 100.4008510 142.8615670
  89.6705050 104.8605760 140.9357830  90.6226800 104.7763780 140.8858070
  89.5233270 105.5247470 141.6091620  77.1237860  97.5119060 141.3209060
  77.6276880  96.9326340 141.8925290  76.3845280  97.7959290 141.8585430
  84.1775800  98.9190050 140.8544580  83.4121470  99.4875050 140.7699250
  84.3591760  98.6266260 139.9612810  87.2664210  99.2953280 125.4797340
  86.7174310  99.7422580 126.1240080  87.8883470  98.7902530 126.0035010
  91.3199150 100.6495380 141.4119600  92.0608620 100.9871140 140.9087060
  90.5571830 100.8187440 140.8589370  79.1560940  95.6548650 142.2159130
  79.1966280  95.3562520 143.1244360  80.0106440  96.0556260 142.0566650
  81.0966750  94.2340750 140.1833620  80.5663210  93.7431700 139.5556960
  81.7654820  94.6624950 139.6491550  89.9944810  98.7010210 139.9474810
  90.4085830  98.8555290 140.7965230  89.0595810  98.8265430 140.1100590
  90.4666980  96.0406370 141.9513960  91.0487750  95.2858690 141.8634440
  90.6428750  96.5713810 141.1745440  81.5839050  91.2003120 140.2630910
  81.4895920  90.5823870 139.5381780  81.0036440  91.9269410 140.0360820
  84.3500490  89.7576360 137.2958300  83.9017790  89.7800620 136.4503850
  83.7165690  89.3595380 137.8928600  84.7560040  98.6530690 137.9170740
  85.1748150  99.4963420 137.7446980  83.8368670  98.7902730 137.6877520
  87.0923940  96.3846870 139.3008580  87.2120150  95.7888010 140.0403420
  87.9517940  96.4216560 138.8809880  89.4311840  96.9384060 137.8771090
  88.9047060  97.4626680 137.2736230  89.7743180  97.5711450 138.5080820
  82.6067460 104.9583700 139.0328470  82.0688550 105.6829760 138.7137170
  82.8601420 104.4814040 138.2425810  83.8592710  92.9268220 140.5584400
  84.4492400  92.6184070 141.2462220  83.0412950  92.4547970 140.7144300
  88.6786140  92.5434030 140.7917420  87.9901660  91.8815570 140.7267410
  89.3992160  92.0972300 141.2365880  85.4629670 106.1934910 139.2915120
  85.3888370 107.0970050 139.5987490  84.5608510 105.8746810 139.2637190
  83.8465960  90.3712670 125.2954880  83.4987960  89.6936660 124.7157330
  84.0478730  89.9102180 126.1098270  86.0115000 105.3593420 126.9141480
  86.9065790 105.6978390 126.9360240  86.0432630 104.6372830 126.2865760
  92.9909350 103.8897090 139.6207680  92.3911340 103.9489650 138.8771600
  93.1203250 102.9502070 139.7504530  77.1871600  96.9000320 131.6919250
  76.5320440  96.6311960 131.0478950  78.0249550  96.7904800 131.2421230
  94.6927230  99.2312490 132.3053520  95.0636060  98.4479810 131.8989490
  95.3329160  99.9201590 132.1270820  91.6760990 100.6149070 137.7183840
  90.8620830 101.0446230 137.9809630  92.0835190 101.2267480 137.1052890
  90.1362040  91.6941610 125.9137740  90.5546920  91.5072590 125.0734400
  89.8298100  90.8420660 126.2240670  78.2247530  97.2852890 136.2322590
  78.5920570  97.1980290 137.1118610  77.6558350  96.5219440 136.1329450
  93.0251390  95.7537270 139.2453060  92.7937480  95.5250020 138.3451010
  93.2855940  96.6736820 139.1997950  77.7763530  94.1961980 140.1381010
  76.8819580  94.1628740 140.4774720  78.3161080  94.3948770 140.9032260
  91.4639460  90.9793700 142.0232760  92.3409640  90.9877100 142.4066760
  91.4760300  90.2424540 141.4125110  76.4009680  94.1099250 127.6344580
  75.4973760  94.3729450 127.4596240  76.8850300  94.3810420 126.8544540
  92.9102730  94.8323240 132.9120780  93.4340210  94.3385890 132.2810950
  93.4962150  94.9673600 133.6568350  93.0892450  94.9163110 136.4340330
  92.1395160  94.8826650 136.5485320  93.2705460  95.8263220 136.1990100
  78.2803240  88.4710310 134.4864230  78.9279430  87.9207690 134.0459390
  78.7005080  88.7253460 135.3080040  93.8289860  92.7257540 131.3850870
  93.7189140  92.5713580 132.3233140  94.5897450  92.1978480 131.1426280
  92.1755580  88.6651670 137.8433870  92.8127800  89.2785810 138.2093060
  92.3230470  88.7012330 136.8983100  94.7180130  90.5565460 124.6257010
  95.6429440  90.4246640 124.4175300  94.6955920  90.6358280 125.5793460
  94.7918620  91.3276120 127.2513720  93.9970120  91.2621240 127.7806630
  94.9961900  92.2626760 127.2399070  78.0335240  88.6265980 137.2289550
  77.6850060  89.0829800 137.9947730  77.7022940  87.7323110 137.3111980
  79.6399610 101.7985580 141.3942740  79.5969240 101.4278490 142.2757200
  79.7710620 102.7363150 141.5344560  85.5460060  89.8177860 140.7508970
  85.4848950  90.4099690 141.5004380  86.4860440  89.7103820 140.6059230
  88.1834620  89.4747920 140.3901260  88.7975030  89.7927210 139.7282340
  88.7284180  88.9896510 141.0097120  94.6009800 105.3739550 137.7963100
  94.1068080 105.7708420 137.0790230  93.9923090 104.7488760 138.1900380
  78.7055880  88.1542180 140.5040320  79.2538870  87.9730230 139.7406430
  78.7711190  87.3636290 141.0396630  79.4787640 104.7447830 138.5140520
  78.8847960 104.6132530 139.2530560  79.4711480 103.9085970 138.0482620
  88.9242660  88.0380060 136.7170550  88.0502500  88.3715170 136.5143480
  88.8153410  87.5653240 137.5422420  89.8314640  90.2450930 138.1012270
  89.5028000  89.4302690 137.7214000  90.7796940  90.2020740 137.9777960
  92.2849250 106.0162970 135.0749840  91.8252220 106.7678780 134.7007860
  91.6561710 105.2969440 135.0164640  79.1099870 102.1106210 137.4648560
  78.3833930 101.4911500 137.3974510  79.1709020 102.5046820 136.5946640
  85.4540470 105.2159700 135.0766950  85.7418280 104.9614000 134.1999960
  85.9663690 104.6637060 135.6672520  86.6717480  88.9549900 135.6563460
  85.8889270  89.4295400 135.9360220  86.3780410  88.0504730 135.5476640
  77.3929870 105.4280600 130.6745320  77.2251910 104.7951280 131.3727210
  76.5264380 105.6340000 130.3239510  84.5571700  91.3736650 131.1679490
  83.7446210  90.9993540 130.8275370  85.0613340  90.6181730 131.4700680
  82.5820880  89.5236570 129.7724540  81.9523620  88.8223880 129.9394670
  82.0426020  90.2840700 129.5557700  85.5212830 106.1375800 142.4435150
  86.4480140 105.9020070 142.4871110  85.5063260 106.9647800 141.9621180
  82.7076440  88.8020550 142.2077030  82.4260710  89.3054150 141.4437850
  83.0896140  88.0042300 141.8419160  89.3091900  88.2174130 142.7857500
  89.1957350  88.5368740 143.6809020  90.1261640  88.6186640 142.4894780
  92.0890390 105.3645660 142.2676190  92.8815710 104.8694890 142.0602150
  92.3823540 106.0435800 142.8751800  88.2150050  96.2366600 113.1492240
  88.1344100  95.3221210 112.8783950  87.8014470  96.7333670 112.4431950
  86.3468090  98.0145620 115.0301510  85.5710190  97.5346060 115.3200080
  86.9981020  97.3351270 114.8557670  80.3633920  98.3265430 115.9077270
  79.5318800  98.0714140 116.3073780  80.9714900  98.3976200 116.6435190
  90.3675520 102.4205810 113.8100640  89.9057050 101.6493050 114.1387810
  91.1801070 102.4471880 114.3153090  80.3435180 102.3605520 116.1035290
  80.6463220 101.4703260 115.9245510  81.0878770 102.9175740 115.8757540
  86.5938830 104.7063820 113.4304630  85.9750270 105.1621320 112.8599070
  87.4490610 104.8615280 113.0294330  85.7877080 100.6902810 115.0371670
  85.7185360  99.7492750 114.8760800  86.5496940 100.7804220 115.6094240
  86.8182250  93.4973190 115.2640600  87.1947070  92.6245070 115.1514270
  86.7201760  93.8331890 114.3731040  80.9487260  91.8698820 110.7258040
  81.0554010  92.7702550 111.0326800  80.0379620  91.8216790 110.4352690
  90.6006370  90.9923630 112.1968940  91.4215990  90.5020200 112.2394420
  90.6340450  91.5821290 112.9500780  82.7894990  94.8385190 115.0583220
  83.2973210  95.3366160 115.6988240  83.3208230  94.0620390 114.8822580
  94.8905920  93.0090380 118.7612570  94.1858090  93.3972090 118.2427680
  95.1563840  93.7040670 119.3633500  87.4602180  99.5903060 110.8236540
  86.8419450 100.0552510 110.2599260  87.9725430 100.2830540 111.2406050
  82.3233940  99.1178930 117.5020140  81.9903320  99.7447850 118.1441210
  82.5000620  99.6440810 116.7221810  90.8367850  92.9324010 114.9696480
  90.1323420  93.2208900 115.5499590  91.1980010  93.7424120 114.6096040
  84.4374310  88.6775980 113.6561680  84.7449290  88.1222870 112.9397180
  83.5075010  88.8120440 113.4734670  89.9889370 104.3943270 115.9469140
  90.0016530 103.9905560 115.0791400  89.4364590 105.1690560 115.8430570
  91.2834790 101.1159490 111.0359310  91.1731120 100.1733820 111.1608730
  91.2803040 101.4775130 111.9222070  89.3874810  99.2973110 117.2751750
  89.8043600  99.0833220 116.4405210  90.1114630  99.5545900 117.8460370
  90.8552360  98.3045110 110.8957050  90.2364780  97.9664660 110.2483350
  90.8376810  97.6604870 111.6036240  90.2978920  94.4829650 118.3122860
  89.8850100  95.3083360 118.5662850  89.5654870  93.8974690 118.1199220
  82.4311710  97.2689550 113.1741530  82.0268710  96.5566800 112.6787430
  82.5174830  96.9242790 114.0629570  82.8993410 100.9557110 115.3380740
  82.6021700 100.3502580 114.6588520  83.8493230 100.9934420 115.2270100
  81.9911840 100.6938800 121.9888540  81.0940370 100.9178770 122.2361940
  82.0164710 100.8173740 121.0399940  87.1412440 102.4827990 111.8711040
  87.5808350 103.2252320 111.4566430  87.0799330 102.7254560 112.7950000
  79.1316340  96.1634530 110.6748180  79.0113940  96.8896620 110.0629450
  78.8217230  95.3937440 110.1976090  76.7701710  99.3349670 116.4816820
  76.8482130  99.4698440 115.5372540  77.3843390  98.6265560 116.6744940
  78.0149340 101.0349860 112.8923000  77.6077420 101.1764450 112.0376600
  78.9062350 100.7510020 112.6894210  89.8082620 105.4697110 109.2274050
  89.6483760 105.1800050 110.1255880  89.6429330 104.6937240 108.6919280
  82.2871000 105.2495640 111.0045670  82.1113480 104.3331180 110.7913470
  81.4326740 105.6082930 111.2443470  89.5108750 102.9784670 107.7872050
  88.8173910 102.9761960 107.1274330  90.2531610 102.5543990 107.3566220
  89.0758680 104.6047380 111.8620540  89.5315630 103.8236760 112.1759160
  89.4151200 105.3154200 112.4061720  93.8235490  93.5346230 122.1944980
  93.2079760  94.0425900 121.6660440  93.5031910  92.6344560 122.1370920
  81.5980000  89.5069600 114.0571850  81.1548150  90.2879140 113.7256370
  82.1564990  89.8299490 114.7642790  84.7138820  89.1280300 108.9377680
  84.0893000  89.1240170 109.6630990  84.6268940  88.2611260 108.5413650
  83.6355900  90.0516930 115.9161450  83.9328230  90.9579760 115.8353470
  84.1841460  89.5635710 115.3021020  81.3894220  94.6303170 111.7853100
  81.1635140  94.4140340 112.6899720  80.6086750  95.0631630 111.4399070
  87.2256850  93.2730080 112.4147030  87.6186420  93.5902280 111.6015720
  87.5873700  92.3941960 112.5291550  76.2621020  89.8630880 114.6377230
  75.9734070  90.4333740 115.3502210  77.0066780  89.3835330 115.0008460
  87.8111990  95.8635830 116.5097810  87.0793110  96.3722640 116.8587910
  87.4136330  95.0465810 116.2086590  84.2489380  92.5390030 114.9150300
  84.2525440  92.0979980 114.0654840  85.1440500  92.8607360 115.0222120
  80.0991760  92.4216520 113.8744510  79.7591810  92.8991750 114.6311560
  79.3369080  91.9681640 113.5145610  88.2737900  91.3169510 115.9220750
  88.2910640  91.7678160 116.7662600  88.0253480  90.4175150 116.1354190
  84.5497350  96.5991810 116.6615710  84.9167480  96.1250380 117.4077050
  84.3602410  97.4733380 117.0024050  77.4137840  91.3435500 112.7909180
  77.1284760  90.9791170 113.6287800  77.3516700  90.6115960 112.1772320
  80.8678510  99.8461440 109.5766770  80.0940770  99.3059060 109.4165490
  81.5973140  99.3268050 109.2384530  91.6266490  98.8426800 115.3693160
  92.3465610  99.3382090 114.9789270  91.4248310  98.1644690 114.7247030
  80.9115910  99.5141820 113.2145580  81.4294580  98.7110080 113.1602470
  80.4599930  99.4520960 114.0562410  85.7985410 100.7808100 108.4872880
  86.1401110 101.5250330 107.9916200  84.9698120 101.0939220 108.8497710
  92.0739090  95.9196250 107.2764570  91.9902810  96.3510470 106.4261010
  92.7933280  96.3794600 107.7091390  93.1026340 102.7738510 110.0046700
  92.4602500 102.1194130 110.2790420  92.7157000 103.1793600 109.2287370
  88.6812820 100.1023940 113.8518390  89.0336640  99.5052070 113.1919760
  87.7975150  99.7768170 114.0226640  84.7676100 100.8621630 111.2588800
  85.4547230 101.4090840 111.6396390  83.9808520 101.4062360 111.2938410
  79.9715090  88.2105310 111.3436680  79.8429720  88.2023210 112.2921600
  79.1477110  88.5488400 110.9927690  87.6468000 101.3806350 116.8183910
  88.2890230 100.6799510 116.9316080  88.1717350 102.1604790 116.6380800
  91.4923720 101.6654970 106.5423050  91.2661300 100.9485410 107.1347690
  91.1019920 101.4167410 105.7044800  91.0739970  99.5826910 108.2037210
  90.7861670 100.0439600 108.9915090  91.8692140  99.1224680 108.4721430
  77.2581610 103.9576690 121.7909910  77.3672730 103.0171430 121.6505300
  76.6062170 104.2231440 121.1423640  85.2494200 102.2292580 123.1908030
  84.9291070 101.5101820 123.7353720  84.5752560 102.9047650 123.2644090
  83.2908370 103.0753030 108.1341180  83.2818470 103.8082720 107.5185690
  82.3706730 102.8284610 108.2268140  78.8915010  98.2967920 108.8787940
  78.2842960  99.0366820 108.8883240  79.3664360  98.3867280 108.0526140
  88.4647800  92.4618740 118.5544830  88.8328620  91.6413950 118.8824400
  87.6046000  92.5220630 118.9700480  86.2767970 103.1381270 106.7966370
  86.3779950 102.9345260 105.8668350  85.3769710 102.8839550 107.0014150
  87.8309290  90.4212290 112.2186060  87.7077070  90.4398420 111.2695570
  88.7793850  90.4691230 112.3384460  84.9186080 105.6567590 111.4914040
  85.1727580 105.6188980 110.5693410  83.9698560 105.5300920 111.4842290
  92.6316650  91.3326290 119.6211190  92.1290250  92.0731690 119.9605000
  93.4473310  91.7210290 119.3047980  90.9238660  96.5759470 113.0672550
  89.9828800  96.5909700 113.2420240  91.2382730  95.7895430 113.5132850
  80.3981770 105.8399530 114.4143940  81.1344250 105.2914990 114.6852510
  80.7822690 106.7055540 114.2749930  77.2827250 101.9073100 110.2885450
  76.3567030 102.1494240 110.2790860  77.7483680 102.7347360 110.1670200
  92.5614250 104.2399970 107.6606250  92.2755760 103.8265110 106.8460430
  92.3633800 105.1687680 107.5406770  84.3500490  89.7576360 118.5214810
  83.9017790  89.7800620 117.6760360  83.7165690  89.3595380 119.1185110
  76.8656960 103.5209500 113.8205250  77.1959970 102.6530560 113.5883890
  77.2947960 103.7268020 114.6510210  81.4618880 101.8518510 111.4807220
  81.1614420 101.7283480 112.3811130  81.3556370 100.9927100 111.0722950
  77.3547170 104.3880090 116.5586880  76.9178160 104.5680890 117.3911030
  77.9224850 105.1454710 116.4168600  94.2310800 101.6314910 106.1833900
  93.4003760 101.6991560 106.6541130  94.4082630 102.5219030 105.8800760
  93.6867260  98.3762390 108.6868100  94.4486170  98.9459040 108.7927790
  93.7021630  97.8089590 109.4576410  77.1871600  96.9000320 112.9175760
  76.5320440  96.6311960 112.2735460  78.0249550  96.7904800 112.4677740
  94.6927230  99.2312490 113.5310030  95.0636060  98.4479810 113.1246000
  95.3329160  99.9201590 113.3527330  93.7386430  98.6696760 105.8440620
  94.0135270  99.5775640 105.7159840  93.5497170  98.6059290 106.7802610
  93.6351770  96.6065750 110.8370050  93.2595370  95.8393680 110.4051340
  92.9054890  96.9888450 111.3244980  91.4639460  90.9793700 123.2489270
  92.3409640  90.9877100 123.6323270  91.4760300  90.2424540 122.6381620
  92.9102730  94.8323240 114.1377290  93.4340210  94.3385890 113.5067460
  93.4962150  94.9673600 114.8824860  78.2803240  88.4710310 115.7120740
  78.9279430  87.9207690 115.2715900  78.7005080  88.7253460 116.5336550
  91.7337040 105.3667670 112.4708620  92.3296110 105.0452240 111.7943040
  91.9915190 104.8939490 113.2621890  79.6399610 101.7985580 122.6199250
  79.5969240 101.4278490 123.5013710  79.7710620 102.7363150 122.7601070
  85.5460060  89.8177860 121.9765480  85.4848950  90.4099690 122.7260890
  86.4860440  89.7103820 121.8315740  82.7144970 104.3251210 115.4754480
  83.2309990 103.7138570 114.9502740  83.3642350 104.8279990 115.9665490
  91.2238550  89.6573000 114.9269060  91.6646640  89.6018100 114.0790660
  90.9546140  90.5731010 114.9979240  93.0877120  89.2888240 112.9377880
  93.0265520  88.3449460 112.7908900  93.8669150  89.3968330 113.4831340
  77.3929870 105.4280600 111.9001830  77.2251910 104.7951280 112.5983720
  76.5264380 105.6340000 111.5496020  84.5571700  91.3736650 112.3936000
  83.7446210  90.9993540 112.0531880  85.0613340  90.6181730 112.6957190
  89.0596680  88.0379100 113.6319070  89.6626050  88.6099310 114.1067590
  88.3189670  88.6018540 113.4092970  82.5820880  89.5236570 110.9981050
  81.9523620  88.8223880 111.1651180  82.0426020  90.2840700 110.7814210
  85.5212830 106.1375800 123.6691660  86.4480140 105.9020070 123.7127620
  85.5063260 106.9647800 123.1877690  93.7557890 105.6801370 110.6665910
  93.9310080 104.9939110 110.0226830  93.0579460 106.2048420 110.2742580
  81.5985540 106.0696210 108.2201220  82.3304360 105.7855490 107.6725110
  81.8579210 105.8309490 109.1100600  80.7600330 102.1860940 108.2247550
  80.1309210 102.6546040 108.7733380  80.8748160 101.3410160 108.6593740
  94.5678230 104.2900920 105.2951740  95.0437950 104.7683810 105.9740820
  95.1885390 104.2218410 104.5697240  88.2404680 101.1325470 104.7761440
  87.6342840 101.1557070 104.0357190  87.9358790 100.4008510 105.3128690
  91.3199150 100.6495380 103.8632620  92.0608620 100.9871140 103.3600080
  90.5571830 100.8187440 103.3102390  91.2834790 101.1159490  73.4872330
  91.1731120 100.1733820  73.6121750  91.2803040 101.4775130  74.3735090
  89.5108750 102.9784670  70.2385070  88.8173910 102.9761960  69.5787350
  90.2531610 102.5543990  69.8079240  93.1026340 102.7738510  72.4559720
  92.4602500 102.1194130  72.7303440  92.7157000 103.1793600  71.6800390
  91.4923720 101.6654970  68.9936070  91.2661300 100.9485410  69.5860710
  91.1019920 101.4167410  68.1557820  92.5614250 104.2399970  70.1119270
  92.2755760 103.8265110  69.2973450  92.3633800 105.1687680  69.9919790
  94.2310800 101.6314910  68.6346920  93.4003760 101.6991560  69.1054150
  94.4082630 102.5219030  68.3313780  93.7557890 105.6801370  73.1178930
  93.9310080 104.9939110  72.4739850  93.0579460 106.2048420  72.7255600
  88.2150050  96.2366600  56.8261770  88.1344100  95.3221210  56.5553480
  87.8014470  96.7333670  56.1201480  86.3468090  98.0145620  58.7071040
  85.5710190  97.5346060  58.9969610  86.9981020  97.3351270  58.5327200
  80.3633920  98.3265430  59.5846800  79.5318800  98.0714140  59.9843310
  80.9714900  98.3976200  60.3204720  90.3675520 102.4205810  57.4870170
  89.9057050 101.6493050  57.8157340  91.1801070 102.4471880  57.9922620
  80.3435180 102.3605520  59.7804820  80.6463220 101.4703260  59.6015040
  81.0878770 102.9175740  59.5527070  86.5938830 104.7063820  57.1074160
  85.9750270 105.1621320  56.5368600  87.4490610 104.8615280  56.7063860
  85.7877080 100.6902810  58.7141200  85.7185360  99.7492750  58.5530330
  86.5496940 100.7804220  59.2863770  86.8182250  93.4973190  58.9410130
  87.1947070  92.6245070  58.8283800  86.7201760  93.8331890  58.0500570
  90.6006370  90.9923630  55.8738470  91.4215990  90.5020200  55.9163950
  90.6340450  91.5821290  56.6270310  87.4602180  99.5903060  54.5006070
  86.8419450 100.0552510  53.9368790  87.9725430 100.2830540  54.9175580
  82.3233940  99.1178930  61.1789670  81.9903320  99.7447850  61.8210740
  82.5000620  99.6440810  60.3991340  90.8367850  92.9324010  58.6466010
  90.1323420  93.2208900  59.2269120  91.1980010  93.7424120  58.2865570
  81.5353040 101.0859730  62.9938850  82.1527040 101.7610810  62.7123300
  80.6746160 101.4947710  62.9026350  76.8285380 100.2759590  51.8745700
  76.4513360 100.7646690  51.1430600  77.0858450 100.9484870  52.5052230
  93.9054770  92.3778800  59.0375220  92.9579680  92.4117780  59.1690650
  94.2304760  93.1917750  59.4224580  89.9889370 104.3943270  59.6238670
  90.0016530 103.9905560  58.7560930  89.4364590 105.1690560  59.5200100
  89.3874810  99.2973110  60.9521280  89.8043600  99.0833220  60.1174740
  90.1114630  99.5545900  61.5229900  86.8255070  96.7424810  54.0691330
  85.8984350  96.6762190  54.2979800  86.9779890  97.6804940  53.9546570
  86.8124150  93.0141810  51.0658490  85.8727820  93.1755770  51.1510950
  87.1307410  93.7327490  50.5194480  93.3336910  97.6960330  61.0437520
  92.5055540  97.7653420  60.5687650  93.9287390  98.2814640  60.5753350
  82.4311710  97.2689550  56.8511060  82.0268710  96.5566800  56.3556960
  82.5174830  96.9242790  57.7399100  82.8993410 100.9557110  59.0150270
  82.6021700 100.3502580  58.3358050  83.8493230 100.9934420  58.9039630
  89.0317060  97.5431920  51.5799330  89.4710340  96.7054350  51.4337150
  89.7445480  98.1761320  51.6663470  92.6134200  88.7974730  49.8940370
  92.3006860  88.8901560  50.7939440  93.3746670  89.3755760  49.8437800
  94.5678230 104.2900920  67.7464760  95.0437950 104.7683810  68.4253840
  95.1885390 104.2218410  67.0210260  76.7701710  99.3349670  60.1586350
  76.8482130  99.4698440  59.2142070  77.3843390  98.6265560  60.3514470
  78.0149340 101.0349860  56.5692530  77.6077420 101.1764450  55.7146130
  78.9062350 100.7510020  56.3663740  93.9711480 101.4813770  64.9064770
  94.0974540 101.2425650  63.9881950  94.0132860 100.6498310  65.3786850
  87.8328220 105.1841770  63.4759580  88.3472890 105.0949780  64.2782010
  86.9897300 105.5301470  63.7687490  82.2871000 105.2495640  54.6815200
  82.1113480 104.3331180  54.4683000  81.4326740 105.6082930  54.9213000
  89.0758680 104.6047380  55.5390070  89.5315630 103.8236760  55.8528690
  89.4151200 105.3154200  56.0831250  81.3894220  94.6303170  55.4622630
  81.1635140  94.4140340  56.3669250  80.6086750  95.0631630  55.1168600
  88.6191980  94.6366540  54.0613280  88.0200870  95.3602340  53.8776900
  89.1671590  94.5743320  53.2789730  87.2256850  93.2730080  56.0916560
  87.6186420  93.5902280  55.2785250  87.5873700  92.3941960  56.2061080
  87.8111990  95.8635830  60.1867340  87.0793110  96.3722640  60.5357440
  87.4136330  95.0465810  59.8856120  84.2489380  92.5390030  58.5919830
  84.2525440  92.0979980  57.7424370  85.1440500  92.8607360  58.6991650
  84.3109530  93.5402110  51.5826590  84.4322350  93.4988590  52.5312410
  83.9258040  94.4026260  51.4273320  88.2737900  91.3169510  59.5990280
  88.2910640  91.7678160  60.4432130  88.0253480  90.4175150  59.8123720
  83.3231030  95.8503250  50.9809890  82.7547930  95.4021500  50.3545800
  84.0320030  96.2096030  50.4475040  84.5497350  96.5991810  60.3385240
  84.9167480  96.1250380  61.0846580  84.3602410  97.4733380  60.6793580
  80.8678510  99.8461440  53.2536300  80.0940770  99.3059060  53.0935020
  81.5973140  99.3268050  52.9154060  91.6266490  98.8426800  59.0462690
  92.3465610  99.3382090  58.6558800  91.4248310  98.1644690  58.4016560
  87.0876430  90.2364760  53.1892080  86.2741040  89.7377930  53.1137390
  86.8938380  91.0763010  52.7728430  89.8024820  94.6084410  51.4854240
  90.6904440  94.9201640  51.3105580  89.7729910  93.7356660  51.0934820
  80.9115910  99.5141820  56.8915110  81.4294580  98.7110080  56.8372000
  80.4599930  99.4520960  57.7331940  85.7985410 100.7808100  52.1642410
  86.1401110 101.5250330  51.6685730  84.9698120 101.0939220  52.5267240
  93.1513230  98.3763770  64.0304070  92.4261420  98.9692550  63.8333460
  93.6788690  98.3687310  63.2317440  88.6812820 100.1023940  57.5287920
  89.0336640  99.5052070  56.8689290  87.7975150  99.7768170  57.6996170
  84.0703310  97.8667660  54.5483690  84.5266090  98.6772910  54.7743880
  83.7191520  97.5490800  55.3802180  86.3735920 103.3774000  61.7775990
  87.0178140 103.5833380  62.4549410  86.7365360 102.6162400  61.3246840
  87.6468000 101.3806350  60.4953440  88.2890230 100.6799510  60.6085610
  88.1717350 102.1604790  60.3150330  89.4205620 102.1801250  63.6989500
  89.7561860 102.7667940  64.3767420  88.5005960 102.0493960  63.9287290
  77.2739750 105.6921830  50.9937040  77.6337390 106.2911170  50.3394310
  77.1332090 106.2381720  51.7672070  78.8915010  98.2967920  52.5557470
  78.2842960  99.0366820  52.5652770  79.3664360  98.3867280  51.7295670
  91.8309830  91.4175680  53.0401920  91.2022990  91.5221350  52.3260150
  91.3361750  91.6372460  53.8295800  86.2767970 103.1381270  50.4735900
  86.3779950 102.9345260  49.5437880  85.3769710 102.8839550  50.6783680
  85.4249790  95.1158330  62.4552330  85.9235040  95.5904150  63.1204180
  85.5672740  94.1921850  62.6622360  87.8309290  90.4212290  55.8955590
  87.7077070  90.4398420  54.9465100  88.7793850  90.4691230  56.0153990
  80.9020300  98.2579070  50.3046040  81.6683570  98.1460430  50.8671470
  80.9794990  97.5617040  49.6522810  80.3981770 105.8399530  58.0913470
  81.1344250 105.2914990  58.3622040  80.7822690 106.7055540  57.9519460
  77.2827250 101.9073100  53.9654980  76.3567030 102.1494240  53.9560390
  77.7483680 102.7347360  53.8439730  79.4040050 105.0245600  67.2799050
  80.2052780 105.3457650  67.6934450  78.8891870 104.6641180  68.0018960
  83.5084080 105.0129840  49.9139040  84.3012690 105.3018670  49.4620830
  82.9888430 104.5822010  49.2351520  89.6705050 104.8605760  65.8383870
  90.6226800 104.7763780  65.7884110  89.5233270 105.5247470  66.5117660
  92.5614250 104.2399970  51.3375780  92.2755760 103.8265110  50.5229960
  92.3633800 105.1687680  51.2176300  84.0261480 100.2333250  49.7781390
  83.9212120  99.6185600  50.5042770  83.8585700  99.7099140  48.9944400
  87.2664210  99.2953280  50.3823380  86.7174310  99.7422580  51.0266120
  87.8883470  98.7902530  50.9061050  91.3199150 100.6495380  66.3145640
  92.0608620 100.9871140  65.8113100  90.5571830 100.8187440  65.7615410
  82.9339330  98.2544200  52.2788680  83.3555750  98.0884070  53.1220070
  83.0590170  97.4444430  51.7843820  85.4466970  97.2781810  49.5265780
  85.9672630  96.5630830  49.1606930  86.0935370  97.9167680  49.8266290
  84.7560040  98.6530690  62.8196780  85.1748150  99.4963420  62.6473020
  83.8368670  98.7902730  62.5903560  81.8298230  94.3277430  49.2246840
  81.6287290  93.4644790  49.5860180  81.6590280  94.2410790  48.2868440
  82.6067460 104.9583700  63.9354510  82.0688550 105.6829760  63.6163210
  82.8601420 104.4814040  63.1451850  89.3086540  89.1385660  51.7533720
  89.5888830  88.2953560  52.1093140  88.5352270  89.3708770  52.2672470
  85.4629670 106.1934910  64.1941160  85.3888370 107.0970050  64.5013530
  84.5608510 105.8746810  64.1663230  79.6511160 100.7320470  50.0454520
  80.0886030 101.2750140  50.7012100  80.1358890  99.9067420  50.0550860
  76.8656960 103.5209500  57.4974780  77.1959970 102.6530560  57.2653420
  77.2947960 103.7268020  58.3279740  81.4618880 101.8518510  55.1576750
  81.1614420 101.7283480  56.0580660  81.3556370 100.9927100  54.7492480
  77.3547170 104.3880090  60.2356410  76.9178160 104.5680890  61.0680560
  77.9224850 105.1454710  60.0938130  94.2310800 101.6314910  49.8603430
  93.4003760 101.6991560  50.3310660  94.4082630 102.5219030  49.5570290
  91.6760990 100.6149070  62.6209880  90.8620830 101.0446230  62.8835670
  92.0835190 101.2267480  62.0078930  93.7386430  98.6696760  49.5210150
  94.0135270  99.5775640  49.3929370  93.5497170  98.6059290  50.4572140
  90.1362040  91.6941610  50.8163780  90.5546920  91.5072590  49.9760440
  89.8298100  90.8420660  51.1266710  93.0892450  94.9163110  61.3366370
  92.1395160  94.8826650  61.4511360  93.2705460  95.8263220  61.1016140
  83.3405640 103.3545170  61.8978500  83.0997000 103.6219730  61.0109020
  84.2808280 103.5250900  61.9529360  79.4787640 104.7447830  63.4166560
  78.8847960 104.6132530  64.1556600  79.4711480 103.9085970  62.9508660
  82.7144970 104.3251210  59.1524010  83.2309990 103.7138570  58.6272270
  83.3642350 104.8279990  59.6435020  85.4540470 105.2159700  59.9792990
  85.7418280 104.9614000  59.1026000  85.9663690 104.6637060  60.5698560
  91.2238550  89.6573000  58.6038590  91.6646640  89.6018100  57.7560190
  90.9546140  90.5731010  58.6748770  93.0877120  89.2888240  56.6147410
  93.0265520  88.3449460  56.4678430  93.8669150  89.3968330  57.1600870
  77.3929870 105.4280600  55.5771360  77.2251910 104.7951280  56.2753250
  76.5264380 105.6340000  55.2265550  89.0596680  88.0379100  57.3088600
  89.6626050  88.6099310  57.7837120  88.3189670  88.6018540  57.0862500
  92.2031280  88.4400660  52.5828880  92.3981910  89.3384110  52.8496310
  91.4161150  88.2087740  53.0761830  78.9992570 104.1213830  53.0221500
  78.4740190 104.5021860  52.3183460  78.9237150 104.7464600  53.7431210
  81.5985540 106.0696210  51.8970750  82.3304360 105.7855490  51.3494640
  81.8579210 105.8309490  52.7870130  80.7600330 102.1860940  51.9017080
  80.1309210 102.6546040  52.4502910  80.8748160 101.3410160  52.3363270
  92.0890390 105.3645660  67.1702230  92.8815710 104.8694890  66.9628190
  92.3823540 106.0435800  67.7777840  88.2150050  96.2366600  38.0518280
  88.1344100  95.3221210  37.7809990  87.8014470  96.7333670  37.3457990
  86.3468090  98.0145620  39.9327550  85.5710190  97.5346060  40.2226120
  86.9981020  97.3351270  39.7583710  80.3633920  98.3265430  40.8103310
  79.5318800  98.0714140  41.2099820  80.9714900  98.3976200  41.5461230
  80.3435180 102.3605520  41.0061330  80.6463220 101.4703260  40.8271550
  81.0878770 102.9175740  40.7783580  78.7725870  93.2867320  34.5945700
  77.8842570  93.6283290  34.4925580  79.0567060  93.0867640  33.7026530
  76.7358880  95.8872970  40.4785400  77.3074990  95.1195170  40.4789040
  76.7360420  96.1861730  39.5692010  86.5938830 104.7063820  38.3330670
  85.9750270 105.1621320  37.7625110  87.4490610 104.8615280  37.9320370
  77.9783750  91.2957330  42.2654330  77.7986590  90.3983080  42.5457090
  77.5763830  91.8429200  42.9401280  86.8182250  93.4973190  40.1666640
  87.1947070  92.6245070  40.0540310  86.7201760  93.8331890  39.2757080
  78.5970420  93.7917830  40.8736670  79.2780530  94.0556200  41.4924070
  78.2818470  92.9518700  41.2074680  81.0731090  89.4783750  44.2272680
  81.0749530  89.9956140  43.4218580  80.2435400  89.0013930  44.2042610
  87.4602180  99.5903060  35.7262580  86.8419450 100.0552510  35.1625300
  87.9725430 100.2830540  36.1432090  82.3233940  99.1178930  42.4046180
  81.9903320  99.7447850  43.0467250  82.5000620  99.6440810  41.6247850
  80.7546420  91.1893710  42.2343130  81.0963230  92.0335760  41.9397000
  79.8162230  91.3377450  42.3508470  81.5353040 101.0859730  44.2195360
  82.1527040 101.7610810  43.9379810  80.6746160 101.4947710  44.1282860
  76.8285380 100.2759590  33.1002210  76.4513360 100.7646690  32.3687110
  77.0858450 100.9484870  33.7308740  91.2834790 101.1159490  35.9385350
  91.1731120 100.1733820  36.0634770  91.2803040 101.4775130  36.8248110
  86.8255070  96.7424810  35.2947840  85.8984350  96.6762190  35.5236310
  86.9779890  97.6804940  35.1803080  90.8552360  98.3045110  35.7983090
  90.2364780  97.9664660  35.1509390  90.8376810  97.6604870  36.5062280
  82.4311710  97.2689550  38.0767570  82.0268710  96.5566800  37.5813470
  82.5174830  96.9242790  38.9655610  82.8993410 100.9557110  40.2406780
  82.6021700 100.3502580  39.5614560  83.8493230 100.9934420  40.1296140
  81.1440330  94.0432760  41.8566610  81.6954920  94.1528100  41.0819860
  81.6583840  94.4170360  42.5721840  81.9911840 100.6938800  46.8914580
  81.0940370 100.9178770  47.1387980  82.0164710 100.8173740  45.9425980
  89.0317060  97.5431920  32.8055840  89.4710340  96.7054350  32.6593660
  89.7445480  98.1761320  32.8919980  80.8183060  97.5652120  45.4671950
  80.6790830  98.4374920  45.8359350  79.9364420  97.2224930  45.3219890
  87.1412440 102.4827990  36.7737080  87.5808350 103.2252320  36.3592470
  87.0799330 102.7254560  37.6976040  82.6163410 103.5073820  47.6757100
  82.5878840 103.9116770  46.8085530  82.4528380 102.5784180  47.5128700
  79.1316340  96.1634530  35.5774220  79.0113940  96.8896620  34.9655490
  78.8217230  95.3937440  35.1002130  76.7701710  99.3349670  41.3842860
  76.8482130  99.4698440  40.4398580  77.3843390  98.6265560  41.5770980
  78.0149340 101.0349860  37.7949040  77.6077420 101.1764450  36.9402640
  78.9062350 100.7510020  37.5920250  87.8328220 105.1841770  44.7016090
  88.3472890 105.0949780  45.5038520  86.9897300 105.5301470  44.9944000
  89.8082620 105.4697110  34.1300090  89.6483760 105.1800050  35.0281920
  89.6429330 104.6937240  33.5945320  89.5108750 102.9784670  32.6898090
  88.8173910 102.9761960  32.0300370  90.2531610 102.5543990  32.2592260
  89.0758680 104.6047380  36.7646580  89.5315630 103.8236760  37.0785200
  89.4151200 105.3154200  37.3087760  76.8261230 100.3763840  43.9237320
  76.9892270  99.9069200  43.1056690  77.2913680  99.8687400  44.5886160
  81.5980000  89.5069600  38.9597890  81.1548150  90.2879140  38.6282410
  82.1564990  89.8299490  39.6668830  84.7138820  89.1280300  33.8403720
  84.0893000  89.1240170  34.5657030  84.6268940  88.2611260  33.4439690
  83.6355900  90.0516930  40.8187490  83.9328230  90.9579760  40.7379510
  84.1841460  89.5635710  40.2047060  88.6191980  94.6366540  35.2869790
  88.0200870  95.3602340  35.1033410  89.1671590  94.5743320  34.5046240
  83.8293430  95.5288750  47.3539410  83.7337030  94.5883480  47.2039810
  84.6725410  95.7503820  46.9587480  85.5349020  92.0237390  48.5769930
  84.8447340  91.8309590  49.2116020  86.2781320  92.3072030  49.1094230
  76.2621020  89.8630880  39.5403270  75.9734070  90.4333740  40.2528250
  77.0066780  89.3835330  39.9034500  76.4491250  93.8051000  30.7505990
  76.3665920  94.7481760  30.8920980  76.0974310  93.6625910  29.8718340
  87.8111990  95.8635830  41.4123850  87.0793110  96.3722640  41.7613950
  87.4136330  95.0465810  41.1112630  80.0991760  92.4216520  38.7770550
  79.7591810  92.8991750  39.5337600  79.3369080  91.9681640  38.4171650
  91.7008650  88.7301690  46.6633170  92.0254420  87.9991350  47.1891150
  91.7365160  88.4115330  45.7614160  78.4000210  99.7515270  46.0833130
  78.0155000  99.1108940  46.6816090  78.7112400 100.4551390  46.6527860
  84.5497350  96.5991810  41.5641750  84.9167480  96.1250380  42.3103090
  84.3602410  97.4733380  41.9050090  77.4137840  91.3435500  37.6935220
  77.1284760  90.9791170  38.5313840  77.3516700  90.6115960  37.0798360
  82.3396720  95.6400450  43.8825960  82.0353790  96.5192430  44.1076320
  83.2943180  95.7000240  43.9183400  80.8678510  99.8461440  34.4792810
  80.0940770  99.3059060  34.3191530  81.5973140  99.3268050  34.1410570
  87.0085290  98.9135860  46.1588200  86.9422600  97.9931530  45.9045790
  86.3790430  99.0111300  46.8732840  89.8024820  94.6084410  32.7110750
  90.6904440  94.9201640  32.5362090  89.7729910  93.7356660  32.3191330
  80.9115910  99.5141820  38.1171620  81.4294580  98.7110080  38.0628510
  80.4599930  99.4520960  38.9588450  85.7985410 100.7808100  33.3898920
  86.1401110 101.5250330  32.8942240  84.9698120 101.0939220  33.7523750
  78.3960450  96.4803190  45.0297320  78.0375390  97.1457040  45.6170660
  78.1015010  95.6486740  45.4009940  81.5973570  96.9387430  47.9136870
  81.2973710  97.0844610  47.0164690  82.3684810  96.3792720  47.8210260
  86.9402020 101.7356430  45.9092000  86.9546560 100.8037390  45.6910910
  86.2327120 101.8216190  46.5481770  92.0739090  95.9196250  32.1790610
  91.9902810  96.3510470  31.3287050  92.7933280  96.3794600  32.6117430
  93.1026340 102.7738510  34.9072740  92.4602500 102.1194130  35.1816460
  92.7157000 103.1793600  34.1313410  84.7676100 100.8621630  36.1614840
  85.4547230 101.4090840  36.5422430  83.9808520 101.4062360  36.1964450
  76.9068500  96.4794450  31.6531920  77.7763350  96.7619250  31.9367840
  76.4158820  97.2930320  31.5380730  84.0703310  97.8667660  35.7740200
  84.5266090  98.6772910  36.0000390  83.7191520  97.5490800  36.6058690
  79.9715090  88.2105310  36.2462720  79.8429720  88.2023210  37.1947640
  79.1477110  88.5488400  35.8953730  91.4923720 101.6654970  31.4449090
  91.2661300 100.9485410  32.0373730  91.1019920 101.4167410  30.6070840
  77.2739750 105.6921830  32.2193550  77.6337390 106.2911170  31.5650820
  77.1332090 106.2381720  32.9928580  91.0739970  99.5826910  33.1063250
  90.7861670 100.0439600  33.8941130  91.8692140  99.1224680  33.3747470
  77.2581610 103.9576690  46.6935950  77.3672730 103.0171430  46.5531340
  76.6062170 104.2231440  46.0449680  85.2494200 102.2292580  48.0934070
  84.9291070 101.5101820  48.6379760  84.5752560 102.9047650  48.1670130
  83.2908370 103.0753030  33.0367220  83.2818470 103.8082720  32.4211730
  82.3706730 102.8284610  33.1294180  78.8915010  98.2967920  33.7813980
  78.2842960  99.0366820  33.7909280  79.3664360  98.3867280  32.9552180
  86.2767970 103.1381270  31.6992410  86.3779950 102.9345260  30.7694390
  85.3769710 102.8839550  31.9040190  77.2827250 101.9073100  35.1911490
  76.3567030 102.1494240  35.1816900  77.7483680 102.7347360  35.0696240
  79.4040050 105.0245600  48.5055560  80.2052780 105.3457650  48.9190960
  78.8891870 104.6641180  49.2275470  83.5084080 105.0129840  31.1395550
  84.3012690 105.3018670  30.6877340  82.9888430 104.5822010  30.4608030
  92.5614250 104.2399970  32.5632290  92.2755760 103.8265110  31.7486470
  92.3633800 105.1687680  32.4432810  77.1237860  97.5119060  47.4491610
  77.6276880  96.9326340  48.0207840  76.3845280  97.7959290  47.9867980
  84.0261480 100.2333250  31.0037900  83.9212120  99.6185600  31.7299280
  83.8585700  99.7099140  30.2200910  84.1775800  98.9190050  46.9827130
  83.4121470  99.4875050  46.8981800  84.3591760  98.6266260  46.0895360
  87.2664210  99.2953280  31.6079890  86.7174310  99.7422580  32.2522630
  87.8883470  98.7902530  32.1317560  81.0966750  94.2340750  46.3116170
  80.5663210  93.7431700  45.6839510  81.7654820  94.6624950  45.7774100
  85.4466970  97.2781810  30.7522290  85.9672630  96.5630830  30.3863440
  86.0935370  97.9167680  31.0522800  81.5839050  91.2003120  46.3913460
  81.4895920  90.5823870  45.6664330  81.0036440  91.9269410  46.1643370
  84.3500490  89.7576360  43.4240850  83.9017790  89.7800620  42.5786400
  83.7165690  89.3595380  44.0211150  84.7560040  98.6530690  44.0453290
  85.1748150  99.4963420  43.8729530  83.8368670  98.7902730  43.8160070
  89.4311840  96.9384060  44.0053640  88.9047060  97.4626680  43.4018780
  89.7743180  97.5711450  44.6363370  82.6067460 104.9583700  45.1611020
  82.0688550 105.6829760  44.8419720  82.8601420 104.4814040  44.3708360
  83.8592710  92.9268220  46.6866950  84.4492400  92.6184070  47.3744770
  83.0412950  92.4547970  46.8426850  85.4629670 106.1934910  45.4197670
  85.3888370 107.0970050  45.7270040  84.5608510 105.8746810  45.3919740
  79.6511160 100.7320470  31.2711030  80.0886030 101.2750140  31.9268610
  80.1358890  99.9067420  31.2807370  76.8656960 103.5209500  38.7231290
  77.1959970 102.6530560  38.4909930  77.2947960 103.7268020  39.5536250
  81.4618880 101.8518510  36.3833260  81.1614420 101.7283480  37.2837170
  81.3556370 100.9927100  35.9748990  77.3547170 104.3880090  41.4612920
  76.9178160 104.5680890  42.2937070  77.9224850 105.1454710  41.3194640
  94.2310800 101.6314910  31.0859940  93.4003760 101.6991560  31.5567170
  94.4082630 102.5219030  30.7826800  93.6867260  98.3762390  33.5894140
  94.4486170  98.9459040  33.6953830  93.7021630  97.8089590  34.3602450
  77.1871600  96.9000320  37.8201800  76.5320440  96.6311960  37.1761500
  78.0249550  96.7904800  37.3703780  93.7386430  98.6696760  30.7466660
  94.0135270  99.5775640  30.6185880  93.5497170  98.6059290  31.6828650
  93.6351770  96.6065750  35.7396090  93.2595370  95.8393680  35.3077380
  92.9054890  96.9888450  36.2271020  78.2247530  97.2852890  42.3605140
  78.5920570  97.1980290  43.2401160  77.6558350  96.5219440  42.2612000
  76.4009680  94.1099250  33.7627130  75.4973760  94.3729450  33.5878790
  76.8850300  94.3810420  32.9827090  92.9102730  94.8323240  39.0403330
  93.4340210  94.3385890  38.4093500  93.4962150  94.9673600  39.7850900
  78.2803240  88.4710310  40.6146780  78.9279430  87.9207690  40.1741940
  78.7005080  88.7253460  41.4362590  93.8289860  92.7257540  37.5133420
  93.7189140  92.5713580  38.4515690  94.5897450  92.1978480  37.2708830
  94.7180130  90.5565460  30.7539560  95.6429440  90.4246640  30.5457850
  94.6955920  90.6358280  31.7076010  78.0335240  88.6265980  43.3572100
  77.6850060  89.0829800  44.1230280  77.7022940  87.7323110  43.4394530
  79.6399610 101.7985580  47.5225290  79.5969240 101.4278490  48.4039750
  79.7710620 102.7363150  47.6627110  83.3405640 103.3545170  43.1235010
  83.0997000 103.6219730  42.2365530  84.2808280 103.5250900  43.1785870
  85.5460060  89.8177860  46.8791520  85.4848950  90.4099690  47.6286930
  86.4860440  89.7103820  46.7341780  79.4787640 104.7447830  44.6423070
  78.8847960 104.6132530  45.3813110  79.4711480 103.9085970  44.1765170
  88.9242660  88.0380060  42.8453100  88.0502500  88.3715170  42.6426030
  88.8153410  87.5653240  43.6704970  79.1099870 102.1106210  43.5931110
  78.3833930 101.4911500  43.5257060  79.1709020 102.5046820  42.7229190
  85.4540470 105.2159700  41.2049500  85.7418280 104.9614000  40.3282510
  85.9663690 104.6637060  41.7955070  86.6717480  88.9549900  41.7846010
  85.8889270  89.4295400  42.0642770  86.3780410  88.0504730  41.6759190
  91.2238550  89.6573000  39.8295100  91.6646640  89.6018100  38.9816700
  90.9546140  90.5731010  39.9005280  93.0877120  89.2888240  37.8403920
  93.0265520  88.3449460  37.6934940  93.8669150  89.3968330  38.3857380
  78.9992570 104.1213830  34.2478010  78.4740190 104.5021860  33.5439970
  78.9237150 104.7464600  34.9687720  82.5820880  89.5236570  35.9007090
  81.9523620  88.8223880  36.0677220  82.0426020  90.2840700  35.6840250
  85.5212830 106.1375800  48.5717700  86.4480140 105.9020070  48.6153660
  85.5063260 106.9647800  48.0903730  93.7557890 105.6801370  35.5691950
  93.9310080 104.9939110  34.9252870  93.0579460 106.2048420  35.1768620
  81.5985540 106.0696210  33.1227260  82.3304360 105.7855490  32.5751150
  81.8579210 105.8309490  34.0126640  80.7600330 102.1860940  33.1273590
  80.1309210 102.6546040  33.6759420  80.8748160 101.3410160  33.5619780
  89.3091900  88.2174130  48.9140050  89.1957350  88.5368740  49.8091570
  90.1261640  88.6186640  48.6177330  80.3435180 102.3605520  22.2317840
  80.6463220 101.4703260  22.0528060  81.0878770 102.9175740  22.0040090
  86.5938830 104.7063820  19.5587180  85.9750270 105.1621320  18.9881620
  87.4490610 104.8615280  19.1576880  77.9783750  91.2957330  23.4910840
  77.7986590  90.3983080  23.7713600  77.5763830  91.8429200  24.1657790
  86.8182250  93.4973190  21.3923150  87.1947070  92.6245070  21.2796820
  86.7201760  93.8331890  20.5013590  78.5970420  93.7917830  22.0993180
  79.2780530  94.0556200  22.7180580  78.2818470  92.9518700  22.4331190
  94.8905920  93.0090380  24.8895120  94.1858090  93.3972090  24.3710230
  95.1563840  93.7040670  25.4916050  90.8367850  92.9324010  21.0979030
  90.1323420  93.2208900  21.6782140  91.1980010  93.7424120  20.7378590
  76.8285380 100.2759590  14.3258720  76.4513360 100.7646690  13.5943620
  77.0858450 100.9484870  14.9565250  93.9054770  92.3778800  21.4888240
  92.9579680  92.4117780  21.6203670  94.2304760  93.1917750  21.8737600
  84.4374310  88.6775980  19.7844230  84.7449290  88.1222870  19.0679730
  83.5075010  88.8120440  19.6017220  86.8124150  93.0141810  13.5171510
  85.8727820  93.1755770  13.6023970  87.1307410  93.7327490  12.9707500
  90.2978920  94.4829650  24.4405410  89.8850100  95.3083360  24.6945400
  89.5654870  93.8974690  24.2481770  82.8993410 100.9557110  21.4663290
  82.6021700 100.3502580  20.7871070  83.8493230 100.9934420  21.3552650
  81.1440330  94.0432760  23.0823120  81.6954920  94.1528100  22.3076370
  81.6583840  94.4170360  23.7978350  81.9911840 100.6938800  28.1171090
  81.0940370 100.9178770  28.3644490  82.0164710 100.8173740  27.1682490
  89.0317060  97.5431920  14.0312350  89.4710340  96.7054350  13.8850170
  89.7445480  98.1761320  14.1176490  82.6163410 103.5073820  28.9013610
  82.5878840 103.9116770  28.0342040  82.4528380 102.5784180  28.7385210
  94.5678230 104.2900920  30.1977780  95.0437950 104.7683810  30.8766860
  95.1885390 104.2218410  29.4723280  89.8082620 105.4697110  15.3556600
  89.6483760 105.1800050  16.2538430  89.6429330 104.6937240  14.8201830
  82.2871000 105.2495640  17.1328220  82.1113480 104.3331180  16.9196020
  81.4326740 105.6082930  17.3726020  89.5108750 102.9784670  13.9154600
  88.8173910 102.9761960  13.2556880  90.2531610 102.5543990  13.4848770
  89.0758680 104.6047380  17.9903090  89.5315630 103.8236760  18.3041710
  89.4151200 105.3154200  18.5344270  93.8235490  93.5346230  28.3227530
  93.2079760  94.0425900  27.7942990  93.5031910  92.6344560  28.2653470
  76.8261230 100.3763840  25.1493830  76.9892270  99.9069200  24.3313200
  77.2913680  99.8687400  25.8142670  81.5980000  89.5069600  20.1854400
  81.1548150  90.2879140  19.8538920  82.1564990  89.8299490  20.8925340
  84.7138820  89.1280300  15.0660230  84.0893000  89.1240170  15.7913540
  84.6268940  88.2611260  14.6696200  83.6355900  90.0516930  22.0444000
  83.9328230  90.9579760  21.9636020  84.1841460  89.5635710  21.4303570
  76.4491250  93.8051000  11.9762500  76.3665920  94.7481760  12.1177490
  76.0974310  93.6625910  11.0974850  87.8111990  95.8635830  22.6380360
  87.0793110  96.3722640  22.9870460  87.4136330  95.0465810  22.3369140
  84.2489380  92.5390030  21.0432850  84.2525440  92.0979980  20.1937390
  85.1440500  92.8607360  21.1504670  80.0991760  92.4216520  20.0027060
  79.7591810  92.8991750  20.7594110  79.3369080  91.9681640  19.6428160
  84.3109530  93.5402110  14.0339610  84.4322350  93.4988590  14.9825430
  83.9258040  94.4026260  13.8786340  88.2737900  91.3169510  22.0503300
  88.2910640  91.7678160  22.8945150  88.0253480  90.4175150  22.2636740
  83.3231030  95.8503250  13.4322910  82.7547930  95.4021500  12.8058820
  84.0320030  96.2096030  12.8988060  91.7008650  88.7301690  27.8889680
  92.0254420  87.9991350  28.4147660  91.7365160  88.4115330  26.9870670
  78.4000210  99.7515270  27.3089640  78.0155000  99.1108940  27.9072600
  78.7112400 100.4551390  27.8784370  84.5497350  96.5991810  22.7898260
  84.9167480  96.1250380  23.5359600  84.3602410  97.4733380  23.1306600
  80.8678510  99.8461440  15.7049320  80.0940770  99.3059060  15.5448040
  81.5973140  99.3268050  15.3667080  87.0085290  98.9135860  27.3844710
  86.9422600  97.9931530  27.1302300  86.3790430  99.0111300  28.0989350
  85.7985410 100.7808100  14.6155430  86.1401110 101.5250330  14.1198750
  84.9698120 101.0939220  14.9780260  78.3960450  96.4803190  26.2553830
  78.0375390  97.1457040  26.8427170  78.1015010  95.6486740  26.6266450
  86.9402020 101.7356430  27.1348510  86.9546560 100.8037390  26.9167420
  86.2327120 101.8216190  27.7738280  92.0739090  95.9196250  13.4047120
  91.9902810  96.3510470  12.5543560  92.7933280  96.3794600  13.8373940
  93.1026340 102.7738510  16.1329250  92.4602500 102.1194130  16.4072970
  92.7157000 103.1793600  15.3569920  84.7676100 100.8621630  17.3871350
  85.4547230 101.4090840  17.7678940  83.9808520 101.4062360  17.4220960
  76.9068500  96.4794450  12.8788430  77.7763350  96.7619250  13.1624350
  76.4158820  97.2930320  12.7637240  84.0703310  97.8667660  16.9996710
  84.5266090  98.6772910  17.2256900  83.7191520  97.5490800  17.8315200
  86.3735920 103.3774000  24.2289010  87.0178140 103.5833380  24.9062430
  86.7365360 102.6162400  23.7759860  91.4923720 101.6654970  12.6705600
  91.2661300 100.9485410  13.2630240  91.1019920 101.4167410  11.8327350
  77.2739750 105.6921830  13.4450060  77.6337390 106.2911170  12.7907330
  77.1332090 106.2381720  14.2185090  76.9709020  89.9696430  26.9325930
  76.2567540  90.1693350  27.5378540  77.3904060  89.1936000  27.3040730
  91.0739970  99.5826910  14.3319760  90.7861670 100.0439600  15.1197640
  91.8692140  99.1224680  14.6003980  77.2581610 103.9576690  27.9192460
  77.3672730 103.0171430  27.7787850  76.6062170 104.2231440  27.2706190
  85.2494200 102.2292580  29.3190580  84.9291070 101.5101820  29.8636270
  84.5752560 102.9047650  29.3926640  83.2908370 103.0753030  14.2623730
  83.2818470 103.8082720  13.6468240  82.3706730 102.8284610  14.3550690
  78.8915010  98.2967920  15.0070490  78.2842960  99.0366820  15.0165790
  79.3664360  98.3867280  14.1808690  88.4647800  92.4618740  24.6827380
  88.8328620  91.6413950  25.0106950  87.6046000  92.5220630  25.0983030
  86.2767970 103.1381270  12.9248920  86.3779950 102.9345260  11.9950900
  85.3769710 102.8839550  13.1296700  83.7993860  93.6961630  16.9072820
  83.0910010  94.1647970  17.3486430  84.0838340  93.0383640  17.5418010
  84.9186080 105.6567590  17.6196590  85.1727580 105.6188980  16.6975960
  83.9698560 105.5300920  17.6124840  92.6316650  91.3326290  25.7493740
  92.1290250  92.0731690  26.0887550  93.4473310  91.7210290  25.4330530
  80.9020300  98.2579070  12.7559060  81.6683570  98.1460430  13.3184490
  80.9794990  97.5617040  12.1035830  79.5967060  95.6904140  13.4391950
  79.6770650  94.7431650  13.5509350  80.4886810  96.0211020  13.5452610
  80.3981770 105.8399530  20.5426490  81.1344250 105.2914990  20.8135060
  80.7822690 106.7055540  20.4032480  79.4040050 105.0245600  29.7312070
  80.2052780 105.3457650  30.1447470  78.8891870 104.6641180  30.4531980
  83.5084080 105.0129840  12.3652060  84.3012690 105.3018670  11.9133850
  82.9888430 104.5822010  11.6864540  88.2404680 101.1325470  29.6787480
  87.6342840 101.1557070  28.9383230  87.9358790 100.4008510  30.2154730
  92.5614250 104.2399970  13.7888800  92.2755760 103.8265110  12.9742980
  92.3633800 105.1687680  13.6689320  77.1237860  97.5119060  28.6748120
  77.6276880  96.9326340  29.2464350  76.3845280  97.7959290  29.2124490
  84.0261480 100.2333250  12.2294410  83.9212120  99.6185600  12.9555790
  83.8585700  99.7099140  11.4457420  84.1775800  98.9190050  28.2083640
  83.4121470  99.4875050  28.1238310  84.3591760  98.6266260  27.3151870
  87.2664210  99.2953280  12.8336400  86.7174310  99.7422580  13.4779140
  87.8883470  98.7902530  13.3574070  79.1560940  95.6548650  29.5698190
  79.1966280  95.3562520  30.4783420  80.0106440  96.0556260  29.4105710
  82.9339330  98.2544200  14.7301700  83.3555750  98.0884070  15.5733090
  83.0590170  97.4444430  14.2356840  85.4466970  97.2781810  11.9778800
  85.9672630  96.5630830  11.6119950  86.0935370  97.9167680  12.2779310
  89.4311840  96.9384060  25.2310150  88.9047060  97.4626680  24.6275290
  89.7743180  97.5711450  25.8619880  81.8298230  94.3277430  11.6759860
  81.6287290  93.4644790  12.0373200  81.6590280  94.2410790  10.7381460
  82.6067460 104.9583700  26.3867530  82.0688550 105.6829760  26.0676230
  82.8601420 104.4814040  25.5964870  80.6281030  91.4278050  11.6637740
  80.9306930  91.4345480  10.7556890  81.3675620  91.0775910  12.1605400
  83.8465960  90.3712670  12.6493940  83.4987960  89.6936660  12.0696390
  84.0478730  89.9102180  13.4637330  86.0115000 105.3593420  14.2680540
  86.9065790 105.6978390  14.2899300  86.0432630 104.6372830  13.6404820
  79.6511160 100.7320470  12.4967540  80.0886030 101.2750140  13.1525120
  80.1358890  99.9067420  12.5063880  76.8656960 103.5209500  19.9487800
  77.1959970 102.6530560  19.7166440  77.2947960 103.7268020  20.7792760
  77.3547170 104.3880090  22.6869430  76.9178160 104.5680890  23.5193580
  77.9224850 105.1454710  22.5451150  94.2310800 101.6314910  12.3116450
  93.4003760 101.6991560  12.7823680  94.4082630 102.5219030  12.0083310
  93.6867260  98.3762390  14.8150650  94.4486170  98.9459040  14.9210340
  93.7021630  97.8089590  15.5858960  93.7386430  98.6696760  11.9723170
  94.0135270  99.5775640  11.8442390  93.5497170  98.6059290  12.9085160
  93.6351770  96.6065750  16.9652600  93.2595370  95.8393680  16.5333890
  92.9054890  96.9888450  17.4527530  93.0251390  95.7537270  26.5992120
  92.7937480  95.5250020  25.6990070  93.2855940  96.6736820  26.5537010
  77.7763530  94.1961980  27.4920070  76.8819580  94.1628740  27.8313780
  78.3161080  94.3948770  28.2571320  91.4639460  90.9793700  29.3771820
  92.3409640  90.9877100  29.7605820  91.4760300  90.2424540  28.7664170
  92.9102730  94.8323240  20.2659840  93.4340210  94.3385890  19.6350010
  93.4962150  94.9673600  21.0107410  93.0892450  94.9163110  23.7879390
  92.1395160  94.8826650  23.9024380  93.2705460  95.8263220  23.5529160
  78.2803240  88.4710310  21.8403290  78.9279430  87.9207690  21.3998450
  78.7005080  88.7253460  22.6619100  92.1755580  88.6651670  25.1972930
  92.8127800  89.2785810  25.5632120  92.3230470  88.7012330  24.2522160
  91.7337040 105.3667670  18.5991170  92.3296110 105.0452240  17.9225590
  91.9915190 104.8939490  19.3904440  78.0335240  88.6265980  24.5828610
  77.6850060  89.0829800  25.3486790  77.7022940  87.7323110  24.6651040
  79.6399610 101.7985580  28.7481800  79.5969240 101.4278490  29.6296260
  79.7710620 102.7363150  28.8883620  88.1834620  89.4747920  27.7440320
  88.7975030  89.7927210  27.0821400  88.7284180  88.9896510  28.3636180
  78.7055880  88.1542180  27.8579380  79.2538870  87.9730230  27.0945490
  78.7711190  87.3636290  28.3935690  79.4787640 104.7447830  25.8679580
  78.8847960 104.6132530  26.6069620  79.4711480 103.9085970  25.4021680
  88.9242660  88.0380060  24.0709610  88.0502500  88.3715170  23.8682540
  88.8153410  87.5653240  24.8961480  89.8314640  90.2450930  25.4551330
  89.5028000  89.4302690  25.0753060  90.7796940  90.2020740  25.3317020
  79.1099870 102.1106210  24.8187620  78.3833930 101.4911500  24.7513570
  79.1709020 102.5046820  23.9485700  82.7144970 104.3251210  21.6037030
  83.2309990 103.7138570  21.0785290  83.3642350 104.8279990  22.0948040
  85.4540470 105.2159700  22.4306010  85.7418280 104.9614000  21.5539020
  85.9663690 104.6637060  23.0211580  86.6717480  88.9549900  23.0102520
  85.8889270  89.4295400  23.2899280  86.3780410  88.0504730  22.9015700
  91.2238550  89.6573000  21.0551610  91.6646640  89.6018100  20.2073210
  90.9546140  90.5731010  21.1261790  77.3929870 105.4280600  18.0284380
  77.2251910 104.7951280  18.7266270  76.5264380 105.6340000  17.6778570
  84.5571700  91.3736650  18.5218550  83.7446210  90.9993540  18.1814430
  85.0613340  90.6181730  18.8239740  89.0596680  88.0379100  19.7601620
  89.6626050  88.6099310  20.2350140  88.3189670  88.6018540  19.5375520
  78.9992570 104.1213830  15.4734520  78.4740190 104.5021860  14.7696480
  78.9237150 104.7464600  16.1944230  82.5820880  89.5236570  17.1263600
  81.9523620  88.8223880  17.2933730  82.0426020  90.2840700  16.9096760
  93.7557890 105.6801370  16.7948460  93.9310080 104.9939110  16.1509380
  93.0579460 106.2048420  16.4025130  81.5985540 106.0696210  14.3483770
  82.3304360 105.7855490  13.8007660  81.8579210 105.8309490  15.2383150
  80.7600330 102.1860940  14.3530100  80.1309210 102.6546040  14.9015930
  80.8748160 101.3410160  14.7876290  86.3468090  98.0145620   2.3840570
  85.5710190  97.5346060   2.6739140  86.9981020  97.3351270   2.2096730
  80.3633920  98.3265430   3.2616330  79.5318800  98.0714140   3.6612840
  80.9714900  98.3976200   3.9974250  80.3435180 102.3605520   3.4574350
  80.6463220 101.4703260   3.2784570  81.0878770 102.9175740   3.2296600
  76.7358880  95.8872970   2.9298420  77.3074990  95.1195170   2.9302060
  76.7360420  96.1861730   2.0205030  85.7877080 100.6902810   2.3910730
  85.7185360  99.7492750   2.2299860  86.5496940 100.7804220   2.9633300
  77.9783750  91.2957330   4.7167350  77.7986590  90.3983080   4.9970110
  77.5763830  91.8429200   5.3914300  86.8182250  93.4973190   2.6179660
  87.1947070  92.6245070   2.5053330  86.7201760  93.8331890   1.7270100
  78.5970420  93.7917830   3.3249690  79.2780530  94.0556200   3.9437090
  78.2818470  92.9518700   3.6587700  82.7894990  94.8385190   2.4122280
  83.2973210  95.3366160   3.0527300  83.3208230  94.0620390   2.2361640
  94.8905920  93.0090380   6.1151630  94.1858090  93.3972090   5.5966740
  95.1563840  93.7040670   6.7172560  81.0731090  89.4783750   6.6785700
  81.0749530  89.9956140   5.8731600  80.2435400  89.0013930   6.6555630
  82.3233940  99.1178930   4.8559200  81.9903320  99.7447850   5.4980270
  82.5000620  99.6440810   4.0760870  90.8367850  92.9324010   2.3235540
  90.1323420  93.2208900   2.9038650  91.1980010  93.7424120   1.9635100
  80.7546420  91.1893710   4.6856150  81.0963230  92.0335760   4.3910020
  79.8162230  91.3377450   4.8021490  81.5353040 101.0859730   6.6708380
  82.1527040 101.7610810   6.3892830  80.6746160 101.4947710   6.5795880
  92.4530630 102.5499140   4.5863020  91.7694150 103.2198250   4.5779690
  92.9924920 102.7479790   3.8207880  93.9054770  92.3778800   2.7144750
  92.9579680  92.4117780   2.8460180  94.2304760  93.1917750   3.0994110
  89.9889370 104.3943270   3.3008200  90.0016530 103.9905560   2.4330460
  89.4364590 105.1690560   3.1969630  89.3874810  99.2973110   4.6290810
  89.8043600  99.0833220   3.7944270  90.1114630  99.5545900   5.1999430
  93.3336910  97.6960330   4.7207050  92.5055540  97.7653420   4.2457180
  93.9287390  98.2814640   4.2522880  90.2978920  94.4829650   5.6661920
  89.8850100  95.3083360   5.9201910  89.5654870  93.8974690   5.4738280
  82.8993410 100.9557110   2.6919800  82.6021700 100.3502580   2.0127580
  83.8493230 100.9934420   2.5809160  81.1440330  94.0432760   4.3079630
  81.6954920  94.1528100   3.5332880  81.6583840  94.4170360   5.0234860
  90.9879020 104.5288980   6.3542900  90.5109580 105.3361170   6.1615510
  90.3040810 103.8767310   6.5069110  81.9911840 100.6938800   9.3427600
  81.0940370 100.9178770   9.5901000  82.0164710 100.8173740   8.3939000
  80.8183060  97.5652120   7.9184970  80.6790830  98.4374920   8.2872370
  79.9364420  97.2224930   7.7732910  82.6163410 103.5073820  10.1270120
  82.5878840 103.9116770   9.2598550  82.4528380 102.5784180   9.9641720
  94.5678230 104.2900920  11.4234290  95.0437950 104.7683810  12.1023370
  95.1885390 104.2218410  10.6979790  76.7701710  99.3349670   3.8355880
  76.8482130  99.4698440   2.8911600  77.3843390  98.6265560   4.0284000
  93.9711480 101.4813770   8.5834300  94.0974540 101.2425650   7.6651480
  94.0132860 100.6498310   9.0556380  87.8328220 105.1841770   7.1529110
  88.3472890 105.0949780   7.9551540  86.9897300 105.5301470   7.4457020
  93.8235490  93.5346230   9.5484040  93.2079760  94.0425900   9.0199500
  93.5031910  92.6344560   9.4909980  76.8261230 100.3763840   6.3750340
  76.9892270  99.9069200   5.5569710  77.2913680  99.8687400   7.0399180
  85.8849810  92.3738120   7.0146230  85.4229180  92.5821140   7.8266170
  85.4827920  91.5597470   6.7116900  90.8854320  93.5947070   8.1442890
  90.0347910  93.2952820   8.4651960  90.7256110  93.8389080   7.2326710
  87.9804030  95.0948820  10.2441680  88.3057440  94.2612570   9.9043910
  88.7684360  95.6177340  10.3920010  83.6355900  90.0516930   3.2700510
  83.9328230  90.9579760   3.1892530  84.1841460  89.5635710   2.6560080
  83.8293430  95.5288750   9.8052430  83.7337030  94.5883480   9.6552830
  84.6725410  95.7503820   9.4100500  78.9603970  91.9402420   7.9586210
  78.5667360  92.7877630   8.1658990  78.2722370  91.3028790   8.1494850
  85.5349020  92.0237390  11.0282950  84.8447340  91.8309590  11.6629040
  86.2781320  92.3072030  11.5607250  76.2621020  89.8630880   1.9916290
  75.9734070  90.4333740   2.7041270  77.0066780  89.3835330   2.3547520
  87.8111990  95.8635830   3.8636870  87.0793110  96.3722640   4.2126970
  87.4136330  95.0465810   3.5625650  84.2489380  92.5390030   2.2689360
  84.2525440  92.0979980   1.4193900  85.1440500  92.8607360   2.3761180
  88.2737900  91.3169510   3.2759810  88.2910640  91.7678160   4.1201660
  88.0253480  90.4175150   3.4893250  91.7008650  88.7301690   9.1146190
  92.0254420  87.9991350   9.6404170  91.7365160  88.4115330   8.2127180
  78.4000210  99.7515270   8.5346150  78.0155000  99.1108940   9.1329110
  78.7112400 100.4551390   9.1040880  84.5497350  96.5991810   4.0154770
  84.9167480  96.1250380   4.7616110  84.3602410  97.4733380   4.3563110
  82.3396720  95.6400450   6.3338980  82.0353790  96.5192430   6.5589340
  83.2943180  95.7000240   6.3696420  91.6266490  98.8426800   2.7232220
  92.3465610  99.3382090   2.3328330  91.4248310  98.1644690   2.0786090
  87.0085290  98.9135860   8.6101220  86.9422600  97.9931530   8.3558810
  86.3790430  99.0111300   9.3245860  78.3960450  96.4803190   7.4810340
  78.0375390  97.1457040   8.0683680  78.1015010  95.6486740   7.8522960
  81.5973570  96.9387430  10.3649890  81.2973710  97.0844610   9.4677710
  82.3684810  96.3792720  10.2723280  86.9402020 101.7356430   8.3605020
  86.9546560 100.8037390   8.1423930  86.2327120 101.8216190   8.9994790
  93.1513230  98.3763770   7.7073600  92.4261420  98.9692550   7.5102990
  93.6788690  98.3687310   6.9086970  86.3735920 103.3774000   5.4545520
  87.0178140 103.5833380   6.1318940  86.7365360 102.6162400   5.0016370
  87.6468000 101.3806350   4.1722970  88.2890230 100.6799510   4.2855140
  88.1717350 102.1604790   3.9919860  89.4205620 102.1801250   7.3759030
  89.7561860 102.7667940   8.0536950  88.5005960 102.0493960   7.6056820
  76.9709020  89.9696430   8.1582440  76.2567540  90.1693350   8.7635050
  77.3904060  89.1936000   8.5297240  77.2581610 103.9576690   9.1448970
  77.3672730 103.0171430   9.0044360  76.6062170 104.2231440   8.4962700
  85.2494200 102.2292580  10.5447090  84.9291070 101.5101820  11.0892780
  84.5752560 102.9047650  10.6183150  88.4647800  92.4618740   5.9083890
  88.8328620  91.6413950   6.2363460  87.6046000  92.5220630   6.3239540
  85.4249790  95.1158330   6.1321860  85.9235040  95.5904150   6.7973710
  85.5672740  94.1921850   6.3391890  92.6316650  91.3326290   6.9750250
  92.1290250  92.0731690   7.3144060  93.4473310  91.7210290   6.6587040
  92.9264240 103.7468320   2.0965870  93.0511660 104.5699490   2.5689680
  93.7929800 103.5359050   1.7490020  80.3981770 105.8399530   1.7683000
  81.1344250 105.2914990   2.0391570  80.7822690 106.7055540   1.6288990
  79.4040050 105.0245600  10.9568580  80.2052780 105.3457650  11.3703980
  78.8891870 104.6641180  11.6788490  88.2404680 101.1325470  10.9043990
  87.6342840 101.1557070  10.1639740  87.9358790 100.4008510  11.4411240
  89.6705050 104.8605760   9.5153400  90.6226800 104.7763780   9.4653640
  89.5233270 105.5247470  10.1887190  77.1237860  97.5119060   9.9004630
  77.6276880  96.9326340  10.4720860  76.3845280  97.7959290  10.4381000
  84.1775800  98.9190050   9.4340150  83.4121470  99.4875050   9.3494820
  84.3591760  98.6266260   8.5408380  91.3199150 100.6495380   9.9915170
  92.0608620 100.9871140   9.4882630  90.5571830 100.8187440   9.4384940
  79.1560940  95.6548650  10.7954700  79.1966280  95.3562520  11.7039930
  80.0106440  96.0556260  10.6362220  81.0966750  94.2340750   8.7629190
  80.5663210  93.7431700   8.1352530  81.7654820  94.6624950   8.2287120
  89.9944810  98.7010210   8.5270380  90.4085830  98.8555290   9.3760800
  89.0595810  98.8265430   8.6896160  90.4666980  96.0406370  10.5309530
  91.0487750  95.2858690  10.4430010  90.6428750  96.5713810   9.7541010
  81.5839050  91.2003120   8.8426480  81.4895920  90.5823870   8.1177350
  81.0036440  91.9269410   8.6156390  84.3500490  89.7576360   5.8753870
  83.9017790  89.7800620   5.0299420  83.7165690  89.3595380   6.4724170
  84.7560040  98.6530690   6.4966310  85.1748150  99.4963420   6.3242550
  83.8368670  98.7902730   6.2673090  87.0923940  96.3846870   7.8804150
  87.2120150  95.7888010   8.6198990  87.9517940  96.4216560   7.4605450
  89.4311840  96.9384060   6.4566660  88.9047060  97.4626680   5.8531800
  89.7743180  97.5711450   7.0876390  82.6067460 104.9583700   7.6124040
  82.0688550 105.6829760   7.2932740  82.8601420 104.4814040   6.8221380
  83.8592710  92.9268220   9.1379970  84.4492400  92.6184070   9.8257790
  83.0412950  92.4547970   9.2939870  88.6786140  92.5434030   9.3712990
  87.9901660  91.8815570   9.3062980  89.3992160  92.0972300   9.8161450
  85.4629670 106.1934910   7.8710690  85.3888370 107.0970050   8.1783060
  84.5608510 105.8746810   7.8432760  77.3547170 104.3880090   3.9125940
  76.9178160 104.5680890   4.7450090  77.9224850 105.1454710   3.7707660
  92.9909350 103.8897090   8.2003250  92.3911340 103.9489650   7.4567170
  93.1203250 102.9502070   8.3300100  91.6760990 100.6149070   6.2979410
  90.8620830 101.0446230   6.5605200  92.0835190 101.2267480   5.6848460
  78.2247530  97.2852890   4.8118160  78.5920570  97.1980290   5.6914180
  77.6558350  96.5219440   4.7125020  93.0251390  95.7537270   7.8248630
  92.7937480  95.5250020   6.9246580  93.2855940  96.6736820   7.7793520
  77.7763530  94.1961980   8.7176580  76.8819580  94.1628740   9.0570290
  78.3161080  94.3948770   9.4827830  93.0892450  94.9163110   5.0135900
  92.1395160  94.8826650   5.1280890  93.2705460  95.8263220   4.7785670
  78.2803240  88.4710310   3.0659800  78.9279430  87.9207690   2.6254960
  78.7005080  88.7253460   3.8875610  92.1755580  88.6651670   6.4229440
  92.8127800  89.2785810   6.7888630  92.3230470  88.7012330   5.4778670
  78.0335240  88.6265980   5.8085120  77.6850060  89.0829800   6.5743300
  77.7022940  87.7323110   5.8907550  79.6399610 101.7985580   9.9738310
  79.5969240 101.4278490  10.8552770  79.7710620 102.7363150  10.1140130
  83.3405640 103.3545170   5.5748030  83.0997000 103.6219730   4.6878550
  84.2808280 103.5250900   5.6298890  85.5460060  89.8177860   9.3304540
  85.4848950  90.4099690  10.0799950  86.4860440  89.7103820   9.1854800
  88.1834620  89.4747920   8.9696830  88.7975030  89.7927210   8.3077910
  88.7284180  88.9896510   9.5892690  94.6009800 105.3739550   6.3758670
  94.1068080 105.7708420   5.6585800  93.9923090 104.7488760   6.7695950
  78.7055880  88.1542180   9.0835890  79.2538870  87.9730230   8.3202000
  78.7711190  87.3636290   9.6192200  79.4787640 104.7447830   7.0936090
  78.8847960 104.6132530   7.8326130  79.4711480 103.9085970   6.6278190
  88.9242660  88.0380060   5.2966120  88.0502500  88.3715170   5.0939050
  88.8153410  87.5653240   6.1217990  89.8314640  90.2450930   6.6807840
  89.5028000  89.4302690   6.3009570  90.7796940  90.2020740   6.5573530
  92.2849250 106.0162970   3.6545410  91.8252220 106.7678780   3.2803430
  91.6561710 105.2969440   3.5960210  79.1099870 102.1106210   6.0444130
  78.3833930 101.4911500   5.9770080  79.1709020 102.5046820   5.1742210
  82.7144970 104.3251210   2.8293540  83.2309990 103.7138570   2.3041800
  83.3642350 104.8279990   3.3204550  85.4540470 105.2159700   3.6562520
  85.7418280 104.9614000   2.7795530  85.9663690 104.6637060   4.2468090
  86.6717480  88.9549900   4.2359030  85.8889270  89.4295400   4.5155790
  86.3780410  88.0504730   4.1272210  91.2238550  89.6573000   2.2808120
  91.6646640  89.6018100   1.4329720  90.9546140  90.5731010   2.3518300
  85.5212830 106.1375800  11.0230720  86.4480140 105.9020070  11.0666680
  85.5063260 106.9647800  10.5416750  82.7076440  88.8020550  10.7872600
  82.4260710  89.3054150  10.0233420  83.0896140  88.0042300  10.4214730
  89.3091900  88.2174130  11.3653070  89.1957350  88.5368740  12.2604590
  90.1261640  88.6186640  11.0690350  92.0890390 105.3645660  10.8471760
  92.8815710 104.8694890  10.6397720  92.3823540 106.0435800  11.4547370
  88.2150050  77.4623110 150.6979220  88.1344100  76.5477720 150.4270930
  87.8014470  77.9590180 149.9918930  86.3468090  79.2402130 152.5788490
  85.5710190  78.7602570 152.8687060  86.9981020  78.5607780 152.4044650
  90.3675520  83.6462320 151.3587620  89.9057050  82.8749560 151.6874790
  91.1801070  83.6728390 151.8640070  78.7725870  74.5123830 147.2406640
  77.8842570  74.8539800 147.1386520  79.0567060  74.3124150 146.3487470
  76.7358880  77.1129480 153.1246340  77.3074990  76.3451680 153.1249980
  76.7360420  77.4118240 152.2152950  86.5938830  85.9320330 150.9791610
  85.9750270  86.3877830 150.4086050  87.4490610  86.0871790 150.5781310
  85.7877080  81.9159320 152.5858650  85.7185360  80.9749260 152.4247780
  86.5496940  82.0060730 153.1581220  86.8182250  74.7229700 152.8127580
  87.1947070  73.8501580 152.7001250  86.7201760  75.0588400 151.9218020
  80.9487260  73.0955330 148.2745020  81.0554010  73.9959060 148.5813780
  80.0379620  73.0473300 147.9839670  90.6006370  72.2180140 149.7455920
  91.4215990  71.7276710 149.7881400  90.6340450  72.8077800 150.4987760
  87.4602180  80.8159570 148.3723520  86.8419450  81.2809020 147.8086240
  87.9725430  81.5087050 148.7893030  90.8367850  74.1580520 152.5183460
  90.1323420  74.4465410 153.0986570  91.1980010  74.9680630 152.1583020
  76.8285380  81.5016100 145.7463150  76.4513360  81.9903200 145.0148050
  77.0858450  82.1741380 146.3769680  84.4374310  69.9032490 151.2048660
  84.7449290  69.3479380 150.4884160  83.5075010  70.0376950 151.0221650
  91.2834790  82.3416000 148.5846290  91.1731120  81.3990330 148.7095710
  91.2803040  82.7031640 149.4709050  86.8255070  77.9681320 147.9408780
  85.8984350  77.9018700 148.1697250  86.9779890  78.9061450 147.8264020
  86.8124150  74.2398320 144.9375940  85.8727820  74.4012280 145.0228400
  87.1307410  74.9584000 144.3911930  90.8552360  79.5301620 148.4444030
  90.2364780  79.1921170 147.7970330  90.8376810  78.8861380 149.1523220
  82.4311710  78.4946060 150.7228510  82.0268710  77.7823310 150.2274410
  82.5174830  78.1499300 151.6116550  82.8993410  82.1813620 152.8867720
  82.6021700  81.5759090 152.2075500  83.8493230  82.2190930 152.7757080
  89.0317060  78.7688430 145.4516780  89.4710340  77.9310860 145.3054600
  89.7445480  79.4017830 145.5380920  87.1412440  83.7084500 149.4198020
  87.5808350  84.4508830 149.0053410  87.0799330  83.9511070 150.3436980
  92.6134200  70.0231240 143.7657820  92.3006860  70.1158070 144.6656890
  93.3746670  70.6012270 143.7155250  79.1316340  77.3891040 148.2235160
  79.0113940  78.1153130 147.6116430  78.8217230  76.6193950 147.7463070
  78.0149340  82.2606370 150.4409980  77.6077420  82.4020960 149.5863580
  78.9062350  81.9766530 150.2381190  89.8082620  86.6953620 146.7761030
  89.6483760  86.4056560 147.6742860  89.6429330  85.9193750 146.2406260
  82.2871000  86.4752150 148.5532650  82.1113480  85.5587690 148.3400450
  81.4326740  86.8339440 148.7930450  89.5108750  84.2041180 145.3359030
  88.8173910  84.2018470 144.6761310  90.2531610  83.7800500 144.9053200
  89.0758680  85.8303890 149.4107520  89.5315630  85.0493270 149.7246140
  89.4151200  86.5410710 149.9548700  81.5980000  70.7326110 151.6058830
  81.1548150  71.5135650 151.2743350  82.1564990  71.0556000 152.3129770
  84.7138820  70.3536810 146.4864660  84.0893000  70.3496680 147.2117970
  84.6268940  69.4867770 146.0900630  81.3894220  75.8559680 149.3340080
  81.1635140  75.6396850 150.2386700  80.6086750  76.2888140 148.9886050
  88.6191980  75.8623050 147.9330730  88.0200870  76.5858850 147.7494350
  89.1671590  75.7999830 147.1507180  87.2256850  74.4986590 149.9634010
  87.6186420  74.8158790 149.1502700  87.5873700  73.6198470 150.0778530
  76.2621020  71.0887390 152.1864210  75.9734070  71.6590250 152.8989190
  77.0066780  70.6091840 152.5495440  76.4491250  75.0307510 143.3966930
  76.3665920  75.9738270 143.5381920  76.0974310  74.8882420 142.5179280
  84.2489380  73.7646540 152.4637280  84.2525440  73.3236490 151.6141820
  85.1440500  74.0863870 152.5709100  80.0991760  73.6473030 151.4231490
  79.7591810  74.1248260 152.1798540  79.3369080  73.1938150 151.0632590
  84.3109530  74.7658620 145.4544040  84.4322350  74.7245100 146.4029860
  83.9258040  75.6282770 145.2990770  83.3231030  77.0759760 144.8527340
  82.7547930  76.6278010 144.2263250  84.0320030  77.4352540 144.3192490
  77.4137840  72.5692010 150.3396160  77.1284760  72.2047680 151.1774780
  77.3516700  71.8372470 149.7259300  80.8678510  81.0717950 147.1253750
  80.0940770  80.5315570 146.9652470  81.5973140  80.5524560 146.7871510
  91.6266490  80.0683310 152.9180140  92.3465610  80.5638600 152.5276250
  91.4248310  79.3901200 152.2734010  87.0876430  71.4621270 147.0609530
  86.2741040  70.9634440 146.9854840  86.8938380  72.3019520 146.6445880
  89.8024820  75.8340920 145.3571690  90.6904440  76.1458150 145.1823030
  89.7729910  74.9613170 144.9652270  80.9115910  80.7398330 150.7632560
  81.4294580  79.9366590 150.7089450  80.4599930  80.6777470 151.6049390
  85.7985410  82.0064610 146.0359860  86.1401110  82.7506840 145.5403180
  84.9698120  82.3195730 146.3984690  92.0739090  77.1452760 144.8251550
  91.9902810  77.5766980 143.9747990  92.7933280  77.6051110 145.2578370
  93.1026340  83.9995020 147.5533680  92.4602500  83.3450640 147.8277400
  92.7157000  84.4050110 146.7774350  88.6812820  81.3280450 151.4005370
  89.0336640  80.7308580 150.7406740  87.7975150  81.0024680 151.5713620
  84.7676100  82.0878140 148.8075780  85.4547230  82.6347350 149.1883370
  83.9808520  82.6318870 148.8425390  76.9068500  77.7050960 144.2992860
  77.7763350  77.9875760 144.5828780  76.4158820  78.5186830 144.1841670
  84.0703310  79.0924170 148.4201140  84.5266090  79.9029420 148.6461330
  83.7191520  78.7747310 149.2519630  79.9715090  69.4361820 148.8923660
  79.8429720  69.4279720 149.8408580  79.1477110  69.7744910 148.5414670
  91.4923720  82.8911480 144.0910030  91.2661300  82.1741920 144.6834670
  91.1019920  82.6423920 143.2531780  77.2739750  86.9178340 144.8654490
  77.6337390  87.5167680 144.2111760  77.1332090  87.4638230 145.6389520
  91.0739970  80.8083420 145.7524190  90.7861670  81.2696110 146.5402070
  91.8692140  80.3481190 146.0208410  83.2908370  84.3009540 145.6828160
  83.2818470  85.0339230 145.0672670  82.3706730  84.0541120 145.7755120
  78.8915010  79.5224430 146.4274920  78.2842960  80.2623330 146.4370220
  79.3664360  79.6123790 145.6013120  91.8309830  72.6432190 146.9119370
  91.2022990  72.7477860 146.1977600  91.3361750  72.8628970 147.7013250
  86.2767970  84.3637780 144.3453350  86.3779950  84.1601770 143.4155330
  85.3769710  84.1096060 144.5501130  83.7993860  74.9218140 148.3277250
  83.0910010  75.3904480 148.7690860  84.0838340  74.2640150 148.9622440
  87.8309290  71.6468800 149.7673040  87.7077070  71.6654930 148.8182550
  88.7793850  71.6947740 149.8871440  84.9186080  86.8824100 149.0401020
  85.1727580  86.8445490 148.1180390  83.9698560  86.7557430 149.0329270
  82.0028880  73.2303220 145.7027960  82.8519410  73.6673370 145.6368150
  81.6360150  73.5423480 146.5300020  90.9238660  77.8015980 150.6159530
  89.9828800  77.8166210 150.7907220  91.2382730  77.0151940 151.0619830
  80.9020300  79.4835580 144.1763490  81.6683570  79.3716940 144.7388920
  80.9794990  78.7873550 143.5240260  79.5967060  76.9160650 144.8596380
  79.6770650  75.9688160 144.9713780  80.4886810  77.2467530 144.9657040
  92.9264240  84.9724830 152.2913790  93.0511660  85.7956000 152.7637600
  93.7929800  84.7615560 151.9437940  80.3981770  87.0656040 151.9630920
  81.1344250  86.5171500 152.2339490  80.7822690  87.9312050 151.8236910
  77.2827250  83.1329610 147.8372430  76.3567030  83.3750750 147.8277840
  77.7483680  83.9603870 147.7157180  83.5084080  86.2386350 143.7856490
  84.3012690  86.5275180 143.3338280  82.9888430  85.8078520 143.1068970
  92.5614250  85.4656480 145.2093230  92.2755760  85.0521620 144.3947410
  92.3633800  86.3944190 145.0893750  84.0261480  81.4589760 143.6498840
  83.9212120  80.8442110 144.3760220  83.8585700  80.9355650 142.8661850
  87.2664210  80.5209790 144.2540830  86.7174310  80.9679090 144.8983570
  87.8883470  80.0159040 144.7778500  82.9339330  79.4800710 146.1506130
  83.3555750  79.3140580 146.9937520  83.0590170  78.6700940 145.6561270
  85.4466970  78.5038320 143.3983230  85.9672630  77.7887340 143.0324380
  86.0935370  79.1424190 143.6983740  81.8298230  75.5533940 143.0964290
  81.6287290  74.6901300 143.4577630  81.6590280  75.4667300 142.1585890
  89.3086540  70.3642170 145.6251170  89.5888830  69.5210070 145.9810590
  88.5352270  70.5965280 146.1389920  80.6281030  72.6534560 143.0842170
  80.9306930  72.6601990 142.1761320  81.3675620  72.3032420 143.5809830
  83.8465960  71.5969180 144.0698370  83.4987960  70.9193170 143.4900820
  84.0478730  71.1358690 144.8841760  86.0115000  86.5849930 145.6884970
  86.9065790  86.9234900 145.7103730  86.0432630  85.8629340 145.0609250
  76.8656960  84.7466010 151.3692230  77.1959970  83.8787070 151.1370870
  77.2947960  84.9524530 152.1997190  81.4618880  83.0775020 149.0294200
  81.1614420  82.9539990 149.9298110  81.3556370  82.2183610 148.6209930
  94.2310800  82.8571420 143.7320880  93.4003760  82.9248070 144.2028110
  94.4082630  83.7475540 143.4287740  93.6867260  79.6018900 146.2355080
  94.4486170  80.1715550 146.3414770  93.7021630  79.0346100 147.0063390
  77.1871600  78.1256830 150.4662740  76.5320440  77.8568470 149.8222440
  78.0249550  78.0161310 150.0164720  94.6927230  80.4569000 151.0797010
  95.0636060  79.6736320 150.6732980  95.3329160  81.1458100 150.9014310
  93.7386430  79.8953270 143.3927600  94.0135270  80.8032150 143.2646820
  93.5497170  79.8315800 144.3289590  90.1362040  72.9198120 144.6881230
  90.5546920  72.7329100 143.8477890  89.8298100  72.0677170 144.9984160
  93.6351770  77.8322260 148.3857030  93.2595370  77.0650190 147.9538320
  92.9054890  78.2144960 148.8731960  76.4009680  75.3355760 146.4088070
  75.4973760  75.5985960 146.2339730  76.8850300  75.6066930 145.6288030
  92.9102730  76.0579750 151.6864270  93.4340210  75.5642400 151.0554440
  93.4962150  76.1930110 152.4311840  78.9436890  74.3921300 144.3182450
  79.6528590  73.9704520 143.8329730  78.2276830  74.4596530 143.6865800
  78.5911050  70.4460630 143.3585100  79.3139180  70.9869570 143.6766320
  78.8635570  70.1724050 142.4826640  92.4002700  75.3153100 147.6256680
  92.8961820  75.0823970 148.4105560  92.2018770  74.4764940 147.2094320
  93.8289860  73.9514050 150.1594360  93.7189140  73.7970090 151.0976630
  94.5897450  73.4234990 149.9169770  94.7180130  71.7821970 143.4000500
  95.6429440  71.6503150 143.1918790  94.6955920  71.8614790 144.3536950
  94.7918620  72.5532630 146.0257210  93.9970120  72.4877750 146.5550120
  94.9961900  73.4883270 146.0142560  91.7337040  86.5924180 150.0195600
  92.3296110  86.2708750 149.3430020  91.9915190  86.1196000 150.8108870
  91.2238550  70.8829510 152.4756040  91.6646640  70.8274610 151.6277640
  90.9546140  71.7987520 152.5466220  93.0877120  70.5144750 150.4864860
  93.0265520  69.5705970 150.3395880  93.8669150  70.6224840 151.0318320
  77.3929870  86.6537110 149.4488810  77.2251910  86.0207790 150.1470700
  76.5264380  86.8596510 149.0983000  78.0157890  70.4853890 146.9520670
  78.7737250  70.5982770 146.3784700  77.5535060  71.3223090 146.9064100
  84.5571700  72.5993160 149.9422980  83.7446210  72.2250050 149.6018860
  85.0613340  71.8438240 150.2444170  89.0596680  69.2635610 151.1806050
  89.6626050  69.8355820 151.6554570  88.3189670  69.8275050 150.9579950
  92.2031280  69.6657170 146.4546330  92.3981910  70.5640620 146.7213760
  91.4161150  69.4344250 146.9479280  78.9992570  85.3470340 146.8938950
  78.4740190  85.7278370 146.1900910  78.9237150  85.9721110 147.6148660
  80.3883040  71.0117940 145.4922640  80.9175800  70.2247740 145.3630590
  81.0211360  71.6909130 145.7258170  82.5820880  70.7493080 148.5468030
  81.9523620  70.0480390 148.7138160  82.0426020  71.5097210 148.3301190
  93.7557890  86.9057880 148.2152890  93.9310080  86.2195620 147.5713810
  93.0579460  87.4304930 147.8229560  81.5985540  87.2952720 145.7688200
  82.3304360  87.0112000 145.2212090  81.8579210  87.0566000 146.6587580
  80.7600330  83.4117450 145.7734530  80.1309210  83.8802550 146.3220360
  80.8748160  82.5666670 146.2080720  88.2150050  77.4623110 131.9235730
  88.1344100  76.5477720 131.6527440  87.8014470  77.9590180 131.2175440
  90.3675520  83.6462320 132.5844130  89.9057050  82.8749560 132.9131300
  91.1801070  83.6728390 133.0896580  80.3435180  83.5862030 134.8778780
  80.6463220  82.6959770 134.6989000  81.0878770  84.1432250 134.6501030
  78.7725870  74.5123830 128.4663150  77.8842570  74.8539800 128.3643030
  79.0567060  74.3124150 127.5743980  86.5938830  85.9320330 132.2048120
  85.9750270  86.3877830 131.6342560  87.4490610  86.0871790 131.8037820
  86.8182250  74.7229700 134.0384090  87.1947070  73.8501580 133.9257760
  86.7201760  75.0588400 133.1474530  80.9487260  73.0955330 129.5001530
  81.0554010  73.9959060 129.8070290  80.0379620  73.0473300 129.2096180
  90.6006370  72.2180140 130.9712430  91.4215990  71.7276710 131.0137910
  90.6340450  72.8077800 131.7244270  94.8905920  74.2346890 137.5356060
  94.1858090  74.6228600 137.0171170  95.1563840  74.9297180 138.1376990
  81.0731090  70.7040260 138.0990130  81.0749530  71.2212650 137.2936030
  80.2435400  70.2270440 138.0760060  87.4602180  80.8159570 129.5980030
  86.8419450  81.2809020 129.0342750  87.9725430  81.5087050 130.0149540
  90.8367850  74.1580520 133.7439970  90.1323420  74.4465410 134.3243080
  91.1980010  74.9680630 133.3839530  80.7546420  72.4150220 136.1060580
  81.0963230  73.2592270 135.8114450  79.8162230  72.5633960 136.2225920
  93.9054770  73.6035310 134.1349180  92.9579680  73.6374290 134.2664610
  94.2304760  74.4174260 134.5198540  84.4374310  69.9032490 132.4305170
  84.7449290  69.3479380 131.7140670  83.5075010  70.0376950 132.2478160
  89.9889370  85.6199780 134.7212630  90.0016530  85.2162070 133.8534890
  89.4364590  86.3947070 134.6174060  91.2834790  82.3416000 129.8102800
  91.1731120  81.3990330 129.9352220  91.2803040  82.7031640 130.6965560
  86.8255070  77.9681320 129.1665290  85.8984350  77.9018700 129.3953760
  86.9779890  78.9061450 129.0520530  86.8124150  74.2398320 126.1632450
  85.8727820  74.4012280 126.2484910  87.1307410  74.9584000 125.6168440
  90.8552360  79.5301620 129.6700540  90.2364780  79.1921170 129.0226840
  90.8376810  78.8861380 130.3779730  82.8993410  82.1813620 134.1124230
  82.6021700  81.5759090 133.4332010  83.8493230  82.2190930 134.0013590
  90.9879020  85.7545490 137.7747330  90.5109580  86.5617680 137.5819940
  90.3040810  85.1023820 137.9273540  89.0317060  78.7688430 126.6773290
  89.4710340  77.9310860 126.5311110  89.7445480  79.4017830 126.7637430
  80.8183060  78.7908630 139.3389400  80.6790830  79.6631430 139.7076800
  79.9364420  78.4481440 139.1937340  87.1412440  83.7084500 130.6454530
  87.5808350  84.4508830 130.2309920  87.0799330  83.9511070 131.5693490
  82.6163410  84.7330330 141.5474550  82.5878840  85.1373280 140.6802980
  82.4528380  83.8040690 141.3846150  92.6134200  70.0231240 124.9914330
  92.3006860  70.1158070 125.8913400  93.3746670  70.6012270 124.9411760
  94.5678230  85.5157430 142.8438720  95.0437950  85.9940320 143.5227800
  95.1885390  85.4474920 142.1184220  76.7701710  80.5606180 135.2560310
  76.8482130  80.6954950 134.3116030  77.3843390  79.8522070 135.4488430
  78.0149340  82.2606370 131.6666490  77.6077420  82.4020960 130.8120090
  78.9062350  81.9766530 131.4637700  93.9711480  82.7070280 140.0038730
  94.0974540  82.4682160 139.0855910  94.0132860  81.8754820 140.4760810
  87.8328220  86.4098280 138.5733540  88.3472890  86.3206290 139.3755970
  86.9897300  86.7557980 138.8661450  82.2871000  86.4752150 129.7789160
  82.1113480  85.5587690 129.5656960  81.4326740  86.8339440 130.0186960
  81.5980000  70.7326110 132.8315340  81.1548150  71.5135650 132.4999860
  82.1564990  71.0556000 133.5386280  87.9804030  76.3205330 141.6646110
  88.3057440  75.4869080 141.3248340  88.7684360  76.8433850 141.8124440
  84.7138820  70.3536810 127.7121170  84.0893000  70.3496680 128.4374480
  84.6268940  69.4867770 127.3157140  83.6355900  71.2773440 134.6904940
  83.9328230  72.1836270 134.6096960  84.1841460  70.7892220 134.0764510
  88.6191980  75.8623050 129.1587240  88.0200870  76.5858850 128.9750860
  89.1671590  75.7999830 128.3763690  83.8293430  76.7545260 141.2256860
  83.7337030  75.8139990 141.0757260  84.6725410  76.9760330 140.8304930
  87.2256850  74.4986590 131.1890520  87.6186420  74.8158790 130.3759210
  87.5873700  73.6198470 131.3035040  78.9603970  73.1658930 139.3790640
  78.5667360  74.0134140 139.5863420  78.2722370  72.5285300 139.5699280
  85.5349020  73.2493900 142.4487380  84.8447340  73.0566100 143.0833470
  86.2781320  73.5328540 142.9811680  76.4491250  75.0307510 124.6223440
  76.3665920  75.9738270 124.7638430  76.0974310  74.8882420 123.7435790
  84.3109530  74.7658620 126.6800550  84.4322350  74.7245100 127.6286370
  83.9258040  75.6282770 126.5247280  83.3231030  77.0759760 126.0783850
  82.7547930  76.6278010 125.4519760  84.0320030  77.4352540 125.5449000
  91.7008650  69.9558200 140.5350620  92.0254420  69.2247860 141.0608600
  91.7365160  69.6371840 139.6331610  87.0876430  71.4621270 128.2866040
  86.2741040  70.9634440 128.2111350  86.8938380  72.3019520 127.8702390
  89.8024820  75.8340920 126.5828200  90.6904440  76.1458150 126.4079540
  89.7729910  74.9613170 126.1908780  80.9115910  80.7398330 131.9889070
  81.4294580  79.9366590 131.9345960  80.4599930  80.6777470 132.8305900
  85.7985410  82.0064610 127.2616370  86.1401110  82.7506840 126.7659690
  84.9698120  82.3195730 127.6241200  78.3960450  77.7059700 138.9014770
  78.0375390  78.3713550 139.4888110  78.1015010  76.8743250 139.2727390
  81.5973570  78.1643940 141.7854320  81.2973710  78.3101120 140.8882140
  82.3684810  77.6049230 141.6927710  86.9402020  82.9612940 139.7809450
  86.9546560  82.0293900 139.5628360  86.2327120  83.0472700 140.4199220
  92.0739090  77.1452760 126.0508060  91.9902810  77.5766980 125.2004500
  92.7933280  77.6051110 126.4834880  88.6812820  81.3280450 132.6261880
  89.0336640  80.7308580 131.9663250  87.7975150  81.0024680 132.7970130
  84.7676100  82.0878140 130.0332290  85.4547230  82.6347350 130.4139880
  83.9808520  82.6318870 130.0681900  76.9068500  77.7050960 125.5249370
  77.7763350  77.9875760 125.8085290  76.4158820  78.5186830 125.4098180
  84.0703310  79.0924170 129.6457650  84.5266090  79.9029420 129.8717840
  83.7191520  78.7747310 130.4776140  86.3735920  84.6030510 136.8749950
  87.0178140  84.8089890 137.5523370  86.7365360  83.8418910 136.4220800
  89.4205620  83.4057760 138.7963460  89.7561860  83.9924450 139.4741380
  88.5005960  83.2750470 139.0261250  76.9709020  71.1952940 139.5786870
  76.2567540  71.3949860 140.1839480  77.3904060  70.4192510 139.9501670
  91.0739970  80.8083420 126.9780700  90.7861670  81.2696110 127.7658580
  91.8692140  80.3481190 127.2464920  85.2494200  83.4549090 141.9651520
  84.9291070  82.7358330 142.5097210  84.5752560  84.1304160 142.0387580
  91.8309830  72.6432190 128.1375880  91.2022990  72.7477860 127.4234110
  91.3361750  72.8628970 128.9269760  83.7993860  74.9218140 129.5533760
  83.0910010  75.3904480 129.9947370  84.0838340  74.2640150 130.1878950
  87.8309290  71.6468800 130.9929550  87.7077070  71.6654930 130.0439060
  88.7793850  71.6947740 131.1127950  84.9186080  86.8824100 130.2657530
  85.1727580  86.8445490 129.3436900  83.9698560  86.7557430 130.2585780
  82.0028880  73.2303220 126.9284470  82.8519410  73.6673370 126.8624660
  81.6360150  73.5423480 127.7556530  90.9238660  77.8015980 131.8416040
  89.9828800  77.8166210 132.0163730  91.2382730  77.0151940 132.2876340
  79.5967060  76.9160650 126.0852890  79.6770650  75.9688160 126.1970290
  80.4886810  77.2467530 126.1913550  80.3981770  87.0656040 133.1887430
  81.1344250  86.5171500 133.4596000  80.7822690  87.9312050 133.0493420
  88.2404680  82.3581980 142.3248420  87.6342840  82.3813580 141.5844170
  87.9358790  81.6265020 142.8615670  89.6705050  86.0862270 140.9357830
  90.6226800  86.0020290 140.8858070  89.5233270  86.7503980 141.6091620
  77.1237860  78.7375570 141.3209060  77.6276880  78.1582850 141.8925290
  76.3845280  79.0215800 141.8585430  84.1775800  80.1446560 140.8544580
  83.4121470  80.7131560 140.7699250  84.3591760  79.8522770 139.9612810
  91.3199150  81.8751890 141.4119600  92.0608620  82.2127650 140.9087060
  90.5571830  82.0443950 140.8589370  79.1560940  76.8805160 142.2159130
  79.1966280  76.5819030 143.1244360  80.0106440  77.2812770 142.0566650
  81.0966750  75.4597260 140.1833620  80.5663210  74.9688210 139.5556960
  81.7654820  75.8881460 139.6491550  90.4666980  77.2662880 141.9513960
  91.0487750  76.5115200 141.8634440  90.6428750  77.7970320 141.1745440
  81.5839050  72.4259630 140.2630910  81.4895920  71.8080380 139.5381780
  81.0036440  73.1525920 140.0360820  84.3500490  70.9832870 137.2958300
  83.9017790  71.0057130 136.4503850  83.7165690  70.5851890 137.8928600
  81.8298230  75.5533940 124.3220800  81.6287290  74.6901300 124.6834140
  81.6590280  75.4667300 123.3842400  82.6067460  86.1840210 139.0328470
  82.0688550  86.9086270 138.7137170  82.8601420  85.7070550 138.2425810
  83.8592710  74.1524730 140.5584400  84.4492400  73.8440580 141.2462220
  83.0412950  73.6804480 140.7144300  89.3086540  70.3642170 126.8507680
  89.5888830  69.5210070 127.2067100  88.5352270  70.5965280 127.3646430
  80.6281030  72.6534560 124.3098680  80.9306930  72.6601990 123.4017830
  81.3675620  72.3032420 124.8066340  85.4629670  87.4191420 139.2915120
  85.3888370  88.3226560 139.5987490  84.5608510  87.1003320 139.2637190
  83.8465960  71.5969180 125.2954880  83.4987960  70.9193170 124.7157330
  84.0478730  71.1358690 126.1098270  86.0115000  86.5849930 126.9141480
  86.9065790  86.9234900 126.9360240  86.0432630  85.8629340 126.2865760
  76.8656960  84.7466010 132.5948740  77.1959970  83.8787070 132.3627380
  77.2947960  84.9524530 133.4253700  81.4618880  83.0775020 130.2550710
  81.1614420  82.9539990 131.1554620  81.3556370  82.2183610 129.8466440
  77.3547170  85.6136600 135.3330370  76.9178160  85.7937400 136.1654520
  77.9224850  86.3711220 135.1912090  92.9909350  85.1153600 139.6207680
  92.3911340  85.1746160 138.8771600  93.1203250  84.1758580 139.7504530
  93.6867260  79.6018900 127.4611590  94.4486170  80.1715550 127.5671280
  93.7021630  79.0346100 128.2319900  91.6760990  81.8405580 137.7183840
  90.8620830  82.2702740 137.9809630  92.0835190  82.4523990 137.1052890
  90.1362040  72.9198120 125.9137740  90.5546920  72.7329100 125.0734400
  89.8298100  72.0677170 126.2240670  93.6351770  77.8322260 129.6113540
  93.2595370  77.0650190 129.1794830  92.9054890  78.2144960 130.0988470
  78.2247530  78.5109400 136.2322590  78.5920570  78.4236800 137.1118610
  77.6558350  77.7475950 136.1329450  77.7763530  75.4218490 140.1381010
  76.8819580  75.3885250 140.4774720  78.3161080  75.6205280 140.9032260
  91.4639460  72.2050210 142.0232760  92.3409640  72.2133610 142.4066760
  91.4760300  71.4681050 141.4125110  76.4009680  75.3355760 127.6344580
  75.4973760  75.5985960 127.4596240  76.8850300  75.6066930 126.8544540
  92.9102730  76.0579750 132.9120780  93.4340210  75.5642400 132.2810950
  93.4962150  76.1930110 133.6568350  78.9436890  74.3921300 125.5438960
  79.6528590  73.9704520 125.0586240  78.2276830  74.4596530 124.9122310
  78.5911050  70.4460630 124.5841610  79.3139180  70.9869570 124.9022830
  78.8635570  70.1724050 123.7083150  92.4002700  75.3153100 128.8513190
  92.8961820  75.0823970 129.6362070  92.2018770  74.4764940 128.4350830
  78.2803240  69.6966820 134.4864230  78.9279430  69.1464200 134.0459390
  78.7005080  69.9509970 135.3080040  93.8289860  73.9514050 131.3850870
  93.7189140  73.7970090 132.3233140  94.5897450  73.4234990 131.1426280
  92.1755580  69.8908180 137.8433870  92.8127800  70.5042320 138.2093060
  92.3230470  69.9268840 136.8983100  94.7918620  72.5532630 127.2513720
  93.9970120  72.4877750 127.7806630  94.9961900  73.4883270 127.2399070
  78.0335240  69.8522490 137.2289550  77.6850060  70.3086310 137.9947730
  77.7022940  68.9579620 137.3111980  83.3405640  84.5801680 136.9952460
  83.0997000  84.8476240 136.1082980  84.2808280  84.7507410 137.0503320
  85.5460060  71.0434370 140.7508970  85.4848950  71.6356200 141.5004380
  86.4860440  70.9360330 140.6059230  88.1834620  70.7004430 140.3901260
  88.7975030  71.0183720 139.7282340  88.7284180  70.2153020 141.0097120
  78.7055880  69.3798690 140.5040320  79.2538870  69.1986740 139.7406430
  78.7711190  68.5892800 141.0396630  88.9242660  69.2636570 136.7170550
  88.0502500  69.5971680 136.5143480  88.8153410  68.7909750 137.5422420
  92.2849250  87.2419480 135.0749840  91.8252220  87.9935290 134.7007860
  91.6561710  86.5225950 135.0164640  82.7144970  85.5507720 134.2497970
  83.2309990  84.9395080 133.7246230  83.3642350  86.0536500 134.7408980
  85.4540470  86.4416210 135.0766950  85.7418280  86.1870510 134.1999960
  85.9663690  85.8893570 135.6672520  86.6717480  70.1806410 135.6563460
  85.8889270  70.6551910 135.9360220  86.3780410  69.2761240 135.5476640
  91.2238550  70.8829510 133.7012550  91.6646640  70.8274610 132.8534150
  90.9546140  71.7987520 133.7722730  93.0877120  70.5144750 131.7121370
  93.0265520  69.5705970 131.5652390  93.8669150  70.6224840 132.2574830
  78.0157890  70.4853890 128.1777180  78.7737250  70.5982770 127.6041210
  77.5535060  71.3223090 128.1320610  84.5571700  72.5993160 131.1679490
  83.7446210  72.2250050 130.8275370  85.0613340  71.8438240 131.4700680
  89.0596680  69.2635610 132.4062560  89.6626050  69.8355820 132.8811080
  88.3189670  69.8275050 132.1836460  92.2031280  69.6657170 127.6802840
  92.3981910  70.5640620 127.9470270  91.4161150  69.4344250 128.1735790
  80.3883040  71.0117940 126.7179150  80.9175800  70.2247740 126.5887100
  81.0211360  71.6909130 126.9514680  82.5820880  70.7493080 129.7724540
  81.9523620  70.0480390 129.9394670  82.0426020  71.5097210 129.5557700
  85.5212830  87.3632310 142.4435150  86.4480140  87.1276580 142.4871110
  85.5063260  88.1904310 141.9621180  82.7076440  70.0277060 142.2077030
  82.4260710  70.5310660 141.4437850  83.0896140  69.2298810 141.8419160
  89.3091900  69.4430640 142.7857500  89.1957350  69.7625250 143.6809020
  90.1261640  69.8443150 142.4894780  92.0890390  86.5902170 142.2676190
  92.8815710  86.0951400 142.0602150  92.3823540  87.2692310 142.8751800
  88.2150050  77.4623110 113.1492240  88.1344100  76.5477720 112.8783950
  87.8014470  77.9590180 112.4431950  86.3468090  79.2402130 115.0301510
  85.5710190  78.7602570 115.3200080  86.9981020  78.5607780 114.8557670
  80.3633920  79.5521940 115.9077270  79.5318800  79.2970650 116.3073780
  80.9714900  79.6232710 116.6435190  80.3435180  83.5862030 116.1035290
  80.6463220  82.6959770 115.9245510  81.0878770  84.1432250 115.8757540
  86.5938830  85.9320330 113.4304630  85.9750270  86.3877830 112.8599070
  87.4490610  86.0871790 113.0294330  85.7877080  81.9159320 115.0371670
  85.7185360  80.9749260 114.8760800  86.5496940  82.0060730 115.6094240
  86.8182250  74.7229700 115.2640600  87.1947070  73.8501580 115.1514270
  86.7201760  75.0588400 114.3731040  90.6006370  72.2180140 112.1968940
  91.4215990  71.7276710 112.2394420  90.6340450  72.8077800 112.9500780
  82.7894990  76.0641700 115.0583220  83.2973210  76.5622670 115.6988240
  83.3208230  75.2876900 114.8822580  81.0731090  70.7040260 119.3246640
  81.0749530  71.2212650 118.5192540  80.2435400  70.2270440 119.3016570
  87.4602180  80.8159570 110.8236540  86.8419450  81.2809020 110.2599260
  87.9725430  81.5087050 111.2406050  82.3233940  80.3435440 117.5020140
  81.9903320  80.9704360 118.1441210  82.5000620  80.8697320 116.7221810
  81.5353040  82.3116240 119.3169320  82.1527040  82.9867320 119.0353770
  80.6746160  82.7204220 119.2256820  84.4374310  69.9032490 113.6561680
  84.7449290  69.3479380 112.9397180  83.5075010  70.0376950 113.4734670
  91.2834790  82.3416000 111.0359310  91.1731120  81.3990330 111.1608730
  91.2803040  82.7031640 111.9222070  89.3874810  80.5229620 117.2751750
  89.8043600  80.3089730 116.4405210  90.1114630  80.7802410 117.8460370
  86.8255070  77.9681320 110.3921800  85.8984350  77.9018700 110.6210270
  86.9779890  78.9061450 110.2777040  90.8552360  79.5301620 110.8957050
  90.2364780  79.1921170 110.2483350  90.8376810  78.8861380 111.6036240
  82.4311710  78.4946060 113.1741530  82.0268710  77.7823310 112.6787430
  82.5174830  78.1499300 114.0629570  82.8993410  82.1813620 115.3380740
  82.6021700  81.5759090 114.6588520  83.8493230  82.2190930 115.2270100
  89.0317060  78.7688430 107.9029800  89.4710340  77.9310860 107.7567620
  89.7445480  79.4017830 107.9893940  80.8183060  78.7908630 120.5645910
  80.6790830  79.6631430 120.9333310  79.9364420  78.4481440 120.4193850
  87.1412440  83.7084500 111.8711040  87.5808350  84.4508830 111.4566430
  87.0799330  83.9511070 112.7950000  92.6134200  70.0231240 106.2170840
  92.3006860  70.1158070 107.1169910  93.3746670  70.6012270 106.1668270
  76.7701710  80.5606180 116.4816820  76.8482130  80.6954950 115.5372540
  77.3843390  79.8522070 116.6744940  78.0149340  82.2606370 112.8923000
  77.6077420  82.4020960 112.0376600  78.9062350  81.9766530 112.6894210
  82.2871000  86.4752150 111.0045670  82.1113480  85.5587690 110.7913470
  81.4326740  86.8339440 111.2443470  89.0758680  85.8303890 111.8620540
  89.5315630  85.0493270 112.1759160  89.4151200  86.5410710 112.4061720
  93.8235490  74.7602740 122.1944980  93.2079760  75.2682410 121.6660440
  93.5031910  73.8601070 122.1370920  76.8261230  81.6020350 119.0211280
  76.9892270  81.1325710 118.2030650  77.2913680  81.0943910 119.6860120
  81.5980000  70.7326110 114.0571850  81.1548150  71.5135650 113.7256370
  82.1564990  71.0556000 114.7642790  84.7138820  70.3536810 108.9377680
  84.0893000  70.3496680 109.6630990  84.6268940  69.4867770 108.5413650
  83.6355900  71.2773440 115.9161450  83.9328230  72.1836270 115.8353470
  84.1841460  70.7892220 115.3021020  88.6191980  75.8623050 110.3843750
  88.0200870  76.5858850 110.2007370  89.1671590  75.7999830 109.6020200
  83.8293430  76.7545260 122.4513370  83.7337030  75.8139990 122.3013770
  84.6725410  76.9760330 122.0561440  87.2256850  74.4986590 112.4147030
  87.6186420  74.8158790 111.6015720  87.5873700  73.6198470 112.5291550
  76.2621020  71.0887390 114.6377230  75.9734070  71.6590250 115.3502210
  77.0066780  70.6091840 115.0008460  87.8111990  77.0892340 116.5097810
  87.0793110  77.5979150 116.8587910  87.4136330  76.2722320 116.2086590
  84.2489380  73.7646540 114.9150300  84.2525440  73.3236490 114.0654840
  85.1440500  74.0863870 115.0222120  80.0991760  73.6473030 113.8744510
  79.7591810  74.1248260 114.6311560  79.3369080  73.1938150 113.5145610
  91.7008650  69.9558200 121.7607130  92.0254420  69.2247860 122.2865110
  91.7365160  69.6371840 120.8588120  78.4000210  80.9771780 121.1807090
  78.0155000  80.3365450 121.7790050  78.7112400  81.6807900 121.7501820
  84.5497350  77.8248320 116.6615710  84.9167480  77.3506890 117.4077050
  84.3602410  78.6989890 117.0024050  82.3396720  76.8656960 118.9799920
  82.0353790  77.7448940 119.2050280  83.2943180  76.9256750 119.0157360
  91.6266490  80.0683310 115.3693160  92.3465610  80.5638600 114.9789270
  91.4248310  79.3901200 114.7247030  87.0876430  71.4621270 109.5122550
  86.2741040  70.9634440 109.4367860  86.8938380  72.3019520 109.0958900
  89.8024820  75.8340920 107.8084710  90.6904440  76.1458150 107.6336050
  89.7729910  74.9613170 107.4165290  80.9115910  80.7398330 113.2145580
  81.4294580  79.9366590 113.1602470  80.4599930  80.6777470 114.0562410
  81.5973570  78.1643940 123.0110830  81.2973710  78.3101120 122.1138650
  82.3684810  77.6049230 122.9184220  92.0739090  77.1452760 107.2764570
  91.9902810  77.5766980 106.4261010  92.7933280  77.6051110 107.7091390
  93.1513230  79.6020280 120.3534540  92.4261420  80.1949060 120.1563930
  93.6788690  79.5943820 119.5547910  88.6812820  81.3280450 113.8518390
  89.0336640  80.7308580 113.1919760  87.7975150  81.0024680 114.0226640
  84.7676100  82.0878140 111.2588800  85.4547230  82.6347350 111.6396390
  83.9808520  82.6318870 111.2938410  76.9709020  71.1952940 120.8043380
  76.2567540  71.3949860 121.4095990  77.3904060  70.4192510 121.1758180
  91.0739970  80.8083420 108.2037210  90.7861670  81.2696110 108.9915090
  91.8692140  80.3481190 108.4721430  77.2581610  85.1833200 121.7909910
  77.3672730  84.2427940 121.6505300  76.6062170  85.4487950 121.1423640
  91.8309830  72.6432190 109.3632390  91.2022990  72.7477860 108.6490620
  91.3361750  72.8628970 110.1526270  87.8309290  71.6468800 112.2186060
  87.7077070  71.6654930 111.2695570  88.7793850  71.6947740 112.3384460
  84.9186080  86.8824100 111.4914040  85.1727580  86.8445490 110.5693410
  83.9698560  86.7557430 111.4842290  90.9238660  77.8015980 113.0672550
  89.9828800  77.8166210 113.2420240  91.2382730  77.0151940 113.5132850
  92.9264240  84.9724830 114.7426810  93.0511660  85.7956000 115.2150620
  93.7929800  84.7615560 114.3950960  80.3981770  87.0656040 114.4143940
  81.1344250  86.5171500 114.6852510  80.7822690  87.9312050 114.2749930
  77.2827250  83.1329610 110.2885450  76.3567030  83.3750750 110.2790860
  77.7483680  83.9603870 110.1670200  77.1237860  78.7375570 122.5465570
  77.6276880  78.1582850 123.1181800  76.3845280  79.0215800 123.0841940
  91.3199150  81.8751890 122.6376110  92.0608620  82.2127650 122.1343570
  90.5571830  82.0443950 122.0845880  79.1560940  76.8805160 123.4415640
  79.1966280  76.5819030 124.3500870  80.0106440  77.2812770 123.2823160
  81.0966750  75.4597260 121.4090130  80.5663210  74.9688210 120.7813470
  81.7654820  75.8881460 120.8748060  89.9944810  79.9266720 121.1731320
  90.4085830  80.0811800 122.0221740  89.0595810  80.0521940 121.3357100
  90.4666980  77.2662880 123.1770470  91.0487750  76.5115200 123.0890950
  90.6428750  77.7970320 122.4001950  81.5839050  72.4259630 121.4887420
  81.4895920  71.8080380 120.7638290  81.0036440  73.1525920 121.2617330
  84.7560040  79.8787200 119.1427250  85.1748150  80.7219930 118.9703490
  83.8368670  80.0159240 118.9134030  89.3086540  70.3642170 108.0764190
  89.5888830  69.5210070 108.4323610  88.5352270  70.5965280 108.5902940
  76.8656960  84.7466010 113.8205250  77.1959970  83.8787070 113.5883890
  77.2947960  84.9524530 114.6510210  81.4618880  83.0775020 111.4807220
  81.1614420  82.9539990 112.3811130  81.3556370  82.2183610 111.0722950
  77.3547170  85.6136600 116.5586880  76.9178160  85.7937400 117.3911030
  77.9224850  86.3711220 116.4168600  93.6867260  79.6018900 108.6868100
  94.4486170  80.1715550 108.7927790  93.7021630  79.0346100 109.4576410
  93.7386430  79.8953270 105.8440620  94.0135270  80.8032150 105.7159840
  93.5497170  79.8315800 106.7802610  90.1362040  72.9198120 107.1394250
  90.5546920  72.7329100 106.2990910  89.8298100  72.0677170 107.4497180
  93.6351770  77.8322260 110.8370050  93.2595370  77.0650190 110.4051340
  92.9054890  78.2144960 111.3244980  93.0251390  76.9793780 120.4709570
  92.7937480  76.7506530 119.5707520  93.2855940  77.8993330 120.4254460
  91.4639460  72.2050210 123.2489270  92.3409640  72.2133610 123.6323270
  91.4760300  71.4681050 122.6381620  92.4002700  75.3153100 110.0769700
  92.8961820  75.0823970 110.8618580  92.2018770  74.4764940 109.6607340
  78.2803240  69.6966820 115.7120740  78.9279430  69.1464200 115.2715900
  78.7005080  69.9509970 116.5336550  93.8289860  73.9514050 112.6107380
  93.7189140  73.7970090 113.5489650  94.5897450  73.4234990 112.3682790
  92.1755580  69.8908180 119.0690380  92.8127800  70.5042320 119.4349570
  92.3230470  69.9268840 118.1239610  94.7180130  71.7821970 105.8513520
  95.6429440  71.6503150 105.6431810  94.6955920  71.8614790 106.8049970
  94.7918620  72.5532630 108.4770230  93.9970120  72.4877750 109.0063140
  94.9961900  73.4883270 108.4655580  91.7337040  86.5924180 112.4708620
  92.3296110  86.2708750 111.7943040  91.9915190  86.1196000 113.2621890
  78.0335240  69.8522490 118.4546060  77.6850060  70.3086310 119.2204240
  77.7022940  68.9579620 118.5368490  83.3405640  84.5801680 118.2208970
  83.0997000  84.8476240 117.3339490  84.2808280  84.7507410 118.2759830
  78.7055880  69.3798690 121.7296830  79.2538870  69.1986740 120.9662940
  78.7711190  68.5892800 122.2653140  79.4787640  85.9704340 119.7397030
  78.8847960  85.8389040 120.4787070  79.4711480  85.1342480 119.2739130
  88.9242660  69.2636570 117.9427060  88.0502500  69.5971680 117.7399990
  88.8153410  68.7909750 118.7678930  79.1099870  83.3362720 118.6905070
  78.3833930  82.7168010 118.6231020  79.1709020  83.7303330 117.8203150
  82.7144970  85.5507720 115.4754480  83.2309990  84.9395080 114.9502740
  83.3642350  86.0536500 115.9665490  86.6717480  70.1806410 116.8819970
  85.8889270  70.6551910 117.1616730  86.3780410  69.2761240 116.7733150
  91.2238550  70.8829510 114.9269060  91.6646640  70.8274610 114.0790660
  90.9546140  71.7987520 114.9979240  93.0877120  70.5144750 112.9377880
  93.0265520  69.5705970 112.7908900  93.8669150  70.6224840 113.4831340
  84.5571700  72.5993160 112.3936000  83.7446210  72.2250050 112.0531880
  85.0613340  71.8438240 112.6957190  89.0596680  69.2635610 113.6319070
  89.6626050  69.8355820 114.1067590  88.3189670  69.8275050 113.4092970
  92.2031280  69.6657170 108.9059350  92.3981910  70.5640620 109.1726780
  91.4161150  69.4344250 109.3992300  93.7557890  86.9057880 110.6665910
  93.9310080  86.2195620 110.0226830  93.0579460  87.4304930 110.2742580
  89.3091900  69.4430640 124.0114010  89.1957350  69.7625250 124.9065530
  90.1261640  69.8443150 123.7151290  94.8905920  74.2346890  99.9869080
  94.1858090  74.6228600  99.4684190  95.1563840  74.9297180 100.5890010
  93.8235490  74.7602740 103.4201490  93.2079760  75.2682410 102.8916950
  93.5031910  73.8601070 103.3627430  91.7008650  69.9558200 102.9863640
  92.0254420  69.2247860 103.5121620  91.7365160  69.6371840 102.0844630
  92.6316650  72.5582800 100.8467700  92.1290250  73.2988200 101.1861510
  93.4473310  72.9466800 100.5304490  91.4639460  72.2050210 104.4745780
  92.3409640  72.2133610 104.8579780  91.4760300  71.4681050 103.8638130
  93.0892450  76.1419620  98.8853350  92.1395160  76.1083160  98.9998340
  93.2705460  77.0519730  98.6503120  92.1755580  69.8908180 100.2946890
  92.8127800  70.5042320 100.6606080  92.3230470  69.9268840  99.3496120
  88.9242660  69.2636570  99.1683570  88.0502500  69.5971680  98.9656500
  88.8153410  68.7909750  99.9935440  93.7557890  86.9057880  91.8922420
  93.9310080  86.2195620  91.2483340  93.0579460  87.4304930  91.4999090
  89.3091900  69.4430640 105.2370520  89.1957350  69.7625250 106.1322040
  90.1261640  69.8443150 104.9407800  80.3633920  79.5521940  78.3590290
  79.5318800  79.2970650  78.7586800  80.9714900  79.6232710  79.0948210
  78.7725870  74.5123830  72.1432680  77.8842570  74.8539800  72.0412560
  79.0567060  74.3124150  71.2513510  76.7358880  77.1129480  78.0272380
  77.3074990  76.3451680  78.0276020  76.7360420  77.4118240  77.1178990
  78.5970420  75.0174340  78.4223650  79.2780530  75.2812710  79.0411050
  78.2818470  74.1775210  78.7561660  81.5353040  82.3116240  81.7682340
  82.1527040  82.9867320  81.4866790  80.6746160  82.7204220  81.6769840
  76.8285380  81.5016100  70.6489190  76.4513360  81.9903200  69.9174090
  77.0858450  82.1741380  71.2795720  86.8124150  74.2398320  69.8401980
  85.8727820  74.4012280  69.9254440  87.1307410  74.9584000  69.2937970
  80.8183060  78.7908630  83.0158930  80.6790830  79.6631430  83.3846330
  79.9364420  78.4481440  82.8706870  79.1316340  77.3891040  73.1261200
  79.0113940  78.1153130  72.5142470  78.8217230  76.6193950  72.6489110
  76.7701710  80.5606180  78.9329840  76.8482130  80.6954950  77.9885560
  77.3843390  79.8522070  79.1257960  78.0149340  82.2606370  75.3436020
  77.6077420  82.4020960  74.4889620  78.9062350  81.9766530  75.1407230
  81.3894220  75.8559680  74.2366120  81.1635140  75.6396850  75.1412740
  80.6086750  76.2888140  73.8912090  78.9603970  73.1658930  83.0560170
  78.5667360  74.0134140  83.2632950  78.2722370  72.5285300  83.2468810
  84.3109530  74.7658620  70.3570080  84.4322350  74.7245100  71.3055900
  83.9258040  75.6282770  70.2016810  82.3396720  76.8656960  81.4312940
  82.0353790  77.7448940  81.6563300  83.2943180  76.9256750  81.4670380
  80.8678510  81.0717950  72.0279790  80.0940770  80.5315570  71.8678510
  81.5973140  80.5524560  71.6897550  89.8024820  75.8340920  70.2597730
  90.6904440  76.1458150  70.0849070  89.7729910  74.9613170  69.8678310
  80.9115910  80.7398330  75.6658600  81.4294580  79.9366590  75.6115490
  80.4599930  80.6777470  76.5075430  78.3960450  77.7059700  82.5784300
  78.0375390  78.3713550  83.1657640  78.1015010  76.8743250  82.9496920
  86.9402020  82.9612940  83.4578980  86.9546560  82.0293900  83.2397890
  86.2327120  83.0472700  84.0968750  78.8915010  79.5224430  71.3300960
  78.2842960  80.2623330  71.3396260  79.3664360  79.6123790  70.5039160
  82.0028880  73.2303220  70.6054000  82.8519410  73.6673370  70.5394190
  81.6360150  73.5423480  71.4326060  77.2827250  83.1329610  72.7398470
  76.3567030  83.3750750  72.7303880  77.7483680  83.9603870  72.6183220
  79.1560940  76.8805160  85.8928660  79.1966280  76.5819030  86.8013890
  80.0106440  77.2812770  85.7336180  84.7560040  79.8787200  81.5940270
  85.1748150  80.7219930  81.4216510  83.8368670  80.0159240  81.3647050
  89.3086540  70.3642170  70.5277210  89.5888830  69.5210070  70.8836630
  88.5352270  70.5965280  71.0415960  77.1871600  78.1256830  75.3688780
  76.5320440  77.8568470  74.7248480  78.0249550  78.0161310  74.9190760
  78.2247530  78.5109400  79.9092120  78.5920570  78.4236800  80.7888140
  77.6558350  77.7475950  79.8098980  77.7763530  75.4218490  83.8150540
  76.8819580  75.3885250  84.1544250  78.3161080  75.6205280  84.5801790
  94.7918620  72.5532630  70.9283250  93.9970120  72.4877750  71.4576160
  94.9961900  73.4883270  70.9168600  92.2031280  69.6657170  71.3572370
  92.3981910  70.5640620  71.6239800  91.4161150  69.4344250  71.8505320
  89.8082620  86.6953620  52.9043580  89.6483760  86.4056560  53.8025410
  89.6429330  85.9193750  52.3688810  93.8235490  74.7602740  65.8714510
  93.2079760  75.2682410  65.3429970  93.5031910  73.8601070  65.8140450
  92.0739090  77.1452760  50.9534100  91.9902810  77.5766980  50.1030540
  92.7933280  77.6051110  51.3860920  93.1026340  83.9995020  53.6816230
  92.4602500  83.3450640  53.9559950  92.7157000  84.4050110  52.9056900
  91.4923720  82.8911480  50.2192580  91.2661300  82.1741920  50.8117220
  91.1019920  82.6423920  49.3814330  91.0739970  80.8083420  51.8806740
  90.7861670  81.2696110  52.6684620  91.8692140  80.3481190  52.1490960
  92.6316650  72.5582800  63.2980720  92.1290250  73.2988200  63.6374530
  93.4473310  72.9466800  62.9817510  92.5614250  85.4656480  51.3375780
  92.2755760  85.0521620  50.5229960  92.3633800  86.3944190  51.2176300
  93.6351770  77.8322260  54.5139580  93.2595370  77.0650190  54.0820870
  92.9054890  78.2144960  55.0014510  92.4002700  75.3153100  53.7539230
  92.8961820  75.0823970  54.5388110  92.2018770  74.4764940  53.3376870
  93.8289860  73.9514050  56.2876910  93.7189140  73.7970090  57.2259180
  94.5897450  73.4234990  56.0452320  94.7180130  71.7821970  49.5283050
  95.6429440  71.6503150  49.3201340  94.6955920  71.8614790  50.4819500
  94.7918620  72.5532630  52.1539760  93.9970120  72.4877750  52.6832670
  94.9961900  73.4883270  52.1425110  93.0877120  70.5144750  56.6147410
  93.0265520  69.5705970  56.4678430  93.8669150  70.6224840  57.1600870
  93.7557890  86.9057880  54.3435440  93.9310080  86.2195620  53.6996360
  93.0579460  87.4304930  53.9512110  88.2150050  77.4623110  38.0518280
  88.1344100  76.5477720  37.7809990  87.8014470  77.9590180  37.3457990
  86.3468090  79.2402130  39.9327550  85.5710190  78.7602570  40.2226120
  86.9981020  78.5607780  39.7583710  80.3633920  79.5521940  40.8103310
  79.5318800  79.2970650  41.2099820  80.9714900  79.6232710  41.5461230
  90.3675520  83.6462320  38.7126680  89.9057050  82.8749560  39.0413850
  91.1801070  83.6728390  39.2179130  80.3435180  83.5862030  41.0061330
  80.6463220  82.6959770  40.8271550  81.0878770  84.1432250  40.7783580
  85.7877080  81.9159320  39.9397710  85.7185360  80.9749260  39.7786840
  86.5496940  82.0060730  40.5120280  77.9783750  72.5213840  42.2654330
  77.7986590  71.6239590  42.5457090  77.5763830  73.0685710  42.9401280
  86.8182250  74.7229700  40.1666640  87.1947070  73.8501580  40.0540310
  86.7201760  75.0588400  39.2757080  90.6006370  72.2180140  37.0994980
  91.4215990  71.7276710  37.1420460  90.6340450  72.8077800  37.8526820
  78.5970420  75.0174340  40.8736670  79.2780530  75.2812710  41.4924070
  78.2818470  74.1775210  41.2074680  82.7894990  76.0641700  39.9609260
  83.2973210  76.5622670  40.6014280  83.3208230  75.2876900  39.7848620
  94.8905920  74.2346890  43.6638610  94.1858090  74.6228600  43.1453720
  95.1563840  74.9297180  44.2659540  81.0731090  70.7040260  44.2272680
  81.0749530  71.2212650  43.4218580  80.2435400  70.2270440  44.2042610
  90.8367850  74.1580520  39.8722520  90.1323420  74.4465410  40.4525630
  91.1980010  74.9680630  39.5122080  80.7546420  72.4150220  42.2343130
  81.0963230  73.2592270  41.9397000  79.8162230  72.5633960  42.3508470
  92.4530630  83.7755650  42.1350000  91.7694150  84.4454760  42.1266670
  92.9924920  83.9736300  41.3694860  93.9054770  73.6035310  40.2631730
  92.9579680  73.6374290  40.3947160  94.2304760  74.4174260  40.6481090
  89.9889370  85.6199780  40.8495180  90.0016530  85.2162070  39.9817440
  89.4364590  86.3947070  40.7456610  91.2834790  82.3416000  35.9385350
  91.1731120  81.3990330  36.0634770  91.2803040  82.7031640  36.8248110
  89.3874810  80.5229620  42.1777790  89.8043600  80.3089730  41.3431250
  90.1114630  80.7802410  42.7486410  86.8255070  77.9681320  35.2947840
  85.8984350  77.9018700  35.5236310  86.9779890  78.9061450  35.1803080
  86.8124150  74.2398320  32.2915000  85.8727820  74.4012280  32.3767460
  87.1307410  74.9584000  31.7450990  93.3336910  78.9216840  42.2694030
  92.5055540  78.9909930  41.7944160  93.9287390  79.5071150  41.8009860
  90.8552360  79.5301620  35.7983090  90.2364780  79.1921170  35.1509390
  90.8376810  78.8861380  36.5062280  90.2978920  75.7086160  43.2148900
  89.8850100  76.5339870  43.4688890  89.5654870  75.1231200  43.0225260
  82.4311710  78.4946060  38.0767570  82.0268710  77.7823310  37.5813470
  82.5174830  78.1499300  38.9655610  82.8993410  82.1813620  40.2406780
  82.6021700  81.5759090  39.5614560  83.8493230  82.2190930  40.1296140
  81.1440330  75.2689270  41.8566610  81.6954920  75.3784610  41.0819860
  81.6583840  75.6426870  42.5721840  90.9879020  85.7545490  43.9029880
  90.5109580  86.5617680  43.7102490  90.3040810  85.1023820  44.0556090
  89.0317060  78.7688430  32.8055840  89.4710340  77.9310860  32.6593660
  89.7445480  79.4017830  32.8919980  79.1316340  77.3891040  35.5774220
  79.0113940  78.1153130  34.9655490  78.8217230  76.6193950  35.1002130
  94.5678230  85.5157430  48.9721270  95.0437950  85.9940320  49.6510350
  95.1885390  85.4474920  48.2466770  87.8328220  86.4098280  44.7016090
  88.3472890  86.3206290  45.5038520  86.9897300  86.7557980  44.9944000
  89.5108750  84.2041180  32.6898090  88.8173910  84.2018470  32.0300370
  90.2531610  83.7800500  32.2592260  93.8235490  74.7602740  47.0971020
  93.2079760  75.2682410  46.5686480  93.5031910  73.8601070  47.0396960
  81.5980000  70.7326110  38.9597890  81.1548150  71.5135650  38.6282410
  82.1564990  71.0556000  39.6668830  83.6355900  71.2773440  40.8187490
  83.9328230  72.1836270  40.7379510  84.1841460  70.7892220  40.2047060
  88.6191980  75.8623050  35.2869790  88.0200870  76.5858850  35.1033410
  89.1671590  75.7999830  34.5046240  87.2256850  74.4986590  37.3173070
  87.6186420  74.8158790  36.5041760  87.5873700  73.6198470  37.4317590
  76.2621020  71.0887390  39.5403270  75.9734070  71.6590250  40.2528250
  77.0066780  70.6091840  39.9034500  87.8111990  77.0892340  41.4123850
  87.0793110  77.5979150  41.7613950  87.4136330  76.2722320  41.1112630
  84.2489380  73.7646540  39.8176340  84.2525440  73.3236490  38.9680880
  85.1440500  74.0863870  39.9248160  80.0991760  73.6473030  38.7770550
  79.7591810  74.1248260  39.5337600  79.3369080  73.1938150  38.4171650
  88.2737900  72.5426020  40.8246790  88.2910640  72.9934670  41.6688640
  88.0253480  71.6431660  41.0380230  84.5497350  77.8248320  41.5641750
  84.9167480  77.3506890  42.3103090  84.3602410  78.6989890  41.9050090
  77.4137840  72.5692010  37.6935220  77.1284760  72.2047680  38.5313840
  77.3516700  71.8372470  37.0798360  82.3396720  76.8656960  43.8825960
  82.0353790  77.7448940  44.1076320  83.2943180  76.9256750  43.9183400
  91.6266490  80.0683310  40.2719200  92.3465610  80.5638600  39.8815310
  91.4248310  79.3901200  39.6273070  87.0085290  80.1392370  46.1588200
  86.9422600  79.2188040  45.9045790  86.3790430  80.2367810  46.8732840
  89.8024820  75.8340920  32.7110750  90.6904440  76.1458150  32.5362090
  89.7729910  74.9613170  32.3191330  85.7985410  82.0064610  33.3898920
  86.1401110  82.7506840  32.8942240  84.9698120  82.3195730  33.7523750
  86.9402020  82.9612940  45.9092000  86.9546560  82.0293900  45.6910910
  86.2327120  83.0472700  46.5481770  92.0739090  77.1452760  32.1790610
  91.9902810  77.5766980  31.3287050  92.7933280  77.6051110  32.6117430
  93.1026340  83.9995020  34.9072740  92.4602500  83.3450640  35.1816460
  92.7157000  84.4050110  34.1313410  84.0703310  79.0924170  35.7740200
  84.5266090  79.9029420  36.0000390  83.7191520  78.7747310  36.6058690
  86.3735920  84.6030510  43.0032500  87.0178140  84.8089890  43.6805920
  86.7365360  83.8418910  42.5503350  79.9715090  69.4361820  36.2462720
  79.8429720  69.4279720  37.1947640  79.1477110  69.7744910  35.8953730
  87.6468000  82.6062860  41.7209950  88.2890230  81.9056020  41.8342120
  88.1717350  83.3861300  41.5406840  91.4923720  82.8911480  31.4449090
  91.2661300  82.1741920  32.0373730  91.1019920  82.6423920  30.6070840
  89.4205620  83.4057760  44.9246010  89.7561860  83.9924450  45.6023930
  88.5005960  83.2750470  45.1543800  77.2739750  86.9178340  32.2193550
  77.6337390  87.5167680  31.5650820  77.1332090  87.4638230  32.9928580
  91.0739970  80.8083420  33.1063250  90.7861670  81.2696110  33.8941130
  91.8692140  80.3481190  33.3747470  91.8309830  72.6432190  34.2658430
  91.2022990  72.7477860  33.5516660  91.3361750  72.8628970  35.0552310
  86.2767970  84.3637780  31.6992410  86.3779950  84.1601770  30.7694390
  85.3769710  84.1096060  31.9040190  85.4249790  76.3414840  43.6808840
  85.9235040  76.8160660  44.3460690  85.5672740  75.4178360  43.8878870
  87.8309290  71.6468800  37.1212100  87.7077070  71.6654930  36.1721610
  88.7793850  71.6947740  37.2410500  84.9186080  86.8824100  36.3940080
  85.1727580  86.8445490  35.4719450  83.9698560  86.7557430  36.3868330
  90.9238660  77.8015980  37.9698590  89.9828800  77.8166210  38.1446280
  91.2382730  77.0151940  38.4158890  92.9264240  84.9724830  39.6452850
  93.0511660  85.7956000  40.1176660  93.7929800  84.7615560  39.2977000
  80.3981770  87.0656040  39.3169980  81.1344250  86.5171500  39.5878550
  80.7822690  87.9312050  39.1775970  83.5084080  86.2386350  31.1395550
  84.3012690  86.5275180  30.6877340  82.9888430  85.8078520  30.4608030
  88.2404680  82.3581980  48.4530970  87.6342840  82.3813580  47.7126720
  87.9358790  81.6265020  48.9898220  89.6705050  86.0862270  47.0640380
  90.6226800  86.0020290  47.0140620  89.5233270  86.7503980  47.7374170
  92.5614250  85.4656480  32.5632290  92.2755760  85.0521620  31.7486470
  92.3633800  86.3944190  32.4432810  84.0261480  81.4589760  31.0037900
  83.9212120  80.8442110  31.7299280  83.8585700  80.9355650  30.2200910
  87.2664210  80.5209790  31.6079890  86.7174310  80.9679090  32.2522630
  87.8883470  80.0159040  32.1317560  91.3199150  81.8751890  47.5402150
  92.0608620  82.2127650  47.0369610  90.5571830  82.0443950  46.9871920
  89.9944810  79.9266720  46.0757360  90.4085830  80.0811800  46.9247780
  89.0595810  80.0521940  46.2383140  90.4666980  77.2662880  48.0796510
  91.0487750  76.5115200  47.9916990  90.6428750  77.7970320  47.3027990
  84.7560040  79.8787200  44.0453290  85.1748150  80.7219930  43.8729530
  83.8368670  80.0159240  43.8160070  89.4311840  78.1640570  44.0053640
  88.9047060  78.6883190  43.4018780  89.7743180  78.7967960  44.6363370
  82.6067460  86.1840210  45.1611020  82.0688550  86.9086270  44.8419720
  82.8601420  85.7070550  44.3708360  85.4629670  87.4191420  45.4197670
  85.3888370  88.3226560  45.7270040  84.5608510  87.1003320  45.3919740
  86.0115000  86.5849930  33.0424030  86.9065790  86.9234900  33.0642790
  86.0432630  85.8629340  32.4148310  76.8656960  84.7466010  38.7231290
  77.1959970  83.8787070  38.4909930  77.2947960  84.9524530  39.5536250
  92.9909350  85.1153600  45.7490230  92.3911340  85.1746160  45.0054150
  93.1203250  84.1758580  45.8787080  93.6867260  79.6018900  33.5894140
  94.4486170  80.1715550  33.6953830  93.7021630  79.0346100  34.3602450
  77.1871600  78.1256830  37.8201800  76.5320440  77.8568470  37.1761500
  78.0249550  78.0161310  37.3703780  94.6927230  80.4569000  38.4336070
  95.0636060  79.6736320  38.0272040  95.3329160  81.1458100  38.2553370
  91.6760990  81.8405580  43.8466390  90.8620830  82.2702740  44.1092180
  92.0835190  82.4523990  43.2335440  90.1362040  72.9198120  32.0420290
  90.5546920  72.7329100  31.2016950  89.8298100  72.0677170  32.3523220
  93.6351770  77.8322260  35.7396090  93.2595370  77.0650190  35.3077380
  92.9054890  78.2144960  36.2271020  93.0251390  76.9793780  45.3735610
  92.7937480  76.7506530  44.4733560  93.2855940  77.8993330  45.3280500
  76.4009680  75.3355760  33.7627130  75.4973760  75.5985960  33.5878790
  76.8850300  75.6066930  32.9827090  92.9102730  76.0579750  39.0403330
  93.4340210  75.5642400  38.4093500  93.4962150  76.1930110  39.7850900
  93.0892450  76.1419620  42.5622880  92.1395160  76.1083160  42.6767870
  93.2705460  77.0519730  42.3272650  78.5911050  70.4460630  30.7124160
  79.3139180  70.9869570  31.0305380  78.8635570  70.1724050  29.8365700
  92.4002700  75.3153100  34.9795740  92.8961820  75.0823970  35.7644620
  92.2018770  74.4764940  34.5633380  78.2803240  69.6966820  40.6146780
  78.9279430  69.1464200  40.1741940  78.7005080  69.9509970  41.4362590
  93.8289860  73.9514050  37.5133420  93.7189140  73.7970090  38.4515690
  94.5897450  73.4234990  37.2708830  94.7918620  72.5532630  33.3796270
  93.9970120  72.4877750  33.9089180  94.9961900  73.4883270  33.3681620
  78.0335240  69.8522490  43.3572100  77.6850060  70.3086310  44.1230280
  77.7022940  68.9579620  43.4394530  83.3405640  84.5801680  43.1235010
  83.0997000  84.8476240  42.2365530  84.2808280  84.7507410  43.1785870
  94.6009800  86.5996060  43.9245650  94.1068080  86.9964930  43.2072780
  93.9923090  85.9745270  44.3182930  92.2849250  87.2419480  41.2032390
  91.8252220  87.9935290  40.8290410  91.6561710  86.5225950  41.1447190
  82.7144970  85.5507720  40.3780520  83.2309990  84.9395080  39.8528780
  83.3642350  86.0536500  40.8691530  86.6717480  70.1806410  41.7846010
  85.8889270  70.6551910  42.0642770  86.3780410  69.2761240  41.6759190
  91.2238550  70.8829510  39.8295100  91.6646640  70.8274610  38.9816700
  90.9546140  71.7987520  39.9005280  93.0877120  70.5144750  37.8403920
  93.0265520  69.5705970  37.6934940  93.8669150  70.6224840  38.3857380
  77.3929870  86.6537110  36.8027870  77.2251910  86.0207790  37.5009760
  76.5264380  86.8596510  36.4522060  78.0157890  70.4853890  34.3059730
  78.7737250  70.5982770  33.7323760  77.5535060  71.3223090  34.2603160
  89.0596680  69.2635610  38.5345110  89.6626050  69.8355820  39.0093630
  88.3189670  69.8275050  38.3119010  92.2031280  69.6657170  33.8085390
  92.3981910  70.5640620  34.0752820  91.4161150  69.4344250  34.3018340
  85.5212830  87.3632310  48.5717700  86.4480140  87.1276580  48.6153660
  85.5063260  88.1904310  48.0903730  93.7557890  86.9057880  35.5691950
  93.9310080  86.2195620  34.9252870  93.0579460  87.4304930  35.1768620
  92.0890390  86.5902170  48.3958740  92.8815710  86.0951400  48.1884700
  92.3823540  87.2692310  49.0034350  88.2150050  77.4623110  19.2774790
  88.1344100  76.5477720  19.0066500  87.8014470  77.9590180  18.5714500
  86.3468090  79.2402130  21.1584060  85.5710190  78.7602570  21.4482630
  86.9981020  78.5607780  20.9840220  90.3675520  83.6462320  19.9383190
  89.9057050  82.8749560  20.2670360  91.1801070  83.6728390  20.4435640
  78.7725870  74.5123830  15.8202210  77.8842570  74.8539800  15.7182090
  79.0567060  74.3124150  14.9283040  86.5938830  85.9320330  19.5587180
  85.9750270  86.3877830  18.9881620  87.4490610  86.0871790  19.1576880
  85.7877080  81.9159320  21.1654220  85.7185360  80.9749260  21.0043350
  86.5496940  82.0060730  21.7376790  86.8182250  74.7229700  21.3923150
  87.1947070  73.8501580  21.2796820  86.7201760  75.0588400  20.5013590
  80.9487260  73.0955330  16.8540590  81.0554010  73.9959060  17.1609350
  80.0379620  73.0473300  16.5635240  90.6006370  72.2180140  18.3251490
  91.4215990  71.7276710  18.3676970  90.6340450  72.8077800  19.0783330
  82.7894990  76.0641700  21.1865770  83.2973210  76.5622670  21.8270790
  83.3208230  75.2876900  21.0105130  94.8905920  74.2346890  24.8895120
  94.1858090  74.6228600  24.3710230  95.1563840  74.9297180  25.4916050
  81.0731090  70.7040260  25.4529190  81.0749530  71.2212650  24.6475090
  80.2435400  70.2270440  25.4299120  87.4602180  80.8159570  16.9519090
  86.8419450  81.2809020  16.3881810  87.9725430  81.5087050  17.3688600
  90.8367850  74.1580520  21.0979030  90.1323420  74.4465410  21.6782140
  91.1980010  74.9680630  20.7378590  80.7546420  72.4150220  23.4599640
  81.0963230  73.2592270  23.1653510  79.8162230  72.5633960  23.5764980
  92.4530630  83.7755650  23.3606510  91.7694150  84.4454760  23.3523180
  92.9924920  83.9736300  22.5951370  93.9054770  73.6035310  21.4888240
  92.9579680  73.6374290  21.6203670  94.2304760  74.4174260  21.8737600
  89.9889370  85.6199780  22.0751690  90.0016530  85.2162070  21.2073950
  89.4364590  86.3947070  21.9713120  91.2834790  82.3416000  17.1641860
  91.1731120  81.3990330  17.2891280  91.2803040  82.7031640  18.0504620
  89.3874810  80.5229620  23.4034300  89.8043600  80.3089730  22.5687760
  90.1114630  80.7802410  23.9742920  86.8255070  77.9681320  16.5204350
  85.8984350  77.9018700  16.7492820  86.9779890  78.9061450  16.4059590
  93.3336910  78.9216840  23.4950540  92.5055540  78.9909930  23.0200670
  93.9287390  79.5071150  23.0266370  90.8552360  79.5301620  17.0239600
  90.2364780  79.1921170  16.3765900  90.8376810  78.8861380  17.7318790
  82.8993410  82.1813620  21.4663290  82.6021700  81.5759090  20.7871070
  83.8493230  82.2190930  21.3552650  81.1440330  75.2689270  23.0823120
  81.6954920  75.3784610  22.3076370  81.6583840  75.6426870  23.7978350
  90.9879020  85.7545490  25.1286390  90.5109580  86.5617680  24.9359000
  90.3040810  85.1023820  25.2812600  81.9911840  81.9195310  28.1171090
  81.0940370  82.1435280  28.3644490  82.0164710  82.0430250  27.1682490
  80.8183060  78.7908630  26.6928460  80.6790830  79.6631430  27.0615860
  79.9364420  78.4481440  26.5476400  87.1412440  83.7084500  17.9993590
  87.5808350  84.4508830  17.5848980  87.0799330  83.9511070  18.9232550
  82.6163410  84.7330330  28.9013610  82.5878840  85.1373280  28.0342040
  82.4528380  83.8040690  28.7385210  92.6134200  70.0231240  12.3453390
  92.3006860  70.1158070  13.2452460  93.3746670  70.6012270  12.2950820
  79.1316340  77.3891040  16.8030730  79.0113940  78.1153130  16.1912000
  78.8217230  76.6193950  16.3258640  94.5678230  85.5157430  30.1977780
  95.0437950  85.9940320  30.8766860  95.1885390  85.4474920  29.4723280
  78.0149340  82.2606370  19.0205550  77.6077420  82.4020960  18.1659150
  78.9062350  81.9766530  18.8176760  87.8328220  86.4098280  25.9272600
  88.3472890  86.3206290  26.7295030  86.9897300  86.7557980  26.2200510
  89.8082620  86.6953620  15.3556600  89.6483760  86.4056560  16.2538430
  89.6429330  85.9193750  14.8201830  82.2871000  86.4752150  17.1328220
  82.1113480  85.5587690  16.9196020  81.4326740  86.8339440  17.3726020
  89.5108750  84.2041180  13.9154600  88.8173910  84.2018470  13.2556880
  90.2531610  83.7800500  13.4848770  89.0758680  85.8303890  17.9903090
  89.5315630  85.0493270  18.3041710  89.4151200  86.5410710  18.5344270
  93.8235490  74.7602740  28.3227530  93.2079760  75.2682410  27.7942990
  93.5031910  73.8601070  28.2653470  84.7138820  70.3536810  15.0660230
  84.0893000  70.3496680  15.7913540  84.6268940  69.4867770  14.6696200
  81.3894220  75.8559680  17.9135650  81.1635140  75.6396850  18.8182270
  80.6086750  76.2888140  17.5681620  87.2256850  74.4986590  18.5429580
  87.6186420  74.8158790  17.7298270  87.5873700  73.6198470  18.6574100
  76.2621020  71.0887390  20.7659780  75.9734070  71.6590250  21.4784760
  77.0066780  70.6091840  21.1291010  76.4491250  75.0307510  11.9762500
  76.3665920  75.9738270  12.1177490  76.0974310  74.8882420  11.0974850
  87.8111990  77.0892340  22.6380360  87.0793110  77.5979150  22.9870460
  87.4136330  76.2722320  22.3369140  84.2489380  73.7646540  21.0432850
  84.2525440  73.3236490  20.1937390  85.1440500  74.0863870  21.1504670
  88.2737900  72.5426020  22.0503300  88.2910640  72.9934670  22.8945150
  88.0253480  71.6431660  22.2636740  83.3231030  77.0759760  13.4322910
  82.7547930  76.6278010  12.8058820  84.0320030  77.4352540  12.8988060
  78.4000210  80.9771780  27.3089640  78.0155000  80.3365450  27.9072600
  78.7112400  81.6807900  27.8784370  84.5497350  77.8248320  22.7898260
  84.9167480  77.3506890  23.5359600  84.3602410  78.6989890  23.1306600
  77.4137840  72.5692010  18.9191730  77.1284760  72.2047680  19.7570350
  77.3516700  71.8372470  18.3054870  82.3396720  76.8656960  25.1082470
  82.0353790  77.7448940  25.3332830  83.2943180  76.9256750  25.1439910
  80.8678510  81.0717950  15.7049320  80.0940770  80.5315570  15.5448040
  81.5973140  80.5524560  15.3667080  91.6266490  80.0683310  21.4975710
  92.3465610  80.5638600  21.1071820  91.4248310  79.3901200  20.8529580
  87.0876430  71.4621270  15.6405100  86.2741040  70.9634440  15.5650410
  86.8938380  72.3019520  15.2241450  87.0085290  80.1392370  27.3844710
  86.9422600  79.2188040  27.1302300  86.3790430  80.2367810  28.0989350
  85.7985410  82.0064610  14.6155430  86.1401110  82.7506840  14.1198750
  84.9698120  82.3195730  14.9780260  86.9402020  82.9612940  27.1348510
  86.9546560  82.0293900  26.9167420  86.2327120  83.0472700  27.7738280
  93.1513230  79.6020280  26.4817090  92.4261420  80.1949060  26.2846480
  93.6788690  79.5943820  25.6830460  88.6812820  81.3280450  19.9800940
  89.0336640  80.7308580  19.3202310  87.7975150  81.0024680  20.1509190
  84.7676100  82.0878140  17.3871350  85.4547230  82.6347350  17.7678940
  83.9808520  82.6318870  17.4220960  84.0703310  79.0924170  16.9996710
  84.5266090  79.9029420  17.2256900  83.7191520  78.7747310  17.8315200
  86.3735920  84.6030510  24.2289010  87.0178140  84.8089890  24.9062430
  86.7365360  83.8418910  23.7759860  79.9715090  69.4361820  17.4719230
  79.8429720  69.4279720  18.4204150  79.1477110  69.7744910  17.1210240
  87.6468000  82.6062860  22.9466460  88.2890230  81.9056020  23.0598630
  88.1717350  83.3861300  22.7663350  91.4923720  82.8911480  12.6705600
  91.2661300  82.1741920  13.2630240  91.1019920  82.6423920  11.8327350
  89.4205620  83.4057760  26.1502520  89.7561860  83.9924450  26.8280440
  88.5005960  83.2750470  26.3800310  76.9709020  71.1952940  26.9325930
  76.2567540  71.3949860  27.5378540  77.3904060  70.4192510  27.3040730
  91.0739970  80.8083420  14.3319760  90.7861670  81.2696110  15.1197640
  91.8692140  80.3481190  14.6003980  77.2581610  85.1833200  27.9192460
  77.3672730  84.2427940  27.7787850  76.6062170  85.4487950  27.2706190
  85.2494200  83.4549090  29.3190580  84.9291070  82.7358330  29.8636270
  84.5752560  84.1304160  29.3926640  83.2908370  84.3009540  14.2623730
  83.2818470  85.0339230  13.6468240  82.3706730  84.0541120  14.3550690
  91.8309830  72.6432190  15.4914940  91.2022990  72.7477860  14.7773170
  91.3361750  72.8628970  16.2808820  86.2767970  84.3637780  12.9248920
  86.3779950  84.1601770  11.9950900  85.3769710  84.1096060  13.1296700
  83.7993860  74.9218140  16.9072820  83.0910010  75.3904480  17.3486430
  84.0838340  74.2640150  17.5418010  87.8309290  71.6468800  18.3468610
  87.7077070  71.6654930  17.3978120  88.7793850  71.6947740  18.4667010
  84.9186080  86.8824100  17.6196590  85.1727580  86.8445490  16.6975960
  83.9698560  86.7557430  17.6124840  90.9238660  77.8015980  19.1955100
  89.9828800  77.8166210  19.3702790  91.2382730  77.0151940  19.6415400
  80.9020300  79.4835580  12.7559060  81.6683570  79.3716940  13.3184490
  80.9794990  78.7873550  12.1035830  79.5967060  76.9160650  13.4391950
  79.6770650  75.9688160  13.5509350  80.4886810  77.2467530  13.5452610
  92.9264240  84.9724830  20.8709360  93.0511660  85.7956000  21.3433170
  93.7929800  84.7615560  20.5233510  80.3981770  87.0656040  20.5426490
  81.1344250  86.5171500  20.8135060  80.7822690  87.9312050  20.4032480
  79.4040050  86.2502110  29.7312070  80.2052780  86.5714160  30.1447470
  78.8891870  85.8897690  30.4531980  83.5084080  86.2386350  12.3652060
  84.3012690  86.5275180  11.9133850  82.9888430  85.8078520  11.6864540
  88.2404680  82.3581980  29.6787480  87.6342840  82.3813580  28.9383230
  87.9358790  81.6265020  30.2154730  89.6705050  86.0862270  28.2896890
  90.6226800  86.0020290  28.2397130  89.5233270  86.7503980  28.9630680
  92.5614250  85.4656480  13.7888800  92.2755760  85.0521620  12.9742980
  92.3633800  86.3944190  13.6689320  84.0261480  81.4589760  12.2294410
  83.9212120  80.8442110  12.9555790  83.8585700  80.9355650  11.4457420
  87.2664210  80.5209790  12.8336400  86.7174310  80.9679090  13.4779140
  87.8883470  80.0159040  13.3574070  91.3199150  81.8751890  28.7658660
  92.0608620  82.2127650  28.2626120  90.5571830  82.0443950  28.2128430
  82.9339330  79.4800710  14.7301700  83.3555750  79.3140580  15.5733090
  83.0590170  78.6700940  14.2356840  85.4466970  78.5038320  11.9778800
  85.9672630  77.7887340  11.6119950  86.0935370  79.1424190  12.2779310
  89.9944810  79.9266720  27.3013870  90.4085830  80.0811800  28.1504290
  89.0595810  80.0521940  27.4639650  90.4666980  77.2662880  29.3053020
  91.0487750  76.5115200  29.2173500  90.6428750  77.7970320  28.5284500
  84.7560040  79.8787200  25.2709800  85.1748150  80.7219930  25.0986040
  83.8368670  80.0159240  25.0416580  89.4311840  78.1640570  25.2310150
  88.9047060  78.6883190  24.6275290  89.7743180  78.7967960  25.8619880
  81.8298230  75.5533940  11.6759860  81.6287290  74.6901300  12.0373200
  81.6590280  75.4667300  10.7381460  82.6067460  86.1840210  26.3867530
  82.0688550  86.9086270  26.0676230  82.8601420  85.7070550  25.5964870
  89.3086540  70.3642170  14.2046740  89.5888830  69.5210070  14.5606160
  88.5352270  70.5965280  14.7185490  85.4629670  87.4191420  26.6454180
  85.3888370  88.3226560  26.9526550  84.5608510  87.1003320  26.6176250
  83.8465960  71.5969180  12.6493940  83.4987960  70.9193170  12.0696390
  84.0478730  71.1358690  13.4637330  86.0115000  86.5849930  14.2680540
  86.9065790  86.9234900  14.2899300  86.0432630  85.8629340  13.6404820
  79.6511160  81.9576980  12.4967540  80.0886030  82.5006650  13.1525120
  80.1358890  81.1323930  12.5063880  81.4618880  83.0775020  17.6089770
  81.1614420  82.9539990  18.5093680  81.3556370  82.2183610  17.2005500
  77.3547170  85.6136600  22.6869430  76.9178160  85.7937400  23.5193580
  77.9224850  86.3711220  22.5451150  92.9909350  85.1153600  26.9746740
  92.3911340  85.1746160  26.2310660  93.1203250  84.1758580  27.1043590
  94.2310800  82.8571420  12.3116450  93.4003760  82.9248070  12.7823680
  94.4082630  83.7475540  12.0083310  93.6867260  79.6018900  14.8150650
  94.4486170  80.1715550  14.9210340  93.7021630  79.0346100  15.5858960
  94.6927230  80.4569000  19.6592580  95.0636060  79.6736320  19.2528550
  95.3329160  81.1458100  19.4809880  91.6760990  81.8405580  25.0722900
  90.8620830  82.2702740  25.3348690  92.0835190  82.4523990  24.4591950
  93.7386430  79.8953270  11.9723170  94.0135270  80.8032150  11.8442390
  93.5497170  79.8315800  12.9085160  90.1362040  72.9198120  13.2676800
  90.5546920  72.7329100  12.4273460  89.8298100  72.0677170  13.5779730
  93.6351770  77.8322260  16.9652600  93.2595370  77.0650190  16.5333890
  92.9054890  78.2144960  17.4527530  93.0251390  76.9793780  26.5992120
  92.7937480  76.7506530  25.6990070  93.2855940  77.8993330  26.5537010
  76.4009680  75.3355760  14.9883640  75.4973760  75.5985960  14.8135300
  76.8850300  75.6066930  14.2083600  92.9102730  76.0579750  20.2659840
  93.4340210  75.5642400  19.6350010  93.4962150  76.1930110  21.0107410
  93.0892450  76.1419620  23.7879390  92.1395160  76.1083160  23.9024380
  93.2705460  77.0519730  23.5529160  78.9436890  74.3921300  12.8978020
  79.6528590  73.9704520  12.4125300  78.2276830  74.4596530  12.2661370
  78.2803240  69.6966820  21.8403290  78.9279430  69.1464200  21.3998450
  78.7005080  69.9509970  22.6619100  93.8289860  73.9514050  18.7389930
  93.7189140  73.7970090  19.6772200  94.5897450  73.4234990  18.4965340
  92.1755580  69.8908180  25.1972930  92.8127800  70.5042320  25.5632120
  92.3230470  69.9268840  24.2522160  94.7180130  71.7821970  11.9796070
  95.6429440  71.6503150  11.7714360  94.6955920  71.8614790  12.9332520
  94.7918620  72.5532630  14.6052780  93.9970120  72.4877750  15.1345690
  94.9961900  73.4883270  14.5938130  91.7337040  86.5924180  18.5991170
  92.3296110  86.2708750  17.9225590  91.9915190  86.1196000  19.3904440
  78.0335240  69.8522490  24.5828610  77.6850060  70.3086310  25.3486790
  77.7022940  68.9579620  24.6651040  79.6399610  83.0242090  28.7481800
  79.5969240  82.6535000  29.6296260  79.7710620  83.9619660  28.8883620
  94.6009800  86.5996060  25.1502160  94.1068080  86.9964930  24.4329290
  93.9923090  85.9745270  25.5439440  78.7055880  69.3798690  27.8579380
  79.2538870  69.1986740  27.0945490  78.7711190  68.5892800  28.3935690
  79.4787640  85.9704340  25.8679580  78.8847960  85.8389040  26.6069620
  79.4711480  85.1342480  25.4021680  92.2849250  87.2419480  22.4288900
  91.8252220  87.9935290  22.0546920  91.6561710  86.5225950  22.3703700
  82.7144970  85.5507720  21.6037030  83.2309990  84.9395080  21.0785290
  83.3642350  86.0536500  22.0948040  85.4540470  86.4416210  22.4306010
  85.7418280  86.1870510  21.5539020  85.9663690  85.8893570  23.0211580
  91.2238550  70.8829510  21.0551610  91.6646640  70.8274610  20.2073210
  90.9546140  71.7987520  21.1261790  93.0877120  70.5144750  19.0660430
  93.0265520  69.5705970  18.9191450  93.8669150  70.6224840  19.6113890
  78.0157890  70.4853890  15.5316240  78.7737250  70.5982770  14.9580270
  77.5535060  71.3223090  15.4859670  84.5571700  72.5993160  18.5218550
  83.7446210  72.2250050  18.1814430  85.0613340  71.8438240  18.8239740
  92.2031280  69.6657170  15.0341900  92.3981910  70.5640620  15.3009330
  91.4161150  69.4344250  15.5274850  82.5820880  70.7493080  17.1263600
  81.9523620  70.0480390  17.2933730  82.0426020  71.5097210  16.9096760
  85.5212830  87.3632310  29.7974210  86.4480140  87.1276580  29.8410170
  85.5063260  88.1904310  29.3160240  82.7076440  70.0277060  29.5616090
  82.4260710  70.5310660  28.7976910  83.0896140  69.2298810  29.1958220
  81.5985540  87.2952720  14.3483770  82.3304360  87.0112000  13.8007660
  81.8579210  87.0566000  15.2383150  80.7600330  83.4117450  14.3530100
  80.1309210  83.8802550  14.9015930  80.8748160  82.5666670  14.7876290
  92.0890390  86.5902170  29.6215250  92.8815710  86.0951400  29.4141210
  92.3823540  87.2692310  30.2290860  86.3468090  79.2402130   2.3840570
  85.5710190  78.7602570   2.6739140  86.9981020  78.5607780   2.2096730
  80.3633920  79.5521940   3.2616330  79.5318800  79.2970650   3.6612840
  80.9714900  79.6232710   3.9974250  80.3435180  83.5862030   3.4574350
  80.6463220  82.6959770   3.2784570  81.0878770  84.1432250   3.2296600
  76.7358880  77.1129480   2.9298420  77.3074990  76.3451680   2.9302060
  76.7360420  77.4118240   2.0205030  85.7877080  81.9159320   2.3910730
  85.7185360  80.9749260   2.2299860  86.5496940  82.0060730   2.9633300
  77.9783750  72.5213840   4.7167350  77.7986590  71.6239590   4.9970110
  77.5763830  73.0685710   5.3914300  86.8182250  74.7229700   2.6179660
  87.1947070  73.8501580   2.5053330  86.7201760  75.0588400   1.7270100
  78.5970420  75.0174340   3.3249690  79.2780530  75.2812710   3.9437090
  78.2818470  74.1775210   3.6587700  82.7894990  76.0641700   2.4122280
  83.2973210  76.5622670   3.0527300  83.3208230  75.2876900   2.2361640
  94.8905920  74.2346890   6.1151630  94.1858090  74.6228600   5.5966740
  95.1563840  74.9297180   6.7172560  81.0731090  70.7040260   6.6785700
  81.0749530  71.2212650   5.8731600  80.2435400  70.2270440   6.6555630
  82.3233940  80.3435440   4.8559200  81.9903320  80.9704360   5.4980270
  82.5000620  80.8697320   4.0760870  90.8367850  74.1580520   2.3235540
  90.1323420  74.4465410   2.9038650  91.1980010  74.9680630   1.9635100
  80.7546420  72.4150220   4.6856150  81.0963230  73.2592270   4.3910020
  79.8162230  72.5633960   4.8021490  81.5353040  82.3116240   6.6708380
  82.1527040  82.9867320   6.3892830  80.6746160  82.7204220   6.5795880
  92.4530630  83.7755650   4.5863020  91.7694150  84.4454760   4.5779690
  92.9924920  83.9736300   3.8207880  93.9054770  73.6035310   2.7144750
  92.9579680  73.6374290   2.8460180  94.2304760  74.4174260   3.0994110
  89.9889370  85.6199780   3.3008200  90.0016530  85.2162070   2.4330460
  89.4364590  86.3947070   3.1969630  89.3874810  80.5229620   4.6290810
  89.8043600  80.3089730   3.7944270  90.1114630  80.7802410   5.1999430
  93.3336910  78.9216840   4.7207050  92.5055540  78.9909930   4.2457180
  93.9287390  79.5071150   4.2522880  90.2978920  75.7086160   5.6661920
  89.8850100  76.5339870   5.9201910  89.5654870  75.1231200   5.4738280
  82.8993410  82.1813620   2.6919800  82.6021700  81.5759090   2.0127580
  83.8493230  82.2190930   2.5809160  81.1440330  75.2689270   4.3079630
  81.6954920  75.3784610   3.5332880  81.6583840  75.6426870   5.0234860
  90.9879020  85.7545490   6.3542900  90.5109580  86.5617680   6.1615510
  90.3040810  85.1023820   6.5069110  81.9911840  81.9195310   9.3427600
  81.0940370  82.1435280   9.5901000  82.0164710  82.0430250   8.3939000
  80.8183060  78.7908630   7.9184970  80.6790830  79.6631430   8.2872370
  79.9364420  78.4481440   7.7732910  82.6163410  84.7330330  10.1270120
  82.5878840  85.1373280   9.2598550  82.4528380  83.8040690   9.9641720
  94.5678230  85.5157430  11.4234290  95.0437950  85.9940320  12.1023370
  95.1885390  85.4474920  10.6979790  76.7701710  80.5606180   3.8355880
  76.8482130  80.6954950   2.8911600  77.3843390  79.8522070   4.0284000
  93.9711480  82.7070280   8.5834300  94.0974540  82.4682160   7.6651480
  94.0132860  81.8754820   9.0556380  87.8328220  86.4098280   7.1529110
  88.3472890  86.3206290   7.9551540  86.9897300  86.7557980   7.4457020
  93.8235490  74.7602740   9.5484040  93.2079760  75.2682410   9.0199500
  93.5031910  73.8601070   9.4909980  76.8261230  81.6020350   6.3750340
  76.9892270  81.1325710   5.5569710  77.2913680  81.0943910   7.0399180
  85.8849810  73.5994630   7.0146230  85.4229180  73.8077650   7.8266170
  85.4827920  72.7853980   6.7116900  90.8854320  74.8203580   8.1442890
  90.0347910  74.5209330   8.4651960  90.7256110  75.0645590   7.2326710
  87.9804030  76.3205330  10.2441680  88.3057440  75.4869080   9.9043910
  88.7684360  76.8433850  10.3920010  83.6355900  71.2773440   3.2700510
  83.9328230  72.1836270   3.1892530  84.1841460  70.7892220   2.6560080
  83.8293430  76.7545260   9.8052430  83.7337030  75.8139990   9.6552830
  84.6725410  76.9760330   9.4100500  78.9603970  73.1658930   7.9586210
  78.5667360  74.0134140   8.1658990  78.2722370  72.5285300   8.1494850
  76.2621020  71.0887390   1.9916290  75.9734070  71.6590250   2.7041270
  77.0066780  70.6091840   2.3547520  87.8111990  77.0892340   3.8636870
  87.0793110  77.5979150   4.2126970  87.4136330  76.2722320   3.5625650
  84.2489380  73.7646540   2.2689360  84.2525440  73.3236490   1.4193900
  85.1440500  74.0863870   2.3761180  88.2737900  72.5426020   3.2759810
  88.2910640  72.9934670   4.1201660  88.0253480  71.6431660   3.4893250
  91.7008650  69.9558200   9.1146190  92.0254420  69.2247860   9.6404170
  91.7365160  69.6371840   8.2127180  78.4000210  80.9771780   8.5346150
  78.0155000  80.3365450   9.1329110  78.7112400  81.6807900   9.1040880
  84.5497350  77.8248320   4.0154770  84.9167480  77.3506890   4.7616110
  84.3602410  78.6989890   4.3563110  82.3396720  76.8656960   6.3338980
  82.0353790  77.7448940   6.5589340  83.2943180  76.9256750   6.3696420
  91.6266490  80.0683310   2.7232220  92.3465610  80.5638600   2.3328330
  91.4248310  79.3901200   2.0786090  87.0085290  80.1392370   8.6101220
  86.9422600  79.2188040   8.3558810  86.3790430  80.2367810   9.3245860
  78.3960450  77.7059700   7.4810340  78.0375390  78.3713550   8.0683680
  78.1015010  76.8743250   7.8522960  81.5973570  78.1643940  10.3649890
  81.2973710  78.3101120   9.4677710  82.3684810  77.6049230  10.2723280
  86.9402020  82.9612940   8.3605020  86.9546560  82.0293900   8.1423930
  86.2327120  83.0472700   8.9994790  93.1513230  79.6020280   7.7073600
  92.4261420  80.1949060   7.5102990  93.6788690  79.5943820   6.9086970
  86.3735920  84.6030510   5.4545520  87.0178140  84.8089890   6.1318940
  86.7365360  83.8418910   5.0016370  87.6468000  82.6062860   4.1722970
  88.2890230  81.9056020   4.2855140  88.1717350  83.3861300   3.9919860
  89.4205620  83.4057760   7.3759030  89.7561860  83.9924450   8.0536950
  88.5005960  83.2750470   7.6056820  76.9709020  71.1952940   8.1582440
  76.2567540  71.3949860   8.7635050  77.3904060  70.4192510   8.5297240
  77.2581610  85.1833200   9.1448970  77.3672730  84.2427940   9.0044360
  76.6062170  85.4487950   8.4962700  85.2494200  83.4549090  10.5447090
  84.9291070  82.7358330  11.0892780  84.5752560  84.1304160  10.6183150
  88.4647800  73.6875250   5.9083890  88.8328620  72.8670460   6.2363460
  87.6046000  73.7477140   6.3239540  85.4249790  76.3414840   6.1321860
  85.9235040  76.8160660   6.7973710  85.5672740  75.4178360   6.3391890
  92.6316650  72.5582800   6.9750250  92.1290250  73.2988200   7.3144060
  93.4473310  72.9466800   6.6587040  92.9264240  84.9724830   2.0965870
  93.0511660  85.7956000   2.5689680  93.7929800  84.7615560   1.7490020
  80.3981770  87.0656040   1.7683000  81.1344250  86.5171500   2.0391570
  80.7822690  87.9312050   1.6288990  79.4040050  86.2502110  10.9568580
  80.2052780  86.5714160  11.3703980  78.8891870  85.8897690  11.6788490
  88.2404680  82.3581980  10.9043990  87.6342840  82.3813580  10.1639740
  87.9358790  81.6265020  11.4411240  89.6705050  86.0862270   9.5153400
  90.6226800  86.0020290   9.4653640  89.5233270  86.7503980  10.1887190
  84.1775800  80.1446560   9.4340150  83.4121470  80.7131560   9.3494820
  84.3591760  79.8522770   8.5408380  91.3199150  81.8751890   9.9915170
  92.0608620  82.2127650   9.4882630  90.5571830  82.0443950   9.4384940
  79.1560940  76.8805160  10.7954700  79.1966280  76.5819030  11.7039930
  80.0106440  77.2812770  10.6362220  81.0966750  75.4597260   8.7629190
  80.5663210  74.9688210   8.1352530  81.7654820  75.8881460   8.2287120
  89.9944810  79.9266720   8.5270380  90.4085830  80.0811800   9.3760800
  89.0595810  80.0521940   8.6896160  90.4666980  77.2662880  10.5309530
  91.0487750  76.5115200  10.4430010  90.6428750  77.7970320   9.7541010
  81.5839050  72.4259630   8.8426480  81.4895920  71.8080380   8.1177350
  81.0036440  73.1525920   8.6156390  84.3500490  70.9832870   5.8753870
  83.9017790  71.0057130   5.0299420  83.7165690  70.5851890   6.4724170
  84.7560040  79.8787200   6.4966310  85.1748150  80.7219930   6.3242550
  83.8368670  80.0159240   6.2673090  87.0923940  77.6103380   7.8804150
  87.2120150  77.0144520   8.6198990  87.9517940  77.6473070   7.4605450
  89.4311840  78.1640570   6.4566660  88.9047060  78.6883190   5.8531800
  89.7743180  78.7967960   7.0876390  82.6067460  86.1840210   7.6124040
  82.0688550  86.9086270   7.2932740  82.8601420  85.7070550   6.8221380
  83.8592710  74.1524730   9.1379970  84.4492400  73.8440580   9.8257790
  83.0412950  73.6804480   9.2939870  88.6786140  73.7690540   9.3712990
  87.9901660  73.1072080   9.3062980  89.3992160  73.3228810   9.8161450
  85.4629670  87.4191420   7.8710690  85.3888370  88.3226560   8.1783060
  84.5608510  87.1003320   7.8432760  77.3547170  85.6136600   3.9125940
  76.9178160  85.7937400   4.7450090  77.9224850  86.3711220   3.7707660
  92.9909350  85.1153600   8.2003250  92.3911340  85.1746160   7.4567170
  93.1203250  84.1758580   8.3300100  91.6760990  81.8405580   6.2979410
  90.8620830  82.2702740   6.5605200  92.0835190  82.4523990   5.6848460
  78.2247530  78.5109400   4.8118160  78.5920570  78.4236800   5.6914180
  77.6558350  77.7475950   4.7125020  93.0251390  76.9793780   7.8248630
  92.7937480  76.7506530   6.9246580  93.2855940  77.8993330   7.7793520
  77.7763530  75.4218490   8.7176580  76.8819580  75.3885250   9.0570290
  78.3161080  75.6205280   9.4827830  91.4639460  72.2050210  10.6028330
  92.3409640  72.2133610  10.9862330  91.4760300  71.4681050   9.9920680
  93.0892450  76.1419620   5.0135900  92.1395160  76.1083160   5.1280890
  93.2705460  77.0519730   4.7785670  78.2803240  69.6966820   3.0659800
  78.9279430  69.1464200   2.6254960  78.7005080  69.9509970   3.8875610
  92.1755580  69.8908180   6.4229440  92.8127800  70.5042320   6.7888630
  92.3230470  69.9268840   5.4778670  78.0335240  69.8522490   5.8085120
  77.6850060  70.3086310   6.5743300  77.7022940  68.9579620   5.8907550
  79.6399610  83.0242090   9.9738310  79.5969240  82.6535000  10.8552770
  79.7710620  83.9619660  10.1140130  83.3405640  84.5801680   5.5748030
  83.0997000  84.8476240   4.6878550  84.2808280  84.7507410   5.6298890
  85.5460060  71.0434370   9.3304540  85.4848950  71.6356200  10.0799950
  86.4860440  70.9360330   9.1854800  88.1834620  70.7004430   8.9696830
  88.7975030  71.0183720   8.3077910  88.7284180  70.2153020   9.5892690
  94.6009800  86.5996060   6.3758670  94.1068080  86.9964930   5.6585800
  93.9923090  85.9745270   6.7695950  78.7055880  69.3798690   9.0835890
  79.2538870  69.1986740   8.3202000  78.7711190  68.5892800   9.6192200
  79.4787640  85.9704340   7.0936090  78.8847960  85.8389040   7.8326130
  79.4711480  85.1342480   6.6278190  88.9242660  69.2636570   5.2966120
  88.0502500  69.5971680   5.0939050  88.8153410  68.7909750   6.1217990
  89.8314640  71.4707440   6.6807840  89.5028000  70.6559200   6.3009570
  90.7796940  71.4277250   6.5573530  92.2849250  87.2419480   3.6545410
  91.8252220  87.9935290   3.2803430  91.6561710  86.5225950   3.5960210
  79.1099870  83.3362720   6.0444130  78.3833930  82.7168010   5.9770080
  79.1709020  83.7303330   5.1742210  82.7144970  85.5507720   2.8293540
  83.2309990  84.9395080   2.3041800  83.3642350  86.0536500   3.3204550
  85.4540470  86.4416210   3.6562520  85.7418280  86.1870510   2.7795530
  85.9663690  85.8893570   4.2468090  86.6717480  70.1806410   4.2359030
  85.8889270  70.6551910   4.5155790  86.3780410  69.2761240   4.1272210
  91.2238550  70.8829510   2.2808120  91.6646640  70.8274610   1.4329720
  90.9546140  71.7987520   2.3518300  85.5212830  87.3632310  11.0230720
  86.4480140  87.1276580  11.0666680  85.5063260  88.1904310  10.5416750
  82.7076440  70.0277060  10.7872600  82.4260710  70.5310660  10.0233420
  83.0896140  69.2298810  10.4214730  89.3091900  69.4430640  11.3653070
  89.1957350  69.7625250  12.2604590  90.1261640  69.8443150  11.0690350
  92.0890390  86.5902170  10.8471760  92.8815710  86.0951400  10.6397720
  92.3823540  87.2692310  11.4547370  88.2150050  58.6879620 150.6979220
  88.1344100  57.7734230 150.4270930  87.8014470  59.1846690 149.9918930
  86.3468090  60.4658640 152.5788490  85.5710190  59.9859080 152.8687060
  86.9981020  59.7864290 152.4044650  90.3675520  64.8718830 151.3587620
  89.9057050  64.1006070 151.6874790  91.1801070  64.8984900 151.8640070
  78.7725870  55.7380340 147.2406640  77.8842570  56.0796310 147.1386520
  79.0567060  55.5380660 146.3487470  76.7358880  58.3385990 153.1246340
  77.3074990  57.5708190 153.1249980  76.7360420  58.6374750 152.2152950
  86.5938830  67.1576840 150.9791610  85.9750270  67.6134340 150.4086050
  87.4490610  67.3128300 150.5781310  85.7877080  63.1415830 152.5858650
  85.7185360  62.2005770 152.4247780  86.5496940  63.2317240 153.1581220
  86.8182250  55.9486210 152.8127580  87.1947070  55.0758090 152.7001250
  86.7201760  56.2844910 151.9218020  80.9487260  54.3211840 148.2745020
  81.0554010  55.2215570 148.5813780  80.0379620  54.2729810 147.9839670
  90.6006370  53.4436650 149.7455920  91.4215990  52.9533220 149.7881400
  90.6340450  54.0334310 150.4987760  87.4602180  62.0416080 148.3723520
  86.8419450  62.5065530 147.8086240  87.9725430  62.7343560 148.7893030
  90.8367850  55.3837030 152.5183460  90.1323420  55.6721920 153.0986570
  91.1980010  56.1937140 152.1583020  76.8285380  62.7272610 145.7463150
  76.4513360  63.2159710 145.0148050  77.0858450  63.3997890 146.3769680
  84.4374310  51.1289000 151.2048660  84.7449290  50.5735890 150.4884160
  83.5075010  51.2633460 151.0221650  91.2834790  63.5672510 148.5846290
  91.1731120  62.6246840 148.7095710  91.2803040  63.9288150 149.4709050
  86.8255070  59.1937830 147.9408780  85.8984350  59.1275210 148.1697250
  86.9779890  60.1317960 147.8264020  86.8124150  55.4654830 144.9375940
  85.8727820  55.6268790 145.0228400  87.1307410  56.1840510 144.3911930
  90.8552360  60.7558130 148.4444030  90.2364780  60.4177680 147.7970330
  90.8376810  60.1117890 149.1523220  82.4311710  59.7202570 150.7228510
  82.0268710  59.0079820 150.2274410  82.5174830  59.3755810 151.6116550
  82.8993410  63.4070130 152.8867720  82.6021700  62.8015600 152.2075500
  83.8493230  63.4447440 152.7757080  89.0317060  59.9944940 145.4516780
  89.4710340  59.1567370 145.3054600  89.7445480  60.6274340 145.5380920
  87.1412440  64.9341010 149.4198020  87.5808350  65.6765340 149.0053410
  87.0799330  65.1767580 150.3436980  92.6134200  51.2487750 143.7657820
  92.3006860  51.3414580 144.6656890  93.3746670  51.8268780 143.7155250
  79.1316340  58.6147550 148.2235160  79.0113940  59.3409640 147.6116430
  78.8217230  57.8450460 147.7463070  78.0149340  63.4862880 150.4409980
  77.6077420  63.6277470 149.5863580  78.9062350  63.2023040 150.2381190
  89.8082620  67.9210130 146.7761030  89.6483760  67.6313070 147.6742860
  89.6429330  67.1450260 146.2406260  82.2871000  67.7008660 148.5532650
  82.1113480  66.7844200 148.3400450  81.4326740  68.0595950 148.7930450
  89.5108750  65.4297690 145.3359030  88.8173910  65.4274980 144.6761310
  90.2531610  65.0057010 144.9053200  89.0758680  67.0560400 149.4107520
  89.5315630  66.2749780 149.7246140  89.4151200  67.7667220 149.9548700
  81.5980000  51.9582620 151.6058830  81.1548150  52.7392160 151.2743350
  82.1564990  52.2812510 152.3129770  84.7138820  51.5793320 146.4864660
  84.0893000  51.5753190 147.2117970  84.6268940  50.7124280 146.0900630
  81.3894220  57.0816190 149.3340080  81.1635140  56.8653360 150.2386700
  80.6086750  57.5144650 148.9886050  88.6191980  57.0879560 147.9330730
  88.0200870  57.8115360 147.7494350  89.1671590  57.0256340 147.1507180
  87.2256850  55.7243100 149.9634010  87.6186420  56.0415300 149.1502700
  87.5873700  54.8454980 150.0778530  76.2621020  52.3143900 152.1864210
  75.9734070  52.8846760 152.8989190  77.0066780  51.8348350 152.5495440
  76.4491250  56.2564020 143.3966930  76.3665920  57.1994780 143.5381920
  76.0974310  56.1138930 142.5179280  84.2489380  54.9903050 152.4637280
  84.2525440  54.5493000 151.6141820  85.1440500  55.3120380 152.5709100
  80.0991760  54.8729540 151.4231490  79.7591810  55.3504770 152.1798540
  79.3369080  54.4194660 151.0632590  84.3109530  55.9915130 145.4544040
  84.4322350  55.9501610 146.4029860  83.9258040  56.8539280 145.2990770
  83.3231030  58.3016270 144.8527340  82.7547930  57.8534520 144.2263250
  84.0320030  58.6609050 144.3192490  77.4137840  53.7948520 150.3396160
  77.1284760  53.4304190 151.1774780  77.3516700  53.0628980 149.7259300
  80.8678510  62.2974460 147.1253750  80.0940770  61.7572080 146.9652470
  81.5973140  61.7781070 146.7871510  91.6266490  61.2939820 152.9180140
  92.3465610  61.7895110 152.5276250  91.4248310  60.6157710 152.2734010
  87.0876430  52.6877780 147.0609530  86.2741040  52.1890950 146.9854840
  86.8938380  53.5276030 146.6445880  89.8024820  57.0597430 145.3571690
  90.6904440  57.3714660 145.1823030  89.7729910  56.1869680 144.9652270
  80.9115910  61.9654840 150.7632560  81.4294580  61.1623100 150.7089450
  80.4599930  61.9033980 151.6049390  85.7985410  63.2321120 146.0359860
  86.1401110  63.9763350 145.5403180  84.9698120  63.5452240 146.3984690
  92.0739090  58.3709270 144.8251550  91.9902810  58.8023490 143.9747990
  92.7933280  58.8307620 145.2578370  93.1026340  65.2251530 147.5533680
  92.4602500  64.5707150 147.8277400  92.7157000  65.6306620 146.7774350
  88.6812820  62.5536960 151.4005370  89.0336640  61.9565090 150.7406740
  87.7975150  62.2281190 151.5713620  84.7676100  63.3134650 148.8075780
  85.4547230  63.8603860 149.1883370  83.9808520  63.8575380 148.8425390
  76.9068500  58.9307470 144.2992860  77.7763350  59.2132270 144.5828780
  76.4158820  59.7443340 144.1841670  84.0703310  60.3180680 148.4201140
  84.5266090  61.1285930 148.6461330  83.7191520  60.0003820 149.2519630
  79.9715090  50.6618330 148.8923660  79.8429720  50.6536230 149.8408580
  79.1477110  51.0001420 148.5414670  91.4923720  64.1167990 144.0910030
  91.2661300  63.3998430 144.6834670  91.1019920  63.8680430 143.2531780
  77.2739750  68.1434850 144.8654490  77.6337390  68.7424190 144.2111760
  77.1332090  68.6894740 145.6389520  91.0739970  62.0339930 145.7524190
  90.7861670  62.4952620 146.5402070  91.8692140  61.5737700 146.0208410
  83.2908370  65.5266050 145.6828160  83.2818470  66.2595740 145.0672670
  82.3706730  65.2797630 145.7755120  78.8915010  60.7480940 146.4274920
  78.2842960  61.4879840 146.4370220  79.3664360  60.8380300 145.6013120
  91.8309830  53.8688700 146.9119370  91.2022990  53.9734370 146.1977600
  91.3361750  54.0885480 147.7013250  86.2767970  65.5894290 144.3453350
  86.3779950  65.3858280 143.4155330  85.3769710  65.3352570 144.5501130
  83.7993860  56.1474650 148.3277250  83.0910010  56.6160990 148.7690860
  84.0838340  55.4896660 148.9622440  87.8309290  52.8725310 149.7673040
  87.7077070  52.8911440 148.8182550  88.7793850  52.9204250 149.8871440
  84.9186080  68.1080610 149.0401020  85.1727580  68.0702000 148.1180390
  83.9698560  67.9813940 149.0329270  82.0028880  54.4559730 145.7027960
  82.8519410  54.8929880 145.6368150  81.6360150  54.7679990 146.5300020
  90.9238660  59.0272490 150.6159530  89.9828800  59.0422720 150.7907220
  91.2382730  58.2408450 151.0619830  80.9020300  60.7092090 144.1763490
  81.6683570  60.5973450 144.7388920  80.9794990  60.0130060 143.5240260
  79.5967060  58.1417160 144.8596380  79.6770650  57.1944670 144.9713780
  80.4886810  58.4724040 144.9657040  92.9264240  66.1981340 152.2913790
  93.0511660  67.0212510 152.7637600  93.7929800  65.9872070 151.9437940
  80.3981770  68.2912550 151.9630920  81.1344250  67.7428010 152.2339490
  80.7822690  69.1568560 151.8236910  77.2827250  64.3586120 147.8372430
  76.3567030  64.6007260 147.8277840  77.7483680  65.1860380 147.7157180
  83.5084080  67.4642860 143.7856490  84.3012690  67.7531690 143.3338280
  82.9888430  67.0335030 143.1068970  92.5614250  66.6912990 145.2093230
  92.2755760  66.2778130 144.3947410  92.3633800  67.6200700 145.0893750
  84.0261480  62.6846270 143.6498840  83.9212120  62.0698620 144.3760220
  83.8585700  62.1612160 142.8661850  87.2664210  61.7466300 144.2540830
  86.7174310  62.1935600 144.8983570  87.8883470  61.2415550 144.7778500
  82.9339330  60.7057220 146.1506130  83.3555750  60.5397090 146.9937520
  83.0590170  59.8957450 145.6561270  85.4466970  59.7294830 143.3983230
  85.9672630  59.0143850 143.0324380  86.0935370  60.3680700 143.6983740
  81.8298230  56.7790450 143.0964290  81.6287290  55.9157810 143.4577630
  81.6590280  56.6923810 142.1585890  89.3086540  51.5898680 145.6251170
  89.5888830  50.7466580 145.9810590  88.5352270  51.8221790 146.1389920
  80.6281030  53.8791070 143.0842170  80.9306930  53.8858500 142.1761320
  81.3675620  53.5288930 143.5809830  83.8465960  52.8225690 144.0698370
  83.4987960  52.1449680 143.4900820  84.0478730  52.3615200 144.8841760
  86.0115000  67.8106440 145.6884970  86.9065790  68.1491410 145.7103730
  86.0432630  67.0885850 145.0609250  79.6511160  63.1833490 143.9171970
  80.0886030  63.7263160 144.5729550  80.1358890  62.3580440 143.9268310
  76.8656960  65.9722520 151.3692230  77.1959970  65.1043580 151.1370870
  77.2947960  66.1781040 152.1997190  81.4618880  64.3031530 149.0294200
  81.1614420  64.1796500 149.9298110  81.3556370  63.4440120 148.6209930
  94.2310800  64.0827930 143.7320880  93.4003760  64.1504580 144.2028110
  94.4082630  64.9732050 143.4287740  93.6867260  60.8275410 146.2355080
  94.4486170  61.3972060 146.3414770  93.7021630  60.2602610 147.0063390
  77.1871600  59.3513340 150.4662740  76.5320440  59.0824980 149.8222440
  78.0249550  59.2417820 150.0164720  94.6927230  61.6825510 151.0797010
  95.0636060  60.8992830 150.6732980  95.3329160  62.3714610 150.9014310
  93.7386430  61.1209780 143.3927600  94.0135270  62.0288660 143.2646820
  93.5497170  61.0572310 144.3289590  90.1362040  54.1454630 144.6881230
  90.5546920  53.9585610 143.8477890  89.8298100  53.2933680 144.9984160
  93.6351770  59.0578770 148.3857030  93.2595370  58.2906700 147.9538320
  92.9054890  59.4401470 148.8731960  76.4009680  56.5612270 146.4088070
  75.4973760  56.8242470 146.2339730  76.8850300  56.8323440 145.6288030
  92.9102730  57.2836260 151.6864270  93.4340210  56.7898910 151.0554440
  93.4962150  57.4186620 152.4311840  78.9436890  55.6177810 144.3182450
  79.6528590  55.1961030 143.8329730  78.2276830  55.6853040 143.6865800
  78.5911050  51.6717140 143.3585100  79.3139180  52.2126080 143.6766320
  78.8635570  51.3980560 142.4826640  92.4002700  56.5409610 147.6256680
  92.8961820  56.3080480 148.4105560  92.2018770  55.7021450 147.2094320
  93.8289860  55.1770560 150.1594360  93.7189140  55.0226600 151.0976630
  94.5897450  54.6491500 149.9169770  94.7180130  53.0078480 143.4000500
  95.6429440  52.8759660 143.1918790  94.6955920  53.0871300 144.3536950
  94.7918620  53.7789140 146.0257210  93.9970120  53.7134260 146.5550120
  94.9961900  54.7139780 146.0142560  91.7337040  67.8180690 150.0195600
  92.3296110  67.4965260 149.3430020  91.9915190  67.3452510 150.8108870
  91.2238550  52.1086020 152.4756040  91.6646640  52.0531120 151.6277640
  90.9546140  53.0244030 152.5466220  93.0877120  51.7401260 150.4864860
  93.0265520  50.7962480 150.3395880  93.8669150  51.8481350 151.0318320
  77.3929870  67.8793620 149.4488810  77.2251910  67.2464300 150.1470700
  76.5264380  68.0853020 149.0983000  78.0157890  51.7110400 146.9520670
  78.7737250  51.8239280 146.3784700  77.5535060  52.5479600 146.9064100
  84.5571700  53.8249670 149.9422980  83.7446210  53.4506560 149.6018860
  85.0613340  53.0694750 150.2444170  89.0596680  50.4892120 151.1806050
  89.6626050  51.0612330 151.6554570  88.3189670  51.0531560 150.9579950
  92.2031280  50.8913680 146.4546330  92.3981910  51.7897130 146.7213760
  91.4161150  50.6600760 146.9479280  78.9992570  66.5726850 146.8938950
  78.4740190  66.9534880 146.1900910  78.9237150  67.1977620 147.6148660
  80.3883040  52.2374450 145.4922640  80.9175800  51.4504250 145.3630590
  81.0211360  52.9165640 145.7258170  82.5820880  51.9749590 148.5468030
  81.9523620  51.2736900 148.7138160  82.0426020  52.7353720 148.3301190
  93.7557890  68.1314390 148.2152890  93.9310080  67.4452130 147.5713810
  93.0579460  68.6561440 147.8229560  81.5985540  68.5209230 145.7688200
  82.3304360  68.2368510 145.2212090  81.8579210  68.2822510 146.6587580
  80.7600330  64.6373960 145.7734530  80.1309210  65.1059060 146.3220360
  80.8748160  63.7923180 146.2080720  80.3633920  60.7778450 134.6820760
  79.5318800  60.5227160 135.0817270  80.9714900  60.8489220 135.4178680
  80.3435180  64.8118540 134.8778780  80.6463220  63.9216280 134.6989000
  81.0878770  65.3688760 134.6501030  78.7725870  55.7380340 128.4663150
  77.8842570  56.0796310 128.3643030  79.0567060  55.5380660 127.5743980
  86.5938830  67.1576840 132.2048120  85.9750270  67.6134340 131.6342560
  87.4490610  67.3128300 131.8037820  85.7877080  63.1415830 133.8115160
  85.7185360  62.2005770 133.6504290  86.5496940  63.2317240 134.3837730
  77.9783750  53.7470350 136.1371780  77.7986590  52.8496100 136.4174540
  77.5763830  54.2942220 136.8118730  86.8182250  55.9486210 134.0384090
  87.1947070  55.0758090 133.9257760  86.7201760  56.2844910 133.1474530
  80.9487260  54.3211840 129.5001530  81.0554010  55.2215570 129.8070290
  80.0379620  54.2729810 129.2096180  90.6006370  53.4436650 130.9712430
  91.4215990  52.9533220 131.0137910  90.6340450  54.0334310 131.7244270
  78.5970420  56.2430850 134.7454120  79.2780530  56.5069220 135.3641520
  78.2818470  55.4031720 135.0792130  82.7894990  57.2898210 133.8326710
  83.2973210  57.7879180 134.4731730  83.3208230  56.5133410 133.6566070
  94.8905920  55.4603400 137.5356060  94.1858090  55.8485110 137.0171170
  95.1563840  56.1553690 138.1376990  81.0731090  51.9296770 138.0990130
  81.0749530  52.4469160 137.2936030  80.2435400  51.4526950 138.0760060
  82.3233940  61.5691950 136.2763630  81.9903320  62.1960870 136.9184700
  82.5000620  62.0953830 135.4965300  90.8367850  55.3837030 133.7439970
  90.1323420  55.6721920 134.3243080  91.1980010  56.1937140 133.3839530
  80.7546420  53.6406730 136.1060580  81.0963230  54.4848780 135.8114450
  79.8162230  53.7890470 136.2225920  93.9054770  54.8291820 134.1349180
  92.9579680  54.8630800 134.2664610  94.2304760  55.6430770 134.5198540
  84.4374310  51.1289000 132.4305170  84.7449290  50.5735890 131.7140670
  83.5075010  51.2633460 132.2478160  89.3874810  61.7486130 136.0495240
  89.8043600  61.5346240 135.2148700  90.1114630  62.0058920 136.6203860
  93.3336910  60.1473350 136.1411480  92.5055540  60.2166440 135.6661610
  93.9287390  60.7327660 135.6727310  90.2978920  56.9342670 137.0866350
  89.8850100  57.7596380 137.3406340  89.5654870  56.3487710 136.8942710
  82.8993410  63.4070130 134.1124230  82.6021700  62.8015600 133.4332010
  83.8493230  63.4447440 134.0013590  81.1440330  56.4945780 135.7284060
  81.6954920  56.6041120 134.9537310  81.6583840  56.8683380 136.4439290
  89.0317060  59.9944940 126.6773290  89.4710340  59.1567370 126.5311110
  89.7445480  60.6274340 126.7637430  80.8183060  60.0165140 139.3389400
  80.6790830  60.8887940 139.7076800  79.9364420  59.6737950 139.1937340
  87.1412440  64.9341010 130.6454530  87.5808350  65.6765340 130.2309920
  87.0799330  65.1767580 131.5693490  94.5678230  66.7413940 142.8438720
  95.0437950  67.2196830 143.5227800  95.1885390  66.6731430 142.1184220
  76.7701710  61.7862690 135.2560310  76.8482130  61.9211460 134.3116030
  77.3843390  61.0778580 135.4488430  78.0149340  63.4862880 131.6666490
  77.6077420  63.6277470 130.8120090  78.9062350  63.2023040 131.4637700
  87.8328220  67.6354790 138.5733540  88.3472890  67.5462800 139.3755970
  86.9897300  67.9814490 138.8661450  89.8082620  67.9210130 128.0017540
  89.6483760  67.6313070 128.8999370  89.6429330  67.1450260 127.4662770
  82.2871000  67.7008660 129.7789160  82.1113480  66.7844200 129.5656960
  81.4326740  68.0595950 130.0186960  89.5108750  65.4297690 126.5615540
  88.8173910  65.4274980 125.9017820  90.2531610  65.0057010 126.1309710
  89.0758680  67.0560400 130.6364030  89.5315630  66.2749780 130.9502650
  89.4151200  67.7667220 131.1805210  93.8235490  55.9859250 140.9688470
  93.2079760  56.4938920 140.4403930  93.5031910  55.0857580 140.9114410
  81.5980000  51.9582620 132.8315340  81.1548150  52.7392160 132.4999860
  82.1564990  52.2812510 133.5386280  85.8849810  54.8251140 138.4350660
  85.4229180  55.0334160 139.2470600  85.4827920  54.0110490 138.1321330
  90.8854320  56.0460090 139.5647320  90.0347910  55.7465840 139.8856390
  90.7256110  56.2902100 138.6531140  87.9804030  57.5461840 141.6646110
  88.3057440  56.7125590 141.3248340  88.7684360  58.0690360 141.8124440
  83.6355900  52.5029950 134.6904940  83.9328230  53.4092780 134.6096960
  84.1841460  52.0148730 134.0764510  83.8293430  57.9801770 141.2256860
  83.7337030  57.0396500 141.0757260  84.6725410  58.2016840 140.8304930
  87.2256850  55.7243100 131.1890520  87.6186420  56.0415300 130.3759210
  87.5873700  54.8454980 131.3035040  78.9603970  54.3915440 139.3790640
  78.5667360  55.2390650 139.5863420  78.2722370  53.7541810 139.5699280
  85.5349020  54.4750410 142.4487380  84.8447340  54.2822610 143.0833470
  86.2781320  54.7585050 142.9811680  76.4491250  56.2564020 124.6223440
  76.3665920  57.1994780 124.7638430  76.0974310  56.1138930 123.7435790
  87.8111990  58.3148850 135.2841300  87.0793110  58.8235660 135.6331400
  87.4136330  57.4978830 134.9830080  84.2489380  54.9903050 133.6893790
  84.2525440  54.5493000 132.8398330  85.1440500  55.3120380 133.7965610
  80.0991760  54.8729540 132.6488000  79.7591810  55.3504770 133.4055050
  79.3369080  54.4194660 132.2889100  88.2737900  53.7682530 134.6964240
  88.2910640  54.2191180 135.5406090  88.0253480  52.8688170 134.9097680
  83.3231030  58.3016270 126.0783850  82.7547930  57.8534520 125.4519760
  84.0320030  58.6609050 125.5449000  91.7008650  51.1814710 140.5350620
  92.0254420  50.4504370 141.0608600  91.7365160  50.8628350 139.6331610
  84.5497350  59.0504830 135.4359200  84.9167480  58.5763400 136.1820540
  84.3602410  59.9246400 135.7767540  77.4137840  53.7948520 131.5652670
  77.1284760  53.4304190 132.4031290  77.3516700  53.0628980 130.9515810
  82.3396720  58.0913470 137.7543410  82.0353790  58.9705450 137.9793770
  83.2943180  58.1513260 137.7900850  91.6266490  61.2939820 134.1436650
  92.3465610  61.7895110 133.7532760  91.4248310  60.6157710 133.4990520
  87.0085290  61.3648880 140.0305650  86.9422600  60.4444550 139.7763240
  86.3790430  61.4624320 140.7450290  89.8024820  57.0597430 126.5828200
  90.6904440  57.3714660 126.4079540  89.7729910  56.1869680 126.1908780
  78.3960450  58.9316210 138.9014770  78.0375390  59.5970060 139.4888110
  78.1015010  58.0999760 139.2727390  81.5973570  59.3900450 141.7854320
  81.2973710  59.5357630 140.8882140  82.3684810  58.8305740 141.6927710
  86.9402020  64.1869450 139.7809450  86.9546560  63.2550410 139.5628360
  86.2327120  64.2729210 140.4199220  92.0739090  58.3709270 126.0508060
  91.9902810  58.8023490 125.2004500  92.7933280  58.8307620 126.4834880
  93.1513230  60.8276790 139.1278030  92.4261420  61.4205570 138.9307420
  93.6788690  60.8200330 138.3291400  93.1026340  65.2251530 128.7790190
  92.4602500  64.5707150 129.0533910  92.7157000  65.6306620 128.0030860
  86.3735920  65.8287020 136.8749950  87.0178140  66.0346400 137.5523370
  86.7365360  65.0675420 136.4220800  79.9715090  50.6618330 130.1180170
  79.8429720  50.6536230 131.0665090  79.1477110  51.0001420 129.7671180
  87.6468000  63.8319370 135.5927400  88.2890230  63.1312530 135.7059570
  88.1717350  64.6117810 135.4124290  91.4923720  64.1167990 125.3166540
  91.2661300  63.3998430 125.9091180  91.1019920  63.8680430 124.4788290
  89.4205620  64.6314270 138.7963460  89.7561860  65.2180960 139.4741380
  88.5005960  64.5006980 139.0261250  76.9709020  52.4209450 139.5786870
  76.2567540  52.6206370 140.1839480  77.3904060  51.6449020 139.9501670
  91.0739970  62.0339930 126.9780700  90.7861670  62.4952620 127.7658580
  91.8692140  61.5737700 127.2464920  77.2581610  66.4089710 140.5653400
  77.3672730  65.4684450 140.4248790  76.6062170  66.6744460 139.9167130
  85.2494200  64.6805600 141.9651520  84.9291070  63.9614840 142.5097210
  84.5752560  65.3560670 142.0387580  83.2908370  65.5266050 126.9084670
  83.2818470  66.2595740 126.2929180  82.3706730  65.2797630 127.0011630
  88.4647800  54.9131760 137.3288320  88.8328620  54.0926970 137.6567890
  87.6046000  54.9733650 137.7443970  91.8309830  53.8688700 128.1375880
  91.2022990  53.9734370 127.4234110  91.3361750  54.0885480 128.9269760
  85.4249790  57.5671350 137.5526290  85.9235040  58.0417170 138.2178140
  85.5672740  56.6434870 137.7596320  87.8309290  52.8725310 130.9929550
  87.7077070  52.8911440 130.0439060  88.7793850  52.9204250 131.1127950
  84.9186080  68.1080610 130.2657530  85.1727580  68.0702000 129.3436900
  83.9698560  67.9813940 130.2585780  82.0028880  54.4559730 126.9284470
  82.8519410  54.8929880 126.8624660  81.6360150  54.7679990 127.7556530
  92.6316650  53.7839310 138.3954680  92.1290250  54.5244710 138.7348490
  93.4473310  54.1723310 138.0791470  90.9238660  59.0272490 131.8416040
  89.9828800  59.0422720 132.0163730  91.2382730  58.2408450 132.2876340
  80.9020300  60.7092090 125.4020000  81.6683570  60.5973450 125.9645430
  80.9794990  60.0130060 124.7496770  80.3981770  68.2912550 133.1887430
  81.1344250  67.7428010 133.4596000  80.7822690  69.1568560 133.0493420
  79.4040050  67.4758620 142.3773010  80.2052780  67.7970670 142.7908410
  78.8891870  67.1154200 143.0992920  88.2404680  63.5838490 142.3248420
  87.6342840  63.6070090 141.5844170  87.9358790  62.8521530 142.8615670
  89.6705050  67.3118780 140.9357830  90.6226800  67.2276800 140.8858070
  89.5233270  67.9760490 141.6091620  92.5614250  66.6912990 126.4349740
  92.2755760  66.2778130 125.6203920  92.3633800  67.6200700 126.3150260
  84.0261480  62.6846270 124.8755350  83.9212120  62.0698620 125.6016730
  83.8585700  62.1612160 124.0918360  84.1775800  61.3703070 140.8544580
  83.4121470  61.9388070 140.7699250  84.3591760  61.0779280 139.9612810
  87.2664210  61.7466300 125.4797340  86.7174310  62.1935600 126.1240080
  87.8883470  61.2415550 126.0035010  91.3199150  63.1008400 141.4119600
  92.0608620  63.4384160 140.9087060  90.5571830  63.2700460 140.8589370
  79.1560940  58.1061670 142.2159130  79.1966280  57.8075540 143.1244360
  80.0106440  58.5069280 142.0566650  81.0966750  56.6853770 140.1833620
  80.5663210  56.1944720 139.5556960  81.7654820  57.1137970 139.6491550
  85.4466970  59.7294830 124.6239740  85.9672630  59.0143850 124.2580890
  86.0935370  60.3680700 124.9240250  89.9944810  61.1523230 139.9474810
  90.4085830  61.3068310 140.7965230  89.0595810  61.2778450 140.1100590
  90.4666980  58.4919390 141.9513960  91.0487750  57.7371710 141.8634440
  90.6428750  59.0226830 141.1745440  81.5839050  53.6516140 140.2630910
  81.4895920  53.0336890 139.5381780  81.0036440  54.3782430 140.0360820
  84.3500490  52.2089380 137.2958300  83.9017790  52.2313640 136.4503850
  83.7165690  51.8108400 137.8928600  84.7560040  61.1043710 137.9170740
  85.1748150  61.9476440 137.7446980  83.8368670  61.2415750 137.6877520
  87.0923940  58.8359890 139.3008580  87.2120150  58.2401030 140.0403420
  87.9517940  58.8729580 138.8809880  89.4311840  59.3897080 137.8771090
  88.9047060  59.9139700 137.2736230  89.7743180  60.0224470 138.5080820
  81.8298230  56.7790450 124.3220800  81.6287290  55.9157810 124.6834140
  81.6590280  56.6923810 123.3842400  82.6067460  67.4096720 139.0328470
  82.0688550  68.1342780 138.7137170  82.8601420  66.9327060 138.2425810
  83.8592710  55.3781240 140.5584400  84.4492400  55.0697090 141.2462220
  83.0412950  54.9060990 140.7144300  88.6786140  54.9947050 140.7917420
  87.9901660  54.3328590 140.7267410  89.3992160  54.5485320 141.2365880
  89.3086540  51.5898680 126.8507680  89.5888830  50.7466580 127.2067100
  88.5352270  51.8221790 127.3646430  80.6281030  53.8791070 124.3098680
  80.9306930  53.8858500 123.4017830  81.3675620  53.5288930 124.8066340
  85.4629670  68.6447930 139.2915120  85.3888370  69.5483070 139.5987490
  84.5608510  68.3259830 139.2637190  83.8465960  52.8225690 125.2954880
  83.4987960  52.1449680 124.7157330  84.0478730  52.3615200 126.1098270
  79.6511160  63.1833490 125.1428480  80.0886030  63.7263160 125.7986060
  80.1358890  62.3580440 125.1524820  81.4618880  64.3031530 130.2550710
  81.1614420  64.1796500 131.1554620  81.3556370  63.4440120 129.8466440
  77.3547170  66.8393110 135.3330370  76.9178160  67.0193910 136.1654520
  77.9224850  67.5967730 135.1912090  94.2310800  64.0827930 124.9577390
  93.4003760  64.1504580 125.4284620  94.4082630  64.9732050 124.6544250
  93.6867260  60.8275410 127.4611590  94.4486170  61.3972060 127.5671280
  93.7021630  60.2602610 128.2319900  94.6927230  61.6825510 132.3053520
  95.0636060  60.8992830 131.8989490  95.3329160  62.3714610 132.1270820
  90.1362040  54.1454630 125.9137740  90.5546920  53.9585610 125.0734400
  89.8298100  53.2933680 126.2240670  93.6351770  59.0578770 129.6113540
  93.2595370  58.2906700 129.1794830  92.9054890  59.4401470 130.0988470
  78.2247530  59.7365910 136.2322590  78.5920570  59.6493310 137.1118610
  77.6558350  58.9732460 136.1329450  93.0251390  58.2050290 139.2453060
  92.7937480  57.9763040 138.3451010  93.2855940  59.1249840 139.1997950
  77.7763530  56.6475000 140.1381010  76.8819580  56.6141760 140.4774720
  78.3161080  56.8461790 140.9032260  91.4639460  53.4306720 142.0232760
  92.3409640  53.4390120 142.4066760  91.4760300  52.6937560 141.4125110
  92.9102730  57.2836260 132.9120780  93.4340210  56.7898910 132.2810950
  93.4962150  57.4186620 133.6568350  93.0892450  57.3676130 136.4340330
  92.1395160  57.3339670 136.5485320  93.2705460  58.2776240 136.1990100
  78.9436890  55.6177810 125.5438960  79.6528590  55.1961030 125.0586240
  78.2276830  55.6853040 124.9122310  92.4002700  56.5409610 128.8513190
  92.8961820  56.3080480 129.6362070  92.2018770  55.7021450 128.4350830
  78.2803240  50.9223330 134.4864230  78.9279430  50.3720710 134.0459390
  78.7005080  51.1766480 135.3080040  93.8289860  55.1770560 131.3850870
  93.7189140  55.0226600 132.3233140  94.5897450  54.6491500 131.1426280
  92.1755580  51.1164690 137.8433870  92.8127800  51.7298830 138.2093060
  92.3230470  51.1525350 136.8983100  94.7180130  53.0078480 124.6257010
  95.6429440  52.8759660 124.4175300  94.6955920  53.0871300 125.5793460
  94.7918620  53.7789140 127.2513720  93.9970120  53.7134260 127.7806630
  94.9961900  54.7139780 127.2399070  91.7337040  67.8180690 131.2452110
  92.3296110  67.4965260 130.5686530  91.9915190  67.3452510 132.0365380
  78.0335240  51.0779000 137.2289550  77.6850060  51.5342820 137.9947730
  77.7022940  50.1836130 137.3111980  83.3405640  65.8058190 136.9952460
  83.0997000  66.0732750 136.1082980  84.2808280  65.9763920 137.0503320
  85.5460060  52.2690880 140.7508970  85.4848950  52.8612710 141.5004380
  86.4860440  52.1616840 140.6059230  88.1834620  51.9260940 140.3901260
  88.7975030  52.2440230 139.7282340  88.7284180  51.4409530 141.0097120
  78.7055880  50.6055200 140.5040320  79.2538870  50.4243250 139.7406430
  78.7711190  49.8149310 141.0396630  79.4787640  67.1960850 138.5140520
  78.8847960  67.0645550 139.2530560  79.4711480  66.3598990 138.0482620
  88.9242660  50.4893080 136.7170550  88.0502500  50.8228190 136.5143480
  88.8153410  50.0166260 137.5422420  89.8314640  52.6963950 138.1012270
  89.5028000  51.8815710 137.7214000  90.7796940  52.6533760 137.9777960
  79.1099870  64.5619230 137.4648560  78.3833930  63.9424520 137.3974510
  79.1709020  64.9559840 136.5946640  82.7144970  66.7764230 134.2497970
  83.2309990  66.1651590 133.7246230  83.3642350  67.2793010 134.7408980
  85.4540470  67.6672720 135.0766950  85.7418280  67.4127020 134.1999960
  85.9663690  67.1150080 135.6672520  86.6717480  51.4062920 135.6563460
  85.8889270  51.8808420 135.9360220  86.3780410  50.5017750 135.5476640
  91.2238550  52.1086020 133.7012550  91.6646640  52.0531120 132.8534150
  90.9546140  53.0244030 133.7722730  93.0877120  51.7401260 131.7121370
  93.0265520  50.7962480 131.5652390  93.8669150  51.8481350 132.2574830
  84.5571700  53.8249670 131.1679490  83.7446210  53.4506560 130.8275370
  85.0613340  53.0694750 131.4700680  89.0596680  50.4892120 132.4062560
  89.6626050  51.0612330 132.8811080  88.3189670  51.0531560 132.1836460
  82.5820880  51.9749590 129.7724540  81.9523620  51.2736900 129.9394670
  82.0426020  52.7353720 129.5557700  85.5212830  68.5888820 142.4435150
  86.4480140  68.3533090 142.4871110  85.5063260  69.4160820 141.9621180
  93.7557890  68.1314390 129.4409400  93.9310080  67.4452130 128.7970320
  93.0579460  68.6561440 129.0486070  82.7076440  51.2533570 142.2077030
  82.4260710  51.7567170 141.4437850  83.0896140  50.4555320 141.8419160
  81.5985540  68.5209230 126.9944710  82.3304360  68.2368510 126.4468600
  81.8579210  68.2822510 127.8844090  80.7600330  64.6373960 126.9991040
  80.1309210  65.1059060 127.5476870  80.8748160  63.7923180 127.4337230
  89.3091900  50.6687150 142.7857500  89.1957350  50.9881760 143.6809020
  90.1261640  51.0699660 142.4894780  92.0890390  67.8158680 142.2676190
  92.8815710  67.3207910 142.0602150  92.3823540  68.4948820 142.8751800
  80.3633920  60.7778450 115.9077270  79.5318800  60.5227160 116.3073780
  80.9714900  60.8489220 116.6435190  80.3435180  64.8118540 116.1035290
  80.6463220  63.9216280 115.9245510  81.0878770  65.3688760 115.8757540
  78.7725870  55.7380340 109.6919660  77.8842570  56.0796310 109.5899540
  79.0567060  55.5380660 108.8000490  76.7358880  58.3385990 115.5759360
  77.3074990  57.5708190 115.5763000  76.7360420  58.6374750 114.6665970
  86.5938830  67.1576840 113.4304630  85.9750270  67.6134340 112.8599070
  87.4490610  67.3128300 113.0294330  77.9783750  53.7470350 117.3628290
  77.7986590  52.8496100 117.6431050  77.5763830  54.2942220 118.0375240
  86.8182250  55.9486210 115.2640600  87.1947070  55.0758090 115.1514270
  86.7201760  56.2844910 114.3731040  80.9487260  54.3211840 110.7258040
  81.0554010  55.2215570 111.0326800  80.0379620  54.2729810 110.4352690
  78.5970420  56.2430850 115.9710630  79.2780530  56.5069220 116.5898030
  78.2818470  55.4031720 116.3048640  82.7894990  57.2898210 115.0583220
  83.2973210  57.7879180 115.6988240  83.3208230  56.5133410 114.8822580
  94.8905920  55.4603400 118.7612570  94.1858090  55.8485110 118.2427680
  95.1563840  56.1553690 119.3633500  82.3233940  61.5691950 117.5020140
  81.9903320  62.1960870 118.1441210  82.5000620  62.0953830 116.7221810
  80.7546420  53.6406730 117.3317090  81.0963230  54.4848780 117.0370960
  79.8162230  53.7890470 117.4482430  81.5353040  63.5372750 119.3169320
  82.1527040  64.2123830 119.0353770  80.6746160  63.9460730 119.2256820
  91.2834790  63.5672510 111.0359310  91.1731120  62.6246840 111.1608730
  91.2803040  63.9288150 111.9222070  86.8124150  55.4654830 107.3888960
  85.8727820  55.6268790 107.4741420  87.1307410  56.1840510 106.8424950
  93.3336910  60.1473350 117.3667990  92.5055540  60.2166440 116.8918120
  93.9287390  60.7327660 116.8983820  82.4311710  59.7202570 113.1741530
  82.0268710  59.0079820 112.6787430  82.5174830  59.3755810 114.0629570
  82.8993410  63.4070130 115.3380740  82.6021700  62.8015600 114.6588520
  83.8493230  63.4447440 115.2270100  81.1440330  56.4945780 116.9540570
  81.6954920  56.6041120 116.1793820  81.6583840  56.8683380 117.6695800
  81.9911840  63.1451820 121.9888540  81.0940370  63.3691790 122.2361940
  82.0164710  63.2686760 121.0399940  89.0317060  59.9944940 107.9029800
  89.4710340  59.1567370 107.7567620  89.7445480  60.6274340 107.9893940
  80.8183060  60.0165140 120.5645910  80.6790830  60.8887940 120.9333310
  79.9364420  59.6737950 120.4193850  87.1412440  64.9341010 111.8711040
  87.5808350  65.6765340 111.4566430  87.0799330  65.1767580 112.7950000
  79.1316340  58.6147550 110.6748180  79.0113940  59.3409640 110.0629450
  78.8217230  57.8450460 110.1976090  94.5678230  66.7413940 124.0695230
  95.0437950  67.2196830 124.7484310  95.1885390  66.6731430 123.3440730
  76.7701710  61.7862690 116.4816820  76.8482130  61.9211460 115.5372540
  77.3843390  61.0778580 116.6744940  78.0149340  63.4862880 112.8923000
  77.6077420  63.6277470 112.0376600  78.9062350  63.2023040 112.6894210
  89.8082620  67.9210130 109.2274050  89.6483760  67.6313070 110.1255880
  89.6429330  67.1450260 108.6919280  82.2871000  67.7008660 111.0045670
  82.1113480  66.7844200 110.7913470  81.4326740  68.0595950 111.2443470
  89.5108750  65.4297690 107.7872050  88.8173910  65.4274980 107.1274330
  90.2531610  65.0057010 107.3566220  89.0758680  67.0560400 111.8620540
  89.5315630  66.2749780 112.1759160  89.4151200  67.7667220 112.4061720
  93.8235490  55.9859250 122.1944980  93.2079760  56.4938920 121.6660440
  93.5031910  55.0857580 122.1370920  76.8261230  62.8276860 119.0211280
  76.9892270  62.3582220 118.2030650  77.2913680  62.3200420 119.6860120
  85.8849810  54.8251140 119.6607170  85.4229180  55.0334160 120.4727110
  85.4827920  54.0110490 119.3577840  90.8854320  56.0460090 120.7903830
  90.0347910  55.7465840 121.1112900  90.7256110  56.2902100 119.8787650
  87.9804030  57.5461840 122.8902620  88.3057440  56.7125590 122.5504850
  88.7684360  58.0690360 123.0380950  81.3894220  57.0816190 111.7853100
  81.1635140  56.8653360 112.6899720  80.6086750  57.5144650 111.4399070
  83.8293430  57.9801770 122.4513370  83.7337030  57.0396500 122.3013770
  84.6725410  58.2016840 122.0561440  78.9603970  54.3915440 120.6047150
  78.5667360  55.2390650 120.8119930  78.2722370  53.7541810 120.7955790
  85.5349020  54.4750410 123.6743890  84.8447340  54.2822610 124.3089980
  86.2781320  54.7585050 124.2068190  76.2621020  52.3143900 114.6377230
  75.9734070  52.8846760 115.3502210  77.0066780  51.8348350 115.0008460
  76.4491250  56.2564020 105.8479950  76.3665920  57.1994780 105.9894940
  76.0974310  56.1138930 104.9692300  84.3109530  55.9915130 107.9057060
  84.4322350  55.9501610 108.8542880  83.9258040  56.8539280 107.7503790
  83.3231030  58.3016270 107.3040360  82.7547930  57.8534520 106.6776270
  84.0320030  58.6609050 106.7705510  78.4000210  62.2028290 121.1807090
  78.0155000  61.5621960 121.7790050  78.7112400  62.9064410 121.7501820
  84.5497350  59.0504830 116.6615710  84.9167480  58.5763400 117.4077050
  84.3602410  59.9246400 117.0024050  82.3396720  58.0913470 118.9799920
  82.0353790  58.9705450 119.2050280  83.2943180  58.1513260 119.0157360
  80.8678510  62.2974460 109.5766770  80.0940770  61.7572080 109.4165490
  81.5973140  61.7781070 109.2384530  80.9115910  61.9654840 113.2145580
  81.4294580  61.1623100 113.1602470  80.4599930  61.9033980 114.0562410
  85.7985410  63.2321120 108.4872880  86.1401110  63.9763350 107.9916200
  84.9698120  63.5452240 108.8497710  78.3960450  58.9316210 120.1271280
  78.0375390  59.5970060 120.7144620  78.1015010  58.0999760 120.4983900
  81.5973570  59.3900450 123.0110830  81.2973710  59.5357630 122.1138650
  82.3684810  58.8305740 122.9184220  92.0739090  58.3709270 107.2764570
  91.9902810  58.8023490 106.4261010  92.7933280  58.8307620 107.7091390
  93.1026340  65.2251530 110.0046700  92.4602500  64.5707150 110.2790420
  92.7157000  65.6306620 109.2287370  84.7676100  63.3134650 111.2588800
  85.4547230  63.8603860 111.6396390  83.9808520  63.8575380 111.2938410
  84.0703310  60.3180680 110.8714160  84.5266090  61.1285930 111.0974350
  83.7191520  60.0003820 111.7032650  91.4923720  64.1167990 106.5423050
  91.2661300  63.3998430 107.1347690  91.1019920  63.8680430 105.7044800
  91.0739970  62.0339930 108.2037210  90.7861670  62.4952620 108.9915090
  91.8692140  61.5737700 108.4721430  88.4647800  54.9131760 118.5544830
  88.8328620  54.0926970 118.8824400  87.6046000  54.9733650 118.9700480
  86.2767970  65.5894290 106.7966370  86.3779950  65.3858280 105.8668350
  85.3769710  65.3352570 107.0014150  83.7993860  56.1474650 110.7790270
  83.0910010  56.6160990 111.2203880  84.0838340  55.4896660 111.4135460
  85.4249790  57.5671350 118.7782800  85.9235040  58.0417170 119.4434650
  85.5672740  56.6434870 118.9852830  84.9186080  68.1080610 111.4914040
  85.1727580  68.0702000 110.5693410  83.9698560  67.9813940 111.4842290
  82.0028880  54.4559730 108.1540980  82.8519410  54.8929880 108.0881170
  81.6360150  54.7679990 108.9813040  92.6316650  53.7839310 119.6211190
  92.1290250  54.5244710 119.9605000  93.4473310  54.1723310 119.3047980
  80.9020300  60.7092090 106.6276510  81.6683570  60.5973450 107.1901940
  80.9794990  60.0130060 105.9753280  79.5967060  58.1417160 107.3109400
  79.6770650  57.1944670 107.4226800  80.4886810  58.4724040 107.4170060
  92.9264240  66.1981340 114.7426810  93.0511660  67.0212510 115.2150620
  93.7929800  65.9872070 114.3950960  80.3981770  68.2912550 114.4143940
  81.1344250  67.7428010 114.6852510  80.7822690  69.1568560 114.2749930
  92.5614250  66.6912990 107.6606250  92.2755760  66.2778130 106.8460430
  92.3633800  67.6200700 107.5406770  77.1237860  59.9632080 122.5465570
  77.6276880  59.3839360 123.1181800  76.3845280  60.2472310 123.0841940
  84.0261480  62.6846270 106.1011860  83.9212120  62.0698620 106.8273240
  83.8585700  62.1612160 105.3174870  84.1775800  61.3703070 122.0801090
  83.4121470  61.9388070 121.9955760  84.3591760  61.0779280 121.1869320
  87.2664210  61.7466300 106.7053850  86.7174310  62.1935600 107.3496590
  87.8883470  61.2415550 107.2291520  79.1560940  58.1061670 123.4415640
  79.1966280  57.8075540 124.3500870  80.0106440  58.5069280 123.2823160
  82.9339330  60.7057220 108.6019150  83.3555750  60.5397090 109.4450540
  83.0590170  59.8957450 108.1074290  81.0966750  56.6853770 121.4090130
  80.5663210  56.1944720 120.7813470  81.7654820  57.1137970 120.8748060
  85.4466970  59.7294830 105.8496250  85.9672630  59.0143850 105.4837400
  86.0935370  60.3680700 106.1496760  90.4666980  58.4919390 123.1770470
  91.0487750  57.7371710 123.0890950  90.6428750  59.0226830 122.4001950
  81.5839050  53.6516140 121.4887420  81.4895920  53.0336890 120.7638290
  81.0036440  54.3782430 121.2617330  84.3500490  52.2089380 118.5214810
  83.9017790  52.2313640 117.6760360  83.7165690  51.8108400 119.1185110
  84.7560040  61.1043710 119.1427250  85.1748150  61.9476440 118.9703490
  83.8368670  61.2415750 118.9134030  87.0923940  58.8359890 120.5265090
  87.2120150  58.2401030 121.2659930  87.9517940  58.8729580 120.1066390
  81.8298230  56.7790450 105.5477310  81.6287290  55.9157810 105.9090650
  81.6590280  56.6923810 104.6098910  83.8592710  55.3781240 121.7840910
  84.4492400  55.0697090 122.4718730  83.0412950  54.9060990 121.9400810
  88.6786140  54.9947050 122.0173930  87.9901660  54.3328590 121.9523920
  89.3992160  54.5485320 122.4622390  80.6281030  53.8791070 105.5355190
  80.9306930  53.8858500 104.6274340  81.3675620  53.5288930 106.0322850
  86.0115000  67.8106440 108.1397990  86.9065790  68.1491410 108.1616750
  86.0432630  67.0885850 107.5122270  81.4618880  64.3031530 111.4807220
  81.1614420  64.1796500 112.3811130  81.3556370  63.4440120 111.0722950
  77.3547170  66.8393110 116.5586880  76.9178160  67.0193910 117.3911030
  77.9224850  67.5967730 116.4168600  92.9909350  66.3410110 120.8464190
  92.3911340  66.4002670 120.1028110  93.1203250  65.4015090 120.9761040
  94.2310800  64.0827930 106.1833900  93.4003760  64.1504580 106.6541130
  94.4082630  64.9732050 105.8800760  93.6867260  60.8275410 108.6868100
  94.4486170  61.3972060 108.7927790  93.7021630  60.2602610 109.4576410
  77.1871600  59.3513340 112.9175760  76.5320440  59.0824980 112.2735460
  78.0249550  59.2417820 112.4677740  94.6927230  61.6825510 113.5310030
  95.0636060  60.8992830 113.1246000  95.3329160  62.3714610 113.3527330
  93.7386430  61.1209780 105.8440620  94.0135270  62.0288660 105.7159840
  93.5497170  61.0572310 106.7802610  78.2247530  59.7365910 117.4579100
  78.5920570  59.6493310 118.3375120  77.6558350  58.9732460 117.3585960
  93.0251390  58.2050290 120.4709570  92.7937480  57.9763040 119.5707520
  93.2855940  59.1249840 120.4254460  76.4009680  56.5612270 108.8601090
  75.4973760  56.8242470 108.6852750  76.8850300  56.8323440 108.0801050
  78.9436890  55.6177810 106.7695470  79.6528590  55.1961030 106.2842750
  78.2276830  55.6853040 106.1378820  78.5911050  51.6717140 105.8098120
  79.3139180  52.2126080 106.1279340  78.8635570  51.3980560 104.9339660
  78.2803240  50.9223330 115.7120740  78.9279430  50.3720710 115.2715900
  78.7005080  51.1766480 116.5336550  92.1755580  51.1164690 119.0690380
  92.8127800  51.7298830 119.4349570  92.3230470  51.1525350 118.1239610
  91.7337040  67.8180690 112.4708620  92.3296110  67.4965260 111.7943040
  91.9915190  67.3452510 113.2621890  85.5460060  52.2690880 121.9765480
  85.4848950  52.8612710 122.7260890  86.4860440  52.1616840 121.8315740
  88.1834620  51.9260940 121.6157770  88.7975030  52.2440230 120.9538850
  88.7284180  51.4409530 122.2353630  94.6009800  67.8252570 119.0219610
  94.1068080  68.2221440 118.3046740  93.9923090  67.2001780 119.4156890
  79.4787640  67.1960850 119.7397030  78.8847960  67.0645550 120.4787070
  79.4711480  66.3598990 119.2739130  89.8314640  52.6963950 119.3268780
  89.5028000  51.8815710 118.9470510  90.7796940  52.6533760 119.2034470
  92.2849250  68.4675990 116.3006350  91.8252220  69.2191800 115.9264370
  91.6561710  67.7482460 116.2421150  79.1099870  64.5619230 118.6905070
  78.3833930  63.9424520 118.6231020  79.1709020  64.9559840 117.8203150
  82.7144970  66.7764230 115.4754480  83.2309990  66.1651590 114.9502740
  83.3642350  67.2793010 115.9665490  85.4540470  67.6672720 116.3023460
  85.7418280  67.4127020 115.4256470  85.9663690  67.1150080 116.8929030
  77.3929870  67.8793620 111.9001830  77.2251910  67.2464300 112.5983720
  76.5264380  68.0853020 111.5496020  93.7557890  68.1314390 110.6665910
  93.9310080  67.4452130 110.0226830  93.0579460  68.6561440 110.2742580
  82.7076440  51.2533570 123.4333540  82.4260710  51.7567170 122.6694360
  83.0896140  50.4555320 123.0675670  92.0890390  67.8158680 123.4932700
  92.8815710  67.3207910 123.2858660  92.3823540  68.4948820 124.1008310
  88.2150050  58.6879620  94.3748750  88.1344100  57.7734230  94.1040460
  87.8014470  59.1846690  93.6688460  86.3468090  60.4658640  96.2558020
  85.5710190  59.9859080  96.5456590  86.9981020  59.7864290  96.0814180
  90.3675520  64.8718830  95.0357150  89.9057050  64.1006070  95.3644320
  91.1801070  64.8984900  95.5409600  85.7877080  63.1415830  96.2628180
  85.7185360  62.2005770  96.1017310  86.5496940  63.2317240  96.8350750
  77.9783750  53.7470350  98.5884800  77.7986590  52.8496100  98.8687560
  77.5763830  54.2942220  99.2631750  86.8182250  55.9486210  96.4897110
  87.1947070  55.0758090  96.3770780  86.7201760  56.2844910  95.5987550
  90.6006370  53.4436650  93.4225450  91.4215990  52.9533220  93.4650930
  90.6340450  54.0334310  94.1757290  82.7894990  57.2898210  96.2839730
  83.2973210  57.7879180  96.9244750  83.3208230  56.5133410  96.1079090
  81.0731090  51.9296770 100.5503150  81.0749530  52.4469160  99.7449050
  80.2435400  51.4526950 100.5273080  87.4602180  62.0416080  92.0493050
  86.8419450  62.5065530  91.4855770  87.9725430  62.7343560  92.4662560
  82.3233940  61.5691950  98.7276650  81.9903320  62.1960870  99.3697720
  82.5000620  62.0953830  97.9478320  90.8367850  55.3837030  96.1952990
  90.1323420  55.6721920  96.7756100  91.1980010  56.1937140  95.8352550
  80.7546420  53.6406730  98.5573600  81.0963230  54.4848780  98.2627470
  79.8162230  53.7890470  98.6738940  92.4530630  65.0012160  98.4580470
  91.7694150  65.6711270  98.4497140  92.9924920  65.1992810  97.6925330
  93.9054770  54.8291820  96.5862200  92.9579680  54.8630800  96.7177630
  94.2304760  55.6430770  96.9711560  84.4374310  51.1289000  94.8818190
  84.7449290  50.5735890  94.1653690  83.5075010  51.2633460  94.6991180
  89.9889370  66.8456290  97.1725650  90.0016530  66.4418580  96.3047910
  89.4364590  67.6203580  97.0687080  91.2834790  63.5672510  92.2615820
  91.1731120  62.6246840  92.3865240  91.2803040  63.9288150  93.1478580
  89.3874810  61.7486130  98.5008260  89.8043600  61.5346240  97.6661720
  90.1114630  62.0058920  99.0716880  86.8255070  59.1937830  91.6178310
  85.8984350  59.1275210  91.8466780  86.9779890  60.1317960  91.5033550
  90.8552360  60.7558130  92.1213560  90.2364780  60.4177680  91.4739860
  90.8376810  60.1117890  92.8292750  81.1440330  56.4945780  98.1797080
  81.6954920  56.6041120  97.4050330  81.6583840  56.8683380  98.8952310
  90.9879020  66.9802000 100.2260350  90.5109580  67.7874190 100.0332960
  90.3040810  66.3280330 100.3786560  87.1412440  64.9341010  93.0967550
  87.5808350  65.6765340  92.6822940  87.0799330  65.1767580  94.0206510
  92.6134200  51.2487750  87.4427350  92.3006860  51.3414580  88.3426420
  93.3746670  51.8268780  87.3924780  94.5678230  66.7413940 105.2951740
  95.0437950  67.2196830 105.9740820  95.1885390  66.6731430 104.5697240
  93.9711480  63.9326790 102.4551750  94.0974540  63.6938670 101.5368930
  94.0132860  63.1011330 102.9273830  93.8235490  55.9859250 103.4201490
  93.2079760  56.4938920 102.8916950  93.5031910  55.0857580 103.3627430
  81.5980000  51.9582620  95.2828360  81.1548150  52.7392160  94.9512880
  82.1564990  52.2812510  95.9899300  84.7138820  51.5793320  90.1634190
  84.0893000  51.5753190  90.8887500  84.6268940  50.7124280  89.7670160
  83.6355900  52.5029950  97.1417960  83.9328230  53.4092780  97.0609980
  84.1841460  52.0148730  96.5277530  88.6191980  57.0879560  91.6100260
  88.0200870  57.8115360  91.4263880  89.1671590  57.0256340  90.8276710
  87.2256850  55.7243100  93.6403540  87.6186420  56.0415300  92.8272230
  87.5873700  54.8454980  93.7548060  78.9603970  54.3915440 101.8303660
  78.5667360  55.2390650 102.0376440  78.2722370  53.7541810 102.0212300
  87.8111990  58.3148850  97.7354320  87.0793110  58.8235660  98.0844420
  87.4136330  57.4978830  97.4343100  84.2489380  54.9903050  96.1406810
  84.2525440  54.5493000  95.2911350  85.1440500  55.3120380  96.2478630
  80.0991760  54.8729540  95.1001020  79.7591810  55.3504770  95.8568070
  79.3369080  54.4194660  94.7402120  84.3109530  55.9915130  89.1313570
  84.4322350  55.9501610  90.0799390  83.9258040  56.8539280  88.9760300
  88.2737900  53.7682530  97.1477260  88.2910640  54.2191180  97.9919110
  88.0253480  52.8688170  97.3610700  84.5497350  59.0504830  97.8872220
  84.9167480  58.5763400  98.6333560  84.3602410  59.9246400  98.2280560
  77.4137840  53.7948520  94.0165690  77.1284760  53.4304190  94.8544310
  77.3516700  53.0628980  93.4028830  82.3396720  58.0913470 100.2056430
  82.0353790  58.9705450 100.4306790  83.2943180  58.1513260 100.2413870
  91.6266490  61.2939820  96.5949670  92.3465610  61.7895110  96.2045780
  91.4248310  60.6157710  95.9503540  87.0876430  52.6877780  90.7379060
  86.2741040  52.1890950  90.6624370  86.8938380  53.5276030  90.3215410
  87.0085290  61.3648880 102.4818670  86.9422600  60.4444550 102.2276260
  86.3790430  61.4624320 103.1963310  89.8024820  57.0597430  89.0341220
  90.6904440  57.3714660  88.8592560  89.7729910  56.1869680  88.6421800
  78.3960450  58.9316210 101.3527790  78.0375390  59.5970060 101.9401130
  78.1015010  58.0999760 101.7240410  81.5973570  59.3900450 104.2367340
  81.2973710  59.5357630 103.3395160  82.3684810  58.8305740 104.1440730
  86.9402020  64.1869450 102.2322470  86.9546560  63.2550410 102.0141380
  86.2327120  64.2729210 102.8712240  92.0739090  58.3709270  88.5021080
  91.9902810  58.8023490  87.6517520  92.7933280  58.8307620  88.9347900
  93.1513230  60.8276790 101.5791050  92.4261420  61.4205570 101.3820440
  93.6788690  60.8200330 100.7804420  88.6812820  62.5536960  95.0774900
  89.0336640  61.9565090  94.4176270  87.7975150  62.2281190  95.2483150
  84.0703310  60.3180680  92.0970670  84.5266090  61.1285930  92.3230860
  83.7191520  60.0003820  92.9289160  79.9715090  50.6618330  92.5693190
  79.8429720  50.6536230  93.5178110  79.1477110  51.0001420  92.2184200
  89.4205620  64.6314270 101.2476480  89.7561860  65.2180960 101.9254400
  88.5005960  64.5006980 101.4774270  85.2494200  64.6805600 104.4164540
  84.9291070  63.9614840 104.9610230  84.5752560  65.3560670 104.4900600
  91.8309830  53.8688700  90.5888900  91.2022990  53.9734370  89.8747130
  91.3361750  54.0885480  91.3782780  83.7993860  56.1474650  92.0046780
  83.0910010  56.6160990  92.4460390  84.0838340  55.4896660  92.6391970
  87.8309290  52.8725310  93.4442570  87.7077070  52.8911440  92.4952080
  88.7793850  52.9204250  93.5640970  90.9238660  59.0272490  94.2929060
  89.9828800  59.0422720  94.4676750  91.2382730  58.2408450  94.7389360
  92.9264240  66.1981340  95.9683320  93.0511660  67.0212510  96.4407130
  93.7929800  65.9872070  95.6207470  88.2404680  63.5838490 104.7761440
  87.6342840  63.6070090 104.0357190  87.9358790  62.8521530 105.3128690
  89.6705050  67.3118780 103.3870850  90.6226800  67.2276800 103.3371090
  89.5233270  67.9760490 104.0604640  84.1775800  61.3703070 103.3057600
  83.4121470  61.9388070 103.2212270  84.3591760  61.0779280 102.4125830
  91.3199150  63.1008400 103.8632620  92.0608620  63.4384160 103.3600080
  90.5571830  63.2700460 103.3102390  79.1560940  58.1061670 104.6672150
  79.1966280  57.8075540 105.5757380  80.0106440  58.5069280 104.5079670
  89.9944810  61.1523230 102.3987830  90.4085830  61.3068310 103.2478250
  89.0595810  61.2778450 102.5613610  90.4666980  58.4919390 104.4026980
  91.0487750  57.7371710 104.3147460  90.6428750  59.0226830 103.6258460
  84.7560040  61.1043710 100.3683760  85.1748150  61.9476440 100.1960000
  83.8368670  61.2415750 100.1390540  89.4311840  59.3897080 100.3284110
  88.9047060  59.9139700  99.7249250  89.7743180  60.0224470 100.9593840
  89.3086540  51.5898680  89.3020700  89.5888830  50.7466580  89.6580120
  88.5352270  51.8221790  89.8159450  83.8465960  52.8225690  87.7467900
  83.4987960  52.1449680  87.1670350  84.0478730  52.3615200  88.5611290
  92.9909350  66.3410110 102.0720700  92.3911340  66.4002670 101.3284620
  93.1203250  65.4015090 102.2017550  93.6867260  60.8275410  89.9124610
  94.4486170  61.3972060  90.0184300  93.7021630  60.2602610  90.6832920
  94.6927230  61.6825510  94.7566540  95.0636060  60.8992830  94.3502510
  95.3329160  62.3714610  94.5783840  91.6760990  63.0662090 100.1696860
  90.8620830  63.4959250 100.4322650  92.0835190  63.6780500  99.5565910
  93.7386430  61.1209780  87.0697130  94.0135270  62.0288660  86.9416350
  93.5497170  61.0572310  88.0059120  90.1362040  54.1454630  88.3650760
  90.5546920  53.9585610  87.5247420  89.8298100  53.2933680  88.6753690
  93.6351770  59.0578770  92.0626560  93.2595370  58.2906700  91.6307850
  92.9054890  59.4401470  92.5501490  93.0251390  58.2050290 101.6966080
  92.7937480  57.9763040 100.7964030  93.2855940  59.1249840 101.6510970
  77.7763530  56.6475000 102.5894030  76.8819580  56.6141760 102.9287740
  78.3161080  56.8461790 103.3545280  92.9102730  57.2836260  95.3633800
  93.4340210  56.7898910  94.7323970  93.4962150  57.4186620  96.1081370
  92.4002700  56.5409610  91.3026210  92.8961820  56.3080480  92.0875090
  92.2018770  55.7021450  90.8863850  78.2803240  50.9223330  96.9377250
  78.9279430  50.3720710  96.4972410  78.7005080  51.1766480  97.7593060
  93.8289860  55.1770560  93.8363890  93.7189140  55.0226600  94.7746160
  94.5897450  54.6491500  93.5939300  94.7180130  53.0078480  87.0770030
  95.6429440  52.8759660  86.8688320  94.6955920  53.0871300  88.0306480
  94.7918620  53.7789140  89.7026740  93.9970120  53.7134260  90.2319650
  94.9961900  54.7139780  89.6912090  91.7337040  67.8180690  93.6965130
  92.3296110  67.4965260  93.0199550  91.9915190  67.3452510  94.4878400
  94.6009800  67.8252570 100.2476120  94.1068080  68.2221440  99.5303250
  93.9923090  67.2001780 100.6413400  92.2849250  68.4675990  97.5262860
  91.8252220  69.2191800  97.1520880  91.6561710  67.7482460  97.4677660
  86.6717480  51.4062920  98.1076480  85.8889270  51.8808420  98.3873240
  86.3780410  50.5017750  97.9989660  78.0157890  51.7110400  90.6290200
  78.7737250  51.8239280  90.0554230  77.5535060  52.5479600  90.5833630
  84.5571700  53.8249670  93.6192510  83.7446210  53.4506560  93.2788390
  85.0613340  53.0694750  93.9213700  89.0596680  50.4892120  94.8575580
  89.6626050  51.0612330  95.3324100  88.3189670  51.0531560  94.6349480
  92.2031280  50.8913680  90.1315860  92.3981910  51.7897130  90.3983290
  91.4161150  50.6600760  90.6248810  80.3883040  52.2374450  89.1692170
  80.9175800  51.4504250  89.0400120  81.0211360  52.9165640  89.4027700
  82.5820880  51.9749590  92.2237560  81.9523620  51.2736900  92.3907690
  82.0426020  52.7353720  92.0070720  93.7557890  68.1314390  91.8922420
  93.9310080  67.4452130  91.2483340  93.0579460  68.6561440  91.4999090
  82.7076440  51.2533570 104.6590050  82.4260710  51.7567170 103.8950870
  83.0896140  50.4555320 104.2932180  92.0890390  67.8158680 104.7189210
  92.8815710  67.3207910 104.5115170  92.3823540  68.4948820 105.3264820
  94.8905920  55.4603400  81.2125590  94.1858090  55.8485110  80.6940700
  95.1563840  56.1553690  81.8146520  93.9054770  54.8291820  77.8118710
  92.9579680  54.8630800  77.9434140  94.2304760  55.6430770  78.1968070
  93.8235490  55.9859250  84.6458000  93.2079760  56.4938920  84.1173460
  93.5031910  55.0857580  84.5883940  90.8854320  56.0460090  83.2416850
  90.0347910  55.7465840  83.5625920  90.7256110  56.2902100  82.3300670
  91.7008650  51.1814710  84.2120150  92.0254420  50.4504370  84.7378130
  91.7365160  50.8628350  83.3101140  92.6316650  53.7839310  82.0724210
  92.1290250  54.5244710  82.4118020  93.4473310  54.1723310  81.7561000
  93.0251390  58.2050290  82.9222590  92.7937480  57.9763040  82.0220540
  93.2855940  59.1249840  82.8767480  91.4639460  53.4306720  85.7002290
  92.3409640  53.4390120  86.0836290  91.4760300  52.6937560  85.0894640
  92.1755580  51.1164690  81.5203400  92.8127800  51.7298830  81.8862590
  92.3230470  51.1525350  80.5752630  93.7557890  68.1314390  73.1178930
  93.9310080  67.4452130  72.4739850  93.0579460  68.6561440  72.7255600
  89.3091900  50.6687150  86.4627030  89.1957350  50.9881760  87.3578550
  90.1261640  51.0699660  86.1664310  88.2150050  58.6879620  38.0518280
  88.1344100  57.7734230  37.7809990  87.8014470  59.1846690  37.3457990
  86.3468090  60.4658640  39.9327550  85.5710190  59.9859080  40.2226120
  86.9981020  59.7864290  39.7583710  80.3633920  60.7778450  40.8103310
  79.5318800  60.5227160  41.2099820  80.9714900  60.8489220  41.5461230
  90.3675520  64.8718830  38.7126680  89.9057050  64.1006070  39.0413850
  91.1801070  64.8984900  39.2179130  80.3435180  64.8118540  41.0061330
  80.6463220  63.9216280  40.8271550  81.0878770  65.3688760  40.7783580
  76.7358880  58.3385990  40.4785400  77.3074990  57.5708190  40.4789040
  76.7360420  58.6374750  39.5692010  86.5938830  67.1576840  38.3330670
  85.9750270  67.6134340  37.7625110  87.4490610  67.3128300  37.9320370
  85.7877080  63.1415830  39.9397710  85.7185360  62.2005770  39.7786840
  86.5496940  63.2317240  40.5120280  77.9783750  53.7470350  42.2654330
  77.7986590  52.8496100  42.5457090  77.5763830  54.2942220  42.9401280
  86.8182250  55.9486210  40.1666640  87.1947070  55.0758090  40.0540310
  86.7201760  56.2844910  39.2757080  90.6006370  53.4436650  37.0994980
  91.4215990  52.9533220  37.1420460  90.6340450  54.0334310  37.8526820
  78.5970420  56.2430850  40.8736670  79.2780530  56.5069220  41.4924070
  78.2818470  55.4031720  41.2074680  82.7894990  57.2898210  39.9609260
  83.2973210  57.7879180  40.6014280  83.3208230  56.5133410  39.7848620
  94.8905920  55.4603400  43.6638610  94.1858090  55.8485110  43.1453720
  95.1563840  56.1553690  44.2659540  81.0731090  51.9296770  44.2272680
  81.0749530  52.4469160  43.4218580  80.2435400  51.4526950  44.2042610
  87.4602180  62.0416080  35.7262580  86.8419450  62.5065530  35.1625300
  87.9725430  62.7343560  36.1432090  90.8367850  55.3837030  39.8722520
  90.1323420  55.6721920  40.4525630  91.1980010  56.1937140  39.5122080
  80.7546420  53.6406730  42.2343130  81.0963230  54.4848780  41.9397000
  79.8162230  53.7890470  42.3508470  92.4530630  65.0012160  42.1350000
  91.7694150  65.6711270  42.1266670  92.9924920  65.1992810  41.3694860
  93.9054770  54.8291820  40.2631730  92.9579680  54.8630800  40.3947160
  94.2304760  55.6430770  40.6481090  91.2834790  63.5672510  35.9385350
  91.1731120  62.6246840  36.0634770  91.2803040  63.9288150  36.8248110
  89.3874810  61.7486130  42.1777790  89.8043600  61.5346240  41.3431250
  90.1114630  62.0058920  42.7486410  86.8124150  55.4654830  32.2915000
  85.8727820  55.6268790  32.3767460  87.1307410  56.1840510  31.7450990
  93.3336910  60.1473350  42.2694030  92.5055540  60.2166440  41.7944160
  93.9287390  60.7327660  41.8009860  90.8552360  60.7558130  35.7983090
  90.2364780  60.4177680  35.1509390  90.8376810  60.1117890  36.5062280
  90.2978920  56.9342670  43.2148900  89.8850100  57.7596380  43.4688890
  89.5654870  56.3487710  43.0225260  82.4311710  59.7202570  38.0767570
  82.0268710  59.0079820  37.5813470  82.5174830  59.3755810  38.9655610
  82.8993410  63.4070130  40.2406780  82.6021700  62.8015600  39.5614560
  83.8493230  63.4447440  40.1296140  81.1440330  56.4945780  41.8566610
  81.6954920  56.6041120  41.0819860  81.6583840  56.8683380  42.5721840
  87.1412440  64.9341010  36.7737080  87.5808350  65.6765340  36.3592470
  87.0799330  65.1767580  37.6976040  79.1316340  58.6147550  35.5774220
  79.0113940  59.3409640  34.9655490  78.8217230  57.8450460  35.1002130
  94.5678230  66.7413940  48.9721270  95.0437950  67.2196830  49.6510350
  95.1885390  66.6731430  48.2466770  76.7701710  61.7862690  41.3842860
  76.8482130  61.9211460  40.4398580  77.3843390  61.0778580  41.5770980
  93.9711480  63.9326790  46.1321280  94.0974540  63.6938670  45.2138460
  94.0132860  63.1011330  46.6043360  82.2871000  67.7008660  35.9071710
  82.1113480  66.7844200  35.6939510  81.4326740  68.0595950  36.1469510
  89.0758680  67.0560400  36.7646580  89.5315630  66.2749780  37.0785200
  89.4151200  67.7667220  37.3087760  93.8235490  55.9859250  47.0971020
  93.2079760  56.4938920  46.5686480  93.5031910  55.0857580  47.0396960
  76.8261230  62.8276860  43.9237320  76.9892270  62.3582220  43.1056690
  77.2913680  62.3200420  44.5886160  85.8849810  54.8251140  44.5633210
  85.4229180  55.0334160  45.3753150  85.4827920  54.0110490  44.2603880
  90.8854320  56.0460090  45.6929870  90.0347910  55.7465840  46.0138940
  90.7256110  56.2902100  44.7813690  87.9804030  57.5461840  47.7928660
  88.3057440  56.7125590  47.4530890  88.7684360  58.0690360  47.9406990
  83.6355900  52.5029950  40.8187490  83.9328230  53.4092780  40.7379510
  84.1841460  52.0148730  40.2047060  81.3894220  57.0816190  36.6879140
  81.1635140  56.8653360  37.5925760  80.6086750  57.5144650  36.3425110
  87.2256850  55.7243100  37.3173070  87.6186420  56.0415300  36.5041760
  87.5873700  54.8454980  37.4317590  85.5349020  54.4750410  48.5769930
  84.8447340  54.2822610  49.2116020  86.2781320  54.7585050  49.1094230
  76.4491250  56.2564020  30.7505990  76.3665920  57.1994780  30.8920980
  76.0974310  56.1138930  29.8718340  87.8111990  58.3148850  41.4123850
  87.0793110  58.8235660  41.7613950  87.4136330  57.4978830  41.1112630
  84.2489380  54.9903050  39.8176340  84.2525440  54.5493000  38.9680880
  85.1440500  55.3120380  39.9248160  88.2737900  53.7682530  40.8246790
  88.2910640  54.2191180  41.6688640  88.0253480  52.8688170  41.0380230
  84.5497350  59.0504830  41.5641750  84.9167480  58.5763400  42.3103090
  84.3602410  59.9246400  41.9050090  80.8678510  62.2974460  34.4792810
  80.0940770  61.7572080  34.3191530  81.5973140  61.7781070  34.1410570
  91.6266490  61.2939820  40.2719200  92.3465610  61.7895110  39.8815310
  91.4248310  60.6157710  39.6273070  87.0876430  52.6877780  34.4148590
  86.2741040  52.1890950  34.3393900  86.8938380  53.5276030  33.9984940
  80.9115910  61.9654840  38.1171620  81.4294580  61.1623100  38.0628510
  80.4599930  61.9033980  38.9588450  92.0739090  58.3709270  32.1790610
  91.9902810  58.8023490  31.3287050  92.7933280  58.8307620  32.6117430
  93.1513230  60.8276790  45.2560580  92.4261420  61.4205570  45.0589970
  93.6788690  60.8200330  44.4573950  93.1026340  65.2251530  34.9072740
  92.4602500  64.5707150  35.1816460  92.7157000  65.6306620  34.1313410
  88.6812820  62.5536960  38.7544430  89.0336640  61.9565090  38.0945800
  87.7975150  62.2281190  38.9252680  84.7676100  63.3134650  36.1614840
  85.4547230  63.8603860  36.5422430  83.9808520  63.8575380  36.1964450
  76.9068500  58.9307470  31.6531920  77.7763350  59.2132270  31.9367840
  76.4158820  59.7443340  31.5380730  77.2739750  68.1434850  32.2193550
  77.6337390  68.7424190  31.5650820  77.1332090  68.6894740  32.9928580
  83.2908370  65.5266050  33.0367220  83.2818470  66.2595740  32.4211730
  82.3706730  65.2797630  33.1294180  78.8915010  60.7480940  33.7813980
  78.2842960  61.4879840  33.7909280  79.3664360  60.8380300  32.9552180
  88.4647800  54.9131760  43.4570870  88.8328620  54.0926970  43.7850440
  87.6046000  54.9733650  43.8726520  91.8309830  53.8688700  34.2658430
  91.2022990  53.9734370  33.5516660  91.3361750  54.0885480  35.0552310
  83.7993860  56.1474650  35.6816310  83.0910010  56.6160990  36.1229920
  84.0838340  55.4896660  36.3161500  87.8309290  52.8725310  37.1212100
  87.7077070  52.8911440  36.1721610  88.7793850  52.9204250  37.2410500
  92.6316650  53.7839310  44.5237230  92.1290250  54.5244710  44.8631040
  93.4473310  54.1723310  44.2074020  90.9238660  59.0272490  37.9698590
  89.9828800  59.0422720  38.1446280  91.2382730  58.2408450  38.4158890
  80.9020300  60.7092090  31.5302550  81.6683570  60.5973450  32.0927980
  80.9794990  60.0130060  30.8779320  79.5967060  58.1417160  32.2135440
  79.6770650  57.1944670  32.3252840  80.4886810  58.4724040  32.3196100
  92.9264240  66.1981340  39.6452850  93.0511660  67.0212510  40.1176660
  93.7929800  65.9872070  39.2977000  80.3981770  68.2912550  39.3169980
  81.1344250  67.7428010  39.5878550  80.7822690  69.1568560  39.1775970
  85.4466970  59.7294830  30.7522290  85.9672630  59.0143850  30.3863440
  86.0935370  60.3680700  31.0522800  89.9944810  61.1523230  46.0757360
  90.4085830  61.3068310  46.9247780  89.0595810  61.2778450  46.2383140
  90.4666980  58.4919390  48.0796510  91.0487750  57.7371710  47.9916990
  90.6428750  59.0226830  47.3027990  81.5839050  53.6516140  46.3913460
  81.4895920  53.0336890  45.6664330  81.0036440  54.3782430  46.1643370
  89.4311840  59.3897080  44.0053640  88.9047060  59.9139700  43.4018780
  89.7743180  60.0224470  44.6363370  81.8298230  56.7790450  30.4503350
  81.6287290  55.9157810  30.8116690  81.6590280  56.6923810  29.5124950
  82.6067460  67.4096720  45.1611020  82.0688550  68.1342780  44.8419720
  82.8601420  66.9327060  44.3708360  88.6786140  54.9947050  46.9199970
  87.9901660  54.3328590  46.8549960  89.3992160  54.5485320  47.3648430
  89.3086540  51.5898680  32.9790230  89.5888830  50.7466580  33.3349650
  88.5352270  51.8221790  33.4928980  79.6511160  63.1833490  31.2711030
  80.0886030  63.7263160  31.9268610  80.1358890  62.3580440  31.2807370
  81.4618880  64.3031530  36.3833260  81.1614420  64.1796500  37.2837170
  81.3556370  63.4440120  35.9748990  77.3547170  66.8393110  41.4612920
  76.9178160  67.0193910  42.2937070  77.9224850  67.5967730  41.3194640
  77.1871600  59.3513340  37.8201800  76.5320440  59.0824980  37.1761500
  78.0249550  59.2417820  37.3703780  94.6927230  61.6825510  38.4336070
  95.0636060  60.8992830  38.0272040  95.3329160  62.3714610  38.2553370
  91.6760990  63.0662090  43.8466390  90.8620830  63.4959250  44.1092180
  92.0835190  63.6780500  43.2335440  90.1362040  54.1454630  32.0420290
  90.5546920  53.9585610  31.2016950  89.8298100  53.2933680  32.3523220
  93.6351770  59.0578770  35.7396090  93.2595370  58.2906700  35.3077380
  92.9054890  59.4401470  36.2271020  78.2247530  59.7365910  42.3605140
  78.5920570  59.6493310  43.2401160  77.6558350  58.9732460  42.2612000
  93.0251390  58.2050290  45.3735610  92.7937480  57.9763040  44.4733560
  93.2855940  59.1249840  45.3280500  91.4639460  53.4306720  48.1515310
  92.3409640  53.4390120  48.5349310  91.4760300  52.6937560  47.5407660
  92.9102730  57.2836260  39.0403330  93.4340210  56.7898910  38.4093500
  93.4962150  57.4186620  39.7850900  93.0892450  57.3676130  42.5622880
  92.1395160  57.3339670  42.6767870  93.2705460  58.2776240  42.3272650
  78.9436890  55.6177810  31.6721510  79.6528590  55.1961030  31.1868790
  78.2276830  55.6853040  31.0404860  92.4002700  56.5409610  34.9795740
  92.8961820  56.3080480  35.7644620  92.2018770  55.7021450  34.5633380
  93.8289860  55.1770560  37.5133420  93.7189140  55.0226600  38.4515690
  94.5897450  54.6491500  37.2708830  92.1755580  51.1164690  43.9716420
  92.8127800  51.7298830  44.3375610  92.3230470  51.1525350  43.0265650
  94.7180130  53.0078480  30.7539560  95.6429440  52.8759660  30.5457850
  94.6955920  53.0871300  31.7076010  94.7918620  53.7789140  33.3796270
  93.9970120  53.7134260  33.9089180  94.9961900  54.7139780  33.3681620
  91.7337040  67.8180690  37.3734660  92.3296110  67.4965260  36.6969080
  91.9915190  67.3452510  38.1647930  78.0335240  51.0779000  43.3572100
  77.6850060  51.5342820  44.1230280  77.7022940  50.1836130  43.4394530
  83.3405640  65.8058190  43.1235010  83.0997000  66.0732750  42.2365530
  84.2808280  65.9763920  43.1785870  94.6009800  67.8252570  43.9245650
  94.1068080  68.2221440  43.2072780  93.9923090  67.2001780  44.3182930
  78.7055880  50.6055200  46.6322870  79.2538870  50.4243250  45.8688980
  78.7711190  49.8149310  47.1679180  79.4787640  67.1960850  44.6423070
  78.8847960  67.0645550  45.3813110  79.4711480  66.3598990  44.1765170
  88.9242660  50.4893080  42.8453100  88.0502500  50.8228190  42.6426030
  88.8153410  50.0166260  43.6704970  89.8314640  52.6963950  44.2294820
  89.5028000  51.8815710  43.8496550  90.7796940  52.6533760  44.1060510
  92.2849250  68.4675990  41.2032390  91.8252220  69.2191800  40.8290410
  91.6561710  67.7482460  41.1447190  79.1099870  64.5619230  43.5931110
  78.3833930  63.9424520  43.5257060  79.1709020  64.9559840  42.7229190
  82.7144970  66.7764230  40.3780520  83.2309990  66.1651590  39.8528780
  83.3642350  67.2793010  40.8691530  85.4540470  67.6672720  41.2049500
  85.7418280  67.4127020  40.3282510  85.9663690  67.1150080  41.7955070
  86.6717480  51.4062920  41.7846010  85.8889270  51.8808420  42.0642770
  86.3780410  50.5017750  41.6759190  91.2238550  52.1086020  39.8295100
  91.6646640  52.0531120  38.9816700  90.9546140  53.0244030  39.9005280
  93.0877120  51.7401260  37.8403920  93.0265520  50.7962480  37.6934940
  93.8669150  51.8481350  38.3857380  89.0596680  50.4892120  38.5345110
  89.6626050  51.0612330  39.0093630  88.3189670  51.0531560  38.3119010
  92.2031280  50.8913680  33.8085390  92.3981910  51.7897130  34.0752820
  91.4161150  50.6600760  34.3018340  93.7557890  68.1314390  35.5691950
  93.9310080  67.4452130  34.9252870  93.0579460  68.6561440  35.1768620
  80.7600330  64.6373960  33.1273590  80.1309210  65.1059060  33.6759420
  80.8748160  63.7923180  33.5619780  78.7725870  55.7380340  15.8202210
  77.8842570  56.0796310  15.7182090  79.0567060  55.5380660  14.9283040
  86.8182250  55.9486210  21.3923150  87.1947070  55.0758090  21.2796820
  86.7201760  56.2844910  20.5013590  80.9487260  54.3211840  16.8540590
  81.0554010  55.2215570  17.1609350  80.0379620  54.2729810  16.5635240
  90.6006370  53.4436650  18.3251490  91.4215990  52.9533220  18.3676970
  90.6340450  54.0334310  19.0783330  82.7894990  57.2898210  21.1865770
  83.2973210  57.7879180  21.8270790  83.3208230  56.5133410  21.0105130
  81.0731090  51.9296770  25.4529190  81.0749530  52.4469160  24.6475090
  80.2435400  51.4526950  25.4299120  80.7546420  53.6406730  23.4599640
  81.0963230  54.4848780  23.1653510  79.8162230  53.7890470  23.5764980
  84.4374310  51.1289000  19.7844230  84.7449290  50.5735890  19.0679730
  83.5075010  51.2633460  19.6017220  86.8124150  55.4654830  13.5171510
  85.8727820  55.6268790  13.6023970  87.1307410  56.1840510  12.9707500
  90.9879020  66.9802000  25.1286390  90.5109580  67.7874190  24.9359000
  90.3040810  66.3280330  25.2812600  81.9911840  63.1451820  28.1171090
  81.0940370  63.3691790  28.3644490  82.0164710  63.2686760  27.1682490
  80.8183060  60.0165140  26.6928460  80.6790830  60.8887940  27.0615860
  79.9364420  59.6737950  26.5476400  92.6134200  51.2487750  12.3453390
  92.3006860  51.3414580  13.2452460  93.3746670  51.8268780  12.2950820
  79.1316340  58.6147550  16.8030730  79.0113940  59.3409640  16.1912000
  78.8217230  57.8450460  16.3258640  94.5678230  66.7413940  30.1977780
  95.0437950  67.2196830  30.8766860  95.1885390  66.6731430  29.4723280
  76.7701710  61.7862690  22.6099370  76.8482130  61.9211460  21.6655090
  77.3843390  61.0778580  22.8027490  78.0149340  63.4862880  19.0205550
  77.6077420  63.6277470  18.1659150  78.9062350  63.2023040  18.8176760
  87.8328220  67.6354790  25.9272600  88.3472890  67.5462800  26.7295030
  86.9897300  67.9814490  26.2200510  89.8082620  67.9210130  15.3556600
  89.6483760  67.6313070  16.2538430  89.6429330  67.1450260  14.8201830
  82.2871000  67.7008660  17.1328220  82.1113480  66.7844200  16.9196020
  81.4326740  68.0595950  17.3726020  89.5108750  65.4297690  13.9154600
  88.8173910  65.4274980  13.2556880  90.2531610  65.0057010  13.4848770
  81.5980000  51.9582620  20.1854400  81.1548150  52.7392160  19.8538920
  82.1564990  52.2812510  20.8925340  85.8849810  54.8251140  25.7889720
  85.4229180  55.0334160  26.6009660  85.4827920  54.0110490  25.4860390
  87.9804030  57.5461840  29.0185170  88.3057440  56.7125590  28.6787400
  88.7684360  58.0690360  29.1663500  84.7138820  51.5793320  15.0660230
  84.0893000  51.5753190  15.7913540  84.6268940  50.7124280  14.6696200
  83.6355900  52.5029950  22.0444000  83.9328230  53.4092780  21.9636020
  84.1841460  52.0148730  21.4303570  81.3894220  57.0816190  17.9135650
  81.1635140  56.8653360  18.8182270  80.6086750  57.5144650  17.5681620
  83.8293430  57.9801770  28.5795920  83.7337030  57.0396500  28.4296320
  84.6725410  58.2016840  28.1843990  87.2256850  55.7243100  18.5429580
  87.6186420  56.0415300  17.7298270  87.5873700  54.8454980  18.6574100
  78.9603970  54.3915440  26.7329700  78.5667360  55.2390650  26.9402480
  78.2722370  53.7541810  26.9238340  76.2621020  52.3143900  20.7659780
  75.9734070  52.8846760  21.4784760  77.0066780  51.8348350  21.1291010
  76.4491250  56.2564020  11.9762500  76.3665920  57.1994780  12.1177490
  76.0974310  56.1138930  11.0974850  87.8111990  58.3148850  22.6380360
  87.0793110  58.8235660  22.9870460  87.4136330  57.4978830  22.3369140
  84.2489380  54.9903050  21.0432850  84.2525440  54.5493000  20.1937390
  85.1440500  55.3120380  21.1504670  80.0991760  54.8729540  20.0027060
  79.7591810  55.3504770  20.7594110  79.3369080  54.4194660  19.6428160
  84.3109530  55.9915130  14.0339610  84.4322350  55.9501610  14.9825430
  83.9258040  56.8539280  13.8786340  88.2737900  53.7682530  22.0503300
  88.2910640  54.2191180  22.8945150  88.0253480  52.8688170  22.2636740
  83.3231030  58.3016270  13.4322910  82.7547930  57.8534520  12.8058820
  84.0320030  58.6609050  12.8988060  77.4137840  53.7948520  18.9191730
  77.1284760  53.4304190  19.7570350  77.3516700  53.0628980  18.3054870
  82.3396720  58.0913470  25.1082470  82.0353790  58.9705450  25.3332830
  83.2943180  58.1513260  25.1439910  80.8678510  62.2974460  15.7049320
  80.0940770  61.7572080  15.5448040  81.5973140  61.7781070  15.3667080
  87.0876430  52.6877780  15.6405100  86.2741040  52.1890950  15.5650410
  86.8938380  53.5276030  15.2241450  89.8024820  57.0597430  13.9367260
  90.6904440  57.3714660  13.7618600  89.7729910  56.1869680  13.5447840
  80.9115910  61.9654840  19.3428130  81.4294580  61.1623100  19.2885020
  80.4599930  61.9033980  20.1844960  85.7985410  63.2321120  14.6155430
  86.1401110  63.9763350  14.1198750  84.9698120  63.5452240  14.9780260
  78.3960450  58.9316210  26.2553830  78.0375390  59.5970060  26.8427170
  78.1015010  58.0999760  26.6266450  81.5973570  59.3900450  29.1393380
  81.2973710  59.5357630  28.2421200  82.3684810  58.8305740  29.0466770
  92.0739090  58.3709270  13.4047120  91.9902810  58.8023490  12.5543560
  92.7933280  58.8307620  13.8373940  93.1026340  65.2251530  16.1329250
  92.4602500  64.5707150  16.4072970  92.7157000  65.6306620  15.3569920
  76.9068500  58.9307470  12.8788430  77.7763350  59.2132270  13.1624350
  76.4158820  59.7443340  12.7637240  79.9715090  50.6618330  17.4719230
  79.8429720  50.6536230  18.4204150  79.1477110  51.0001420  17.1210240
  91.4923720  64.1167990  12.6705600  91.2661300  63.3998430  13.2630240
  91.1019920  63.8680430  11.8327350  76.9709020  52.4209450  26.9325930
  76.2567540  52.6206370  27.5378540  77.3904060  51.6449020  27.3040730
  91.0739970  62.0339930  14.3319760  90.7861670  62.4952620  15.1197640
  91.8692140  61.5737700  14.6003980  77.2581610  66.4089710  27.9192460
  77.3672730  65.4684450  27.7787850  76.6062170  66.6744460  27.2706190
  83.2908370  65.5266050  14.2623730  83.2818470  66.2595740  13.6468240
  82.3706730  65.2797630  14.3550690  91.8309830  53.8688700  15.4914940
  91.2022990  53.9734370  14.7773170  91.3361750  54.0885480  16.2808820
  86.2767970  65.5894290  12.9248920  86.3779950  65.3858280  11.9950900
  85.3769710  65.3352570  13.1296700  83.7993860  56.1474650  16.9072820
  83.0910010  56.6160990  17.3486430  84.0838340  55.4896660  17.5418010
  85.4249790  57.5671350  24.9065350  85.9235040  58.0417170  25.5717200
  85.5672740  56.6434870  25.1135380  87.8309290  52.8725310  18.3468610
  87.7077070  52.8911440  17.3978120  88.7793850  52.9204250  18.4667010
  84.9186080  68.1080610  17.6196590  85.1727580  68.0702000  16.6975960
  83.9698560  67.9813940  17.6124840  82.0028880  54.4559730  14.2823530
  82.8519410  54.8929880  14.2163720  81.6360150  54.7679990  15.1095590
  90.9238660  59.0272490  19.1955100  89.9828800  59.0422720  19.3702790
  91.2382730  58.2408450  19.6415400  80.9020300  60.7092090  12.7559060
  81.6683570  60.5973450  13.3184490  80.9794990  60.0130060  12.1035830
  79.5967060  58.1417160  13.4391950  79.6770650  57.1944670  13.5509350
  80.4886810  58.4724040  13.5452610  80.3981770  68.2912550  20.5426490
  81.1344250  67.7428010  20.8135060  80.7822690  69.1568560  20.4032480
  77.2827250  64.3586120  16.4168000  76.3567030  64.6007260  16.4073410
  77.7483680  65.1860380  16.2952750  79.4040050  67.4758620  29.7312070
  80.2052780  67.7970670  30.1447470  78.8891870  67.1154200  30.4531980
  83.5084080  67.4642860  12.3652060  84.3012690  67.7531690  11.9133850
  82.9888430  67.0335030  11.6864540  89.6705050  67.3118780  28.2896890
  90.6226800  67.2276800  28.2397130  89.5233270  67.9760490  28.9630680
  92.5614250  66.6912990  13.7888800  92.2755760  66.2778130  12.9742980
  92.3633800  67.6200700  13.6689320  84.0261480  62.6846270  12.2294410
  83.9212120  62.0698620  12.9555790  83.8585700  62.1612160  11.4457420
  87.2664210  61.7466300  12.8336400  86.7174310  62.1935600  13.4779140
  87.8883470  61.2415550  13.3574070  79.1560940  58.1061670  29.5698190
  79.1966280  57.8075540  30.4783420  80.0106440  58.5069280  29.4105710
  82.9339330  60.7057220  14.7301700  83.3555750  60.5397090  15.5733090
  83.0590170  59.8957450  14.2356840  81.0966750  56.6853770  27.5372680
  80.5663210  56.1944720  26.9096020  81.7654820  57.1137970  27.0030610
  85.4466970  59.7294830  11.9778800  85.9672630  59.0143850  11.6119950
  86.0935370  60.3680700  12.2779310  90.4666980  58.4919390  29.3053020
  91.0487750  57.7371710  29.2173500  90.6428750  59.0226830  28.5284500
  84.3500490  52.2089380  24.6497360  83.9017790  52.2313640  23.8042910
  83.7165690  51.8108400  25.2467660  87.0923940  58.8359890  26.6547640
  87.2120150  58.2401030  27.3942480  87.9517940  58.8729580  26.2348940
  89.4311840  59.3897080  25.2310150  88.9047060  59.9139700  24.6275290
  89.7743180  60.0224470  25.8619880  81.8298230  56.7790450  11.6759860
  81.6287290  55.9157810  12.0373200  81.6590280  56.6923810  10.7381460
  88.6786140  54.9947050  28.1456480  87.9901660  54.3328590  28.0806470
  89.3992160  54.5485320  28.5904940  89.3086540  51.5898680  14.2046740
  89.5888830  50.7466580  14.5606160  88.5352270  51.8221790  14.7185490
  80.6281030  53.8791070  11.6637740  80.9306930  53.8858500  10.7556890
  81.3675620  53.5288930  12.1605400  83.8465960  52.8225690  12.6493940
  83.4987960  52.1449680  12.0696390  84.0478730  52.3615200  13.4637330
  86.0115000  67.8106440  14.2680540  86.9065790  68.1491410  14.2899300
  86.0432630  67.0885850  13.6404820  79.6511160  63.1833490  12.4967540
  80.0886030  63.7263160  13.1525120  80.1358890  62.3580440  12.5063880
  76.8656960  65.9722520  19.9487800  77.1959970  65.1043580  19.7166440
  77.2947960  66.1781040  20.7792760  77.3547170  66.8393110  22.6869430
  76.9178160  67.0193910  23.5193580  77.9224850  67.5967730  22.5451150
  92.9909350  66.3410110  26.9746740  92.3911340  66.4002670  26.2310660
  93.1203250  65.4015090  27.1043590  94.2310800  64.0827930  12.3116450
  93.4003760  64.1504580  12.7823680  94.4082630  64.9732050  12.0083310
  93.6867260  60.8275410  14.8150650  94.4486170  61.3972060  14.9210340
  93.7021630  60.2602610  15.5858960  77.1871600  59.3513340  19.0458310
  76.5320440  59.0824980  18.4018010  78.0249550  59.2417820  18.5960290
  94.6927230  61.6825510  19.6592580  95.0636060  60.8992830  19.2528550
  95.3329160  62.3714610  19.4809880  93.7386430  61.1209780  11.9723170
  94.0135270  62.0288660  11.8442390  93.5497170  61.0572310  12.9085160
  90.1362040  54.1454630  13.2676800  90.5546920  53.9585610  12.4273460
  89.8298100  53.2933680  13.5779730  93.6351770  59.0578770  16.9652600
  93.2595370  58.2906700  16.5333890  92.9054890  59.4401470  17.4527530
  78.2247530  59.7365910  23.5861650  78.5920570  59.6493310  24.4657670
  77.6558350  58.9732460  23.4868510  77.7763530  56.6475000  27.4920070
  76.8819580  56.6141760  27.8313780  78.3161080  56.8461790  28.2571320
  76.4009680  56.5612270  14.9883640  75.4973760  56.8242470  14.8135300
  76.8850300  56.8323440  14.2083600  92.9102730  57.2836260  20.2659840
  93.4340210  56.7898910  19.6350010  93.4962150  57.4186620  21.0107410
  78.9436890  55.6177810  12.8978020  79.6528590  55.1961030  12.4125300
  78.2276830  55.6853040  12.2661370  78.5911050  51.6717140  11.9380670
  79.3139180  52.2126080  12.2561890  78.8635570  51.3980560  11.0622210
  92.4002700  56.5409610  16.2052250  92.8961820  56.3080480  16.9901130
  92.2018770  55.7021450  15.7889890  78.2803240  50.9223330  21.8403290
  78.9279430  50.3720710  21.3998450  78.7005080  51.1766480  22.6619100
  93.8289860  55.1770560  18.7389930  93.7189140  55.0226600  19.6772200
  94.5897450  54.6491500  18.4965340  94.7180130  53.0078480  11.9796070
  95.6429440  52.8759660  11.7714360  94.6955920  53.0871300  12.9332520
  94.7918620  53.7789140  14.6052780  93.9970120  53.7134260  15.1345690
  94.9961900  54.7139780  14.5938130  78.0335240  51.0779000  24.5828610
  77.6850060  51.5342820  25.3486790  77.7022940  50.1836130  24.6651040
  79.6399610  64.2498600  28.7481800  79.5969240  63.8791510  29.6296260
  79.7710620  65.1876170  28.8883620  88.1834620  51.9260940  27.7440320
  88.7975030  52.2440230  27.0821400  88.7284180  51.4409530  28.3636180
  94.6009800  67.8252570  25.1502160  94.1068080  68.2221440  24.4329290
  93.9923090  67.2001780  25.5439440  78.7055880  50.6055200  27.8579380
  79.2538870  50.4243250  27.0945490  78.7711190  49.8149310  28.3935690
  92.2849250  68.4675990  22.4288900  91.8252220  69.2191800  22.0546920
  91.6561710  67.7482460  22.3703700  91.2238550  52.1086020  21.0551610
  91.6646640  52.0531120  20.2073210  90.9546140  53.0244030  21.1261790
  93.0877120  51.7401260  19.0660430  93.0265520  50.7962480  18.9191450
  93.8669150  51.8481350  19.6113890  77.3929870  67.8793620  18.0284380
  77.2251910  67.2464300  18.7266270  76.5264380  68.0853020  17.6778570
  78.0157890  51.7110400  15.5316240  78.7737250  51.8239280  14.9580270
  77.5535060  52.5479600  15.4859670  84.5571700  53.8249670  18.5218550
  83.7446210  53.4506560  18.1814430  85.0613340  53.0694750  18.8239740
  89.0596680  50.4892120  19.7601620  89.6626050  51.0612330  20.2350140
  88.3189670  51.0531560  19.5375520  92.2031280  50.8913680  15.0341900
  92.3981910  51.7897130  15.3009330  91.4161150  50.6600760  15.5274850
  80.3883040  52.2374450  14.0718210  80.9175800  51.4504250  13.9426160
  81.0211360  52.9165640  14.3053740  82.5820880  51.9749590  17.1263600
  81.9523620  51.2736900  17.2933730  82.0426020  52.7353720  16.9096760
  93.7557890  68.1314390  16.7948460  93.9310080  67.4452130  16.1509380
  93.0579460  68.6561440  16.4025130  86.3468090  60.4658640   2.3840570
  85.5710190  59.9859080   2.6739140  86.9981020  59.7864290   2.2096730
  80.3633920  60.7778450   3.2616330  79.5318800  60.5227160   3.6612840
  80.9714900  60.8489220   3.9974250  80.3435180  64.8118540   3.4574350
  80.6463220  63.9216280   3.2784570  81.0878770  65.3688760   3.2296600
  76.7358880  58.3385990   2.9298420  77.3074990  57.5708190   2.9302060
  76.7360420  58.6374750   2.0205030  85.7877080  63.1415830   2.3910730
  85.7185360  62.2005770   2.2299860  86.5496940  63.2317240   2.9633300
  77.9783750  53.7470350   4.7167350  77.7986590  52.8496100   4.9970110
  77.5763830  54.2942220   5.3914300  86.8182250  55.9486210   2.6179660
  87.1947070  55.0758090   2.5053330  86.7201760  56.2844910   1.7270100
  78.5970420  56.2430850   3.3249690  79.2780530  56.5069220   3.9437090
  78.2818470  55.4031720   3.6587700  82.7894990  57.2898210   2.4122280
  83.2973210  57.7879180   3.0527300  83.3208230  56.5133410   2.2361640
  94.8905920  55.4603400   6.1151630  94.1858090  55.8485110   5.5966740
  95.1563840  56.1553690   6.7172560  81.0731090  51.9296770   6.6785700
  81.0749530  52.4469160   5.8731600  80.2435400  51.4526950   6.6555630
  82.3233940  61.5691950   4.8559200  81.9903320  62.1960870   5.4980270
  82.5000620  62.0953830   4.0760870  90.8367850  55.3837030   2.3235540
  90.1323420  55.6721920   2.9038650  91.1980010  56.1937140   1.9635100
  80.7546420  53.6406730   4.6856150  81.0963230  54.4848780   4.3910020
  79.8162230  53.7890470   4.8021490  81.5353040  63.5372750   6.6708380
  82.1527040  64.2123830   6.3892830  80.6746160  63.9460730   6.5795880
  92.4530630  65.0012160   4.5863020  91.7694150  65.6711270   4.5779690
  92.9924920  65.1992810   3.8207880  93.9054770  54.8291820   2.7144750
  92.9579680  54.8630800   2.8460180  94.2304760  55.6430770   3.0994110
  89.9889370  66.8456290   3.3008200  90.0016530  66.4418580   2.4330460
  89.4364590  67.6203580   3.1969630  89.3874810  61.7486130   4.6290810
  89.8043600  61.5346240   3.7944270  90.1114630  62.0058920   5.1999430
  93.3336910  60.1473350   4.7207050  92.5055540  60.2166440   4.2457180
  93.9287390  60.7327660   4.2522880  90.2978920  56.9342670   5.6661920
  89.8850100  57.7596380   5.9201910  89.5654870  56.3487710   5.4738280
  82.8993410  63.4070130   2.6919800  82.6021700  62.8015600   2.0127580
  83.8493230  63.4447440   2.5809160  81.1440330  56.4945780   4.3079630
  81.6954920  56.6041120   3.5332880  81.6583840  56.8683380   5.0234860
  90.9879020  66.9802000   6.3542900  90.5109580  67.7874190   6.1615510
  90.3040810  66.3280330   6.5069110  81.9911840  63.1451820   9.3427600
  81.0940370  63.3691790   9.5901000  82.0164710  63.2686760   8.3939000
  80.8183060  60.0165140   7.9184970  80.6790830  60.8887940   8.2872370
  79.9364420  59.6737950   7.7732910  82.6163410  65.9586840  10.1270120
  82.5878840  66.3629790   9.2598550  82.4528380  65.0297200   9.9641720
  94.5678230  66.7413940  11.4234290  95.0437950  67.2196830  12.1023370
  95.1885390  66.6731430  10.6979790  76.7701710  61.7862690   3.8355880
  76.8482130  61.9211460   2.8911600  77.3843390  61.0778580   4.0284000
  93.9711480  63.9326790   8.5834300  94.0974540  63.6938670   7.6651480
  94.0132860  63.1011330   9.0556380  87.8328220  67.6354790   7.1529110
  88.3472890  67.5462800   7.9551540  86.9897300  67.9814490   7.4457020
  93.8235490  55.9859250   9.5484040  93.2079760  56.4938920   9.0199500
  93.5031910  55.0857580   9.4909980  76.8261230  62.8276860   6.3750340
  76.9892270  62.3582220   5.5569710  77.2913680  62.3200420   7.0399180
  85.8849810  54.8251140   7.0146230  85.4229180  55.0334160   7.8266170
  85.4827920  54.0110490   6.7116900  90.8854320  56.0460090   8.1442890
  90.0347910  55.7465840   8.4651960  90.7256110  56.2902100   7.2326710
  87.9804030  57.5461840  10.2441680  88.3057440  56.7125590   9.9043910
  88.7684360  58.0690360  10.3920010  83.6355900  52.5029950   3.2700510
  83.9328230  53.4092780   3.1892530  84.1841460  52.0148730   2.6560080
  83.8293430  57.9801770   9.8052430  83.7337030  57.0396500   9.6552830
  84.6725410  58.2016840   9.4100500  78.9603970  54.3915440   7.9586210
  78.5667360  55.2390650   8.1658990  78.2722370  53.7541810   8.1494850
  85.5349020  54.4750410  11.0282950  84.8447340  54.2822610  11.6629040
  86.2781320  54.7585050  11.5607250  76.2621020  52.3143900   1.9916290
  75.9734070  52.8846760   2.7041270  77.0066780  51.8348350   2.3547520
  87.8111990  58.3148850   3.8636870  87.0793110  58.8235660   4.2126970
  87.4136330  57.4978830   3.5625650  84.2489380  54.9903050   2.2689360
  84.2525440  54.5493000   1.4193900  85.1440500  55.3120380   2.3761180
  88.2737900  53.7682530   3.2759810  88.2910640  54.2191180   4.1201660
  88.0253480  52.8688170   3.4893250  91.7008650  51.1814710   9.1146190
  92.0254420  50.4504370   9.6404170  91.7365160  50.8628350   8.2127180
  78.4000210  62.2028290   8.5346150  78.0155000  61.5621960   9.1329110
  78.7112400  62.9064410   9.1040880  84.5497350  59.0504830   4.0154770
  84.9167480  58.5763400   4.7616110  84.3602410  59.9246400   4.3563110
  82.3396720  58.0913470   6.3338980  82.0353790  58.9705450   6.5589340
  83.2943180  58.1513260   6.3696420  91.6266490  61.2939820   2.7232220
  92.3465610  61.7895110   2.3328330  91.4248310  60.6157710   2.0786090
  87.0085290  61.3648880   8.6101220  86.9422600  60.4444550   8.3558810
  86.3790430  61.4624320   9.3245860  78.3960450  58.9316210   7.4810340
  78.0375390  59.5970060   8.0683680  78.1015010  58.0999760   7.8522960
  81.5973570  59.3900450  10.3649890  81.2973710  59.5357630   9.4677710
  82.3684810  58.8305740  10.2723280  86.9402020  64.1869450   8.3605020
  86.9546560  63.2550410   8.1423930  86.2327120  64.2729210   8.9994790
  93.1513230  60.8276790   7.7073600  92.4261420  61.4205570   7.5102990
  93.6788690  60.8200330   6.9086970  86.3735920  65.8287020   5.4545520
  87.0178140  66.0346400   6.1318940  86.7365360  65.0675420   5.0016370
  87.6468000  63.8319370   4.1722970  88.2890230  63.1312530   4.2855140
  88.1717350  64.6117810   3.9919860  89.4205620  64.6314270   7.3759030
  89.7561860  65.2180960   8.0536950  88.5005960  64.5006980   7.6056820
  76.9709020  52.4209450   8.1582440  76.2567540  52.6206370   8.7635050
  77.3904060  51.6449020   8.5297240  77.2581610  66.4089710   9.1448970
  77.3672730  65.4684450   9.0044360  76.6062170  66.6744460   8.4962700
  85.2494200  64.6805600  10.5447090  84.9291070  63.9614840  11.0892780
  84.5752560  65.3560670  10.6183150  88.4647800  54.9131760   5.9083890
  88.8328620  54.0926970   6.2363460  87.6046000  54.9733650   6.3239540
  85.4249790  57.5671350   6.1321860  85.9235040  58.0417170   6.7973710
  85.5672740  56.6434870   6.3391890  92.6316650  53.7839310   6.9750250
  92.1290250  54.5244710   7.3144060  93.4473310  54.1723310   6.6587040
  92.9264240  66.1981340   2.0965870  93.0511660  67.0212510   2.5689680
  93.7929800  65.9872070   1.7490020  80.3981770  68.2912550   1.7683000
  81.1344250  67.7428010   2.0391570  80.7822690  69.1568560   1.6288990
  79.4040050  67.4758620  10.9568580  80.2052780  67.7970670  11.3703980
  78.8891870  67.1154200  11.6788490  88.2404680  63.5838490  10.9043990
  87.6342840  63.6070090  10.1639740  87.9358790  62.8521530  11.4411240
  89.6705050  67.3118780   9.5153400  90.6226800  67.2276800   9.4653640
  89.5233270  67.9760490  10.1887190  77.1237860  59.9632080   9.9004630
  77.6276880  59.3839360  10.4720860  76.3845280  60.2472310  10.4381000
  84.1775800  61.3703070   9.4340150  83.4121470  61.9388070   9.3494820
  84.3591760  61.0779280   8.5408380  91.3199150  63.1008400   9.9915170
  92.0608620  63.4384160   9.4882630  90.5571830  63.2700460   9.4384940
  79.1560940  58.1061670  10.7954700  79.1966280  57.8075540  11.7039930
  80.0106440  58.5069280  10.6362220  81.0966750  56.6853770   8.7629190
  80.5663210  56.1944720   8.1352530  81.7654820  57.1137970   8.2287120
  89.9944810  61.1523230   8.5270380  90.4085830  61.3068310   9.3760800
  89.0595810  61.2778450   8.6896160  90.4666980  58.4919390  10.5309530
  91.0487750  57.7371710  10.4430010  90.6428750  59.0226830   9.7541010
  81.5839050  53.6516140   8.8426480  81.4895920  53.0336890   8.1177350
  81.0036440  54.3782430   8.6156390  84.3500490  52.2089380   5.8753870
  83.9017790  52.2313640   5.0299420  83.7165690  51.8108400   6.4724170
  84.7560040  61.1043710   6.4966310  85.1748150  61.9476440   6.3242550
  83.8368670  61.2415750   6.2673090  87.0923940  58.8359890   7.8804150
  87.2120150  58.2401030   8.6198990  87.9517940  58.8729580   7.4605450
  89.4311840  59.3897080   6.4566660  88.9047060  59.9139700   5.8531800
  89.7743180  60.0224470   7.0876390  82.6067460  67.4096720   7.6124040
  82.0688550  68.1342780   7.2932740  82.8601420  66.9327060   6.8221380
  83.8592710  55.3781240   9.1379970  84.4492400  55.0697090   9.8257790
  83.0412950  54.9060990   9.2939870  88.6786140  54.9947050   9.3712990
  87.9901660  54.3328590   9.3062980  89.3992160  54.5485320   9.8161450
  85.4629670  68.6447930   7.8710690  85.3888370  69.5483070   8.1783060
  84.5608510  68.3259830   7.8432760  77.3547170  66.8393110   3.9125940
  76.9178160  67.0193910   4.7450090  77.9224850  67.5967730   3.7707660
  92.9909350  66.3410110   8.2003250  92.3911340  66.4002670   7.4567170
  93.1203250  65.4015090   8.3300100  91.6760990  63.0662090   6.2979410
  90.8620830  63.4959250   6.5605200  92.0835190  63.6780500   5.6848460
  78.2247530  59.7365910   4.8118160  78.5920570  59.6493310   5.6914180
  77.6558350  58.9732460   4.7125020  93.0251390  58.2050290   7.8248630
  92.7937480  57.9763040   6.9246580  93.2855940  59.1249840   7.7793520
  77.7763530  56.6475000   8.7176580  76.8819580  56.6141760   9.0570290
  78.3161080  56.8461790   9.4827830  91.4639460  53.4306720  10.6028330
  92.3409640  53.4390120  10.9862330  91.4760300  52.6937560   9.9920680
  93.0892450  57.3676130   5.0135900  92.1395160  57.3339670   5.1280890
  93.2705460  58.2776240   4.7785670  78.2803240  50.9223330   3.0659800
  78.9279430  50.3720710   2.6254960  78.7005080  51.1766480   3.8875610
  92.1755580  51.1164690   6.4229440  92.8127800  51.7298830   6.7888630
  92.3230470  51.1525350   5.4778670  78.0335240  51.0779000   5.8085120
  77.6850060  51.5342820   6.5743300  77.7022940  50.1836130   5.8907550
  79.6399610  64.2498600   9.9738310  79.5969240  63.8791510  10.8552770
  79.7710620  65.1876170  10.1140130  83.3405640  65.8058190   5.5748030
  83.0997000  66.0732750   4.6878550  84.2808280  65.9763920   5.6298890
  85.5460060  52.2690880   9.3304540  85.4848950  52.8612710  10.0799950
  86.4860440  52.1616840   9.1854800  88.1834620  51.9260940   8.9696830
  88.7975030  52.2440230   8.3077910  88.7284180  51.4409530   9.5892690
  94.6009800  67.8252570   6.3758670  94.1068080  68.2221440   5.6585800
  93.9923090  67.2001780   6.7695950  78.7055880  50.6055200   9.0835890
  79.2538870  50.4243250   8.3202000  78.7711190  49.8149310   9.6192200
  79.4787640  67.1960850   7.0936090  78.8847960  67.0645550   7.8326130
  79.4711480  66.3598990   6.6278190  88.9242660  50.4893080   5.2966120
  88.0502500  50.8228190   5.0939050  88.8153410  50.0166260   6.1217990
  89.8314640  52.6963950   6.6807840  89.5028000  51.8815710   6.3009570
  90.7796940  52.6533760   6.5573530  92.2849250  68.4675990   3.6545410
  91.8252220  69.2191800   3.2803430  91.6561710  67.7482460   3.5960210
  79.1099870  64.5619230   6.0444130  78.3833930  63.9424520   5.9770080
  79.1709020  64.9559840   5.1742210  82.7144970  66.7764230   2.8293540
  83.2309990  66.1651590   2.3041800  83.3642350  67.2793010   3.3204550
  85.4540470  67.6672720   3.6562520  85.7418280  67.4127020   2.7795530
  85.9663690  67.1150080   4.2468090  86.6717480  51.4062920   4.2359030
  85.8889270  51.8808420   4.5155790  86.3780410  50.5017750   4.1272210
  91.2238550  52.1086020   2.2808120  91.6646640  52.0531120   1.4329720
  90.9546140  53.0244030   2.3518300  85.5212830  68.5888820  11.0230720
  86.4480140  68.3533090  11.0666680  85.5063260  69.4160820  10.5416750
  82.7076440  51.2533570  10.7872600  82.4260710  51.7567170  10.0233420
  83.0896140  50.4555320  10.4214730  89.3091900  50.6687150  11.3653070
  89.1957350  50.9881760  12.2604590  90.1261640  51.0699660  11.0690350
  92.0890390  67.8158680  10.8471760  92.8815710  67.3207910  10.6397720
  92.3823540  68.4948820  11.4547370  88.2150050  39.9136130 150.6979220
  88.1344100  38.9990740 150.4270930  87.8014470  40.4103200 149.9918930
  86.3468090  41.6915150 152.5788490  85.5710190  41.2115590 152.8687060
  86.9981020  41.0120800 152.4044650  90.3675520  46.0975340 151.3587620
  89.9057050  45.3262580 151.6874790  91.1801070  46.1241410 151.8640070
  78.7725870  36.9636850 147.2406640  77.8842570  37.3052820 147.1386520
  79.0567060  36.7637170 146.3487470  76.7358880  39.5642500 153.1246340
  77.3074990  38.7964700 153.1249980  76.7360420  39.8631260 152.2152950
  86.5938830  48.3833350 150.9791610  85.9750270  48.8390850 150.4086050
  87.4490610  48.5384810 150.5781310  85.7877080  44.3672340 152.5858650
  85.7185360  43.4262280 152.4247780  86.5496940  44.4573750 153.1581220
  86.8182250  37.1742720 152.8127580  87.1947070  36.3014600 152.7001250
  86.7201760  37.5101420 151.9218020  80.9487260  35.5468350 148.2745020
  81.0554010  36.4472080 148.5813780  80.0379620  35.4986320 147.9839670
  90.6006370  34.6693160 149.7455920  91.4215990  34.1789730 149.7881400
  90.6340450  35.2590820 150.4987760  87.4602180  43.2672590 148.3723520
  86.8419450  43.7322040 147.8086240  87.9725430  43.9600070 148.7893030
  90.8367850  36.6093540 152.5183460  90.1323420  36.8978430 153.0986570
  91.1980010  37.4193650 152.1583020  76.8285380  43.9529120 145.7463150
  76.4513360  44.4416220 145.0148050  77.0858450  44.6254400 146.3769680
  84.4374310  32.3545510 151.2048660  84.7449290  31.7992400 150.4884160
  83.5075010  32.4889970 151.0221650  91.2834790  44.7929020 148.5846290
  91.1731120  43.8503350 148.7095710  91.2803040  45.1544660 149.4709050
  86.8255070  40.4194340 147.9408780  85.8984350  40.3531720 148.1697250
  86.9779890  41.3574470 147.8264020  86.8124150  36.6911340 144.9375940
  85.8727820  36.8525300 145.0228400  87.1307410  37.4097020 144.3911930
  90.8552360  41.9814640 148.4444030  90.2364780  41.6434190 147.7970330
  90.8376810  41.3374400 149.1523220  82.4311710  40.9459080 150.7228510
  82.0268710  40.2336330 150.2274410  82.5174830  40.6012320 151.6116550
  82.8993410  44.6326640 152.8867720  82.6021700  44.0272110 152.2075500
  83.8493230  44.6703950 152.7757080  89.0317060  41.2201450 145.4516780
  89.4710340  40.3823880 145.3054600  89.7445480  41.8530850 145.5380920
  87.1412440  46.1597520 149.4198020  87.5808350  46.9021850 149.0053410
  87.0799330  46.4024090 150.3436980  92.6134200  32.4744260 143.7657820
  92.3006860  32.5671090 144.6656890  93.3746670  33.0525290 143.7155250
  79.1316340  39.8404060 148.2235160  79.0113940  40.5666150 147.6116430
  78.8217230  39.0706970 147.7463070  78.0149340  44.7119390 150.4409980
  77.6077420  44.8533980 149.5863580  78.9062350  44.4279550 150.2381190
  89.8082620  49.1466640 146.7761030  89.6483760  48.8569580 147.6742860
  89.6429330  48.3706770 146.2406260  82.2871000  48.9265170 148.5532650
  82.1113480  48.0100710 148.3400450  81.4326740  49.2852460 148.7930450
  89.5108750  46.6554200 145.3359030  88.8173910  46.6531490 144.6761310
  90.2531610  46.2313520 144.9053200  89.0758680  48.2816910 149.4107520
  89.5315630  47.5006290 149.7246140  89.4151200  48.9923730 149.9548700
  81.5980000  33.1839130 151.6058830  81.1548150  33.9648670 151.2743350
  82.1564990  33.5069020 152.3129770  84.7138820  32.8049830 146.4864660
  84.0893000  32.8009700 147.2117970  84.6268940  31.9380790 146.0900630
  81.3894220  38.3072700 149.3340080  81.1635140  38.0909870 150.2386700
  80.6086750  38.7401160 148.9886050  88.6191980  38.3136070 147.9330730
  88.0200870  39.0371870 147.7494350  89.1671590  38.2512850 147.1507180
  87.2256850  36.9499610 149.9634010  87.6186420  37.2671810 149.1502700
  87.5873700  36.0711490 150.0778530  76.2621020  33.5400410 152.1864210
  75.9734070  34.1103270 152.8989190  77.0066780  33.0604860 152.5495440
  76.4491250  37.4820530 143.3966930  76.3665920  38.4251290 143.5381920
  76.0974310  37.3395440 142.5179280  84.2489380  36.2159560 152.4637280
  84.2525440  35.7749510 151.6141820  85.1440500  36.5376890 152.5709100
  80.0991760  36.0986050 151.4231490  79.7591810  36.5761280 152.1798540
  79.3369080  35.6451170 151.0632590  84.3109530  37.2171640 145.4544040
  84.4322350  37.1758120 146.4029860  83.9258040  38.0795790 145.2990770
  83.3231030  39.5272780 144.8527340  82.7547930  39.0791030 144.2263250
  84.0320030  39.8865560 144.3192490  77.4137840  35.0205030 150.3396160
  77.1284760  34.6560700 151.1774780  77.3516700  34.2885490 149.7259300
  80.8678510  43.5230970 147.1253750  80.0940770  42.9828590 146.9652470
  81.5973140  43.0037580 146.7871510  91.6266490  42.5196330 152.9180140
  92.3465610  43.0151620 152.5276250  91.4248310  41.8414220 152.2734010
  87.0876430  33.9134290 147.0609530  86.2741040  33.4147460 146.9854840
  86.8938380  34.7532540 146.6445880  89.8024820  38.2853940 145.3571690
  90.6904440  38.5971170 145.1823030  89.7729910  37.4126190 144.9652270
  80.9115910  43.1911350 150.7632560  81.4294580  42.3879610 150.7089450
  80.4599930  43.1290490 151.6049390  85.7985410  44.4577630 146.0359860
  86.1401110  45.2019860 145.5403180  84.9698120  44.7708750 146.3984690
  92.0739090  39.5965780 144.8251550  91.9902810  40.0280000 143.9747990
  92.7933280  40.0564130 145.2578370  93.1026340  46.4508040 147.5533680
  92.4602500  45.7963660 147.8277400  92.7157000  46.8563130 146.7774350
  88.6812820  43.7793470 151.4005370  89.0336640  43.1821600 150.7406740
  87.7975150  43.4537700 151.5713620  84.7676100  44.5391160 148.8075780
  85.4547230  45.0860370 149.1883370  83.9808520  45.0831890 148.8425390
  76.9068500  40.1563980 144.2992860  77.7763350  40.4388780 144.5828780
  76.4158820  40.9699850 144.1841670  84.0703310  41.5437190 148.4201140
  84.5266090  42.3542440 148.6461330  83.7191520  41.2260330 149.2519630
  79.9715090  31.8874840 148.8923660  79.8429720  31.8792740 149.8408580
  79.1477110  32.2257930 148.5414670  91.4923720  45.3424500 144.0910030
  91.2661300  44.6254940 144.6834670  91.1019920  45.0936940 143.2531780
  77.2739750  49.3691360 144.8654490  77.6337390  49.9680700 144.2111760
  77.1332090  49.9151250 145.6389520  91.0739970  43.2596440 145.7524190
  90.7861670  43.7209130 146.5402070  91.8692140  42.7994210 146.0208410
  83.2908370  46.7522560 145.6828160  83.2818470  47.4852250 145.0672670
  82.3706730  46.5054140 145.7755120  78.8915010  41.9737450 146.4274920
  78.2842960  42.7136350 146.4370220  79.3664360  42.0636810 145.6013120
  91.8309830  35.0945210 146.9119370  91.2022990  35.1990880 146.1977600
  91.3361750  35.3141990 147.7013250  86.2767970  46.8150800 144.3453350
  86.3779950  46.6114790 143.4155330  85.3769710  46.5609080 144.5501130
  83.7993860  37.3731160 148.3277250  83.0910010  37.8417500 148.7690860
  84.0838340  36.7153170 148.9622440  87.8309290  34.0981820 149.7673040
  87.7077070  34.1167950 148.8182550  88.7793850  34.1460760 149.8871440
  84.9186080  49.3337120 149.0401020  85.1727580  49.2958510 148.1180390
  83.9698560  49.2070450 149.0329270  82.0028880  35.6816240 145.7027960
  82.8519410  36.1186390 145.6368150  81.6360150  35.9936500 146.5300020
  90.9238660  40.2529000 150.6159530  89.9828800  40.2679230 150.7907220
  91.2382730  39.4664960 151.0619830  80.9020300  41.9348600 144.1763490
  81.6683570  41.8229960 144.7388920  80.9794990  41.2386570 143.5240260
  79.5967060  39.3673670 144.8596380  79.6770650  38.4201180 144.9713780
  80.4886810  39.6980550 144.9657040  92.9264240  47.4237850 152.2913790
  93.0511660  48.2469020 152.7637600  93.7929800  47.2128580 151.9437940
  80.3981770  49.5169060 151.9630920  81.1344250  48.9684520 152.2339490
  80.7822690  50.3825070 151.8236910  77.2827250  45.5842630 147.8372430
  76.3567030  45.8263770 147.8277840  77.7483680  46.4116890 147.7157180
  83.5084080  48.6899370 143.7856490  84.3012690  48.9788200 143.3338280
  82.9888430  48.2591540 143.1068970  92.5614250  47.9169500 145.2093230
  92.2755760  47.5034640 144.3947410  92.3633800  48.8457210 145.0893750
  84.0261480  43.9102780 143.6498840  83.9212120  43.2955130 144.3760220
  83.8585700  43.3868670 142.8661850  87.2664210  42.9722810 144.2540830
  86.7174310  43.4192110 144.8983570  87.8883470  42.4672060 144.7778500
  82.9339330  41.9313730 146.1506130  83.3555750  41.7653600 146.9937520
  83.0590170  41.1213960 145.6561270  85.4466970  40.9551340 143.3983230
  85.9672630  40.2400360 143.0324380  86.0935370  41.5937210 143.6983740
  81.8298230  38.0046960 143.0964290  81.6287290  37.1414320 143.4577630
  81.6590280  37.9180320 142.1585890  89.3086540  32.8155190 145.6251170
  89.5888830  31.9723090 145.9810590  88.5352270  33.0478300 146.1389920
  80.6281030  35.1047580 143.0842170  80.9306930  35.1115010 142.1761320
  81.3675620  34.7545440 143.5809830  83.8465960  34.0482200 144.0698370
  83.4987960  33.3706190 143.4900820  84.0478730  33.5871710 144.8841760
  86.0115000  49.0362950 145.6884970  86.9065790  49.3747920 145.7103730
  86.0432630  48.3142360 145.0609250  79.6511160  44.4090000 143.9171970
  80.0886030  44.9519670 144.5729550  80.1358890  43.5836950 143.9268310
  76.8656960  47.1979030 151.3692230  77.1959970  46.3300090 151.1370870
  77.2947960  47.4037550 152.1997190  81.4618880  45.5288040 149.0294200
  81.1614420  45.4053010 149.9298110  81.3556370  44.6696630 148.6209930
  94.2310800  45.3084440 143.7320880  93.4003760  45.3761090 144.2028110
  94.4082630  46.1988560 143.4287740  93.6867260  42.0531920 146.2355080
  94.4486170  42.6228570 146.3414770  93.7021630  41.4859120 147.0063390
  77.1871600  40.5769850 150.4662740  76.5320440  40.3081490 149.8222440
  78.0249550  40.4674330 150.0164720  94.6927230  42.9082020 151.0797010
  95.0636060  42.1249340 150.6732980  95.3329160  43.5971120 150.9014310
  93.7386430  42.3466290 143.3927600  94.0135270  43.2545170 143.2646820
  93.5497170  42.2828820 144.3289590  90.1362040  35.3711140 144.6881230
  90.5546920  35.1842120 143.8477890  89.8298100  34.5190190 144.9984160
  93.6351770  40.2835280 148.3857030  93.2595370  39.5163210 147.9538320
  92.9054890  40.6657980 148.8731960  76.4009680  37.7868780 146.4088070
  75.4973760  38.0498980 146.2339730  76.8850300  38.0579950 145.6288030
  92.9102730  38.5092770 151.6864270  93.4340210  38.0155420 151.0554440
  93.4962150  38.6443130 152.4311840  78.9436890  36.8434320 144.3182450
  79.6528590  36.4217540 143.8329730  78.2276830  36.9109550 143.6865800
  78.5911050  32.8973650 143.3585100  79.3139180  33.4382590 143.6766320
  78.8635570  32.6237070 142.4826640  92.4002700  37.7666120 147.6256680
  92.8961820  37.5336990 148.4105560  92.2018770  36.9277960 147.2094320
  93.8289860  36.4027070 150.1594360  93.7189140  36.2483110 151.0976630
  94.5897450  35.8748010 149.9169770  94.7180130  34.2334990 143.4000500
  95.6429440  34.1016170 143.1918790  94.6955920  34.3127810 144.3536950
  94.7918620  35.0045650 146.0257210  93.9970120  34.9390770 146.5550120
  94.9961900  35.9396290 146.0142560  91.7337040  49.0437200 150.0195600
  92.3296110  48.7221770 149.3430020  91.9915190  48.5709020 150.8108870
  91.2238550  33.3342530 152.4756040  91.6646640  33.2787630 151.6277640
  90.9546140  34.2500540 152.5466220  93.0877120  32.9657770 150.4864860
  93.0265520  32.0218990 150.3395880  93.8669150  33.0737860 151.0318320
  77.3929870  49.1050130 149.4488810  77.2251910  48.4720810 150.1470700
  76.5264380  49.3109530 149.0983000  78.0157890  32.9366910 146.9520670
  78.7737250  33.0495790 146.3784700  77.5535060  33.7736110 146.9064100
  84.5571700  35.0506180 149.9422980  83.7446210  34.6763070 149.6018860
  85.0613340  34.2951260 150.2444170  89.0596680  31.7148630 151.1806050
  89.6626050  32.2868840 151.6554570  88.3189670  32.2788070 150.9579950
  92.2031280  32.1170190 146.4546330  92.3981910  33.0153640 146.7213760
  91.4161150  31.8857270 146.9479280  78.9992570  47.7983360 146.8938950
  78.4740190  48.1791390 146.1900910  78.9237150  48.4234130 147.6148660
  80.3883040  33.4630960 145.4922640  80.9175800  32.6760760 145.3630590
  81.0211360  34.1422150 145.7258170  82.5820880  33.2006100 148.5468030
  81.9523620  32.4993410 148.7138160  82.0426020  33.9610230 148.3301190
  93.7557890  49.3570900 148.2152890  93.9310080  48.6708640 147.5713810
  93.0579460  49.8817950 147.8229560  81.5985540  49.7465740 145.7688200
  82.3304360  49.4625020 145.2212090  81.8579210  49.5079020 146.6587580
  80.7600330  45.8630470 145.7734530  80.1309210  46.3315570 146.3220360
  80.8748160  45.0179690 146.2080720  88.2150050  39.9136130 131.9235730
  88.1344100  38.9990740 131.6527440  87.8014470  40.4103200 131.2175440
  86.3468090  41.6915150 133.8045000  85.5710190  41.2115590 134.0943570
  86.9981020  41.0120800 133.6301160  80.3633920  42.0034960 134.6820760
  79.5318800  41.7483670 135.0817270  80.9714900  42.0745730 135.4178680
  90.3675520  46.0975340 132.5844130  89.9057050  45.3262580 132.9131300
  91.1801070  46.1241410 133.0896580  80.3435180  46.0375050 134.8778780
  80.6463220  45.1472790 134.6989000  81.0878770  46.5945270 134.6501030
  76.7358880  39.5642500 134.3502850  77.3074990  38.7964700 134.3506490
  76.7360420  39.8631260 133.4409460  86.5938830  48.3833350 132.2048120
  85.9750270  48.8390850 131.6342560  87.4490610  48.5384810 131.8037820
  85.7877080  44.3672340 133.8115160  85.7185360  43.4262280 133.6504290
  86.5496940  44.4573750 134.3837730  77.9783750  34.9726860 136.1371780
  77.7986590  34.0752610 136.4174540  77.5763830  35.5198730 136.8118730
  86.8182250  37.1742720 134.0384090  87.1947070  36.3014600 133.9257760
  86.7201760  37.5101420 133.1474530  90.6006370  34.6693160 130.9712430
  91.4215990  34.1789730 131.0137910  90.6340450  35.2590820 131.7244270
  78.5970420  37.4687360 134.7454120  79.2780530  37.7325730 135.3641520
  78.2818470  36.6288230 135.0792130  82.7894990  38.5154720 133.8326710
  83.2973210  39.0135690 134.4731730  83.3208230  37.7389920 133.6566070
  94.8905920  36.6859910 137.5356060  94.1858090  37.0741620 137.0171170
  95.1563840  37.3810200 138.1376990  81.0731090  33.1553280 138.0990130
  81.0749530  33.6725670 137.2936030  80.2435400  32.6783460 138.0760060
  87.4602180  43.2672590 129.5980030  86.8419450  43.7322040 129.0342750
  87.9725430  43.9600070 130.0149540  82.3233940  42.7948460 136.2763630
  81.9903320  43.4217380 136.9184700  82.5000620  43.3210340 135.4965300
  90.8367850  36.6093540 133.7439970  90.1323420  36.8978430 134.3243080
  91.1980010  37.4193650 133.3839530  80.7546420  34.8663240 136.1060580
  81.0963230  35.7105290 135.8114450  79.8162230  35.0146980 136.2225920
  81.5353040  44.7629260 138.0912810  82.1527040  45.4380340 137.8097260
  80.6746160  45.1717240 138.0000310  92.4530630  46.2268670 136.0067450
  91.7694150  46.8967780 135.9984120  92.9924920  46.4249320 135.2412310
  93.9054770  36.0548330 134.1349180  92.9579680  36.0887310 134.2664610
  94.2304760  36.8687280 134.5198540  84.4374310  32.3545510 132.4305170
  84.7449290  31.7992400 131.7140670  83.5075010  32.4889970 132.2478160
  89.9889370  48.0712800 134.7212630  90.0016530  47.6675090 133.8534890
  89.4364590  48.8460090 134.6174060  91.2834790  44.7929020 129.8102800
  91.1731120  43.8503350 129.9352220  91.2803040  45.1544660 130.6965560
  89.3874810  42.9742640 136.0495240  89.8043600  42.7602750 135.2148700
  90.1114630  43.2315430 136.6203860  93.3336910  41.3729860 136.1411480
  92.5055540  41.4422950 135.6661610  93.9287390  41.9584170 135.6727310
  90.8552360  41.9814640 129.6700540  90.2364780  41.6434190 129.0226840
  90.8376810  41.3374400 130.3779730  90.2978920  38.1599180 137.0866350
  89.8850100  38.9852890 137.3406340  89.5654870  37.5744220 136.8942710
  82.4311710  40.9459080 131.9485020  82.0268710  40.2336330 131.4530920
  82.5174830  40.6012320 132.8373060  82.8993410  44.6326640 134.1124230
  82.6021700  44.0272110 133.4332010  83.8493230  44.6703950 134.0013590
  81.1440330  37.7202290 135.7284060  81.6954920  37.8297630 134.9537310
  81.6583840  38.0939890 136.4439290  90.9879020  48.2058510 137.7747330
  90.5109580  49.0130700 137.5819940  90.3040810  47.5536840 137.9273540
  81.9911840  44.3708330 140.7632030  81.0940370  44.5948300 141.0105430
  82.0164710  44.4943270 139.8143430  89.0317060  41.2201450 126.6773290
  89.4710340  40.3823880 126.5311110  89.7445480  41.8530850 126.7637430
  80.8183060  41.2421650 139.3389400  80.6790830  42.1144450 139.7076800
  79.9364420  40.8994460 139.1937340  87.1412440  46.1597520 130.6454530
  87.5808350  46.9021850 130.2309920  87.0799330  46.4024090 131.5693490
  82.6163410  47.1843350 141.5474550  82.5878840  47.5886300 140.6802980
  82.4528380  46.2553710 141.3846150  92.6134200  32.4744260 124.9914330
  92.3006860  32.5671090 125.8913400  93.3746670  33.0525290 124.9411760
  79.1316340  39.8404060 129.4491670  79.0113940  40.5666150 128.8372940
  78.8217230  39.0706970 128.9719580  94.5678230  47.9670450 142.8438720
  95.0437950  48.4453340 143.5227800  95.1885390  47.8987940 142.1184220
  76.7701710  43.0119200 135.2560310  76.8482130  43.1467970 134.3116030
  77.3843390  42.3035090 135.4488430  78.0149340  44.7119390 131.6666490
  77.6077420  44.8533980 130.8120090  78.9062350  44.4279550 131.4637700
  93.9711480  45.1583300 140.0038730  94.0974540  44.9195180 139.0855910
  94.0132860  44.3267840 140.4760810  87.8328220  48.8611300 138.5733540
  88.3472890  48.7719310 139.3755970  86.9897300  49.2071000 138.8661450
  82.2871000  48.9265170 129.7789160  82.1113480  48.0100710 129.5656960
  81.4326740  49.2852460 130.0186960  89.0758680  48.2816910 130.6364030
  89.5315630  47.5006290 130.9502650  89.4151200  48.9923730 131.1805210
  93.8235490  37.2115760 140.9688470  93.2079760  37.7195430 140.4403930
  93.5031910  36.3114090 140.9114410  76.8261230  44.0533370 137.7954770
  76.9892270  43.5838730 136.9774140  77.2913680  43.5456930 138.4603610
  81.5980000  33.1839130 132.8315340  81.1548150  33.9648670 132.4999860
  82.1564990  33.5069020 133.5386280  85.8849810  36.0507650 138.4350660
  85.4229180  36.2590670 139.2470600  85.4827920  35.2367000 138.1321330
  90.8854320  37.2716600 139.5647320  90.0347910  36.9722350 139.8856390
  90.7256110  37.5158610 138.6531140  87.9804030  38.7718350 141.6646110
  88.3057440  37.9382100 141.3248340  88.7684360  39.2946870 141.8124440
  84.7138820  32.8049830 127.7121170  84.0893000  32.8009700 128.4374480
  84.6268940  31.9380790 127.3157140  83.6355900  33.7286460 134.6904940
  83.9328230  34.6349290 134.6096960  84.1841460  33.2405240 134.0764510
  88.6191980  38.3136070 129.1587240  88.0200870  39.0371870 128.9750860
  89.1671590  38.2512850 128.3763690  83.8293430  39.2058280 141.2256860
  83.7337030  38.2653010 141.0757260  84.6725410  39.4273350 140.8304930
  87.2256850  36.9499610 131.1890520  87.6186420  37.2671810 130.3759210
  87.5873700  36.0711490 131.3035040  78.9603970  35.6171950 139.3790640
  78.5667360  36.4647160 139.5863420  78.2722370  34.9798320 139.5699280
  85.5349020  35.7006920 142.4487380  84.8447340  35.5079120 143.0833470
  86.2781320  35.9841560 142.9811680  76.2621020  33.5400410 133.4120720
  75.9734070  34.1103270 134.1245700  77.0066780  33.0604860 133.7751950
  87.8111990  39.5405360 135.2841300  87.0793110  40.0492170 135.6331400
  87.4136330  38.7235340 134.9830080  84.2489380  36.2159560 133.6893790
  84.2525440  35.7749510 132.8398330  85.1440500  36.5376890 133.7965610
  80.0991760  36.0986050 132.6488000  79.7591810  36.5761280 133.4055050
  79.3369080  35.6451170 132.2889100  88.2737900  34.9939040 134.6964240
  88.2910640  35.4447690 135.5406090  88.0253480  34.0944680 134.9097680
  91.7008650  32.4071220 140.5350620  92.0254420  31.6760880 141.0608600
  91.7365160  32.0884860 139.6331610  78.4000210  43.4284800 139.9550580
  78.0155000  42.7878470 140.5533540  78.7112400  44.1320920 140.5245310
  84.5497350  40.2761340 135.4359200  84.9167480  39.8019910 136.1820540
  84.3602410  41.1502910 135.7767540  77.4137840  35.0205030 131.5652670
  77.1284760  34.6560700 132.4031290  77.3516700  34.2885490 130.9515810
  82.3396720  39.3169980 137.7543410  82.0353790  40.1961960 137.9793770
  83.2943180  39.3769770 137.7900850  80.8678510  43.5230970 128.3510260
  80.0940770  42.9828590 128.1908980  81.5973140  43.0037580 128.0128020
  91.6266490  42.5196330 134.1436650  92.3465610  43.0151620 133.7532760
  91.4248310  41.8414220 133.4990520  87.0876430  33.9134290 128.2866040
  86.2741040  33.4147460 128.2111350  86.8938380  34.7532540 127.8702390
  87.0085290  42.5905390 140.0305650  86.9422600  41.6701060 139.7763240
  86.3790430  42.6880830 140.7450290  80.9115910  43.1911350 131.9889070
  81.4294580  42.3879610 131.9345960  80.4599930  43.1290490 132.8305900
  85.7985410  44.4577630 127.2616370  86.1401110  45.2019860 126.7659690
  84.9698120  44.7708750 127.6241200  78.3960450  40.1572720 138.9014770
  78.0375390  40.8226570 139.4888110  78.1015010  39.3256270 139.2727390
  81.5973570  40.6156960 141.7854320  81.2973710  40.7614140 140.8882140
  82.3684810  40.0562250 141.6927710  86.9402020  45.4125960 139.7809450
  86.9546560  44.4806920 139.5628360  86.2327120  45.4985720 140.4199220
  92.0739090  39.5965780 126.0508060  91.9902810  40.0280000 125.2004500
  92.7933280  40.0564130 126.4834880  93.1513230  42.0533300 139.1278030
  92.4261420  42.6462080 138.9307420  93.6788690  42.0456840 138.3291400
  88.6812820  43.7793470 132.6261880  89.0336640  43.1821600 131.9663250
  87.7975150  43.4537700 132.7970130  84.7676100  44.5391160 130.0332290
  85.4547230  45.0860370 130.4139880  83.9808520  45.0831890 130.0681900
  86.3735920  47.0543530 136.8749950  87.0178140  47.2602910 137.5523370
  86.7365360  46.2931930 136.4220800  79.9715090  31.8874840 130.1180170
  79.8429720  31.8792740 131.0665090  79.1477110  32.2257930 129.7671180
  87.6468000  45.0575880 135.5927400  88.2890230  44.3569040 135.7059570
  88.1717350  45.8374320 135.4124290  89.4205620  45.8570780 138.7963460
  89.7561860  46.4437470 139.4741380  88.5005960  45.7263490 139.0261250
  77.2739750  49.3691360 126.0911000  77.6337390  49.9680700 125.4368270
  77.1332090  49.9151250 126.8646030  76.9709020  33.6465960 139.5786870
  76.2567540  33.8462880 140.1839480  77.3904060  32.8705530 139.9501670
  77.2581610  47.6346220 140.5653400  77.3672730  46.6940960 140.4248790
  76.6062170  47.9000970 139.9167130  85.2494200  45.9062110 141.9651520
  84.9291070  45.1871350 142.5097210  84.5752560  46.5817180 142.0387580
  83.2908370  46.7522560 126.9084670  83.2818470  47.4852250 126.2929180
  82.3706730  46.5054140 127.0011630  88.4647800  36.1388270 137.3288320
  88.8328620  35.3183480 137.6567890  87.6046000  36.1990160 137.7443970
  91.8309830  35.0945210 128.1375880  91.2022990  35.1990880 127.4234110
  91.3361750  35.3141990 128.9269760  86.2767970  46.8150800 125.5709860
  86.3779950  46.6114790 124.6411840  85.3769710  46.5609080 125.7757640
  85.4249790  38.7927860 137.5526290  85.9235040  39.2673680 138.2178140
  85.5672740  37.8691380 137.7596320  87.8309290  34.0981820 130.9929550
  87.7077070  34.1167950 130.0439060  88.7793850  34.1460760 131.1127950
  84.9186080  49.3337120 130.2657530  85.1727580  49.2958510 129.3436900
  83.9698560  49.2070450 130.2585780  92.6316650  35.0095820 138.3954680
  92.1290250  35.7501220 138.7348490  93.4473310  35.3979820 138.0791470
  90.9238660  40.2529000 131.8416040  89.9828800  40.2679230 132.0163730
  91.2382730  39.4664960 132.2876340  79.5967060  39.3673670 126.0852890
  79.6770650  38.4201180 126.1970290  80.4886810  39.6980550 126.1913550
  92.9264240  47.4237850 133.5170300  93.0511660  48.2469020 133.9894110
  93.7929800  47.2128580 133.1694450  80.3981770  49.5169060 133.1887430
  81.1344250  48.9684520 133.4596000  80.7822690  50.3825070 133.0493420
  79.4040050  48.7015130 142.3773010  80.2052780  49.0227180 142.7908410
  78.8891870  48.3410710 143.0992920  83.5084080  48.6899370 125.0113000
  84.3012690  48.9788200 124.5594790  82.9888430  48.2591540 124.3325480
  88.2404680  44.8095000 142.3248420  87.6342840  44.8326600 141.5844170
  87.9358790  44.0778040 142.8615670  89.6705050  48.5375290 140.9357830
  90.6226800  48.4533310 140.8858070  89.5233270  49.2017000 141.6091620
  77.1237860  41.1888590 141.3209060  77.6276880  40.6095870 141.8925290
  76.3845280  41.4728820 141.8585430  84.0261480  43.9102780 124.8755350
  83.9212120  43.2955130 125.6016730  83.8585700  43.3868670 124.0918360
  84.1775800  42.5959580 140.8544580  83.4121470  43.1644580 140.7699250
  84.3591760  42.3035790 139.9612810  91.3199150  44.3264910 141.4119600
  92.0608620  44.6640670 140.9087060  90.5571830  44.4956970 140.8589370
  79.1560940  39.3318180 142.2159130  79.1966280  39.0332050 143.1244360
  80.0106440  39.7325790 142.0566650  81.0966750  37.9110280 140.1833620
  80.5663210  37.4201230 139.5556960  81.7654820  38.3394480 139.6491550
  89.9944810  42.3779740 139.9474810  90.4085830  42.5324820 140.7965230
  89.0595810  42.5034960 140.1100590  90.4666980  39.7175900 141.9513960
  91.0487750  38.9628220 141.8634440  90.6428750  40.2483340 141.1745440
  81.5839050  34.8772650 140.2630910  81.4895920  34.2593400 139.5381780
  81.0036440  35.6038940 140.0360820  84.3500490  33.4345890 137.2958300
  83.9017790  33.4570150 136.4503850  83.7165690  33.0364910 137.8928600
  84.7560040  42.3300220 137.9170740  85.1748150  43.1732950 137.7446980
  83.8368670  42.4672260 137.6877520  87.0923940  40.0616400 139.3008580
  87.2120150  39.4657540 140.0403420  87.9517940  40.0986090 138.8809880
  89.4311840  40.6153590 137.8771090  88.9047060  41.1396210 137.2736230
  89.7743180  41.2480980 138.5080820  82.6067460  48.6353230 139.0328470
  82.0688550  49.3599290 138.7137170  82.8601420  48.1583570 138.2425810
  83.8592710  36.6037750 140.5584400  84.4492400  36.2953600 141.2462220
  83.0412950  36.1317500 140.7144300  88.6786140  36.2203560 140.7917420
  87.9901660  35.5585100 140.7267410  89.3992160  35.7741830 141.2365880
  89.3086540  32.8155190 126.8507680  89.5888830  31.9723090 127.2067100
  88.5352270  33.0478300 127.3646430  85.4629670  49.8704440 139.2915120
  85.3888370  50.7739580 139.5987490  84.5608510  49.5516340 139.2637190
  86.0115000  49.0362950 126.9141480  86.9065790  49.3747920 126.9360240
  86.0432630  48.3142360 126.2865760  81.4618880  45.5288040 130.2550710
  81.1614420  45.4053010 131.1554620  81.3556370  44.6696630 129.8466440
  77.3547170  48.0649620 135.3330370  76.9178160  48.2450420 136.1654520
  77.9224850  48.8224240 135.1912090  92.9909350  47.5666620 139.6207680
  92.3911340  47.6259180 138.8771600  93.1203250  46.6271600 139.7504530
  94.2310800  45.3084440 124.9577390  93.4003760  45.3761090 125.4284620
  94.4082630  46.1988560 124.6544250  93.6867260  42.0531920 127.4611590
  94.4486170  42.6228570 127.5671280  93.7021630  41.4859120 128.2319900
  77.1871600  40.5769850 131.6919250  76.5320440  40.3081490 131.0478950
  78.0249550  40.4674330 131.2421230  94.6927230  42.9082020 132.3053520
  95.0636060  42.1249340 131.8989490  95.3329160  43.5971120 132.1270820
  91.6760990  44.2918600 137.7183840  90.8620830  44.7215760 137.9809630
  92.0835190  44.9037010 137.1052890  93.7386430  42.3466290 124.6184110
  94.0135270  43.2545170 124.4903330  93.5497170  42.2828820 125.5546100
  93.6351770  40.2835280 129.6113540  93.2595370  39.5163210 129.1794830
  92.9054890  40.6657980 130.0988470  78.2247530  40.9622420 136.2322590
  78.5920570  40.8749820 137.1118610  77.6558350  40.1988970 136.1329450
  93.0251390  39.4306800 139.2453060  92.7937480  39.2019550 138.3451010
  93.2855940  40.3506350 139.1997950  77.7763530  37.8731510 140.1381010
  76.8819580  37.8398270 140.4774720  78.3161080  38.0718300 140.9032260
  91.4639460  34.6563230 142.0232760  92.3409640  34.6646630 142.4066760
  91.4760300  33.9194070 141.4125110  76.4009680  37.7868780 127.6344580
  75.4973760  38.0498980 127.4596240  76.8850300  38.0579950 126.8544540
  92.9102730  38.5092770 132.9120780  93.4340210  38.0155420 132.2810950
  93.4962150  38.6443130 133.6568350  93.0892450  38.5932640 136.4340330
  92.1395160  38.5596180 136.5485320  93.2705460  39.5032750 136.1990100
  78.5911050  32.8973650 124.5841610  79.3139180  33.4382590 124.9022830
  78.8635570  32.6237070 123.7083150  92.4002700  37.7666120 128.8513190
  92.8961820  37.5336990 129.6362070  92.2018770  36.9277960 128.4350830
  78.2803240  32.1479840 134.4864230  78.9279430  31.5977220 134.0459390
  78.7005080  32.4022990 135.3080040  93.8289860  36.4027070 131.3850870
  93.7189140  36.2483110 132.3233140  94.5897450  35.8748010 131.1426280
  92.1755580  32.3421200 137.8433870  92.8127800  32.9555340 138.2093060
  92.3230470  32.3781860 136.8983100  94.7180130  34.2334990 124.6257010
  95.6429440  34.1016170 124.4175300  94.6955920  34.3127810 125.5793460
  94.7918620  35.0045650 127.2513720  93.9970120  34.9390770 127.7806630
  94.9961900  35.9396290 127.2399070  91.7337040  49.0437200 131.2452110
  92.3296110  48.7221770 130.5686530  91.9915190  48.5709020 132.0365380
  78.0335240  32.3035510 137.2289550  77.6850060  32.7599330 137.9947730
  77.7022940  31.4092640 137.3111980  79.6399610  45.4755110 141.3942740
  79.5969240  45.1048020 142.2757200  79.7710620  46.4132680 141.5344560
  83.3405640  47.0314700 136.9952460  83.0997000  47.2989260 136.1082980
  84.2808280  47.2020430 137.0503320  85.5460060  33.4947390 140.7508970
  85.4848950  34.0869220 141.5004380  86.4860440  33.3873350 140.6059230
  88.1834620  33.1517450 140.3901260  88.7975030  33.4696740 139.7282340
  88.7284180  32.6666040 141.0097120  94.6009800  49.0509080 137.7963100
  94.1068080  49.4477950 137.0790230  93.9923090  48.4258290 138.1900380
  78.7055880  31.8311710 140.5040320  79.2538870  31.6499760 139.7406430
  78.7711190  31.0405820 141.0396630  79.4787640  48.4217360 138.5140520
  78.8847960  48.2902060 139.2530560  79.4711480  47.5855500 138.0482620
  88.9242660  31.7149590 136.7170550  88.0502500  32.0484700 136.5143480
  88.8153410  31.2422770 137.5422420  89.8314640  33.9220460 138.1012270
  89.5028000  33.1072220 137.7214000  90.7796940  33.8790270 137.9777960
  92.2849250  49.6932500 135.0749840  91.8252220  50.4448310 134.7007860
  91.6561710  48.9738970 135.0164640  79.1099870  45.7875740 137.4648560
  78.3833930  45.1681030 137.3974510  79.1709020  46.1816350 136.5946640
  82.7144970  48.0020740 134.2497970  83.2309990  47.3908100 133.7246230
  83.3642350  48.5049520 134.7408980  85.4540470  48.8929230 135.0766950
  85.7418280  48.6383530 134.1999960  85.9663690  48.3406590 135.6672520
  86.6717480  32.6319430 135.6563460  85.8889270  33.1064930 135.9360220
  86.3780410  31.7274260 135.5476640  91.2238550  33.3342530 133.7012550
  91.6646640  33.2787630 132.8534150  90.9546140  34.2500540 133.7722730
  93.0877120  32.9657770 131.7121370  93.0265520  32.0218990 131.5652390
  93.8669150  33.0737860 132.2574830  78.0157890  32.9366910 128.1777180
  78.7737250  33.0495790 127.6041210  77.5535060  33.7736110 128.1320610
  84.5571700  35.0506180 131.1679490  83.7446210  34.6763070 130.8275370
  85.0613340  34.2951260 131.4700680  89.0596680  31.7148630 132.4062560
  89.6626050  32.2868840 132.8811080  88.3189670  32.2788070 132.1836460
  92.2031280  32.1170190 127.6802840  92.3981910  33.0153640 127.9470270
  91.4161150  31.8857270 128.1735790  78.9992570  47.7983360 128.1195460
  78.4740190  48.1791390 127.4157420  78.9237150  48.4234130 128.8405170
  80.3883040  33.4630960 126.7179150  80.9175800  32.6760760 126.5887100
  81.0211360  34.1422150 126.9514680  82.5820880  33.2006100 129.7724540
  81.9523620  32.4993410 129.9394670  82.0426020  33.9610230 129.5557700
  85.5212830  49.8145330 142.4435150  86.4480140  49.5789600 142.4871110
  85.5063260  50.6417330 141.9621180  82.7076440  32.4790080 142.2077030
  82.4260710  32.9823680 141.4437850  83.0896140  31.6811830 141.8419160
  81.5985540  49.7465740 126.9944710  82.3304360  49.4625020 126.4468600
  81.8579210  49.5079020 127.8844090  80.7600330  45.8630470 126.9991040
  80.1309210  46.3315570 127.5476870  80.8748160  45.0179690 127.4337230
  89.3091900  31.8943660 142.7857500  89.1957350  32.2138270 143.6809020
  90.1261640  32.2956170 142.4894780  92.0890390  49.0415190 142.2676190
  92.8815710  48.5464420 142.0602150  92.3823540  49.7205330 142.8751800
  88.2150050  39.9136130 113.1492240  88.1344100  38.9990740 112.8783950
  87.8014470  40.4103200 112.4431950  86.3468090  41.6915150 115.0301510
  85.5710190  41.2115590 115.3200080  86.9981020  41.0120800 114.8557670
  90.3675520  46.0975340 113.8100640  89.9057050  45.3262580 114.1387810
  91.1801070  46.1241410 114.3153090  80.3435180  46.0375050 116.1035290
  80.6463220  45.1472790 115.9245510  81.0878770  46.5945270 115.8757540
  85.7877080  44.3672340 115.0371670  85.7185360  43.4262280 114.8760800
  86.5496940  44.4573750 115.6094240  86.8182250  37.1742720 115.2640600
  87.1947070  36.3014600 115.1514270  86.7201760  37.5101420 114.3731040
  82.7894990  38.5154720 115.0583220  83.2973210  39.0135690 115.6988240
  83.3208230  37.7389920 114.8822580  94.8905920  36.6859910 118.7612570
  94.1858090  37.0741620 118.2427680  95.1563840  37.3810200 119.3633500
  81.0731090  33.1553280 119.3246640  81.0749530  33.6725670 118.5192540
  80.2435400  32.6783460 119.3016570  87.4602180  43.2672590 110.8236540
  86.8419450  43.7322040 110.2599260  87.9725430  43.9600070 111.2406050
  82.3233940  42.7948460 117.5020140  81.9903320  43.4217380 118.1441210
  82.5000620  43.3210340 116.7221810  84.4374310  32.3545510 113.6561680
  84.7449290  31.7992400 112.9397180  83.5075010  32.4889970 113.4734670
  89.9889370  48.0712800 115.9469140  90.0016530  47.6675090 115.0791400
  89.4364590  48.8460090 115.8430570  91.2834790  44.7929020 111.0359310
  91.1731120  43.8503350 111.1608730  91.2803040  45.1544660 111.9222070
  89.3874810  42.9742640 117.2751750  89.8043600  42.7602750 116.4405210
  90.1114630  43.2315430 117.8460370  86.8255070  40.4194340 110.3921800
  85.8984350  40.3531720 110.6210270  86.9779890  41.3574470 110.2777040
  86.8124150  36.6911340 107.3888960  85.8727820  36.8525300 107.4741420
  87.1307410  37.4097020 106.8424950  90.2978920  38.1599180 118.3122860
  89.8850100  38.9852890 118.5662850  89.5654870  37.5744220 118.1199220
  82.4311710  40.9459080 113.1741530  82.0268710  40.2336330 112.6787430
  82.5174830  40.6012320 114.0629570  82.8993410  44.6326640 115.3380740
  82.6021700  44.0272110 114.6588520  83.8493230  44.6703950 115.2270100
  81.1440330  37.7202290 116.9540570  81.6954920  37.8297630 116.1793820
  81.6583840  38.0939890 117.6695800  89.0317060  41.2201450 107.9029800
  89.4710340  40.3823880 107.7567620  89.7445480  41.8530850 107.9893940
  80.8183060  41.2421650 120.5645910  80.6790830  42.1144450 120.9333310
  79.9364420  40.8994460 120.4193850  87.1412440  46.1597520 111.8711040
  87.5808350  46.9021850 111.4566430  87.0799330  46.4024090 112.7950000
  92.6134200  32.4744260 106.2170840  92.3006860  32.5671090 107.1169910
  93.3746670  33.0525290 106.1668270  79.1316340  39.8404060 110.6748180
  79.0113940  40.5666150 110.0629450  78.8217230  39.0706970 110.1976090
  94.5678230  47.9670450 124.0695230  95.0437950  48.4453340 124.7484310
  95.1885390  47.8987940 123.3440730  87.8328220  48.8611300 119.7990050
  88.3472890  48.7719310 120.6012480  86.9897300  49.2071000 120.0917960
  89.8082620  49.1466640 109.2274050  89.6483760  48.8569580 110.1255880
  89.6429330  48.3706770 108.6919280  89.5108750  46.6554200 107.7872050
  88.8173910  46.6531490 107.1274330  90.2531610  46.2313520 107.3566220
  89.0758680  48.2816910 111.8620540  89.5315630  47.5006290 112.1759160
  89.4151200  48.9923730 112.4061720  93.8235490  37.2115760 122.1944980
  93.2079760  37.7195430 121.6660440  93.5031910  36.3114090 122.1370920
  76.8261230  44.0533370 119.0211280  76.9892270  43.5838730 118.2030650
  77.2913680  43.5456930 119.6860120  85.8849810  36.0507650 119.6607170
  85.4229180  36.2590670 120.4727110  85.4827920  35.2367000 119.3577840
  90.8854320  37.2716600 120.7903830  90.0347910  36.9722350 121.1112900
  90.7256110  37.5158610 119.8787650  84.7138820  32.8049830 108.9377680
  84.0893000  32.8009700 109.6630990  84.6268940  31.9380790 108.5413650
  83.6355900  33.7286460 115.9161450  83.9328230  34.6349290 115.8353470
  84.1841460  33.2405240 115.3021020  88.6191980  38.3136070 110.3843750
  88.0200870  39.0371870 110.2007370  89.1671590  38.2512850 109.6020200
  87.2256850  36.9499610 112.4147030  87.6186420  37.2671810 111.6015720
  87.5873700  36.0711490 112.5291550  76.4491250  37.4820530 105.8479950
  76.3665920  38.4251290 105.9894940  76.0974310  37.3395440 104.9692300
  87.8111990  39.5405360 116.5097810  87.0793110  40.0492170 116.8587910
  87.4136330  38.7235340 116.2086590  91.7008650  32.4071220 121.7607130
  92.0254420  31.6760880 122.2865110  91.7365160  32.0884860 120.8588120
  84.5497350  40.2761340 116.6615710  84.9167480  39.8019910 117.4077050
  84.3602410  41.1502910 117.0024050  82.3396720  39.3169980 118.9799920
  82.0353790  40.1961960 119.2050280  83.2943180  39.3769770 119.0157360
  80.8678510  43.5230970 109.5766770  80.0940770  42.9828590 109.4165490
  81.5973140  43.0037580 109.2384530  87.0876430  33.9134290 109.5122550
  86.2741040  33.4147460 109.4367860  86.8938380  34.7532540 109.0958900
  89.8024820  38.2853940 107.8084710  90.6904440  38.5971170 107.6336050
  89.7729910  37.4126190 107.4165290  78.3960450  40.1572720 120.1271280
  78.0375390  40.8226570 120.7144620  78.1015010  39.3256270 120.4983900
  81.5973570  40.6156960 123.0110830  81.2973710  40.7614140 122.1138650
  82.3684810  40.0562250 122.9184220  92.0739090  39.5965780 107.2764570
  91.9902810  40.0280000 106.4261010  92.7933280  40.0564130 107.7091390
  93.1513230  42.0533300 120.3534540  92.4261420  42.6462080 120.1563930
  93.6788690  42.0456840 119.5547910  88.6812820  43.7793470 113.8518390
  89.0336640  43.1821600 113.1919760  87.7975150  43.4537700 114.0226640
  84.7676100  44.5391160 111.2588800  85.4547230  45.0860370 111.6396390
  83.9808520  45.0831890 111.2938410  76.9068500  40.1563980 106.7505880
  77.7763350  40.4388780 107.0341800  76.4158820  40.9699850 106.6354690
  84.0703310  41.5437190 110.8714160  84.5266090  42.3542440 111.0974350
  83.7191520  41.2260330 111.7032650  86.3735920  47.0543530 118.1006460
  87.0178140  47.2602910 118.7779880  86.7365360  46.2931930 117.6477310
  87.6468000  45.0575880 116.8183910  88.2890230  44.3569040 116.9316080
  88.1717350  45.8374320 116.6380800  77.2739750  49.3691360 107.3167510
  77.6337390  49.9680700 106.6624780  77.1332090  49.9151250 108.0902540
  76.9709020  33.6465960 120.8043380  76.2567540  33.8462880 121.4095990
  77.3904060  32.8705530 121.1758180  85.2494200  45.9062110 123.1908030
  84.9291070  45.1871350 123.7353720  84.5752560  46.5817180 123.2644090
  78.8915010  41.9737450 108.8787940  78.2842960  42.7136350 108.8883240
  79.3664360  42.0636810 108.0526140  86.2767970  46.8150800 106.7966370
  86.3779950  46.6114790 105.8668350  85.3769710  46.5609080 107.0014150
  85.4249790  38.7927860 118.7782800  85.9235040  39.2673680 119.4434650
  85.5672740  37.8691380 118.9852830  87.8309290  34.0981820 112.2186060
  87.7077070  34.1167950 111.2695570  88.7793850  34.1460760 112.3384460
  82.0028880  35.6816240 108.1540980  82.8519410  36.1186390 108.0881170
  81.6360150  35.9936500 108.9813040  92.6316650  35.0095820 119.6211190
  92.1290250  35.7501220 119.9605000  93.4473310  35.3979820 119.3047980
  79.5967060  39.3673670 107.3109400  79.6770650  38.4201180 107.4226800
  80.4886810  39.6980550 107.4170060  77.2827250  45.5842630 110.2885450
  76.3567030  45.8263770 110.2790860  77.7483680  46.4116890 110.1670200
  77.1237860  41.1888590 122.5465570  77.6276880  40.6095870 123.1181800
  76.3845280  41.4728820 123.0841940  84.1775800  42.5959580 122.0801090
  83.4121470  43.1644580 121.9955760  84.3591760  42.3035790 121.1869320
  79.1560940  39.3318180 123.4415640  79.1966280  39.0332050 124.3500870
  80.0106440  39.7325790 123.2823160  84.3500490  33.4345890 118.5214810
  83.9017790  33.4570150 117.6760360  83.7165690  33.0364910 119.1185110
  84.7560040  42.3300220 119.1427250  85.1748150  43.1732950 118.9703490
  83.8368670  42.4672260 118.9134030  89.4311840  40.6153590 119.1027600
  88.9047060  41.1396210 118.4992740  89.7743180  41.2480980 119.7337330
  81.8298230  38.0046960 105.5477310  81.6287290  37.1414320 105.9090650
  81.6590280  37.9180320 104.6098910  89.3086540  32.8155190 108.0764190
  89.5888830  31.9723090 108.4323610  88.5352270  33.0478300 108.5902940
  80.6281030  35.1047580 105.5355190  80.9306930  35.1115010 104.6274340
  81.3675620  34.7545440 106.0322850  85.4629670  49.8704440 120.5171630
  85.3888370  50.7739580 120.8244000  84.5608510  49.5516340 120.4893700
  83.8465960  34.0482200 106.5211390  83.4987960  33.3706190 105.9413840
  84.0478730  33.5871710 107.3354780  81.4618880  45.5288040 111.4807220
  81.1614420  45.4053010 112.3811130  81.3556370  44.6696630 111.0722950
  77.3547170  48.0649620 116.5586880  76.9178160  48.2450420 117.3911030
  77.9224850  48.8224240 116.4168600  77.1871600  40.5769850 112.9175760
  76.5320440  40.3081490 112.2735460  78.0249550  40.4674330 112.4677740
  90.1362040  35.3711140 107.1394250  90.5546920  35.1842120 106.2990910
  89.8298100  34.5190190 107.4497180  93.0251390  39.4306800 120.4709570
  92.7937480  39.2019550 119.5707520  93.2855940  40.3506350 120.4254460
  91.4639460  34.6563230 123.2489270  92.3409640  34.6646630 123.6323270
  91.4760300  33.9194070 122.6381620  76.4009680  37.7868780 108.8601090
  75.4973760  38.0498980 108.6852750  76.8850300  38.0579950 108.0801050
  93.0892450  38.5932640 117.6596840  92.1395160  38.5596180 117.7741830
  93.2705460  39.5032750 117.4246610  78.9436890  36.8434320 106.7695470
  79.6528590  36.4217540 106.2842750  78.2276830  36.9109550 106.1378820
  78.5911050  32.8973650 105.8098120  79.3139180  33.4382590 106.1279340
  78.8635570  32.6237070 104.9339660  92.1755580  32.3421200 119.0690380
  92.8127800  32.9555340 119.4349570  92.3230470  32.3781860 118.1239610
  91.7337040  49.0437200 112.4708620  92.3296110  48.7221770 111.7943040
  91.9915190  48.5709020 113.2621890  83.3405640  47.0314700 118.2208970
  83.0997000  47.2989260 117.3339490  84.2808280  47.2020430 118.2759830
  85.5460060  33.4947390 121.9765480  85.4848950  34.0869220 122.7260890
  86.4860440  33.3873350 121.8315740  88.1834620  33.1517450 121.6157770
  88.7975030  33.4696740 120.9538850  88.7284180  32.6666040 122.2353630
  78.7055880  31.8311710 121.7296830  79.2538870  31.6499760 120.9662940
  78.7711190  31.0405820 122.2653140  92.2849250  49.6932500 116.3006350
  91.8252220  50.4448310 115.9264370  91.6561710  48.9738970 116.2421150
  84.5571700  35.0506180 112.3936000  83.7446210  34.6763070 112.0531880
  85.0613340  34.2951260 112.6957190  89.0596680  31.7148630 113.6319070
  89.6626050  32.2868840 114.1067590  88.3189670  32.2788070 113.4092970
  80.3883040  33.4630960 107.9435660  80.9175800  32.6760760 107.8143610
  81.0211360  34.1422150 108.1771190  82.5820880  33.2006100 110.9981050
  81.9523620  32.4993410 111.1651180  82.0426020  33.9610230 110.7814210
  85.5212830  49.8145330 123.6691660  86.4480140  49.5789600 123.7127620
  85.5063260  50.6417330 123.1877690  82.7076440  32.4790080 123.4333540
  82.4260710  32.9823680 122.6694360  83.0896140  31.6811830 123.0675670
  81.5985540  49.7465740 108.2201220  82.3304360  49.4625020 107.6725110
  81.8579210  49.5079020 109.1100600  80.7600330  45.8630470 108.2247550
  80.1309210  46.3315570 108.7733380  80.8748160  45.0179690 108.6593740
  89.3091900  31.8943660 124.0114010  89.1957350  32.2138270 124.9065530
  90.1261640  32.2956170 123.7151290  88.2150050  39.9136130  94.3748750
  88.1344100  38.9990740  94.1040460  87.8014470  40.4103200  93.6688460
  86.3468090  41.6915150  96.2558020  85.5710190  41.2115590  96.5456590
  86.9981020  41.0120800  96.0814180  90.3675520  46.0975340  95.0357150
  89.9057050  45.3262580  95.3644320  91.1801070  46.1241410  95.5409600
  76.7358880  39.5642500  96.8015870  77.3074990  38.7964700  96.8019510
  76.7360420  39.8631260  95.8922480  86.5938830  48.3833350  94.6561140
  85.9750270  48.8390850  94.0855580  87.4490610  48.5384810  94.2550840
  85.7877080  44.3672340  96.2628180  85.7185360  43.4262280  96.1017310
  86.5496940  44.4573750  96.8350750  77.9783750  34.9726860  98.5884800
  77.7986590  34.0752610  98.8687560  77.5763830  35.5198730  99.2631750
  86.8182250  37.1742720  96.4897110  87.1947070  36.3014600  96.3770780
  86.7201760  37.5101420  95.5987550  80.9487260  35.5468350  91.9514550
  81.0554010  36.4472080  92.2583310  80.0379620  35.4986320  91.6609200
  90.6006370  34.6693160  93.4225450  91.4215990  34.1789730  93.4650930
  90.6340450  35.2590820  94.1757290  78.5970420  37.4687360  97.1967140
  79.2780530  37.7325730  97.8154540  78.2818470  36.6288230  97.5305150
  94.8905920  36.6859910  99.9869080  94.1858090  37.0741620  99.4684190
  95.1563840  37.3810200 100.5890010  81.0731090  33.1553280 100.5503150
  81.0749530  33.6725670  99.7449050  80.2435400  32.6783460 100.5273080
  87.4602180  43.2672590  92.0493050  86.8419450  43.7322040  91.4855770
  87.9725430  43.9600070  92.4662560  90.8367850  36.6093540  96.1952990
  90.1323420  36.8978430  96.7756100  91.1980010  37.4193650  95.8352550
  80.7546420  34.8663240  98.5573600  81.0963230  35.7105290  98.2627470
  79.8162230  35.0146980  98.6738940  76.8285380  43.9529120  89.4232680
  76.4513360  44.4416220  88.6917580  77.0858450  44.6254400  90.0539210
  93.9054770  36.0548330  96.5862200  92.9579680  36.0887310  96.7177630
  94.2304760  36.8687280  96.9711560  84.4374310  32.3545510  94.8818190
  84.7449290  31.7992400  94.1653690  83.5075010  32.4889970  94.6991180
  89.9889370  48.0712800  97.1725650  90.0016530  47.6675090  96.3047910
  89.4364590  48.8460090  97.0687080  91.2834790  44.7929020  92.2615820
  91.1731120  43.8503350  92.3865240  91.2803040  45.1544660  93.1478580
  86.8255070  40.4194340  91.6178310  85.8984350  40.3531720  91.8466780
  86.9779890  41.3574470  91.5033550  86.8124150  36.6911340  88.6145470
  85.8727820  36.8525300  88.6997930  87.1307410  37.4097020  88.0681460
  93.3336910  41.3729860  98.5924500  92.5055540  41.4422950  98.1174630
  93.9287390  41.9584170  98.1240330  90.8552360  41.9814640  92.1213560
  90.2364780  41.6434190  91.4739860  90.8376810  41.3374400  92.8292750
  90.2978920  38.1599180  99.5379370  89.8850100  38.9852890  99.7919360
  89.5654870  37.5744220  99.3455730  82.4311710  40.9459080  94.3998040
  82.0268710  40.2336330  93.9043940  82.5174830  40.6012320  95.2886080
  82.8993410  44.6326640  96.5637250  82.6021700  44.0272110  95.8845030
  83.8493230  44.6703950  96.4526610  89.0317060  41.2201450  89.1286310
  89.4710340  40.3823880  88.9824130  89.7445480  41.8530850  89.2150450
  87.1412440  46.1597520  93.0967550  87.5808350  46.9021850  92.6822940
  87.0799330  46.4024090  94.0206510  92.6134200  32.4744260  87.4427350
  92.3006860  32.5671090  88.3426420  93.3746670  33.0525290  87.3924780
  76.7701710  43.0119200  97.7073330  76.8482130  43.1467970  96.7629050
  77.3843390  42.3035090  97.9001450  93.9711480  45.1583300 102.4551750
  94.0974540  44.9195180 101.5368930  94.0132860  44.3267840 102.9273830
  89.8082620  49.1466640  90.4530560  89.6483760  48.8569580  91.3512390
  89.6429330  48.3706770  89.9175790  82.2871000  48.9265170  92.2302180
  82.1113480  48.0100710  92.0169980  81.4326740  49.2852460  92.4699980
  89.5108750  46.6554200  89.0128560  88.8173910  46.6531490  88.3530840
  90.2531610  46.2313520  88.5822730  89.0758680  48.2816910  93.0877050
  89.5315630  47.5006290  93.4015670  89.4151200  48.9923730  93.6318230
  81.5980000  33.1839130  95.2828360  81.1548150  33.9648670  94.9512880
  82.1564990  33.5069020  95.9899300  85.8849810  36.0507650 100.8863680
  85.4229180  36.2590670 101.6983620  85.4827920  35.2367000 100.5834350
  83.6355900  33.7286460  97.1417960  83.9328230  34.6349290  97.0609980
  84.1841460  33.2405240  96.5277530  88.6191980  38.3136070  91.6100260
  88.0200870  39.0371870  91.4263880  89.1671590  38.2512850  90.8276710
  87.2256850  36.9499610  93.6403540  87.6186420  37.2671810  92.8272230
  87.5873700  36.0711490  93.7548060  78.9603970  35.6171950 101.8303660
  78.5667360  36.4647160 102.0376440  78.2722370  34.9798320 102.0212300
  85.5349020  35.7006920 104.9000400  84.8447340  35.5079120 105.5346490
  86.2781320  35.9841560 105.4324700  76.2621020  33.5400410  95.8633740
  75.9734070  34.1103270  96.5758720  77.0066780  33.0604860  96.2264970
  76.4491250  37.4820530  87.0736460  76.3665920  38.4251290  87.2151450
  76.0974310  37.3395440  86.1948810  87.8111990  39.5405360  97.7354320
  87.0793110  40.0492170  98.0844420  87.4136330  38.7235340  97.4343100
  84.2489380  36.2159560  96.1406810  84.2525440  35.7749510  95.2911350
  85.1440500  36.5376890  96.2478630  80.0991760  36.0986050  95.1001020
  79.7591810  36.5761280  95.8568070  79.3369080  35.6451170  94.7402120
  84.3109530  37.2171640  89.1313570  84.4322350  37.1758120  90.0799390
  83.9258040  38.0795790  88.9760300  88.2737900  34.9939040  97.1477260
  88.2910640  35.4447690  97.9919110  88.0253480  34.0944680  97.3610700
  83.3231030  39.5272780  88.5296870  82.7547930  39.0791030  87.9032780
  84.0320030  39.8865560  87.9962020  91.7008650  32.4071220 102.9863640
  92.0254420  31.6760880 103.5121620  91.7365160  32.0884860 102.0844630
  77.4137840  35.0205030  94.0165690  77.1284760  34.6560700  94.8544310
  77.3516700  34.2885490  93.4028830  87.0876430  33.9134290  90.7379060
  86.2741040  33.4147460  90.6624370  86.8938380  34.7532540  90.3215410
  89.8024820  38.2853940  89.0341220  90.6904440  38.5971170  88.8592560
  89.7729910  37.4126190  88.6421800  80.9115910  43.1911350  94.4402090
  81.4294580  42.3879610  94.3858980  80.4599930  43.1290490  95.2818920
  85.7985410  44.4577630  89.7129390  86.1401110  45.2019860  89.2172710
  84.9698120  44.7708750  90.0754220  92.0739090  39.5965780  88.5021080
  91.9902810  40.0280000  87.6517520  92.7933280  40.0564130  88.9347900
  93.1026340  46.4508040  91.2303210  92.4602500  45.7963660  91.5046930
  92.7157000  46.8563130  90.4543880  88.6812820  43.7793470  95.0774900
  89.0336640  43.1821600  94.4176270  87.7975150  43.4537700  95.2483150
  84.7676100  44.5391160  92.4845310  85.4547230  45.0860370  92.8652900
  83.9808520  45.0831890  92.5194920  76.9068500  40.1563980  87.9762390
  77.7763350  40.4388780  88.2598310  76.4158820  40.9699850  87.8611200
  84.0703310  41.5437190  92.0970670  84.5266090  42.3542440  92.3230860
  83.7191520  41.2260330  92.9289160  79.9715090  31.8874840  92.5693190
  79.8429720  31.8792740  93.5178110  79.1477110  32.2257930  92.2184200
  91.4923720  45.3424500  87.7679560  91.2661300  44.6254940  88.3604200
  91.1019920  45.0936940  86.9301310  77.2739750  49.3691360  88.5424020
  77.6337390  49.9680700  87.8881290  77.1332090  49.9151250  89.3159050
  76.9709020  33.6465960 102.0299890  76.2567540  33.8462880 102.6352500
  77.3904060  32.8705530 102.4014690  91.0739970  43.2596440  89.4293720
  90.7861670  43.7209130  90.2171600  91.8692140  42.7994210  89.6977940
  83.2908370  46.7522560  89.3597690  83.2818470  47.4852250  88.7442200
  82.3706730  46.5054140  89.4524650  88.4647800  36.1388270  99.7801340
  88.8328620  35.3183480 100.1080910  87.6046000  36.1990160 100.1956990
  91.8309830  35.0945210  90.5888900  91.2022990  35.1990880  89.8747130
  91.3361750  35.3141990  91.3782780  86.2767970  46.8150800  88.0222880
  86.3779950  46.6114790  87.0924860  85.3769710  46.5609080  88.2270660
  83.7993860  37.3731160  92.0046780  83.0910010  37.8417500  92.4460390
  84.0838340  36.7153170  92.6391970  85.4249790  38.7927860 100.0039310
  85.9235040  39.2673680 100.6691160  85.5672740  37.8691380 100.2109340
  87.8309290  34.0981820  93.4442570  87.7077070  34.1167950  92.4952080
  88.7793850  34.1460760  93.5640970  84.9186080  49.3337120  92.7170550
  85.1727580  49.2958510  91.7949920  83.9698560  49.2070450  92.7098800
  82.0028880  35.6816240  89.3797490  82.8519410  36.1186390  89.3137680
  81.6360150  35.9936500  90.2069550  92.6316650  35.0095820 100.8467700
  92.1290250  35.7501220 101.1861510  93.4473310  35.3979820 100.5304490
  90.9238660  40.2529000  94.2929060  89.9828800  40.2679230  94.4676750
  91.2382730  39.4664960  94.7389360  80.9020300  41.9348600  87.8533020
  81.6683570  41.8229960  88.4158450  80.9794990  41.2386570  87.2009790
  80.3981770  49.5169060  95.6400450  81.1344250  48.9684520  95.9109020
  80.7822690  50.3825070  95.5006440  77.2827250  45.5842630  91.5141960
  76.3567030  45.8263770  91.5047370  77.7483680  46.4116890  91.3926710
  83.5084080  48.6899370  87.4626020  84.3012690  48.9788200  87.0107810
  82.9888430  48.2591540  86.7838500  92.5614250  47.9169500  88.8862760
  92.2755760  47.5034640  88.0716940  92.3633800  48.8457210  88.7663280
  84.0261480  43.9102780  87.3268370  83.9212120  43.2955130  88.0529750
  83.8585700  43.3868670  86.5431380  87.2664210  42.9722810  87.9310360
  86.7174310  43.4192110  88.5753100  87.8883470  42.4672060  88.4548030
  85.4466970  40.9551340  87.0752760  85.9672630  40.2400360  86.7093910
  86.0935370  41.5937210  87.3753270  81.5839050  34.8772650 102.7143930
  81.4895920  34.2593400 101.9894800  81.0036440  35.6038940 102.4873840
  84.3500490  33.4345890  99.7471320  83.9017790  33.4570150  98.9016870
  83.7165690  33.0364910 100.3441620  89.4311840  40.6153590 100.3284110
  88.9047060  41.1396210  99.7249250  89.7743180  41.2480980 100.9593840
  81.8298230  38.0046960  86.7733820  81.6287290  37.1414320  87.1347160
  81.6590280  37.9180320  85.8355420  82.6067460  48.6353230 101.4841490
  82.0688550  49.3599290 101.1650190  82.8601420  48.1583570 100.6938830
  83.8592710  36.6037750 103.0097420  84.4492400  36.2953600 103.6975240
  83.0412950  36.1317500 103.1657320  88.6786140  36.2203560 103.2430440
  87.9901660  35.5585100 103.1780430  89.3992160  35.7741830 103.6878900
  89.3086540  32.8155190  89.3020700  89.5888830  31.9723090  89.6580120
  88.5352270  33.0478300  89.8159450  85.4629670  49.8704440 101.7428140
  85.3888370  50.7739580 102.0500510  84.5608510  49.5516340 101.7150210
  86.0115000  49.0362950  89.3654500  86.9065790  49.3747920  89.3873260
  86.0432630  48.3142360  88.7378780  79.6511160  44.4090000  87.5941500
  80.0886030  44.9519670  88.2499080  80.1358890  43.5836950  87.6037840
  76.8656960  47.1979030  95.0461760  77.1959970  46.3300090  94.8140400
  77.2947960  47.4037550  95.8766720  94.2310800  45.3084440  87.4090410
  93.4003760  45.3761090  87.8797640  94.4082630  46.1988560  87.1057270
  93.6867260  42.0531920  89.9124610  94.4486170  42.6228570  90.0184300
  93.7021630  41.4859120  90.6832920  77.1871600  40.5769850  94.1432270
  76.5320440  40.3081490  93.4991970  78.0249550  40.4674330  93.6934250
  94.6927230  42.9082020  94.7566540  95.0636060  42.1249340  94.3502510
  95.3329160  43.5971120  94.5783840  93.7386430  42.3466290  87.0697130
  94.0135270  43.2545170  86.9416350  93.5497170  42.2828820  88.0059120
  90.1362040  35.3711140  88.3650760  90.5546920  35.1842120  87.5247420
  89.8298100  34.5190190  88.6753690  93.6351770  40.2835280  92.0626560
  93.2595370  39.5163210  91.6307850  92.9054890  40.6657980  92.5501490
  77.7763530  37.8731510 102.5894030  76.8819580  37.8398270 102.9287740
  78.3161080  38.0718300 103.3545280  76.4009680  37.7868780  90.0857600
  75.4973760  38.0498980  89.9109260  76.8850300  38.0579950  89.3057560
  92.9102730  38.5092770  95.3633800  93.4340210  38.0155420  94.7323970
  93.4962150  38.6443130  96.1081370  93.0892450  38.5932640  98.8853350
  92.1395160  38.5596180  98.9998340  93.2705460  39.5032750  98.6503120
  78.9436890  36.8434320  87.9951980  79.6528590  36.4217540  87.5099260
  78.2276830  36.9109550  87.3635330  92.4002700  37.7666120  91.3026210
  92.8961820  37.5336990  92.0875090  92.2018770  36.9277960  90.8863850
  78.2803240  32.1479840  96.9377250  78.9279430  31.5977220  96.4972410
  78.7005080  32.4022990  97.7593060  93.8289860  36.4027070  93.8363890
  93.7189140  36.2483110  94.7746160  94.5897450  35.8748010  93.5939300
  92.1755580  32.3421200 100.2946890  92.8127800  32.9555340 100.6606080
  92.3230470  32.3781860  99.3496120  94.7180130  34.2334990  87.0770030
  95.6429440  34.1016170  86.8688320  94.6955920  34.3127810  88.0306480
  94.7918620  35.0045650  89.7026740  93.9970120  34.9390770  90.2319650
  94.9961900  35.9396290  89.6912090  78.0335240  32.3035510  99.6802570
  77.6850060  32.7599330 100.4460750  77.7022940  31.4092640  99.7625000
  83.3405640  47.0314700  99.4465480  83.0997000  47.2989260  98.5596000
  84.2808280  47.2020430  99.5016340  85.5460060  33.4947390 103.2021990
  85.4848950  34.0869220 103.9517400  86.4860440  33.3873350 103.0572250
  88.1834620  33.1517450 102.8414280  88.7975030  33.4696740 102.1795360
  88.7284180  32.6666040 103.4610140  88.9242660  31.7149590  99.1683570
  88.0502500  32.0484700  98.9656500  88.8153410  31.2422770  99.9935440
  89.8314640  33.9220460 100.5525290  89.5028000  33.1072220 100.1727020
  90.7796940  33.8790270 100.4290980  82.7144970  48.0020740  96.7010990
  83.2309990  47.3908100  96.1759250  83.3642350  48.5049520  97.1922000
  85.4540470  48.8929230  97.5279970  85.7418280  48.6383530  96.6512980
  85.9663690  48.3406590  98.1185540  86.6717480  32.6319430  98.1076480
  85.8889270  33.1064930  98.3873240  86.3780410  31.7274260  97.9989660
  91.2238550  33.3342530  96.1525570  91.6646640  33.2787630  95.3047170
  90.9546140  34.2500540  96.2235750  93.0877120  32.9657770  94.1634390
  93.0265520  32.0218990  94.0165410  93.8669150  33.0737860  94.7087850
  77.3929870  49.1050130  93.1258340  77.2251910  48.4720810  93.8240230
  76.5264380  49.3109530  92.7752530  78.0157890  32.9366910  90.6290200
  78.7737250  33.0495790  90.0554230  77.5535060  33.7736110  90.5833630
  84.5571700  35.0506180  93.6192510  83.7446210  34.6763070  93.2788390
  85.0613340  34.2951260  93.9213700  89.0596680  31.7148630  94.8575580
  89.6626050  32.2868840  95.3324100  88.3189670  32.2788070  94.6349480
  92.2031280  32.1170190  90.1315860  92.3981910  33.0153640  90.3983290
  91.4161150  31.8857270  90.6248810  78.9992570  47.7983360  90.5708480
  78.4740190  48.1791390  89.8670440  78.9237150  48.4234130  91.2918190
  82.5820880  33.2006100  92.2237560  81.9523620  32.4993410  92.3907690
  82.0426020  33.9610230  92.0070720  82.7076440  32.4790080 104.6590050
  82.4260710  32.9823680 103.8950870  83.0896140  31.6811830 104.2932180
  81.5985540  49.7465740  89.4457730  82.3304360  49.4625020  88.8981620
  81.8579210  49.5079020  90.3357110  89.3091900  31.8943660 105.2370520
  89.1957350  32.2138270 106.1322040  90.1261640  32.2956170 104.9407800
  78.7725870  36.9636850  72.1432680  77.8842570  37.3052820  72.0412560
  79.0567060  36.7637170  71.2513510  76.7358880  39.5642500  78.0272380
  77.3074990  38.7964700  78.0276020  76.7360420  39.8631260  77.1178990
  77.9783750  34.9726860  79.8141310  77.7986590  34.0752610  80.0944070
  77.5763830  35.5198730  80.4888260  80.9487260  35.5468350  73.1771060
  81.0554010  36.4472080  73.4839820  80.0379620  35.4986320  72.8865710
  78.5970420  37.4687360  78.4223650  79.2780530  37.7325730  79.0411050
  78.2818470  36.6288230  78.7561660  82.7894990  38.5154720  77.5096240
  83.2973210  39.0135690  78.1501260  83.3208230  37.7389920  77.3335600
  81.0731090  33.1553280  81.7759660  81.0749530  33.6725670  80.9705560
  80.2435400  32.6783460  81.7529590  80.7546420  34.8663240  79.7830110
  81.0963230  35.7105290  79.4883980  79.8162230  35.0146980  79.8995450
  92.4530630  46.2268670  79.6836980  91.7694150  46.8967780  79.6753650
  92.9924920  46.4249320  78.9181840  93.9054770  36.0548330  77.8118710
  92.9579680  36.0887310  77.9434140  94.2304760  36.8687280  78.1968070
  89.9889370  48.0712800  78.3982160  90.0016530  47.6675090  77.5304420
  89.4364590  48.8460090  78.2943590  91.2834790  44.7929020  73.4872330
  91.1731120  43.8503350  73.6121750  91.2803040  45.1544660  74.3735090
  93.3336910  41.3729860  79.8181010  92.5055540  41.4422950  79.3431140
  93.9287390  41.9584170  79.3496840  90.8552360  41.9814640  73.3470070
  90.2364780  41.6434190  72.6996370  90.8376810  41.3374400  74.0549260
  90.2978920  38.1599180  80.7635880  89.8850100  38.9852890  81.0175870
  89.5654870  37.5744220  80.5712240  81.1440330  37.7202290  79.4053590
  81.6954920  37.8297630  78.6306840  81.6583840  38.0939890  80.1208820
  90.9879020  48.2058510  81.4516860  90.5109580  49.0130700  81.2589470
  90.3040810  47.5536840  81.6043070  81.9911840  44.3708330  84.4401560
  81.0940370  44.5948300  84.6874960  82.0164710  44.4943270  83.4912960
  92.6134200  32.4744260  68.6683860  92.3006860  32.5671090  69.5682930
  93.3746670  33.0525290  68.6181290  94.5678230  47.9670450  86.5208250
  95.0437950  48.4453340  87.1997330  95.1885390  47.8987940  85.7953750
  93.9711480  45.1583300  83.6808260  94.0974540  44.9195180  82.7625440
  94.0132860  44.3267840  84.1530340  93.8235490  37.2115760  84.6458000
  93.2079760  37.7195430  84.1173460  93.5031910  36.3114090  84.5883940
  81.5980000  33.1839130  76.5084870  81.1548150  33.9648670  76.1769390
  82.1564990  33.5069020  77.2155810  90.8854320  37.2716600  83.2416850
  90.0347910  36.9722350  83.5625920  90.7256110  37.5158610  82.3300670
  83.6355900  33.7286460  78.3674470  83.9328230  34.6349290  78.2866490
  84.1841460  33.2405240  77.7534040  78.9603970  35.6171950  83.0560170
  78.5667360  36.4647160  83.2632950  78.2722370  34.9798320  83.2468810
  76.2621020  33.5400410  77.0890250  75.9734070  34.1103270  77.8015230
  77.0066780  33.0604860  77.4521480  76.4491250  37.4820530  68.2992970
  76.3665920  38.4251290  68.4407960  76.0974310  37.3395440  67.4205320
  87.8111990  39.5405360  78.9610830  87.0793110  40.0492170  79.3100930
  87.4136330  38.7235340  78.6599610  80.0991760  36.0986050  76.3257530
  79.7591810  36.5761280  77.0824580  79.3369080  35.6451170  75.9658630
  91.7008650  32.4071220  84.2120150  92.0254420  31.6760880  84.7378130
  91.7365160  32.0884860  83.3101140  84.5497350  40.2761340  79.1128730
  84.9167480  39.8019910  79.8590070  84.3602410  41.1502910  79.4537070
  77.4137840  35.0205030  75.2422200  77.1284760  34.6560700  76.0800820
  77.3516700  34.2885490  74.6285340  91.6266490  42.5196330  77.8206180
  92.3465610  43.0151620  77.4302290  91.4248310  41.8414220  77.1760050
  81.5973570  40.6156960  85.4623850  81.2973710  40.7614140  84.5651670
  82.3684810  40.0562250  85.3697240  92.0739090  39.5965780  69.7277590
  91.9902810  40.0280000  68.8774030  92.7933280  40.0564130  70.1604410
  93.1513230  42.0533300  82.8047560  92.4261420  42.6462080  82.6076950
  93.6788690  42.0456840  82.0060930  76.9068500  40.1563980  69.2018900
  77.7763350  40.4388780  69.4854820  76.4158820  40.9699850  69.0867710
  79.9715090  31.8874840  73.7949700  79.8429720  31.8792740  74.7434620
  79.1477110  32.2257930  73.4440710  76.9709020  33.6465960  83.2556400
  76.2567540  33.8462880  83.8609010  77.3904060  32.8705530  83.6271200
  91.0739970  43.2596440  70.6550230  90.7861670  43.7209130  71.4428110
  91.8692140  42.7994210  70.9234450  78.8915010  41.9737450  71.3300960
  78.2842960  42.7136350  71.3396260  79.3664360  42.0636810  70.5039160
  85.4249790  38.7927860  81.2295820  85.9235040  39.2673680  81.8947670
  85.5672740  37.8691380  81.4365850  92.6316650  35.0095820  82.0724210
  92.1290250  35.7501220  82.4118020  93.4473310  35.3979820  81.7561000
  90.9238660  40.2529000  75.5185570  89.9828800  40.2679230  75.6933260
  91.2382730  39.4664960  75.9645870  79.5967060  39.3673670  69.7622420
  79.6770650  38.4201180  69.8739820  80.4886810  39.6980550  69.8683080
  92.9264240  47.4237850  77.1939830  93.0511660  48.2469020  77.6663640
  93.7929800  47.2128580  76.8463980  84.1775800  42.5959580  84.5314110
  83.4121470  43.1644580  84.4468780  84.3591760  42.3035790  83.6382340
  91.3199150  44.3264910  85.0889130  92.0608620  44.6640670  84.5856590
  90.5571830  44.4956970  84.5358900  79.1560940  39.3318180  85.8928660
  79.1966280  39.0332050  86.8013890  80.0106440  39.7325790  85.7336180
  81.0966750  37.9110280  83.8603150  80.5663210  37.4201230  83.2326490
  81.7654820  38.3394480  83.3261080  89.9944810  42.3779740  83.6244340
  90.4085830  42.5324820  84.4734760  89.0595810  42.5034960  83.7870120
  90.4666980  39.7175900  85.6283490  91.0487750  38.9628220  85.5403970
  90.6428750  40.2483340  84.8514970  84.7560040  42.3300220  81.5940270
  85.1748150  43.1732950  81.4216510  83.8368670  42.4672260  81.3647050
  89.4311840  40.6153590  81.5540620  88.9047060  41.1396210  80.9505760
  89.7743180  41.2480980  82.1850350  81.8298230  38.0046960  67.9990330
  81.6287290  37.1414320  68.3603670  81.6590280  37.9180320  67.0611930
  88.6786140  36.2203560  84.4686950  87.9901660  35.5585100  84.4036940
  89.3992160  35.7741830  84.9135410  92.9909350  47.5666620  83.2977210
  92.3911340  47.6259180  82.5541130  93.1203250  46.6271600  83.4274060
  94.2310800  45.3084440  68.6346920  93.4003760  45.3761090  69.1054150
  94.4082630  46.1988560  68.3313780  93.6867260  42.0531920  71.1381120
  94.4486170  42.6228570  71.2440810  93.7021630  41.4859120  71.9089430
  77.1871600  40.5769850  75.3688780  76.5320440  40.3081490  74.7248480
  78.0249550  40.4674330  74.9190760  94.6927230  42.9082020  75.9823050
  95.0636060  42.1249340  75.5759020  95.3329160  43.5971120  75.8040350
  91.6760990  44.2918600  81.3953370  90.8620830  44.7215760  81.6579160
  92.0835190  44.9037010  80.7822420  93.7386430  42.3466290  68.2953640
  94.0135270  43.2545170  68.1672860  93.5497170  42.2828820  69.2315630
  93.6351770  40.2835280  73.2883070  93.2595370  39.5163210  72.8564360
  92.9054890  40.6657980  73.7758000  93.0251390  39.4306800  82.9222590
  92.7937480  39.2019550  82.0220540  93.2855940  40.3506350  82.8767480
  77.7763530  37.8731510  83.8150540  76.8819580  37.8398270  84.1544250
  78.3161080  38.0718300  84.5801790  91.4639460  34.6563230  85.7002290
  92.3409640  34.6646630  86.0836290  91.4760300  33.9194070  85.0894640
  76.4009680  37.7868780  71.3114110  75.4973760  38.0498980  71.1365770
  76.8850300  38.0579950  70.5314070  92.9102730  38.5092770  76.5890310
  93.4340210  38.0155420  75.9580480  93.4962150  38.6443130  77.3337880
  93.0892450  38.5932640  80.1109860  92.1395160  38.5596180  80.2254850
  93.2705460  39.5032750  79.8759630  78.9436890  36.8434320  69.2208490
  79.6528590  36.4217540  68.7355770  78.2276830  36.9109550  68.5891840
  78.2803240  32.1479840  78.1633760  78.9279430  31.5977220  77.7228920
  78.7005080  32.4022990  78.9849570  93.8289860  36.4027070  75.0620400
  93.7189140  36.2483110  76.0002670  94.5897450  35.8748010  74.8195810
  92.1755580  32.3421200  81.5203400  92.8127800  32.9555340  81.8862590
  92.3230470  32.3781860  80.5752630  94.7918620  35.0045650  70.9283250
  93.9970120  34.9390770  71.4576160  94.9961900  35.9396290  70.9168600
  78.0335240  32.3035510  80.9059080  77.6850060  32.7599330  81.6717260
  77.7022940  31.4092640  80.9881510  88.1834620  33.1517450  84.0670790
  88.7975030  33.4696740  83.4051870  88.7284180  32.6666040  84.6866650
  94.6009800  49.0509080  81.4732630  94.1068080  49.4477950  80.7559760
  93.9923090  48.4258290  81.8669910  92.2849250  49.6932500  78.7519370
  91.8252220  50.4448310  78.3777390  91.6561710  48.9738970  78.6934170
  93.0877120  32.9657770  75.3890900  93.0265520  32.0218990  75.2421920
  93.8669150  33.0737860  75.9344360  82.5820880  33.2006100  73.4494070
  81.9523620  32.4993410  73.6164200  82.0426020  33.9610230  73.2327230
  89.3091900  31.8943660  86.4627030  89.1957350  32.2138270  87.3578550
  90.1261640  32.2956170  86.1664310  92.0890390  49.0415190  85.9445720
  92.8815710  48.5464420  85.7371680  92.3823540  49.7205330  86.5521330
  88.2150050  39.9136130  56.8261770  88.1344100  38.9990740  56.5553480
  87.8014470  40.4103200  56.1201480  78.7725870  36.9636850  53.3689190
  77.8842570  37.3052820  53.2669070  79.0567060  36.7637170  52.4770020
  86.8182250  37.1742720  58.9410130  87.1947070  36.3014600  58.8283800
  86.7201760  37.5101420  58.0500570  80.9487260  35.5468350  54.4027570
  81.0554010  36.4472080  54.7096330  80.0379620  35.4986320  54.1122220
  90.8367850  36.6093540  58.6466010  90.1323420  36.8978430  59.2269120
  91.1980010  37.4193650  58.2865570  84.4374310  32.3545510  57.3331210
  84.7449290  31.7992400  56.6166710  83.5075010  32.4889970  57.1504200
  91.2834790  44.7929020  54.7128840  91.1731120  43.8503350  54.8378260
  91.2803040  45.1544660  55.5991600  86.8255070  40.4194340  54.0691330
  85.8984350  40.3531720  54.2979800  86.9779890  41.3574470  53.9546570
  86.8124150  36.6911340  51.0658490  85.8727820  36.8525300  51.1510950
  87.1307410  37.4097020  50.5194480  90.8552360  41.9814640  54.5726580
  90.2364780  41.6434190  53.9252880  90.8376810  41.3374400  55.2805770
  89.0317060  41.2201450  51.5799330  89.4710340  40.3823880  51.4337150
  89.7445480  41.8530850  51.6663470  92.6134200  32.4744260  49.8940370
  92.3006860  32.5671090  50.7939440  93.3746670  33.0525290  49.8437800
  79.1316340  39.8404060  54.3517710  79.0113940  40.5666150  53.7398980
  78.8217230  39.0706970  53.8745620  81.5980000  33.1839130  57.7341380
  81.1548150  33.9648670  57.4025900  82.1564990  33.5069020  58.4412320
  85.8849810  36.0507650  63.3376700  85.4229180  36.2590670  64.1496640
  85.4827920  35.2367000  63.0347370  90.8854320  37.2716600  64.4673360
  90.0347910  36.9722350  64.7882430  90.7256110  37.5158610  63.5557180
  84.7138820  32.8049830  52.6147210  84.0893000  32.8009700  53.3400520
  84.6268940  31.9380790  52.2183180  83.6355900  33.7286460  59.5930980
  83.9328230  34.6349290  59.5123000  84.1841460  33.2405240  58.9790550
  81.3894220  38.3072700  55.4622630  81.1635140  38.0909870  56.3669250
  80.6086750  38.7401160  55.1168600  88.6191980  38.3136070  54.0613280
  88.0200870  39.0371870  53.8776900  89.1671590  38.2512850  53.2789730
  87.2256850  36.9499610  56.0916560  87.6186420  37.2671810  55.2785250
  87.5873700  36.0711490  56.2061080  78.9603970  35.6171950  64.2816680
  78.5667360  36.4647160  64.4889460  78.2722370  34.9798320  64.4725320
  76.2621020  33.5400410  58.3146760  75.9734070  34.1103270  59.0271740
  77.0066780  33.0604860  58.6777990  84.2489380  36.2159560  58.5919830
  84.2525440  35.7749510  57.7424370  85.1440500  36.5376890  58.6991650
  84.3109530  37.2171640  51.5826590  84.4322350  37.1758120  52.5312410
  83.9258040  38.0795790  51.4273320  88.2737900  34.9939040  59.5990280
  88.2910640  35.4447690  60.4432130  88.0253480  34.0944680  59.8123720
  83.3231030  39.5272780  50.9809890  82.7547930  39.0791030  50.3545800
  84.0320030  39.8865560  50.4475040  91.7008650  32.4071220  65.4376660
  92.0254420  31.6760880  65.9634640  91.7365160  32.0884860  64.5357650
  77.4137840  35.0205030  56.4678710  77.1284760  34.6560700  57.3057330
  77.3516700  34.2885490  55.8541850  91.6266490  42.5196330  59.0462690
  92.3465610  43.0151620  58.6558800  91.4248310  41.8414220  58.4016560
  87.0876430  33.9134290  53.1892080  86.2741040  33.4147460  53.1137390
  86.8938380  34.7532540  52.7728430  85.7985410  44.4577630  52.1642410
  86.1401110  45.2019860  51.6685730  84.9698120  44.7708750  52.5267240
  93.1513230  42.0533300  64.0304070  92.4261420  42.6462080  63.8333460
  93.6788690  42.0456840  63.2317440  79.9715090  31.8874840  55.0206210
  79.8429720  31.8792740  55.9691130  79.1477110  32.2257930  54.6697220
  91.4923720  45.3424500  50.2192580  91.2661300  44.6254940  50.8117220
  91.1019920  45.0936940  49.3814330  76.9709020  33.6465960  64.4812910
  76.2567540  33.8462880  65.0865520  77.3904060  32.8705530  64.8527710
  91.0739970  43.2596440  51.8806740  90.7861670  43.7209130  52.6684620
  91.8692140  42.7994210  52.1490960  78.8915010  41.9737450  52.5557470
  78.2842960  42.7136350  52.5652770  79.3664360  42.0636810  51.7295670
  88.4647800  36.1388270  62.2314360  88.8328620  35.3183480  62.5593930
  87.6046000  36.1990160  62.6470010  83.7993860  37.3731160  54.4559800
  83.0910010  37.8417500  54.8973410  84.0838340  36.7153170  55.0904990
  87.8309290  34.0981820  55.8955590  87.7077070  34.1167950  54.9465100
  88.7793850  34.1460760  56.0153990  82.0028880  35.6816240  51.8310510
  82.8519410  36.1186390  51.7650700  81.6360150  35.9936500  52.6582570
  90.9238660  40.2529000  56.7442080  89.9828800  40.2679230  56.9189770
  91.2382730  39.4664960  57.1902380  80.9020300  41.9348600  50.3046040
  81.6683570  41.8229960  50.8671470  80.9794990  41.2386570  49.6522810
  79.5967060  39.3673670  50.9878930  79.6770650  38.4201180  51.0996330
  80.4886810  39.6980550  51.0939590  84.0261480  43.9102780  49.7781390
  83.9212120  43.2955130  50.5042770  83.8585700  43.3868670  48.9944400
  87.2664210  42.9722810  50.3823380  86.7174310  43.4192110  51.0266120
  87.8883470  42.4672060  50.9061050  79.1560940  39.3318180  67.1185170
  79.1966280  39.0332050  68.0270400  80.0106440  39.7325790  66.9592690
  85.4466970  40.9551340  49.5265780  85.9672630  40.2400360  49.1606930
  86.0935370  41.5937210  49.8266290  90.4666980  39.7175900  66.8540000
  91.0487750  38.9628220  66.7660480  90.6428750  40.2483340  66.0771480
  81.8298230  38.0046960  49.2246840  81.6287290  37.1414320  49.5860180
  81.6590280  37.9180320  48.2868440  83.8592710  36.6037750  65.4610440
  84.4492400  36.2953600  66.1488260  83.0412950  36.1317500  65.6170340
  88.6786140  36.2203560  65.6943460  87.9901660  35.5585100  65.6293450
  89.3992160  35.7741830  66.1391920  89.3086540  32.8155190  51.7533720
  89.5888830  31.9723090  52.1093140  88.5352270  33.0478300  52.2672470
  80.6281030  35.1047580  49.2124720  80.9306930  35.1115010  48.3043870
  81.3675620  34.7545440  49.7092380  83.8465960  34.0482200  50.1980920
  83.4987960  33.3706190  49.6183370  84.0478730  33.5871710  51.0124310
  79.6511160  44.4090000  50.0454520  80.0886030  44.9519670  50.7012100
  80.1358890  43.5836950  50.0550860  94.2310800  45.3084440  49.8603430
  93.4003760  45.3761090  50.3310660  94.4082630  46.1988560  49.5570290
  93.6867260  42.0531920  52.3637630  94.4486170  42.6228570  52.4697320
  93.7021630  41.4859120  53.1345940  94.6927230  42.9082020  57.2079560
  95.0636060  42.1249340  56.8015530  95.3329160  43.5971120  57.0296860
  93.7386430  42.3466290  49.5210150  94.0135270  43.2545170  49.3929370
  93.5497170  42.2828820  50.4572140  76.4009680  37.7868780  52.5370620
  75.4973760  38.0498980  52.3622280  76.8850300  38.0579950  51.7570580
  92.9102730  38.5092770  57.8146820  93.4340210  38.0155420  57.1836990
  93.4962150  38.6443130  58.5594390  78.9436890  36.8434320  50.4465000
  79.6528590  36.4217540  49.9612280  78.2276830  36.9109550  49.8148350
  78.2803240  32.1479840  59.3890270  78.9279430  31.5977220  58.9485430
  78.7005080  32.4022990  60.2106080  93.8289860  36.4027070  56.2876910
  93.7189140  36.2483110  57.2259180  94.5897450  35.8748010  56.0452320
  94.7180130  34.2334990  49.5283050  95.6429440  34.1016170  49.3201340
  94.6955920  34.3127810  50.4819500  78.0335240  32.3035510  62.1315590
  77.6850060  32.7599330  62.8973770  77.7022940  31.4092640  62.2138020
  78.7055880  31.8311710  65.4066360  79.2538870  31.6499760  64.6432470
  78.7711190  31.0405820  65.9422670  88.9242660  31.7149590  61.6196590
  88.0502500  32.0484700  61.4169520  88.8153410  31.2422770  62.4448460
  89.8314640  33.9220460  63.0038310  89.5028000  33.1072220  62.6240040
  90.7796940  33.8790270  62.8804000  86.6717480  32.6319430  60.5589500
  85.8889270  33.1064930  60.8386260  86.3780410  31.7274260  60.4502680
  78.0157890  32.9366910  53.0803220  78.7737250  33.0495790  52.5067250
  77.5535060  33.7736110  53.0346650  84.5571700  35.0506180  56.0705530
  83.7446210  34.6763070  55.7301410  85.0613340  34.2951260  56.3726720
  80.3883040  33.4630960  51.6205190  80.9175800  32.6760760  51.4913140
  81.0211360  34.1422150  51.8540720  82.5820880  33.2006100  54.6750580
  81.9523620  32.4993410  54.8420710  82.0426020  33.9610230  54.4583740
  80.7600330  45.8630470  51.9017080  80.1309210  46.3315570  52.4502910
  80.8748160  45.0179690  52.3363270  88.2150050  39.9136130  38.0518280
  88.1344100  38.9990740  37.7809990  87.8014470  40.4103200  37.3457990
  86.3468090  41.6915150  39.9327550  85.5710190  41.2115590  40.2226120
  86.9981020  41.0120800  39.7583710  80.3633920  42.0034960  40.8103310
  79.5318800  41.7483670  41.2099820  80.9714900  42.0745730  41.5461230
  90.3675520  46.0975340  38.7126680  89.9057050  45.3262580  39.0413850
  91.1801070  46.1241410  39.2179130  80.3435180  46.0375050  41.0061330
  80.6463220  45.1472790  40.8271550  81.0878770  46.5945270  40.7783580
  78.7725870  36.9636850  34.5945700  77.8842570  37.3052820  34.4925580
  79.0567060  36.7637170  33.7026530  76.7358880  39.5642500  40.4785400
  77.3074990  38.7964700  40.4789040  76.7360420  39.8631260  39.5692010
  85.7877080  44.3672340  39.9397710  85.7185360  43.4262280  39.7786840
  86.5496940  44.4573750  40.5120280  77.9783750  34.9726860  42.2654330
  77.7986590  34.0752610  42.5457090  77.5763830  35.5198730  42.9401280
  86.8182250  37.1742720  40.1666640  87.1947070  36.3014600  40.0540310
  86.7201760  37.5101420  39.2757080  80.9487260  35.5468350  35.6284080
  81.0554010  36.4472080  35.9352840  80.0379620  35.4986320  35.3378730
  87.4602180  43.2672590  35.7262580  86.8419450  43.7322040  35.1625300
  87.9725430  43.9600070  36.1432090  82.3233940  42.7948460  42.4046180
  81.9903320  43.4217380  43.0467250  82.5000620  43.3210340  41.6247850
  90.8367850  36.6093540  39.8722520  90.1323420  36.8978430  40.4525630
  91.1980010  37.4193650  39.5122080  81.5353040  44.7629260  44.2195360
  82.1527040  45.4380340  43.9379810  80.6746160  45.1717240  44.1282860
  92.4530630  46.2268670  42.1350000  91.7694150  46.8967780  42.1266670
  92.9924920  46.4249320  41.3694860  89.9889370  48.0712800  40.8495180
  90.0016530  47.6675090  39.9817440  89.4364590  48.8460090  40.7456610
  91.2834790  44.7929020  35.9385350  91.1731120  43.8503350  36.0634770
  91.2803040  45.1544660  36.8248110  89.3874810  42.9742640  42.1777790
  89.8043600  42.7602750  41.3431250  90.1114630  43.2315430  42.7486410
  86.8255070  40.4194340  35.2947840  85.8984350  40.3531720  35.5236310
  86.9779890  41.3574470  35.1803080  86.8124150  36.6911340  32.2915000
  85.8727820  36.8525300  32.3767460  87.1307410  37.4097020  31.7450990
  93.3336910  41.3729860  42.2694030  92.5055540  41.4422950  41.7944160
  93.9287390  41.9584170  41.8009860  90.8552360  41.9814640  35.7983090
  90.2364780  41.6434190  35.1509390  90.8376810  41.3374400  36.5062280
  90.2978920  38.1599180  43.2148900  89.8850100  38.9852890  43.4688890
  89.5654870  37.5744220  43.0225260  82.4311710  40.9459080  38.0767570
  82.0268710  40.2336330  37.5813470  82.5174830  40.6012320  38.9655610
  82.8993410  44.6326640  40.2406780  82.6021700  44.0272110  39.5614560
  83.8493230  44.6703950  40.1296140  90.9879020  48.2058510  43.9029880
  90.5109580  49.0130700  43.7102490  90.3040810  47.5536840  44.0556090
  81.9911840  44.3708330  46.8914580  81.0940370  44.5948300  47.1387980
  82.0164710  44.4943270  45.9425980  89.0317060  41.2201450  32.8055840
  89.4710340  40.3823880  32.6593660  89.7445480  41.8530850  32.8919980
  80.8183060  41.2421650  45.4671950  80.6790830  42.1144450  45.8359350
  79.9364420  40.8994460  45.3219890  87.1412440  46.1597520  36.7737080
  87.5808350  46.9021850  36.3592470  87.0799330  46.4024090  37.6976040
  92.6134200  32.4744260  31.1196880  92.3006860  32.5671090  32.0195950
  93.3746670  33.0525290  31.0694310  79.1316340  39.8404060  35.5774220
  79.0113940  40.5666150  34.9655490  78.8217230  39.0706970  35.1002130
  94.5678230  47.9670450  48.9721270  95.0437950  48.4453340  49.6510350
  95.1885390  47.8987940  48.2466770  76.7701710  43.0119200  41.3842860
  76.8482130  43.1467970  40.4398580  77.3843390  42.3035090  41.5770980
  78.0149340  44.7119390  37.7949040  77.6077420  44.8533980  36.9402640
  78.9062350  44.4279550  37.5920250  93.9711480  45.1583300  46.1321280
  94.0974540  44.9195180  45.2138460  94.0132860  44.3267840  46.6043360
  89.8082620  49.1466640  34.1300090  89.6483760  48.8569580  35.0281920
  89.6429330  48.3706770  33.5945320  89.5108750  46.6554200  32.6898090
  88.8173910  46.6531490  32.0300370  90.2531610  46.2313520  32.2592260
  89.0758680  48.2816910  36.7646580  89.5315630  47.5006290  37.0785200
  89.4151200  48.9923730  37.3087760  76.8261230  44.0533370  43.9237320
  76.9892270  43.5838730  43.1056690  77.2913680  43.5456930  44.5886160
  81.5980000  33.1839130  38.9597890  81.1548150  33.9648670  38.6282410
  82.1564990  33.5069020  39.6668830  90.8854320  37.2716600  45.6929870
  90.0347910  36.9722350  46.0138940  90.7256110  37.5158610  44.7813690
  87.9804030  38.7718350  47.7928660  88.3057440  37.9382100  47.4530890
  88.7684360  39.2946870  47.9406990  83.6355900  33.7286460  40.8187490
  83.9328230  34.6349290  40.7379510  84.1841460  33.2405240  40.2047060
  81.3894220  38.3072700  36.6879140  81.1635140  38.0909870  37.5925760
  80.6086750  38.7401160  36.3425110  88.6191980  38.3136070  35.2869790
  88.0200870  39.0371870  35.1033410  89.1671590  38.2512850  34.5046240
  87.2256850  36.9499610  37.3173070  87.6186420  37.2671810  36.5041760
  87.5873700  36.0711490  37.4317590  85.5349020  35.7006920  48.5769930
  84.8447340  35.5079120  49.2116020  86.2781320  35.9841560  49.1094230
  87.8111990  39.5405360  41.4123850  87.0793110  40.0492170  41.7613950
  87.4136330  38.7235340  41.1112630  84.2489380  36.2159560  39.8176340
  84.2525440  35.7749510  38.9680880  85.1440500  36.5376890  39.9248160
  84.3109530  37.2171640  32.8083100  84.4322350  37.1758120  33.7568920
  83.9258040  38.0795790  32.6529830  83.3231030  39.5272780  32.2066400
  82.7547930  39.0791030  31.5802310  84.0320030  39.8865560  31.6731550
  91.7008650  32.4071220  46.6633170  92.0254420  31.6760880  47.1891150
  91.7365160  32.0884860  45.7614160  78.4000210  43.4284800  46.0833130
  78.0155000  42.7878470  46.6816090  78.7112400  44.1320920  46.6527860
  84.5497350  40.2761340  41.5641750  84.9167480  39.8019910  42.3103090
  84.3602410  41.1502910  41.9050090  77.4137840  35.0205030  37.6935220
  77.1284760  34.6560700  38.5313840  77.3516700  34.2885490  37.0798360
  80.8678510  43.5230970  34.4792810  80.0940770  42.9828590  34.3191530
  81.5973140  43.0037580  34.1410570  91.6266490  42.5196330  40.2719200
  92.3465610  43.0151620  39.8815310  91.4248310  41.8414220  39.6273070
  87.0085290  42.5905390  46.1588200  86.9422600  41.6701060  45.9045790
  86.3790430  42.6880830  46.8732840  89.8024820  38.2853940  32.7110750
  90.6904440  38.5971170  32.5362090  89.7729910  37.4126190  32.3191330
  80.9115910  43.1911350  38.1171620  81.4294580  42.3879610  38.0628510
  80.4599930  43.1290490  38.9588450  85.7985410  44.4577630  33.3898920
  86.1401110  45.2019860  32.8942240  84.9698120  44.7708750  33.7523750
  78.3960450  40.1572720  45.0297320  78.0375390  40.8226570  45.6170660
  78.1015010  39.3256270  45.4009940  81.5973570  40.6156960  47.9136870
  81.2973710  40.7614140  47.0164690  82.3684810  40.0562250  47.8210260
  92.0739090  39.5965780  32.1790610  91.9902810  40.0280000  31.3287050
  92.7933280  40.0564130  32.6117430  93.1513230  42.0533300  45.2560580
  92.4261420  42.6462080  45.0589970  93.6788690  42.0456840  44.4573950
  93.1026340  46.4508040  34.9072740  92.4602500  45.7963660  35.1816460
  92.7157000  46.8563130  34.1313410  88.6812820  43.7793470  38.7544430
  89.0336640  43.1821600  38.0945800  87.7975150  43.4537700  38.9252680
  84.7676100  44.5391160  36.1614840  85.4547230  45.0860370  36.5422430
  83.9808520  45.0831890  36.1964450  84.0703310  41.5437190  35.7740200
  84.5266090  42.3542440  36.0000390  83.7191520  41.2260330  36.6058690
  79.9715090  31.8874840  36.2462720  79.8429720  31.8792740  37.1947640
  79.1477110  32.2257930  35.8953730  87.6468000  45.0575880  41.7209950
  88.2890230  44.3569040  41.8342120  88.1717350  45.8374320  41.5406840
  89.4205620  45.8570780  44.9246010  89.7561860  46.4437470  45.6023930
  88.5005960  45.7263490  45.1543800  77.2739750  49.3691360  32.2193550
  77.6337390  49.9680700  31.5650820  77.1332090  49.9151250  32.9928580
  91.0739970  43.2596440  33.1063250  90.7861670  43.7209130  33.8941130
  91.8692140  42.7994210  33.3747470  77.2581610  47.6346220  46.6935950
  77.3672730  46.6940960  46.5531340  76.6062170  47.9000970  46.0449680
  78.8915010  41.9737450  33.7813980  78.2842960  42.7136350  33.7909280
  79.3664360  42.0636810  32.9552180  88.4647800  36.1388270  43.4570870
  88.8328620  35.3183480  43.7850440  87.6046000  36.1990160  43.8726520
  86.2767970  46.8150800  31.6992410  86.3779950  46.6114790  30.7694390
  85.3769710  46.5609080  31.9040190  83.7993860  37.3731160  35.6816310
  83.0910010  37.8417500  36.1229920  84.0838340  36.7153170  36.3161500
  82.0028880  35.6816240  33.0567020  82.8519410  36.1186390  32.9907210
  81.6360150  35.9936500  33.8839080  90.9238660  40.2529000  37.9698590
  89.9828800  40.2679230  38.1446280  91.2382730  39.4664960  38.4158890
  80.9020300  41.9348600  31.5302550  81.6683570  41.8229960  32.0927980
  80.9794990  41.2386570  30.8779320  79.5967060  39.3673670  32.2135440
  79.6770650  38.4201180  32.3252840  80.4886810  39.6980550  32.3196100
  92.9264240  47.4237850  39.6452850  93.0511660  48.2469020  40.1176660
  93.7929800  47.2128580  39.2977000  77.2827250  45.5842630  35.1911490
  76.3567030  45.8263770  35.1816900  77.7483680  46.4116890  35.0696240
  79.4040050  48.7015130  48.5055560  80.2052780  49.0227180  48.9190960
  78.8891870  48.3410710  49.2275470  88.2404680  44.8095000  48.4530970
  87.6342840  44.8326600  47.7126720  87.9358790  44.0778040  48.9898220
  84.0261480  43.9102780  31.0037900  83.9212120  43.2955130  31.7299280
  83.8585700  43.3868670  30.2200910  84.1775800  42.5959580  46.9827130
  83.4121470  43.1644580  46.8981800  84.3591760  42.3035790  46.0895360
  87.2664210  42.9722810  31.6079890  86.7174310  43.4192110  32.2522630
  87.8883470  42.4672060  32.1317560  91.3199150  44.3264910  47.5402150
  92.0608620  44.6640670  47.0369610  90.5571830  44.4956970  46.9871920
  79.1560940  39.3318180  48.3441680  79.1966280  39.0332050  49.2526910
  80.0106440  39.7325790  48.1849200  82.9339330  41.9313730  33.5045190
  83.3555750  41.7653600  34.3476580  83.0590170  41.1213960  33.0100330
  85.4466970  40.9551340  30.7522290  85.9672630  40.2400360  30.3863440
  86.0935370  41.5937210  31.0522800  89.9944810  42.3779740  46.0757360
  90.4085830  42.5324820  46.9247780  89.0595810  42.5034960  46.2383140
  84.7560040  42.3300220  44.0453290  85.1748150  43.1732950  43.8729530
  83.8368670  42.4672260  43.8160070  87.0923940  40.0616400  45.4291130
  87.2120150  39.4657540  46.1685970  87.9517940  40.0986090  45.0092430
  89.4311840  40.6153590  44.0053640  88.9047060  41.1396210  43.4018780
  89.7743180  41.2480980  44.6363370  81.8298230  38.0046960  30.4503350
  81.6287290  37.1414320  30.8116690  81.6590280  37.9180320  29.5124950
  88.6786140  36.2203560  46.9199970  87.9901660  35.5585100  46.8549960
  89.3992160  35.7741830  47.3648430  80.6281030  35.1047580  30.4381230
  80.9306930  35.1115010  29.5300380  81.3675620  34.7545440  30.9348890
  83.8465960  34.0482200  31.4237430  83.4987960  33.3706190  30.8439880
  84.0478730  33.5871710  32.2380820  86.0115000  49.0362950  33.0424030
  86.9065790  49.3747920  33.0642790  86.0432630  48.3142360  32.4148310
  76.8656960  47.1979030  38.7231290  77.1959970  46.3300090  38.4909930
  77.2947960  47.4037550  39.5536250  81.4618880  45.5288040  36.3833260
  81.1614420  45.4053010  37.2837170  81.3556370  44.6696630  35.9748990
  77.3547170  48.0649620  41.4612920  76.9178160  48.2450420  42.2937070
  77.9224850  48.8224240  41.3194640  93.6867260  42.0531920  33.5894140
  94.4486170  42.6228570  33.6953830  93.7021630  41.4859120  34.3602450
  77.1871600  40.5769850  37.8201800  76.5320440  40.3081490  37.1761500
  78.0249550  40.4674330  37.3703780  94.6927230  42.9082020  38.4336070
  95.0636060  42.1249340  38.0272040  95.3329160  43.5971120  38.2553370
  91.6760990  44.2918600  43.8466390  90.8620830  44.7215760  44.1092180
  92.0835190  44.9037010  43.2335440  93.7386430  42.3466290  30.7466660
  94.0135270  43.2545170  30.6185880  93.5497170  42.2828820  31.6828650
  90.1362040  35.3711140  32.0420290  90.5546920  35.1842120  31.2016950
  89.8298100  34.5190190  32.3523220  93.6351770  40.2835280  35.7396090
  93.2595370  39.5163210  35.3077380  92.9054890  40.6657980  36.2271020
  78.2247530  40.9622420  42.3605140  78.5920570  40.8749820  43.2401160
  77.6558350  40.1988970  42.2612000  76.4009680  37.7868780  33.7627130
  75.4973760  38.0498980  33.5878790  76.8850300  38.0579950  32.9827090
  92.9102730  38.5092770  39.0403330  93.4340210  38.0155420  38.4093500
  93.4962150  38.6443130  39.7850900  78.9436890  36.8434320  31.6721510
  79.6528590  36.4217540  31.1868790  78.2276830  36.9109550  31.0404860
  78.5911050  32.8973650  30.7124160  79.3139180  33.4382590  31.0305380
  78.8635570  32.6237070  29.8365700  78.2803240  32.1479840  40.6146780
  78.9279430  31.5977220  40.1741940  78.7005080  32.4022990  41.4362590
  93.8289860  36.4027070  37.5133420  93.7189140  36.2483110  38.4515690
  94.5897450  35.8748010  37.2708830  92.1755580  32.3421200  43.9716420
  92.8127800  32.9555340  44.3375610  92.3230470  32.3781860  43.0265650
  94.7180130  34.2334990  30.7539560  95.6429440  34.1016170  30.5457850
  94.6955920  34.3127810  31.7076010  94.7918620  35.0045650  33.3796270
  93.9970120  34.9390770  33.9089180  94.9961900  35.9396290  33.3681620
  91.7337040  49.0437200  37.3734660  92.3296110  48.7221770  36.6969080
  91.9915190  48.5709020  38.1647930  79.6399610  45.4755110  47.5225290
  79.5969240  45.1048020  48.4039750  79.7710620  46.4132680  47.6627110
  88.1834620  33.1517450  46.5183810  88.7975030  33.4696740  45.8564890
  88.7284180  32.6666040  47.1379670  94.6009800  49.0509080  43.9245650
  94.1068080  49.4477950  43.2072780  93.9923090  48.4258290  44.3182930
  79.4787640  48.4217360  44.6423070  78.8847960  48.2902060  45.3813110
  79.4711480  47.5855500  44.1765170  92.2849250  49.6932500  41.2032390
  91.8252220  50.4448310  40.8290410  91.6561710  48.9738970  41.1447190
  79.1099870  45.7875740  43.5931110  78.3833930  45.1681030  43.5257060
  79.1709020  46.1816350  42.7229190  82.7144970  48.0020740  40.3780520
  83.2309990  47.3908100  39.8528780  83.3642350  48.5049520  40.8691530
  85.4540470  48.8929230  41.2049500  85.7418280  48.6383530  40.3282510
  85.9663690  48.3406590  41.7955070  78.0157890  32.9366910  34.3059730
  78.7737250  33.0495790  33.7323760  77.5535060  33.7736110  34.2603160
  84.5571700  35.0506180  37.2962040  83.7446210  34.6763070  36.9557920
  85.0613340  34.2951260  37.5983230  89.0596680  31.7148630  38.5345110
  89.6626050  32.2868840  39.0093630  88.3189670  32.2788070  38.3119010
  92.2031280  32.1170190  33.8085390  92.3981910  33.0153640  34.0752820
  91.4161150  31.8857270  34.3018340  80.3883040  33.4630960  32.8461700
  80.9175800  32.6760760  32.7169650  81.0211360  34.1422150  33.0797230
  93.7557890  49.3570900  35.5691950  93.9310080  48.6708640  34.9252870
  93.0579460  49.8817950  35.1768620  89.3091900  31.8943660  48.9140050
  89.1957350  32.2138270  49.8091570  90.1261640  32.2956170  48.6177330
  88.2150050  39.9136130  19.2774790  88.1344100  38.9990740  19.0066500
  87.8014470  40.4103200  18.5714500  86.3468090  41.6915150  21.1584060
  85.5710190  41.2115590  21.4482630  86.9981020  41.0120800  20.9840220
  80.3633920  42.0034960  22.0359820  79.5318800  41.7483670  22.4356330
  80.9714900  42.0745730  22.7717740  90.3675520  46.0975340  19.9383190
  89.9057050  45.3262580  20.2670360  91.1801070  46.1241410  20.4435640
  80.3435180  46.0375050  22.2317840  80.6463220  45.1472790  22.0528060
  81.0878770  46.5945270  22.0040090  78.7725870  36.9636850  15.8202210
  77.8842570  37.3052820  15.7182090  79.0567060  36.7637170  14.9283040
  76.7358880  39.5642500  21.7041910  77.3074990  38.7964700  21.7045550
  76.7360420  39.8631260  20.7948520  77.9783750  34.9726860  23.4910840
  77.7986590  34.0752610  23.7713600  77.5763830  35.5198730  24.1657790
  86.8182250  37.1742720  21.3923150  87.1947070  36.3014600  21.2796820
  86.7201760  37.5101420  20.5013590  80.9487260  35.5468350  16.8540590
  81.0554010  36.4472080  17.1609350  80.0379620  35.4986320  16.5635240
  90.6006370  34.6693160  18.3251490  91.4215990  34.1789730  18.3676970
  90.6340450  35.2590820  19.0783330  78.5970420  37.4687360  22.0993180
  79.2780530  37.7325730  22.7180580  78.2818470  36.6288230  22.4331190
  82.7894990  38.5154720  21.1865770  83.2973210  39.0135690  21.8270790
  83.3208230  37.7389920  21.0105130  94.8905920  36.6859910  24.8895120
  94.1858090  37.0741620  24.3710230  95.1563840  37.3810200  25.4916050
  81.0731090  33.1553280  25.4529190  81.0749530  33.6725670  24.6475090
  80.2435400  32.6783460  25.4299120  87.4602180  43.2672590  16.9519090
  86.8419450  43.7322040  16.3881810  87.9725430  43.9600070  17.3688600
  82.3233940  42.7948460  23.6302690  81.9903320  43.4217380  24.2723760
  82.5000620  43.3210340  22.8504360  90.8367850  36.6093540  21.0979030
  90.1323420  36.8978430  21.6782140  91.1980010  37.4193650  20.7378590
  80.7546420  34.8663240  23.4599640  81.0963230  35.7105290  23.1653510
  79.8162230  35.0146980  23.5764980  81.5353040  44.7629260  25.4451870
  82.1527040  45.4380340  25.1636320  80.6746160  45.1717240  25.3539370
  76.8285380  43.9529120  14.3258720  76.4513360  44.4416220  13.5943620
  77.0858450  44.6254400  14.9565250  93.9054770  36.0548330  21.4888240
  92.9579680  36.0887310  21.6203670  94.2304760  36.8687280  21.8737600
  84.4374310  32.3545510  19.7844230  84.7449290  31.7992400  19.0679730
  83.5075010  32.4889970  19.6017220  91.2834790  44.7929020  17.1641860
  91.1731120  43.8503350  17.2891280  91.2803040  45.1544660  18.0504620
  86.8255070  40.4194340  16.5204350  85.8984350  40.3531720  16.7492820
  86.9779890  41.3574470  16.4059590  86.8124150  36.6911340  13.5171510
  85.8727820  36.8525300  13.6023970  87.1307410  37.4097020  12.9707500
  93.3336910  41.3729860  23.4950540  92.5055540  41.4422950  23.0200670
  93.9287390  41.9584170  23.0266370  90.8552360  41.9814640  17.0239600
  90.2364780  41.6434190  16.3765900  90.8376810  41.3374400  17.7318790
  90.2978920  38.1599180  24.4405410  89.8850100  38.9852890  24.6945400
  89.5654870  37.5744220  24.2481770  82.4311710  40.9459080  19.3024080
  82.0268710  40.2336330  18.8069980  82.5174830  40.6012320  20.1912120
  81.1440330  37.7202290  23.0823120  81.6954920  37.8297630  22.3076370
  81.6583840  38.0939890  23.7978350  89.0317060  41.2201450  14.0312350
  89.4710340  40.3823880  13.8850170  89.7445480  41.8530850  14.1176490
  80.8183060  41.2421650  26.6928460  80.6790830  42.1144450  27.0615860
  79.9364420  40.8994460  26.5476400  87.1412440  46.1597520  17.9993590
  87.5808350  46.9021850  17.5848980  87.0799330  46.4024090  18.9232550
  92.6134200  32.4744260  12.3453390  92.3006860  32.5671090  13.2452460
  93.3746670  33.0525290  12.2950820  79.1316340  39.8404060  16.8030730
  79.0113940  40.5666150  16.1912000  78.8217230  39.0706970  16.3258640
  76.7701710  43.0119200  22.6099370  76.8482130  43.1467970  21.6655090
  77.3843390  42.3035090  22.8027490  78.0149340  44.7119390  19.0205550
  77.6077420  44.8533980  18.1659150  78.9062350  44.4279550  18.8176760
  89.8082620  49.1466640  15.3556600  89.6483760  48.8569580  16.2538430
  89.6429330  48.3706770  14.8201830  82.2871000  48.9265170  17.1328220
  82.1113480  48.0100710  16.9196020  81.4326740  49.2852460  17.3726020
  89.5108750  46.6554200  13.9154600  88.8173910  46.6531490  13.2556880
  90.2531610  46.2313520  13.4848770  89.0758680  48.2816910  17.9903090
  89.5315630  47.5006290  18.3041710  89.4151200  48.9923730  18.5344270
  93.8235490  37.2115760  28.3227530  93.2079760  37.7195430  27.7942990
  93.5031910  36.3114090  28.2653470  81.5980000  33.1839130  20.1854400
  81.1548150  33.9648670  19.8538920  82.1564990  33.5069020  20.8925340
  85.8849810  36.0507650  25.7889720  85.4229180  36.2590670  26.6009660
  85.4827920  35.2367000  25.4860390  90.8854320  37.2716600  26.9186380
  90.0347910  36.9722350  27.2395450  90.7256110  37.5158610  26.0070200
  87.9804030  38.7718350  29.0185170  88.3057440  37.9382100  28.6787400
  88.7684360  39.2946870  29.1663500  84.7138820  32.8049830  15.0660230
  84.0893000  32.8009700  15.7913540  84.6268940  31.9380790  14.6696200
  83.6355900  33.7286460  22.0444000  83.9328230  34.6349290  21.9636020
  84.1841460  33.2405240  21.4303570  81.3894220  38.3072700  17.9135650
  81.1635140  38.0909870  18.8182270  80.6086750  38.7401160  17.5681620
  88.6191980  38.3136070  16.5126300  88.0200870  39.0371870  16.3289920
  89.1671590  38.2512850  15.7302750  83.8293430  39.2058280  28.5795920
  83.7337030  38.2653010  28.4296320  84.6725410  39.4273350  28.1843990
  87.2256850  36.9499610  18.5429580  87.6186420  37.2671810  17.7298270
  87.5873700  36.0711490  18.6574100  78.9603970  35.6171950  26.7329700
  78.5667360  36.4647160  26.9402480  78.2722370  34.9798320  26.9238340
  85.5349020  35.7006920  29.8026440  84.8447340  35.5079120  30.4372530
  86.2781320  35.9841560  30.3350740  76.2621020  33.5400410  20.7659780
  75.9734070  34.1103270  21.4784760  77.0066780  33.0604860  21.1291010
  76.4491250  37.4820530  11.9762500  76.3665920  38.4251290  12.1177490
  76.0974310  37.3395440  11.0974850  87.8111990  39.5405360  22.6380360
  87.0793110  40.0492170  22.9870460  87.4136330  38.7235340  22.3369140
  84.2489380  36.2159560  21.0432850  84.2525440  35.7749510  20.1937390
  85.1440500  36.5376890  21.1504670  80.0991760  36.0986050  20.0027060
  79.7591810  36.5761280  20.7594110  79.3369080  35.6451170  19.6428160
  84.3109530  37.2171640  14.0339610  84.4322350  37.1758120  14.9825430
  83.9258040  38.0795790  13.8786340  88.2737900  34.9939040  22.0503300
  88.2910640  35.4447690  22.8945150  88.0253480  34.0944680  22.2636740
  83.3231030  39.5272780  13.4322910  82.7547930  39.0791030  12.8058820
  84.0320030  39.8865560  12.8988060  91.7008650  32.4071220  27.8889680
  92.0254420  31.6760880  28.4147660  91.7365160  32.0884860  26.9870670
  84.5497350  40.2761340  22.7898260  84.9167480  39.8019910  23.5359600
  84.3602410  41.1502910  23.1306600  77.4137840  35.0205030  18.9191730
  77.1284760  34.6560700  19.7570350  77.3516700  34.2885490  18.3054870
  82.3396720  39.3169980  25.1082470  82.0353790  40.1961960  25.3332830
  83.2943180  39.3769770  25.1439910  80.8678510  43.5230970  15.7049320
  80.0940770  42.9828590  15.5448040  81.5973140  43.0037580  15.3667080
  91.6266490  42.5196330  21.4975710  92.3465610  43.0151620  21.1071820
  91.4248310  41.8414220  20.8529580  87.0876430  33.9134290  15.6405100
  86.2741040  33.4147460  15.5650410  86.8938380  34.7532540  15.2241450
  87.0085290  42.5905390  27.3844710  86.9422600  41.6701060  27.1302300
  86.3790430  42.6880830  28.0989350  89.8024820  38.2853940  13.9367260
  90.6904440  38.5971170  13.7618600  89.7729910  37.4126190  13.5447840
  80.9115910  43.1911350  19.3428130  81.4294580  42.3879610  19.2885020
  80.4599930  43.1290490  20.1844960  85.7985410  44.4577630  14.6155430
  86.1401110  45.2019860  14.1198750  84.9698120  44.7708750  14.9780260
  81.5973570  40.6156960  29.1393380  81.2973710  40.7614140  28.2421200
  82.3684810  40.0562250  29.0466770  92.0739090  39.5965780  13.4047120
  91.9902810  40.0280000  12.5543560  92.7933280  40.0564130  13.8373940
  93.1513230  42.0533300  26.4817090  92.4261420  42.6462080  26.2846480
  93.6788690  42.0456840  25.6830460  93.1026340  46.4508040  16.1329250
  92.4602500  45.7963660  16.4072970  92.7157000  46.8563130  15.3569920
  88.6812820  43.7793470  19.9800940  89.0336640  43.1821600  19.3202310
  87.7975150  43.4537700  20.1509190  84.7676100  44.5391160  17.3871350
  85.4547230  45.0860370  17.7678940  83.9808520  45.0831890  17.4220960
  76.9068500  40.1563980  12.8788430  77.7763350  40.4388780  13.1624350
  76.4158820  40.9699850  12.7637240  84.0703310  41.5437190  16.9996710
  84.5266090  42.3542440  17.2256900  83.7191520  41.2260330  17.8315200
  79.9715090  31.8874840  17.4719230  79.8429720  31.8792740  18.4204150
  79.1477110  32.2257930  17.1210240  91.4923720  45.3424500  12.6705600
  91.2661300  44.6254940  13.2630240  91.1019920  45.0936940  11.8327350
  77.2739750  49.3691360  13.4450060  77.6337390  49.9680700  12.7907330
  77.1332090  49.9151250  14.2185090  76.9709020  33.6465960  26.9325930
  76.2567540  33.8462880  27.5378540  77.3904060  32.8705530  27.3040730
  91.0739970  43.2596440  14.3319760  90.7861670  43.7209130  15.1197640
  91.8692140  42.7994210  14.6003980  85.2494200  45.9062110  29.3190580
  84.9291070  45.1871350  29.8636270  84.5752560  46.5817180  29.3926640
  83.2908370  46.7522560  14.2623730  83.2818470  47.4852250  13.6468240
  82.3706730  46.5054140  14.3550690  78.8915010  41.9737450  15.0070490
  78.2842960  42.7136350  15.0165790  79.3664360  42.0636810  14.1808690
  88.4647800  36.1388270  24.6827380  88.8328620  35.3183480  25.0106950
  87.6046000  36.1990160  25.0983030  91.8309830  35.0945210  15.4914940
  91.2022990  35.1990880  14.7773170  91.3361750  35.3141990  16.2808820
  86.2767970  46.8150800  12.9248920  86.3779950  46.6114790  11.9950900
  85.3769710  46.5609080  13.1296700  83.7993860  37.3731160  16.9072820
  83.0910010  37.8417500  17.3486430  84.0838340  36.7153170  17.5418010
  85.4249790  38.7927860  24.9065350  85.9235040  39.2673680  25.5717200
  85.5672740  37.8691380  25.1135380  87.8309290  34.0981820  18.3468610
  87.7077070  34.1167950  17.3978120  88.7793850  34.1460760  18.4667010
  84.9186080  49.3337120  17.6196590  85.1727580  49.2958510  16.6975960
  83.9698560  49.2070450  17.6124840  82.0028880  35.6816240  14.2823530
  82.8519410  36.1186390  14.2163720  81.6360150  35.9936500  15.1095590
  92.6316650  35.0095820  25.7493740  92.1290250  35.7501220  26.0887550
  93.4473310  35.3979820  25.4330530  90.9238660  40.2529000  19.1955100
  89.9828800  40.2679230  19.3702790  91.2382730  39.4664960  19.6415400
  80.9020300  41.9348600  12.7559060  81.6683570  41.8229960  13.3184490
  80.9794990  41.2386570  12.1035830  79.5967060  39.3673670  13.4391950
  79.6770650  38.4201180  13.5509350  80.4886810  39.6980550  13.5452610
  92.9264240  47.4237850  20.8709360  93.0511660  48.2469020  21.3433170
  93.7929800  47.2128580  20.5233510  80.3981770  49.5169060  20.5426490
  81.1344250  48.9684520  20.8135060  80.7822690  50.3825070  20.4032480
  77.2827250  45.5842630  16.4168000  76.3567030  45.8263770  16.4073410
  77.7483680  46.4116890  16.2952750  83.5084080  48.6899370  12.3652060
  84.3012690  48.9788200  11.9133850  82.9888430  48.2591540  11.6864540
  88.2404680  44.8095000  29.6787480  87.6342840  44.8326600  28.9383230
  87.9358790  44.0778040  30.2154730  92.5614250  47.9169500  13.7888800
  92.2755760  47.5034640  12.9742980  92.3633800  48.8457210  13.6689320
  84.0261480  43.9102780  12.2294410  83.9212120  43.2955130  12.9555790
  83.8585700  43.3868670  11.4457420  84.1775800  42.5959580  28.2083640
  83.4121470  43.1644580  28.1238310  84.3591760  42.3035790  27.3151870
  87.2664210  42.9722810  12.8336400  86.7174310  43.4192110  13.4779140
  87.8883470  42.4672060  13.3574070  82.9339330  41.9313730  14.7301700
  83.3555750  41.7653600  15.5733090  83.0590170  41.1213960  14.2356840
  81.0966750  37.9110280  27.5372680  80.5663210  37.4201230  26.9096020
  81.7654820  38.3394480  27.0030610  85.4466970  40.9551340  11.9778800
  85.9672630  40.2400360  11.6119950  86.0935370  41.5937210  12.2779310
  89.9944810  42.3779740  27.3013870  90.4085830  42.5324820  28.1504290
  89.0595810  42.5034960  27.4639650  90.4666980  39.7175900  29.3053020
  91.0487750  38.9628220  29.2173500  90.6428750  40.2483340  28.5284500
  81.5839050  34.8772650  27.6169970  81.4895920  34.2593400  26.8920840
  81.0036440  35.6038940  27.3899880  84.3500490  33.4345890  24.6497360
  83.9017790  33.4570150  23.8042910  83.7165690  33.0364910  25.2467660
  87.0923940  40.0616400  26.6547640  87.2120150  39.4657540  27.3942480
  87.9517940  40.0986090  26.2348940  89.4311840  40.6153590  25.2310150
  88.9047060  41.1396210  24.6275290  89.7743180  41.2480980  25.8619880
  81.8298230  38.0046960  11.6759860  81.6287290  37.1414320  12.0373200
  81.6590280  37.9180320  10.7381460  82.6067460  48.6353230  26.3867530
  82.0688550  49.3599290  26.0676230  82.8601420  48.1583570  25.5964870
  83.8592710  36.6037750  27.9123460  84.4492400  36.2953600  28.6001280
  83.0412950  36.1317500  28.0683360  88.6786140  36.2203560  28.1456480
  87.9901660  35.5585100  28.0806470  89.3992160  35.7741830  28.5904940
  89.3086540  32.8155190  14.2046740  89.5888830  31.9723090  14.5606160
  88.5352270  33.0478300  14.7185490  80.6281030  35.1047580  11.6637740
  80.9306930  35.1115010  10.7556890  81.3675620  34.7545440  12.1605400
  83.8465960  34.0482200  12.6493940  83.4987960  33.3706190  12.0696390
  84.0478730  33.5871710  13.4637330  86.0115000  49.0362950  14.2680540
  86.9065790  49.3747920  14.2899300  86.0432630  48.3142360  13.6404820
  79.6511160  44.4090000  12.4967540  80.0886030  44.9519670  13.1525120
  80.1358890  43.5836950  12.5063880  76.8656960  47.1979030  19.9487800
  77.1959970  46.3300090  19.7166440  77.2947960  47.4037550  20.7792760
  81.4618880  45.5288040  17.6089770  81.1614420  45.4053010  18.5093680
  81.3556370  44.6696630  17.2005500  94.2310800  45.3084440  12.3116450
  93.4003760  45.3761090  12.7823680  94.4082630  46.1988560  12.0083310
  93.6867260  42.0531920  14.8150650  94.4486170  42.6228570  14.9210340
  93.7021630  41.4859120  15.5858960  77.1871600  40.5769850  19.0458310
  76.5320440  40.3081490  18.4018010  78.0249550  40.4674330  18.5960290
  94.6927230  42.9082020  19.6592580  95.0636060  42.1249340  19.2528550
  95.3329160  43.5971120  19.4809880  93.7386430  42.3466290  11.9723170
  94.0135270  43.2545170  11.8442390  93.5497170  42.2828820  12.9085160
  90.1362040  35.3711140  13.2676800  90.5546920  35.1842120  12.4273460
  89.8298100  34.5190190  13.5779730  93.6351770  40.2835280  16.9652600
  93.2595370  39.5163210  16.5333890  92.9054890  40.6657980  17.4527530
  78.2247530  40.9622420  23.5861650  78.5920570  40.8749820  24.4657670
  77.6558350  40.1988970  23.4868510  93.0251390  39.4306800  26.5992120
  92.7937480  39.2019550  25.6990070  93.2855940  40.3506350  26.5537010
  91.4639460  34.6563230  29.3771820  92.3409640  34.6646630  29.7605820
  91.4760300  33.9194070  28.7664170  76.4009680  37.7868780  14.9883640
  75.4973760  38.0498980  14.8135300  76.8850300  38.0579950  14.2083600
  92.9102730  38.5092770  20.2659840  93.4340210  38.0155420  19.6350010
  93.4962150  38.6443130  21.0107410  93.0892450  38.5932640  23.7879390
  92.1395160  38.5596180  23.9024380  93.2705460  39.5032750  23.5529160
  78.9436890  36.8434320  12.8978020  79.6528590  36.4217540  12.4125300
  78.2276830  36.9109550  12.2661370  78.5911050  32.8973650  11.9380670
  79.3139180  33.4382590  12.2561890  78.8635570  32.6237070  11.0622210
  92.4002700  37.7666120  16.2052250  92.8961820  37.5336990  16.9901130
  92.2018770  36.9277960  15.7889890  78.2803240  32.1479840  21.8403290
  78.9279430  31.5977220  21.3998450  78.7005080  32.4022990  22.6619100
  93.8289860  36.4027070  18.7389930  93.7189140  36.2483110  19.6772200
  94.5897450  35.8748010  18.4965340  92.1755580  32.3421200  25.1972930
  92.8127800  32.9555340  25.5632120  92.3230470  32.3781860  24.2522160
  94.7180130  34.2334990  11.9796070  95.6429440  34.1016170  11.7714360
  94.6955920  34.3127810  12.9332520  94.7918620  35.0045650  14.6052780
  93.9970120  34.9390770  15.1345690  94.9961900  35.9396290  14.5938130
  91.7337040  49.0437200  18.5991170  92.3296110  48.7221770  17.9225590
  91.9915190  48.5709020  19.3904440  78.0335240  32.3035510  24.5828610
  77.6850060  32.7599330  25.3486790  77.7022940  31.4092640  24.6651040
  85.5460060  33.4947390  28.1048030  85.4848950  34.0869220  28.8543440
  86.4860440  33.3873350  27.9598290  88.1834620  33.1517450  27.7440320
  88.7975030  33.4696740  27.0821400  88.7284180  32.6666040  28.3636180
  78.7055880  31.8311710  27.8579380  79.2538870  31.6499760  27.0945490
  78.7711190  31.0405820  28.3935690  88.9242660  31.7149590  24.0709610
  88.0502500  32.0484700  23.8682540  88.8153410  31.2422770  24.8961480
  89.8314640  33.9220460  25.4551330  89.5028000  33.1072220  25.0753060
  90.7796940  33.8790270  25.3317020  92.2849250  49.6932500  22.4288900
  91.8252220  50.4448310  22.0546920  91.6561710  48.9738970  22.3703700
  82.7144970  48.0020740  21.6037030  83.2309990  47.3908100  21.0785290
  83.3642350  48.5049520  22.0948040  86.6717480  32.6319430  23.0102520
  85.8889270  33.1064930  23.2899280  86.3780410  31.7274260  22.9015700
  91.2238550  33.3342530  21.0551610  91.6646640  33.2787630  20.2073210
  90.9546140  34.2500540  21.1261790  93.0877120  32.9657770  19.0660430
  93.0265520  32.0218990  18.9191450  93.8669150  33.0737860  19.6113890
  77.3929870  49.1050130  18.0284380  77.2251910  48.4720810  18.7266270
  76.5264380  49.3109530  17.6778570  78.0157890  32.9366910  15.5316240
  78.7737250  33.0495790  14.9580270  77.5535060  33.7736110  15.4859670
  84.5571700  35.0506180  18.5218550  83.7446210  34.6763070  18.1814430
  85.0613340  34.2951260  18.8239740  89.0596680  31.7148630  19.7601620
  89.6626050  32.2868840  20.2350140  88.3189670  32.2788070  19.5375520
  92.2031280  32.1170190  15.0341900  92.3981910  33.0153640  15.3009330
  91.4161150  31.8857270  15.5274850  78.9992570  47.7983360  15.4734520
  78.4740190  48.1791390  14.7696480  78.9237150  48.4234130  16.1944230
  80.3883040  33.4630960  14.0718210  80.9175800  32.6760760  13.9426160
  81.0211360  34.1422150  14.3053740  82.5820880  33.2006100  17.1263600
  81.9523620  32.4993410  17.2933730  82.0426020  33.9610230  16.9096760
  93.7557890  49.3570900  16.7948460  93.9310080  48.6708640  16.1509380
  93.0579460  49.8817950  16.4025130  82.7076440  32.4790080  29.5616090
  82.4260710  32.9823680  28.7976910  83.0896140  31.6811830  29.1958220
  81.5985540  49.7465740  14.3483770  82.3304360  49.4625020  13.8007660
  81.8579210  49.5079020  15.2383150  80.7600330  45.8630470  14.3530100
  80.1309210  46.3315570  14.9015930  80.8748160  45.0179690  14.7876290
  89.3091900  31.8943660  30.1396560  89.1957350  32.2138270  31.0348080
  90.1261640  32.2956170  29.8433840  86.3468090  41.6915150   2.3840570
  85.5710190  41.2115590   2.6739140  86.9981020  41.0120800   2.2096730
  80.3633920  42.0034960   3.2616330  79.5318800  41.7483670   3.6612840
  80.9714900  42.0745730   3.9974250  80.3435180  46.0375050   3.4574350
  80.6463220  45.1472790   3.2784570  81.0878770  46.5945270   3.2296600
  76.7358880  39.5642500   2.9298420  77.3074990  38.7964700   2.9302060
  76.7360420  39.8631260   2.0205030  85.7877080  44.3672340   2.3910730
  85.7185360  43.4262280   2.2299860  86.5496940  44.4573750   2.9633300
  77.9783750  34.9726860   4.7167350  77.7986590  34.0752610   4.9970110
  77.5763830  35.5198730   5.3914300  86.8182250  37.1742720   2.6179660
  87.1947070  36.3014600   2.5053330  86.7201760  37.5101420   1.7270100
  78.5970420  37.4687360   3.3249690  79.2780530  37.7325730   3.9437090
  78.2818470  36.6288230   3.6587700  82.7894990  38.5154720   2.4122280
  83.2973210  39.0135690   3.0527300  83.3208230  37.7389920   2.2361640
  94.8905920  36.6859910   6.1151630  94.1858090  37.0741620   5.5966740
  95.1563840  37.3810200   6.7172560  81.0731090  33.1553280   6.6785700
  81.0749530  33.6725670   5.8731600  80.2435400  32.6783460   6.6555630
  82.3233940  42.7948460   4.8559200  81.9903320  43.4217380   5.4980270
  82.5000620  43.3210340   4.0760870  90.8367850  36.6093540   2.3235540
  90.1323420  36.8978430   2.9038650  91.1980010  37.4193650   1.9635100
  80.7546420  34.8663240   4.6856150  81.0963230  35.7105290   4.3910020
  79.8162230  35.0146980   4.8021490  81.5353040  44.7629260   6.6708380
  82.1527040  45.4380340   6.3892830  80.6746160  45.1717240   6.5795880
  92.4530630  46.2268670   4.5863020  91.7694150  46.8967780   4.5779690
  92.9924920  46.4249320   3.8207880  93.9054770  36.0548330   2.7144750
  92.9579680  36.0887310   2.8460180  94.2304760  36.8687280   3.0994110
  89.9889370  48.0712800   3.3008200  90.0016530  47.6675090   2.4330460
  89.4364590  48.8460090   3.1969630  89.3874810  42.9742640   4.6290810
  89.8043600  42.7602750   3.7944270  90.1114630  43.2315430   5.1999430
  93.3336910  41.3729860   4.7207050  92.5055540  41.4422950   4.2457180
  93.9287390  41.9584170   4.2522880  90.2978920  38.1599180   5.6661920
  89.8850100  38.9852890   5.9201910  89.5654870  37.5744220   5.4738280
  82.8993410  44.6326640   2.6919800  82.6021700  44.0272110   2.0127580
  83.8493230  44.6703950   2.5809160  81.1440330  37.7202290   4.3079630
  81.6954920  37.8297630   3.5332880  81.6583840  38.0939890   5.0234860
  90.9879020  48.2058510   6.3542900  90.5109580  49.0130700   6.1615510
  90.3040810  47.5536840   6.5069110  81.9911840  44.3708330   9.3427600
  81.0940370  44.5948300   9.5901000  82.0164710  44.4943270   8.3939000
  80.8183060  41.2421650   7.9184970  80.6790830  42.1144450   8.2872370
  79.9364420  40.8994460   7.7732910  82.6163410  47.1843350  10.1270120
  82.5878840  47.5886300   9.2598550  82.4528380  46.2553710   9.9641720
  94.5678230  47.9670450  11.4234290  95.0437950  48.4453340  12.1023370
  95.1885390  47.8987940  10.6979790  76.7701710  43.0119200   3.8355880
  76.8482130  43.1467970   2.8911600  77.3843390  42.3035090   4.0284000
  93.9711480  45.1583300   8.5834300  94.0974540  44.9195180   7.6651480
  94.0132860  44.3267840   9.0556380  87.8328220  48.8611300   7.1529110
  88.3472890  48.7719310   7.9551540  86.9897300  49.2071000   7.4457020
  93.8235490  37.2115760   9.5484040  93.2079760  37.7195430   9.0199500
  93.5031910  36.3114090   9.4909980  76.8261230  44.0533370   6.3750340
  76.9892270  43.5838730   5.5569710  77.2913680  43.5456930   7.0399180
  85.8849810  36.0507650   7.0146230  85.4229180  36.2590670   7.8266170
  85.4827920  35.2367000   6.7116900  90.8854320  37.2716600   8.1442890
  90.0347910  36.9722350   8.4651960  90.7256110  37.5158610   7.2326710
  87.9804030  38.7718350  10.2441680  88.3057440  37.9382100   9.9043910
  88.7684360  39.2946870  10.3920010  83.6355900  33.7286460   3.2700510
  83.9328230  34.6349290   3.1892530  84.1841460  33.2405240   2.6560080
  83.8293430  39.2058280   9.8052430  83.7337030  38.2653010   9.6552830
  84.6725410  39.4273350   9.4100500  78.9603970  35.6171950   7.9586210
  78.5667360  36.4647160   8.1658990  78.2722370  34.9798320   8.1494850
  85.5349020  35.7006920  11.0282950  84.8447340  35.5079120  11.6629040
  86.2781320  35.9841560  11.5607250  76.2621020  33.5400410   1.9916290
  75.9734070  34.1103270   2.7041270  77.0066780  33.0604860   2.3547520
  87.8111990  39.5405360   3.8636870  87.0793110  40.0492170   4.2126970
  87.4136330  38.7235340   3.5625650  84.2489380  36.2159560   2.2689360
  84.2525440  35.7749510   1.4193900  85.1440500  36.5376890   2.3761180
  88.2737900  34.9939040   3.2759810  88.2910640  35.4447690   4.1201660
  88.0253480  34.0944680   3.4893250  91.7008650  32.4071220   9.1146190
  92.0254420  31.6760880   9.6404170  91.7365160  32.0884860   8.2127180
  78.4000210  43.4284800   8.5346150  78.0155000  42.7878470   9.1329110
  78.7112400  44.1320920   9.1040880  84.5497350  40.2761340   4.0154770
  84.9167480  39.8019910   4.7616110  84.3602410  41.1502910   4.3563110
  82.3396720  39.3169980   6.3338980  82.0353790  40.1961960   6.5589340
  83.2943180  39.3769770   6.3696420  91.6266490  42.5196330   2.7232220
  92.3465610  43.0151620   2.3328330  91.4248310  41.8414220   2.0786090
  87.0085290  42.5905390   8.6101220  86.9422600  41.6701060   8.3558810
  86.3790430  42.6880830   9.3245860  78.3960450  40.1572720   7.4810340
  78.0375390  40.8226570   8.0683680  78.1015010  39.3256270   7.8522960
  81.5973570  40.6156960  10.3649890  81.2973710  40.7614140   9.4677710
  82.3684810  40.0562250  10.2723280  86.9402020  45.4125960   8.3605020
  86.9546560  44.4806920   8.1423930  86.2327120  45.4985720   8.9994790
  93.1513230  42.0533300   7.7073600  92.4261420  42.6462080   7.5102990
  93.6788690  42.0456840   6.9086970  86.3735920  47.0543530   5.4545520
  87.0178140  47.2602910   6.1318940  86.7365360  46.2931930   5.0016370
  87.6468000  45.0575880   4.1722970  88.2890230  44.3569040   4.2855140
  88.1717350  45.8374320   3.9919860  89.4205620  45.8570780   7.3759030
  89.7561860  46.4437470   8.0536950  88.5005960  45.7263490   7.6056820
  76.9709020  33.6465960   8.1582440  76.2567540  33.8462880   8.7635050
  77.3904060  32.8705530   8.5297240  77.2581610  47.6346220   9.1448970
  77.3672730  46.6940960   9.0044360  76.6062170  47.9000970   8.4962700
  85.2494200  45.9062110  10.5447090  84.9291070  45.1871350  11.0892780
  84.5752560  46.5817180  10.6183150  88.4647800  36.1388270   5.9083890
  88.8328620  35.3183480   6.2363460  87.6046000  36.1990160   6.3239540
  85.4249790  38.7927860   6.1321860  85.9235040  39.2673680   6.7973710
  85.5672740  37.8691380   6.3391890  92.6316650  35.0095820   6.9750250
  92.1290250  35.7501220   7.3144060  93.4473310  35.3979820   6.6587040
  92.9264240  47.4237850   2.0965870  93.0511660  48.2469020   2.5689680
  93.7929800  47.2128580   1.7490020  80.3981770  49.5169060   1.7683000
  81.1344250  48.9684520   2.0391570  80.7822690  50.3825070   1.6288990
  79.4040050  48.7015130  10.9568580  80.2052780  49.0227180  11.3703980
  78.8891870  48.3410710  11.6788490  88.2404680  44.8095000  10.9043990
  87.6342840  44.8326600  10.1639740  87.9358790  44.0778040  11.4411240
  89.6705050  48.5375290   9.5153400  90.6226800  48.4533310   9.4653640
  89.5233270  49.2017000  10.1887190  77.1237860  41.1888590   9.9004630
  77.6276880  40.6095870  10.4720860  76.3845280  41.4728820  10.4381000
  84.1775800  42.5959580   9.4340150  83.4121470  43.1644580   9.3494820
  84.3591760  42.3035790   8.5408380  91.3199150  44.3264910   9.9915170
  92.0608620  44.6640670   9.4882630  90.5571830  44.4956970   9.4384940
  79.1560940  39.3318180  10.7954700  79.1966280  39.0332050  11.7039930
  80.0106440  39.7325790  10.6362220  81.0966750  37.9110280   8.7629190
  80.5663210  37.4201230   8.1352530  81.7654820  38.3394480   8.2287120
  89.9944810  42.3779740   8.5270380  90.4085830  42.5324820   9.3760800
  89.0595810  42.5034960   8.6896160  90.4666980  39.7175900  10.5309530
  91.0487750  38.9628220  10.4430010  90.6428750  40.2483340   9.7541010
  81.5839050  34.8772650   8.8426480  81.4895920  34.2593400   8.1177350
  81.0036440  35.6038940   8.6156390  84.3500490  33.4345890   5.8753870
  83.9017790  33.4570150   5.0299420  83.7165690  33.0364910   6.4724170
  84.7560040  42.3300220   6.4966310  85.1748150  43.1732950   6.3242550
  83.8368670  42.4672260   6.2673090  87.0923940  40.0616400   7.8804150
  87.2120150  39.4657540   8.6198990  87.9517940  40.0986090   7.4605450
  89.4311840  40.6153590   6.4566660  88.9047060  41.1396210   5.8531800
  89.7743180  41.2480980   7.0876390  82.6067460  48.6353230   7.6124040
  82.0688550  49.3599290   7.2932740  82.8601420  48.1583570   6.8221380
  83.8592710  36.6037750   9.1379970  84.4492400  36.2953600   9.8257790
  83.0412950  36.1317500   9.2939870  88.6786140  36.2203560   9.3712990
  87.9901660  35.5585100   9.3062980  89.3992160  35.7741830   9.8161450
  85.4629670  49.8704440   7.8710690  85.3888370  50.7739580   8.1783060
  84.5608510  49.5516340   7.8432760  77.3547170  48.0649620   3.9125940
  76.9178160  48.2450420   4.7450090  77.9224850  48.8224240   3.7707660
  92.9909350  47.5666620   8.2003250  92.3911340  47.6259180   7.4567170
  93.1203250  46.6271600   8.3300100  91.6760990  44.2918600   6.2979410
  90.8620830  44.7215760   6.5605200  92.0835190  44.9037010   5.6848460
  78.2247530  40.9622420   4.8118160  78.5920570  40.8749820   5.6914180
  77.6558350  40.1988970   4.7125020  93.0251390  39.4306800   7.8248630
  92.7937480  39.2019550   6.9246580  93.2855940  40.3506350   7.7793520
  77.7763530  37.8731510   8.7176580  76.8819580  37.8398270   9.0570290
  78.3161080  38.0718300   9.4827830  91.4639460  34.6563230  10.6028330
  92.3409640  34.6646630  10.9862330  91.4760300  33.9194070   9.9920680
  93.0892450  38.5932640   5.0135900  92.1395160  38.5596180   5.1280890
  93.2705460  39.5032750   4.7785670  78.2803240  32.1479840   3.0659800
  78.9279430  31.5977220   2.6254960  78.7005080  32.4022990   3.8875610
  92.1755580  32.3421200   6.4229440  92.8127800  32.9555340   6.7888630
  92.3230470  32.3781860   5.4778670  78.0335240  32.3035510   5.8085120
  77.6850060  32.7599330   6.5743300  77.7022940  31.4092640   5.8907550
  79.6399610  45.4755110   9.9738310  79.5969240  45.1048020  10.8552770
  79.7710620  46.4132680  10.1140130  83.3405640  47.0314700   5.5748030
  83.0997000  47.2989260   4.6878550  84.2808280  47.2020430   5.6298890
  85.5460060  33.4947390   9.3304540  85.4848950  34.0869220  10.0799950
  86.4860440  33.3873350   9.1854800  88.1834620  33.1517450   8.9696830
  88.7975030  33.4696740   8.3077910  88.7284180  32.6666040   9.5892690
  94.6009800  49.0509080   6.3758670  94.1068080  49.4477950   5.6585800
  93.9923090  48.4258290   6.7695950  78.7055880  31.8311710   9.0835890
  79.2538870  31.6499760   8.3202000  78.7711190  31.0405820   9.6192200
  79.4787640  48.4217360   7.0936090  78.8847960  48.2902060   7.8326130
  79.4711480  47.5855500   6.6278190  88.9242660  31.7149590   5.2966120
  88.0502500  32.0484700   5.0939050  88.8153410  31.2422770   6.1217990
  89.8314640  33.9220460   6.6807840  89.5028000  33.1072220   6.3009570
  90.7796940  33.8790270   6.5573530  92.2849250  49.6932500   3.6545410
  91.8252220  50.4448310   3.2803430  91.6561710  48.9738970   3.5960210
  79.1099870  45.7875740   6.0444130  78.3833930  45.1681030   5.9770080
  79.1709020  46.1816350   5.1742210  82.7144970  48.0020740   2.8293540
  83.2309990  47.3908100   2.3041800  83.3642350  48.5049520   3.3204550
  85.4540470  48.8929230   3.6562520  85.7418280  48.6383530   2.7795530
  85.9663690  48.3406590   4.2468090  86.6717480  32.6319430   4.2359030
  85.8889270  33.1064930   4.5155790  86.3780410  31.7274260   4.1272210
  91.2238550  33.3342530   2.2808120  91.6646640  33.2787630   1.4329720
  90.9546140  34.2500540   2.3518300  85.5212830  49.8145330  11.0230720
  86.4480140  49.5789600  11.0666680  85.5063260  50.6417330  10.5416750
  82.7076440  32.4790080  10.7872600  82.4260710  32.9823680  10.0233420
  83.0896140  31.6811830  10.4214730  89.3091900  31.8943660  11.3653070
  89.1957350  32.2138270  12.2604590  90.1261640  32.2956170  11.0690350
  92.0890390  49.0415190  10.8471760  92.8815710  48.5464420  10.6397720
  92.3823540  49.7205330  11.4547370  88.2150050  21.1392640 150.6979220
  88.1344100  20.2247250 150.4270930  87.8014470  21.6359710 149.9918930
  86.3468090  22.9171660 152.5788490  85.5710190  22.4372100 152.8687060
  86.9981020  22.2377310 152.4044650  90.3675520  27.3231850 151.3587620
  89.9057050  26.5519090 151.6874790  91.1801070  27.3497920 151.8640070
  78.7725870  18.1893360 147.2406640  77.8842570  18.5309330 147.1386520
  79.0567060  17.9893680 146.3487470  76.7358880  20.7899010 153.1246340
  77.3074990  20.0221210 153.1249980  76.7360420  21.0887770 152.2152950
  86.5938830  29.6089860 150.9791610  85.9750270  30.0647360 150.4086050
  87.4490610  29.7641320 150.5781310  85.7877080  25.5928850 152.5858650
  85.7185360  24.6518790 152.4247780  86.5496940  25.6830260 153.1581220
  86.8182250  18.3999230 152.8127580  87.1947070  17.5271110 152.7001250
  86.7201760  18.7357930 151.9218020  80.9487260  16.7724860 148.2745020
  81.0554010  17.6728590 148.5813780  80.0379620  16.7242830 147.9839670
  90.6006370  15.8949670 149.7455920  91.4215990  15.4046240 149.7881400
  90.6340450  16.4847330 150.4987760  87.4602180  24.4929100 148.3723520
  86.8419450  24.9578550 147.8086240  87.9725430  25.1856580 148.7893030
  90.8367850  17.8350050 152.5183460  90.1323420  18.1234940 153.0986570
  91.1980010  18.6450160 152.1583020  76.8285380  25.1785630 145.7463150
  76.4513360  25.6672730 145.0148050  77.0858450  25.8510910 146.3769680
  84.4374310  13.5802020 151.2048660  84.7449290  13.0248910 150.4884160
  83.5075010  13.7146480 151.0221650  91.2834790  26.0185530 148.5846290
  91.1731120  25.0759860 148.7095710  91.2803040  26.3801170 149.4709050
  86.8255070  21.6450850 147.9408780  85.8984350  21.5788230 148.1697250
  86.9779890  22.5830980 147.8264020  86.8124150  17.9167850 144.9375940
  85.8727820  18.0781810 145.0228400  87.1307410  18.6353530 144.3911930
  90.8552360  23.2071150 148.4444030  90.2364780  22.8690700 147.7970330
  90.8376810  22.5630910 149.1523220  82.4311710  22.1715590 150.7228510
  82.0268710  21.4592840 150.2274410  82.5174830  21.8268830 151.6116550
  82.8993410  25.8583150 152.8867720  82.6021700  25.2528620 152.2075500
  83.8493230  25.8960460 152.7757080  89.0317060  22.4457960 145.4516780
  89.4710340  21.6080390 145.3054600  89.7445480  23.0787360 145.5380920
  87.1412440  27.3854030 149.4198020  87.5808350  28.1278360 149.0053410
  87.0799330  27.6280600 150.3436980  92.6134200  13.7000770 143.7657820
  92.3006860  13.7927600 144.6656890  93.3746670  14.2781800 143.7155250
  79.1316340  21.0660570 148.2235160  79.0113940  21.7922660 147.6116430
  78.8217230  20.2963480 147.7463070  78.0149340  25.9375900 150.4409980
  77.6077420  26.0790490 149.5863580  78.9062350  25.6536060 150.2381190
  89.8082620  30.3723150 146.7761030  89.6483760  30.0826090 147.6742860
  89.6429330  29.5963280 146.2406260  82.2871000  30.1521680 148.5532650
  82.1113480  29.2357220 148.3400450  81.4326740  30.5108970 148.7930450
  89.5108750  27.8810710 145.3359030  88.8173910  27.8788000 144.6761310
  90.2531610  27.4570030 144.9053200  89.0758680  29.5073420 149.4107520
  89.5315630  28.7262800 149.7246140  89.4151200  30.2180240 149.9548700
  81.5980000  14.4095640 151.6058830  81.1548150  15.1905180 151.2743350
  82.1564990  14.7325530 152.3129770  84.7138820  14.0306340 146.4864660
  84.0893000  14.0266210 147.2117970  84.6268940  13.1637300 146.0900630
  81.3894220  19.5329210 149.3340080  81.1635140  19.3166380 150.2386700
  80.6086750  19.9657670 148.9886050  88.6191980  19.5392580 147.9330730
  88.0200870  20.2628380 147.7494350  89.1671590  19.4769360 147.1507180
  87.2256850  18.1756120 149.9634010  87.6186420  18.4928320 149.1502700
  87.5873700  17.2968000 150.0778530  76.2621020  14.7656920 152.1864210
  75.9734070  15.3359780 152.8989190  77.0066780  14.2861370 152.5495440
  76.4491250  18.7077040 143.3966930  76.3665920  19.6507800 143.5381920
  76.0974310  18.5651950 142.5179280  84.2489380  17.4416070 152.4637280
  84.2525440  17.0006020 151.6141820  85.1440500  17.7633400 152.5709100
  80.0991760  17.3242560 151.4231490  79.7591810  17.8017790 152.1798540
  79.3369080  16.8707680 151.0632590  84.3109530  18.4428150 145.4544040
  84.4322350  18.4014630 146.4029860  83.9258040  19.3052300 145.2990770
  83.3231030  20.7529290 144.8527340  82.7547930  20.3047540 144.2263250
  84.0320030  21.1122070 144.3192490  77.4137840  16.2461540 150.3396160
  77.1284760  15.8817210 151.1774780  77.3516700  15.5142000 149.7259300
  80.8678510  24.7487480 147.1253750  80.0940770  24.2085100 146.9652470
  81.5973140  24.2294090 146.7871510  91.6266490  23.7452840 152.9180140
  92.3465610  24.2408130 152.5276250  91.4248310  23.0670730 152.2734010
  87.0876430  15.1390800 147.0609530  86.2741040  14.6403970 146.9854840
  86.8938380  15.9789050 146.6445880  89.8024820  19.5110450 145.3571690
  90.6904440  19.8227680 145.1823030  89.7729910  18.6382700 144.9652270
  80.9115910  24.4167860 150.7632560  81.4294580  23.6136120 150.7089450
  80.4599930  24.3547000 151.6049390  85.7985410  25.6834140 146.0359860
  86.1401110  26.4276370 145.5403180  84.9698120  25.9965260 146.3984690
  92.0739090  20.8222290 144.8251550  91.9902810  21.2536510 143.9747990
  92.7933280  21.2820640 145.2578370  93.1026340  27.6764550 147.5533680
  92.4602500  27.0220170 147.8277400  92.7157000  28.0819640 146.7774350
  88.6812820  25.0049980 151.4005370  89.0336640  24.4078110 150.7406740
  87.7975150  24.6794210 151.5713620  84.7676100  25.7647670 148.8075780
  85.4547230  26.3116880 149.1883370  83.9808520  26.3088400 148.8425390
  76.9068500  21.3820490 144.2992860  77.7763350  21.6645290 144.5828780
  76.4158820  22.1956360 144.1841670  84.0703310  22.7693700 148.4201140
  84.5266090  23.5798950 148.6461330  83.7191520  22.4516840 149.2519630
  79.9715090  13.1131350 148.8923660  79.8429720  13.1049250 149.8408580
  79.1477110  13.4514440 148.5414670  91.4923720  26.5681010 144.0910030
  91.2661300  25.8511450 144.6834670  91.1019920  26.3193450 143.2531780
  77.2739750  30.5947870 144.8654490  77.6337390  31.1937210 144.2111760
  77.1332090  31.1407760 145.6389520  91.0739970  24.4852950 145.7524190
  90.7861670  24.9465640 146.5402070  91.8692140  24.0250720 146.0208410
  83.2908370  27.9779070 145.6828160  83.2818470  28.7108760 145.0672670
  82.3706730  27.7310650 145.7755120  78.8915010  23.1993960 146.4274920
  78.2842960  23.9392860 146.4370220  79.3664360  23.2893320 145.6013120
  91.8309830  16.3201720 146.9119370  91.2022990  16.4247390 146.1977600
  91.3361750  16.5398500 147.7013250  86.2767970  28.0407310 144.3453350
  86.3779950  27.8371300 143.4155330  85.3769710  27.7865590 144.5501130
  83.7993860  18.5987670 148.3277250  83.0910010  19.0674010 148.7690860
  84.0838340  17.9409680 148.9622440  87.8309290  15.3238330 149.7673040
  87.7077070  15.3424460 148.8182550  88.7793850  15.3717270 149.8871440
  84.9186080  30.5593630 149.0401020  85.1727580  30.5215020 148.1180390
  83.9698560  30.4326960 149.0329270  82.0028880  16.9072750 145.7027960
  82.8519410  17.3442900 145.6368150  81.6360150  17.2193010 146.5300020
  90.9238660  21.4785510 150.6159530  89.9828800  21.4935740 150.7907220
  91.2382730  20.6921470 151.0619830  80.9020300  23.1605110 144.1763490
  81.6683570  23.0486470 144.7388920  80.9794990  22.4643080 143.5240260
  79.5967060  20.5930180 144.8596380  79.6770650  19.6457690 144.9713780
  80.4886810  20.9237060 144.9657040  92.9264240  28.6494360 152.2913790
  93.0511660  29.4725530 152.7637600  93.7929800  28.4385090 151.9437940
  80.3981770  30.7425570 151.9630920  81.1344250  30.1941030 152.2339490
  80.7822690  31.6081580 151.8236910  77.2827250  26.8099140 147.8372430
  76.3567030  27.0520280 147.8277840  77.7483680  27.6373400 147.7157180
  83.5084080  29.9155880 143.7856490  84.3012690  30.2044710 143.3338280
  82.9888430  29.4848050 143.1068970  92.5614250  29.1426010 145.2093230
  92.2755760  28.7291150 144.3947410  92.3633800  30.0713720 145.0893750
  84.0261480  25.1359290 143.6498840  83.9212120  24.5211640 144.3760220
  83.8585700  24.6125180 142.8661850  87.2664210  24.1979320 144.2540830
  86.7174310  24.6448620 144.8983570  87.8883470  23.6928570 144.7778500
  82.9339330  23.1570240 146.1506130  83.3555750  22.9910110 146.9937520
  83.0590170  22.3470470 145.6561270  85.4466970  22.1807850 143.3983230
  85.9672630  21.4656870 143.0324380  86.0935370  22.8193720 143.6983740
  81.8298230  19.2303470 143.0964290  81.6287290  18.3670830 143.4577630
  81.6590280  19.1436830 142.1585890  89.3086540  14.0411700 145.6251170
  89.5888830  13.1979600 145.9810590  88.5352270  14.2734810 146.1389920
  80.6281030  16.3304090 143.0842170  80.9306930  16.3371520 142.1761320
  81.3675620  15.9801950 143.5809830  83.8465960  15.2738710 144.0698370
  83.4987960  14.5962700 143.4900820  84.0478730  14.8128220 144.8841760
  86.0115000  30.2619460 145.6884970  86.9065790  30.6004430 145.7103730
  86.0432630  29.5398870 145.0609250  79.6511160  25.6346510 143.9171970
  80.0886030  26.1776180 144.5729550  80.1358890  24.8093460 143.9268310
  76.8656960  28.4235540 151.3692230  77.1959970  27.5556600 151.1370870
  77.2947960  28.6294060 152.1997190  81.4618880  26.7544550 149.0294200
  81.1614420  26.6309520 149.9298110  81.3556370  25.8953140 148.6209930
  94.2310800  26.5340950 143.7320880  93.4003760  26.6017600 144.2028110
  94.4082630  27.4245070 143.4287740  93.6867260  23.2788430 146.2355080
  94.4486170  23.8485080 146.3414770  93.7021630  22.7115630 147.0063390
  77.1871600  21.8026360 150.4662740  76.5320440  21.5338000 149.8222440
  78.0249550  21.6930840 150.0164720  94.6927230  24.1338530 151.0797010
  95.0636060  23.3505850 150.6732980  95.3329160  24.8227630 150.9014310
  93.7386430  23.5722800 143.3927600  94.0135270  24.4801680 143.2646820
  93.5497170  23.5085330 144.3289590  90.1362040  16.5967650 144.6881230
  90.5546920  16.4098630 143.8477890  89.8298100  15.7446700 144.9984160
  93.6351770  21.5091790 148.3857030  93.2595370  20.7419720 147.9538320
  92.9054890  21.8914490 148.8731960  76.4009680  19.0125290 146.4088070
  75.4973760  19.2755490 146.2339730  76.8850300  19.2836460 145.6288030
  92.9102730  19.7349280 151.6864270  93.4340210  19.2411930 151.0554440
  93.4962150  19.8699640 152.4311840  78.9436890  18.0690830 144.3182450
  79.6528590  17.6474050 143.8329730  78.2276830  18.1366060 143.6865800
  78.5911050  14.1230160 143.3585100  79.3139180  14.6639100 143.6766320
  78.8635570  13.8493580 142.4826640  92.4002700  18.9922630 147.6256680
  92.8961820  18.7593500 148.4105560  92.2018770  18.1534470 147.2094320
  93.8289860  17.6283580 150.1594360  93.7189140  17.4739620 151.0976630
  94.5897450  17.1004520 149.9169770  94.7180130  15.4591500 143.4000500
  95.6429440  15.3272680 143.1918790  94.6955920  15.5384320 144.3536950
  94.7918620  16.2302160 146.0257210  93.9970120  16.1647280 146.5550120
  94.9961900  17.1652800 146.0142560  91.7337040  30.2693710 150.0195600
  92.3296110  29.9478280 149.3430020  91.9915190  29.7965530 150.8108870
  91.2238550  14.5599040 152.4756040  91.6646640  14.5044140 151.6277640
  90.9546140  15.4757050 152.5466220  93.0877120  14.1914280 150.4864860
  93.0265520  13.2475500 150.3395880  93.8669150  14.2994370 151.0318320
  77.3929870  30.3306640 149.4488810  77.2251910  29.6977320 150.1470700
  76.5264380  30.5366040 149.0983000  78.0157890  14.1623420 146.9520670
  78.7737250  14.2752300 146.3784700  77.5535060  14.9992620 146.9064100
  84.5571700  16.2762690 149.9422980  83.7446210  15.9019580 149.6018860
  85.0613340  15.5207770 150.2444170  89.0596680  12.9405140 151.1806050
  89.6626050  13.5125350 151.6554570  88.3189670  13.5044580 150.9579950
  92.2031280  13.3426700 146.4546330  92.3981910  14.2410150 146.7213760
  91.4161150  13.1113780 146.9479280  78.9992570  29.0239870 146.8938950
  78.4740190  29.4047900 146.1900910  78.9237150  29.6490640 147.6148660
  80.3883040  14.6887470 145.4922640  80.9175800  13.9017270 145.3630590
  81.0211360  15.3678660 145.7258170  82.5820880  14.4262610 148.5468030
  81.9523620  13.7249920 148.7138160  82.0426020  15.1866740 148.3301190
  93.7557890  30.5827410 148.2152890  93.9310080  29.8965150 147.5713810
  93.0579460  31.1074460 147.8229560  81.5985540  30.9722250 145.7688200
  82.3304360  30.6881530 145.2212090  81.8579210  30.7335530 146.6587580
  80.7600330  27.0886980 145.7734530  80.1309210  27.5572080 146.3220360
  80.8748160  26.2436200 146.2080720  88.2150050  21.1392640 131.9235730
  88.1344100  20.2247250 131.6527440  87.8014470  21.6359710 131.2175440
  86.3468090  22.9171660 133.8045000  85.5710190  22.4372100 134.0943570
  86.9981020  22.2377310 133.6301160  80.3633920  23.2291470 134.6820760
  79.5318800  22.9740180 135.0817270  80.9714900  23.3002240 135.4178680
  90.3675520  27.3231850 132.5844130  89.9057050  26.5519090 132.9131300
  91.1801070  27.3497920 133.0896580  80.3435180  27.2631560 134.8778780
  80.6463220  26.3729300 134.6989000  81.0878770  27.8201780 134.6501030
  78.7725870  18.1893360 128.4663150  77.8842570  18.5309330 128.3643030
  79.0567060  17.9893680 127.5743980  76.7358880  20.7899010 134.3502850
  77.3074990  20.0221210 134.3506490  76.7360420  21.0887770 133.4409460
  86.5938830  29.6089860 132.2048120  85.9750270  30.0647360 131.6342560
  87.4490610  29.7641320 131.8037820  85.7877080  25.5928850 133.8115160
  85.7185360  24.6518790 133.6504290  86.5496940  25.6830260 134.3837730
  77.9783750  16.1983370 136.1371780  77.7986590  15.3009120 136.4174540
  77.5763830  16.7455240 136.8118730  86.8182250  18.3999230 134.0384090
  87.1947070  17.5271110 133.9257760  86.7201760  18.7357930 133.1474530
  80.9487260  16.7724860 129.5001530  81.0554010  17.6728590 129.8070290
  80.0379620  16.7242830 129.2096180  90.6006370  15.8949670 130.9712430
  91.4215990  15.4046240 131.0137910  90.6340450  16.4847330 131.7244270
  78.5970420  18.6943870 134.7454120  79.2780530  18.9582240 135.3641520
  78.2818470  17.8544740 135.0792130  82.7894990  19.7411230 133.8326710
  83.2973210  20.2392200 134.4731730  83.3208230  18.9646430 133.6566070
  94.8905920  17.9116420 137.5356060  94.1858090  18.2998130 137.0171170
  95.1563840  18.6066710 138.1376990  81.0731090  14.3809790 138.0990130
  81.0749530  14.8982180 137.2936030  80.2435400  13.9039970 138.0760060
  87.4602180  24.4929100 129.5980030  86.8419450  24.9578550 129.0342750
  87.9725430  25.1856580 130.0149540  82.3233940  24.0204970 136.2763630
  81.9903320  24.6473890 136.9184700  82.5000620  24.5466850 135.4965300
  90.8367850  17.8350050 133.7439970  90.1323420  18.1234940 134.3243080
  91.1980010  18.6450160 133.3839530  80.7546420  16.0919750 136.1060580
  81.0963230  16.9361800 135.8114450  79.8162230  16.2403490 136.2225920
  81.5353040  25.9885770 138.0912810  82.1527040  26.6636850 137.8097260
  80.6746160  26.3973750 138.0000310  76.8285380  25.1785630 126.9719660
  76.4513360  25.6672730 126.2404560  77.0858450  25.8510910 127.6026190
  92.4530630  27.4525180 136.0067450  91.7694150  28.1224290 135.9984120
  92.9924920  27.6505830 135.2412310  93.9054770  17.2804840 134.1349180
  92.9579680  17.3143820 134.2664610  94.2304760  18.0943790 134.5198540
  84.4374310  13.5802020 132.4305170  84.7449290  13.0248910 131.7140670
  83.5075010  13.7146480 132.2478160  89.9889370  29.2969310 134.7212630
  90.0016530  28.8931600 133.8534890  89.4364590  30.0716600 134.6174060
  91.2834790  26.0185530 129.8102800  91.1731120  25.0759860 129.9352220
  91.2803040  26.3801170 130.6965560  89.3874810  24.1999150 136.0495240
  89.8043600  23.9859260 135.2148700  90.1114630  24.4571940 136.6203860
  86.8255070  21.6450850 129.1665290  85.8984350  21.5788230 129.3953760
  86.9779890  22.5830980 129.0520530  86.8124150  17.9167850 126.1632450
  85.8727820  18.0781810 126.2484910  87.1307410  18.6353530 125.6168440
  93.3336910  22.5986370 136.1411480  92.5055540  22.6679460 135.6661610
  93.9287390  23.1840680 135.6727310  90.8552360  23.2071150 129.6700540
  90.2364780  22.8690700 129.0226840  90.8376810  22.5630910 130.3779730
  90.2978920  19.3855690 137.0866350  89.8850100  20.2109400 137.3406340
  89.5654870  18.8000730 136.8942710  82.4311710  22.1715590 131.9485020
  82.0268710  21.4592840 131.4530920  82.5174830  21.8268830 132.8373060
  82.8993410  25.8583150 134.1124230  82.6021700  25.2528620 133.4332010
  83.8493230  25.8960460 134.0013590  81.1440330  18.9458800 135.7284060
  81.6954920  19.0554140 134.9537310  81.6583840  19.3196400 136.4439290
  90.9879020  29.4315020 137.7747330  90.5109580  30.2387210 137.5819940
  90.3040810  28.7793350 137.9273540  81.9911840  25.5964840 140.7632030
  81.0940370  25.8204810 141.0105430  82.0164710  25.7199780 139.8143430
  89.0317060  22.4457960 126.6773290  89.4710340  21.6080390 126.5311110
  89.7445480  23.0787360 126.7637430  80.8183060  22.4678160 139.3389400
  80.6790830  23.3400960 139.7076800  79.9364420  22.1250970 139.1937340
  87.1412440  27.3854030 130.6454530  87.5808350  28.1278360 130.2309920
  87.0799330  27.6280600 131.5693490  82.6163410  28.4099860 141.5474550
  82.5878840  28.8142810 140.6802980  82.4528380  27.4810220 141.3846150
  92.6134200  13.7000770 124.9914330  92.3006860  13.7927600 125.8913400
  93.3746670  14.2781800 124.9411760  79.1316340  21.0660570 129.4491670
  79.0113940  21.7922660 128.8372940  78.8217230  20.2963480 128.9719580
  94.5678230  29.1926960 142.8438720  95.0437950  29.6709850 143.5227800
  95.1885390  29.1244450 142.1184220  76.7701710  24.2375710 135.2560310
  76.8482130  24.3724480 134.3116030  77.3843390  23.5291600 135.4488430
  78.0149340  25.9375900 131.6666490  77.6077420  26.0790490 130.8120090
  78.9062350  25.6536060 131.4637700  93.9711480  26.3839810 140.0038730
  94.0974540  26.1451690 139.0855910  94.0132860  25.5524350 140.4760810
  87.8328220  30.0867810 138.5733540  88.3472890  29.9975820 139.3755970
  86.9897300  30.4327510 138.8661450  89.8082620  30.3723150 128.0017540
  89.6483760  30.0826090 128.8999370  89.6429330  29.5963280 127.4662770
  82.2871000  30.1521680 129.7789160  82.1113480  29.2357220 129.5656960
  81.4326740  30.5108970 130.0186960  89.5108750  27.8810710 126.5615540
  88.8173910  27.8788000 125.9017820  90.2531610  27.4570030 126.1309710
  89.0758680  29.5073420 130.6364030  89.5315630  28.7262800 130.9502650
  89.4151200  30.2180240 131.1805210  93.8235490  18.4372270 140.9688470
  93.2079760  18.9451940 140.4403930  93.5031910  17.5370600 140.9114410
  76.8261230  25.2789880 137.7954770  76.9892270  24.8095240 136.9774140
  77.2913680  24.7713440 138.4603610  81.5980000  14.4095640 132.8315340
  81.1548150  15.1905180 132.4999860  82.1564990  14.7325530 133.5386280
  85.8849810  17.2764160 138.4350660  85.4229180  17.4847180 139.2470600
  85.4827920  16.4623510 138.1321330  90.8854320  18.4973110 139.5647320
  90.0347910  18.1978860 139.8856390  90.7256110  18.7415120 138.6531140
  87.9804030  19.9974860 141.6646110  88.3057440  19.1638610 141.3248340
  88.7684360  20.5203380 141.8124440  84.7138820  14.0306340 127.7121170
  84.0893000  14.0266210 128.4374480  84.6268940  13.1637300 127.3157140
  83.6355900  14.9542970 134.6904940  83.9328230  15.8605800 134.6096960
  84.1841460  14.4661750 134.0764510  81.3894220  19.5329210 130.5596590
  81.1635140  19.3166380 131.4643210  80.6086750  19.9657670 130.2142560
  88.6191980  19.5392580 129.1587240  88.0200870  20.2628380 128.9750860
  89.1671590  19.4769360 128.3763690  83.8293430  20.4314790 141.2256860
  83.7337030  19.4909520 141.0757260  84.6725410  20.6529860 140.8304930
  87.2256850  18.1756120 131.1890520  87.6186420  18.4928320 130.3759210
  87.5873700  17.2968000 131.3035040  78.9603970  16.8428460 139.3790640
  78.5667360  17.6903670 139.5863420  78.2722370  16.2054830 139.5699280
  85.5349020  16.9263430 142.4487380  84.8447340  16.7335630 143.0833470
  86.2781320  17.2098070 142.9811680  76.2621020  14.7656920 133.4120720
  75.9734070  15.3359780 134.1245700  77.0066780  14.2861370 133.7751950
  76.4491250  18.7077040 124.6223440  76.3665920  19.6507800 124.7638430
  76.0974310  18.5651950 123.7435790  87.8111990  20.7661870 135.2841300
  87.0793110  21.2748680 135.6331400  87.4136330  19.9491850 134.9830080
  84.2489380  17.4416070 133.6893790  84.2525440  17.0006020 132.8398330
  85.1440500  17.7633400 133.7965610  80.0991760  17.3242560 132.6488000
  79.7591810  17.8017790 133.4055050  79.3369080  16.8707680 132.2889100
  84.3109530  18.4428150 126.6800550  84.4322350  18.4014630 127.6286370
  83.9258040  19.3052300 126.5247280  88.2737900  16.2195550 134.6964240
  88.2910640  16.6704200 135.5406090  88.0253480  15.3201190 134.9097680
  83.3231030  20.7529290 126.0783850  82.7547930  20.3047540 125.4519760
  84.0320030  21.1122070 125.5449000  91.7008650  13.6327730 140.5350620
  92.0254420  12.9017390 141.0608600  91.7365160  13.3141370 139.6331610
  78.4000210  24.6541310 139.9550580  78.0155000  24.0134980 140.5533540
  78.7112400  25.3577430 140.5245310  84.5497350  21.5017850 135.4359200
  84.9167480  21.0276420 136.1820540  84.3602410  22.3759420 135.7767540
  77.4137840  16.2461540 131.5652670  77.1284760  15.8817210 132.4031290
  77.3516700  15.5142000 130.9515810  82.3396720  20.5426490 137.7543410
  82.0353790  21.4218470 137.9793770  83.2943180  20.6026280 137.7900850
  80.8678510  24.7487480 128.3510260  80.0940770  24.2085100 128.1908980
  81.5973140  24.2294090 128.0128020  91.6266490  23.7452840 134.1436650
  92.3465610  24.2408130 133.7532760  91.4248310  23.0670730 133.4990520
  87.0876430  15.1390800 128.2866040  86.2741040  14.6403970 128.2111350
  86.8938380  15.9789050 127.8702390  87.0085290  23.8161900 140.0305650
  86.9422600  22.8957570 139.7763240  86.3790430  23.9137340 140.7450290
  89.8024820  19.5110450 126.5828200  90.6904440  19.8227680 126.4079540
  89.7729910  18.6382700 126.1908780  80.9115910  24.4167860 131.9889070
  81.4294580  23.6136120 131.9345960  80.4599930  24.3547000 132.8305900
  85.7985410  25.6834140 127.2616370  86.1401110  26.4276370 126.7659690
  84.9698120  25.9965260 127.6241200  78.3960450  21.3829230 138.9014770
  78.0375390  22.0483080 139.4888110  78.1015010  20.5512780 139.2727390
  81.5973570  21.8413470 141.7854320  81.2973710  21.9870650 140.8882140
  82.3684810  21.2818760 141.6927710  86.9402020  26.6382470 139.7809450
  86.9546560  25.7063430 139.5628360  86.2327120  26.7242230 140.4199220
  92.0739090  20.8222290 126.0508060  91.9902810  21.2536510 125.2004500
  92.7933280  21.2820640 126.4834880  93.1513230  23.2789810 139.1278030
  92.4261420  23.8718590 138.9307420  93.6788690  23.2713350 138.3291400
  93.1026340  27.6764550 128.7790190  92.4602500  27.0220170 129.0533910
  92.7157000  28.0819640 128.0030860  88.6812820  25.0049980 132.6261880
  89.0336640  24.4078110 131.9663250  87.7975150  24.6794210 132.7970130
  84.7676100  25.7647670 130.0332290  85.4547230  26.3116880 130.4139880
  83.9808520  26.3088400 130.0681900  76.9068500  21.3820490 125.5249370
  77.7763350  21.6645290 125.8085290  76.4158820  22.1956360 125.4098180
  84.0703310  22.7693700 129.6457650  84.5266090  23.5798950 129.8717840
  83.7191520  22.4516840 130.4776140  86.3735920  28.2800040 136.8749950
  87.0178140  28.4859420 137.5523370  86.7365360  27.5188440 136.4220800
  79.9715090  13.1131350 130.1180170  79.8429720  13.1049250 131.0665090
  79.1477110  13.4514440 129.7671180  87.6468000  26.2832390 135.5927400
  88.2890230  25.5825550 135.7059570  88.1717350  27.0630830 135.4124290
  91.4923720  26.5681010 125.3166540  91.2661300  25.8511450 125.9091180
  91.1019920  26.3193450 124.4788290  89.4205620  27.0827290 138.7963460
  89.7561860  27.6693980 139.4741380  88.5005960  26.9520000 139.0261250
  77.2739750  30.5947870 126.0911000  77.6337390  31.1937210 125.4368270
  77.1332090  31.1407760 126.8646030  76.9709020  14.8722470 139.5786870
  76.2567540  15.0719390 140.1839480  77.3904060  14.0962040 139.9501670
  91.0739970  24.4852950 126.9780700  90.7861670  24.9465640 127.7658580
  91.8692140  24.0250720 127.2464920  77.2581610  28.8602730 140.5653400
  77.3672730  27.9197470 140.4248790  76.6062170  29.1257480 139.9167130
  85.2494200  27.1318620 141.9651520  84.9291070  26.4127860 142.5097210
  84.5752560  27.8073690 142.0387580  83.2908370  27.9779070 126.9084670
  83.2818470  28.7108760 126.2929180  82.3706730  27.7310650 127.0011630
  78.8915010  23.1993960 127.6531430  78.2842960  23.9392860 127.6626730
  79.3664360  23.2893320 126.8269630  88.4647800  17.3644780 137.3288320
  88.8328620  16.5439990 137.6567890  87.6046000  17.4246670 137.7443970
  91.8309830  16.3201720 128.1375880  91.2022990  16.4247390 127.4234110
  91.3361750  16.5398500 128.9269760  86.2767970  28.0407310 125.5709860
  86.3779950  27.8371300 124.6411840  85.3769710  27.7865590 125.7757640
  83.7993860  18.5987670 129.5533760  83.0910010  19.0674010 129.9947370
  84.0838340  17.9409680 130.1878950  85.4249790  20.0184370 137.5526290
  85.9235040  20.4930190 138.2178140  85.5672740  19.0947890 137.7596320
  87.8309290  15.3238330 130.9929550  87.7077070  15.3424460 130.0439060
  88.7793850  15.3717270 131.1127950  84.9186080  30.5593630 130.2657530
  85.1727580  30.5215020 129.3436900  83.9698560  30.4326960 130.2585780
  82.0028880  16.9072750 126.9284470  82.8519410  17.3442900 126.8624660
  81.6360150  17.2193010 127.7556530  92.6316650  16.2352330 138.3954680
  92.1290250  16.9757730 138.7348490  93.4473310  16.6236330 138.0791470
  90.9238660  21.4785510 131.8416040  89.9828800  21.4935740 132.0163730
  91.2382730  20.6921470 132.2876340  80.9020300  23.1605110 125.4020000
  81.6683570  23.0486470 125.9645430  80.9794990  22.4643080 124.7496770
  79.5967060  20.5930180 126.0852890  79.6770650  19.6457690 126.1970290
  80.4886810  20.9237060 126.1913550  92.9264240  28.6494360 133.5170300
  93.0511660  29.4725530 133.9894110  93.7929800  28.4385090 133.1694450
  80.3981770  30.7425570 133.1887430  81.1344250  30.1941030 133.4596000
  80.7822690  31.6081580 133.0493420  77.2827250  26.8099140 129.0628940
  76.3567030  27.0520280 129.0534350  77.7483680  27.6373400 128.9413690
  79.4040050  29.9271640 142.3773010  80.2052780  30.2483690 142.7908410
  78.8891870  29.5667220 143.0992920  83.5084080  29.9155880 125.0113000
  84.3012690  30.2044710 124.5594790  82.9888430  29.4848050 124.3325480
  88.2404680  26.0351510 142.3248420  87.6342840  26.0583110 141.5844170
  87.9358790  25.3034550 142.8615670  89.6705050  29.7631800 140.9357830
  90.6226800  29.6789820 140.8858070  89.5233270  30.4273510 141.6091620
  92.5614250  29.1426010 126.4349740  92.2755760  28.7291150 125.6203920
  92.3633800  30.0713720 126.3150260  77.1237860  22.4145100 141.3209060
  77.6276880  21.8352380 141.8925290  76.3845280  22.6985330 141.8585430
  84.0261480  25.1359290 124.8755350  83.9212120  24.5211640 125.6016730
  83.8585700  24.6125180 124.0918360  84.1775800  23.8216090 140.8544580
  83.4121470  24.3901090 140.7699250  84.3591760  23.5292300 139.9612810
  87.2664210  24.1979320 125.4797340  86.7174310  24.6448620 126.1240080
  87.8883470  23.6928570 126.0035010  91.3199150  25.5521420 141.4119600
  92.0608620  25.8897180 140.9087060  90.5571830  25.7213480 140.8589370
  79.1560940  20.5574690 142.2159130  79.1966280  20.2588560 143.1244360
  80.0106440  20.9582300 142.0566650  82.9339330  23.1570240 127.3762640
  83.3555750  22.9910110 128.2194030  83.0590170  22.3470470 126.8817780
  81.0966750  19.1366790 140.1833620  80.5663210  18.6457740 139.5556960
  81.7654820  19.5650990 139.6491550  85.4466970  22.1807850 124.6239740
  85.9672630  21.4656870 124.2580890  86.0935370  22.8193720 124.9240250
  89.9944810  23.6036250 139.9474810  90.4085830  23.7581330 140.7965230
  89.0595810  23.7291470 140.1100590  90.4666980  20.9432410 141.9513960
  91.0487750  20.1884730 141.8634440  90.6428750  21.4739850 141.1745440
  81.5839050  16.1029160 140.2630910  81.4895920  15.4849910 139.5381780
  81.0036440  16.8295450 140.0360820  84.3500490  14.6602400 137.2958300
  83.9017790  14.6826660 136.4503850  83.7165690  14.2621420 137.8928600
  84.7560040  23.5556730 137.9170740  85.1748150  24.3989460 137.7446980
  83.8368670  23.6928770 137.6877520  87.0923940  21.2872910 139.3008580
  87.2120150  20.6914050 140.0403420  87.9517940  21.3242600 138.8809880
  89.4311840  21.8410100 137.8771090  88.9047060  22.3652720 137.2736230
  89.7743180  22.4737490 138.5080820  81.8298230  19.2303470 124.3220800
  81.6287290  18.3670830 124.6834140  81.6590280  19.1436830 123.3842400
  82.6067460  29.8609740 139.0328470  82.0688550  30.5855800 138.7137170
  82.8601420  29.3840080 138.2425810  83.8592710  17.8294260 140.5584400
  84.4492400  17.5210110 141.2462220  83.0412950  17.3574010 140.7144300
  88.6786140  17.4460070 140.7917420  87.9901660  16.7841610 140.7267410
  89.3992160  16.9998340 141.2365880  89.3086540  14.0411700 126.8507680
  89.5888830  13.1979600 127.2067100  88.5352270  14.2734810 127.3646430
  80.6281030  16.3304090 124.3098680  80.9306930  16.3371520 123.4017830
  81.3675620  15.9801950 124.8066340  85.4629670  31.0960950 139.2915120
  85.3888370  31.9996090 139.5987490  84.5608510  30.7772850 139.2637190
  83.8465960  15.2738710 125.2954880  83.4987960  14.5962700 124.7157330
  84.0478730  14.8128220 126.1098270  86.0115000  30.2619460 126.9141480
  86.9065790  30.6004430 126.9360240  86.0432630  29.5398870 126.2865760
  79.6511160  25.6346510 125.1428480  80.0886030  26.1776180 125.7986060
  80.1358890  24.8093460 125.1524820  76.8656960  28.4235540 132.5948740
  77.1959970  27.5556600 132.3627380  77.2947960  28.6294060 133.4253700
  81.4618880  26.7544550 130.2550710  81.1614420  26.6309520 131.1554620
  81.3556370  25.8953140 129.8466440  77.3547170  29.2906130 135.3330370
  76.9178160  29.4706930 136.1654520  77.9224850  30.0480750 135.1912090
  92.9909350  28.7923130 139.6207680  92.3911340  28.8515690 138.8771600
  93.1203250  27.8528110 139.7504530  94.2310800  26.5340950 124.9577390
  93.4003760  26.6017600 125.4284620  94.4082630  27.4245070 124.6544250
  93.6867260  23.2788430 127.4611590  94.4486170  23.8485080 127.5671280
  93.7021630  22.7115630 128.2319900  77.1871600  21.8026360 131.6919250
  76.5320440  21.5338000 131.0478950  78.0249550  21.6930840 131.2421230
  94.6927230  24.1338530 132.3053520  95.0636060  23.3505850 131.8989490
  95.3329160  24.8227630 132.1270820  91.6760990  25.5175110 137.7183840
  90.8620830  25.9472270 137.9809630  92.0835190  26.1293520 137.1052890
  93.7386430  23.5722800 124.6184110  94.0135270  24.4801680 124.4903330
  93.5497170  23.5085330 125.5546100  90.1362040  16.5967650 125.9137740
  90.5546920  16.4098630 125.0734400  89.8298100  15.7446700 126.2240670
  93.6351770  21.5091790 129.6113540  93.2595370  20.7419720 129.1794830
  92.9054890  21.8914490 130.0988470  78.2247530  22.1878930 136.2322590
  78.5920570  22.1006330 137.1118610  77.6558350  21.4245480 136.1329450
  93.0251390  20.6563310 139.2453060  92.7937480  20.4276060 138.3451010
  93.2855940  21.5762860 139.1997950  77.7763530  19.0988020 140.1381010
  76.8819580  19.0654780 140.4774720  78.3161080  19.2974810 140.9032260
  91.4639460  15.8819740 142.0232760  92.3409640  15.8903140 142.4066760
  91.4760300  15.1450580 141.4125110  76.4009680  19.0125290 127.6344580
  75.4973760  19.2755490 127.4596240  76.8850300  19.2836460 126.8544540
  92.9102730  19.7349280 132.9120780  93.4340210  19.2411930 132.2810950
  93.4962150  19.8699640 133.6568350  93.0892450  19.8189150 136.4340330
  92.1395160  19.7852690 136.5485320  93.2705460  20.7289260 136.1990100
  78.9436890  18.0690830 125.5438960  79.6528590  17.6474050 125.0586240
  78.2276830  18.1366060 124.9122310  78.5911050  14.1230160 124.5841610
  79.3139180  14.6639100 124.9022830  78.8635570  13.8493580 123.7083150
  92.4002700  18.9922630 128.8513190  92.8961820  18.7593500 129.6362070
  92.2018770  18.1534470 128.4350830  78.2803240  13.3736350 134.4864230
  78.9279430  12.8233730 134.0459390  78.7005080  13.6279500 135.3080040
  93.8289860  17.6283580 131.3850870  93.7189140  17.4739620 132.3233140
  94.5897450  17.1004520 131.1426280  92.1755580  13.5677710 137.8433870
  92.8127800  14.1811850 138.2093060  92.3230470  13.6038370 136.8983100
  94.7180130  15.4591500 124.6257010  95.6429440  15.3272680 124.4175300
  94.6955920  15.5384320 125.5793460  94.7918620  16.2302160 127.2513720
  93.9970120  16.1647280 127.7806630  94.9961900  17.1652800 127.2399070
  91.7337040  30.2693710 131.2452110  92.3296110  29.9478280 130.5686530
  91.9915190  29.7965530 132.0365380  78.0335240  13.5292020 137.2289550
  77.6850060  13.9855840 137.9947730  77.7022940  12.6349150 137.3111980
  79.6399610  26.7011620 141.3942740  79.5969240  26.3304530 142.2757200
  79.7710620  27.6389190 141.5344560  83.3405640  28.2571210 136.9952460
  83.0997000  28.5245770 136.1082980  84.2808280  28.4276940 137.0503320
  85.5460060  14.7203900 140.7508970  85.4848950  15.3125730 141.5004380
  86.4860440  14.6129860 140.6059230  88.1834620  14.3773960 140.3901260
  88.7975030  14.6953250 139.7282340  88.7284180  13.8922550 141.0097120
  94.6009800  30.2765590 137.7963100  94.1068080  30.6734460 137.0790230
  93.9923090  29.6514800 138.1900380  78.7055880  13.0568220 140.5040320
  79.2538870  12.8756270 139.7406430  78.7711190  12.2662330 141.0396630
  79.4787640  29.6473870 138.5140520  78.8847960  29.5158570 139.2530560
  79.4711480  28.8112010 138.0482620  88.9242660  12.9406100 136.7170550
  88.0502500  13.2741210 136.5143480  88.8153410  12.4679280 137.5422420
  89.8314640  15.1476970 138.1012270  89.5028000  14.3328730 137.7214000
  90.7796940  15.1046780 137.9777960  92.2849250  30.9189010 135.0749840
  91.8252220  31.6704820 134.7007860  91.6561710  30.1995480 135.0164640
  79.1099870  27.0132250 137.4648560  78.3833930  26.3937540 137.3974510
  79.1709020  27.4072860 136.5946640  82.7144970  29.2277250 134.2497970
  83.2309990  28.6164610 133.7246230  83.3642350  29.7306030 134.7408980
  85.4540470  30.1185740 135.0766950  85.7418280  29.8640040 134.1999960
  85.9663690  29.5663100 135.6672520  86.6717480  13.8575940 135.6563460
  85.8889270  14.3321440 135.9360220  86.3780410  12.9530770 135.5476640
  91.2238550  14.5599040 133.7012550  91.6646640  14.5044140 132.8534150
  90.9546140  15.4757050 133.7722730  93.0877120  14.1914280 131.7121370
  93.0265520  13.2475500 131.5652390  93.8669150  14.2994370 132.2574830
  77.3929870  30.3306640 130.6745320  77.2251910  29.6977320 131.3727210
  76.5264380  30.5366040 130.3239510  78.0157890  14.1623420 128.1777180
  78.7737250  14.2752300 127.6041210  77.5535060  14.9992620 128.1320610
  84.5571700  16.2762690 131.1679490  83.7446210  15.9019580 130.8275370
  85.0613340  15.5207770 131.4700680  89.0596680  12.9405140 132.4062560
  89.6626050  13.5125350 132.8811080  88.3189670  13.5044580 132.1836460
  92.2031280  13.3426700 127.6802840  92.3981910  14.2410150 127.9470270
  91.4161150  13.1113780 128.1735790  78.9992570  29.0239870 128.1195460
  78.4740190  29.4047900 127.4157420  78.9237150  29.6490640 128.8405170
  80.3883040  14.6887470 126.7179150  80.9175800  13.9017270 126.5887100
  81.0211360  15.3678660 126.9514680  82.5820880  14.4262610 129.7724540
  81.9523620  13.7249920 129.9394670  82.0426020  15.1866740 129.5557700
  85.5212830  31.0401840 142.4435150  86.4480140  30.8046110 142.4871110
  85.5063260  31.8673840 141.9621180  93.7557890  30.5827410 129.4409400
  93.9310080  29.8965150 128.7970320  93.0579460  31.1074460 129.0486070
  82.7076440  13.7046590 142.2077030  82.4260710  14.2080190 141.4437850
  83.0896140  12.9068340 141.8419160  81.5985540  30.9722250 126.9944710
  82.3304360  30.6881530 126.4468600  81.8579210  30.7335530 127.8844090
  80.7600330  27.0886980 126.9991040  80.1309210  27.5572080 127.5476870
  80.8748160  26.2436200 127.4337230  89.3091900  13.1200170 142.7857500
  89.1957350  13.4394780 143.6809020  90.1261640  13.5212680 142.4894780
  92.0890390  30.2671700 142.2676190  92.8815710  29.7720930 142.0602150
  92.3823540  30.9461840 142.8751800  88.2150050  21.1392640 113.1492240
  88.1344100  20.2247250 112.8783950  87.8014470  21.6359710 112.4431950
  86.3468090  22.9171660 115.0301510  85.5710190  22.4372100 115.3200080
  86.9981020  22.2377310 114.8557670  80.3633920  23.2291470 115.9077270
  79.5318800  22.9740180 116.3073780  80.9714900  23.3002240 116.6435190
  90.3675520  27.3231850 113.8100640  89.9057050  26.5519090 114.1387810
  91.1801070  27.3497920 114.3153090  78.7725870  18.1893360 109.6919660
  77.8842570  18.5309330 109.5899540  79.0567060  17.9893680 108.8000490
  76.7358880  20.7899010 115.5759360  77.3074990  20.0221210 115.5763000
  76.7360420  21.0887770 114.6665970  86.5938830  29.6089860 113.4304630
  85.9750270  30.0647360 112.8599070  87.4490610  29.7641320 113.0294330
  77.9783750  16.1983370 117.3628290  77.7986590  15.3009120 117.6431050
  77.5763830  16.7455240 118.0375240  86.8182250  18.3999230 115.2640600
  87.1947070  17.5271110 115.1514270  86.7201760  18.7357930 114.3731040
  80.9487260  16.7724860 110.7258040  81.0554010  17.6728590 111.0326800
  80.0379620  16.7242830 110.4352690  90.6006370  15.8949670 112.1968940
  91.4215990  15.4046240 112.2394420  90.6340450  16.4847330 112.9500780
  78.5970420  18.6943870 115.9710630  79.2780530  18.9582240 116.5898030
  78.2818470  17.8544740 116.3048640  82.7894990  19.7411230 115.0583220
  83.2973210  20.2392200 115.6988240  83.3208230  18.9646430 114.8822580
  94.8905920  17.9116420 118.7612570  94.1858090  18.2998130 118.2427680
  95.1563840  18.6066710 119.3633500  81.0731090  14.3809790 119.3246640
  81.0749530  14.8982180 118.5192540  80.2435400  13.9039970 119.3016570
  82.3233940  24.0204970 117.5020140  81.9903320  24.6473890 118.1441210
  82.5000620  24.5466850 116.7221810  90.8367850  17.8350050 114.9696480
  90.1323420  18.1234940 115.5499590  91.1980010  18.6450160 114.6096040
  80.7546420  16.0919750 117.3317090  81.0963230  16.9361800 117.0370960
  79.8162230  16.2403490 117.4482430  81.5353040  25.9885770 119.3169320
  82.1527040  26.6636850 119.0353770  80.6746160  26.3973750 119.2256820
  92.4530630  27.4525180 117.2323960  91.7694150  28.1224290 117.2240630
  92.9924920  27.6505830 116.4668820  93.9054770  17.2804840 115.3605690
  92.9579680  17.3143820 115.4921120  94.2304760  18.0943790 115.7455050
  84.4374310  13.5802020 113.6561680  84.7449290  13.0248910 112.9397180
  83.5075010  13.7146480 113.4734670  89.3874810  24.1999150 117.2751750
  89.8043600  23.9859260 116.4405210  90.1114630  24.4571940 117.8460370
  86.8124150  17.9167850 107.3888960  85.8727820  18.0781810 107.4741420
  87.1307410  18.6353530 106.8424950  93.3336910  22.5986370 117.3667990
  92.5055540  22.6679460 116.8918120  93.9287390  23.1840680 116.8983820
  90.8552360  23.2071150 110.8957050  90.2364780  22.8690700 110.2483350
  90.8376810  22.5630910 111.6036240  90.2978920  19.3855690 118.3122860
  89.8850100  20.2109400 118.5662850  89.5654870  18.8000730 118.1199220
  82.4311710  22.1715590 113.1741530  82.0268710  21.4592840 112.6787430
  82.5174830  21.8268830 114.0629570  81.1440330  18.9458800 116.9540570
  81.6954920  19.0554140 116.1793820  81.6583840  19.3196400 117.6695800
  90.9879020  29.4315020 119.0003840  90.5109580  30.2387210 118.8076450
  90.3040810  28.7793350 119.1530050  81.9911840  25.5964840 121.9888540
  81.0940370  25.8204810 122.2361940  82.0164710  25.7199780 121.0399940
  80.8183060  22.4678160 120.5645910  80.6790830  23.3400960 120.9333310
  79.9364420  22.1250970 120.4193850  82.6163410  28.4099860 122.7731060
  82.5878840  28.8142810 121.9059490  82.4528380  27.4810220 122.6102660
  92.6134200  13.7000770 106.2170840  92.3006860  13.7927600 107.1169910
  93.3746670  14.2781800 106.1668270  94.5678230  29.1926960 124.0695230
  95.0437950  29.6709850 124.7484310  95.1885390  29.1244450 123.3440730
  76.7701710  24.2375710 116.4816820  76.8482130  24.3724480 115.5372540
  77.3843390  23.5291600 116.6744940  93.9711480  26.3839810 121.2295240
  94.0974540  26.1451690 120.3112420  94.0132860  25.5524350 121.7017320
  93.8235490  18.4372270 122.1944980  93.2079760  18.9451940 121.6660440
  93.5031910  17.5370600 122.1370920  76.8261230  25.2789880 119.0211280
  76.9892270  24.8095240 118.2030650  77.2913680  24.7713440 119.6860120
  81.5980000  14.4095640 114.0571850  81.1548150  15.1905180 113.7256370
  82.1564990  14.7325530 114.7642790  85.8849810  17.2764160 119.6607170
  85.4229180  17.4847180 120.4727110  85.4827920  16.4623510 119.3577840
  90.8854320  18.4973110 120.7903830  90.0347910  18.1978860 121.1112900
  90.7256110  18.7415120 119.8787650  87.9804030  19.9974860 122.8902620
  88.3057440  19.1638610 122.5504850  88.7684360  20.5203380 123.0380950
  84.7138820  14.0306340 108.9377680  84.0893000  14.0266210 109.6630990
  84.6268940  13.1637300 108.5413650  83.6355900  14.9542970 115.9161450
  83.9328230  15.8605800 115.8353470  84.1841460  14.4661750 115.3021020
  81.3894220  19.5329210 111.7853100  81.1635140  19.3166380 112.6899720
  80.6086750  19.9657670 111.4399070  88.6191980  19.5392580 110.3843750
  88.0200870  20.2628380 110.2007370  89.1671590  19.4769360 109.6020200
  83.8293430  20.4314790 122.4513370  83.7337030  19.4909520 122.3013770
  84.6725410  20.6529860 122.0561440  87.2256850  18.1756120 112.4147030
  87.6186420  18.4928320 111.6015720  87.5873700  17.2968000 112.5291550
  78.9603970  16.8428460 120.6047150  78.5667360  17.6903670 120.8119930
  78.2722370  16.2054830 120.7955790  85.5349020  16.9263430 123.6743890
  84.8447340  16.7335630 124.3089980  86.2781320  17.2098070 124.2068190
  76.2621020  14.7656920 114.6377230  75.9734070  15.3359780 115.3502210
  77.0066780  14.2861370 115.0008460  76.4491250  18.7077040 105.8479950
  76.3665920  19.6507800 105.9894940  76.0974310  18.5651950 104.9692300
  87.8111990  20.7661870 116.5097810  87.0793110  21.2748680 116.8587910
  87.4136330  19.9491850 116.2086590  84.2489380  17.4416070 114.9150300
  84.2525440  17.0006020 114.0654840  85.1440500  17.7633400 115.0222120
  80.0991760  17.3242560 113.8744510  79.7591810  17.8017790 114.6311560
  79.3369080  16.8707680 113.5145610  84.3109530  18.4428150 107.9057060
  84.4322350  18.4014630 108.8542880  83.9258040  19.3052300 107.7503790
  88.2737900  16.2195550 115.9220750  88.2910640  16.6704200 116.7662600
  88.0253480  15.3201190 116.1354190  83.3231030  20.7529290 107.3040360
  82.7547930  20.3047540 106.6776270  84.0320030  21.1122070 106.7705510
  91.7008650  13.6327730 121.7607130  92.0254420  12.9017390 122.2865110
  91.7365160  13.3141370 120.8588120  78.4000210  24.6541310 121.1807090
  78.0155000  24.0134980 121.7790050  78.7112400  25.3577430 121.7501820
  84.5497350  21.5017850 116.6615710  84.9167480  21.0276420 117.4077050
  84.3602410  22.3759420 117.0024050  77.4137840  16.2461540 112.7909180
  77.1284760  15.8817210 113.6287800  77.3516700  15.5142000 112.1772320
  82.3396720  20.5426490 118.9799920  82.0353790  21.4218470 119.2050280
  83.2943180  20.6026280 119.0157360  91.6266490  23.7452840 115.3693160
  92.3465610  24.2408130 114.9789270  91.4248310  23.0670730 114.7247030
  87.0876430  15.1390800 109.5122550  86.2741040  14.6403970 109.4367860
  86.8938380  15.9789050 109.0958900  87.0085290  23.8161900 121.2562160
  86.9422600  22.8957570 121.0019750  86.3790430  23.9137340 121.9706800
  89.8024820  19.5110450 107.8084710  90.6904440  19.8227680 107.6336050
  89.7729910  18.6382700 107.4165290  78.3960450  21.3829230 120.1271280
  78.0375390  22.0483080 120.7144620  78.1015010  20.5512780 120.4983900
  81.5973570  21.8413470 123.0110830  81.2973710  21.9870650 122.1138650
  82.3684810  21.2818760 122.9184220  86.9402020  26.6382470 121.0065960
  86.9546560  25.7063430 120.7884870  86.2327120  26.7242230 121.6455730
  93.1513230  23.2789810 120.3534540  92.4261420  23.8718590 120.1563930
  93.6788690  23.2713350 119.5547910  88.6812820  25.0049980 113.8518390
  89.0336640  24.4078110 113.1919760  87.7975150  24.6794210 114.0226640
  84.0703310  22.7693700 110.8714160  84.5266090  23.5798950 111.0974350
  83.7191520  22.4516840 111.7032650  79.9715090  13.1131350 111.3436680
  79.8429720  13.1049250 112.2921600  79.1477110  13.4514440 110.9927690
  76.9709020  14.8722470 120.8043380  76.2567540  15.0719390 121.4095990
  77.3904060  14.0962040 121.1758180  77.2581610  28.8602730 121.7909910
  77.3672730  27.9197470 121.6505300  76.6062170  29.1257480 121.1423640
  85.2494200  27.1318620 123.1908030  84.9291070  26.4127860 123.7353720
  84.5752560  27.8073690 123.2644090  83.2908370  27.9779070 108.1341180
  83.2818470  28.7108760 107.5185690  82.3706730  27.7310650 108.2268140
  88.4647800  17.3644780 118.5544830  88.8328620  16.5439990 118.8824400
  87.6046000  17.4246670 118.9700480  91.8309830  16.3201720 109.3632390
  91.2022990  16.4247390 108.6490620  91.3361750  16.5398500 110.1526270
  86.2767970  28.0407310 106.7966370  86.3779950  27.8371300 105.8668350
  85.3769710  27.7865590 107.0014150  83.7993860  18.5987670 110.7790270
  83.0910010  19.0674010 111.2203880  84.0838340  17.9409680 111.4135460
  85.4249790  20.0184370 118.7782800  85.9235040  20.4930190 119.4434650
  85.5672740  19.0947890 118.9852830  87.8309290  15.3238330 112.2186060
  87.7077070  15.3424460 111.2695570  88.7793850  15.3717270 112.3384460
  84.9186080  30.5593630 111.4914040  85.1727580  30.5215020 110.5693410
  83.9698560  30.4326960 111.4842290  82.0028880  16.9072750 108.1540980
  82.8519410  17.3442900 108.0881170  81.6360150  17.2193010 108.9813040
  92.6316650  16.2352330 119.6211190  92.1290250  16.9757730 119.9605000
  93.4473310  16.6236330 119.3047980  90.9238660  21.4785510 113.0672550
  89.9828800  21.4935740 113.2420240  91.2382730  20.6921470 113.5132850
  80.9020300  23.1605110 106.6276510  81.6683570  23.0486470 107.1901940
  80.9794990  22.4643080 105.9753280  79.5967060  20.5930180 107.3109400
  79.6770650  19.6457690 107.4226800  80.4886810  20.9237060 107.4170060
  92.9264240  28.6494360 114.7426810  93.0511660  29.4725530 115.2150620
  93.7929800  28.4385090 114.3950960  79.4040050  29.9271640 123.6029520
  80.2052780  30.2483690 124.0164920  78.8891870  29.5667220 124.3249430
  83.5084080  29.9155880 106.2369510  84.3012690  30.2044710 105.7851300
  82.9888430  29.4848050 105.5581990  88.2404680  26.0351510 123.5504930
  87.6342840  26.0583110 122.8100680  87.9358790  25.3034550 124.0872180
  89.6705050  29.7631800 122.1614340  90.6226800  29.6789820 122.1114580
  89.5233270  30.4273510 122.8348130  77.1237860  22.4145100 122.5465570
  77.6276880  21.8352380 123.1181800  76.3845280  22.6985330 123.0841940
  84.0261480  25.1359290 106.1011860  83.9212120  24.5211640 106.8273240
  83.8585700  24.6125180 105.3174870  84.1775800  23.8216090 122.0801090
  83.4121470  24.3901090 121.9955760  84.3591760  23.5292300 121.1869320
  91.3199150  25.5521420 122.6376110  92.0608620  25.8897180 122.1343570
  90.5571830  25.7213480 122.0845880  79.1560940  20.5574690 123.4415640
  79.1966280  20.2588560 124.3500870  80.0106440  20.9582300 123.2823160
  82.9339330  23.1570240 108.6019150  83.3555750  22.9910110 109.4450540
  83.0590170  22.3470470 108.1074290  81.0966750  19.1366790 121.4090130
  80.5663210  18.6457740 120.7813470  81.7654820  19.5650990 120.8748060
  89.9944810  23.6036250 121.1731320  90.4085830  23.7581330 122.0221740
  89.0595810  23.7291470 121.3357100  90.4666980  20.9432410 123.1770470
  91.0487750  20.1884730 123.0890950  90.6428750  21.4739850 122.4001950
  81.5839050  16.1029160 121.4887420  81.4895920  15.4849910 120.7638290
  81.0036440  16.8295450 121.2617330  84.3500490  14.6602400 118.5214810
  83.9017790  14.6826660 117.6760360  83.7165690  14.2621420 119.1185110
  84.7560040  23.5556730 119.1427250  85.1748150  24.3989460 118.9703490
  83.8368670  23.6928770 118.9134030  87.0923940  21.2872910 120.5265090
  87.2120150  20.6914050 121.2659930  87.9517940  21.3242600 120.1066390
  89.4311840  21.8410100 119.1027600  88.9047060  22.3652720 118.4992740
  89.7743180  22.4737490 119.7337330  82.6067460  29.8609740 120.2584980
  82.0688550  30.5855800 119.9393680  82.8601420  29.3840080 119.4682320
  83.8592710  17.8294260 121.7840910  84.4492400  17.5210110 122.4718730
  83.0412950  17.3574010 121.9400810  88.6786140  17.4460070 122.0173930
  87.9901660  16.7841610 121.9523920  89.3992160  16.9998340 122.4622390
  89.3086540  14.0411700 108.0764190  89.5888830  13.1979600 108.4323610
  88.5352270  14.2734810 108.5902940  80.6281030  16.3304090 105.5355190
  80.9306930  16.3371520 104.6274340  81.3675620  15.9801950 106.0322850
  83.8465960  15.2738710 106.5211390  83.4987960  14.5962700 105.9413840
  84.0478730  14.8128220 107.3354780  86.0115000  30.2619460 108.1397990
  86.9065790  30.6004430 108.1616750  86.0432630  29.5398870 107.5122270
  76.8656960  28.4235540 113.8205250  77.1959970  27.5556600 113.5883890
  77.2947960  28.6294060 114.6510210  77.3547170  29.2906130 116.5586880
  76.9178160  29.4706930 117.3911030  77.9224850  30.0480750 116.4168600
  92.9909350  28.7923130 120.8464190  92.3911340  28.8515690 120.1028110
  93.1203250  27.8528110 120.9761040  93.6867260  23.2788430 108.6868100
  94.4486170  23.8485080 108.7927790  93.7021630  22.7115630 109.4576410
  94.6927230  24.1338530 113.5310030  95.0636060  23.3505850 113.1246000
  95.3329160  24.8227630 113.3527330  91.6760990  25.5175110 118.9440350
  90.8620830  25.9472270 119.2066140  92.0835190  26.1293520 118.3309400
  90.1362040  16.5967650 107.1394250  90.5546920  16.4098630 106.2990910
  89.8298100  15.7446700 107.4497180  93.6351770  21.5091790 110.8370050
  93.2595370  20.7419720 110.4051340  92.9054890  21.8914490 111.3244980
  78.2247530  22.1878930 117.4579100  78.5920570  22.1006330 118.3375120
  77.6558350  21.4245480 117.3585960  93.0251390  20.6563310 120.4709570
  92.7937480  20.4276060 119.5707520  93.2855940  21.5762860 120.4254460
  77.7763530  19.0988020 121.3637520  76.8819580  19.0654780 121.7031230
  78.3161080  19.2974810 122.1288770  91.4639460  15.8819740 123.2489270
  92.3409640  15.8903140 123.6323270  91.4760300  15.1450580 122.6381620
  92.9102730  19.7349280 114.1377290  93.4340210  19.2411930 113.5067460
  93.4962150  19.8699640 114.8824860  93.0892450  19.8189150 117.6596840
  92.1395160  19.7852690 117.7741830  93.2705460  20.7289260 117.4246610
  78.9436890  18.0690830 106.7695470  79.6528590  17.6474050 106.2842750
  78.2276830  18.1366060 106.1378820  78.5911050  14.1230160 105.8098120
  79.3139180  14.6639100 106.1279340  78.8635570  13.8493580 104.9339660
  92.4002700  18.9922630 110.0769700  92.8961820  18.7593500 110.8618580
  92.2018770  18.1534470 109.6607340  78.2803240  13.3736350 115.7120740
  78.9279430  12.8233730 115.2715900  78.7005080  13.6279500 116.5336550
  93.8289860  17.6283580 112.6107380  93.7189140  17.4739620 113.5489650
  94.5897450  17.1004520 112.3682790  92.1755580  13.5677710 119.0690380
  92.8127800  14.1811850 119.4349570  92.3230470  13.6038370 118.1239610
  94.7180130  15.4591500 105.8513520  95.6429440  15.3272680 105.6431810
  94.6955920  15.5384320 106.8049970  94.7918620  16.2302160 108.4770230
  93.9970120  16.1647280 109.0063140  94.9961900  17.1652800 108.4655580
  78.0335240  13.5292020 118.4546060  77.6850060  13.9855840 119.2204240
  77.7022940  12.6349150 118.5368490  79.6399610  26.7011620 122.6199250
  79.5969240  26.3304530 123.5013710  79.7710620  27.6389190 122.7601070
  85.5460060  14.7203900 121.9765480  85.4848950  15.3125730 122.7260890
  86.4860440  14.6129860 121.8315740  88.1834620  14.3773960 121.6157770
  88.7975030  14.6953250 120.9538850  88.7284180  13.8922550 122.2353630
  94.6009800  30.2765590 119.0219610  94.1068080  30.6734460 118.3046740
  93.9923090  29.6514800 119.4156890  78.7055880  13.0568220 121.7296830
  79.2538870  12.8756270 120.9662940  78.7711190  12.2662330 122.2653140
  79.4787640  29.6473870 119.7397030  78.8847960  29.5158570 120.4787070
  79.4711480  28.8112010 119.2739130  88.9242660  12.9406100 117.9427060
  88.0502500  13.2741210 117.7399990  88.8153410  12.4679280 118.7678930
  89.8314640  15.1476970 119.3268780  89.5028000  14.3328730 118.9470510
  90.7796940  15.1046780 119.2034470  92.2849250  30.9189010 116.3006350
  91.8252220  31.6704820 115.9264370  91.6561710  30.1995480 116.2421150
  79.1099870  27.0132250 118.6905070  78.3833930  26.3937540 118.6231020
  79.1709020  27.4072860 117.8203150  86.6717480  13.8575940 116.8819970
  85.8889270  14.3321440 117.1616730  86.3780410  12.9530770 116.7733150
  91.2238550  14.5599040 114.9269060  91.6646640  14.5044140 114.0790660
  90.9546140  15.4757050 114.9979240  93.0877120  14.1914280 112.9377880
  93.0265520  13.2475500 112.7908900  93.8669150  14.2994370 113.4831340
  78.0157890  14.1623420 109.4033690  78.7737250  14.2752300 108.8297720
  77.5535060  14.9992620 109.3577120  84.5571700  16.2762690 112.3936000
  83.7446210  15.9019580 112.0531880  85.0613340  15.5207770 112.6957190
  89.0596680  12.9405140 113.6319070  89.6626050  13.5125350 114.1067590
  88.3189670  13.5044580 113.4092970  92.2031280  13.3426700 108.9059350
  92.3981910  14.2410150 109.1726780  91.4161150  13.1113780 109.3992300
  80.3883040  14.6887470 107.9435660  80.9175800  13.9017270 107.8143610
  81.0211360  15.3678660 108.1771190  82.5820880  14.4262610 110.9981050
  81.9523620  13.7249920 111.1651180  82.0426020  15.1866740 110.7814210
  85.5212830  31.0401840 123.6691660  86.4480140  30.8046110 123.7127620
  85.5063260  31.8673840 123.1877690  82.7076440  13.7046590 123.4333540
  82.4260710  14.2080190 122.6694360  83.0896140  12.9068340 123.0675670
  89.3091900  13.1200170 124.0114010  89.1957350  13.4394780 124.9065530
  90.1261640  13.5212680 123.7151290  92.0890390  30.2671700 123.4932700
  92.8815710  29.7720930 123.2858660  92.3823540  30.9461840 124.1008310
  88.2150050  21.1392640  94.3748750  88.1344100  20.2247250  94.1040460
  87.8014470  21.6359710  93.6688460  86.3468090  22.9171660  96.2558020
  85.5710190  22.4372100  96.5456590  86.9981020  22.2377310  96.0814180
  80.3435180  27.2631560  97.3291800  80.6463220  26.3729300  97.1502020
  81.0878770  27.8201780  97.1014050  76.7358880  20.7899010  96.8015870
  77.3074990  20.0221210  96.8019510  76.7360420  21.0887770  95.8922480
  77.9783750  16.1983370  98.5884800  77.7986590  15.3009120  98.8687560
  77.5763830  16.7455240  99.2631750  86.8182250  18.3999230  96.4897110
  87.1947070  17.5271110  96.3770780  86.7201760  18.7357930  95.5987550
  90.6006370  15.8949670  93.4225450  91.4215990  15.4046240  93.4650930
  90.6340450  16.4847330  94.1757290  81.0731090  14.3809790 100.5503150
  81.0749530  14.8982180  99.7449050  80.2435400  13.9039970 100.5273080
  90.8367850  17.8350050  96.1952990  90.1323420  18.1234940  96.7756100
  91.1980010  18.6450160  95.8352550  76.8285380  25.1785630  89.4232680
  76.4513360  25.6672730  88.6917580  77.0858450  25.8510910  90.0539210
  93.9054770  17.2804840  96.5862200  92.9579680  17.3143820  96.7177630
  94.2304760  18.0943790  96.9711560  84.4374310  13.5802020  94.8818190
  84.7449290  13.0248910  94.1653690  83.5075010  13.7146480  94.6991180
  91.2834790  26.0185530  92.2615820  91.1731120  25.0759860  92.3865240
  91.2803040  26.3801170  93.1478580  82.4311710  22.1715590  94.3998040
  82.0268710  21.4592840  93.9043940  82.5174830  21.8268830  95.2886080
  82.8993410  25.8583150  96.5637250  82.6021700  25.2528620  95.8845030
  83.8493230  25.8960460  96.4526610  81.9911840  25.5964840 103.2145050
  81.0940370  25.8204810 103.4618450  82.0164710  25.7199780 102.2656450
  92.6134200  13.7000770  87.4427350  92.3006860  13.7927600  88.3426420
  93.3746670  14.2781800  87.3924780  79.1316340  21.0660570  91.9004690
  79.0113940  21.7922660  91.2885960  78.8217230  20.2963480  91.4232600
  76.7701710  24.2375710  97.7073330  76.8482130  24.3724480  96.7629050
  77.3843390  23.5291600  97.9001450  78.0149340  25.9375900  94.1179510
  77.6077420  26.0790490  93.2633110  78.9062350  25.6536060  93.9150720
  89.8082620  30.3723150  90.4530560  89.6483760  30.0826090  91.3512390
  89.6429330  29.5963280  89.9175790  82.2871000  30.1521680  92.2302180
  82.1113480  29.2357220  92.0169980  81.4326740  30.5108970  92.4699980
  89.0758680  29.5073420  93.0877050  89.5315630  28.7262800  93.4015670
  89.4151200  30.2180240  93.6318230  93.8235490  18.4372270 103.4201490
  93.2079760  18.9451940 102.8916950  93.5031910  17.5370600 103.3627430
  81.5980000  14.4095640  95.2828360  81.1548150  15.1905180  94.9512880
  82.1564990  14.7325530  95.9899300  85.8849810  17.2764160 100.8863680
  85.4229180  17.4847180 101.6983620  85.4827920  16.4623510 100.5834350
  90.8854320  18.4973110 102.0160340  90.0347910  18.1978860 102.3369410
  90.7256110  18.7415120 101.1044160  87.9804030  19.9974860 104.1159130
  88.3057440  19.1638610 103.7761360  88.7684360  20.5203380 104.2637460
  84.7138820  14.0306340  90.1634190  84.0893000  14.0266210  90.8887500
  84.6268940  13.1637300  89.7670160  83.6355900  14.9542970  97.1417960
  83.9328230  15.8605800  97.0609980  84.1841460  14.4661750  96.5277530
  81.3894220  19.5329210  93.0109610  81.1635140  19.3166380  93.9156230
  80.6086750  19.9657670  92.6655580  87.2256850  18.1756120  93.6403540
  87.6186420  18.4928320  92.8272230  87.5873700  17.2968000  93.7548060
  85.5349020  16.9263430 104.9000400  84.8447340  16.7335630 105.5346490
  86.2781320  17.2098070 105.4324700  76.2621020  14.7656920  95.8633740
  75.9734070  15.3359780  96.5758720  77.0066780  14.2861370  96.2264970
  87.8111990  20.7661870  97.7354320  87.0793110  21.2748680  98.0844420
  87.4136330  19.9491850  97.4343100  84.2489380  17.4416070  96.1406810
  84.2525440  17.0006020  95.2911350  85.1440500  17.7633400  96.2478630
  80.0991760  17.3242560  95.1001020  79.7591810  17.8017790  95.8568070
  79.3369080  16.8707680  94.7402120  88.2737900  16.2195550  97.1477260
  88.2910640  16.6704200  97.9919110  88.0253480  15.3201190  97.3610700
  91.7008650  13.6327730 102.9863640  92.0254420  12.9017390 103.5121620
  91.7365160  13.3141370 102.0844630  78.4000210  24.6541310 102.4063600
  78.0155000  24.0134980 103.0046560  78.7112400  25.3577430 102.9758330
  77.4137840  16.2461540  94.0165690  77.1284760  15.8817210  94.8544310
  77.3516700  15.5142000  93.4028830  80.8678510  24.7487480  90.8023280
  80.0940770  24.2085100  90.6422000  81.5973140  24.2294090  90.4641040
  87.0876430  15.1390800  90.7379060  86.2741040  14.6403970  90.6624370
  86.8938380  15.9789050  90.3215410  80.9115910  24.4167860  94.4402090
  81.4294580  23.6136120  94.3858980  80.4599930  24.3547000  95.2818920
  85.7985410  25.6834140  89.7129390  86.1401110  26.4276370  89.2172710
  84.9698120  25.9965260  90.0754220  81.5973570  21.8413470 104.2367340
  81.2973710  21.9870650 103.3395160  82.3684810  21.2818760 104.1440730
  76.9068500  21.3820490  87.9762390  77.7763350  21.6645290  88.2598310
  76.4158820  22.1956360  87.8611200  84.0703310  22.7693700  92.0970670
  84.5266090  23.5798950  92.3230860  83.7191520  22.4516840  92.9289160
  79.9715090  13.1131350  92.5693190  79.8429720  13.1049250  93.5178110
  79.1477110  13.4514440  92.2184200  77.2739750  30.5947870  88.5424020
  77.6337390  31.1937210  87.8881290  77.1332090  31.1407760  89.3159050
  76.9709020  14.8722470 102.0299890  76.2567540  15.0719390 102.6352500
  77.3904060  14.0962040 102.4014690  77.2581610  28.8602730 103.0166420
  77.3672730  27.9197470 102.8761810  76.6062170  29.1257480 102.3680150
  85.2494200  27.1318620 104.4164540  84.9291070  26.4127860 104.9610230
  84.5752560  27.8073690 104.4900600  83.2908370  27.9779070  89.3597690
  83.2818470  28.7108760  88.7442200  82.3706730  27.7310650  89.4524650
  78.8915010  23.1993960  90.1044450  78.2842960  23.9392860  90.1139750
  79.3664360  23.2893320  89.2782650  88.4647800  17.3644780  99.7801340
  88.8328620  16.5439990 100.1080910  87.6046000  17.4246670 100.1956990
  91.8309830  16.3201720  90.5888900  91.2022990  16.4247390  89.8747130
  91.3361750  16.5398500  91.3782780  86.2767970  28.0407310  88.0222880
  86.3779950  27.8371300  87.0924860  85.3769710  27.7865590  88.2270660
  83.7993860  18.5987670  92.0046780  83.0910010  19.0674010  92.4460390
  84.0838340  17.9409680  92.6391970  87.8309290  15.3238330  93.4442570
  87.7077070  15.3424460  92.4952080  88.7793850  15.3717270  93.5640970
  84.9186080  30.5593630  92.7170550  85.1727580  30.5215020  91.7949920
  83.9698560  30.4326960  92.7098800  92.6316650  16.2352330 100.8467700
  92.1290250  16.9757730 101.1861510  93.4473310  16.6236330 100.5304490
  80.9020300  23.1605110  87.8533020  81.6683570  23.0486470  88.4158450
  80.9794990  22.4643080  87.2009790  80.3981770  30.7425570  95.6400450
  81.1344250  30.1941030  95.9109020  80.7822690  31.6081580  95.5006440
  77.2827250  26.8099140  91.5141960  76.3567030  27.0520280  91.5047370
  77.7483680  27.6373400  91.3926710  89.6705050  29.7631800 103.3870850
  90.6226800  29.6789820 103.3371090  89.5233270  30.4273510 104.0604640
  77.1237860  22.4145100 103.7722080  77.6276880  21.8352380 104.3438310
  76.3845280  22.6985330 104.3098450  84.0261480  25.1359290  87.3268370
  83.9212120  24.5211640  88.0529750  83.8585700  24.6125180  86.5431380
  82.9339330  23.1570240  89.8275660  83.3555750  22.9910110  90.6707050
  83.0590170  22.3470470  89.3330800  85.4466970  22.1807850  87.0752760
  85.9672630  21.4656870  86.7093910  86.0935370  22.8193720  87.3753270
  84.3500490  14.6602400  99.7471320  83.9017790  14.6826660  98.9016870
  83.7165690  14.2621420 100.3441620  88.6786140  17.4460070 103.2430440
  87.9901660  16.7841610 103.1780430  89.3992160  16.9998340 103.6878900
  89.3086540  14.0411700  89.3020700  89.5888830  13.1979600  89.6580120
  88.5352270  14.2734810  89.8159450  85.4629670  31.0960950 101.7428140
  85.3888370  31.9996090 102.0500510  84.5608510  30.7772850 101.7150210
  79.6511160  25.6346510  87.5941500  80.0886030  26.1776180  88.2499080
  80.1358890  24.8093460  87.6037840  76.8656960  28.4235540  95.0461760
  77.1959970  27.5556600  94.8140400  77.2947960  28.6294060  95.8766720
  81.4618880  26.7544550  92.7063730  81.1614420  26.6309520  93.6067640
  81.3556370  25.8953140  92.2979460  77.3547170  29.2906130  97.7843390
  76.9178160  29.4706930  98.6167540  77.9224850  30.0480750  97.6425110
  92.9909350  28.7923130 102.0720700  92.3911340  28.8515690 101.3284620
  93.1203250  27.8528110 102.2017550  77.1871600  21.8026360  94.1432270
  76.5320440  21.5338000  93.4991970  78.0249550  21.6930840  93.6934250
  90.1362040  16.5967650  88.3650760  90.5546920  16.4098630  87.5247420
  89.8298100  15.7446700  88.6753690  91.4639460  15.8819740 104.4745780
  92.3409640  15.8903140 104.8579780  91.4760300  15.1450580 103.8638130
  92.9102730  19.7349280  95.3633800  93.4340210  19.2411930  94.7323970
  93.4962150  19.8699640  96.1081370  78.2803240  13.3736350  96.9377250
  78.9279430  12.8233730  96.4972410  78.7005080  13.6279500  97.7593060
  93.8289860  17.6283580  93.8363890  93.7189140  17.4739620  94.7746160
  94.5897450  17.1004520  93.5939300  92.1755580  13.5677710 100.2946890
  92.8127800  14.1811850 100.6606080  92.3230470  13.6038370  99.3496120
  94.7180130  15.4591500  87.0770030  95.6429440  15.3272680  86.8688320
  94.6955920  15.5384320  88.0306480  94.7918620  16.2302160  89.7026740
  93.9970120  16.1647280  90.2319650  94.9961900  17.1652800  89.6912090
  78.0335240  13.5292020  99.6802570  77.6850060  13.9855840 100.4460750
  77.7022940  12.6349150  99.7625000  79.6399610  26.7011620 103.8455760
  79.5969240  26.3304530 104.7270220  79.7710620  27.6389190 103.9857580
  83.3405640  28.2571210  99.4465480  83.0997000  28.5245770  98.5596000
  84.2808280  28.4276940  99.5016340  85.5460060  14.7203900 103.2021990
  85.4848950  15.3125730 103.9517400  86.4860440  14.6129860 103.0572250
  88.1834620  14.3773960 102.8414280  88.7975030  14.6953250 102.1795360
  88.7284180  13.8922550 103.4610140  78.7055880  13.0568220 102.9553340
  79.2538870  12.8756270 102.1919450  78.7711190  12.2662330 103.4909650
  88.9242660  12.9406100  99.1683570  88.0502500  13.2741210  98.9656500
  88.8153410  12.4679280  99.9935440  89.8314640  15.1476970 100.5525290
  89.5028000  14.3328730 100.1727020  90.7796940  15.1046780 100.4290980
  92.2849250  30.9189010  97.5262860  91.8252220  31.6704820  97.1520880
  91.6561710  30.1995480  97.4677660  79.1099870  27.0132250  99.9161580
  78.3833930  26.3937540  99.8487530  79.1709020  27.4072860  99.0459660
  82.7144970  29.2277250  96.7010990  83.2309990  28.6164610  96.1759250
  83.3642350  29.7306030  97.1922000  86.6717480  13.8575940  98.1076480
  85.8889270  14.3321440  98.3873240  86.3780410  12.9530770  97.9989660
  91.2238550  14.5599040  96.1525570  91.6646640  14.5044140  95.3047170
  90.9546140  15.4757050  96.2235750  93.0877120  14.1914280  94.1634390
  93.0265520  13.2475500  94.0165410  93.8669150  14.2994370  94.7087850
  77.3929870  30.3306640  93.1258340  77.2251910  29.6977320  93.8240230
  76.5264380  30.5366040  92.7752530  84.5571700  16.2762690  93.6192510
  83.7446210  15.9019580  93.2788390  85.0613340  15.5207770  93.9213700
  89.0596680  12.9405140  94.8575580  89.6626050  13.5125350  95.3324100
  88.3189670  13.5044580  94.6349480  92.2031280  13.3426700  90.1315860
  92.3981910  14.2410150  90.3983290  91.4161150  13.1113780  90.6248810
  78.9992570  29.0239870  90.5708480  78.4740190  29.4047900  89.8670440
  78.9237150  29.6490640  91.2918190  82.5820880  14.4262610  92.2237560
  81.9523620  13.7249920  92.3907690  82.0426020  15.1866740  92.0070720
  85.5212830  31.0401840 104.8948170  86.4480140  30.8046110 104.9384130
  85.5063260  31.8673840 104.4134200  82.7076440  13.7046590 104.6590050
  82.4260710  14.2080190 103.8950870  83.0896140  12.9068340 104.2932180
  80.7600330  27.0886980  89.4504060  80.1309210  27.5572080  89.9989890
  80.8748160  26.2436200  89.8850250  89.3091900  13.1200170 105.2370520
  89.1957350  13.4394780 106.1322040  90.1261640  13.5212680 104.9407800
  92.0890390  30.2671700 104.7189210  92.8815710  29.7720930 104.5115170
  92.3823540  30.9461840 105.3264820  88.2150050  21.1392640  75.6005260
  88.1344100  20.2247250  75.3296970  87.8014470  21.6359710  74.8944970
  80.3633920  23.2291470  78.3590290  79.5318800  22.9740180  78.7586800
  80.9714900  23.3002240  79.0948210  90.3675520  27.3231850  76.2613660
  89.9057050  26.5519090  76.5900830  91.1801070  27.3497920  76.7666110
  80.3435180  27.2631560  78.5548310  80.6463220  26.3729300  78.3758530
  81.0878770  27.8201780  78.3270560  86.8182250  18.3999230  77.7153620
  87.1947070  17.5271110  77.6027290  86.7201760  18.7357930  76.8244060
  90.6006370  15.8949670  74.6481960  91.4215990  15.4046240  74.6907440
  90.6340450  16.4847330  75.4013800  94.8905920  17.9116420  81.2125590
  94.1858090  18.2998130  80.6940700  95.1563840  18.6066710  81.8146520
  90.8367850  17.8350050  77.4209500  90.1323420  18.1234940  78.0012610
  91.1980010  18.6450160  77.0609060  76.8285380  25.1785630  70.6489190
  76.4513360  25.6672730  69.9174090  77.0858450  25.8510910  71.2795720
  92.4530630  27.4525180  79.6836980  91.7694150  28.1224290  79.6753650
  92.9924920  27.6505830  78.9181840  93.9054770  17.2804840  77.8118710
  92.9579680  17.3143820  77.9434140  94.2304760  18.0943790  78.1968070
  84.4374310  13.5802020  76.1074700  84.7449290  13.0248910  75.3910200
  83.5075010  13.7146480  75.9247690  89.3874810  24.1999150  79.7264770
  89.8043600  23.9859260  78.8918230  90.1114630  24.4571940  80.2973390
  86.8255070  21.6450850  72.8434820  85.8984350  21.5788230  73.0723290
  86.9779890  22.5830980  72.7290060  86.8124150  17.9167850  69.8401980
  85.8727820  18.0781810  69.9254440  87.1307410  18.6353530  69.2937970
  93.3336910  22.5986370  79.8181010  92.5055540  22.6679460  79.3431140
  93.9287390  23.1840680  79.3496840  90.2978920  19.3855690  80.7635880
  89.8850100  20.2109400  81.0175870  89.5654870  18.8000730  80.5712240
  82.4311710  22.1715590  75.6254550  82.0268710  21.4592840  75.1300450
  82.5174830  21.8268830  76.5142590  90.9879020  29.4315020  81.4516860
  90.5109580  30.2387210  81.2589470  90.3040810  28.7793350  81.6043070
  80.8183060  22.4678160  83.0158930  80.6790830  23.3400960  83.3846330
  79.9364420  22.1250970  82.8706870  92.6134200  13.7000770  68.6683860
  92.3006860  13.7927600  69.5682930  93.3746670  14.2781800  68.6181290
  94.5678230  29.1926960  86.5208250  95.0437950  29.6709850  87.1997330
  95.1885390  29.1244450  85.7953750  93.9711480  26.3839810  83.6808260
  94.0974540  26.1451690  82.7625440  94.0132860  25.5524350  84.1530340
  87.8328220  30.0867810  82.2503070  88.3472890  29.9975820  83.0525500
  86.9897300  30.4327510  82.5430980  82.2871000  30.1521680  73.4558690
  82.1113480  29.2357220  73.2426490  81.4326740  30.5108970  73.6956490
  93.8235490  18.4372270  84.6458000  93.2079760  18.9451940  84.1173460
  93.5031910  17.5370600  84.5883940  76.8261230  25.2789880  81.4724300
  76.9892270  24.8095240  80.6543670  77.2913680  24.7713440  82.1373140
  90.8854320  18.4973110  83.2416850  90.0347910  18.1978860  83.5625920
  90.7256110  18.7415120  82.3300670  87.9804030  19.9974860  85.3415640
  88.3057440  19.1638610  85.0017870  88.7684360  20.5203380  85.4893970
  84.7138820  14.0306340  71.3890700  84.0893000  14.0266210  72.1144010
  84.6268940  13.1637300  70.9926670  81.3894220  19.5329210  74.2366120
  81.1635140  19.3166380  75.1412740  80.6086750  19.9657670  73.8912090
  88.6191980  19.5392580  72.8356770  88.0200870  20.2628380  72.6520390
  89.1671590  19.4769360  72.0533220  87.2256850  18.1756120  74.8660050
  87.6186420  18.4928320  74.0528740  87.5873700  17.2968000  74.9804570
  78.9603970  16.8428460  83.0560170  78.5667360  17.6903670  83.2632950
  78.2722370  16.2054830  83.2468810  87.8111990  20.7661870  78.9610830
  87.0793110  21.2748680  79.3100930  87.4136330  19.9491850  78.6599610
  84.3109530  18.4428150  70.3570080  84.4322350  18.4014630  71.3055900
  83.9258040  19.3052300  70.2016810  83.3231030  20.7529290  69.7553380
  82.7547930  20.3047540  69.1289290  84.0320030  21.1122070  69.2218530
  91.7008650  13.6327730  84.2120150  92.0254420  12.9017390  84.7378130
  91.7365160  13.3141370  83.3101140  78.4000210  24.6541310  83.6320110
  78.0155000  24.0134980  84.2303070  78.7112400  25.3577430  84.2014840
  82.3396720  20.5426490  81.4312940  82.0353790  21.4218470  81.6563300
  83.2943180  20.6026280  81.4670380  80.8678510  24.7487480  72.0279790
  80.0940770  24.2085100  71.8678510  81.5973140  24.2294090  71.6897550
  91.6266490  23.7452840  77.8206180  92.3465610  24.2408130  77.4302290
  91.4248310  23.0670730  77.1760050  87.0876430  15.1390800  71.9635570
  86.2741040  14.6403970  71.8880880  86.8938380  15.9789050  71.5471920
  89.8024820  19.5110450  70.2597730  90.6904440  19.8227680  70.0849070
  89.7729910  18.6382700  69.8678310  85.7985410  25.6834140  70.9385900
  86.1401110  26.4276370  70.4429220  84.9698120  25.9965260  71.3010730
  78.3960450  21.3829230  82.5784300  78.0375390  22.0483080  83.1657640
  78.1015010  20.5512780  82.9496920  81.5973570  21.8413470  85.4623850
  81.2973710  21.9870650  84.5651670  82.3684810  21.2818760  85.3697240
  92.0739090  20.8222290  69.7277590  91.9902810  21.2536510  68.8774030
  92.7933280  21.2820640  70.1604410  88.6812820  25.0049980  76.3031410
  89.0336640  24.4078110  75.6432780  87.7975150  24.6794210  76.4739660
  84.7676100  25.7647670  73.7101820  85.4547230  26.3116880  74.0909410
  83.9808520  26.3088400  73.7451430  84.0703310  22.7693700  73.3227180
  84.5266090  23.5798950  73.5487370  83.7191520  22.4516840  74.1545670
  79.9715090  13.1131350  73.7949700  79.8429720  13.1049250  74.7434620
  79.1477110  13.4514440  73.4440710  89.4205620  27.0827290  82.4732990
  89.7561860  27.6693980  83.1510910  88.5005960  26.9520000  82.7030780
  77.2739750  30.5947870  69.7680530  77.6337390  31.1937210  69.1137800
  77.1332090  31.1407760  70.5415560  83.2908370  27.9779070  70.5854200
  83.2818470  28.7108760  69.9698710  82.3706730  27.7310650  70.6781160
  78.8915010  23.1993960  71.3300960  78.2842960  23.9392860  71.3396260
  79.3664360  23.2893320  70.5039160  91.8309830  16.3201720  71.8145410
  91.2022990  16.4247390  71.1003640  91.3361750  16.5398500  72.6039290
  86.2767970  28.0407310  69.2479390  86.3779950  27.8371300  68.3181370
  85.3769710  27.7865590  69.4527170  83.7993860  18.5987670  73.2303290
  83.0910010  19.0674010  73.6716900  84.0838340  17.9409680  73.8648480
  85.4249790  20.0184370  81.2295820  85.9235040  20.4930190  81.8947670
  85.5672740  19.0947890  81.4365850  87.8309290  15.3238330  74.6699080
  87.7077070  15.3424460  73.7208590  88.7793850  15.3717270  74.7897480
  92.6316650  16.2352330  82.0724210  92.1290250  16.9757730  82.4118020
  93.4473310  16.6236330  81.7561000  90.9238660  21.4785510  75.5185570
  89.9828800  21.4935740  75.6933260  91.2382730  20.6921470  75.9645870
  80.9020300  23.1605110  69.0789530  81.6683570  23.0486470  69.6414960
  80.9794990  22.4643080  68.4266300  92.9264240  28.6494360  77.1939830
  93.0511660  29.4725530  77.6663640  93.7929800  28.4385090  76.8463980
  80.3981770  30.7425570  76.8656960  81.1344250  30.1941030  77.1365530
  80.7822690  31.6081580  76.7262950  77.2827250  26.8099140  72.7398470
  76.3567030  27.0520280  72.7303880  77.7483680  27.6373400  72.6183220
  89.6705050  29.7631800  84.6127360  90.6226800  29.6789820  84.5627600
  89.5233270  30.4273510  85.2861150  84.0261480  25.1359290  68.5524880
  83.9212120  24.5211640  69.2786260  83.8585700  24.6125180  67.7687890
  87.2664210  24.1979320  69.1566870  86.7174310  24.6448620  69.8009610
  87.8883470  23.6928570  69.6804540  79.1560940  20.5574690  85.8928660
  79.1966280  20.2588560  86.8013890  80.0106440  20.9582300  85.7336180
  82.9339330  23.1570240  71.0532170  83.3555750  22.9910110  71.8963560
  83.0590170  22.3470470  70.5587310  85.4466970  22.1807850  68.3009270
  85.9672630  21.4656870  67.9350420  86.0935370  22.8193720  68.6009780
  89.9944810  23.6036250  83.6244340  90.4085830  23.7581330  84.4734760
  89.0595810  23.7291470  83.7870120  87.0923940  21.2872910  82.9778110
  87.2120150  20.6914050  83.7172950  87.9517940  21.3242600  82.5579410
  89.4311840  21.8410100  81.5540620  88.9047060  22.3652720  80.9505760
  89.7743180  22.4737490  82.1850350  88.6786140  17.4460070  84.4686950
  87.9901660  16.7841610  84.4036940  89.3992160  16.9998340  84.9135410
  89.3086540  14.0411700  70.5277210  89.5888830  13.1979600  70.8836630
  88.5352270  14.2734810  71.0415960  85.4629670  31.0960950  82.9684650
  85.3888370  31.9996090  83.2757020  84.5608510  30.7772850  82.9406720
  83.8465960  15.2738710  68.9724410  83.4987960  14.5962700  68.3926860
  84.0478730  14.8128220  69.7867800  79.6511160  25.6346510  68.8198010
  80.0886030  26.1776180  69.4755590  80.1358890  24.8093460  68.8294350
  92.9909350  28.7923130  83.2977210  92.3911340  28.8515690  82.5541130
  93.1203250  27.8528110  83.4274060  77.1871600  21.8026360  75.3688780
  76.5320440  21.5338000  74.7248480  78.0249550  21.6930840  74.9190760
  91.6760990  25.5175110  81.3953370  90.8620830  25.9472270  81.6579160
  92.0835190  26.1293520  80.7822420  90.1362040  16.5967650  69.5907270
  90.5546920  16.4098630  68.7503930  89.8298100  15.7446700  69.9010200
  93.6351770  21.5091790  73.2883070  93.2595370  20.7419720  72.8564360
  92.9054890  21.8914490  73.7758000  78.2247530  22.1878930  79.9092120
  78.5920570  22.1006330  80.7888140  77.6558350  21.4245480  79.8098980
  93.0251390  20.6563310  82.9222590  92.7937480  20.4276060  82.0220540
  93.2855940  21.5762860  82.8767480  91.4639460  15.8819740  85.7002290
  92.3409640  15.8903140  86.0836290  91.4760300  15.1450580  85.0894640
  92.9102730  19.7349280  76.5890310  93.4340210  19.2411930  75.9580480
  93.4962150  19.8699640  77.3337880  93.0892450  19.8189150  80.1109860
  92.1395160  19.7852690  80.2254850  93.2705460  20.7289260  79.8759630
  92.4002700  18.9922630  72.5282720  92.8961820  18.7593500  73.3131600
  92.2018770  18.1534470  72.1120360  93.8289860  17.6283580  75.0620400
  93.7189140  17.4739620  76.0002670  94.5897450  17.1004520  74.8195810
  92.1755580  13.5677710  81.5203400  92.8127800  14.1811850  81.8862590
  92.3230470  13.6038370  80.5752630  94.7180130  15.4591500  68.3026540
  95.6429440  15.3272680  68.0944830  94.6955920  15.5384320  69.2562990
  94.7918620  16.2302160  70.9283250  93.9970120  16.1647280  71.4576160
  94.9961900  17.1652800  70.9168600  88.1834620  14.3773960  84.0670790
  88.7975030  14.6953250  83.4051870  88.7284180  13.8922550  84.6866650
  94.6009800  30.2765590  81.4732630  94.1068080  30.6734460  80.7559760
  93.9923090  29.6514800  81.8669910  78.7055880  13.0568220  84.1809850
  79.2538870  12.8756270  83.4175960  78.7711190  12.2662330  84.7166160
  79.4787640  29.6473870  82.1910050  78.8847960  29.5158570  82.9300090
  79.4711480  28.8112010  81.7252150  89.8314640  15.1476970  81.7781800
  89.5028000  14.3328730  81.3983530  90.7796940  15.1046780  81.6547490
  92.2849250  30.9189010  78.7519370  91.8252220  31.6704820  78.3777390
  91.6561710  30.1995480  78.6934170  79.1099870  27.0132250  81.1418090
  78.3833930  26.3937540  81.0744040  79.1709020  27.4072860  80.2716170
  82.7144970  29.2277250  77.9267500  83.2309990  28.6164610  77.4015760
  83.3642350  29.7306030  78.4178510  91.2238550  14.5599040  77.3782080
  91.6646640  14.5044140  76.5303680  90.9546140  15.4757050  77.4492260
  93.0877120  14.1914280  75.3890900  93.0265520  13.2475500  75.2421920
  93.8669150  14.2994370  75.9344360  77.3929870  30.3306640  74.3514850
  77.2251910  29.6977320  75.0496740  76.5264380  30.5366040  74.0009040
  78.0157890  14.1623420  71.8546710  78.7737250  14.2752300  71.2810740
  77.5535060  14.9992620  71.8090140  84.5571700  16.2762690  74.8449020
  83.7446210  15.9019580  74.5044900  85.0613340  15.5207770  75.1470210
  89.0596680  12.9405140  76.0832090  89.6626050  13.5125350  76.5580610
  88.3189670  13.5044580  75.8605990  92.2031280  13.3426700  71.3572370
  92.3981910  14.2410150  71.6239800  91.4161150  13.1113780  71.8505320
  78.9992570  29.0239870  71.7964990  78.4740190  29.4047900  71.0926950
  78.9237150  29.6490640  72.5174700  82.5820880  14.4262610  73.4494070
  81.9523620  13.7249920  73.6164200  82.0426020  15.1866740  73.2327230
  81.5985540  30.9722250  70.6714240  82.3304360  30.6881530  70.1238130
  81.8579210  30.7335530  71.5613620  80.7600330  27.0886980  70.6760570
  80.1309210  27.5572080  71.2246400  80.8748160  26.2436200  71.1106760
  89.3091900  13.1200170  86.4627030  89.1957350  13.4394780  87.3578550
  90.1261640  13.5212680  86.1664310  92.0890390  30.2671700  85.9445720
  92.8815710  29.7720930  85.7371680  92.3823540  30.9461840  86.5521330
  88.2150050  21.1392640  56.8261770  88.1344100  20.2247250  56.5553480
  87.8014470  21.6359710  56.1201480  86.3468090  22.9171660  58.7071040
  85.5710190  22.4372100  58.9969610  86.9981020  22.2377310  58.5327200
  86.5938830  29.6089860  57.1074160  85.9750270  30.0647360  56.5368600
  87.4490610  29.7641320  56.7063860  77.9783750  16.1983370  61.0397820
  77.7986590  15.3009120  61.3200580  77.5763830  16.7455240  61.7144770
  86.8182250  18.3999230  58.9410130  87.1947070  17.5271110  58.8283800
  86.7201760  18.7357930  58.0500570  80.9487260  16.7724860  54.4027570
  81.0554010  17.6728590  54.7096330  80.0379620  16.7242830  54.1122220
  90.6006370  15.8949670  55.8738470  91.4215990  15.4046240  55.9163950
  90.6340450  16.4847330  56.6270310  78.5970420  18.6943870  59.6480160
  79.2780530  18.9582240  60.2667560  78.2818470  17.8544740  59.9818170
  82.7894990  19.7411230  58.7352750  83.2973210  20.2392200  59.3757770
  83.3208230  18.9646430  58.5592110  81.0731090  14.3809790  63.0016170
  81.0749530  14.8982180  62.1962070  80.2435400  13.9039970  62.9786100
  87.4602180  24.4929100  54.5006070  86.8419450  24.9578550  53.9368790
  87.9725430  25.1856580  54.9175580  90.8367850  17.8350050  58.6466010
  90.1323420  18.1234940  59.2269120  91.1980010  18.6450160  58.2865570
  80.7546420  16.0919750  61.0086620  81.0963230  16.9361800  60.7140490
  79.8162230  16.2403490  61.1251960  76.8285380  25.1785630  51.8745700
  76.4513360  25.6672730  51.1430600  77.0858450  25.8510910  52.5052230
  93.9054770  17.2804840  59.0375220  92.9579680  17.3143820  59.1690650
  94.2304760  18.0943790  59.4224580  84.4374310  13.5802020  57.3331210
  84.7449290  13.0248910  56.6166710  83.5075010  13.7146480  57.1504200
  91.2834790  26.0185530  54.7128840  91.1731120  25.0759860  54.8378260
  91.2803040  26.3801170  55.5991600  89.3874810  24.1999150  60.9521280
  89.8043600  23.9859260  60.1174740  90.1114630  24.4571940  61.5229900
  86.8255070  21.6450850  54.0691330  85.8984350  21.5788230  54.2979800
  86.9779890  22.5830980  53.9546570  86.8124150  17.9167850  51.0658490
  85.8727820  18.0781810  51.1510950  87.1307410  18.6353530  50.5194480
  93.3336910  22.5986370  61.0437520  92.5055540  22.6679460  60.5687650
  93.9287390  23.1840680  60.5753350  90.8552360  23.2071150  54.5726580
  90.2364780  22.8690700  53.9252880  90.8376810  22.5630910  55.2805770
  82.4311710  22.1715590  56.8511060  82.0268710  21.4592840  56.3556960
  82.5174830  21.8268830  57.7399100  81.1440330  18.9458800  60.6310100
  81.6954920  19.0554140  59.8563350  81.6583840  19.3196400  61.3465330
  90.9879020  29.4315020  62.6773370  90.5109580  30.2387210  62.4845980
  90.3040810  28.7793350  62.8299580  87.1412440  27.3854030  55.5480570
  87.5808350  28.1278360  55.1335960  87.0799330  27.6280600  56.4719530
  92.6134200  13.7000770  49.8940370  92.3006860  13.7927600  50.7939440
  93.3746670  14.2781800  49.8437800  76.7701710  24.2375710  60.1586350
  76.8482130  24.3724480  59.2142070  77.3843390  23.5291600  60.3514470
  78.0149340  25.9375900  56.5692530  77.6077420  26.0790490  55.7146130
  78.9062350  25.6536060  56.3663740  89.8082620  30.3723150  52.9043580
  89.6483760  30.0826090  53.8025410  89.6429330  29.5963280  52.3688810
  82.2871000  30.1521680  54.6815200  82.1113480  29.2357220  54.4683000
  81.4326740  30.5108970  54.9213000  89.5108750  27.8810710  51.4641580
  88.8173910  27.8788000  50.8043860  90.2531610  27.4570030  51.0335750
  76.8261230  25.2789880  62.6980810  76.9892270  24.8095240  61.8800180
  77.2913680  24.7713440  63.3629650  81.5980000  14.4095640  57.7341380
  81.1548150  15.1905180  57.4025900  82.1564990  14.7325530  58.4412320
  85.8849810  17.2764160  63.3376700  85.4229180  17.4847180  64.1496640
  85.4827920  16.4623510  63.0347370  87.9804030  19.9974860  66.5672150
  88.3057440  19.1638610  66.2274380  88.7684360  20.5203380  66.7150480
  84.7138820  14.0306340  52.6147210  84.0893000  14.0266210  53.3400520
  84.6268940  13.1637300  52.2183180  83.6355900  14.9542970  59.5930980
  83.9328230  15.8605800  59.5123000  84.1841460  14.4661750  58.9790550
  81.3894220  19.5329210  55.4622630  81.1635140  19.3166380  56.3669250
  80.6086750  19.9657670  55.1168600  88.6191980  19.5392580  54.0613280
  88.0200870  20.2628380  53.8776900  89.1671590  19.4769360  53.2789730
  83.8293430  20.4314790  66.1282900  83.7337030  19.4909520  65.9783300
  84.6725410  20.6529860  65.7330970  87.2256850  18.1756120  56.0916560
  87.6186420  18.4928320  55.2785250  87.5873700  17.2968000  56.2061080
  85.5349020  16.9263430  67.3513420  84.8447340  16.7335630  67.9859510
  86.2781320  17.2098070  67.8837720  76.2621020  14.7656920  58.3146760
  75.9734070  15.3359780  59.0271740  77.0066780  14.2861370  58.6777990
  76.4491250  18.7077040  49.5249480  76.3665920  19.6507800  49.6664470
  76.0974310  18.5651950  48.6461830  87.8111990  20.7661870  60.1867340
  87.0793110  21.2748680  60.5357440  87.4136330  19.9491850  59.8856120
  84.2489380  17.4416070  58.5919830  84.2525440  17.0006020  57.7424370
  85.1440500  17.7633400  58.6991650  80.0991760  17.3242560  57.5514040
  79.7591810  17.8017790  58.3081090  79.3369080  16.8707680  57.1915140
  84.3109530  18.4428150  51.5826590  84.4322350  18.4014630  52.5312410
  83.9258040  19.3052300  51.4273320  88.2737900  16.2195550  59.5990280
  88.2910640  16.6704200  60.4432130  88.0253480  15.3201190  59.8123720
  91.7008650  13.6327730  65.4376660  92.0254420  12.9017390  65.9634640
  91.7365160  13.3141370  64.5357650  78.4000210  24.6541310  64.8576620
  78.0155000  24.0134980  65.4559580  78.7112400  25.3577430  65.4271350
  77.4137840  16.2461540  56.4678710  77.1284760  15.8817210  57.3057330
  77.3516700  15.5142000  55.8541850  80.8678510  24.7487480  53.2536300
  80.0940770  24.2085100  53.0935020  81.5973140  24.2294090  52.9154060
  91.6266490  23.7452840  59.0462690  92.3465610  24.2408130  58.6558800
  91.4248310  23.0670730  58.4016560  87.0876430  15.1390800  53.1892080
  86.2741040  14.6403970  53.1137390  86.8938380  15.9789050  52.7728430
  89.8024820  19.5110450  51.4854240  90.6904440  19.8227680  51.3105580
  89.7729910  18.6382700  51.0934820  80.9115910  24.4167860  56.8915110
  81.4294580  23.6136120  56.8372000  80.4599930  24.3547000  57.7331940
  78.3960450  21.3829230  63.8040810  78.0375390  22.0483080  64.3914150
  78.1015010  20.5512780  64.1753430  81.5973570  21.8413470  66.6880360
  81.2973710  21.9870650  65.7908180  82.3684810  21.2818760  66.5953750
  92.0739090  20.8222290  50.9534100  91.9902810  21.2536510  50.1030540
  92.7933280  21.2820640  51.3860920  93.1026340  27.6764550  53.6816230
  92.4602500  27.0220170  53.9559950  92.7157000  28.0819640  52.9056900
  88.6812820  25.0049980  57.5287920  89.0336640  24.4078110  56.8689290
  87.7975150  24.6794210  57.6996170  84.7676100  25.7647670  54.9358330
  85.4547230  26.3116880  55.3165920  83.9808520  26.3088400  54.9707940
  76.9068500  21.3820490  50.4275410  77.7763350  21.6645290  50.7111330
  76.4158820  22.1956360  50.3124220  84.0703310  22.7693700  54.5483690
  84.5266090  23.5798950  54.7743880  83.7191520  22.4516840  55.3802180
  79.9715090  13.1131350  55.0206210  79.8429720  13.1049250  55.9691130
  79.1477110  13.4514440  54.6697220  87.6468000  26.2832390  60.4953440
  88.2890230  25.5825550  60.6085610  88.1717350  27.0630830  60.3150330
  91.4923720  26.5681010  50.2192580  91.2661300  25.8511450  50.8117220
  91.1019920  26.3193450  49.3814330  77.2739750  30.5947870  50.9937040
  77.6337390  31.1937210  50.3394310  77.1332090  31.1407760  51.7672070
  76.9709020  14.8722470  64.4812910  76.2567540  15.0719390  65.0865520
  77.3904060  14.0962040  64.8527710  91.0739970  24.4852950  51.8806740
  90.7861670  24.9465640  52.6684620  91.8692140  24.0250720  52.1490960
  77.2581610  28.8602730  65.4679440  77.3672730  27.9197470  65.3274830
  76.6062170  29.1257480  64.8193170  83.2908370  27.9779070  51.8110710
  83.2818470  28.7108760  51.1955220  82.3706730  27.7310650  51.9037670
  78.8915010  23.1993960  52.5557470  78.2842960  23.9392860  52.5652770
  79.3664360  23.2893320  51.7295670  91.8309830  16.3201720  53.0401920
  91.2022990  16.4247390  52.3260150  91.3361750  16.5398500  53.8295800
  83.7993860  18.5987670  54.4559800  83.0910010  19.0674010  54.8973410
  84.0838340  17.9409680  55.0904990  85.4249790  20.0184370  62.4552330
  85.9235040  20.4930190  63.1204180  85.5672740  19.0947890  62.6622360
  87.8309290  15.3238330  55.8955590  87.7077070  15.3424460  54.9465100
  88.7793850  15.3717270  56.0153990  84.9186080  30.5593630  55.1683570
  85.1727580  30.5215020  54.2462940  83.9698560  30.4326960  55.1611820
  82.0028880  16.9072750  51.8310510  82.8519410  17.3442900  51.7650700
  81.6360150  17.2193010  52.6582570  90.9238660  21.4785510  56.7442080
  89.9828800  21.4935740  56.9189770  91.2382730  20.6921470  57.1902380
  79.5967060  20.5930180  50.9878930  79.6770650  19.6457690  51.0996330
  80.4886810  20.9237060  51.0939590  80.3981770  30.7425570  58.0913470
  81.1344250  30.1941030  58.3622040  80.7822690  31.6081580  57.9519460
  77.2827250  26.8099140  53.9654980  76.3567030  27.0520280  53.9560390
  77.7483680  27.6373400  53.8439730  79.4040050  29.9271640  67.2799050
  80.2052780  30.2483690  67.6934450  78.8891870  29.5667220  68.0018960
  83.5084080  29.9155880  49.9139040  84.3012690  30.2044710  49.4620830
  82.9888430  29.4848050  49.2351520  88.2404680  26.0351510  67.2274460
  87.6342840  26.0583110  66.4870210  87.9358790  25.3034550  67.7641710
  89.6705050  29.7631800  65.8383870  90.6226800  29.6789820  65.7884110
  89.5233270  30.4273510  66.5117660  92.5614250  29.1426010  51.3375780
  92.2755760  28.7291150  50.5229960  92.3633800  30.0713720  51.2176300
  77.1237860  22.4145100  66.2235100  77.6276880  21.8352380  66.7951330
  76.3845280  22.6985330  66.7611470  84.3500490  14.6602400  62.1984340
  83.9017790  14.6826660  61.3529890  83.7165690  14.2621420  62.7954640
  81.8298230  19.2303470  49.2246840  81.6287290  18.3670830  49.5860180
  81.6590280  19.1436830  48.2868440  83.8592710  17.8294260  65.4610440
  84.4492400  17.5210110  66.1488260  83.0412950  17.3574010  65.6170340
  89.3086540  14.0411700  51.7533720  89.5888830  13.1979600  52.1093140
  88.5352270  14.2734810  52.2672470  80.6281030  16.3304090  49.2124720
  80.9306930  16.3371520  48.3043870  81.3675620  15.9801950  49.7092380
  83.8465960  15.2738710  50.1980920  83.4987960  14.5962700  49.6183370
  84.0478730  14.8128220  51.0124310  86.0115000  30.2619460  51.8167520
  86.9065790  30.6004430  51.8386280  86.0432630  29.5398870  51.1891800
  79.6511160  25.6346510  50.0454520  80.0886030  26.1776180  50.7012100
  80.1358890  24.8093460  50.0550860  76.8656960  28.4235540  57.4974780
  77.1959970  27.5556600  57.2653420  77.2947960  28.6294060  58.3279740
  81.4618880  26.7544550  55.1576750  81.1614420  26.6309520  56.0580660
  81.3556370  25.8953140  54.7492480  77.3547170  29.2906130  60.2356410
  76.9178160  29.4706930  61.0680560  77.9224850  30.0480750  60.0938130
  94.2310800  26.5340950  49.8603430  93.4003760  26.6017600  50.3310660
  94.4082630  27.4245070  49.5570290  93.6867260  23.2788430  52.3637630
  94.4486170  23.8485080  52.4697320  93.7021630  22.7115630  53.1345940
  94.6927230  24.1338530  57.2079560  95.0636060  23.3505850  56.8015530
  95.3329160  24.8227630  57.0296860  93.7386430  23.5722800  49.5210150
  94.0135270  24.4801680  49.3929370  93.5497170  23.5085330  50.4572140
  90.1362040  16.5967650  50.8163780  90.5546920  16.4098630  49.9760440
  89.8298100  15.7446700  51.1266710  93.6351770  21.5091790  54.5139580
  93.2595370  20.7419720  54.0820870  92.9054890  21.8914490  55.0014510
  78.2247530  22.1878930  61.1348630  78.5920570  22.1006330  62.0144650
  77.6558350  21.4245480  61.0355490  91.4639460  15.8819740  66.9258800
  92.3409640  15.8903140  67.3092800  91.4760300  15.1450580  66.3151150
  76.4009680  19.0125290  52.5370620  75.4973760  19.2755490  52.3622280
  76.8850300  19.2836460  51.7570580  92.9102730  19.7349280  57.8146820
  93.4340210  19.2411930  57.1836990  93.4962150  19.8699640  58.5594390
  78.9436890  18.0690830  50.4465000  79.6528590  17.6474050  49.9612280
  78.2276830  18.1366060  49.8148350  78.5911050  14.1230160  49.4867650
  79.3139180  14.6639100  49.8048870  78.8635570  13.8493580  48.6109190
  92.4002700  18.9922630  53.7539230  92.8961820  18.7593500  54.5388110
  92.2018770  18.1534470  53.3376870  78.2803240  13.3736350  59.3890270
  78.9279430  12.8233730  58.9485430  78.7005080  13.6279500  60.2106080
  93.8289860  17.6283580  56.2876910  93.7189140  17.4739620  57.2259180
  94.5897450  17.1004520  56.0452320  92.1755580  13.5677710  62.7459910
  92.8127800  14.1811850  63.1119100  92.3230470  13.6038370  61.8009140
  94.7180130  15.4591500  49.5283050  95.6429440  15.3272680  49.3201340
  94.6955920  15.5384320  50.4819500  94.7918620  16.2302160  52.1539760
  93.9970120  16.1647280  52.6832670  94.9961900  17.1652800  52.1425110
  78.0335240  13.5292020  62.1315590  77.6850060  13.9855840  62.8973770
  77.7022940  12.6349150  62.2138020  79.6399610  26.7011620  66.2968780
  79.5969240  26.3304530  67.1783240  79.7710620  27.6389190  66.4370600
  85.5460060  14.7203900  65.6535010  85.4848950  15.3125730  66.4030420
  86.4860440  14.6129860  65.5085270  88.1834620  14.3773960  65.2927300
  88.7975030  14.6953250  64.6308380  88.7284180  13.8922550  65.9123160
  94.6009800  30.2765590  62.6989140  94.1068080  30.6734460  61.9816270
  93.9923090  29.6514800  63.0926420  78.7055880  13.0568220  65.4066360
  79.2538870  12.8756270  64.6432470  78.7711190  12.2662330  65.9422670
  79.4787640  29.6473870  63.4166560  78.8847960  29.5158570  64.1556600
  79.4711480  28.8112010  62.9508660  88.9242660  12.9406100  61.6196590
  88.0502500  13.2741210  61.4169520  88.8153410  12.4679280  62.4448460
  79.1099870  27.0132250  62.3674600  78.3833930  26.3937540  62.3000550
  79.1709020  27.4072860  61.4972680  82.7144970  29.2277250  59.1524010
  83.2309990  28.6164610  58.6272270  83.3642350  29.7306030  59.6435020
  85.4540470  30.1185740  59.9792990  85.7418280  29.8640040  59.1026000
  85.9663690  29.5663100  60.5698560  86.6717480  13.8575940  60.5589500
  85.8889270  14.3321440  60.8386260  86.3780410  12.9530770  60.4502680
  91.2238550  14.5599040  58.6038590  91.6646640  14.5044140  57.7560190
  90.9546140  15.4757050  58.6748770  93.0877120  14.1914280  56.6147410
  93.0265520  13.2475500  56.4678430  93.8669150  14.2994370  57.1600870
  77.3929870  30.3306640  55.5771360  77.2251910  29.6977320  56.2753250
  76.5264380  30.5366040  55.2265550  78.0157890  14.1623420  53.0803220
  78.7737250  14.2752300  52.5067250  77.5535060  14.9992620  53.0346650
  84.5571700  16.2762690  56.0705530  83.7446210  15.9019580  55.7301410
  85.0613340  15.5207770  56.3726720  89.0596680  12.9405140  57.3088600
  89.6626050  13.5125350  57.7837120  88.3189670  13.5044580  57.0862500
  92.2031280  13.3426700  52.5828880  92.3981910  14.2410150  52.8496310
  91.4161150  13.1113780  53.0761830  78.9992570  29.0239870  53.0221500
  78.4740190  29.4047900  52.3183460  78.9237150  29.6490640  53.7431210
  80.3883040  14.6887470  51.6205190  80.9175800  13.9017270  51.4913140
  81.0211360  15.3678660  51.8540720  82.5820880  14.4262610  54.6750580
  81.9523620  13.7249920  54.8420710  82.0426020  15.1866740  54.4583740
  82.7076440  13.7046590  67.1103070  82.4260710  14.2080190  66.3463890
  83.0896140  12.9068340  66.7445200  81.5985540  30.9722250  51.8970750
  82.3304360  30.6881530  51.3494640  81.8579210  30.7335530  52.7870130
  80.7600330  27.0886980  51.9017080  80.1309210  27.5572080  52.4502910
  80.8748160  26.2436200  52.3363270  89.3091900  13.1200170  67.6883540
  89.1957350  13.4394780  68.5835060  90.1261640  13.5212680  67.3920820
  92.0890390  30.2671700  67.1702230  92.8815710  29.7720930  66.9628190
  92.3823540  30.9461840  67.7777840  88.2150050  21.1392640  38.0518280
  88.1344100  20.2247250  37.7809990  87.8014470  21.6359710  37.3457990
  86.3468090  22.9171660  39.9327550  85.5710190  22.4372100  40.2226120
  86.9981020  22.2377310  39.7583710  80.3633920  23.2291470  40.8103310
  79.5318800  22.9740180  41.2099820  80.9714900  23.3002240  41.5461230
  90.3675520  27.3231850  38.7126680  89.9057050  26.5519090  39.0413850
  91.1801070  27.3497920  39.2179130  80.3435180  27.2631560  41.0061330
  80.6463220  26.3729300  40.8271550  81.0878770  27.8201780  40.7783580
  78.7725870  18.1893360  34.5945700  77.8842570  18.5309330  34.4925580
  79.0567060  17.9893680  33.7026530  76.7358880  20.7899010  40.4785400
  77.3074990  20.0221210  40.4789040  76.7360420  21.0887770  39.5692010
  85.7877080  25.5928850  39.9397710  85.7185360  24.6518790  39.7786840
  86.5496940  25.6830260  40.5120280  77.9783750  16.1983370  42.2654330
  77.7986590  15.3009120  42.5457090  77.5763830  16.7455240  42.9401280
  86.8182250  18.3999230  40.1666640  87.1947070  17.5271110  40.0540310
  86.7201760  18.7357930  39.2757080  80.9487260  16.7724860  35.6284080
  81.0554010  17.6728590  35.9352840  80.0379620  16.7242830  35.3378730
  90.6006370  15.8949670  37.0994980  91.4215990  15.4046240  37.1420460
  90.6340450  16.4847330  37.8526820  78.5970420  18.6943870  40.8736670
  79.2780530  18.9582240  41.4924070  78.2818470  17.8544740  41.2074680
  82.7894990  19.7411230  39.9609260  83.2973210  20.2392200  40.6014280
  83.3208230  18.9646430  39.7848620  94.8905920  17.9116420  43.6638610
  94.1858090  18.2998130  43.1453720  95.1563840  18.6066710  44.2659540
  81.0731090  14.3809790  44.2272680  81.0749530  14.8982180  43.4218580
  80.2435400  13.9039970  44.2042610  87.4602180  24.4929100  35.7262580
  86.8419450  24.9578550  35.1625300  87.9725430  25.1856580  36.1432090
  82.3233940  24.0204970  42.4046180  81.9903320  24.6473890  43.0467250
  82.5000620  24.5466850  41.6247850  90.8367850  17.8350050  39.8722520
  90.1323420  18.1234940  40.4525630  91.1980010  18.6450160  39.5122080
  80.7546420  16.0919750  42.2343130  81.0963230  16.9361800  41.9397000
  79.8162230  16.2403490  42.3508470  81.5353040  25.9885770  44.2195360
  82.1527040  26.6636850  43.9379810  80.6746160  26.3973750  44.1282860
  76.8285380  25.1785630  33.1002210  76.4513360  25.6672730  32.3687110
  77.0858450  25.8510910  33.7308740  92.4530630  27.4525180  42.1350000
  91.7694150  28.1224290  42.1266670  92.9924920  27.6505830  41.3694860
  93.9054770  17.2804840  40.2631730  92.9579680  17.3143820  40.3947160
  94.2304760  18.0943790  40.6481090  84.4374310  13.5802020  38.5587720
  84.7449290  13.0248910  37.8423220  83.5075010  13.7146480  38.3760710
  89.9889370  29.2969310  40.8495180  90.0016530  28.8931600  39.9817440
  89.4364590  30.0716600  40.7456610  91.2834790  26.0185530  35.9385350
  91.1731120  25.0759860  36.0634770  91.2803040  26.3801170  36.8248110
  89.3874810  24.1999150  42.1777790  89.8043600  23.9859260  41.3431250
  90.1114630  24.4571940  42.7486410  86.8255070  21.6450850  35.2947840
  85.8984350  21.5788230  35.5236310  86.9779890  22.5830980  35.1803080
  86.8124150  17.9167850  32.2915000  85.8727820  18.0781810  32.3767460
  87.1307410  18.6353530  31.7450990  93.3336910  22.5986370  42.2694030
  92.5055540  22.6679460  41.7944160  93.9287390  23.1840680  41.8009860
  90.8552360  23.2071150  35.7983090  90.2364780  22.8690700  35.1509390
  90.8376810  22.5630910  36.5062280  90.2978920  19.3855690  43.2148900
  89.8850100  20.2109400  43.4688890  89.5654870  18.8000730  43.0225260
  82.4311710  22.1715590  38.0767570  82.0268710  21.4592840  37.5813470
  82.5174830  21.8268830  38.9655610  82.8993410  25.8583150  40.2406780
  82.6021700  25.2528620  39.5614560  83.8493230  25.8960460  40.1296140
  81.1440330  18.9458800  41.8566610  81.6954920  19.0554140  41.0819860
  81.6583840  19.3196400  42.5721840  90.9879020  29.4315020  43.9029880
  90.5109580  30.2387210  43.7102490  90.3040810  28.7793350  44.0556090
  81.9911840  25.5964840  46.8914580  81.0940370  25.8204810  47.1387980
  82.0164710  25.7199780  45.9425980  89.0317060  22.4457960  32.8055840
  89.4710340  21.6080390  32.6593660  89.7445480  23.0787360  32.8919980
  80.8183060  22.4678160  45.4671950  80.6790830  23.3400960  45.8359350
  79.9364420  22.1250970  45.3219890  92.6134200  13.7000770  31.1196880
  92.3006860  13.7927600  32.0195950  93.3746670  14.2781800  31.0694310
  79.1316340  21.0660570  35.5774220  79.0113940  21.7922660  34.9655490
  78.8217230  20.2963480  35.1002130  78.0149340  25.9375900  37.7949040
  77.6077420  26.0790490  36.9402640  78.9062350  25.6536060  37.5920250
  93.9711480  26.3839810  46.1321280  94.0974540  26.1451690  45.2138460
  94.0132860  25.5524350  46.6043360  87.8328220  30.0867810  44.7016090
  88.3472890  29.9975820  45.5038520  86.9897300  30.4327510  44.9944000
  89.5108750  27.8810710  32.6898090  88.8173910  27.8788000  32.0300370
  90.2531610  27.4570030  32.2592260  93.8235490  18.4372270  47.0971020
  93.2079760  18.9451940  46.5686480  93.5031910  17.5370600  47.0396960
  81.5980000  14.4095640  38.9597890  81.1548150  15.1905180  38.6282410
  82.1564990  14.7325530  39.6668830  85.8849810  17.2764160  44.5633210
  85.4229180  17.4847180  45.3753150  85.4827920  16.4623510  44.2603880
  90.8854320  18.4973110  45.6929870  90.0347910  18.1978860  46.0138940
  90.7256110  18.7415120  44.7813690  87.9804030  19.9974860  47.7928660
  88.3057440  19.1638610  47.4530890  88.7684360  20.5203380  47.9406990
  84.7138820  14.0306340  33.8403720  84.0893000  14.0266210  34.5657030
  84.6268940  13.1637300  33.4439690  83.6355900  14.9542970  40.8187490
  83.9328230  15.8605800  40.7379510  84.1841460  14.4661750  40.2047060
  81.3894220  19.5329210  36.6879140  81.1635140  19.3166380  37.5925760
  80.6086750  19.9657670  36.3425110  88.6191980  19.5392580  35.2869790
  88.0200870  20.2628380  35.1033410  89.1671590  19.4769360  34.5046240
  87.2256850  18.1756120  37.3173070  87.6186420  18.4928320  36.5041760
  87.5873700  17.2968000  37.4317590  78.9603970  16.8428460  45.5073190
  78.5667360  17.6903670  45.7145970  78.2722370  16.2054830  45.6981830
  85.5349020  16.9263430  48.5769930  84.8447340  16.7335630  49.2116020
  86.2781320  17.2098070  49.1094230  76.2621020  14.7656920  39.5403270
  75.9734070  15.3359780  40.2528250  77.0066780  14.2861370  39.9034500
  76.4491250  18.7077040  30.7505990  76.3665920  19.6507800  30.8920980
  76.0974310  18.5651950  29.8718340  87.8111990  20.7661870  41.4123850
  87.0793110  21.2748680  41.7613950  87.4136330  19.9491850  41.1112630
  84.2489380  17.4416070  39.8176340  84.2525440  17.0006020  38.9680880
  85.1440500  17.7633400  39.9248160  80.0991760  17.3242560  38.7770550
  79.7591810  17.8017790  39.5337600  79.3369080  16.8707680  38.4171650
  84.3109530  18.4428150  32.8083100  84.4322350  18.4014630  33.7568920
  83.9258040  19.3052300  32.6529830  88.2737900  16.2195550  40.8246790
  88.2910640  16.6704200  41.6688640  88.0253480  15.3201190  41.0380230
  83.3231030  20.7529290  32.2066400  82.7547930  20.3047540  31.5802310
  84.0320030  21.1122070  31.6731550  91.7008650  13.6327730  46.6633170
  92.0254420  12.9017390  47.1891150  91.7365160  13.3141370  45.7614160
  84.5497350  21.5017850  41.5641750  84.9167480  21.0276420  42.3103090
  84.3602410  22.3759420  41.9050090  77.4137840  16.2461540  37.6935220
  77.1284760  15.8817210  38.5313840  77.3516700  15.5142000  37.0798360
  82.3396720  20.5426490  43.8825960  82.0353790  21.4218470  44.1076320
  83.2943180  20.6026280  43.9183400  80.8678510  24.7487480  34.4792810
  80.0940770  24.2085100  34.3191530  81.5973140  24.2294090  34.1410570
  91.6266490  23.7452840  40.2719200  92.3465610  24.2408130  39.8815310
  91.4248310  23.0670730  39.6273070  87.0876430  15.1390800  34.4148590
  86.2741040  14.6403970  34.3393900  86.8938380  15.9789050  33.9984940
  89.8024820  19.5110450  32.7110750  90.6904440  19.8227680  32.5362090
  89.7729910  18.6382700  32.3191330  80.9115910  24.4167860  38.1171620
  81.4294580  23.6136120  38.0628510  80.4599930  24.3547000  38.9588450
  85.7985410  25.6834140  33.3898920  86.1401110  26.4276370  32.8942240
  84.9698120  25.9965260  33.7523750  78.3960450  21.3829230  45.0297320
  78.0375390  22.0483080  45.6170660  78.1015010  20.5512780  45.4009940
  86.9402020  26.6382470  45.9092000  86.9546560  25.7063430  45.6910910
  86.2327120  26.7242230  46.5481770  92.0739090  20.8222290  32.1790610
  91.9902810  21.2536510  31.3287050  92.7933280  21.2820640  32.6117430
  93.1513230  23.2789810  45.2560580  92.4261420  23.8718590  45.0589970
  93.6788690  23.2713350  44.4573950  93.1026340  27.6764550  34.9072740
  92.4602500  27.0220170  35.1816460  92.7157000  28.0819640  34.1313410
  88.6812820  25.0049980  38.7544430  89.0336640  24.4078110  38.0945800
  87.7975150  24.6794210  38.9252680  76.9068500  21.3820490  31.6531920
  77.7763350  21.6645290  31.9367840  76.4158820  22.1956360  31.5380730
  84.0703310  22.7693700  35.7740200  84.5266090  23.5798950  36.0000390
  83.7191520  22.4516840  36.6058690  86.3735920  28.2800040  43.0032500
  87.0178140  28.4859420  43.6805920  86.7365360  27.5188440  42.5503350
  79.9715090  13.1131350  36.2462720  79.8429720  13.1049250  37.1947640
  79.1477110  13.4514440  35.8953730  87.6468000  26.2832390  41.7209950
  88.2890230  25.5825550  41.8342120  88.1717350  27.0630830  41.5406840
  91.4923720  26.5681010  31.4449090  91.2661300  25.8511450  32.0373730
  91.1019920  26.3193450  30.6070840  89.4205620  27.0827290  44.9246010
  89.7561860  27.6693980  45.6023930  88.5005960  26.9520000  45.1543800
  77.2739750  30.5947870  32.2193550  77.6337390  31.1937210  31.5650820
  77.1332090  31.1407760  32.9928580  76.9709020  14.8722470  45.7069420
  76.2567540  15.0719390  46.3122030  77.3904060  14.0962040  46.0784220
  91.0739970  24.4852950  33.1063250  90.7861670  24.9465640  33.8941130
  91.8692140  24.0250720  33.3747470  83.2908370  27.9779070  33.0367220
  83.2818470  28.7108760  32.4211730  82.3706730  27.7310650  33.1294180
  78.8915010  23.1993960  33.7813980  78.2842960  23.9392860  33.7909280
  79.3664360  23.2893320  32.9552180  88.4647800  17.3644780  43.4570870
  88.8328620  16.5439990  43.7850440  87.6046000  17.4246670  43.8726520
  91.8309830  16.3201720  34.2658430  91.2022990  16.4247390  33.5516660
  91.3361750  16.5398500  35.0552310  86.2767970  28.0407310  31.6992410
  86.3779950  27.8371300  30.7694390  85.3769710  27.7865590  31.9040190
  83.7993860  18.5987670  35.6816310  83.0910010  19.0674010  36.1229920
  84.0838340  17.9409680  36.3161500  85.4249790  20.0184370  43.6808840
  85.9235040  20.4930190  44.3460690  85.5672740  19.0947890  43.8878870
  87.8309290  15.3238330  37.1212100  87.7077070  15.3424460  36.1721610
  88.7793850  15.3717270  37.2410500  82.0028880  16.9072750  33.0567020
  82.8519410  17.3442900  32.9907210  81.6360150  17.2193010  33.8839080
  92.6316650  16.2352330  44.5237230  92.1290250  16.9757730  44.8631040
  93.4473310  16.6236330  44.2074020  90.9238660  21.4785510  37.9698590
  89.9828800  21.4935740  38.1446280  91.2382730  20.6921470  38.4158890
  80.9020300  23.1605110  31.5302550  81.6683570  23.0486470  32.0927980
  80.9794990  22.4643080  30.8779320  79.5967060  20.5930180  32.2135440
  79.6770650  19.6457690  32.3252840  80.4886810  20.9237060  32.3196100
  92.9264240  28.6494360  39.6452850  93.0511660  29.4725530  40.1176660
  93.7929800  28.4385090  39.2977000  80.3981770  30.7425570  39.3169980
  81.1344250  30.1941030  39.5878550  80.7822690  31.6081580  39.1775970
  77.2827250  26.8099140  35.1911490  76.3567030  27.0520280  35.1816900
  77.7483680  27.6373400  35.0696240  79.4040050  29.9271640  48.5055560
  80.2052780  30.2483690  48.9190960  78.8891870  29.5667220  49.2275470
  83.5084080  29.9155880  31.1395550  84.3012690  30.2044710  30.6877340
  82.9888430  29.4848050  30.4608030  89.6705050  29.7631800  47.0640380
  90.6226800  29.6789820  47.0140620  89.5233270  30.4273510  47.7374170
  92.5614250  29.1426010  32.5632290  92.2755760  28.7291150  31.7486470
  92.3633800  30.0713720  32.4432810  77.1237860  22.4145100  47.4491610
  77.6276880  21.8352380  48.0207840  76.3845280  22.6985330  47.9867980
  84.0261480  25.1359290  31.0037900  83.9212120  24.5211640  31.7299280
  83.8585700  24.6125180  30.2200910  87.2664210  24.1979320  31.6079890
  86.7174310  24.6448620  32.2522630  87.8883470  23.6928570  32.1317560
  91.3199150  25.5521420  47.5402150  92.0608620  25.8897180  47.0369610
  90.5571830  25.7213480  46.9871920  79.1560940  20.5574690  48.3441680
  79.1966280  20.2588560  49.2526910  80.0106440  20.9582300  48.1849200
  82.9339330  23.1570240  33.5045190  83.3555750  22.9910110  34.3476580
  83.0590170  22.3470470  33.0100330  81.0966750  19.1366790  46.3116170
  80.5663210  18.6457740  45.6839510  81.7654820  19.5650990  45.7774100
  85.4466970  22.1807850  30.7522290  85.9672630  21.4656870  30.3863440
  86.0935370  22.8193720  31.0522800  89.9944810  23.6036250  46.0757360
  90.4085830  23.7581330  46.9247780  89.0595810  23.7291470  46.2383140
  90.4666980  20.9432410  48.0796510  91.0487750  20.1884730  47.9916990
  90.6428750  21.4739850  47.3027990  81.5839050  16.1029160  46.3913460
  81.4895920  15.4849910  45.6664330  81.0036440  16.8295450  46.1643370
  84.3500490  14.6602400  43.4240850  83.9017790  14.6826660  42.5786400
  83.7165690  14.2621420  44.0211150  84.7560040  23.5556730  44.0453290
  85.1748150  24.3989460  43.8729530  83.8368670  23.6928770  43.8160070
  87.0923940  21.2872910  45.4291130  87.2120150  20.6914050  46.1685970
  87.9517940  21.3242600  45.0092430  89.4311840  21.8410100  44.0053640
  88.9047060  22.3652720  43.4018780  89.7743180  22.4737490  44.6363370
  81.8298230  19.2303470  30.4503350  81.6287290  18.3670830  30.8116690
  81.6590280  19.1436830  29.5124950  83.8592710  17.8294260  46.6866950
  84.4492400  17.5210110  47.3744770  83.0412950  17.3574010  46.8426850
  88.6786140  17.4460070  46.9199970  87.9901660  16.7841610  46.8549960
  89.3992160  16.9998340  47.3648430  89.3086540  14.0411700  32.9790230
  89.5888830  13.1979600  33.3349650  88.5352270  14.2734810  33.4928980
  80.6281030  16.3304090  30.4381230  80.9306930  16.3371520  29.5300380
  81.3675620  15.9801950  30.9348890  85.4629670  31.0960950  45.4197670
  85.3888370  31.9996090  45.7270040  84.5608510  30.7772850  45.3919740
  83.8465960  15.2738710  31.4237430  83.4987960  14.5962700  30.8439880
  84.0478730  14.8128220  32.2380820  79.6511160  25.6346510  31.2711030
  80.0886030  26.1776180  31.9268610  80.1358890  24.8093460  31.2807370
  76.8656960  28.4235540  38.7231290  77.1959970  27.5556600  38.4909930
  77.2947960  28.6294060  39.5536250  81.4618880  26.7544550  36.3833260
  81.1614420  26.6309520  37.2837170  81.3556370  25.8953140  35.9748990
  94.2310800  26.5340950  31.0859940  93.4003760  26.6017600  31.5567170
  94.4082630  27.4245070  30.7826800  93.6867260  23.2788430  33.5894140
  94.4486170  23.8485080  33.6953830  93.7021630  22.7115630  34.3602450
  77.1871600  21.8026360  37.8201800  76.5320440  21.5338000  37.1761500
  78.0249550  21.6930840  37.3703780  94.6927230  24.1338530  38.4336070
  95.0636060  23.3505850  38.0272040  95.3329160  24.8227630  38.2553370
  91.6760990  25.5175110  43.8466390  90.8620830  25.9472270  44.1092180
  92.0835190  26.1293520  43.2335440  93.7386430  23.5722800  30.7466660
  94.0135270  24.4801680  30.6185880  93.5497170  23.5085330  31.6828650
  90.1362040  16.5967650  32.0420290  90.5546920  16.4098630  31.2016950
  89.8298100  15.7446700  32.3523220  93.6351770  21.5091790  35.7396090
  93.2595370  20.7419720  35.3077380  92.9054890  21.8914490  36.2271020
  78.2247530  22.1878930  42.3605140  78.5920570  22.1006330  43.2401160
  77.6558350  21.4245480  42.2612000  93.0251390  20.6563310  45.3735610
  92.7937480  20.4276060  44.4733560  93.2855940  21.5762860  45.3280500
  77.7763530  19.0988020  46.2663560  76.8819580  19.0654780  46.6057270
  78.3161080  19.2974810  47.0314810  91.4639460  15.8819740  48.1515310
  92.3409640  15.8903140  48.5349310  91.4760300  15.1450580  47.5407660
  76.4009680  19.0125290  33.7627130  75.4973760  19.2755490  33.5878790
  76.8850300  19.2836460  32.9827090  92.9102730  19.7349280  39.0403330
  93.4340210  19.2411930  38.4093500  93.4962150  19.8699640  39.7850900
  93.0892450  19.8189150  42.5622880  92.1395160  19.7852690  42.6767870
  93.2705460  20.7289260  42.3272650  78.9436890  18.0690830  31.6721510
  79.6528590  17.6474050  31.1868790  78.2276830  18.1366060  31.0404860
  78.5911050  14.1230160  30.7124160  79.3139180  14.6639100  31.0305380
  78.8635570  13.8493580  29.8365700  92.4002700  18.9922630  34.9795740
  92.8961820  18.7593500  35.7644620  92.2018770  18.1534470  34.5633380
  78.2803240  13.3736350  40.6146780  78.9279430  12.8233730  40.1741940
  78.7005080  13.6279500  41.4362590  93.8289860  17.6283580  37.5133420
  93.7189140  17.4739620  38.4515690  94.5897450  17.1004520  37.2708830
  92.1755580  13.5677710  43.9716420  92.8127800  14.1811850  44.3375610
  92.3230470  13.6038370  43.0265650  94.7180130  15.4591500  30.7539560
  95.6429440  15.3272680  30.5457850  94.6955920  15.5384320  31.7076010
  94.7918620  16.2302160  33.3796270  93.9970120  16.1647280  33.9089180
  94.9961900  17.1652800  33.3681620  78.0335240  13.5292020  43.3572100
  77.6850060  13.9855840  44.1230280  77.7022940  12.6349150  43.4394530
  79.6399610  26.7011620  47.5225290  79.5969240  26.3304530  48.4039750
  79.7710620  27.6389190  47.6627110  85.5460060  14.7203900  46.8791520
  85.4848950  15.3125730  47.6286930  86.4860440  14.6129860  46.7341780
  88.1834620  14.3773960  46.5183810  88.7975030  14.6953250  45.8564890
  88.7284180  13.8922550  47.1379670  94.6009800  30.2765590  43.9245650
  94.1068080  30.6734460  43.2072780  93.9923090  29.6514800  44.3182930
  78.7055880  13.0568220  46.6322870  79.2538870  12.8756270  45.8688980
  78.7711190  12.2662330  47.1679180  88.9242660  12.9406100  42.8453100
  88.0502500  13.2741210  42.6426030  88.8153410  12.4679280  43.6704970
  89.8314640  15.1476970  44.2294820  89.5028000  14.3328730  43.8496550
  90.7796940  15.1046780  44.1060510  92.2849250  30.9189010  41.2032390
  91.8252220  31.6704820  40.8290410  91.6561710  30.1995480  41.1447190
  82.7144970  29.2277250  40.3780520  83.2309990  28.6164610  39.8528780
  83.3642350  29.7306030  40.8691530  85.4540470  30.1185740  41.2049500
  85.7418280  29.8640040  40.3282510  85.9663690  29.5663100  41.7955070
  86.6717480  13.8575940  41.7846010  85.8889270  14.3321440  42.0642770
  86.3780410  12.9530770  41.6759190  91.2238550  14.5599040  39.8295100
  91.6646640  14.5044140  38.9816700  90.9546140  15.4757050  39.9005280
  93.0877120  14.1914280  37.8403920  93.0265520  13.2475500  37.6934940
  93.8669150  14.2994370  38.3857380  77.3929870  30.3306640  36.8027870
  77.2251910  29.6977320  37.5009760  76.5264380  30.5366040  36.4522060
  78.0157890  14.1623420  34.3059730  78.7737250  14.2752300  33.7323760
  77.5535060  14.9992620  34.2603160  84.5571700  16.2762690  37.2962040
  83.7446210  15.9019580  36.9557920  85.0613340  15.5207770  37.5983230
  89.0596680  12.9405140  38.5345110  89.6626050  13.5125350  39.0093630
  88.3189670  13.5044580  38.3119010  92.2031280  13.3426700  33.8085390
  92.3981910  14.2410150  34.0752820  91.4161150  13.1113780  34.3018340
  78.9992570  29.0239870  34.2478010  78.4740190  29.4047900  33.5439970
  78.9237150  29.6490640  34.9687720  80.3883040  14.6887470  32.8461700
  80.9175800  13.9017270  32.7169650  81.0211360  15.3678660  33.0797230
  82.5820880  14.4262610  35.9007090  81.9523620  13.7249920  36.0677220
  82.0426020  15.1866740  35.6840250  85.5212830  31.0401840  48.5717700
  86.4480140  30.8046110  48.6153660  85.5063260  31.8673840  48.0903730
  82.7076440  13.7046590  48.3359580  82.4260710  14.2080190  47.5720400
  83.0896140  12.9068340  47.9701710  81.5985540  30.9722250  33.1227260
  82.3304360  30.6881530  32.5751150  81.8579210  30.7335530  34.0126640
  80.7600330  27.0886980  33.1273590  80.1309210  27.5572080  33.6759420
  80.8748160  26.2436200  33.5619780  89.3091900  13.1200170  48.9140050
  89.1957350  13.4394780  49.8091570  90.1261640  13.5212680  48.6177330
  88.2150050  21.1392640  19.2774790  88.1344100  20.2247250  19.0066500
  87.8014470  21.6359710  18.5714500  86.3468090  22.9171660  21.1584060
  85.5710190  22.4372100  21.4482630  86.9981020  22.2377310  20.9840220
  80.3633920  23.2291470  22.0359820  79.5318800  22.9740180  22.4356330
  80.9714900  23.3002240  22.7717740  90.3675520  27.3231850  19.9383190
  89.9057050  26.5519090  20.2670360  91.1801070  27.3497920  20.4435640
  80.3435180  27.2631560  22.2317840  80.6463220  26.3729300  22.0528060
  81.0878770  27.8201780  22.0040090  78.7725870  18.1893360  15.8202210
  77.8842570  18.5309330  15.7182090  79.0567060  17.9893680  14.9283040
  76.7358880  20.7899010  21.7041910  77.3074990  20.0221210  21.7045550
  76.7360420  21.0887770  20.7948520  86.5938830  29.6089860  19.5587180
  85.9750270  30.0647360  18.9881620  87.4490610  29.7641320  19.1576880
  85.7877080  25.5928850  21.1654220  85.7185360  24.6518790  21.0043350
  86.5496940  25.6830260  21.7376790  77.9783750  16.1983370  23.4910840
  77.7986590  15.3009120  23.7713600  77.5763830  16.7455240  24.1657790
  86.8182250  18.3999230  21.3923150  87.1947070  17.5271110  21.2796820
  86.7201760  18.7357930  20.5013590  80.9487260  16.7724860  16.8540590
  81.0554010  17.6728590  17.1609350  80.0379620  16.7242830  16.5635240
  90.6006370  15.8949670  18.3251490  91.4215990  15.4046240  18.3676970
  90.6340450  16.4847330  19.0783330  78.5970420  18.6943870  22.0993180
  79.2780530  18.9582240  22.7180580  78.2818470  17.8544740  22.4331190
  82.7894990  19.7411230  21.1865770  83.2973210  20.2392200  21.8270790
  83.3208230  18.9646430  21.0105130  94.8905920  17.9116420  24.8895120
  94.1858090  18.2998130  24.3710230  95.1563840  18.6066710  25.4916050
  81.0731090  14.3809790  25.4529190  81.0749530  14.8982180  24.6475090
  80.2435400  13.9039970  25.4299120  87.4602180  24.4929100  16.9519090
  86.8419450  24.9578550  16.3881810  87.9725430  25.1856580  17.3688600
  82.3233940  24.0204970  23.6302690  81.9903320  24.6473890  24.2723760
  82.5000620  24.5466850  22.8504360  90.8367850  17.8350050  21.0979030
  90.1323420  18.1234940  21.6782140  91.1980010  18.6450160  20.7378590
  80.7546420  16.0919750  23.4599640  81.0963230  16.9361800  23.1653510
  79.8162230  16.2403490  23.5764980  81.5353040  25.9885770  25.4451870
  82.1527040  26.6636850  25.1636320  80.6746160  26.3973750  25.3539370
  76.8285380  25.1785630  14.3258720  76.4513360  25.6672730  13.5943620
  77.0858450  25.8510910  14.9565250  92.4530630  27.4525180  23.3606510
  91.7694150  28.1224290  23.3523180  92.9924920  27.6505830  22.5951370
  93.9054770  17.2804840  21.4888240  92.9579680  17.3143820  21.6203670
  94.2304760  18.0943790  21.8737600  84.4374310  13.5802020  19.7844230
  84.7449290  13.0248910  19.0679730  83.5075010  13.7146480  19.6017220
  89.9889370  29.2969310  22.0751690  90.0016530  28.8931600  21.2073950
  89.4364590  30.0716600  21.9713120  91.2834790  26.0185530  17.1641860
  91.1731120  25.0759860  17.2891280  91.2803040  26.3801170  18.0504620
  89.3874810  24.1999150  23.4034300  89.8043600  23.9859260  22.5687760
  90.1114630  24.4571940  23.9742920  86.8255070  21.6450850  16.5204350
  85.8984350  21.5788230  16.7492820  86.9779890  22.5830980  16.4059590
  86.8124150  17.9167850  13.5171510  85.8727820  18.0781810  13.6023970
  87.1307410  18.6353530  12.9707500  93.3336910  22.5986370  23.4950540
  92.5055540  22.6679460  23.0200670  93.9287390  23.1840680  23.0266370
  90.8552360  23.2071150  17.0239600  90.2364780  22.8690700  16.3765900
  90.8376810  22.5630910  17.7318790  90.2978920  19.3855690  24.4405410
  89.8850100  20.2109400  24.6945400  89.5654870  18.8000730  24.2481770
  82.4311710  22.1715590  19.3024080  82.0268710  21.4592840  18.8069980
  82.5174830  21.8268830  20.1912120  82.8993410  25.8583150  21.4663290
  82.6021700  25.2528620  20.7871070  83.8493230  25.8960460  21.3552650
  81.1440330  18.9458800  23.0823120  81.6954920  19.0554140  22.3076370
  81.6583840  19.3196400  23.7978350  90.9879020  29.4315020  25.1286390
  90.5109580  30.2387210  24.9359000  90.3040810  28.7793350  25.2812600
  81.9911840  25.5964840  28.1171090  81.0940370  25.8204810  28.3644490
  82.0164710  25.7199780  27.1682490  89.0317060  22.4457960  14.0312350
  89.4710340  21.6080390  13.8850170  89.7445480  23.0787360  14.1176490
  80.8183060  22.4678160  26.6928460  80.6790830  23.3400960  27.0615860
  79.9364420  22.1250970  26.5476400  87.1412440  27.3854030  17.9993590
  87.5808350  28.1278360  17.5848980  87.0799330  27.6280600  18.9232550
  82.6163410  28.4099860  28.9013610  82.5878840  28.8142810  28.0342040
  82.4528380  27.4810220  28.7385210  92.6134200  13.7000770  12.3453390
  92.3006860  13.7927600  13.2452460  93.3746670  14.2781800  12.2950820
  79.1316340  21.0660570  16.8030730  79.0113940  21.7922660  16.1912000
  78.8217230  20.2963480  16.3258640  94.5678230  29.1926960  30.1977780
  95.0437950  29.6709850  30.8766860  95.1885390  29.1244450  29.4723280
  76.7701710  24.2375710  22.6099370  76.8482130  24.3724480  21.6655090
  77.3843390  23.5291600  22.8027490  78.0149340  25.9375900  19.0205550
  77.6077420  26.0790490  18.1659150  78.9062350  25.6536060  18.8176760
  93.9711480  26.3839810  27.3577790  94.0974540  26.1451690  26.4394970
  94.0132860  25.5524350  27.8299870  87.8328220  30.0867810  25.9272600
  88.3472890  29.9975820  26.7295030  86.9897300  30.4327510  26.2200510
  89.8082620  30.3723150  15.3556600  89.6483760  30.0826090  16.2538430
  89.6429330  29.5963280  14.8201830  82.2871000  30.1521680  17.1328220
  82.1113480  29.2357220  16.9196020  81.4326740  30.5108970  17.3726020
  89.5108750  27.8810710  13.9154600  88.8173910  27.8788000  13.2556880
  90.2531610  27.4570030  13.4848770  89.0758680  29.5073420  17.9903090
  89.5315630  28.7262800  18.3041710  89.4151200  30.2180240  18.5344270
  93.8235490  18.4372270  28.3227530  93.2079760  18.9451940  27.7942990
  93.5031910  17.5370600  28.2653470  76.8261230  25.2789880  25.1493830
  76.9892270  24.8095240  24.3313200  77.2913680  24.7713440  25.8142670
  81.5980000  14.4095640  20.1854400  81.1548150  15.1905180  19.8538920
  82.1564990  14.7325530  20.8925340  85.8849810  17.2764160  25.7889720
  85.4229180  17.4847180  26.6009660  85.4827920  16.4623510  25.4860390
  90.8854320  18.4973110  26.9186380  90.0347910  18.1978860  27.2395450
  90.7256110  18.7415120  26.0070200  87.9804030  19.9974860  29.0185170
  88.3057440  19.1638610  28.6787400  88.7684360  20.5203380  29.1663500
  84.7138820  14.0306340  15.0660230  84.0893000  14.0266210  15.7913540
  84.6268940  13.1637300  14.6696200  83.6355900  14.9542970  22.0444000
  83.9328230  15.8605800  21.9636020  84.1841460  14.4661750  21.4303570
  81.3894220  19.5329210  17.9135650  81.1635140  19.3166380  18.8182270
  80.6086750  19.9657670  17.5681620  88.6191980  19.5392580  16.5126300
  88.0200870  20.2628380  16.3289920  89.1671590  19.4769360  15.7302750
  83.8293430  20.4314790  28.5795920  83.7337030  19.4909520  28.4296320
  84.6725410  20.6529860  28.1843990  87.2256850  18.1756120  18.5429580
  87.6186420  18.4928320  17.7298270  87.5873700  17.2968000  18.6574100
  78.9603970  16.8428460  26.7329700  78.5667360  17.6903670  26.9402480
  78.2722370  16.2054830  26.9238340  85.5349020  16.9263430  29.8026440
  84.8447340  16.7335630  30.4372530  86.2781320  17.2098070  30.3350740
  76.2621020  14.7656920  20.7659780  75.9734070  15.3359780  21.4784760
  77.0066780  14.2861370  21.1291010  76.4491250  18.7077040  11.9762500
  76.3665920  19.6507800  12.1177490  76.0974310  18.5651950  11.0974850
  87.8111990  20.7661870  22.6380360  87.0793110  21.2748680  22.9870460
  87.4136330  19.9491850  22.3369140  84.2489380  17.4416070  21.0432850
  84.2525440  17.0006020  20.1937390  85.1440500  17.7633400  21.1504670
  80.0991760  17.3242560  20.0027060  79.7591810  17.8017790  20.7594110
  79.3369080  16.8707680  19.6428160  84.3109530  18.4428150  14.0339610
  84.4322350  18.4014630  14.9825430  83.9258040  19.3052300  13.8786340
  88.2737900  16.2195550  22.0503300  88.2910640  16.6704200  22.8945150
  88.0253480  15.3201190  22.2636740  83.3231030  20.7529290  13.4322910
  82.7547930  20.3047540  12.8058820  84.0320030  21.1122070  12.8988060
  91.7008650  13.6327730  27.8889680  92.0254420  12.9017390  28.4147660
  91.7365160  13.3141370  26.9870670  78.4000210  24.6541310  27.3089640
  78.0155000  24.0134980  27.9072600  78.7112400  25.3577430  27.8784370
  84.5497350  21.5017850  22.7898260  84.9167480  21.0276420  23.5359600
  84.3602410  22.3759420  23.1306600  77.4137840  16.2461540  18.9191730
  77.1284760  15.8817210  19.7570350  77.3516700  15.5142000  18.3054870
  82.3396720  20.5426490  25.1082470  82.0353790  21.4218470  25.3332830
  83.2943180  20.6026280  25.1439910  80.8678510  24.7487480  15.7049320
  80.0940770  24.2085100  15.5448040  81.5973140  24.2294090  15.3667080
  91.6266490  23.7452840  21.4975710  92.3465610  24.2408130  21.1071820
  91.4248310  23.0670730  20.8529580  87.0876430  15.1390800  15.6405100
  86.2741040  14.6403970  15.5650410  86.8938380  15.9789050  15.2241450
  87.0085290  23.8161900  27.3844710  86.9422600  22.8957570  27.1302300
  86.3790430  23.9137340  28.0989350  89.8024820  19.5110450  13.9367260
  90.6904440  19.8227680  13.7618600  89.7729910  18.6382700  13.5447840
  80.9115910  24.4167860  19.3428130  81.4294580  23.6136120  19.2885020
  80.4599930  24.3547000  20.1844960  85.7985410  25.6834140  14.6155430
  86.1401110  26.4276370  14.1198750  84.9698120  25.9965260  14.9780260
  78.3960450  21.3829230  26.2553830  78.0375390  22.0483080  26.8427170
  78.1015010  20.5512780  26.6266450  81.5973570  21.8413470  29.1393380
  81.2973710  21.9870650  28.2421200  82.3684810  21.2818760  29.0466770
  86.9402020  26.6382470  27.1348510  86.9546560  25.7063430  26.9167420
  86.2327120  26.7242230  27.7738280  92.0739090  20.8222290  13.4047120
  91.9902810  21.2536510  12.5543560  92.7933280  21.2820640  13.8373940
  93.1513230  23.2789810  26.4817090  92.4261420  23.8718590  26.2846480
  93.6788690  23.2713350  25.6830460  93.1026340  27.6764550  16.1329250
  92.4602500  27.0220170  16.4072970  92.7157000  28.0819640  15.3569920
  88.6812820  25.0049980  19.9800940  89.0336640  24.4078110  19.3202310
  87.7975150  24.6794210  20.1509190  84.7676100  25.7647670  17.3871350
  85.4547230  26.3116880  17.7678940  83.9808520  26.3088400  17.4220960
  76.9068500  21.3820490  12.8788430  77.7763350  21.6645290  13.1624350
  76.4158820  22.1956360  12.7637240  84.0703310  22.7693700  16.9996710
  84.5266090  23.5798950  17.2256900  83.7191520  22.4516840  17.8315200
  86.3735920  28.2800040  24.2289010  87.0178140  28.4859420  24.9062430
  86.7365360  27.5188440  23.7759860  79.9715090  13.1131350  17.4719230
  79.8429720  13.1049250  18.4204150  79.1477110  13.4514440  17.1210240
  87.6468000  26.2832390  22.9466460  88.2890230  25.5825550  23.0598630
  88.1717350  27.0630830  22.7663350  91.4923720  26.5681010  12.6705600
  91.2661300  25.8511450  13.2630240  91.1019920  26.3193450  11.8327350
  89.4205620  27.0827290  26.1502520  89.7561860  27.6693980  26.8280440
  88.5005960  26.9520000  26.3800310  77.2739750  30.5947870  13.4450060
  77.6337390  31.1937210  12.7907330  77.1332090  31.1407760  14.2185090
  76.9709020  14.8722470  26.9325930  76.2567540  15.0719390  27.5378540
  77.3904060  14.0962040  27.3040730  91.0739970  24.4852950  14.3319760
  90.7861670  24.9465640  15.1197640  91.8692140  24.0250720  14.6003980
  77.2581610  28.8602730  27.9192460  77.3672730  27.9197470  27.7787850
  76.6062170  29.1257480  27.2706190  85.2494200  27.1318620  29.3190580
  84.9291070  26.4127860  29.8636270  84.5752560  27.8073690  29.3926640
  83.2908370  27.9779070  14.2623730  83.2818470  28.7108760  13.6468240
  82.3706730  27.7310650  14.3550690  78.8915010  23.1993960  15.0070490
  78.2842960  23.9392860  15.0165790  79.3664360  23.2893320  14.1808690
  88.4647800  17.3644780  24.6827380  88.8328620  16.5439990  25.0106950
  87.6046000  17.4246670  25.0983030  91.8309830  16.3201720  15.4914940
  91.2022990  16.4247390  14.7773170  91.3361750  16.5398500  16.2808820
  86.2767970  28.0407310  12.9248920  86.3779950  27.8371300  11.9950900
  85.3769710  27.7865590  13.1296700  83.7993860  18.5987670  16.9072820
  83.0910010  19.0674010  17.3486430  84.0838340  17.9409680  17.5418010
  85.4249790  20.0184370  24.9065350  85.9235040  20.4930190  25.5717200
  85.5672740  19.0947890  25.1135380  87.8309290  15.3238330  18.3468610
  87.7077070  15.3424460  17.3978120  88.7793850  15.3717270  18.4667010
  84.9186080  30.5593630  17.6196590  85.1727580  30.5215020  16.6975960
  83.9698560  30.4326960  17.6124840  82.0028880  16.9072750  14.2823530
  82.8519410  17.3442900  14.2163720  81.6360150  17.2193010  15.1095590
  92.6316650  16.2352330  25.7493740  92.1290250  16.9757730  26.0887550
  93.4473310  16.6236330  25.4330530  90.9238660  21.4785510  19.1955100
  89.9828800  21.4935740  19.3702790  91.2382730  20.6921470  19.6415400
  80.9020300  23.1605110  12.7559060  81.6683570  23.0486470  13.3184490
  80.9794990  22.4643080  12.1035830  79.5967060  20.5930180  13.4391950
  79.6770650  19.6457690  13.5509350  80.4886810  20.9237060  13.5452610
  92.9264240  28.6494360  20.8709360  93.0511660  29.4725530  21.3433170
  93.7929800  28.4385090  20.5233510  80.3981770  30.7425570  20.5426490
  81.1344250  30.1941030  20.8135060  80.7822690  31.6081580  20.4032480
  77.2827250  26.8099140  16.4168000  76.3567030  27.0520280  16.4073410
  77.7483680  27.6373400  16.2952750  79.4040050  29.9271640  29.7312070
  80.2052780  30.2483690  30.1447470  78.8891870  29.5667220  30.4531980
  83.5084080  29.9155880  12.3652060  84.3012690  30.2044710  11.9133850
  82.9888430  29.4848050  11.6864540  88.2404680  26.0351510  29.6787480
  87.6342840  26.0583110  28.9383230  87.9358790  25.3034550  30.2154730
  89.6705050  29.7631800  28.2896890  90.6226800  29.6789820  28.2397130
  89.5233270  30.4273510  28.9630680  92.5614250  29.1426010  13.7888800
  92.2755760  28.7291150  12.9742980  92.3633800  30.0713720  13.6689320
  77.1237860  22.4145100  28.6748120  77.6276880  21.8352380  29.2464350
  76.3845280  22.6985330  29.2124490  84.0261480  25.1359290  12.2294410
  83.9212120  24.5211640  12.9555790  83.8585700  24.6125180  11.4457420
  84.1775800  23.8216090  28.2083640  83.4121470  24.3901090  28.1238310
  84.3591760  23.5292300  27.3151870  87.2664210  24.1979320  12.8336400
  86.7174310  24.6448620  13.4779140  87.8883470  23.6928570  13.3574070
  91.3199150  25.5521420  28.7658660  92.0608620  25.8897180  28.2626120
  90.5571830  25.7213480  28.2128430  79.1560940  20.5574690  29.5698190
  79.1966280  20.2588560  30.4783420  80.0106440  20.9582300  29.4105710
  82.9339330  23.1570240  14.7301700  83.3555750  22.9910110  15.5733090
  83.0590170  22.3470470  14.2356840  81.0966750  19.1366790  27.5372680
  80.5663210  18.6457740  26.9096020  81.7654820  19.5650990  27.0030610
  85.4466970  22.1807850  11.9778800  85.9672630  21.4656870  11.6119950
  86.0935370  22.8193720  12.2779310  89.9944810  23.6036250  27.3013870
  90.4085830  23.7581330  28.1504290  89.0595810  23.7291470  27.4639650
  90.4666980  20.9432410  29.3053020  91.0487750  20.1884730  29.2173500
  90.6428750  21.4739850  28.5284500  81.5839050  16.1029160  27.6169970
  81.4895920  15.4849910  26.8920840  81.0036440  16.8295450  27.3899880
  84.3500490  14.6602400  24.6497360  83.9017790  14.6826660  23.8042910
  83.7165690  14.2621420  25.2467660  84.7560040  23.5556730  25.2709800
  85.1748150  24.3989460  25.0986040  83.8368670  23.6928770  25.0416580
  87.0923940  21.2872910  26.6547640  87.2120150  20.6914050  27.3942480
  87.9517940  21.3242600  26.2348940  89.4311840  21.8410100  25.2310150
  88.9047060  22.3652720  24.6275290  89.7743180  22.4737490  25.8619880
  81.8298230  19.2303470  11.6759860  81.6287290  18.3670830  12.0373200
  81.6590280  19.1436830  10.7381460  82.6067460  29.8609740  26.3867530
  82.0688550  30.5855800  26.0676230  82.8601420  29.3840080  25.5964870
  83.8592710  17.8294260  27.9123460  84.4492400  17.5210110  28.6001280
  83.0412950  17.3574010  28.0683360  88.6786140  17.4460070  28.1456480
  87.9901660  16.7841610  28.0806470  89.3992160  16.9998340  28.5904940
  89.3086540  14.0411700  14.2046740  89.5888830  13.1979600  14.5606160
  88.5352270  14.2734810  14.7185490  80.6281030  16.3304090  11.6637740
  80.9306930  16.3371520  10.7556890  81.3675620  15.9801950  12.1605400
  85.4629670  31.0960950  26.6454180  85.3888370  31.9996090  26.9526550
  84.5608510  30.7772850  26.6176250  83.8465960  15.2738710  12.6493940
  83.4987960  14.5962700  12.0696390  84.0478730  14.8128220  13.4637330
  86.0115000  30.2619460  14.2680540  86.9065790  30.6004430  14.2899300
  86.0432630  29.5398870  13.6404820  79.6511160  25.6346510  12.4967540
  80.0886030  26.1776180  13.1525120  80.1358890  24.8093460  12.5063880
  76.8656960  28.4235540  19.9487800  77.1959970  27.5556600  19.7166440
  77.2947960  28.6294060  20.7792760  81.4618880  26.7544550  17.6089770
  81.1614420  26.6309520  18.5093680  81.3556370  25.8953140  17.2005500
  77.3547170  29.2906130  22.6869430  76.9178160  29.4706930  23.5193580
  77.9224850  30.0480750  22.5451150  92.9909350  28.7923130  26.9746740
  92.3911340  28.8515690  26.2310660  93.1203250  27.8528110  27.1043590
  94.2310800  26.5340950  12.3116450  93.4003760  26.6017600  12.7823680
  94.4082630  27.4245070  12.0083310  93.6867260  23.2788430  14.8150650
  94.4486170  23.8485080  14.9210340  93.7021630  22.7115630  15.5858960
  77.1871600  21.8026360  19.0458310  76.5320440  21.5338000  18.4018010
  78.0249550  21.6930840  18.5960290  94.6927230  24.1338530  19.6592580
  95.0636060  23.3505850  19.2528550  95.3329160  24.8227630  19.4809880
  91.6760990  25.5175110  25.0722900  90.8620830  25.9472270  25.3348690
  92.0835190  26.1293520  24.4591950  93.7386430  23.5722800  11.9723170
  94.0135270  24.4801680  11.8442390  93.5497170  23.5085330  12.9085160
  90.1362040  16.5967650  13.2676800  90.5546920  16.4098630  12.4273460
  89.8298100  15.7446700  13.5779730  93.6351770  21.5091790  16.9652600
  93.2595370  20.7419720  16.5333890  92.9054890  21.8914490  17.4527530
  78.2247530  22.1878930  23.5861650  78.5920570  22.1006330  24.4657670
  77.6558350  21.4245480  23.4868510  93.0251390  20.6563310  26.5992120
  92.7937480  20.4276060  25.6990070  93.2855940  21.5762860  26.5537010
  77.7763530  19.0988020  27.4920070  76.8819580  19.0654780  27.8313780
  78.3161080  19.2974810  28.2571320  91.4639460  15.8819740  29.3771820
  92.3409640  15.8903140  29.7605820  91.4760300  15.1450580  28.7664170
  76.4009680  19.0125290  14.9883640  75.4973760  19.2755490  14.8135300
  76.8850300  19.2836460  14.2083600  92.9102730  19.7349280  20.2659840
  93.4340210  19.2411930  19.6350010  93.4962150  19.8699640  21.0107410
  93.0892450  19.8189150  23.7879390  92.1395160  19.7852690  23.9024380
  93.2705460  20.7289260  23.5529160  78.9436890  18.0690830  12.8978020
  79.6528590  17.6474050  12.4125300  78.2276830  18.1366060  12.2661370
  78.5911050  14.1230160  11.9380670  79.3139180  14.6639100  12.2561890
  78.8635570  13.8493580  11.0622210  92.4002700  18.9922630  16.2052250
  92.8961820  18.7593500  16.9901130  92.2018770  18.1534470  15.7889890
  78.2803240  13.3736350  21.8403290  78.9279430  12.8233730  21.3998450
  78.7005080  13.6279500  22.6619100  93.8289860  17.6283580  18.7389930
  93.7189140  17.4739620  19.6772200  94.5897450  17.1004520  18.4965340
  92.1755580  13.5677710  25.1972930  92.8127800  14.1811850  25.5632120
  92.3230470  13.6038370  24.2522160  94.7180130  15.4591500  11.9796070
  95.6429440  15.3272680  11.7714360  94.6955920  15.5384320  12.9332520
  94.7918620  16.2302160  14.6052780  93.9970120  16.1647280  15.1345690
  94.9961900  17.1652800  14.5938130  91.7337040  30.2693710  18.5991170
  92.3296110  29.9478280  17.9225590  91.9915190  29.7965530  19.3904440
  78.0335240  13.5292020  24.5828610  77.6850060  13.9855840  25.3486790
  77.7022940  12.6349150  24.6651040  79.6399610  26.7011620  28.7481800
  79.5969240  26.3304530  29.6296260  79.7710620  27.6389190  28.8883620
  83.3405640  28.2571210  24.3491520  83.0997000  28.5245770  23.4622040
  84.2808280  28.4276940  24.4042380  85.5460060  14.7203900  28.1048030
  85.4848950  15.3125730  28.8543440  86.4860440  14.6129860  27.9598290
  88.1834620  14.3773960  27.7440320  88.7975030  14.6953250  27.0821400
  88.7284180  13.8922550  28.3636180  94.6009800  30.2765590  25.1502160
  94.1068080  30.6734460  24.4329290  93.9923090  29.6514800  25.5439440
  78.7055880  13.0568220  27.8579380  79.2538870  12.8756270  27.0945490
  78.7711190  12.2662330  28.3935690  79.4787640  29.6473870  25.8679580
  78.8847960  29.5158570  26.6069620  79.4711480  28.8112010  25.4021680
  88.9242660  12.9406100  24.0709610  88.0502500  13.2741210  23.8682540
  88.8153410  12.4679280  24.8961480  89.8314640  15.1476970  25.4551330
  89.5028000  14.3328730  25.0753060  90.7796940  15.1046780  25.3317020
  92.2849250  30.9189010  22.4288900  91.8252220  31.6704820  22.0546920
  91.6561710  30.1995480  22.3703700  79.1099870  27.0132250  24.8187620
  78.3833930  26.3937540  24.7513570  79.1709020  27.4072860  23.9485700
  82.7144970  29.2277250  21.6037030  83.2309990  28.6164610  21.0785290
  83.3642350  29.7306030  22.0948040  85.4540470  30.1185740  22.4306010
  85.7418280  29.8640040  21.5539020  85.9663690  29.5663100  23.0211580
  86.6717480  13.8575940  23.0102520  85.8889270  14.3321440  23.2899280
  86.3780410  12.9530770  22.9015700  91.2238550  14.5599040  21.0551610
  91.6646640  14.5044140  20.2073210  90.9546140  15.4757050  21.1261790
  93.0877120  14.1914280  19.0660430  93.0265520  13.2475500  18.9191450
  93.8669150  14.2994370  19.6113890  77.3929870  30.3306640  18.0284380
  77.2251910  29.6977320  18.7266270  76.5264380  30.5366040  17.6778570
  78.0157890  14.1623420  15.5316240  78.7737250  14.2752300  14.9580270
  77.5535060  14.9992620  15.4859670  84.5571700  16.2762690  18.5218550
  83.7446210  15.9019580  18.1814430  85.0613340  15.5207770  18.8239740
  89.0596680  12.9405140  19.7601620  89.6626050  13.5125350  20.2350140
  88.3189670  13.5044580  19.5375520  92.2031280  13.3426700  15.0341900
  92.3981910  14.2410150  15.3009330  91.4161150  13.1113780  15.5274850
  78.9992570  29.0239870  15.4734520  78.4740190  29.4047900  14.7696480
  78.9237150  29.6490640  16.1944230  80.3883040  14.6887470  14.0718210
  80.9175800  13.9017270  13.9426160  81.0211360  15.3678660  14.3053740
  82.5820880  14.4262610  17.1263600  81.9523620  13.7249920  17.2933730
  82.0426020  15.1866740  16.9096760  85.5212830  31.0401840  29.7974210
  86.4480140  30.8046110  29.8410170  85.5063260  31.8673840  29.3160240
  93.7557890  30.5827410  16.7948460  93.9310080  29.8965150  16.1509380
  93.0579460  31.1074460  16.4025130  82.7076440  13.7046590  29.5616090
  82.4260710  14.2080190  28.7976910  83.0896140  12.9068340  29.1958220
  81.5985540  30.9722250  14.3483770  82.3304360  30.6881530  13.8007660
  81.8579210  30.7335530  15.2383150  80.7600330  27.0886980  14.3530100
  80.1309210  27.5572080  14.9015930  80.8748160  26.2436200  14.7876290
  89.3091900  13.1200170  30.1396560  89.1957350  13.4394780  31.0348080
  90.1261640  13.5212680  29.8433840  92.0890390  30.2671700  29.6215250
  92.8815710  29.7720930  29.4141210  92.3823540  30.9461840  30.2290860
  86.3468090  22.9171660   2.3840570  85.5710190  22.4372100   2.6739140
  86.9981020  22.2377310   2.2096730  80.3633920  23.2291470   3.2616330
  79.5318800  22.9740180   3.6612840  80.9714900  23.3002240   3.9974250
  80.3435180  27.2631560   3.4574350  80.6463220  26.3729300   3.2784570
  81.0878770  27.8201780   3.2296600  76.7358880  20.7899010   2.9298420
  77.3074990  20.0221210   2.9302060  76.7360420  21.0887770   2.0205030
  85.7877080  25.5928850   2.3910730  85.7185360  24.6518790   2.2299860
  86.5496940  25.6830260   2.9633300  77.9783750  16.1983370   4.7167350
  77.7986590  15.3009120   4.9970110  77.5763830  16.7455240   5.3914300
  86.8182250  18.3999230   2.6179660  87.1947070  17.5271110   2.5053330
  86.7201760  18.7357930   1.7270100  78.5970420  18.6943870   3.3249690
  79.2780530  18.9582240   3.9437090  78.2818470  17.8544740   3.6587700
  82.7894990  19.7411230   2.4122280  83.2973210  20.2392200   3.0527300
  83.3208230  18.9646430   2.2361640  94.8905920  17.9116420   6.1151630
  94.1858090  18.2998130   5.5966740  95.1563840  18.6066710   6.7172560
  81.0731090  14.3809790   6.6785700  81.0749530  14.8982180   5.8731600
  80.2435400  13.9039970   6.6555630  82.3233940  24.0204970   4.8559200
  81.9903320  24.6473890   5.4980270  82.5000620  24.5466850   4.0760870
  90.8367850  17.8350050   2.3235540  90.1323420  18.1234940   2.9038650
  91.1980010  18.6450160   1.9635100  80.7546420  16.0919750   4.6856150
  81.0963230  16.9361800   4.3910020  79.8162230  16.2403490   4.8021490
  81.5353040  25.9885770   6.6708380  82.1527040  26.6636850   6.3892830
  80.6746160  26.3973750   6.5795880  92.4530630  27.4525180   4.5863020
  91.7694150  28.1224290   4.5779690  92.9924920  27.6505830   3.8207880
  93.9054770  17.2804840   2.7144750  92.9579680  17.3143820   2.8460180
  94.2304760  18.0943790   3.0994110  89.9889370  29.2969310   3.3008200
  90.0016530  28.8931600   2.4330460  89.4364590  30.0716600   3.1969630
  89.3874810  24.1999150   4.6290810  89.8043600  23.9859260   3.7944270
  90.1114630  24.4571940   5.1999430  93.3336910  22.5986370   4.7207050
  92.5055540  22.6679460   4.2457180  93.9287390  23.1840680   4.2522880
  90.2978920  19.3855690   5.6661920  89.8850100  20.2109400   5.9201910
  89.5654870  18.8000730   5.4738280  82.8993410  25.8583150   2.6919800
  82.6021700  25.2528620   2.0127580  83.8493230  25.8960460   2.5809160
  81.1440330  18.9458800   4.3079630  81.6954920  19.0554140   3.5332880
  81.6583840  19.3196400   5.0234860  90.9879020  29.4315020   6.3542900
  90.5109580  30.2387210   6.1615510  90.3040810  28.7793350   6.5069110
  81.9911840  25.5964840   9.3427600  81.0940370  25.8204810   9.5901000
  82.0164710  25.7199780   8.3939000  80.8183060  22.4678160   7.9184970
  80.6790830  23.3400960   8.2872370  79.9364420  22.1250970   7.7732910
  82.6163410  28.4099860  10.1270120  82.5878840  28.8142810   9.2598550
  82.4528380  27.4810220   9.9641720  94.5678230  29.1926960  11.4234290
  95.0437950  29.6709850  12.1023370  95.1885390  29.1244450  10.6979790
  76.7701710  24.2375710   3.8355880  76.8482130  24.3724480   2.8911600
  77.3843390  23.5291600   4.0284000  93.9711480  26.3839810   8.5834300
  94.0974540  26.1451690   7.6651480  94.0132860  25.5524350   9.0556380
  87.8328220  30.0867810   7.1529110  88.3472890  29.9975820   7.9551540
  86.9897300  30.4327510   7.4457020  93.8235490  18.4372270   9.5484040
  93.2079760  18.9451940   9.0199500  93.5031910  17.5370600   9.4909980
  76.8261230  25.2789880   6.3750340  76.9892270  24.8095240   5.5569710
  77.2913680  24.7713440   7.0399180  85.8849810  17.2764160   7.0146230
  85.4229180  17.4847180   7.8266170  85.4827920  16.4623510   6.7116900
  90.8854320  18.4973110   8.1442890  90.0347910  18.1978860   8.4651960
  90.7256110  18.7415120   7.2326710  87.9804030  19.9974860  10.2441680
  88.3057440  19.1638610   9.9043910  88.7684360  20.5203380  10.3920010
  83.6355900  14.9542970   3.2700510  83.9328230  15.8605800   3.1892530
  84.1841460  14.4661750   2.6560080  83.8293430  20.4314790   9.8052430
  83.7337030  19.4909520   9.6552830  84.6725410  20.6529860   9.4100500
  78.9603970  16.8428460   7.9586210  78.5667360  17.6903670   8.1658990
  78.2722370  16.2054830   8.1494850  85.5349020  16.9263430  11.0282950
  84.8447340  16.7335630  11.6629040  86.2781320  17.2098070  11.5607250
  76.2621020  14.7656920   1.9916290  75.9734070  15.3359780   2.7041270
  77.0066780  14.2861370   2.3547520  87.8111990  20.7661870   3.8636870
  87.0793110  21.2748680   4.2126970  87.4136330  19.9491850   3.5625650
  84.2489380  17.4416070   2.2689360  84.2525440  17.0006020   1.4193900
  85.1440500  17.7633400   2.3761180  88.2737900  16.2195550   3.2759810
  88.2910640  16.6704200   4.1201660  88.0253480  15.3201190   3.4893250
  91.7008650  13.6327730   9.1146190  92.0254420  12.9017390   9.6404170
  91.7365160  13.3141370   8.2127180  78.4000210  24.6541310   8.5346150
  78.0155000  24.0134980   9.1329110  78.7112400  25.3577430   9.1040880
  84.5497350  21.5017850   4.0154770  84.9167480  21.0276420   4.7616110
  84.3602410  22.3759420   4.3563110  82.3396720  20.5426490   6.3338980
  82.0353790  21.4218470   6.5589340  83.2943180  20.6026280   6.3696420
  91.6266490  23.7452840   2.7232220  92.3465610  24.2408130   2.3328330
  91.4248310  23.0670730   2.0786090  87.0085290  23.8161900   8.6101220
  86.9422600  22.8957570   8.3558810  86.3790430  23.9137340   9.3245860
  78.3960450  21.3829230   7.4810340  78.0375390  22.0483080   8.0683680
  78.1015010  20.5512780   7.8522960  81.5973570  21.8413470  10.3649890
  81.2973710  21.9870650   9.4677710  82.3684810  21.2818760  10.2723280
  86.9402020  26.6382470   8.3605020  86.9546560  25.7063430   8.1423930
  86.2327120  26.7242230   8.9994790  93.1513230  23.2789810   7.7073600
  92.4261420  23.8718590   7.5102990  93.6788690  23.2713350   6.9086970
  86.3735920  28.2800040   5.4545520  87.0178140  28.4859420   6.1318940
  86.7365360  27.5188440   5.0016370  87.6468000  26.2832390   4.1722970
  88.2890230  25.5825550   4.2855140  88.1717350  27.0630830   3.9919860
  89.4205620  27.0827290   7.3759030  89.7561860  27.6693980   8.0536950
  88.5005960  26.9520000   7.6056820  76.9709020  14.8722470   8.1582440
  76.2567540  15.0719390   8.7635050  77.3904060  14.0962040   8.5297240
  77.2581610  28.8602730   9.1448970  77.3672730  27.9197470   9.0044360
  76.6062170  29.1257480   8.4962700  85.2494200  27.1318620  10.5447090
  84.9291070  26.4127860  11.0892780  84.5752560  27.8073690  10.6183150
  88.4647800  17.3644780   5.9083890  88.8328620  16.5439990   6.2363460
  87.6046000  17.4246670   6.3239540  85.4249790  20.0184370   6.1321860
  85.9235040  20.4930190   6.7973710  85.5672740  19.0947890   6.3391890
  92.6316650  16.2352330   6.9750250  92.1290250  16.9757730   7.3144060
  93.4473310  16.6236330   6.6587040  92.9264240  28.6494360   2.0965870
  93.0511660  29.4725530   2.5689680  93.7929800  28.4385090   1.7490020
  80.3981770  30.7425570   1.7683000  81.1344250  30.1941030   2.0391570
  80.7822690  31.6081580   1.6288990  79.4040050  29.9271640  10.9568580
  80.2052780  30.2483690  11.3703980  78.8891870  29.5667220  11.6788490
  88.2404680  26.0351510  10.9043990  87.6342840  26.0583110  10.1639740
  87.9358790  25.3034550  11.4411240  89.6705050  29.7631800   9.5153400
  90.6226800  29.6789820   9.4653640  89.5233270  30.4273510  10.1887190
  77.1237860  22.4145100   9.9004630  77.6276880  21.8352380  10.4720860
  76.3845280  22.6985330  10.4381000  84.1775800  23.8216090   9.4340150
  83.4121470  24.3901090   9.3494820  84.3591760  23.5292300   8.5408380
  91.3199150  25.5521420   9.9915170  92.0608620  25.8897180   9.4882630
  90.5571830  25.7213480   9.4384940  79.1560940  20.5574690  10.7954700
  79.1966280  20.2588560  11.7039930  80.0106440  20.9582300  10.6362220
  81.0966750  19.1366790   8.7629190  80.5663210  18.6457740   8.1352530
  81.7654820  19.5650990   8.2287120  89.9944810  23.6036250   8.5270380
  90.4085830  23.7581330   9.3760800  89.0595810  23.7291470   8.6896160
  90.4666980  20.9432410  10.5309530  91.0487750  20.1884730  10.4430010
  90.6428750  21.4739850   9.7541010  81.5839050  16.1029160   8.8426480
  81.4895920  15.4849910   8.1177350  81.0036440  16.8295450   8.6156390
  84.3500490  14.6602400   5.8753870  83.9017790  14.6826660   5.0299420
  83.7165690  14.2621420   6.4724170  84.7560040  23.5556730   6.4966310
  85.1748150  24.3989460   6.3242550  83.8368670  23.6928770   6.2673090
  87.0923940  21.2872910   7.8804150  87.2120150  20.6914050   8.6198990
  87.9517940  21.3242600   7.4605450  89.4311840  21.8410100   6.4566660
  88.9047060  22.3652720   5.8531800  89.7743180  22.4737490   7.0876390
  82.6067460  29.8609740   7.6124040  82.0688550  30.5855800   7.2932740
  82.8601420  29.3840080   6.8221380  83.8592710  17.8294260   9.1379970
  84.4492400  17.5210110   9.8257790  83.0412950  17.3574010   9.2939870
  88.6786140  17.4460070   9.3712990  87.9901660  16.7841610   9.3062980
  89.3992160  16.9998340   9.8161450  85.4629670  31.0960950   7.8710690
  85.3888370  31.9996090   8.1783060  84.5608510  30.7772850   7.8432760
  77.3547170  29.2906130   3.9125940  76.9178160  29.4706930   4.7450090
  77.9224850  30.0480750   3.7707660  92.9909350  28.7923130   8.2003250
  92.3911340  28.8515690   7.4567170  93.1203250  27.8528110   8.3300100
  91.6760990  25.5175110   6.2979410  90.8620830  25.9472270   6.5605200
  92.0835190  26.1293520   5.6848460  78.2247530  22.1878930   4.8118160
  78.5920570  22.1006330   5.6914180  77.6558350  21.4245480   4.7125020
  93.0251390  20.6563310   7.8248630  92.7937480  20.4276060   6.9246580
  93.2855940  21.5762860   7.7793520  77.7763530  19.0988020   8.7176580
  76.8819580  19.0654780   9.0570290  78.3161080  19.2974810   9.4827830
  91.4639460  15.8819740  10.6028330  92.3409640  15.8903140  10.9862330
  91.4760300  15.1450580   9.9920680  93.0892450  19.8189150   5.0135900
  92.1395160  19.7852690   5.1280890  93.2705460  20.7289260   4.7785670
  78.2803240  13.3736350   3.0659800  78.9279430  12.8233730   2.6254960
  78.7005080  13.6279500   3.8875610  92.1755580  13.5677710   6.4229440
  92.8127800  14.1811850   6.7888630  92.3230470  13.6038370   5.4778670
  78.0335240  13.5292020   5.8085120  77.6850060  13.9855840   6.5743300
  77.7022940  12.6349150   5.8907550  79.6399610  26.7011620   9.9738310
  79.5969240  26.3304530  10.8552770  79.7710620  27.6389190  10.1140130
  83.3405640  28.2571210   5.5748030  83.0997000  28.5245770   4.6878550
  84.2808280  28.4276940   5.6298890  85.5460060  14.7203900   9.3304540
  85.4848950  15.3125730  10.0799950  86.4860440  14.6129860   9.1854800
  88.1834620  14.3773960   8.9696830  88.7975030  14.6953250   8.3077910
  88.7284180  13.8922550   9.5892690  94.6009800  30.2765590   6.3758670
  94.1068080  30.6734460   5.6585800  93.9923090  29.6514800   6.7695950
  78.7055880  13.0568220   9.0835890  79.2538870  12.8756270   8.3202000
  78.7711190  12.2662330   9.6192200  79.4787640  29.6473870   7.0936090
  78.8847960  29.5158570   7.8326130  79.4711480  28.8112010   6.6278190
  88.9242660  12.9406100   5.2966120  88.0502500  13.2741210   5.0939050
  88.8153410  12.4679280   6.1217990  89.8314640  15.1476970   6.6807840
  89.5028000  14.3328730   6.3009570  90.7796940  15.1046780   6.5573530
  92.2849250  30.9189010   3.6545410  91.8252220  31.6704820   3.2803430
  91.6561710  30.1995480   3.5960210  79.1099870  27.0132250   6.0444130
  78.3833930  26.3937540   5.9770080  79.1709020  27.4072860   5.1742210
  82.7144970  29.2277250   2.8293540  83.2309990  28.6164610   2.3041800
  83.3642350  29.7306030   3.3204550  85.4540470  30.1185740   3.6562520
  85.7418280  29.8640040   2.7795530  85.9663690  29.5663100   4.2468090
  86.6717480  13.8575940   4.2359030  85.8889270  14.3321440   4.5155790
  86.3780410  12.9530770   4.1272210  91.2238550  14.5599040   2.2808120
  91.6646640  14.5044140   1.4329720  90.9546140  15.4757050   2.3518300
  85.5212830  31.0401840  11.0230720  86.4480140  30.8046110  11.0666680
  85.5063260  31.8673840  10.5416750  82.7076440  13.7046590  10.7872600
  82.4260710  14.2080190  10.0233420  83.0896140  12.9068340  10.4214730
  89.3091900  13.1200170  11.3653070  89.1957350  13.4394780  12.2604590
  90.1261640  13.5212680  11.0690350  92.0890390  30.2671700  10.8471760
  92.8815710  29.7720930  10.6397720  92.3823540  30.9461840  11.4547370
  88.2150050   2.3649150 150.6979220  88.1344100   1.4503760 150.4270930
  87.8014470   2.8616220 149.9918930  86.3468090   4.1428170 152.5788490
  85.5710190   3.6628610 152.8687060  86.9981020   3.4633820 152.4044650
  90.3675520   8.5488360 151.3587620  89.9057050   7.7775600 151.6874790
  91.1801070   8.5754430 151.8640070  86.5938830  10.8346370 150.9791610
  85.9750270  11.2903870 150.4086050  87.4490610  10.9897830 150.5781310
  85.7877080   6.8185360 152.5858650  85.7185360   5.8775300 152.4247780
  86.5496940   6.9086770 153.1581220  87.4602180   5.7185610 148.3723520
  86.8419450   6.1835060 147.8086240  87.9725430   6.4113090 148.7893030
  76.8285380   6.4042140 145.7463150  76.4513360   6.8929240 145.0148050
  77.0858450   7.0767420 146.3769680  91.2834790   7.2442040 148.5846290
  91.1731120   6.3016370 148.7095710  91.2803040   7.6057680 149.4709050
  86.8255070   2.8707360 147.9408780  85.8984350   2.8044740 148.1697250
  86.9779890   3.8087490 147.8264020  90.8552360   4.4327660 148.4444030
  90.2364780   4.0947210 147.7970330  90.8376810   3.7887420 149.1523220
  82.4311710   3.3972100 150.7228510  82.0268710   2.6849350 150.2274410
  82.5174830   3.0525340 151.6116550  82.8993410   7.0839660 152.8867720
  82.6021700   6.4785130 152.2075500  83.8493230   7.1216970 152.7757080
  89.0317060   3.6714470 145.4516780  89.4710340   2.8336900 145.3054600
  89.7445480   4.3043870 145.5380920  87.1412440   8.6110540 149.4198020
  87.5808350   9.3534870 149.0053410  87.0799330   8.8537110 150.3436980
  79.1316340   2.2917080 148.2235160  79.0113940   3.0179170 147.6116430
  78.8217230   1.5219990 147.7463070  78.0149340   7.1632410 150.4409980
  77.6077420   7.3047000 149.5863580  78.9062350   6.8792570 150.2381190
  89.8082620  11.5979660 146.7761030  89.6483760  11.3082600 147.6742860
  89.6429330  10.8219790 146.2406260  82.2871000  11.3778190 148.5532650
  82.1113480  10.4613730 148.3400450  81.4326740  11.7365480 148.7930450
  89.5108750   9.1067220 145.3359030  88.8173910   9.1044510 144.6761310
  90.2531610   8.6826540 144.9053200  89.0758680  10.7329930 149.4107520
  89.5315630   9.9519310 149.7246140  89.4151200  11.4436750 149.9548700
  83.3231030   1.9785800 144.8527340  82.7547930   1.5304050 144.2263250
  84.0320030   2.3378580 144.3192490  80.8678510   5.9743990 147.1253750
  80.0940770   5.4341610 146.9652470  81.5973140   5.4550600 146.7871510
  91.6266490   4.9709350 152.9180140  92.3465610   5.4664640 152.5276250
  91.4248310   4.2927240 152.2734010  80.9115910   5.6424370 150.7632560
  81.4294580   4.8392630 150.7089450  80.4599930   5.5803510 151.6049390
  85.7985410   6.9090650 146.0359860  86.1401110   7.6532880 145.5403180
  84.9698120   7.2221770 146.3984690  92.0739090   2.0478800 144.8251550
  91.9902810   2.4793020 143.9747990  92.7933280   2.5077150 145.2578370
  93.1026340   8.9021060 147.5533680  92.4602500   8.2476680 147.8277400
  92.7157000   9.3076150 146.7774350  88.6812820   6.2306490 151.4005370
  89.0336640   5.6334620 150.7406740  87.7975150   5.9050720 151.5713620
  84.7676100   6.9904180 148.8075780  85.4547230   7.5373390 149.1883370
  83.9808520   7.5344910 148.8425390  76.9068500   2.6077000 144.2992860
  77.7763350   2.8901800 144.5828780  76.4158820   3.4212870 144.1841670
  84.0703310   3.9950210 148.4201140  84.5266090   4.8055460 148.6461330
  83.7191520   3.6773350 149.2519630  91.4923720   7.7937520 144.0910030
  91.2661300   7.0767960 144.6834670  91.1019920   7.5449960 143.2531780
  77.2739750  11.8204380 144.8654490  77.6337390  12.4193720 144.2111760
  77.1332090  12.3664270 145.6389520  91.0739970   5.7109460 145.7524190
  90.7861670   6.1722150 146.5402070  91.8692140   5.2507230 146.0208410
  83.2908370   9.2035580 145.6828160  83.2818470   9.9365270 145.0672670
  82.3706730   8.9567160 145.7755120  78.8915010   4.4250470 146.4274920
  78.2842960   5.1649370 146.4370220  79.3664360   4.5149830 145.6013120
  86.2767970   9.2663820 144.3453350  86.3779950   9.0627810 143.4155330
  85.3769710   9.0122100 144.5501130  84.9186080  11.7850140 149.0401020
  85.1727580  11.7471530 148.1180390  83.9698560  11.6583470 149.0329270
  90.9238660   2.7042020 150.6159530  89.9828800   2.7192250 150.7907220
  91.2382730   1.9177980 151.0619830  80.9020300   4.3861620 144.1763490
  81.6683570   4.2742980 144.7388920  80.9794990   3.6899590 143.5240260
  92.9264240   9.8750870 152.2913790  93.0511660  10.6982040 152.7637600
  93.7929800   9.6641600 151.9437940  80.3981770  11.9682080 151.9630920
  81.1344250  11.4197540 152.2339490  80.7822690  12.8338090 151.8236910
  77.2827250   8.0355650 147.8372430  76.3567030   8.2776790 147.8277840
  77.7483680   8.8629910 147.7157180  83.5084080  11.1412390 143.7856490
  84.3012690  11.4301220 143.3338280  82.9888430  10.7104560 143.1068970
  92.5614250  10.3682520 145.2093230  92.2755760   9.9547660 144.3947410
  92.3633800  11.2970230 145.0893750  84.0261480   6.3615800 143.6498840
  83.9212120   5.7468150 144.3760220  83.8585700   5.8381690 142.8661850
  87.2664210   5.4235830 144.2540830  86.7174310   5.8705130 144.8983570
  87.8883470   4.9185080 144.7778500  82.9339330   4.3826750 146.1506130
  83.3555750   4.2166620 146.9937520  83.0590170   3.5726980 145.6561270
  85.4466970   3.4064360 143.3983230  85.9672630   2.6913380 143.0324380
  86.0935370   4.0450230 143.6983740  86.0115000  11.4875970 145.6884970
  86.9065790  11.8260940 145.7103730  86.0432630  10.7655380 145.0609250
  79.6511160   6.8603020 143.9171970  80.0886030   7.4032690 144.5729550
  80.1358890   6.0349970 143.9268310  76.8656960   9.6492050 151.3692230
  77.1959970   8.7813110 151.1370870  77.2947960   9.8550570 152.1997190
  81.4618880   7.9801060 149.0294200  81.1614420   7.8566030 149.9298110
  81.3556370   7.1209650 148.6209930  94.2310800   7.7597460 143.7320880
  93.4003760   7.8274110 144.2028110  94.4082630   8.6501580 143.4287740
  93.6867260   4.5044940 146.2355080  94.4486170   5.0741590 146.3414770
  93.7021630   3.9372140 147.0063390  77.1871600   3.0282870 150.4662740
  76.5320440   2.7594510 149.8222440  78.0249550   2.9187350 150.0164720
  94.6927230   5.3595040 151.0797010  95.0636060   4.5762360 150.6732980
  95.3329160   6.0484140 150.9014310  93.7386430   4.7979310 143.3927600
  94.0135270   5.7058190 143.2646820  93.5497170   4.7341840 144.3289590
  93.6351770   2.7348300 148.3857030  93.2595370   1.9676230 147.9538320
  92.9054890   3.1171000 148.8731960  91.7337040  11.4950220 150.0195600
  92.3296110  11.1734790 149.3430020  91.9915190  11.0222040 150.8108870
  77.3929870  11.5563150 149.4488810  77.2251910  10.9233830 150.1470700
  76.5264380  11.7622550 149.0983000  78.9992570  10.2496380 146.8938950
  78.4740190  10.6304410 146.1900910  78.9237150  10.8747150 147.6148660
  93.7557890  11.8083920 148.2152890  93.9310080  11.1221660 147.5713810
  93.0579460  12.3330970 147.8229560  81.5985540  12.1978760 145.7688200
  82.3304360  11.9138040 145.2212090  81.8579210  11.9592040 146.6587580
  80.7600330   8.3143490 145.7734530  80.1309210   8.7828590 146.3220360
  80.8748160   7.4692710 146.2080720  88.2150050   2.3649150 131.9235730
  88.1344100   1.4503760 131.6527440  87.8014470   2.8616220 131.2175440
  86.3468090   4.1428170 133.8045000  85.5710190   3.6628610 134.0943570
  86.9981020   3.4633820 133.6301160  80.3633920   4.4547980 134.6820760
  79.5318800   4.1996690 135.0817270  80.9714900   4.5258750 135.4178680
  90.3675520   8.5488360 132.5844130  89.9057050   7.7775600 132.9131300
  91.1801070   8.5754430 133.0896580  80.3435180   8.4888070 134.8778780
  80.6463220   7.5985810 134.6989000  81.0878770   9.0458290 134.6501030
  86.5938830  10.8346370 132.2048120  85.9750270  11.2903870 131.6342560
  87.4490610  10.9897830 131.8037820  85.7877080   6.8185360 133.8115160
  85.7185360   5.8775300 133.6504290  86.5496940   6.9086770 134.3837730
  87.4602180   5.7185610 129.5980030  86.8419450   6.1835060 129.0342750
  87.9725430   6.4113090 130.0149540  82.3233940   5.2461480 136.2763630
  81.9903320   5.8730400 136.9184700  82.5000620   5.7723360 135.4965300
  81.5353040   7.2142280 138.0912810  82.1527040   7.8893360 137.8097260
  80.6746160   7.6230260 138.0000310  76.8285380   6.4042140 126.9719660
  76.4513360   6.8929240 126.2404560  77.0858450   7.0767420 127.6026190
  92.4530630   8.6781690 136.0067450  91.7694150   9.3480800 135.9984120
  92.9924920   8.8762340 135.2412310  89.9889370  10.5225820 134.7212630
  90.0016530  10.1188110 133.8534890  89.4364590  11.2973110 134.6174060
  91.2834790   7.2442040 129.8102800  91.1731120   6.3016370 129.9352220
  91.2803040   7.6057680 130.6965560  89.3874810   5.4255660 136.0495240
  89.8043600   5.2115770 135.2148700  90.1114630   5.6828450 136.6203860
  86.8255070   2.8707360 129.1665290  85.8984350   2.8044740 129.3953760
  86.9779890   3.8087490 129.0520530  93.3336910   3.8242880 136.1411480
  92.5055540   3.8935970 135.6661610  93.9287390   4.4097190 135.6727310
  90.8552360   4.4327660 129.6700540  90.2364780   4.0947210 129.0226840
  90.8376810   3.7887420 130.3779730  82.4311710   3.3972100 131.9485020
  82.0268710   2.6849350 131.4530920  82.5174830   3.0525340 132.8373060
  82.8993410   7.0839660 134.1124230  82.6021700   6.4785130 133.4332010
  83.8493230   7.1216970 134.0013590  90.9879020  10.6571530 137.7747330
  90.5109580  11.4643720 137.5819940  90.3040810  10.0049860 137.9273540
  81.9911840   6.8221350 140.7632030  81.0940370   7.0461320 141.0105430
  82.0164710   6.9456290 139.8143430  89.0317060   3.6714470 126.6773290
  89.4710340   2.8336900 126.5311110  89.7445480   4.3043870 126.7637430
  80.8183060   3.6934670 139.3389400  80.6790830   4.5657470 139.7076800
  79.9364420   3.3507480 139.1937340  87.1412440   8.6110540 130.6454530
  87.5808350   9.3534870 130.2309920  87.0799330   8.8537110 131.5693490
  82.6163410   9.6356370 141.5474550  82.5878840  10.0399320 140.6802980
  82.4528380   8.7066730 141.3846150  79.1316340   2.2917080 129.4491670
  79.0113940   3.0179170 128.8372940  78.8217230   1.5219990 128.9719580
  94.5678230  10.4183470 142.8438720  95.0437950  10.8966360 143.5227800
  95.1885390  10.3500960 142.1184220  76.7701710   5.4632220 135.2560310
  76.8482130   5.5980990 134.3116030  77.3843390   4.7548110 135.4488430
  78.0149340   7.1632410 131.6666490  77.6077420   7.3047000 130.8120090
  78.9062350   6.8792570 131.4637700  93.9711480   7.6096320 140.0038730
  94.0974540   7.3708200 139.0855910  94.0132860   6.7780860 140.4760810
  87.8328220  11.3124320 138.5733540  88.3472890  11.2232330 139.3755970
  86.9897300  11.6584020 138.8661450  89.8082620  11.5979660 128.0017540
  89.6483760  11.3082600 128.8999370  89.6429330  10.8219790 127.4662770
  82.2871000  11.3778190 129.7789160  82.1113480  10.4613730 129.5656960
  81.4326740  11.7365480 130.0186960  89.5108750   9.1067220 126.5615540
  88.8173910   9.1044510 125.9017820  90.2531610   8.6826540 126.1309710
  89.0758680  10.7329930 130.6364030  89.5315630   9.9519310 130.9502650
  89.4151200  11.4436750 131.1805210  76.8261230   6.5046390 137.7954770
  76.9892270   6.0351750 136.9774140  77.2913680   5.9969950 138.4603610
  83.3231030   1.9785800 126.0783850  82.7547930   1.5304050 125.4519760
  84.0320030   2.3378580 125.5449000  78.4000210   5.8797820 139.9550580
  78.0155000   5.2391490 140.5533540  78.7112400   6.5833940 140.5245310
  84.5497350   2.7274360 135.4359200  84.9167480   2.2532930 136.1820540
  84.3602410   3.6015930 135.7767540  82.3396720   1.7683000 137.7543410
  82.0353790   2.6474980 137.9793770  83.2943180   1.8282790 137.7900850
  80.8678510   5.9743990 128.3510260  80.0940770   5.4341610 128.1908980
  81.5973140   5.4550600 128.0128020  91.6266490   4.9709350 134.1436650
  92.3465610   5.4664640 133.7532760  91.4248310   4.2927240 133.4990520
  87.0085290   5.0418410 140.0305650  86.9422600   4.1214080 139.7763240
  86.3790430   5.1393850 140.7450290  80.9115910   5.6424370 131.9889070
  81.4294580   4.8392630 131.9345960  80.4599930   5.5803510 132.8305900
  85.7985410   6.9090650 127.2616370  86.1401110   7.6532880 126.7659690
  84.9698120   7.2221770 127.6241200  78.3960450   2.6085740 138.9014770
  78.0375390   3.2739590 139.4888110  78.1015010   1.7769290 139.2727390
  81.5973570   3.0669980 141.7854320  81.2973710   3.2127160 140.8882140
  82.3684810   2.5075270 141.6927710  86.9402020   7.8638980 139.7809450
  86.9546560   6.9319940 139.5628360  86.2327120   7.9498740 140.4199220
  92.0739090   2.0478800 126.0508060  91.9902810   2.4793020 125.2004500
  92.7933280   2.5077150 126.4834880  93.1513230   4.5046320 139.1278030
  92.4261420   5.0975100 138.9307420  93.6788690   4.4969860 138.3291400
  93.1026340   8.9021060 128.7790190  92.4602500   8.2476680 129.0533910
  92.7157000   9.3076150 128.0030860  88.6812820   6.2306490 132.6261880
  89.0336640   5.6334620 131.9663250  87.7975150   5.9050720 132.7970130
  84.7676100   6.9904180 130.0332290  85.4547230   7.5373390 130.4139880
  83.9808520   7.5344910 130.0681900  76.9068500   2.6077000 125.5249370
  77.7763350   2.8901800 125.8085290  76.4158820   3.4212870 125.4098180
  84.0703310   3.9950210 129.6457650  84.5266090   4.8055460 129.8717840
  83.7191520   3.6773350 130.4776140  86.3735920   9.5056550 136.8749950
  87.0178140   9.7115930 137.5523370  86.7365360   8.7444950 136.4220800
  87.6468000   7.5088900 135.5927400  88.2890230   6.8082060 135.7059570
  88.1717350   8.2887340 135.4124290  91.4923720   7.7937520 125.3166540
  91.2661300   7.0767960 125.9091180  91.1019920   7.5449960 124.4788290
  89.4205620   8.3083800 138.7963460  89.7561860   8.8950490 139.4741380
  88.5005960   8.1776510 139.0261250  77.2739750  11.8204380 126.0911000
  77.6337390  12.4193720 125.4368270  77.1332090  12.3664270 126.8646030
  91.0739970   5.7109460 126.9780700  90.7861670   6.1722150 127.7658580
  91.8692140   5.2507230 127.2464920  77.2581610  10.0859240 140.5653400
  77.3672730   9.1453980 140.4248790  76.6062170  10.3513990 139.9167130
  85.2494200   8.3575130 141.9651520  84.9291070   7.6384370 142.5097210
  84.5752560   9.0330200 142.0387580  83.2908370   9.2035580 126.9084670
  83.2818470   9.9365270 126.2929180  82.3706730   8.9567160 127.0011630
  78.8915010   4.4250470 127.6531430  78.2842960   5.1649370 127.6626730
  79.3664360   4.5149830 126.8269630  86.2767970   9.2663820 125.5709860
  86.3779950   9.0627810 124.6411840  85.3769710   9.0122100 125.7757640
  84.9186080  11.7850140 130.2657530  85.1727580  11.7471530 129.3436900
  83.9698560  11.6583470 130.2585780  90.9238660   2.7042020 131.8416040
  89.9828800   2.7192250 132.0163730  91.2382730   1.9177980 132.2876340
  80.9020300   4.3861620 125.4020000  81.6683570   4.2742980 125.9645430
  80.9794990   3.6899590 124.7496770  92.9264240   9.8750870 133.5170300
  93.0511660  10.6982040 133.9894110  93.7929800   9.6641600 133.1694450
  80.3981770  11.9682080 133.1887430  81.1344250  11.4197540 133.4596000
  80.7822690  12.8338090 133.0493420  77.2827250   8.0355650 129.0628940
  76.3567030   8.2776790 129.0534350  77.7483680   8.8629910 128.9413690
  79.4040050  11.1528150 142.3773010  80.2052780  11.4740200 142.7908410
  78.8891870  10.7923730 143.0992920  83.5084080  11.1412390 125.0113000
  84.3012690  11.4301220 124.5594790  82.9888430  10.7104560 124.3325480
  88.2404680   7.2608020 142.3248420  87.6342840   7.2839620 141.5844170
  87.9358790   6.5291060 142.8615670  89.6705050  10.9888310 140.9357830
  90.6226800  10.9046330 140.8858070  89.5233270  11.6530020 141.6091620
  92.5614250  10.3682520 126.4349740  92.2755760   9.9547660 125.6203920
  92.3633800  11.2970230 126.3150260  77.1237860   3.6401610 141.3209060
  77.6276880   3.0608890 141.8925290  76.3845280   3.9241840 141.8585430
  84.0261480   6.3615800 124.8755350  83.9212120   5.7468150 125.6016730
  83.8585700   5.8381690 124.0918360  84.1775800   5.0472600 140.8544580
  83.4121470   5.6157600 140.7699250  84.3591760   4.7548810 139.9612810
  87.2664210   5.4235830 125.4797340  86.7174310   5.8705130 126.1240080
  87.8883470   4.9185080 126.0035010  91.3199150   6.7777930 141.4119600
  92.0608620   7.1153690 140.9087060  90.5571830   6.9469990 140.8589370
  79.1560940   1.7831200 142.2159130  79.1966280   1.4845070 143.1244360
  80.0106440   2.1838810 142.0566650  82.9339330   4.3826750 127.3762640
  83.3555750   4.2166620 128.2194030  83.0590170   3.5726980 126.8817780
  85.4466970   3.4064360 124.6239740  85.9672630   2.6913380 124.2580890
  86.0935370   4.0450230 124.9240250  89.9944810   4.8292760 139.9474810
  90.4085830   4.9837840 140.7965230  89.0595810   4.9547980 140.1100590
  90.4666980   2.1688920 141.9513960  91.0487750   1.4141240 141.8634440
  90.6428750   2.6996360 141.1745440  84.7560040   4.7813240 137.9170740
  85.1748150   5.6245970 137.7446980  83.8368670   4.9185280 137.6877520
  87.0923940   2.5129420 139.3008580  87.2120150   1.9170560 140.0403420
  87.9517940   2.5499110 138.8809880  89.4311840   3.0666610 137.8771090
  88.9047060   3.5909230 137.2736230  89.7743180   3.6994000 138.5080820
  82.6067460  11.0866250 139.0328470  82.0688550  11.8112310 138.7137170
  82.8601420  10.6096590 138.2425810  85.4629670  12.3217460 139.2915120
  85.3888370  13.2252600 139.5987490  84.5608510  12.0029360 139.2637190
  86.0115000  11.4875970 126.9141480  86.9065790  11.8260940 126.9360240
  86.0432630  10.7655380 126.2865760  79.6511160   6.8603020 125.1428480
  80.0886030   7.4032690 125.7986060  80.1358890   6.0349970 125.1524820
  76.8656960   9.6492050 132.5948740  77.1959970   8.7813110 132.3627380
  77.2947960   9.8550570 133.4253700  81.4618880   7.9801060 130.2550710
  81.1614420   7.8566030 131.1554620  81.3556370   7.1209650 129.8466440
  77.3547170  10.5162640 135.3330370  76.9178160  10.6963440 136.1654520
  77.9224850  11.2737260 135.1912090  92.9909350  10.0179640 139.6207680
  92.3911340  10.0772200 138.8771600  93.1203250   9.0784620 139.7504530
  94.2310800   7.7597460 124.9577390  93.4003760   7.8274110 125.4284620
  94.4082630   8.6501580 124.6544250  93.6867260   4.5044940 127.4611590
  94.4486170   5.0741590 127.5671280  93.7021630   3.9372140 128.2319900
  77.1871600   3.0282870 131.6919250  76.5320440   2.7594510 131.0478950
  78.0249550   2.9187350 131.2421230  94.6927230   5.3595040 132.3053520
  95.0636060   4.5762360 131.8989490  95.3329160   6.0484140 132.1270820
  91.6760990   6.7431620 137.7183840  90.8620830   7.1728780 137.9809630
  92.0835190   7.3550030 137.1052890  93.7386430   4.7979310 124.6184110
  94.0135270   5.7058190 124.4903330  93.5497170   4.7341840 125.5546100
  93.6351770   2.7348300 129.6113540  93.2595370   1.9676230 129.1794830
  92.9054890   3.1171000 130.0988470  78.2247530   3.4135440 136.2322590
  78.5920570   3.3262840 137.1118610  77.6558350   2.6501990 136.1329450
  93.0251390   1.8819820 139.2453060  92.7937480   1.6532570 138.3451010
  93.2855940   2.8019370 139.1997950  91.7337040  11.4950220 131.2452110
  92.3296110  11.1734790 130.5686530  91.9915190  11.0222040 132.0365380
  79.6399610   7.9268130 141.3942740  79.5969240   7.5561040 142.2757200
  79.7710620   8.8645700 141.5344560  83.3405640   9.4827720 136.9952460
  83.0997000   9.7502280 136.1082980  84.2808280   9.6533450 137.0503320
  94.6009800  11.5022100 137.7963100  94.1068080  11.8990970 137.0790230
  93.9923090  10.8771310 138.1900380  79.4787640  10.8730380 138.5140520
  78.8847960  10.7415080 139.2530560  79.4711480  10.0368520 138.0482620
  92.2849250  12.1445520 135.0749840  91.8252220  12.8961330 134.7007860
  91.6561710  11.4251990 135.0164640  79.1099870   8.2388760 137.4648560
  78.3833930   7.6194050 137.3974510  79.1709020   8.6329370 136.5946640
  82.7144970  10.4533760 134.2497970  83.2309990   9.8421120 133.7246230
  83.3642350  10.9562540 134.7408980  85.4540470  11.3442250 135.0766950
  85.7418280  11.0896550 134.1999960  85.9663690  10.7919610 135.6672520
  77.3929870  11.5563150 130.6745320  77.2251910  10.9233830 131.3727210
  76.5264380  11.7622550 130.3239510  78.9992570  10.2496380 128.1195460
  78.4740190  10.6304410 127.4157420  78.9237150  10.8747150 128.8405170
  85.5212830  12.2658350 142.4435150  86.4480140  12.0302620 142.4871110
  85.5063260  13.0930350 141.9621180  93.7557890  11.8083920 129.4409400
  93.9310080  11.1221660 128.7970320  93.0579460  12.3330970 129.0486070
  81.5985540  12.1978760 126.9944710  82.3304360  11.9138040 126.4468600
  81.8579210  11.9592040 127.8844090  80.7600330   8.3143490 126.9991040
  80.1309210   8.7828590 127.5476870  80.8748160   7.4692710 127.4337230
  92.0890390  11.4928210 142.2676190  92.8815710  10.9977440 142.0602150
  92.3823540  12.1718350 142.8751800  88.2150050   2.3649150 113.1492240
  88.1344100   1.4503760 112.8783950  87.8014470   2.8616220 112.4431950
  86.3468090   4.1428170 115.0301510  85.5710190   3.6628610 115.3200080
  86.9981020   3.4633820 114.8557670  80.3633920   4.4547980 115.9077270
  79.5318800   4.1996690 116.3073780  80.9714900   4.5258750 116.6435190
  90.3675520   8.5488360 113.8100640  89.9057050   7.7775600 114.1387810
  91.1801070   8.5754430 114.3153090  80.3435180   8.4888070 116.1035290
  80.6463220   7.5985810 115.9245510  81.0878770   9.0458290 115.8757540
  86.5938830  10.8346370 113.4304630  85.9750270  11.2903870 112.8599070
  87.4490610  10.9897830 113.0294330  85.7877080   6.8185360 115.0371670
  85.7185360   5.8775300 114.8760800  86.5496940   6.9086770 115.6094240
  87.4602180   5.7185610 110.8236540  86.8419450   6.1835060 110.2599260
  87.9725430   6.4113090 111.2406050  82.3233940   5.2461480 117.5020140
  81.9903320   5.8730400 118.1441210  82.5000620   5.7723360 116.7221810
  81.5353040   7.2142280 119.3169320  82.1527040   7.8893360 119.0353770
  80.6746160   7.6230260 119.2256820  76.8285380   6.4042140 108.1976170
  76.4513360   6.8929240 107.4661070  77.0858450   7.0767420 108.8282700
  92.4530630   8.6781690 117.2323960  91.7694150   9.3480800 117.2240630
  92.9924920   8.8762340 116.4668820  89.9889370  10.5225820 115.9469140
  90.0016530  10.1188110 115.0791400  89.4364590  11.2973110 115.8430570
  91.2834790   7.2442040 111.0359310  91.1731120   6.3016370 111.1608730
  91.2803040   7.6057680 111.9222070  89.3874810   5.4255660 117.2751750
  89.8043600   5.2115770 116.4405210  90.1114630   5.6828450 117.8460370
  86.8255070   2.8707360 110.3921800  85.8984350   2.8044740 110.6210270
  86.9779890   3.8087490 110.2777040  93.3336910   3.8242880 117.3667990
  92.5055540   3.8935970 116.8918120  93.9287390   4.4097190 116.8983820
  90.8552360   4.4327660 110.8957050  90.2364780   4.0947210 110.2483350
  90.8376810   3.7887420 111.6036240  82.4311710   3.3972100 113.1741530
  82.0268710   2.6849350 112.6787430  82.5174830   3.0525340 114.0629570
  82.8993410   7.0839660 115.3380740  82.6021700   6.4785130 114.6588520
  83.8493230   7.1216970 115.2270100  90.9879020  10.6571530 119.0003840
  90.5109580  11.4643720 118.8076450  90.3040810  10.0049860 119.1530050
  81.9911840   6.8221350 121.9888540  81.0940370   7.0461320 122.2361940
  82.0164710   6.9456290 121.0399940  89.0317060   3.6714470 107.9029800
  89.4710340   2.8336900 107.7567620  89.7445480   4.3043870 107.9893940
  80.8183060   3.6934670 120.5645910  80.6790830   4.5657470 120.9333310
  79.9364420   3.3507480 120.4193850  87.1412440   8.6110540 111.8711040
  87.5808350   9.3534870 111.4566430  87.0799330   8.8537110 112.7950000
  82.6163410   9.6356370 122.7731060  82.5878840  10.0399320 121.9059490
  82.4528380   8.7066730 122.6102660  79.1316340   2.2917080 110.6748180
  79.0113940   3.0179170 110.0629450  78.8217230   1.5219990 110.1976090
  94.5678230  10.4183470 124.0695230  95.0437950  10.8966360 124.7484310
  95.1885390  10.3500960 123.3440730  76.7701710   5.4632220 116.4816820
  76.8482130   5.5980990 115.5372540  77.3843390   4.7548110 116.6744940
  78.0149340   7.1632410 112.8923000  77.6077420   7.3047000 112.0376600
  78.9062350   6.8792570 112.6894210  93.9711480   7.6096320 121.2295240
  94.0974540   7.3708200 120.3112420  94.0132860   6.7780860 121.7017320
  87.8328220  11.3124320 119.7990050  88.3472890  11.2232330 120.6012480
  86.9897300  11.6584020 120.0917960  89.8082620  11.5979660 109.2274050
  89.6483760  11.3082600 110.1255880  89.6429330  10.8219790 108.6919280
  82.2871000  11.3778190 111.0045670  82.1113480  10.4613730 110.7913470
  81.4326740  11.7365480 111.2443470  89.5108750   9.1067220 107.7872050
  88.8173910   9.1044510 107.1274330  90.2531610   8.6826540 107.3566220
  89.0758680  10.7329930 111.8620540  89.5315630   9.9519310 112.1759160
  89.4151200  11.4436750 112.4061720  76.8261230   6.5046390 119.0211280
  76.9892270   6.0351750 118.2030650  77.2913680   5.9969950 119.6860120
  83.3231030   1.9785800 107.3040360  82.7547930   1.5304050 106.6776270
  84.0320030   2.3378580 106.7705510  78.4000210   5.8797820 121.1807090
  78.0155000   5.2391490 121.7790050  78.7112400   6.5833940 121.7501820
  84.5497350   2.7274360 116.6615710  84.9167480   2.2532930 117.4077050
  84.3602410   3.6015930 117.0024050  82.3396720   1.7683000 118.9799920
  82.0353790   2.6474980 119.2050280  83.2943180   1.8282790 119.0157360
  80.8678510   5.9743990 109.5766770  80.0940770   5.4341610 109.4165490
  81.5973140   5.4550600 109.2384530  91.6266490   4.9709350 115.3693160
  92.3465610   5.4664640 114.9789270  91.4248310   4.2927240 114.7247030
  87.0085290   5.0418410 121.2562160  86.9422600   4.1214080 121.0019750
  86.3790430   5.1393850 121.9706800  80.9115910   5.6424370 113.2145580
  81.4294580   4.8392630 113.1602470  80.4599930   5.5803510 114.0562410
  85.7985410   6.9090650 108.4872880  86.1401110   7.6532880 107.9916200
  84.9698120   7.2221770 108.8497710  78.3960450   2.6085740 120.1271280
  78.0375390   3.2739590 120.7144620  78.1015010   1.7769290 120.4983900
  81.5973570   3.0669980 123.0110830  81.2973710   3.2127160 122.1138650
  82.3684810   2.5075270 122.9184220  86.9402020   7.8638980 121.0065960
  86.9546560   6.9319940 120.7884870  86.2327120   7.9498740 121.6455730
  92.0739090   2.0478800 107.2764570  91.9902810   2.4793020 106.4261010
  92.7933280   2.5077150 107.7091390  93.1513230   4.5046320 120.3534540
  92.4261420   5.0975100 120.1563930  93.6788690   4.4969860 119.5547910
  93.1026340   8.9021060 110.0046700  92.4602500   8.2476680 110.2790420
  92.7157000   9.3076150 109.2287370  88.6812820   6.2306490 113.8518390
  89.0336640   5.6334620 113.1919760  87.7975150   5.9050720 114.0226640
  84.7676100   6.9904180 111.2588800  85.4547230   7.5373390 111.6396390
  83.9808520   7.5344910 111.2938410  76.9068500   2.6077000 106.7505880
  77.7763350   2.8901800 107.0341800  76.4158820   3.4212870 106.6354690
  84.0703310   3.9950210 110.8714160  84.5266090   4.8055460 111.0974350
  83.7191520   3.6773350 111.7032650  86.3735920   9.5056550 118.1006460
  87.0178140   9.7115930 118.7779880  86.7365360   8.7444950 117.6477310
  87.6468000   7.5088900 116.8183910  88.2890230   6.8082060 116.9316080
  88.1717350   8.2887340 116.6380800  91.4923720   7.7937520 106.5423050
  91.2661300   7.0767960 107.1347690  91.1019920   7.5449960 105.7044800
  89.4205620   8.3083800 120.0219970  89.7561860   8.8950490 120.6997890
  88.5005960   8.1776510 120.2517760  77.2739750  11.8204380 107.3167510
  77.6337390  12.4193720 106.6624780  77.1332090  12.3664270 108.0902540
  91.0739970   5.7109460 108.2037210  90.7861670   6.1722150 108.9915090
  91.8692140   5.2507230 108.4721430  77.2581610  10.0859240 121.7909910
  77.3672730   9.1453980 121.6505300  76.6062170  10.3513990 121.1423640
  85.2494200   8.3575130 123.1908030  84.9291070   7.6384370 123.7353720
  84.5752560   9.0330200 123.2644090  83.2908370   9.2035580 108.1341180
  83.2818470   9.9365270 107.5185690  82.3706730   8.9567160 108.2268140
  78.8915010   4.4250470 108.8787940  78.2842960   5.1649370 108.8883240
  79.3664360   4.5149830 108.0526140  86.2767970   9.2663820 106.7966370
  86.3779950   9.0627810 105.8668350  85.3769710   9.0122100 107.0014150
  84.9186080  11.7850140 111.4914040  85.1727580  11.7471530 110.5693410
  83.9698560  11.6583470 111.4842290  90.9238660   2.7042020 113.0672550
  89.9828800   2.7192250 113.2420240  91.2382730   1.9177980 113.5132850
  80.9020300   4.3861620 106.6276510  81.6683570   4.2742980 107.1901940
  80.9794990   3.6899590 105.9753280  92.9264240   9.8750870 114.7426810
  93.0511660  10.6982040 115.2150620  93.7929800   9.6641600 114.3950960
  80.3981770  11.9682080 114.4143940  81.1344250  11.4197540 114.6852510
  80.7822690  12.8338090 114.2749930  77.2827250   8.0355650 110.2885450
  76.3567030   8.2776790 110.2790860  77.7483680   8.8629910 110.1670200
  79.4040050  11.1528150 123.6029520  80.2052780  11.4740200 124.0164920
  78.8891870  10.7923730 124.3249430  83.5084080  11.1412390 106.2369510
  84.3012690  11.4301220 105.7851300  82.9888430  10.7104560 105.5581990
  88.2404680   7.2608020 123.5504930  87.6342840   7.2839620 122.8100680
  87.9358790   6.5291060 124.0872180  89.6705050  10.9888310 122.1614340
  90.6226800  10.9046330 122.1114580  89.5233270  11.6530020 122.8348130
  92.5614250  10.3682520 107.6606250  92.2755760   9.9547660 106.8460430
  92.3633800  11.2970230 107.5406770  77.1237860   3.6401610 122.5465570
  77.6276880   3.0608890 123.1181800  76.3845280   3.9241840 123.0841940
  84.0261480   6.3615800 106.1011860  83.9212120   5.7468150 106.8273240
  83.8585700   5.8381690 105.3174870  84.1775800   5.0472600 122.0801090
  83.4121470   5.6157600 121.9955760  84.3591760   4.7548810 121.1869320
  87.2664210   5.4235830 106.7053850  86.7174310   5.8705130 107.3496590
  87.8883470   4.9185080 107.2291520  91.3199150   6.7777930 122.6376110
  92.0608620   7.1153690 122.1343570  90.5571830   6.9469990 122.0845880
  79.1560940   1.7831200 123.4415640  79.1966280   1.4845070 124.3500870
  80.0106440   2.1838810 123.2823160  82.9339330   4.3826750 108.6019150
  83.3555750   4.2166620 109.4450540  83.0590170   3.5726980 108.1074290
  85.4466970   3.4064360 105.8496250  85.9672630   2.6913380 105.4837400
  86.0935370   4.0450230 106.1496760  89.9944810   4.8292760 121.1731320
  90.4085830   4.9837840 122.0221740  89.0595810   4.9547980 121.3357100
  90.4666980   2.1688920 123.1770470  91.0487750   1.4141240 123.0890950
  90.6428750   2.6996360 122.4001950  84.7560040   4.7813240 119.1427250
  85.1748150   5.6245970 118.9703490  83.8368670   4.9185280 118.9134030
  87.0923940   2.5129420 120.5265090  87.2120150   1.9170560 121.2659930
  87.9517940   2.5499110 120.1066390  89.4311840   3.0666610 119.1027600
  88.9047060   3.5909230 118.4992740  89.7743180   3.6994000 119.7337330
  82.6067460  11.0866250 120.2584980  82.0688550  11.8112310 119.9393680
  82.8601420  10.6096590 119.4682320  85.4629670  12.3217460 120.5171630
  85.3888370  13.2252600 120.8244000  84.5608510  12.0029360 120.4893700
  86.0115000  11.4875970 108.1397990  86.9065790  11.8260940 108.1616750
  86.0432630  10.7655380 107.5122270  79.6511160   6.8603020 106.3684990
  80.0886030   7.4032690 107.0242570  80.1358890   6.0349970 106.3781330
  76.8656960   9.6492050 113.8205250  77.1959970   8.7813110 113.5883890
  77.2947960   9.8550570 114.6510210  81.4618880   7.9801060 111.4807220
  81.1614420   7.8566030 112.3811130  81.3556370   7.1209650 111.0722950
  77.3547170  10.5162640 116.5586880  76.9178160  10.6963440 117.3911030
  77.9224850  11.2737260 116.4168600  92.9909350  10.0179640 120.8464190
  92.3911340  10.0772200 120.1028110  93.1203250   9.0784620 120.9761040
  94.2310800   7.7597460 106.1833900  93.4003760   7.8274110 106.6541130
  94.4082630   8.6501580 105.8800760  93.6867260   4.5044940 108.6868100
  94.4486170   5.0741590 108.7927790  93.7021630   3.9372140 109.4576410
  77.1871600   3.0282870 112.9175760  76.5320440   2.7594510 112.2735460
  78.0249550   2.9187350 112.4677740  94.6927230   5.3595040 113.5310030
  95.0636060   4.5762360 113.1246000  95.3329160   6.0484140 113.3527330
  91.6760990   6.7431620 118.9440350  90.8620830   7.1728780 119.2066140
  92.0835190   7.3550030 118.3309400  93.7386430   4.7979310 105.8440620
  94.0135270   5.7058190 105.7159840  93.5497170   4.7341840 106.7802610
  93.6351770   2.7348300 110.8370050  93.2595370   1.9676230 110.4051340
  92.9054890   3.1171000 111.3244980  78.2247530   3.4135440 117.4579100
  78.5920570   3.3262840 118.3375120  77.6558350   2.6501990 117.3585960
  93.0251390   1.8819820 120.4709570  92.7937480   1.6532570 119.5707520
  93.2855940   2.8019370 120.4254460  91.7337040  11.4950220 112.4708620
  92.3296110  11.1734790 111.7943040  91.9915190  11.0222040 113.2621890
  79.6399610   7.9268130 122.6199250  79.5969240   7.5561040 123.5013710
  79.7710620   8.8645700 122.7601070  83.3405640   9.4827720 118.2208970
  83.0997000   9.7502280 117.3339490  84.2808280   9.6533450 118.2759830
  94.6009800  11.5022100 119.0219610  94.1068080  11.8990970 118.3046740
  93.9923090  10.8771310 119.4156890  79.4787640  10.8730380 119.7397030
  78.8847960  10.7415080 120.4787070  79.4711480  10.0368520 119.2739130
  92.2849250  12.1445520 116.3006350  91.8252220  12.8961330 115.9264370
  91.6561710  11.4251990 116.2421150  79.1099870   8.2388760 118.6905070
  78.3833930   7.6194050 118.6231020  79.1709020   8.6329370 117.8203150
  82.7144970  10.4533760 115.4754480  83.2309990   9.8421120 114.9502740
  83.3642350  10.9562540 115.9665490  85.4540470  11.3442250 116.3023460
  85.7418280  11.0896550 115.4256470  85.9663690  10.7919610 116.8929030
  77.3929870  11.5563150 111.9001830  77.2251910  10.9233830 112.5983720
  76.5264380  11.7622550 111.5496020  78.9992570  10.2496380 109.3451970
  78.4740190  10.6304410 108.6413930  78.9237150  10.8747150 110.0661680
  85.5212830  12.2658350 123.6691660  86.4480140  12.0302620 123.7127620
  85.5063260  13.0930350 123.1877690  93.7557890  11.8083920 110.6665910
  93.9310080  11.1221660 110.0226830  93.0579460  12.3330970 110.2742580
  81.5985540  12.1978760 108.2201220  82.3304360  11.9138040 107.6725110
  81.8579210  11.9592040 109.1100600  80.7600330   8.3143490 108.2247550
  80.1309210   8.7828590 108.7733380  80.8748160   7.4692710 108.6593740
  92.0890390  11.4928210 123.4932700  92.8815710  10.9977440 123.2858660
  92.3823540  12.1718350 124.1008310  88.2150050   2.3649150  94.3748750
  88.1344100   1.4503760  94.1040460  87.8014470   2.8616220  93.6688460
  86.3468090   4.1428170  96.2558020  85.5710190   3.6628610  96.5456590
  86.9981020   3.4633820  96.0814180  80.3633920   4.4547980  97.1333780
  79.5318800   4.1996690  97.5330290  80.9714900   4.5258750  97.8691700
  90.3675520   8.5488360  95.0357150  89.9057050   7.7775600  95.3644320
  91.1801070   8.5754430  95.5409600  80.3435180   8.4888070  97.3291800
  80.6463220   7.5985810  97.1502020  81.0878770   9.0458290  97.1014050
  86.5938830  10.8346370  94.6561140  85.9750270  11.2903870  94.0855580
  87.4490610  10.9897830  94.2550840  85.7877080   6.8185360  96.2628180
  85.7185360   5.8775300  96.1017310  86.5496940   6.9086770  96.8350750
  87.4602180   5.7185610  92.0493050  86.8419450   6.1835060  91.4855770
  87.9725430   6.4113090  92.4662560  82.3233940   5.2461480  98.7276650
  81.9903320   5.8730400  99.3697720  82.5000620   5.7723360  97.9478320
  81.5353040   7.2142280 100.5425830  82.1527040   7.8893360 100.2610280
  80.6746160   7.6230260 100.4513330  76.8285380   6.4042140  89.4232680
  76.4513360   6.8929240  88.6917580  77.0858450   7.0767420  90.0539210
  92.4530630   8.6781690  98.4580470  91.7694150   9.3480800  98.4497140
  92.9924920   8.8762340  97.6925330  89.9889370  10.5225820  97.1725650
  90.0016530  10.1188110  96.3047910  89.4364590  11.2973110  97.0687080
  91.2834790   7.2442040  92.2615820  91.1731120   6.3016370  92.3865240
  91.2803040   7.6057680  93.1478580  89.3874810   5.4255660  98.5008260
  89.8043600   5.2115770  97.6661720  90.1114630   5.6828450  99.0716880
  86.8255070   2.8707360  91.6178310  85.8984350   2.8044740  91.8466780
  86.9779890   3.8087490  91.5033550  93.3336910   3.8242880  98.5924500
  92.5055540   3.8935970  98.1174630  93.9287390   4.4097190  98.1240330
  90.8552360   4.4327660  92.1213560  90.2364780   4.0947210  91.4739860
  90.8376810   3.7887420  92.8292750  82.4311710   3.3972100  94.3998040
  82.0268710   2.6849350  93.9043940  82.5174830   3.0525340  95.2886080
  82.8993410   7.0839660  96.5637250  82.6021700   6.4785130  95.8845030
  83.8493230   7.1216970  96.4526610  90.9879020  10.6571530 100.2260350
  90.5109580  11.4643720 100.0332960  90.3040810  10.0049860 100.3786560
  81.9911840   6.8221350 103.2145050  81.0940370   7.0461320 103.4618450
  82.0164710   6.9456290 102.2656450  89.0317060   3.6714470  89.1286310
  89.4710340   2.8336900  88.9824130  89.7445480   4.3043870  89.2150450
  80.8183060   3.6934670 101.7902420  80.6790830   4.5657470 102.1589820
  79.9364420   3.3507480 101.6450360  87.1412440   8.6110540  93.0967550
  87.5808350   9.3534870  92.6822940  87.0799330   8.8537110  94.0206510
  82.6163410   9.6356370 103.9987570  82.5878840  10.0399320 103.1316000
  82.4528380   8.7066730 103.8359170  79.1316340   2.2917080  91.9004690
  79.0113940   3.0179170  91.2885960  78.8217230   1.5219990  91.4232600
  94.5678230  10.4183470 105.2951740  95.0437950  10.8966360 105.9740820
  95.1885390  10.3500960 104.5697240  76.7701710   5.4632220  97.7073330
  76.8482130   5.5980990  96.7629050  77.3843390   4.7548110  97.9001450
  78.0149340   7.1632410  94.1179510  77.6077420   7.3047000  93.2633110
  78.9062350   6.8792570  93.9150720  93.9711480   7.6096320 102.4551750
  94.0974540   7.3708200 101.5368930  94.0132860   6.7780860 102.9273830
  87.8328220  11.3124320 101.0246560  88.3472890  11.2232330 101.8268990
  86.9897300  11.6584020 101.3174470  89.8082620  11.5979660  90.4530560
  89.6483760  11.3082600  91.3512390  89.6429330  10.8219790  89.9175790
  82.2871000  11.3778190  92.2302180  82.1113480  10.4613730  92.0169980
  81.4326740  11.7365480  92.4699980  89.5108750   9.1067220  89.0128560
  88.8173910   9.1044510  88.3530840  90.2531610   8.6826540  88.5822730
  89.0758680  10.7329930  93.0877050  89.5315630   9.9519310  93.4015670
  89.4151200  11.4436750  93.6318230  76.8261230   6.5046390 100.2467790
  76.9892270   6.0351750  99.4287160  77.2913680   5.9969950 100.9116630
  83.3231030   1.9785800  88.5296870  82.7547930   1.5304050  87.9032780
  84.0320030   2.3378580  87.9962020  78.4000210   5.8797820 102.4063600
  78.0155000   5.2391490 103.0046560  78.7112400   6.5833940 102.9758330
  84.5497350   2.7274360  97.8872220  84.9167480   2.2532930  98.6333560
  84.3602410   3.6015930  98.2280560  82.3396720   1.7683000 100.2056430
  82.0353790   2.6474980 100.4306790  83.2943180   1.8282790 100.2413870
  80.8678510   5.9743990  90.8023280  80.0940770   5.4341610  90.6422000
  81.5973140   5.4550600  90.4641040  91.6266490   4.9709350  96.5949670
  92.3465610   5.4664640  96.2045780  91.4248310   4.2927240  95.9503540
  87.0085290   5.0418410 102.4818670  86.9422600   4.1214080 102.2276260
  86.3790430   5.1393850 103.1963310  80.9115910   5.6424370  94.4402090
  81.4294580   4.8392630  94.3858980  80.4599930   5.5803510  95.2818920
  85.7985410   6.9090650  89.7129390  86.1401110   7.6532880  89.2172710
  84.9698120   7.2221770  90.0754220  78.3960450   2.6085740 101.3527790
  78.0375390   3.2739590 101.9401130  78.1015010   1.7769290 101.7240410
  81.5973570   3.0669980 104.2367340  81.2973710   3.2127160 103.3395160
  82.3684810   2.5075270 104.1440730  86.9402020   7.8638980 102.2322470
  86.9546560   6.9319940 102.0141380  86.2327120   7.9498740 102.8712240
  92.0739090   2.0478800  88.5021080  91.9902810   2.4793020  87.6517520
  92.7933280   2.5077150  88.9347900  93.1513230   4.5046320 101.5791050
  92.4261420   5.0975100 101.3820440  93.6788690   4.4969860 100.7804420
  93.1026340   8.9021060  91.2303210  92.4602500   8.2476680  91.5046930
  92.7157000   9.3076150  90.4543880  88.6812820   6.2306490  95.0774900
  89.0336640   5.6334620  94.4176270  87.7975150   5.9050720  95.2483150
  84.7676100   6.9904180  92.4845310  85.4547230   7.5373390  92.8652900
  83.9808520   7.5344910  92.5194920  76.9068500   2.6077000  87.9762390
  77.7763350   2.8901800  88.2598310  76.4158820   3.4212870  87.8611200
  84.0703310   3.9950210  92.0970670  84.5266090   4.8055460  92.3230860
  83.7191520   3.6773350  92.9289160  86.3735920   9.5056550  99.3262970
  87.0178140   9.7115930 100.0036390  86.7365360   8.7444950  98.8733820
  87.6468000   7.5088900  98.0440420  88.2890230   6.8082060  98.1572590
  88.1717350   8.2887340  97.8637310  91.4923720   7.7937520  87.7679560
  91.2661300   7.0767960  88.3604200  91.1019920   7.5449960  86.9301310
  89.4205620   8.3083800 101.2476480  89.7561860   8.8950490 101.9254400
  88.5005960   8.1776510 101.4774270  77.2739750  11.8204380  88.5424020
  77.6337390  12.4193720  87.8881290  77.1332090  12.3664270  89.3159050
  91.0739970   5.7109460  89.4293720  90.7861670   6.1722150  90.2171600
  91.8692140   5.2507230  89.6977940  77.2581610  10.0859240 103.0166420
  77.3672730   9.1453980 102.8761810  76.6062170  10.3513990 102.3680150
  85.2494200   8.3575130 104.4164540  84.9291070   7.6384370 104.9610230
  84.5752560   9.0330200 104.4900600  83.2908370   9.2035580  89.3597690
  83.2818470   9.9365270  88.7442200  82.3706730   8.9567160  89.4524650
  78.8915010   4.4250470  90.1044450  78.2842960   5.1649370  90.1139750
  79.3664360   4.5149830  89.2782650  86.2767970   9.2663820  88.0222880
  86.3779950   9.0627810  87.0924860  85.3769710   9.0122100  88.2270660
  84.9186080  11.7850140  92.7170550  85.1727580  11.7471530  91.7949920
  83.9698560  11.6583470  92.7098800  90.9238660   2.7042020  94.2929060
  89.9828800   2.7192250  94.4676750  91.2382730   1.9177980  94.7389360
  80.9020300   4.3861620  87.8533020  81.6683570   4.2742980  88.4158450
  80.9794990   3.6899590  87.2009790  92.9264240   9.8750870  95.9683320
  93.0511660  10.6982040  96.4407130  93.7929800   9.6641600  95.6207470
  80.3981770  11.9682080  95.6400450  81.1344250  11.4197540  95.9109020
  80.7822690  12.8338090  95.5006440  77.2827250   8.0355650  91.5141960
  76.3567030   8.2776790  91.5047370  77.7483680   8.8629910  91.3926710
  79.4040050  11.1528150 104.8286030  80.2052780  11.4740200 105.2421430
  78.8891870  10.7923730 105.5505940  83.5084080  11.1412390  87.4626020
  84.3012690  11.4301220  87.0107810  82.9888430  10.7104560  86.7838500
  88.2404680   7.2608020 104.7761440  87.6342840   7.2839620 104.0357190
  87.9358790   6.5291060 105.3128690  89.6705050  10.9888310 103.3870850
  90.6226800  10.9046330 103.3371090  89.5233270  11.6530020 104.0604640
  92.5614250  10.3682520  88.8862760  92.2755760   9.9547660  88.0716940
  92.3633800  11.2970230  88.7663280  77.1237860   3.6401610 103.7722080
  77.6276880   3.0608890 104.3438310  76.3845280   3.9241840 104.3098450
  84.0261480   6.3615800  87.3268370  83.9212120   5.7468150  88.0529750
  83.8585700   5.8381690  86.5431380  84.1775800   5.0472600 103.3057600
  83.4121470   5.6157600 103.2212270  84.3591760   4.7548810 102.4125830
  87.2664210   5.4235830  87.9310360  86.7174310   5.8705130  88.5753100
  87.8883470   4.9185080  88.4548030  91.3199150   6.7777930 103.8632620
  92.0608620   7.1153690 103.3600080  90.5571830   6.9469990 103.3102390
  79.1560940   1.7831200 104.6672150  79.1966280   1.4845070 105.5757380
  80.0106440   2.1838810 104.5079670  82.9339330   4.3826750  89.8275660
  83.3555750   4.2166620  90.6707050  83.0590170   3.5726980  89.3330800
  85.4466970   3.4064360  87.0752760  85.9672630   2.6913380  86.7093910
  86.0935370   4.0450230  87.3753270  89.9944810   4.8292760 102.3987830
  90.4085830   4.9837840 103.2478250  89.0595810   4.9547980 102.5613610
  90.4666980   2.1688920 104.4026980  91.0487750   1.4141240 104.3147460
  90.6428750   2.6996360 103.6258460  84.7560040   4.7813240 100.3683760
  85.1748150   5.6245970 100.1960000  83.8368670   4.9185280 100.1390540
  87.0923940   2.5129420 101.7521600  87.2120150   1.9170560 102.4916440
  87.9517940   2.5499110 101.3322900  89.4311840   3.0666610 100.3284110
  88.9047060   3.5909230  99.7249250  89.7743180   3.6994000 100.9593840
  82.6067460  11.0866250 101.4841490  82.0688550  11.8112310 101.1650190
  82.8601420  10.6096590 100.6938830  85.4629670  12.3217460 101.7428140
  85.3888370  13.2252600 102.0500510  84.5608510  12.0029360 101.7150210
  86.0115000  11.4875970  89.3654500  86.9065790  11.8260940  89.3873260
  86.0432630  10.7655380  88.7378780  79.6511160   6.8603020  87.5941500
  80.0886030   7.4032690  88.2499080  80.1358890   6.0349970  87.6037840
  76.8656960   9.6492050  95.0461760  77.1959970   8.7813110  94.8140400
  77.2947960   9.8550570  95.8766720  81.4618880   7.9801060  92.7063730
  81.1614420   7.8566030  93.6067640  81.3556370   7.1209650  92.2979460
  77.3547170  10.5162640  97.7843390  76.9178160  10.6963440  98.6167540
  77.9224850  11.2737260  97.6425110  92.9909350  10.0179640 102.0720700
  92.3911340  10.0772200 101.3284620  93.1203250   9.0784620 102.2017550
  94.2310800   7.7597460  87.4090410  93.4003760   7.8274110  87.8797640
  94.4082630   8.6501580  87.1057270  93.6867260   4.5044940  89.9124610
  94.4486170   5.0741590  90.0184300  93.7021630   3.9372140  90.6832920
  77.1871600   3.0282870  94.1432270  76.5320440   2.7594510  93.4991970
  78.0249550   2.9187350  93.6934250  94.6927230   5.3595040  94.7566540
  95.0636060   4.5762360  94.3502510  95.3329160   6.0484140  94.5783840
  91.6760990   6.7431620 100.1696860  90.8620830   7.1728780 100.4322650
  92.0835190   7.3550030  99.5565910  93.7386430   4.7979310  87.0697130
  94.0135270   5.7058190  86.9416350  93.5497170   4.7341840  88.0059120
  93.6351770   2.7348300  92.0626560  93.2595370   1.9676230  91.6307850
  92.9054890   3.1171000  92.5501490  78.2247530   3.4135440  98.6835610
  78.5920570   3.3262840  99.5631630  77.6558350   2.6501990  98.5842470
  93.0251390   1.8819820 101.6966080  92.7937480   1.6532570 100.7964030
  93.2855940   2.8019370 101.6510970  91.7337040  11.4950220  93.6965130
  92.3296110  11.1734790  93.0199550  91.9915190  11.0222040  94.4878400
  79.6399610   7.9268130 103.8455760  79.5969240   7.5561040 104.7270220
  79.7710620   8.8645700 103.9857580  83.3405640   9.4827720  99.4465480
  83.0997000   9.7502280  98.5596000  84.2808280   9.6533450  99.5016340
  94.6009800  11.5022100 100.2476120  94.1068080  11.8990970  99.5303250
  93.9923090  10.8771310 100.6413400  79.4787640  10.8730380 100.9653540
  78.8847960  10.7415080 101.7043580  79.4711480  10.0368520 100.4995640
  92.2849250  12.1445520  97.5262860  91.8252220  12.8961330  97.1520880
  91.6561710  11.4251990  97.4677660  79.1099870   8.2388760  99.9161580
  78.3833930   7.6194050  99.8487530  79.1709020   8.6329370  99.0459660
  82.7144970  10.4533760  96.7010990  83.2309990   9.8421120  96.1759250
  83.3642350  10.9562540  97.1922000  85.4540470  11.3442250  97.5279970
  85.7418280  11.0896550  96.6512980  85.9663690  10.7919610  98.1185540
  77.3929870  11.5563150  93.1258340  77.2251910  10.9233830  93.8240230
  76.5264380  11.7622550  92.7752530  78.9992570  10.2496380  90.5708480
  78.4740190  10.6304410  89.8670440  78.9237150  10.8747150  91.2918190
  85.5212830  12.2658350 104.8948170  86.4480140  12.0302620 104.9384130
  85.5063260  13.0930350 104.4134200  93.7557890  11.8083920  91.8922420
  93.9310080  11.1221660  91.2483340  93.0579460  12.3330970  91.4999090
  80.7600330   8.3143490  89.4504060  80.1309210   8.7828590  89.9989890
  80.8748160   7.4692710  89.8850250  92.0890390  11.4928210 104.7189210
  92.8815710  10.9977440 104.5115170  92.3823540  12.1718350 105.3264820
  88.2150050   2.3649150  75.6005260  88.1344100   1.4503760  75.3296970
  87.8014470   2.8616220  74.8944970  86.3468090   4.1428170  77.4814530
  85.5710190   3.6628610  77.7713100  86.9981020   3.4633820  77.3070690
  80.3633920   4.4547980  78.3590290  79.5318800   4.1996690  78.7586800
  80.9714900   4.5258750  79.0948210  90.3675520   8.5488360  76.2613660
  89.9057050   7.7775600  76.5900830  91.1801070   8.5754430  76.7666110
  80.3435180   8.4888070  78.5548310  80.6463220   7.5985810  78.3758530
  81.0878770   9.0458290  78.3270560  86.5938830  10.8346370  75.8817650
  85.9750270  11.2903870  75.3112090  87.4490610  10.9897830  75.4807350
  85.7877080   6.8185360  77.4884690  85.7185360   5.8775300  77.3273820
  86.5496940   6.9086770  78.0607260  87.4602180   5.7185610  73.2749560
  86.8419450   6.1835060  72.7112280  87.9725430   6.4113090  73.6919070
  82.3233940   5.2461480  79.9533160  81.9903320   5.8730400  80.5954230
  82.5000620   5.7723360  79.1734830  81.5353040   7.2142280  81.7682340
  82.1527040   7.8893360  81.4866790  80.6746160   7.6230260  81.6769840
  76.8285380   6.4042140  70.6489190  76.4513360   6.8929240  69.9174090
  77.0858450   7.0767420  71.2795720  92.4530630   8.6781690  79.6836980
  91.7694150   9.3480800  79.6753650  92.9924920   8.8762340  78.9181840
  89.9889370  10.5225820  78.3982160  90.0016530  10.1188110  77.5304420
  89.4364590  11.2973110  78.2943590  91.2834790   7.2442040  73.4872330
  91.1731120   6.3016370  73.6121750  91.2803040   7.6057680  74.3735090
  89.3874810   5.4255660  79.7264770  89.8043600   5.2115770  78.8918230
  90.1114630   5.6828450  80.2973390  86.8255070   2.8707360  72.8434820
  85.8984350   2.8044740  73.0723290  86.9779890   3.8087490  72.7290060
  93.3336910   3.8242880  79.8181010  92.5055540   3.8935970  79.3431140
  93.9287390   4.4097190  79.3496840  90.8552360   4.4327660  73.3470070
  90.2364780   4.0947210  72.6996370  90.8376810   3.7887420  74.0549260
  82.4311710   3.3972100  75.6254550  82.0268710   2.6849350  75.1300450
  82.5174830   3.0525340  76.5142590  82.8993410   7.0839660  77.7893760
  82.6021700   6.4785130  77.1101540  83.8493230   7.1216970  77.6783120
  90.9879020  10.6571530  81.4516860  90.5109580  11.4643720  81.2589470
  90.3040810  10.0049860  81.6043070  81.9911840   6.8221350  84.4401560
  81.0940370   7.0461320  84.6874960  82.0164710   6.9456290  83.4912960
  89.0317060   3.6714470  70.3542820  89.4710340   2.8336900  70.2080640
  89.7445480   4.3043870  70.4406960  80.8183060   3.6934670  83.0158930
  80.6790830   4.5657470  83.3846330  79.9364420   3.3507480  82.8706870
  87.1412440   8.6110540  74.3224060  87.5808350   9.3534870  73.9079450
  87.0799330   8.8537110  75.2463020  82.6163410   9.6356370  85.2244080
  82.5878840  10.0399320  84.3572510  82.4528380   8.7066730  85.0615680
  79.1316340   2.2917080  73.1261200  79.0113940   3.0179170  72.5142470
  78.8217230   1.5219990  72.6489110  94.5678230  10.4183470  86.5208250
  95.0437950  10.8966360  87.1997330  95.1885390  10.3500960  85.7953750
  76.7701710   5.4632220  78.9329840  76.8482130   5.5980990  77.9885560
  77.3843390   4.7548110  79.1257960  78.0149340   7.1632410  75.3436020
  77.6077420   7.3047000  74.4889620  78.9062350   6.8792570  75.1407230
  93.9711480   7.6096320  83.6808260  94.0974540   7.3708200  82.7625440
  94.0132860   6.7780860  84.1530340  87.8328220  11.3124320  82.2503070
  88.3472890  11.2232330  83.0525500  86.9897300  11.6584020  82.5430980
  89.8082620  11.5979660  71.6787070  89.6483760  11.3082600  72.5768900
  89.6429330  10.8219790  71.1432300  82.2871000  11.3778190  73.4558690
  82.1113480  10.4613730  73.2426490  81.4326740  11.7365480  73.6956490
  89.5108750   9.1067220  70.2385070  88.8173910   9.1044510  69.5787350
  90.2531610   8.6826540  69.8079240  89.0758680  10.7329930  74.3133560
  89.5315630   9.9519310  74.6272180  89.4151200  11.4436750  74.8574740
  76.8261230   6.5046390  81.4724300  76.9892270   6.0351750  80.6543670
  77.2913680   5.9969950  82.1373140  83.3231030   1.9785800  69.7553380
  82.7547930   1.5304050  69.1289290  84.0320030   2.3378580  69.2218530
  78.4000210   5.8797820  83.6320110  78.0155000   5.2391490  84.2303070
  78.7112400   6.5833940  84.2014840  84.5497350   2.7274360  79.1128730
  84.9167480   2.2532930  79.8590070  84.3602410   3.6015930  79.4537070
  82.3396720   1.7683000  81.4312940  82.0353790   2.6474980  81.6563300
  83.2943180   1.8282790  81.4670380  80.8678510   5.9743990  72.0279790
  80.0940770   5.4341610  71.8678510  81.5973140   5.4550600  71.6897550
  91.6266490   4.9709350  77.8206180  92.3465610   5.4664640  77.4302290
  91.4248310   4.2927240  77.1760050  87.0085290   5.0418410  83.7075180
  86.9422600   4.1214080  83.4532770  86.3790430   5.1393850  84.4219820
  80.9115910   5.6424370  75.6658600  81.4294580   4.8392630  75.6115490
  80.4599930   5.5803510  76.5075430  85.7985410   6.9090650  70.9385900
  86.1401110   7.6532880  70.4429220  84.9698120   7.2221770  71.3010730
  78.3960450   2.6085740  82.5784300  78.0375390   3.2739590  83.1657640
  78.1015010   1.7769290  82.9496920  81.5973570   3.0669980  85.4623850
  81.2973710   3.2127160  84.5651670  82.3684810   2.5075270  85.3697240
  86.9402020   7.8638980  83.4578980  86.9546560   6.9319940  83.2397890
  86.2327120   7.9498740  84.0968750  92.0739090   2.0478800  69.7277590
  91.9902810   2.4793020  68.8774030  92.7933280   2.5077150  70.1604410
  93.1513230   4.5046320  82.8047560  92.4261420   5.0975100  82.6076950
  93.6788690   4.4969860  82.0060930  93.1026340   8.9021060  72.4559720
  92.4602500   8.2476680  72.7303440  92.7157000   9.3076150  71.6800390
  88.6812820   6.2306490  76.3031410  89.0336640   5.6334620  75.6432780
  87.7975150   5.9050720  76.4739660  84.7676100   6.9904180  73.7101820
  85.4547230   7.5373390  74.0909410  83.9808520   7.5344910  73.7451430
  76.9068500   2.6077000  69.2018900  77.7763350   2.8901800  69.4854820
  76.4158820   3.4212870  69.0867710  84.0703310   3.9950210  73.3227180
  84.5266090   4.8055460  73.5487370  83.7191520   3.6773350  74.1545670
  86.3735920   9.5056550  80.5519480  87.0178140   9.7115930  81.2292900
  86.7365360   8.7444950  80.0990330  87.6468000   7.5088900  79.2696930
  88.2890230   6.8082060  79.3829100  88.1717350   8.2887340  79.0893820
  91.4923720   7.7937520  68.9936070  91.2661300   7.0767960  69.5860710
  91.1019920   7.5449960  68.1557820  89.4205620   8.3083800  82.4732990
  89.7561860   8.8950490  83.1510910  88.5005960   8.1776510  82.7030780
  77.2739750  11.8204380  69.7680530  77.6337390  12.4193720  69.1137800
  77.1332090  12.3664270  70.5415560  91.0739970   5.7109460  70.6550230
  90.7861670   6.1722150  71.4428110  91.8692140   5.2507230  70.9234450
  77.2581610  10.0859240  84.2422930  77.3672730   9.1453980  84.1018320
  76.6062170  10.3513990  83.5936660  85.2494200   8.3575130  85.6421050
  84.9291070   7.6384370  86.1866740  84.5752560   9.0330200  85.7157110
  83.2908370   9.2035580  70.5854200  83.2818470   9.9365270  69.9698710
  82.3706730   8.9567160  70.6781160  78.8915010   4.4250470  71.3300960
  78.2842960   5.1649370  71.3396260  79.3664360   4.5149830  70.5039160
  86.2767970   9.2663820  69.2479390  86.3779950   9.0627810  68.3181370
  85.3769710   9.0122100  69.4527170  84.9186080  11.7850140  73.9427060
  85.1727580  11.7471530  73.0206430  83.9698560  11.6583470  73.9355310
  90.9238660   2.7042020  75.5185570  89.9828800   2.7192250  75.6933260
  91.2382730   1.9177980  75.9645870  80.9020300   4.3861620  69.0789530
  81.6683570   4.2742980  69.6414960  80.9794990   3.6899590  68.4266300
  92.9264240   9.8750870  77.1939830  93.0511660  10.6982040  77.6663640
  93.7929800   9.6641600  76.8463980  77.2827250   8.0355650  72.7398470
  76.3567030   8.2776790  72.7303880  77.7483680   8.8629910  72.6183220
  79.4040050  11.1528150  86.0542540  80.2052780  11.4740200  86.4677940
  78.8891870  10.7923730  86.7762450  83.5084080  11.1412390  68.6882530
  84.3012690  11.4301220  68.2364320  82.9888430  10.7104560  68.0095010
  88.2404680   7.2608020  86.0017950  87.6342840   7.2839620  85.2613700
  87.9358790   6.5291060  86.5385200  89.6705050  10.9888310  84.6127360
  90.6226800  10.9046330  84.5627600  89.5233270  11.6530020  85.2861150
  92.5614250  10.3682520  70.1119270  92.2755760   9.9547660  69.2973450
  92.3633800  11.2970230  69.9919790  77.1237860   3.6401610  84.9978590
  77.6276880   3.0608890  85.5694820  76.3845280   3.9241840  85.5354960
  84.0261480   6.3615800  68.5524880  83.9212120   5.7468150  69.2786260
  83.8585700   5.8381690  67.7687890  84.1775800   5.0472600  84.5314110
  83.4121470   5.6157600  84.4468780  84.3591760   4.7548810  83.6382340
  87.2664210   5.4235830  69.1566870  86.7174310   5.8705130  69.8009610
  87.8883470   4.9185080  69.6804540  91.3199150   6.7777930  85.0889130
  92.0608620   7.1153690  84.5856590  90.5571830   6.9469990  84.5358900
  79.1560940   1.7831200  85.8928660  79.1966280   1.4845070  86.8013890
  80.0106440   2.1838810  85.7336180  82.9339330   4.3826750  71.0532170
  83.3555750   4.2166620  71.8963560  83.0590170   3.5726980  70.5587310
  85.4466970   3.4064360  68.3009270  85.9672630   2.6913380  67.9350420
  86.0935370   4.0450230  68.6009780  89.9944810   4.8292760  83.6244340
  90.4085830   4.9837840  84.4734760  89.0595810   4.9547980  83.7870120
  90.4666980   2.1688920  85.6283490  91.0487750   1.4141240  85.5403970
  90.6428750   2.6996360  84.8514970  84.7560040   4.7813240  81.5940270
  85.1748150   5.6245970  81.4216510  83.8368670   4.9185280  81.3647050
  87.0923940   2.5129420  82.9778110  87.2120150   1.9170560  83.7172950
  87.9517940   2.5499110  82.5579410  89.4311840   3.0666610  81.5540620
  88.9047060   3.5909230  80.9505760  89.7743180   3.6994000  82.1850350
  85.4629670  12.3217460  82.9684650  85.3888370  13.2252600  83.2757020
  84.5608510  12.0029360  82.9406720  86.0115000  11.4875970  70.5911010
  86.9065790  11.8260940  70.6129770  86.0432630  10.7655380  69.9635290
  79.6511160   6.8603020  68.8198010  80.0886030   7.4032690  69.4755590
  80.1358890   6.0349970  68.8294350  76.8656960   9.6492050  76.2718270
  77.1959970   8.7813110  76.0396910  77.2947960   9.8550570  77.1023230
  81.4618880   7.9801060  73.9320240  81.1614420   7.8566030  74.8324150
  81.3556370   7.1209650  73.5235970  77.3547170  10.5162640  79.0099900
  76.9178160  10.6963440  79.8424050  77.9224850  11.2737260  78.8681620
  92.9909350  10.0179640  83.2977210  92.3911340  10.0772200  82.5541130
  93.1203250   9.0784620  83.4274060  94.2310800   7.7597460  68.6346920
  93.4003760   7.8274110  69.1054150  94.4082630   8.6501580  68.3313780
  93.6867260   4.5044940  71.1381120  94.4486170   5.0741590  71.2440810
  93.7021630   3.9372140  71.9089430  77.1871600   3.0282870  75.3688780
  76.5320440   2.7594510  74.7248480  78.0249550   2.9187350  74.9190760
  94.6927230   5.3595040  75.9823050  95.0636060   4.5762360  75.5759020
  95.3329160   6.0484140  75.8040350  91.6760990   6.7431620  81.3953370
  90.8620830   7.1728780  81.6579160  92.0835190   7.3550030  80.7822420
  93.7386430   4.7979310  68.2953640  94.0135270   5.7058190  68.1672860
  93.5497170   4.7341840  69.2315630  93.6351770   2.7348300  73.2883070
  93.2595370   1.9676230  72.8564360  92.9054890   3.1171000  73.7758000
  78.2247530   3.4135440  79.9092120  78.5920570   3.3262840  80.7888140
  77.6558350   2.6501990  79.8098980  93.0251390   1.8819820  82.9222590
  92.7937480   1.6532570  82.0220540  93.2855940   2.8019370  82.8767480
  91.7337040  11.4950220  74.9221640  92.3296110  11.1734790  74.2456060
  91.9915190  11.0222040  75.7134910  79.6399610   7.9268130  85.0712270
  79.5969240   7.5561040  85.9526730  79.7710620   8.8645700  85.2114090
  83.3405640   9.4827720  80.6721990  83.0997000   9.7502280  79.7852510
  84.2808280   9.6533450  80.7272850  94.6009800  11.5022100  81.4732630
  94.1068080  11.8990970  80.7559760  93.9923090  10.8771310  81.8669910
  79.4787640  10.8730380  82.1910050  78.8847960  10.7415080  82.9300090
  79.4711480  10.0368520  81.7252150  92.2849250  12.1445520  78.7519370
  91.8252220  12.8961330  78.3777390  91.6561710  11.4251990  78.6934170
  79.1099870   8.2388760  81.1418090  78.3833930   7.6194050  81.0744040
  79.1709020   8.6329370  80.2716170  85.4540470  11.3442250  78.7536480
  85.7418280  11.0896550  77.8769490  85.9663690  10.7919610  79.3442050
  77.3929870  11.5563150  74.3514850  77.2251910  10.9233830  75.0496740
  76.5264380  11.7622550  74.0009040  78.9992570  10.2496380  71.7964990
  78.4740190  10.6304410  71.0926950  78.9237150  10.8747150  72.5174700
  93.7557890  11.8083920  73.1178930  93.9310080  11.1221660  72.4739850
  93.0579460  12.3330970  72.7255600  81.5985540  12.1978760  70.6714240
  82.3304360  11.9138040  70.1238130  81.8579210  11.9592040  71.5613620
  80.7600330   8.3143490  70.6760570  80.1309210   8.7828590  71.2246400
  80.8748160   7.4692710  71.1106760  92.0890390  11.4928210  85.9445720
  92.8815710  10.9977440  85.7371680  92.3823540  12.1718350  86.5521330
  88.2150050   2.3649150  56.8261770  88.1344100   1.4503760  56.5553480
  87.8014470   2.8616220  56.1201480  86.3468090   4.1428170  58.7071040
  85.5710190   3.6628610  58.9969610  86.9981020   3.4633820  58.5327200
  80.3633920   4.4547980  59.5846800  79.5318800   4.1996690  59.9843310
  80.9714900   4.5258750  60.3204720  90.3675520   8.5488360  57.4870170
  89.9057050   7.7775600  57.8157340  91.1801070   8.5754430  57.9922620
  80.3435180   8.4888070  59.7804820  80.6463220   7.5985810  59.6015040
  81.0878770   9.0458290  59.5527070  86.5938830  10.8346370  57.1074160
  85.9750270  11.2903870  56.5368600  87.4490610  10.9897830  56.7063860
  85.7877080   6.8185360  58.7141200  85.7185360   5.8775300  58.5530330
  86.5496940   6.9086770  59.2863770  87.4602180   5.7185610  54.5006070
  86.8419450   6.1835060  53.9368790  87.9725430   6.4113090  54.9175580
  82.3233940   5.2461480  61.1789670  81.9903320   5.8730400  61.8210740
  82.5000620   5.7723360  60.3991340  81.5353040   7.2142280  62.9938850
  82.1527040   7.8893360  62.7123300  80.6746160   7.6230260  62.9026350
  76.8285380   6.4042140  51.8745700  76.4513360   6.8929240  51.1430600
  77.0858450   7.0767420  52.5052230  92.4530630   8.6781690  60.9093490
  91.7694150   9.3480800  60.9010160  92.9924920   8.8762340  60.1438350
  89.9889370  10.5225820  59.6238670  90.0016530  10.1188110  58.7560930
  89.4364590  11.2973110  59.5200100  91.2834790   7.2442040  54.7128840
  91.1731120   6.3016370  54.8378260  91.2803040   7.6057680  55.5991600
  89.3874810   5.4255660  60.9521280  89.8043600   5.2115770  60.1174740
  90.1114630   5.6828450  61.5229900  86.8255070   2.8707360  54.0691330
  85.8984350   2.8044740  54.2979800  86.9779890   3.8087490  53.9546570
  93.3336910   3.8242880  61.0437520  92.5055540   3.8935970  60.5687650
  93.9287390   4.4097190  60.5753350  90.8552360   4.4327660  54.5726580
  90.2364780   4.0947210  53.9252880  90.8376810   3.7887420  55.2805770
  82.4311710   3.3972100  56.8511060  82.0268710   2.6849350  56.3556960
  82.5174830   3.0525340  57.7399100  82.8993410   7.0839660  59.0150270
  82.6021700   6.4785130  58.3358050  83.8493230   7.1216970  58.9039630
  90.9879020  10.6571530  62.6773370  90.5109580  11.4643720  62.4845980
  90.3040810  10.0049860  62.8299580  81.9911840   6.8221350  65.6658070
  81.0940370   7.0461320  65.9131470  82.0164710   6.9456290  64.7169470
  89.0317060   3.6714470  51.5799330  89.4710340   2.8336900  51.4337150
  89.7445480   4.3043870  51.6663470  80.8183060   3.6934670  64.2415440
  80.6790830   4.5657470  64.6102840  79.9364420   3.3507480  64.0963380
  87.1412440   8.6110540  55.5480570  87.5808350   9.3534870  55.1335960
  87.0799330   8.8537110  56.4719530  82.6163410   9.6356370  66.4500590
  82.5878840  10.0399320  65.5829020  82.4528380   8.7066730  66.2872190
  79.1316340   2.2917080  54.3517710  79.0113940   3.0179170  53.7398980
  78.8217230   1.5219990  53.8745620  94.5678230  10.4183470  67.7464760
  95.0437950  10.8966360  68.4253840  95.1885390  10.3500960  67.0210260
  76.7701710   5.4632220  60.1586350  76.8482130   5.5980990  59.2142070
  77.3843390   4.7548110  60.3514470  78.0149340   7.1632410  56.5692530
  77.6077420   7.3047000  55.7146130  78.9062350   6.8792570  56.3663740
  93.9711480   7.6096320  64.9064770  94.0974540   7.3708200  63.9881950
  94.0132860   6.7780860  65.3786850  87.8328220  11.3124320  63.4759580
  88.3472890  11.2232330  64.2782010  86.9897300  11.6584020  63.7687490
  89.8082620  11.5979660  52.9043580  89.6483760  11.3082600  53.8025410
  89.6429330  10.8219790  52.3688810  82.2871000  11.3778190  54.6815200
  82.1113480  10.4613730  54.4683000  81.4326740  11.7365480  54.9213000
  89.5108750   9.1067220  51.4641580  88.8173910   9.1044510  50.8043860
  90.2531610   8.6826540  51.0335750  89.0758680  10.7329930  55.5390070
  89.5315630   9.9519310  55.8528690  89.4151200  11.4436750  56.0831250
  76.8261230   6.5046390  62.6980810  76.9892270   6.0351750  61.8800180
  77.2913680   5.9969950  63.3629650  83.3231030   1.9785800  50.9809890
  82.7547930   1.5304050  50.3545800  84.0320030   2.3378580  50.4475040
  78.4000210   5.8797820  64.8576620  78.0155000   5.2391490  65.4559580
  78.7112400   6.5833940  65.4271350  84.5497350   2.7274360  60.3385240
  84.9167480   2.2532930  61.0846580  84.3602410   3.6015930  60.6793580
  82.3396720   1.7683000  62.6569450  82.0353790   2.6474980  62.8819810
  83.2943180   1.8282790  62.6926890  80.8678510   5.9743990  53.2536300
  80.0940770   5.4341610  53.0935020  81.5973140   5.4550600  52.9154060
  91.6266490   4.9709350  59.0462690  92.3465610   5.4664640  58.6558800
  91.4248310   4.2927240  58.4016560  87.0085290   5.0418410  64.9331690
  86.9422600   4.1214080  64.6789280  86.3790430   5.1393850  65.6476330
  80.9115910   5.6424370  56.8915110  81.4294580   4.8392630  56.8372000
  80.4599930   5.5803510  57.7331940  85.7985410   6.9090650  52.1642410
  86.1401110   7.6532880  51.6685730  84.9698120   7.2221770  52.5267240
  78.3960450   2.6085740  63.8040810  78.0375390   3.2739590  64.3914150
  78.1015010   1.7769290  64.1753430  81.5973570   3.0669980  66.6880360
  81.2973710   3.2127160  65.7908180  82.3684810   2.5075270  66.5953750
  86.9402020   7.8638980  64.6835490  86.9546560   6.9319940  64.4654400
  86.2327120   7.9498740  65.3225260  92.0739090   2.0478800  50.9534100
  91.9902810   2.4793020  50.1030540  92.7933280   2.5077150  51.3860920
  93.1513230   4.5046320  64.0304070  92.4261420   5.0975100  63.8333460
  93.6788690   4.4969860  63.2317440  93.1026340   8.9021060  53.6816230
  92.4602500   8.2476680  53.9559950  92.7157000   9.3076150  52.9056900
  88.6812820   6.2306490  57.5287920  89.0336640   5.6334620  56.8689290
  87.7975150   5.9050720  57.6996170  84.7676100   6.9904180  54.9358330
  85.4547230   7.5373390  55.3165920  83.9808520   7.5344910  54.9707940
  76.9068500   2.6077000  50.4275410  77.7763350   2.8901800  50.7111330
  76.4158820   3.4212870  50.3124220  84.0703310   3.9950210  54.5483690
  84.5266090   4.8055460  54.7743880  83.7191520   3.6773350  55.3802180
  86.3735920   9.5056550  61.7775990  87.0178140   9.7115930  62.4549410
  86.7365360   8.7444950  61.3246840  87.6468000   7.5088900  60.4953440
  88.2890230   6.8082060  60.6085610  88.1717350   8.2887340  60.3150330
  91.4923720   7.7937520  50.2192580  91.2661300   7.0767960  50.8117220
  91.1019920   7.5449960  49.3814330  89.4205620   8.3083800  63.6989500
  89.7561860   8.8950490  64.3767420  88.5005960   8.1776510  63.9287290
  77.2739750  11.8204380  50.9937040  77.6337390  12.4193720  50.3394310
  77.1332090  12.3664270  51.7672070  91.0739970   5.7109460  51.8806740
  90.7861670   6.1722150  52.6684620  91.8692140   5.2507230  52.1490960
  77.2581610  10.0859240  65.4679440  77.3672730   9.1453980  65.3274830
  76.6062170  10.3513990  64.8193170  85.2494200   8.3575130  66.8677560
  84.9291070   7.6384370  67.4123250  84.5752560   9.0330200  66.9413620
  83.2908370   9.2035580  51.8110710  83.2818470   9.9365270  51.1955220
  82.3706730   8.9567160  51.9037670  78.8915010   4.4250470  52.5557470
  78.2842960   5.1649370  52.5652770  79.3664360   4.5149830  51.7295670
  86.2767970   9.2663820  50.4735900  86.3779950   9.0627810  49.5437880
  85.3769710   9.0122100  50.6783680  84.9186080  11.7850140  55.1683570
  85.1727580  11.7471530  54.2462940  83.9698560  11.6583470  55.1611820
  90.9238660   2.7042020  56.7442080  89.9828800   2.7192250  56.9189770
  91.2382730   1.9177980  57.1902380  80.9020300   4.3861620  50.3046040
  81.6683570   4.2742980  50.8671470  80.9794990   3.6899590  49.6522810
  92.9264240   9.8750870  58.4196340  93.0511660  10.6982040  58.8920150
  93.7929800   9.6641600  58.0720490  80.3981770  11.9682080  58.0913470
  81.1344250  11.4197540  58.3622040  80.7822690  12.8338090  57.9519460
  77.2827250   8.0355650  53.9654980  76.3567030   8.2776790  53.9560390
  77.7483680   8.8629910  53.8439730  79.4040050  11.1528150  67.2799050
  80.2052780  11.4740200  67.6934450  78.8891870  10.7923730  68.0018960
  83.5084080  11.1412390  49.9139040  84.3012690  11.4301220  49.4620830
  82.9888430  10.7104560  49.2351520  88.2404680   7.2608020  67.2274460
  87.6342840   7.2839620  66.4870210  87.9358790   6.5291060  67.7641710
  89.6705050  10.9888310  65.8383870  90.6226800  10.9046330  65.7884110
  89.5233270  11.6530020  66.5117660  92.5614250  10.3682520  51.3375780
  92.2755760   9.9547660  50.5229960  92.3633800  11.2970230  51.2176300
  77.1237860   3.6401610  66.2235100  77.6276880   3.0608890  66.7951330
  76.3845280   3.9241840  66.7611470  84.0261480   6.3615800  49.7781390
  83.9212120   5.7468150  50.5042770  83.8585700   5.8381690  48.9944400
  84.1775800   5.0472600  65.7570620  83.4121470   5.6157600  65.6725290
  84.3591760   4.7548810  64.8638850  87.2664210   5.4235830  50.3823380
  86.7174310   5.8705130  51.0266120  87.8883470   4.9185080  50.9061050
  91.3199150   6.7777930  66.3145640  92.0608620   7.1153690  65.8113100
  90.5571830   6.9469990  65.7615410  79.1560940   1.7831200  67.1185170
  79.1966280   1.4845070  68.0270400  80.0106440   2.1838810  66.9592690
  82.9339330   4.3826750  52.2788680  83.3555750   4.2166620  53.1220070
  83.0590170   3.5726980  51.7843820  85.4466970   3.4064360  49.5265780
  85.9672630   2.6913380  49.1606930  86.0935370   4.0450230  49.8266290
  89.9944810   4.8292760  64.8500850  90.4085830   4.9837840  65.6991270
  89.0595810   4.9547980  65.0126630  90.4666980   2.1688920  66.8540000
  91.0487750   1.4141240  66.7660480  90.6428750   2.6996360  66.0771480
  84.7560040   4.7813240  62.8196780  85.1748150   5.6245970  62.6473020
  83.8368670   4.9185280  62.5903560  87.0923940   2.5129420  64.2034620
  87.2120150   1.9170560  64.9429460  87.9517940   2.5499110  63.7835920
  89.4311840   3.0666610  62.7797130  88.9047060   3.5909230  62.1762270
  89.7743180   3.6994000  63.4106860  82.6067460  11.0866250  63.9354510
  82.0688550  11.8112310  63.6163210  82.8601420  10.6096590  63.1451850
  85.4629670  12.3217460  64.1941160  85.3888370  13.2252600  64.5013530
  84.5608510  12.0029360  64.1663230  86.0115000  11.4875970  51.8167520
  86.9065790  11.8260940  51.8386280  86.0432630  10.7655380  51.1891800
  79.6511160   6.8603020  50.0454520  80.0886030   7.4032690  50.7012100
  80.1358890   6.0349970  50.0550860  76.8656960   9.6492050  57.4974780
  77.1959970   8.7813110  57.2653420  77.2947960   9.8550570  58.3279740
  81.4618880   7.9801060  55.1576750  81.1614420   7.8566030  56.0580660
  81.3556370   7.1209650  54.7492480  77.3547170  10.5162640  60.2356410
  76.9178160  10.6963440  61.0680560  77.9224850  11.2737260  60.0938130
  92.9909350  10.0179640  64.5233720  92.3911340  10.0772200  63.7797640
  93.1203250   9.0784620  64.6530570  94.2310800   7.7597460  49.8603430
  93.4003760   7.8274110  50.3310660  94.4082630   8.6501580  49.5570290
  93.6867260   4.5044940  52.3637630  94.4486170   5.0741590  52.4697320
  93.7021630   3.9372140  53.1345940  77.1871600   3.0282870  56.5945290
  76.5320440   2.7594510  55.9504990  78.0249550   2.9187350  56.1447270
  94.6927230   5.3595040  57.2079560  95.0636060   4.5762360  56.8015530
  95.3329160   6.0484140  57.0296860  91.6760990   6.7431620  62.6209880
  90.8620830   7.1728780  62.8835670  92.0835190   7.3550030  62.0078930
  93.7386430   4.7979310  49.5210150  94.0135270   5.7058190  49.3929370
  93.5497170   4.7341840  50.4572140  93.6351770   2.7348300  54.5139580
  93.2595370   1.9676230  54.0820870  92.9054890   3.1171000  55.0014510
  78.2247530   3.4135440  61.1348630  78.5920570   3.3262840  62.0144650
  77.6558350   2.6501990  61.0355490  93.0251390   1.8819820  64.1479100
  92.7937480   1.6532570  63.2477050  93.2855940   2.8019370  64.1023990
  91.7337040  11.4950220  56.1478150  92.3296110  11.1734790  55.4712570
  91.9915190  11.0222040  56.9391420  79.6399610   7.9268130  66.2968780
  79.5969240   7.5561040  67.1783240  79.7710620   8.8645700  66.4370600
  83.3405640   9.4827720  61.8978500  83.0997000   9.7502280  61.0109020
  84.2808280   9.6533450  61.9529360  94.6009800  11.5022100  62.6989140
  94.1068080  11.8990970  61.9816270  93.9923090  10.8771310  63.0926420
  79.4787640  10.8730380  63.4166560  78.8847960  10.7415080  64.1556600
  79.4711480  10.0368520  62.9508660  92.2849250  12.1445520  59.9775880
  91.8252220  12.8961330  59.6033900  91.6561710  11.4251990  59.9190680
  79.1099870   8.2388760  62.3674600  78.3833930   7.6194050  62.3000550
  79.1709020   8.6329370  61.4972680  82.7144970  10.4533760  59.1524010
  83.2309990   9.8421120  58.6272270  83.3642350  10.9562540  59.6435020
  85.4540470  11.3442250  59.9792990  85.7418280  11.0896550  59.1026000
  85.9663690  10.7919610  60.5698560  77.3929870  11.5563150  55.5771360
  77.2251910  10.9233830  56.2753250  76.5264380  11.7622550  55.2265550
  78.9992570  10.2496380  53.0221500  78.4740190  10.6304410  52.3183460
  78.9237150  10.8747150  53.7431210  85.5212830  12.2658350  67.3461190
  86.4480140  12.0302620  67.3897150  85.5063260  13.0930350  66.8647220
  93.7557890  11.8083920  54.3435440  93.9310080  11.1221660  53.6996360
  93.0579460  12.3330970  53.9512110  81.5985540  12.1978760  51.8970750
  82.3304360  11.9138040  51.3494640  81.8579210  11.9592040  52.7870130
  80.7600330   8.3143490  51.9017080  80.1309210   8.7828590  52.4502910
  80.8748160   7.4692710  52.3363270  92.0890390  11.4928210  67.1702230
  92.8815710  10.9977440  66.9628190  92.3823540  12.1718350  67.7777840
  88.2150050   2.3649150  38.0518280  88.1344100   1.4503760  37.7809990
  87.8014470   2.8616220  37.3457990  86.3468090   4.1428170  39.9327550
  85.5710190   3.6628610  40.2226120  86.9981020   3.4633820  39.7583710
  80.3633920   4.4547980  40.8103310  79.5318800   4.1996690  41.2099820
  80.9714900   4.5258750  41.5461230  90.3675520   8.5488360  38.7126680
  89.9057050   7.7775600  39.0413850  91.1801070   8.5754430  39.2179130
  80.3435180   8.4888070  41.0061330  80.6463220   7.5985810  40.8271550
  81.0878770   9.0458290  40.7783580  86.5938830  10.8346370  38.3330670
  85.9750270  11.2903870  37.7625110  87.4490610  10.9897830  37.9320370
  85.7877080   6.8185360  39.9397710  85.7185360   5.8775300  39.7786840
  86.5496940   6.9086770  40.5120280  87.4602180   5.7185610  35.7262580
  86.8419450   6.1835060  35.1625300  87.9725430   6.4113090  36.1432090
  82.3233940   5.2461480  42.4046180  81.9903320   5.8730400  43.0467250
  82.5000620   5.7723360  41.6247850  81.5353040   7.2142280  44.2195360
  82.1527040   7.8893360  43.9379810  80.6746160   7.6230260  44.1282860
  76.8285380   6.4042140  33.1002210  76.4513360   6.8929240  32.3687110
  77.0858450   7.0767420  33.7308740  92.4530630   8.6781690  42.1350000
  91.7694150   9.3480800  42.1266670  92.9924920   8.8762340  41.3694860
  89.9889370  10.5225820  40.8495180  90.0016530  10.1188110  39.9817440
  89.4364590  11.2973110  40.7456610  91.2834790   7.2442040  35.9385350
  91.1731120   6.3016370  36.0634770  91.2803040   7.6057680  36.8248110
  89.3874810   5.4255660  42.1777790  89.8043600   5.2115770  41.3431250
  90.1114630   5.6828450  42.7486410  86.8255070   2.8707360  35.2947840
  85.8984350   2.8044740  35.5236310  86.9779890   3.8087490  35.1803080
  93.3336910   3.8242880  42.2694030  92.5055540   3.8935970  41.7944160
  93.9287390   4.4097190  41.8009860  90.8552360   4.4327660  35.7983090
  90.2364780   4.0947210  35.1509390  90.8376810   3.7887420  36.5062280
  82.4311710   3.3972100  38.0767570  82.0268710   2.6849350  37.5813470
  82.5174830   3.0525340  38.9655610  82.8993410   7.0839660  40.2406780
  82.6021700   6.4785130  39.5614560  83.8493230   7.1216970  40.1296140
  90.9879020  10.6571530  43.9029880  90.5109580  11.4643720  43.7102490
  90.3040810  10.0049860  44.0556090  81.9911840   6.8221350  46.8914580
  81.0940370   7.0461320  47.1387980  82.0164710   6.9456290  45.9425980
  89.0317060   3.6714470  32.8055840  89.4710340   2.8336900  32.6593660
  89.7445480   4.3043870  32.8919980  80.8183060   3.6934670  45.4671950
  80.6790830   4.5657470  45.8359350  79.9364420   3.3507480  45.3219890
  87.1412440   8.6110540  36.7737080  87.5808350   9.3534870  36.3592470
  87.0799330   8.8537110  37.6976040  82.6163410   9.6356370  47.6757100
  82.5878840  10.0399320  46.8085530  82.4528380   8.7066730  47.5128700
  79.1316340   2.2917080  35.5774220  79.0113940   3.0179170  34.9655490
  78.8217230   1.5219990  35.1002130  94.5678230  10.4183470  48.9721270
  95.0437950  10.8966360  49.6510350  95.1885390  10.3500960  48.2466770
  76.7701710   5.4632220  41.3842860  76.8482130   5.5980990  40.4398580
  77.3843390   4.7548110  41.5770980  78.0149340   7.1632410  37.7949040
  77.6077420   7.3047000  36.9402640  78.9062350   6.8792570  37.5920250
  93.9711480   7.6096320  46.1321280  94.0974540   7.3708200  45.2138460
  94.0132860   6.7780860  46.6043360  87.8328220  11.3124320  44.7016090
  88.3472890  11.2232330  45.5038520  86.9897300  11.6584020  44.9944000
  89.8082620  11.5979660  34.1300090  89.6483760  11.3082600  35.0281920
  89.6429330  10.8219790  33.5945320  82.2871000  11.3778190  35.9071710
  82.1113480  10.4613730  35.6939510  81.4326740  11.7365480  36.1469510
  89.5108750   9.1067220  32.6898090  88.8173910   9.1044510  32.0300370
  90.2531610   8.6826540  32.2592260  89.0758680  10.7329930  36.7646580
  89.5315630   9.9519310  37.0785200  89.4151200  11.4436750  37.3087760
  76.8261230   6.5046390  43.9237320  76.9892270   6.0351750  43.1056690
  77.2913680   5.9969950  44.5886160  83.3231030   1.9785800  32.2066400
  82.7547930   1.5304050  31.5802310  84.0320030   2.3378580  31.6731550
  78.4000210   5.8797820  46.0833130  78.0155000   5.2391490  46.6816090
  78.7112400   6.5833940  46.6527860  84.5497350   2.7274360  41.5641750
  84.9167480   2.2532930  42.3103090  84.3602410   3.6015930  41.9050090
  82.3396720   1.7683000  43.8825960  82.0353790   2.6474980  44.1076320
  83.2943180   1.8282790  43.9183400  80.8678510   5.9743990  34.4792810
  80.0940770   5.4341610  34.3191530  81.5973140   5.4550600  34.1410570
  91.6266490   4.9709350  40.2719200  92.3465610   5.4664640  39.8815310
  91.4248310   4.2927240  39.6273070  87.0085290   5.0418410  46.1588200
  86.9422600   4.1214080  45.9045790  86.3790430   5.1393850  46.8732840
  80.9115910   5.6424370  38.1171620  81.4294580   4.8392630  38.0628510
  80.4599930   5.5803510  38.9588450  85.7985410   6.9090650  33.3898920
  86.1401110   7.6532880  32.8942240  84.9698120   7.2221770  33.7523750
  78.3960450   2.6085740  45.0297320  78.0375390   3.2739590  45.6170660
  78.1015010   1.7769290  45.4009940  81.5973570   3.0669980  47.9136870
  81.2973710   3.2127160  47.0164690  82.3684810   2.5075270  47.8210260
  86.9402020   7.8638980  45.9092000  86.9546560   6.9319940  45.6910910
  86.2327120   7.9498740  46.5481770  92.0739090   2.0478800  32.1790610
  91.9902810   2.4793020  31.3287050  92.7933280   2.5077150  32.6117430
  93.1513230   4.5046320  45.2560580  92.4261420   5.0975100  45.0589970
  93.6788690   4.4969860  44.4573950  93.1026340   8.9021060  34.9072740
  92.4602500   8.2476680  35.1816460  92.7157000   9.3076150  34.1313410
  88.6812820   6.2306490  38.7544430  89.0336640   5.6334620  38.0945800
  87.7975150   5.9050720  38.9252680  84.7676100   6.9904180  36.1614840
  85.4547230   7.5373390  36.5422430  83.9808520   7.5344910  36.1964450
  76.9068500   2.6077000  31.6531920  77.7763350   2.8901800  31.9367840
  76.4158820   3.4212870  31.5380730  84.0703310   3.9950210  35.7740200
  84.5266090   4.8055460  36.0000390  83.7191520   3.6773350  36.6058690
  86.3735920   9.5056550  43.0032500  87.0178140   9.7115930  43.6805920
  86.7365360   8.7444950  42.5503350  87.6468000   7.5088900  41.7209950
  88.2890230   6.8082060  41.8342120  88.1717350   8.2887340  41.5406840
  91.4923720   7.7937520  31.4449090  91.2661300   7.0767960  32.0373730
  91.1019920   7.5449960  30.6070840  89.4205620   8.3083800  44.9246010
  89.7561860   8.8950490  45.6023930  88.5005960   8.1776510  45.1543800
  77.2739750  11.8204380  32.2193550  77.6337390  12.4193720  31.5650820
  77.1332090  12.3664270  32.9928580  91.0739970   5.7109460  33.1063250
  90.7861670   6.1722150  33.8941130  91.8692140   5.2507230  33.3747470
  77.2581610  10.0859240  46.6935950  77.3672730   9.1453980  46.5531340
  76.6062170  10.3513990  46.0449680  85.2494200   8.3575130  48.0934070
  84.9291070   7.6384370  48.6379760  84.5752560   9.0330200  48.1670130
  83.2908370   9.2035580  33.0367220  83.2818470   9.9365270  32.4211730
  82.3706730   8.9567160  33.1294180  78.8915010   4.4250470  33.7813980
  78.2842960   5.1649370  33.7909280  79.3664360   4.5149830  32.9552180
  86.2767970   9.2663820  31.6992410  86.3779950   9.0627810  30.7694390
  85.3769710   9.0122100  31.9040190  84.9186080  11.7850140  36.3940080
  85.1727580  11.7471530  35.4719450  83.9698560  11.6583470  36.3868330
  90.9238660   2.7042020  37.9698590  89.9828800   2.7192250  38.1446280
  91.2382730   1.9177980  38.4158890  80.9020300   4.3861620  31.5302550
  81.6683570   4.2742980  32.0927980  80.9794990   3.6899590  30.8779320
  92.9264240   9.8750870  39.6452850  93.0511660  10.6982040  40.1176660
  93.7929800   9.6641600  39.2977000  80.3981770  11.9682080  39.3169980
  81.1344250  11.4197540  39.5878550  80.7822690  12.8338090  39.1775970
  77.2827250   8.0355650  35.1911490  76.3567030   8.2776790  35.1816900
  77.7483680   8.8629910  35.0696240  79.4040050  11.1528150  48.5055560
  80.2052780  11.4740200  48.9190960  78.8891870  10.7923730  49.2275470
  83.5084080  11.1412390  31.1395550  84.3012690  11.4301220  30.6877340
  82.9888430  10.7104560  30.4608030  88.2404680   7.2608020  48.4530970
  87.6342840   7.2839620  47.7126720  87.9358790   6.5291060  48.9898220
  89.6705050  10.9888310  47.0640380  90.6226800  10.9046330  47.0140620
  89.5233270  11.6530020  47.7374170  92.5614250  10.3682520  32.5632290
  92.2755760   9.9547660  31.7486470  92.3633800  11.2970230  32.4432810
  77.1237860   3.6401610  47.4491610  77.6276880   3.0608890  48.0207840
  76.3845280   3.9241840  47.9867980  84.0261480   6.3615800  31.0037900
  83.9212120   5.7468150  31.7299280  83.8585700   5.8381690  30.2200910
  84.1775800   5.0472600  46.9827130  83.4121470   5.6157600  46.8981800
  84.3591760   4.7548810  46.0895360  87.2664210   5.4235830  31.6079890
  86.7174310   5.8705130  32.2522630  87.8883470   4.9185080  32.1317560
  91.3199150   6.7777930  47.5402150  92.0608620   7.1153690  47.0369610
  90.5571830   6.9469990  46.9871920  79.1560940   1.7831200  48.3441680
  79.1966280   1.4845070  49.2526910  80.0106440   2.1838810  48.1849200
  82.9339330   4.3826750  33.5045190  83.3555750   4.2166620  34.3476580
  83.0590170   3.5726980  33.0100330  85.4466970   3.4064360  30.7522290
  85.9672630   2.6913380  30.3863440  86.0935370   4.0450230  31.0522800
  89.9944810   4.8292760  46.0757360  90.4085830   4.9837840  46.9247780
  89.0595810   4.9547980  46.2383140  90.4666980   2.1688920  48.0796510
  91.0487750   1.4141240  47.9916990  90.6428750   2.6996360  47.3027990
  84.7560040   4.7813240  44.0453290  85.1748150   5.6245970  43.8729530
  83.8368670   4.9185280  43.8160070  87.0923940   2.5129420  45.4291130
  87.2120150   1.9170560  46.1685970  87.9517940   2.5499110  45.0092430
  89.4311840   3.0666610  44.0053640  88.9047060   3.5909230  43.4018780
  89.7743180   3.6994000  44.6363370  82.6067460  11.0866250  45.1611020
  82.0688550  11.8112310  44.8419720  82.8601420  10.6096590  44.3708360
  85.4629670  12.3217460  45.4197670  85.3888370  13.2252600  45.7270040
  84.5608510  12.0029360  45.3919740  86.0115000  11.4875970  33.0424030
  86.9065790  11.8260940  33.0642790  86.0432630  10.7655380  32.4148310
  79.6511160   6.8603020  31.2711030  80.0886030   7.4032690  31.9268610
  80.1358890   6.0349970  31.2807370  76.8656960   9.6492050  38.7231290
  77.1959970   8.7813110  38.4909930  77.2947960   9.8550570  39.5536250
  81.4618880   7.9801060  36.3833260  81.1614420   7.8566030  37.2837170
  81.3556370   7.1209650  35.9748990  77.3547170  10.5162640  41.4612920
  76.9178160  10.6963440  42.2937070  77.9224850  11.2737260  41.3194640
  92.9909350  10.0179640  45.7490230  92.3911340  10.0772200  45.0054150
  93.1203250   9.0784620  45.8787080  94.2310800   7.7597460  31.0859940
  93.4003760   7.8274110  31.5567170  94.4082630   8.6501580  30.7826800
  93.6867260   4.5044940  33.5894140  94.4486170   5.0741590  33.6953830
  93.7021630   3.9372140  34.3602450  77.1871600   3.0282870  37.8201800
  76.5320440   2.7594510  37.1761500  78.0249550   2.9187350  37.3703780
  94.6927230   5.3595040  38.4336070  95.0636060   4.5762360  38.0272040
  95.3329160   6.0484140  38.2553370  91.6760990   6.7431620  43.8466390
  90.8620830   7.1728780  44.1092180  92.0835190   7.3550030  43.2335440
  93.7386430   4.7979310  30.7466660  94.0135270   5.7058190  30.6185880
  93.5497170   4.7341840  31.6828650  93.6351770   2.7348300  35.7396090
  93.2595370   1.9676230  35.3077380  92.9054890   3.1171000  36.2271020
  78.2247530   3.4135440  42.3605140  78.5920570   3.3262840  43.2401160
  77.6558350   2.6501990  42.2612000  93.0251390   1.8819820  45.3735610
  92.7937480   1.6532570  44.4733560  93.2855940   2.8019370  45.3280500
  91.7337040  11.4950220  37.3734660  92.3296110  11.1734790  36.6969080
  91.9915190  11.0222040  38.1647930  79.6399610   7.9268130  47.5225290
  79.5969240   7.5561040  48.4039750  79.7710620   8.8645700  47.6627110
  83.3405640   9.4827720  43.1235010  83.0997000   9.7502280  42.2365530
  84.2808280   9.6533450  43.1785870  94.6009800  11.5022100  43.9245650
  94.1068080  11.8990970  43.2072780  93.9923090  10.8771310  44.3182930
  79.4787640  10.8730380  44.6423070  78.8847960  10.7415080  45.3813110
  79.4711480  10.0368520  44.1765170  92.2849250  12.1445520  41.2032390
  91.8252220  12.8961330  40.8290410  91.6561710  11.4251990  41.1447190
  79.1099870   8.2388760  43.5931110  78.3833930   7.6194050  43.5257060
  79.1709020   8.6329370  42.7229190  82.7144970  10.4533760  40.3780520
  83.2309990   9.8421120  39.8528780  83.3642350  10.9562540  40.8691530
  85.4540470  11.3442250  41.2049500  85.7418280  11.0896550  40.3282510
  85.9663690  10.7919610  41.7955070  77.3929870  11.5563150  36.8027870
  77.2251910  10.9233830  37.5009760  76.5264380  11.7622550  36.4522060
  78.9992570  10.2496380  34.2478010  78.4740190  10.6304410  33.5439970
  78.9237150  10.8747150  34.9687720  85.5212830  12.2658350  48.5717700
  86.4480140  12.0302620  48.6153660  85.5063260  13.0930350  48.0903730
  93.7557890  11.8083920  35.5691950  93.9310080  11.1221660  34.9252870
  93.0579460  12.3330970  35.1768620  81.5985540  12.1978760  33.1227260
  82.3304360  11.9138040  32.5751150  81.8579210  11.9592040  34.0126640
  80.7600330   8.3143490  33.1273590  80.1309210   8.7828590  33.6759420
  80.8748160   7.4692710  33.5619780  92.0890390  11.4928210  48.3958740
  92.8815710  10.9977440  48.1884700  92.3823540  12.1718350  49.0034350
  88.2150050   2.3649150  19.2774790  88.1344100   1.4503760  19.0066500
  87.8014470   2.8616220  18.5714500  86.3468090   4.1428170  21.1584060
  85.5710190   3.6628610  21.4482630  86.9981020   3.4633820  20.9840220
  80.3633920   4.4547980  22.0359820  79.5318800   4.1996690  22.4356330
  80.9714900   4.5258750  22.7717740  90.3675520   8.5488360  19.9383190
  89.9057050   7.7775600  20.2670360  91.1801070   8.5754430  20.4435640
  80.3435180   8.4888070  22.2317840  80.6463220   7.5985810  22.0528060
  81.0878770   9.0458290  22.0040090  86.5938830  10.8346370  19.5587180
  85.9750270  11.2903870  18.9881620  87.4490610  10.9897830  19.1576880
  85.7877080   6.8185360  21.1654220  85.7185360   5.8775300  21.0043350
  86.5496940   6.9086770  21.7376790  87.4602180   5.7185610  16.9519090
  86.8419450   6.1835060  16.3881810  87.9725430   6.4113090  17.3688600
  82.3233940   5.2461480  23.6302690  81.9903320   5.8730400  24.2723760
  82.5000620   5.7723360  22.8504360  81.5353040   7.2142280  25.4451870
  82.1527040   7.8893360  25.1636320  80.6746160   7.6230260  25.3539370
  76.8285380   6.4042140  14.3258720  76.4513360   6.8929240  13.5943620
  77.0858450   7.0767420  14.9565250  92.4530630   8.6781690  23.3606510
  91.7694150   9.3480800  23.3523180  92.9924920   8.8762340  22.5951370
  89.9889370  10.5225820  22.0751690  90.0016530  10.1188110  21.2073950
  89.4364590  11.2973110  21.9713120  91.2834790   7.2442040  17.1641860
  91.1731120   6.3016370  17.2891280  91.2803040   7.6057680  18.0504620
  89.3874810   5.4255660  23.4034300  89.8043600   5.2115770  22.5687760
  90.1114630   5.6828450  23.9742920  86.8255070   2.8707360  16.5204350
  85.8984350   2.8044740  16.7492820  86.9779890   3.8087490  16.4059590
  93.3336910   3.8242880  23.4950540  92.5055540   3.8935970  23.0200670
  93.9287390   4.4097190  23.0266370  90.8552360   4.4327660  17.0239600
  90.2364780   4.0947210  16.3765900  90.8376810   3.7887420  17.7318790
  82.4311710   3.3972100  19.3024080  82.0268710   2.6849350  18.8069980
  82.5174830   3.0525340  20.1912120  82.8993410   7.0839660  21.4663290
  82.6021700   6.4785130  20.7871070  83.8493230   7.1216970  21.3552650
  90.9879020  10.6571530  25.1286390  90.5109580  11.4643720  24.9359000
  90.3040810  10.0049860  25.2812600  81.9911840   6.8221350  28.1171090
  81.0940370   7.0461320  28.3644490  82.0164710   6.9456290  27.1682490
  89.0317060   3.6714470  14.0312350  89.4710340   2.8336900  13.8850170
  89.7445480   4.3043870  14.1176490  80.8183060   3.6934670  26.6928460
  80.6790830   4.5657470  27.0615860  79.9364420   3.3507480  26.5476400
  87.1412440   8.6110540  17.9993590  87.5808350   9.3534870  17.5848980
  87.0799330   8.8537110  18.9232550  82.6163410   9.6356370  28.9013610
  82.5878840  10.0399320  28.0342040  82.4528380   8.7066730  28.7385210
  79.1316340   2.2917080  16.8030730  79.0113940   3.0179170  16.1912000
  78.8217230   1.5219990  16.3258640  94.5678230  10.4183470  30.1977780
  95.0437950  10.8966360  30.8766860  95.1885390  10.3500960  29.4723280
  76.7701710   5.4632220  22.6099370  76.8482130   5.5980990  21.6655090
  77.3843390   4.7548110  22.8027490  78.0149340   7.1632410  19.0205550
  77.6077420   7.3047000  18.1659150  78.9062350   6.8792570  18.8176760
  93.9711480   7.6096320  27.3577790  94.0974540   7.3708200  26.4394970
  94.0132860   6.7780860  27.8299870  87.8328220  11.3124320  25.9272600
  88.3472890  11.2232330  26.7295030  86.9897300  11.6584020  26.2200510
  89.8082620  11.5979660  15.3556600  89.6483760  11.3082600  16.2538430
  89.6429330  10.8219790  14.8201830  82.2871000  11.3778190  17.1328220
  82.1113480  10.4613730  16.9196020  81.4326740  11.7365480  17.3726020
  89.5108750   9.1067220  13.9154600  88.8173910   9.1044510  13.2556880
  90.2531610   8.6826540  13.4848770  89.0758680  10.7329930  17.9903090
  89.5315630   9.9519310  18.3041710  89.4151200  11.4436750  18.5344270
  76.8261230   6.5046390  25.1493830  76.9892270   6.0351750  24.3313200
  77.2913680   5.9969950  25.8142670  83.3231030   1.9785800  13.4322910
  82.7547930   1.5304050  12.8058820  84.0320030   2.3378580  12.8988060
  78.4000210   5.8797820  27.3089640  78.0155000   5.2391490  27.9072600
  78.7112400   6.5833940  27.8784370  84.5497350   2.7274360  22.7898260
  84.9167480   2.2532930  23.5359600  84.3602410   3.6015930  23.1306600
  82.3396720   1.7683000  25.1082470  82.0353790   2.6474980  25.3332830
  83.2943180   1.8282790  25.1439910  80.8678510   5.9743990  15.7049320
  80.0940770   5.4341610  15.5448040  81.5973140   5.4550600  15.3667080
  91.6266490   4.9709350  21.4975710  92.3465610   5.4664640  21.1071820
  91.4248310   4.2927240  20.8529580  87.0085290   5.0418410  27.3844710
  86.9422600   4.1214080  27.1302300  86.3790430   5.1393850  28.0989350
  80.9115910   5.6424370  19.3428130  81.4294580   4.8392630  19.2885020
  80.4599930   5.5803510  20.1844960  85.7985410   6.9090650  14.6155430
  86.1401110   7.6532880  14.1198750  84.9698120   7.2221770  14.9780260
  78.3960450   2.6085740  26.2553830  78.0375390   3.2739590  26.8427170
  78.1015010   1.7769290  26.6266450  81.5973570   3.0669980  29.1393380
  81.2973710   3.2127160  28.2421200  82.3684810   2.5075270  29.0466770
  86.9402020   7.8638980  27.1348510  86.9546560   6.9319940  26.9167420
  86.2327120   7.9498740  27.7738280  92.0739090   2.0478800  13.4047120
  91.9902810   2.4793020  12.5543560  92.7933280   2.5077150  13.8373940
  93.1513230   4.5046320  26.4817090  92.4261420   5.0975100  26.2846480
  93.6788690   4.4969860  25.6830460  93.1026340   8.9021060  16.1329250
  92.4602500   8.2476680  16.4072970  92.7157000   9.3076150  15.3569920
  88.6812820   6.2306490  19.9800940  89.0336640   5.6334620  19.3202310
  87.7975150   5.9050720  20.1509190  84.7676100   6.9904180  17.3871350
  85.4547230   7.5373390  17.7678940  83.9808520   7.5344910  17.4220960
  76.9068500   2.6077000  12.8788430  77.7763350   2.8901800  13.1624350
  76.4158820   3.4212870  12.7637240  84.0703310   3.9950210  16.9996710
  84.5266090   4.8055460  17.2256900  83.7191520   3.6773350  17.8315200
  86.3735920   9.5056550  24.2289010  87.0178140   9.7115930  24.9062430
  86.7365360   8.7444950  23.7759860  87.6468000   7.5088900  22.9466460
  88.2890230   6.8082060  23.0598630  88.1717350   8.2887340  22.7663350
  91.4923720   7.7937520  12.6705600  91.2661300   7.0767960  13.2630240
  91.1019920   7.5449960  11.8327350  89.4205620   8.3083800  26.1502520
  89.7561860   8.8950490  26.8280440  88.5005960   8.1776510  26.3800310
  77.2739750  11.8204380  13.4450060  77.6337390  12.4193720  12.7907330
  77.1332090  12.3664270  14.2185090  91.0739970   5.7109460  14.3319760
  90.7861670   6.1722150  15.1197640  91.8692140   5.2507230  14.6003980
  77.2581610  10.0859240  27.9192460  77.3672730   9.1453980  27.7787850
  76.6062170  10.3513990  27.2706190  85.2494200   8.3575130  29.3190580
  84.9291070   7.6384370  29.8636270  84.5752560   9.0330200  29.3926640
  83.2908370   9.2035580  14.2623730  83.2818470   9.9365270  13.6468240
  82.3706730   8.9567160  14.3550690  78.8915010   4.4250470  15.0070490
  78.2842960   5.1649370  15.0165790  79.3664360   4.5149830  14.1808690
  86.2767970   9.2663820  12.9248920  86.3779950   9.0627810  11.9950900
  85.3769710   9.0122100  13.1296700  84.9186080  11.7850140  17.6196590
  85.1727580  11.7471530  16.6975960  83.9698560  11.6583470  17.6124840
  90.9238660   2.7042020  19.1955100  89.9828800   2.7192250  19.3702790
  91.2382730   1.9177980  19.6415400  80.9020300   4.3861620  12.7559060
  81.6683570   4.2742980  13.3184490  80.9794990   3.6899590  12.1035830
  92.9264240   9.8750870  20.8709360  93.0511660  10.6982040  21.3433170
  93.7929800   9.6641600  20.5233510  80.3981770  11.9682080  20.5426490
  81.1344250  11.4197540  20.8135060  80.7822690  12.8338090  20.4032480
  77.2827250   8.0355650  16.4168000  76.3567030   8.2776790  16.4073410
  77.7483680   8.8629910  16.2952750  79.4040050  11.1528150  29.7312070
  80.2052780  11.4740200  30.1447470  78.8891870  10.7923730  30.4531980
  83.5084080  11.1412390  12.3652060  84.3012690  11.4301220  11.9133850
  82.9888430  10.7104560  11.6864540  88.2404680   7.2608020  29.6787480
  87.6342840   7.2839620  28.9383230  87.9358790   6.5291060  30.2154730
  89.6705050  10.9888310  28.2896890  90.6226800  10.9046330  28.2397130
  89.5233270  11.6530020  28.9630680  92.5614250  10.3682520  13.7888800
  92.2755760   9.9547660  12.9742980  92.3633800  11.2970230  13.6689320
  77.1237860   3.6401610  28.6748120  77.6276880   3.0608890  29.2464350
  76.3845280   3.9241840  29.2124490  84.0261480   6.3615800  12.2294410
  83.9212120   5.7468150  12.9555790  83.8585700   5.8381690  11.4457420
  84.1775800   5.0472600  28.2083640  83.4121470   5.6157600  28.1238310
  84.3591760   4.7548810  27.3151870  87.2664210   5.4235830  12.8336400
  86.7174310   5.8705130  13.4779140  87.8883470   4.9185080  13.3574070
  91.3199150   6.7777930  28.7658660  92.0608620   7.1153690  28.2626120
  90.5571830   6.9469990  28.2128430  79.1560940   1.7831200  29.5698190
  79.1966280   1.4845070  30.4783420  80.0106440   2.1838810  29.4105710
  82.9339330   4.3826750  14.7301700  83.3555750   4.2166620  15.5733090
  83.0590170   3.5726980  14.2356840  85.4466970   3.4064360  11.9778800
  85.9672630   2.6913380  11.6119950  86.0935370   4.0450230  12.2779310
  89.9944810   4.8292760  27.3013870  90.4085830   4.9837840  28.1504290
  89.0595810   4.9547980  27.4639650  90.4666980   2.1688920  29.3053020
  91.0487750   1.4141240  29.2173500  90.6428750   2.6996360  28.5284500
  84.7560040   4.7813240  25.2709800  85.1748150   5.6245970  25.0986040
  83.8368670   4.9185280  25.0416580  87.0923940   2.5129420  26.6547640
  87.2120150   1.9170560  27.3942480  87.9517940   2.5499110  26.2348940
  89.4311840   3.0666610  25.2310150  88.9047060   3.5909230  24.6275290
  89.7743180   3.6994000  25.8619880  82.6067460  11.0866250  26.3867530
  82.0688550  11.8112310  26.0676230  82.8601420  10.6096590  25.5964870
  85.4629670  12.3217460  26.6454180  85.3888370  13.2252600  26.9526550
  84.5608510  12.0029360  26.6176250  86.0115000  11.4875970  14.2680540
  86.9065790  11.8260940  14.2899300  86.0432630  10.7655380  13.6404820
  79.6511160   6.8603020  12.4967540  80.0886030   7.4032690  13.1525120
  80.1358890   6.0349970  12.5063880  76.8656960   9.6492050  19.9487800
  77.1959970   8.7813110  19.7166440  77.2947960   9.8550570  20.7792760
  81.4618880   7.9801060  17.6089770  81.1614420   7.8566030  18.5093680
  81.3556370   7.1209650  17.2005500  77.3547170  10.5162640  22.6869430
  76.9178160  10.6963440  23.5193580  77.9224850  11.2737260  22.5451150
  92.9909350  10.0179640  26.9746740  92.3911340  10.0772200  26.2310660
  93.1203250   9.0784620  27.1043590  94.2310800   7.7597460  12.3116450
  93.4003760   7.8274110  12.7823680  94.4082630   8.6501580  12.0083310
  93.6867260   4.5044940  14.8150650  94.4486170   5.0741590  14.9210340
  93.7021630   3.9372140  15.5858960  77.1871600   3.0282870  19.0458310
  76.5320440   2.7594510  18.4018010  78.0249550   2.9187350  18.5960290
  94.6927230   5.3595040  19.6592580  95.0636060   4.5762360  19.2528550
  95.3329160   6.0484140  19.4809880  91.6760990   6.7431620  25.0722900
  90.8620830   7.1728780  25.3348690  92.0835190   7.3550030  24.4591950
  93.7386430   4.7979310  11.9723170  94.0135270   5.7058190  11.8442390
  93.5497170   4.7341840  12.9085160  93.6351770   2.7348300  16.9652600
  93.2595370   1.9676230  16.5333890  92.9054890   3.1171000  17.4527530
  78.2247530   3.4135440  23.5861650  78.5920570   3.3262840  24.4657670
  77.6558350   2.6501990  23.4868510  93.0251390   1.8819820  26.5992120
  92.7937480   1.6532570  25.6990070  93.2855940   2.8019370  26.5537010
  91.7337040  11.4950220  18.5991170  92.3296110  11.1734790  17.9225590
  91.9915190  11.0222040  19.3904440  79.6399610   7.9268130  28.7481800
  79.5969240   7.5561040  29.6296260  79.7710620   8.8645700  28.8883620
  83.3405640   9.4827720  24.3491520  83.0997000   9.7502280  23.4622040
  84.2808280   9.6533450  24.4042380  94.6009800  11.5022100  25.1502160
  94.1068080  11.8990970  24.4329290  93.9923090  10.8771310  25.5439440
  79.4787640  10.8730380  25.8679580  78.8847960  10.7415080  26.6069620
  79.4711480  10.0368520  25.4021680  92.2849250  12.1445520  22.4288900
  91.8252220  12.8961330  22.0546920  91.6561710  11.4251990  22.3703700
  79.1099870   8.2388760  24.8187620  78.3833930   7.6194050  24.7513570
  79.1709020   8.6329370  23.9485700  82.7144970  10.4533760  21.6037030
  83.2309990   9.8421120  21.0785290  83.3642350  10.9562540  22.0948040
  85.4540470  11.3442250  22.4306010  85.7418280  11.0896550  21.5539020
  85.9663690  10.7919610  23.0211580  77.3929870  11.5563150  18.0284380
  77.2251910  10.9233830  18.7266270  76.5264380  11.7622550  17.6778570
  78.9992570  10.2496380  15.4734520  78.4740190  10.6304410  14.7696480
  78.9237150  10.8747150  16.1944230  85.5212830  12.2658350  29.7974210
  86.4480140  12.0302620  29.8410170  85.5063260  13.0930350  29.3160240
  93.7557890  11.8083920  16.7948460  93.9310080  11.1221660  16.1509380
  93.0579460  12.3330970  16.4025130  81.5985540  12.1978760  14.3483770
  82.3304360  11.9138040  13.8007660  81.8579210  11.9592040  15.2383150
  80.7600330   8.3143490  14.3530100  80.1309210   8.7828590  14.9015930
  80.8748160   7.4692710  14.7876290  92.0890390  11.4928210  29.6215250
  92.8815710  10.9977440  29.4141210  92.3823540  12.1718350  30.2290860
  86.3468090   4.1428170   2.3840570  85.5710190   3.6628610   2.6739140
  86.9981020   3.4633820   2.2096730  80.3633920   4.4547980   3.2616330
  79.5318800   4.1996690   3.6612840  80.9714900   4.5258750   3.9974250
  80.3435180   8.4888070   3.4574350  80.6463220   7.5985810   3.2784570
  81.0878770   9.0458290   3.2296600  85.7877080   6.8185360   2.3910730
  85.7185360   5.8775300   2.2299860  86.5496940   6.9086770   2.9633300
  82.3233940   5.2461480   4.8559200  81.9903320   5.8730400   5.4980270
  82.5000620   5.7723360   4.0760870  81.5353040   7.2142280   6.6708380
  82.1527040   7.8893360   6.3892830  80.6746160   7.6230260   6.5795880
  92.4530630   8.6781690   4.5863020  91.7694150   9.3480800   4.5779690
  92.9924920   8.8762340   3.8207880  89.9889370  10.5225820   3.3008200
  90.0016530  10.1188110   2.4330460  89.4364590  11.2973110   3.1969630
  89.3874810   5.4255660   4.6290810  89.8043600   5.2115770   3.7944270
  90.1114630   5.6828450   5.1999430  93.3336910   3.8242880   4.7207050
  92.5055540   3.8935970   4.2457180  93.9287390   4.4097190   4.2522880
  82.8993410   7.0839660   2.6919800  82.6021700   6.4785130   2.0127580
  83.8493230   7.1216970   2.5809160  90.9879020  10.6571530   6.3542900
  90.5109580  11.4643720   6.1615510  90.3040810  10.0049860   6.5069110
  81.9911840   6.8221350   9.3427600  81.0940370   7.0461320   9.5901000
  82.0164710   6.9456290   8.3939000  80.8183060   3.6934670   7.9184970
  80.6790830   4.5657470   8.2872370  79.9364420   3.3507480   7.7732910
  82.6163410   9.6356370  10.1270120  82.5878840  10.0399320   9.2598550
  82.4528380   8.7066730   9.9641720  94.5678230  10.4183470  11.4234290
  95.0437950  10.8966360  12.1023370  95.1885390  10.3500960  10.6979790
  76.7701710   5.4632220   3.8355880  76.8482130   5.5980990   2.8911600
  77.3843390   4.7548110   4.0284000  93.9711480   7.6096320   8.5834300
  94.0974540   7.3708200   7.6651480  94.0132860   6.7780860   9.0556380
  87.8328220  11.3124320   7.1529110  88.3472890  11.2232330   7.9551540
  86.9897300  11.6584020   7.4457020  76.8261230   6.5046390   6.3750340
  76.9892270   6.0351750   5.5569710  77.2913680   5.9969950   7.0399180
  78.4000210   5.8797820   8.5346150  78.0155000   5.2391490   9.1329110
  78.7112400   6.5833940   9.1040880  84.5497350   2.7274360   4.0154770
  84.9167480   2.2532930   4.7616110  84.3602410   3.6015930   4.3563110
  82.3396720   1.7683000   6.3338980  82.0353790   2.6474980   6.5589340
  83.2943180   1.8282790   6.3696420  91.6266490   4.9709350   2.7232220
  92.3465610   5.4664640   2.3328330  91.4248310   4.2927240   2.0786090
  87.0085290   5.0418410   8.6101220  86.9422600   4.1214080   8.3558810
  86.3790430   5.1393850   9.3245860  78.3960450   2.6085740   7.4810340
  78.0375390   3.2739590   8.0683680  78.1015010   1.7769290   7.8522960
  81.5973570   3.0669980  10.3649890  81.2973710   3.2127160   9.4677710
  82.3684810   2.5075270  10.2723280  86.9402020   7.8638980   8.3605020
  86.9546560   6.9319940   8.1423930  86.2327120   7.9498740   8.9994790
  93.1513230   4.5046320   7.7073600  92.4261420   5.0975100   7.5102990
  93.6788690   4.4969860   6.9086970  86.3735920   9.5056550   5.4545520
  87.0178140   9.7115930   6.1318940  86.7365360   8.7444950   5.0016370
  87.6468000   7.5088900   4.1722970  88.2890230   6.8082060   4.2855140
  88.1717350   8.2887340   3.9919860  89.4205620   8.3083800   7.3759030
  89.7561860   8.8950490   8.0536950  88.5005960   8.1776510   7.6056820
  77.2581610  10.0859240   9.1448970  77.3672730   9.1453980   9.0044360
  76.6062170  10.3513990   8.4962700  85.2494200   8.3575130  10.5447090
  84.9291070   7.6384370  11.0892780  84.5752560   9.0330200  10.6183150
  92.9264240   9.8750870   2.0965870  93.0511660  10.6982040   2.5689680
  93.7929800   9.6641600   1.7490020  80.3981770  11.9682080   1.7683000
  81.1344250  11.4197540   2.0391570  80.7822690  12.8338090   1.6288990
  79.4040050  11.1528150  10.9568580  80.2052780  11.4740200  11.3703980
  78.8891870  10.7923730  11.6788490  88.2404680   7.2608020  10.9043990
  87.6342840   7.2839620  10.1639740  87.9358790   6.5291060  11.4411240
  89.6705050  10.9888310   9.5153400  90.6226800  10.9046330   9.4653640
  89.5233270  11.6530020  10.1887190  77.1237860   3.6401610   9.9004630
  77.6276880   3.0608890  10.4720860  76.3845280   3.9241840  10.4381000
  84.1775800   5.0472600   9.4340150  83.4121470   5.6157600   9.3494820
  84.3591760   4.7548810   8.5408380  91.3199150   6.7777930   9.9915170
  92.0608620   7.1153690   9.4882630  90.5571830   6.9469990   9.4384940
  79.1560940   1.7831200  10.7954700  79.1966280   1.4845070  11.7039930
  80.0106440   2.1838810  10.6362220  89.9944810   4.8292760   8.5270380
  90.4085830   4.9837840   9.3760800  89.0595810   4.9547980   8.6896160
  90.4666980   2.1688920  10.5309530  91.0487750   1.4141240  10.4430010
  90.6428750   2.6996360   9.7541010  84.7560040   4.7813240   6.4966310
  85.1748150   5.6245970   6.3242550  83.8368670   4.9185280   6.2673090
  87.0923940   2.5129420   7.8804150  87.2120150   1.9170560   8.6198990
  87.9517940   2.5499110   7.4605450  89.4311840   3.0666610   6.4566660
  88.9047060   3.5909230   5.8531800  89.7743180   3.6994000   7.0876390
  82.6067460  11.0866250   7.6124040  82.0688550  11.8112310   7.2932740
  82.8601420  10.6096590   6.8221380  85.4629670  12.3217460   7.8710690
  85.3888370  13.2252600   8.1783060  84.5608510  12.0029360   7.8432760
  77.3547170  10.5162640   3.9125940  76.9178160  10.6963440   4.7450090
  77.9224850  11.2737260   3.7707660  92.9909350  10.0179640   8.2003250
  92.3911340  10.0772200   7.4567170  93.1203250   9.0784620   8.3300100
  91.6760990   6.7431620   6.2979410  90.8620830   7.1728780   6.5605200
  92.0835190   7.3550030   5.6848460  78.2247530   3.4135440   4.8118160
  78.5920570   3.3262840   5.6914180  77.6558350   2.6501990   4.7125020
  93.0251390   1.8819820   7.8248630  92.7937480   1.6532570   6.9246580
  93.2855940   2.8019370   7.7793520  79.6399610   7.9268130   9.9738310
  79.5969240   7.5561040  10.8552770  79.7710620   8.8645700  10.1140130
  83.3405640   9.4827720   5.5748030  83.0997000   9.7502280   4.6878550
  84.2808280   9.6533450   5.6298890  94.6009800  11.5022100   6.3758670
  94.1068080  11.8990970   5.6585800  93.9923090  10.8771310   6.7695950
  79.4787640  10.8730380   7.0936090  78.8847960  10.7415080   7.8326130
  79.4711480  10.0368520   6.6278190  92.2849250  12.1445520   3.6545410
  91.8252220  12.8961330   3.2803430  91.6561710  11.4251990   3.5960210
  79.1099870   8.2388760   6.0444130  78.3833930   7.6194050   5.9770080
  79.1709020   8.6329370   5.1742210  82.7144970  10.4533760   2.8293540
  83.2309990   9.8421120   2.3041800  83.3642350  10.9562540   3.3204550
  85.4540470  11.3442250   3.6562520  85.7418280  11.0896550   2.7795530
  85.9663690  10.7919610   4.2468090  85.5212830  12.2658350  11.0230720
  86.4480140  12.0302620  11.0666680  85.5063260  13.0930350  10.5416750
  92.0890390  11.4928210  10.8471760  92.8815710  10.9977440  10.6397720
  92.3823540  12.1718350  11.4547370  69.4406560 152.5597070 150.6979220
  69.3600610 151.6451680 150.4270930  69.0270980 153.0564140 149.9918930
  67.5724600 154.3376090 152.5788490  66.7966700 153.8576530 152.8687060
  68.2237530 153.6581740 152.4044650  59.9982380 149.6097790 147.2406640
  59.1099080 149.9513760 147.1386520  60.2823570 149.4098110 146.3487470
  57.9615390 152.2103440 153.1246340  58.5331500 151.4425640 153.1249980
  57.9616930 152.5092200 152.2152950  68.0438760 149.8203660 152.8127580
  68.4203580 148.9475540 152.7001250  67.9458270 150.1562360 151.9218020
  62.1743770 148.1929290 148.2745020  62.2810520 149.0933020 148.5813780
  61.2636130 148.1447260 147.9839670  71.8262880 147.3154100 149.7455920
  72.6472500 146.8250670 149.7881400  71.8596960 147.9051760 150.4987760
  72.0624360 149.2554480 152.5183460  71.3579930 149.5439370 153.0986570
  72.4236520 150.0654590 152.1583020  65.6630820 145.0006450 151.2048660
  65.9705800 144.4453340 150.4884160  64.7331520 145.1350910 151.0221650
  68.0511580 153.0655280 147.9408780  67.1240860 152.9992660 148.1697250
  68.2036400 154.0035410 147.8264020  68.0380660 149.3372280 144.9375940
  67.0984330 149.4986240 145.0228400  68.3563920 150.0557960 144.3911930
  72.0808870 154.6275580 148.4444030  71.4621290 154.2895130 147.7970330
  72.0633320 153.9835340 149.1523220  63.6568220 153.5920020 150.7228510
  63.2525220 152.8797270 150.2274410  63.7431340 153.2473260 151.6116550
  70.2573570 153.8662390 145.4516780  70.6966850 153.0284820 145.3054600
  70.9701990 154.4991790 145.5380920  73.8390710 145.1205200 143.7657820
  73.5263370 145.2132030 144.6656890  74.6003180 145.6986230 143.7155250
  60.3572850 152.4865000 148.2235160  60.2370450 153.2127090 147.6116430
  60.0473740 151.7167910 147.7463070  62.8236510 145.8300070 151.6058830
  62.3804660 146.6109610 151.2743350  63.3821500 146.1529960 152.3129770
  65.9395330 145.4510770 146.4864660  65.3149510 145.4470640 147.2117970
  65.8525450 144.5841730 146.0900630  62.6150730 150.9533640 149.3340080
  62.3891650 150.7370810 150.2386700  61.8343260 151.3862100 148.9886050
  69.8448490 150.9597010 147.9330730  69.2457380 151.6832810 147.7494350
  70.3928100 150.8973790 147.1507180  68.4513360 149.5960550 149.9634010
  68.8442930 149.9132750 149.1502700  68.8130210 148.7172430 150.0778530
  57.4877530 146.1861350 152.1864210  57.1990580 146.7564210 152.8989190
  58.2323290 145.7065800 152.5495440  57.6747760 150.1281470 143.3966930
  57.5922430 151.0712230 143.5381920  57.3230820 149.9856380 142.5179280
  65.4745890 148.8620500 152.4637280  65.4781950 148.4210450 151.6141820
  66.3697010 149.1837830 152.5709100  61.3248270 148.7446990 151.4231490
  60.9848320 149.2222220 152.1798540  60.5625590 148.2912110 151.0632590
  65.5366040 149.8632580 145.4544040  65.6578860 149.8219060 146.4029860
  65.1514550 150.7256730 145.2990770  64.5487540 152.1733720 144.8527340
  63.9804440 151.7251970 144.2263250  65.2576540 152.5326500 144.3192490
  58.6394350 147.6665970 150.3396160  58.3541270 147.3021640 151.1774780
  58.5773210 146.9346430 149.7259300  68.3132940 146.5595230 147.0609530
  67.4997550 146.0608400 146.9854840  68.1194890 147.3993480 146.6445880
  71.0281330 150.9314880 145.3571690  71.9160950 151.2432110 145.1823030
  70.9986420 150.0587130 144.9652270  73.2995600 152.2426720 144.8251550
  73.2159320 152.6740940 143.9747990  74.0189790 152.7025070 145.2578370
  58.1325010 152.8024920 144.2992860  59.0019860 153.0849720 144.5828780
  57.6415330 153.6160790 144.1841670  65.2959820 154.1898130 148.4201140
  65.7522600 155.0003380 148.6461330  64.9448030 153.8721270 149.2519630
  61.1971600 144.5335780 148.8923660  61.0686230 144.5253680 149.8408580
  60.3733620 144.8718870 148.5414670  73.0566340 147.7406150 146.9119370
  72.4279500 147.8451820 146.1977600  72.5618260 147.9602930 147.7013250
  65.0250370 150.0192100 148.3277250  64.3166520 150.4878440 148.7690860
  65.3094850 149.3614110 148.9622440  69.0565800 146.7442760 149.7673040
  68.9333580 146.7628890 148.8182550  70.0050360 146.7921700 149.8871440
  63.2285390 148.3277180 145.7027960  64.0775920 148.7647330 145.6368150
  62.8616660 148.6397440 146.5300020  72.1495170 152.8989940 150.6159530
  71.2085310 152.9140170 150.7907220  72.4639240 152.1125900 151.0619830
  62.1276810 154.5809540 144.1763490  62.8940080 154.4690900 144.7388920
  62.2051500 153.8847510 143.5240260  60.8223570 152.0134610 144.8596380
  60.9027160 151.0662120 144.9713780  61.7143320 152.3441490 144.9657040
  64.1595840 154.5774670 146.1506130  64.5812260 154.4114540 146.9937520
  64.2846680 153.7674900 145.6561270  66.6723480 153.6012280 143.3983230
  67.1929140 152.8861300 143.0324380  67.3191880 154.2398150 143.6983740
  63.0554740 150.6507900 143.0964290  62.8543800 149.7875260 143.4577630
  62.8846790 150.5641260 142.1585890  70.5343050 145.4616130 145.6251170
  70.8145340 144.6184030 145.9810590  69.7608780 145.6939240 146.1389920
  61.8537540 147.7508520 143.0842170  62.1563440 147.7575950 142.1761320
  62.5932130 147.4006380 143.5809830  65.0722470 146.6943140 144.0698370
  64.7244470 146.0167130 143.4900820  65.2735240 146.2332650 144.8841760
  58.4128110 153.2230790 150.4662740  57.7576950 152.9542430 149.8222440
  59.2506060 153.1135270 150.0164720  71.3618550 148.0172080 144.6881230
  71.7803430 147.8303060 143.8477890  71.0554610 147.1651130 144.9984160
  74.8608280 152.9296220 148.3857030  74.4851880 152.1624150 147.9538320
  74.1311400 153.3118920 148.8731960  57.6266190 150.4329720 146.4088070
  56.7230270 150.6959920 146.2339730  58.1106810 150.7040890 145.6288030
  74.1359240 151.1553710 151.6864270  74.6596720 150.6616360 151.0554440
  74.7218660 151.2904070 152.4311840  60.1693400 149.4895260 144.3182450
  60.8785100 149.0678480 143.8329730  59.4533340 149.5570490 143.6865800
  59.8167560 145.5434590 143.3585100  60.5395690 146.0843530 143.6766320
  60.0892080 145.2698010 142.4826640  73.6259210 150.4127060 147.6256680
  74.1218330 150.1797930 148.4105560  73.4275280 149.5738900 147.2094320
  75.0546370 149.0488010 150.1594360  74.9445650 148.8944050 151.0976630
  75.8153960 148.5208950 149.9169770  75.9436640 146.8795930 143.4000500
  76.8685950 146.7477110 143.1918790  75.9212430 146.9588750 144.3536950
  76.0175130 147.6506590 146.0257210  75.2226630 147.5851710 146.5550120
  76.2218410 148.5857230 146.0142560  72.4495060 145.9803470 152.4756040
  72.8903150 145.9248570 151.6277640  72.1802650 146.8961480 152.5466220
  74.3133630 145.6118710 150.4864860  74.2522030 144.6679930 150.3395880
  75.0925660 145.7198800 151.0318320  59.2414400 145.5827850 146.9520670
  59.9993760 145.6956730 146.3784700  58.7791570 146.4197050 146.9064100
  65.7828210 147.6967120 149.9422980  64.9702720 147.3224010 149.6018860
  66.2869850 146.9412200 150.2444170  70.2853190 144.3609570 151.1806050
  70.8882560 144.9329780 151.6554570  69.5446180 144.9249010 150.9579950
  73.4287790 144.7631130 146.4546330  73.6238420 145.6614580 146.7213760
  72.6417660 144.5318210 146.9479280  61.6139550 146.1091900 145.4922640
  62.1432310 145.3221700 145.3630590  62.2467870 146.7883090 145.7258170
  63.8077390 145.8467040 148.5468030  63.1780130 145.1454350 148.7138160
  63.2682530 146.6071170 148.3301190  69.4406560 152.5597070 131.9235730
  69.3600610 151.6451680 131.6527440  69.0270980 153.0564140 131.2175440
  67.5724600 154.3376090 133.8045000  66.7966700 153.8576530 134.0943570
  68.2237530 153.6581740 133.6301160  61.5890430 154.6495900 134.6820760
  60.7575310 154.3944610 135.0817270  62.1971410 154.7206670 135.4178680
  59.9982380 149.6097790 128.4663150  59.1099080 149.9513760 128.3643030
  60.2823570 149.4098110 127.5743980  57.9615390 152.2103440 134.3502850
  58.5331500 151.4425640 134.3506490  57.9616930 152.5092200 133.4409460
  59.2040260 147.6187800 136.1371780  59.0243100 146.7213550 136.4174540
  58.8020340 148.1659670 136.8118730  68.0438760 149.8203660 134.0384090
  68.4203580 148.9475540 133.9257760  67.9458270 150.1562360 133.1474530
  62.1743770 148.1929290 129.5001530  62.2810520 149.0933020 129.8070290
  61.2636130 148.1447260 129.2096180  71.8262880 147.3154100 130.9712430
  72.6472500 146.8250670 131.0137910  71.8596960 147.9051760 131.7244270
  59.8226930 150.1148300 134.7454120  60.5037040 150.3786670 135.3641520
  59.5074980 149.2749170 135.0792130  64.0151500 151.1615660 133.8326710
  64.5229720 151.6596630 134.4731730  64.5464740 150.3850860 133.6566070
  76.1162430 149.3320850 137.5356060  75.4114600 149.7202560 137.0171170
  76.3820350 150.0271140 138.1376990  62.2987600 145.8014220 138.0990130
  62.3006040 146.3186610 137.2936030  61.4691910 145.3244400 138.0760060
  72.0624360 149.2554480 133.7439970  71.3579930 149.5439370 134.3243080
  72.4236520 150.0654590 133.3839530  61.9802930 147.5124180 136.1060580
  62.3219740 148.3566230 135.8114450  61.0418740 147.6607920 136.2225920
  75.1311280 148.7009270 134.1349180  74.1836190 148.7348250 134.2664610
  75.4561270 149.5148220 134.5198540  65.6630820 145.0006450 132.4305170
  65.9705800 144.4453340 131.7140670  64.7331520 145.1350910 132.2478160
  68.0511580 153.0655280 129.1665290  67.1240860 152.9992660 129.3953760
  68.2036400 154.0035410 129.0520530  68.0380660 149.3372280 126.1632450
  67.0984330 149.4986240 126.2484910  68.3563920 150.0557960 125.6168440
  74.5593420 154.0190800 136.1411480  73.7312050 154.0883890 135.6661610
  75.1543900 154.6045110 135.6727310  72.0808870 154.6275580 129.6700540
  71.4621290 154.2895130 129.0226840  72.0633320 153.9835340 130.3779730
  71.5235430 150.8060120 137.0866350  71.1106610 151.6313830 137.3406340
  70.7911380 150.2205160 136.8942710  63.6568220 153.5920020 131.9485020
  63.2525220 152.8797270 131.4530920  63.7431340 153.2473260 132.8373060
  62.3696840 150.3663230 135.7284060  62.9211430 150.4758570 134.9537310
  62.8840350 150.7400830 136.4439290  70.2573570 153.8662390 126.6773290
  70.6966850 153.0284820 126.5311110  70.9701990 154.4991790 126.7637430
  62.0439570 153.8882590 139.3389400  61.9047340 154.7605390 139.7076800
  61.1620930 153.5455400 139.1937340  73.8390710 145.1205200 124.9914330
  73.5263370 145.2132030 125.8913400  74.6003180 145.6986230 124.9411760
  60.3572850 152.4865000 129.4491670  60.2370450 153.2127090 128.8372940
  60.0473740 151.7167910 128.9719580  75.0492000 149.8576700 140.9688470
  74.4336270 150.3656370 140.4403930  74.7288420 148.9575030 140.9114410
  62.8236510 145.8300070 132.8315340  62.3804660 146.6109610 132.4999860
  63.3821500 146.1529960 133.5386280  67.1106320 148.6968590 138.4350660
  66.6485690 148.9051610 139.2470600  66.7084430 147.8827940 138.1321330
  72.1110830 149.9177540 139.5647320  71.2604420 149.6183290 139.8856390
  71.9512620 150.1619550 138.6531140  69.2060540 151.4179290 141.6646110
  69.5313950 150.5843040 141.3248340  69.9940870 151.9407810 141.8124440
  65.9395330 145.4510770 127.7121170  65.3149510 145.4470640 128.4374480
  65.8525450 144.5841730 127.3157140  64.8612410 146.3747400 134.6904940
  65.1584740 147.2810230 134.6096960  65.4097970 145.8866180 134.0764510
  62.6150730 150.9533640 130.5596590  62.3891650 150.7370810 131.4643210
  61.8343260 151.3862100 130.2142560  69.8448490 150.9597010 129.1587240
  69.2457380 151.6832810 128.9750860  70.3928100 150.8973790 128.3763690
  65.0549940 151.8519220 141.2256860  64.9593540 150.9113950 141.0757260
  65.8981920 152.0734290 140.8304930  68.4513360 149.5960550 131.1890520
  68.8442930 149.9132750 130.3759210  68.8130210 148.7172430 131.3035040
  60.1860480 148.2632890 139.3790640  59.7923870 149.1108100 139.5863420
  59.4978880 147.6259260 139.5699280  66.7605530 148.3467860 142.4487380
  66.0703850 148.1540060 143.0833470  67.5037830 148.6302500 142.9811680
  57.4877530 146.1861350 133.4120720  57.1990580 146.7564210 134.1245700
  58.2323290 145.7065800 133.7751950  57.6747760 150.1281470 124.6223440
  57.5922430 151.0712230 124.7638430  57.3230820 149.9856380 123.7435790
  69.0368500 152.1866300 135.2841300  68.3049620 152.6953110 135.6331400
  68.6392840 151.3696280 134.9830080  65.4745890 148.8620500 133.6893790
  65.4781950 148.4210450 132.8398330  66.3697010 149.1837830 133.7965610
  61.3248270 148.7446990 132.6488000  60.9848320 149.2222220 133.4055050
  60.5625590 148.2912110 132.2889100  65.5366040 149.8632580 126.6800550
  65.6578860 149.8219060 127.6286370  65.1514550 150.7256730 126.5247280
  69.4994410 147.6399980 134.6964240  69.5167150 148.0908630 135.5406090
  69.2509990 146.7405620 134.9097680  64.5487540 152.1733720 126.0783850
  63.9804440 151.7251970 125.4519760  65.2576540 152.5326500 125.5449000
  72.9265160 145.0532160 140.5350620  73.2510930 144.3221820 141.0608600
  72.9621670 144.7345800 139.6331610  65.7753860 152.9222280 135.4359200
  66.1423990 152.4480850 136.1820540  65.5858920 153.7963850 135.7767540
  58.6394350 147.6665970 131.5652670  58.3541270 147.3021640 132.4031290
  58.5773210 146.9346430 130.9515810  63.5653230 151.9630920 137.7543410
  63.2610300 152.8422900 137.9793770  64.5199690 152.0230710 137.7900850
  68.3132940 146.5595230 128.2866040  67.4997550 146.0608400 128.2111350
  68.1194890 147.3993480 127.8702390  71.0281330 150.9314880 126.5828200
  71.9160950 151.2432110 126.4079540  70.9986420 150.0587130 126.1908780
  59.6216960 152.8033660 138.9014770  59.2631900 153.4687510 139.4888110
  59.3271520 151.9717210 139.2727390  62.8230080 153.2617900 141.7854320
  62.5230220 153.4075080 140.8882140  63.5941320 152.7023190 141.6927710
  73.2995600 152.2426720 126.0508060  73.2159320 152.6740940 125.2004500
  74.0189790 152.7025070 126.4834880  58.1325010 152.8024920 125.5249370
  59.0019860 153.0849720 125.8085290  57.6415330 153.6160790 125.4098180
  65.2959820 154.1898130 129.6457650  65.7522600 155.0003380 129.8717840
  64.9448030 153.8721270 130.4776140  61.1971600 144.5335780 130.1180170
  61.0686230 144.5253680 131.0665090  60.3733620 144.8718870 129.7671180
  58.1965530 146.2926900 139.5786870  57.4824050 146.4923820 140.1839480
  58.6160570 145.5166470 139.9501670  69.6904310 148.7849210 137.3288320
  70.0585130 147.9644420 137.6567890  68.8302510 148.8451100 137.7443970
  73.0566340 147.7406150 128.1375880  72.4279500 147.8451820 127.4234110
  72.5618260 147.9602930 128.9269760  65.0250370 150.0192100 129.5533760
  64.3166520 150.4878440 129.9947370  65.3094850 149.3614110 130.1878950
  66.6506300 151.4388800 137.5526290  67.1491550 151.9134620 138.2178140
  66.7929250 150.5152320 137.7596320  69.0565800 146.7442760 130.9929550
  68.9333580 146.7628890 130.0439060  70.0050360 146.7921700 131.1127950
  63.2285390 148.3277180 126.9284470  64.0775920 148.7647330 126.8624660
  62.8616660 148.6397440 127.7556530  73.8573160 147.6556760 138.3954680
  73.3546760 148.3962160 138.7348490  74.6729820 148.0440760 138.0791470
  72.1495170 152.8989940 131.8416040  71.2085310 152.9140170 132.0163730
  72.4639240 152.1125900 132.2876340  62.1276810 154.5809540 125.4020000
  62.8940080 154.4690900 125.9645430  62.2051500 153.8847510 124.7496770
  60.8223570 152.0134610 126.0852890  60.9027160 151.0662120 126.1970290
  61.7143320 152.3441490 126.1913550  58.3494370 153.8349530 141.3209060
  58.8533390 153.2556810 141.8925290  57.6101790 154.1189760 141.8585430
  60.3817450 151.9779120 142.2159130  60.4222790 151.6792990 143.1244360
  61.2362950 152.3786730 142.0566650  64.1595840 154.5774670 127.3762640
  64.5812260 154.4114540 128.2194030  64.2846680 153.7674900 126.8817780
  62.3223260 150.5571220 140.1833620  61.7919720 150.0662170 139.5556960
  62.9911330 150.9855420 139.6491550  66.6723480 153.6012280 124.6239740
  67.1929140 152.8861300 124.2580890  67.3191880 154.2398150 124.9240250
  71.6923490 152.3636840 141.9513960  72.2744260 151.6089160 141.8634440
  71.8685260 152.8944280 141.1745440  62.8095560 147.5233590 140.2630910
  62.7152430 146.9054340 139.5381780  62.2292950 148.2499880 140.0360820
  65.5757000 146.0806830 137.2958300  65.1274300 146.1031090 136.4503850
  64.9422200 145.6825850 137.8928600  68.3180450 152.7077340 139.3008580
  68.4376660 152.1118480 140.0403420  69.1774450 152.7447030 138.8809880
  70.6568350 153.2614530 137.8771090  70.1303570 153.7857150 137.2736230
  70.9999690 153.8941920 138.5080820  63.0554740 150.6507900 124.3220800
  62.8543800 149.7875260 124.6834140  62.8846790 150.5641260 123.3842400
  65.0849220 149.2498690 140.5584400  65.6748910 148.9414540 141.2462220
  64.2669460 148.7778440 140.7144300  69.9042650 148.8664500 140.7917420
  69.2158170 148.2046040 140.7267410  70.6248670 148.4202770 141.2365880
  70.5343050 145.4616130 126.8507680  70.8145340 144.6184030 127.2067100
  69.7608780 145.6939240 127.3646430  61.8537540 147.7508520 124.3098680
  62.1563440 147.7575950 123.4017830  62.5932130 147.4006380 124.8066340
  65.0722470 146.6943140 125.2954880  64.7244470 146.0167130 124.7157330
  65.2735240 146.2332650 126.1098270  58.4128110 153.2230790 131.6919250
  57.7576950 152.9542430 131.0478950  59.2506060 153.1135270 131.2421230
  71.3618550 148.0172080 125.9137740  71.7803430 147.8303060 125.0734400
  71.0554610 147.1651130 126.2240670  74.8608280 152.9296220 129.6113540
  74.4851880 152.1624150 129.1794830  74.1311400 153.3118920 130.0988470
  59.4504040 153.6083360 136.2322590  59.8177080 153.5210760 137.1118610
  58.8814860 152.8449910 136.1329450  74.2507900 152.0767740 139.2453060
  74.0193990 151.8480490 138.3451010  74.5112450 152.9967290 139.1997950
  59.0020040 150.5192450 140.1381010  58.1076090 150.4859210 140.4774720
  59.5417590 150.7179240 140.9032260  72.6895970 147.3024170 142.0232760
  73.5666150 147.3107570 142.4066760  72.7016810 146.5655010 141.4125110
  57.6266190 150.4329720 127.6344580  56.7230270 150.6959920 127.4596240
  58.1106810 150.7040890 126.8544540  74.1359240 151.1553710 132.9120780
  74.6596720 150.6616360 132.2810950  74.7218660 151.2904070 133.6568350
  74.3148960 151.2393580 136.4340330  73.3651670 151.2057120 136.5485320
  74.4961970 152.1493690 136.1990100  60.1693400 149.4895260 125.5438960
  60.8785100 149.0678480 125.0586240  59.4533340 149.5570490 124.9122310
  59.8167560 145.5434590 124.5841610  60.5395690 146.0843530 124.9022830
  60.0892080 145.2698010 123.7083150  73.6259210 150.4127060 128.8513190
  74.1218330 150.1797930 129.6362070  73.4275280 149.5738900 128.4350830
  59.5059750 144.7940780 134.4864230  60.1535940 144.2438160 134.0459390
  59.9261590 145.0483930 135.3080040  75.0546370 149.0488010 131.3850870
  74.9445650 148.8944050 132.3233140  75.8153960 148.5208950 131.1426280
  73.4012090 144.9882140 137.8433870  74.0384310 145.6016280 138.2093060
  73.5486980 145.0242800 136.8983100  75.9436640 146.8795930 124.6257010
  76.8685950 146.7477110 124.4175300  75.9212430 146.9588750 125.5793460
  76.0175130 147.6506590 127.2513720  75.2226630 147.5851710 127.7806630
  76.2218410 148.5857230 127.2399070  59.2591750 144.9496450 137.2289550
  58.9106570 145.4060270 137.9947730  58.9279450 144.0553580 137.3111980
  66.7716570 146.1408330 140.7508970  66.7105460 146.7330160 141.5004380
  67.7116950 146.0334290 140.6059230  69.4091130 145.7978390 140.3901260
  70.0231540 146.1157680 139.7282340  69.9540690 145.3126980 141.0097120
  59.9312390 144.4772650 140.5040320  60.4795380 144.2960700 139.7406430
  59.9967700 143.6866760 141.0396630  70.1499170 144.3610530 136.7170550
  69.2759010 144.6945640 136.5143480  70.0409920 143.8883710 137.5422420
  71.0571150 146.5681400 138.1012270  70.7284510 145.7533160 137.7214000
  72.0053450 146.5251210 137.9777960  67.8973990 145.2780370 135.6563460
  67.1145780 145.7525870 135.9360220  67.6036920 144.3735200 135.5476640
  72.4495060 145.9803470 133.7012550  72.8903150 145.9248570 132.8534150
  72.1802650 146.8961480 133.7722730  74.3133630 145.6118710 131.7121370
  74.2522030 144.6679930 131.5652390  75.0925660 145.7198800 132.2574830
  59.2414400 145.5827850 128.1777180  59.9993760 145.6956730 127.6041210
  58.7791570 146.4197050 128.1320610  65.7828210 147.6967120 131.1679490
  64.9702720 147.3224010 130.8275370  66.2869850 146.9412200 131.4700680
  70.2853190 144.3609570 132.4062560  70.8882560 144.9329780 132.8811080
  69.5446180 144.9249010 132.1836460  73.4287790 144.7631130 127.6802840
  73.6238420 145.6614580 127.9470270  72.6417660 144.5318210 128.1735790
  61.6139550 146.1091900 126.7179150  62.1432310 145.3221700 126.5887100
  62.2467870 146.7883090 126.9514680  63.8077390 145.8467040 129.7724540
  63.1780130 145.1454350 129.9394670  63.2682530 146.6071170 129.5557700
  63.9332950 145.1251020 142.2077030  63.6517220 145.6284620 141.4437850
  64.3152650 144.3272770 141.8419160  70.5348410 144.5404600 142.7857500
  70.4213860 144.8599210 143.6809020  71.3518150 144.9417110 142.4894780
  69.4406560 152.5597070 113.1492240  69.3600610 151.6451680 112.8783950
  69.0270980 153.0564140 112.4431950  67.5724600 154.3376090 115.0301510
  66.7966700 153.8576530 115.3200080  68.2237530 153.6581740 114.8557670
  61.5890430 154.6495900 115.9077270  60.7575310 154.3944610 116.3073780
  62.1971410 154.7206670 116.6435190  59.9982380 149.6097790 109.6919660
  59.1099080 149.9513760 109.5899540  60.2823570 149.4098110 108.8000490
  57.9615390 152.2103440 115.5759360  58.5331500 151.4425640 115.5763000
  57.9616930 152.5092200 114.6665970  59.2040260 147.6187800 117.3628290
  59.0243100 146.7213550 117.6431050  58.8020340 148.1659670 118.0375240
  68.0438760 149.8203660 115.2640600  68.4203580 148.9475540 115.1514270
  67.9458270 150.1562360 114.3731040  62.1743770 148.1929290 110.7258040
  62.2810520 149.0933020 111.0326800  61.2636130 148.1447260 110.4352690
  71.8262880 147.3154100 112.1968940  72.6472500 146.8250670 112.2394420
  71.8596960 147.9051760 112.9500780  59.8226930 150.1148300 115.9710630
  60.5037040 150.3786670 116.5898030  59.5074980 149.2749170 116.3048640
  64.0151500 151.1615660 115.0583220  64.5229720 151.6596630 115.6988240
  64.5464740 150.3850860 114.8822580  76.1162430 149.3320850 118.7612570
  75.4114600 149.7202560 118.2427680  76.3820350 150.0271140 119.3633500
  62.2987600 145.8014220 119.3246640  62.3006040 146.3186610 118.5192540
  61.4691910 145.3244400 119.3016570  72.0624360 149.2554480 114.9696480
  71.3579930 149.5439370 115.5499590  72.4236520 150.0654590 114.6096040
  61.9802930 147.5124180 117.3317090  62.3219740 148.3566230 117.0370960
  61.0418740 147.6607920 117.4482430  75.1311280 148.7009270 115.3605690
  74.1836190 148.7348250 115.4921120  75.4561270 149.5148220 115.7455050
  65.6630820 145.0006450 113.6561680  65.9705800 144.4453340 112.9397180
  64.7331520 145.1350910 113.4734670  68.0511580 153.0655280 110.3921800
  67.1240860 152.9992660 110.6210270  68.2036400 154.0035410 110.2777040
  68.0380660 149.3372280 107.3888960  67.0984330 149.4986240 107.4741420
  68.3563920 150.0557960 106.8424950  74.5593420 154.0190800 117.3667990
  73.7312050 154.0883890 116.8918120  75.1543900 154.6045110 116.8983820
  72.0808870 154.6275580 110.8957050  71.4621290 154.2895130 110.2483350
  72.0633320 153.9835340 111.6036240  71.5235430 150.8060120 118.3122860
  71.1106610 151.6313830 118.5662850  70.7911380 150.2205160 118.1199220
  63.6568220 153.5920020 113.1741530  63.2525220 152.8797270 112.6787430
  63.7431340 153.2473260 114.0629570  62.3696840 150.3663230 116.9540570
  62.9211430 150.4758570 116.1793820  62.8840350 150.7400830 117.6695800
  70.2573570 153.8662390 107.9029800  70.6966850 153.0284820 107.7567620
  70.9701990 154.4991790 107.9893940  62.0439570 153.8882590 120.5645910
  61.9047340 154.7605390 120.9333310  61.1620930 153.5455400 120.4193850
  73.8390710 145.1205200 106.2170840  73.5263370 145.2132030 107.1169910
  74.6003180 145.6986230 106.1668270  60.3572850 152.4865000 110.6748180
  60.2370450 153.2127090 110.0629450  60.0473740 151.7167910 110.1976090
  75.0492000 149.8576700 122.1944980  74.4336270 150.3656370 121.6660440
  74.7288420 148.9575030 122.1370920  62.8236510 145.8300070 114.0571850
  62.3804660 146.6109610 113.7256370  63.3821500 146.1529960 114.7642790
  67.1106320 148.6968590 119.6607170  66.6485690 148.9051610 120.4727110
  66.7084430 147.8827940 119.3577840  72.1110830 149.9177540 120.7903830
  71.2604420 149.6183290 121.1112900  71.9512620 150.1619550 119.8787650
  69.2060540 151.4179290 122.8902620  69.5313950 150.5843040 122.5504850
  69.9940870 151.9407810 123.0380950  65.9395330 145.4510770 108.9377680
  65.3149510 145.4470640 109.6630990  65.8525450 144.5841730 108.5413650
  64.8612410 146.3747400 115.9161450  65.1584740 147.2810230 115.8353470
  65.4097970 145.8866180 115.3021020  62.6150730 150.9533640 111.7853100
  62.3891650 150.7370810 112.6899720  61.8343260 151.3862100 111.4399070
  69.8448490 150.9597010 110.3843750  69.2457380 151.6832810 110.2007370
  70.3928100 150.8973790 109.6020200  65.0549940 151.8519220 122.4513370
  64.9593540 150.9113950 122.3013770  65.8981920 152.0734290 122.0561440
  68.4513360 149.5960550 112.4147030  68.8442930 149.9132750 111.6015720
  68.8130210 148.7172430 112.5291550  60.1860480 148.2632890 120.6047150
  59.7923870 149.1108100 120.8119930  59.4978880 147.6259260 120.7955790
  66.7605530 148.3467860 123.6743890  66.0703850 148.1540060 124.3089980
  67.5037830 148.6302500 124.2068190  57.4877530 146.1861350 114.6377230
  57.1990580 146.7564210 115.3502210  58.2323290 145.7065800 115.0008460
  57.6747760 150.1281470 105.8479950  57.5922430 151.0712230 105.9894940
  57.3230820 149.9856380 104.9692300  69.0368500 152.1866300 116.5097810
  68.3049620 152.6953110 116.8587910  68.6392840 151.3696280 116.2086590
  65.4745890 148.8620500 114.9150300  65.4781950 148.4210450 114.0654840
  66.3697010 149.1837830 115.0222120  61.3248270 148.7446990 113.8744510
  60.9848320 149.2222220 114.6311560  60.5625590 148.2912110 113.5145610
  65.5366040 149.8632580 107.9057060  65.6578860 149.8219060 108.8542880
  65.1514550 150.7256730 107.7503790  69.4994410 147.6399980 115.9220750
  69.5167150 148.0908630 116.7662600  69.2509990 146.7405620 116.1354190
  64.5487540 152.1733720 107.3040360  63.9804440 151.7251970 106.6776270
  65.2576540 152.5326500 106.7705510  72.9265160 145.0532160 121.7607130
  73.2510930 144.3221820 122.2865110  72.9621670 144.7345800 120.8588120
  65.7753860 152.9222280 116.6615710  66.1423990 152.4480850 117.4077050
  65.5858920 153.7963850 117.0024050  58.6394350 147.6665970 112.7909180
  58.3541270 147.3021640 113.6287800  58.5773210 146.9346430 112.1772320
  63.5653230 151.9630920 118.9799920  63.2610300 152.8422900 119.2050280
  64.5199690 152.0230710 119.0157360  68.3132940 146.5595230 109.5122550
  67.4997550 146.0608400 109.4367860  68.1194890 147.3993480 109.0958900
  71.0281330 150.9314880 107.8084710  71.9160950 151.2432110 107.6336050
  70.9986420 150.0587130 107.4165290  59.6216960 152.8033660 120.1271280
  59.2631900 153.4687510 120.7144620  59.3271520 151.9717210 120.4983900
  62.8230080 153.2617900 123.0110830  62.5230220 153.4075080 122.1138650
  63.5941320 152.7023190 122.9184220  73.2995600 152.2426720 107.2764570
  73.2159320 152.6740940 106.4261010  74.0189790 152.7025070 107.7091390
  58.1325010 152.8024920 106.7505880  59.0019860 153.0849720 107.0341800
  57.6415330 153.6160790 106.6354690  65.2959820 154.1898130 110.8714160
  65.7522600 155.0003380 111.0974350  64.9448030 153.8721270 111.7032650
  61.1971600 144.5335780 111.3436680  61.0686230 144.5253680 112.2921600
  60.3733620 144.8718870 110.9927690  58.1965530 146.2926900 120.8043380
  57.4824050 146.4923820 121.4095990  58.6160570 145.5166470 121.1758180
  69.6904310 148.7849210 118.5544830  70.0585130 147.9644420 118.8824400
  68.8302510 148.8451100 118.9700480  73.0566340 147.7406150 109.3632390
  72.4279500 147.8451820 108.6490620  72.5618260 147.9602930 110.1526270
  65.0250370 150.0192100 110.7790270  64.3166520 150.4878440 111.2203880
  65.3094850 149.3614110 111.4135460  66.6506300 151.4388800 118.7782800
  67.1491550 151.9134620 119.4434650  66.7929250 150.5152320 118.9852830
  69.0565800 146.7442760 112.2186060  68.9333580 146.7628890 111.2695570
  70.0050360 146.7921700 112.3384460  63.2285390 148.3277180 108.1540980
  64.0775920 148.7647330 108.0881170  62.8616660 148.6397440 108.9813040
  73.8573160 147.6556760 119.6211190  73.3546760 148.3962160 119.9605000
  74.6729820 148.0440760 119.3047980  72.1495170 152.8989940 113.0672550
  71.2085310 152.9140170 113.2420240  72.4639240 152.1125900 113.5132850
  62.1276810 154.5809540 106.6276510  62.8940080 154.4690900 107.1901940
  62.2051500 153.8847510 105.9753280  60.8223570 152.0134610 107.3109400
  60.9027160 151.0662120 107.4226800  61.7143320 152.3441490 107.4170060
  58.3494370 153.8349530 122.5465570  58.8533390 153.2556810 123.1181800
  57.6101790 154.1189760 123.0841940  60.3817450 151.9779120 123.4415640
  60.4222790 151.6792990 124.3500870  61.2362950 152.3786730 123.2823160
  64.1595840 154.5774670 108.6019150  64.5812260 154.4114540 109.4450540
  64.2846680 153.7674900 108.1074290  62.3223260 150.5571220 121.4090130
  61.7919720 150.0662170 120.7813470  62.9911330 150.9855420 120.8748060
  66.6723480 153.6012280 105.8496250  67.1929140 152.8861300 105.4837400
  67.3191880 154.2398150 106.1496760  71.6923490 152.3636840 123.1770470
  72.2744260 151.6089160 123.0890950  71.8685260 152.8944280 122.4001950
  62.8095560 147.5233590 121.4887420  62.7152430 146.9054340 120.7638290
  62.2292950 148.2499880 121.2617330  65.5757000 146.0806830 118.5214810
  65.1274300 146.1031090 117.6760360  64.9422200 145.6825850 119.1185110
  68.3180450 152.7077340 120.5265090  68.4376660 152.1118480 121.2659930
  69.1774450 152.7447030 120.1066390  70.6568350 153.2614530 119.1027600
  70.1303570 153.7857150 118.4992740  70.9999690 153.8941920 119.7337330
  63.0554740 150.6507900 105.5477310  62.8543800 149.7875260 105.9090650
  62.8846790 150.5641260 104.6098910  65.0849220 149.2498690 121.7840910
  65.6748910 148.9414540 122.4718730  64.2669460 148.7778440 121.9400810
  69.9042650 148.8664500 122.0173930  69.2158170 148.2046040 121.9523920
  70.6248670 148.4202770 122.4622390  70.5343050 145.4616130 108.0764190
  70.8145340 144.6184030 108.4323610  69.7608780 145.6939240 108.5902940
  61.8537540 147.7508520 105.5355190  62.1563440 147.7575950 104.6274340
  62.5932130 147.4006380 106.0322850  65.0722470 146.6943140 106.5211390
  64.7244470 146.0167130 105.9413840  65.2735240 146.2332650 107.3354780
  58.4128110 153.2230790 112.9175760  57.7576950 152.9542430 112.2735460
  59.2506060 153.1135270 112.4677740  71.3618550 148.0172080 107.1394250
  71.7803430 147.8303060 106.2990910  71.0554610 147.1651130 107.4497180
  74.8608280 152.9296220 110.8370050  74.4851880 152.1624150 110.4051340
  74.1311400 153.3118920 111.3244980  59.4504040 153.6083360 117.4579100
  59.8177080 153.5210760 118.3375120  58.8814860 152.8449910 117.3585960
  74.2507900 152.0767740 120.4709570  74.0193990 151.8480490 119.5707520
  74.5112450 152.9967290 120.4254460  59.0020040 150.5192450 121.3637520
  58.1076090 150.4859210 121.7031230  59.5417590 150.7179240 122.1288770
  72.6895970 147.3024170 123.2489270  73.5666150 147.3107570 123.6323270
  72.7016810 146.5655010 122.6381620  57.6266190 150.4329720 108.8601090
  56.7230270 150.6959920 108.6852750  58.1106810 150.7040890 108.0801050
  74.1359240 151.1553710 114.1377290  74.6596720 150.6616360 113.5067460
  74.7218660 151.2904070 114.8824860  74.3148960 151.2393580 117.6596840
  73.3651670 151.2057120 117.7741830  74.4961970 152.1493690 117.4246610
  60.1693400 149.4895260 106.7695470  60.8785100 149.0678480 106.2842750
  59.4533340 149.5570490 106.1378820  59.8167560 145.5434590 105.8098120
  60.5395690 146.0843530 106.1279340  60.0892080 145.2698010 104.9339660
  73.6259210 150.4127060 110.0769700  74.1218330 150.1797930 110.8618580
  73.4275280 149.5738900 109.6607340  59.5059750 144.7940780 115.7120740
  60.1535940 144.2438160 115.2715900  59.9261590 145.0483930 116.5336550
  75.0546370 149.0488010 112.6107380  74.9445650 148.8944050 113.5489650
  75.8153960 148.5208950 112.3682790  73.4012090 144.9882140 119.0690380
  74.0384310 145.6016280 119.4349570  73.5486980 145.0242800 118.1239610
  75.9436640 146.8795930 105.8513520  76.8685950 146.7477110 105.6431810
  75.9212430 146.9588750 106.8049970  76.0175130 147.6506590 108.4770230
  75.2226630 147.5851710 109.0063140  76.2218410 148.5857230 108.4655580
  59.2591750 144.9496450 118.4546060  58.9106570 145.4060270 119.2204240
  58.9279450 144.0553580 118.5368490  66.7716570 146.1408330 121.9765480
  66.7105460 146.7330160 122.7260890  67.7116950 146.0334290 121.8315740
  69.4091130 145.7978390 121.6157770  70.0231540 146.1157680 120.9538850
  69.9540690 145.3126980 122.2353630  59.9312390 144.4772650 121.7296830
  60.4795380 144.2960700 120.9662940  59.9967700 143.6866760 122.2653140
  70.1499170 144.3610530 117.9427060  69.2759010 144.6945640 117.7399990
  70.0409920 143.8883710 118.7678930  71.0571150 146.5681400 119.3268780
  70.7284510 145.7533160 118.9470510  72.0053450 146.5251210 119.2034470
  67.8973990 145.2780370 116.8819970  67.1145780 145.7525870 117.1616730
  67.6036920 144.3735200 116.7733150  72.4495060 145.9803470 114.9269060
  72.8903150 145.9248570 114.0790660  72.1802650 146.8961480 114.9979240
  74.3133630 145.6118710 112.9377880  74.2522030 144.6679930 112.7908900
  75.0925660 145.7198800 113.4831340  59.2414400 145.5827850 109.4033690
  59.9993760 145.6956730 108.8297720  58.7791570 146.4197050 109.3577120
  65.7828210 147.6967120 112.3936000  64.9702720 147.3224010 112.0531880
  66.2869850 146.9412200 112.6957190  70.2853190 144.3609570 113.6319070
  70.8882560 144.9329780 114.1067590  69.5446180 144.9249010 113.4092970
  73.4287790 144.7631130 108.9059350  73.6238420 145.6614580 109.1726780
  72.6417660 144.5318210 109.3992300  61.6139550 146.1091900 107.9435660
  62.1432310 145.3221700 107.8143610  62.2467870 146.7883090 108.1771190
  63.8077390 145.8467040 110.9981050  63.1780130 145.1454350 111.1651180
  63.2682530 146.6071170 110.7814210  63.9332950 145.1251020 123.4333540
  63.6517220 145.6284620 122.6694360  64.3152650 144.3272770 123.0675670
  70.5348410 144.5404600 124.0114010  70.4213860 144.8599210 124.9065530
  71.3518150 144.9417110 123.7151290  69.4406560 152.5597070  94.3748750
  69.3600610 151.6451680  94.1040460  69.0270980 153.0564140  93.6688460
  67.5724600 154.3376090  96.2558020  66.7966700 153.8576530  96.5456590
  68.2237530 153.6581740  96.0814180  61.5890430 154.6495900  97.1333780
  60.7575310 154.3944610  97.5330290  62.1971410 154.7206670  97.8691700
  59.9982380 149.6097790  90.9176170  59.1099080 149.9513760  90.8156050
  60.2823570 149.4098110  90.0257000  57.9615390 152.2103440  96.8015870
  58.5331500 151.4425640  96.8019510  57.9616930 152.5092200  95.8922480
  59.2040260 147.6187800  98.5884800  59.0243100 146.7213550  98.8687560
  58.8020340 148.1659670  99.2631750  68.0438760 149.8203660  96.4897110
  68.4203580 148.9475540  96.3770780  67.9458270 150.1562360  95.5987550
  62.1743770 148.1929290  91.9514550  62.2810520 149.0933020  92.2583310
  61.2636130 148.1447260  91.6609200  71.8262880 147.3154100  93.4225450
  72.6472500 146.8250670  93.4650930  71.8596960 147.9051760  94.1757290
  59.8226930 150.1148300  97.1967140  60.5037040 150.3786670  97.8154540
  59.5074980 149.2749170  97.5305150  64.0151500 151.1615660  96.2839730
  64.5229720 151.6596630  96.9244750  64.5464740 150.3850860  96.1079090
  76.1162430 149.3320850  99.9869080  75.4114600 149.7202560  99.4684190
  76.3820350 150.0271140 100.5890010  62.2987600 145.8014220 100.5503150
  62.3006040 146.3186610  99.7449050  61.4691910 145.3244400 100.5273080
  72.0624360 149.2554480  96.1952990  71.3579930 149.5439370  96.7756100
  72.4236520 150.0654590  95.8352550  61.9802930 147.5124180  98.5573600
  62.3219740 148.3566230  98.2627470  61.0418740 147.6607920  98.6738940
  75.1311280 148.7009270  96.5862200  74.1836190 148.7348250  96.7177630
  75.4561270 149.5148220  96.9711560  65.6630820 145.0006450  94.8818190
  65.9705800 144.4453340  94.1653690  64.7331520 145.1350910  94.6991180
  68.0511580 153.0655280  91.6178310  67.1240860 152.9992660  91.8466780
  68.2036400 154.0035410  91.5033550  68.0380660 149.3372280  88.6145470
  67.0984330 149.4986240  88.6997930  68.3563920 150.0557960  88.0681460
  74.5593420 154.0190800  98.5924500  73.7312050 154.0883890  98.1174630
  75.1543900 154.6045110  98.1240330  72.0808870 154.6275580  92.1213560
  71.4621290 154.2895130  91.4739860  72.0633320 153.9835340  92.8292750
  71.5235430 150.8060120  99.5379370  71.1106610 151.6313830  99.7919360
  70.7911380 150.2205160  99.3455730  63.6568220 153.5920020  94.3998040
  63.2525220 152.8797270  93.9043940  63.7431340 153.2473260  95.2886080
  62.3696840 150.3663230  98.1797080  62.9211430 150.4758570  97.4050330
  62.8840350 150.7400830  98.8952310  70.2573570 153.8662390  89.1286310
  70.6966850 153.0284820  88.9824130  70.9701990 154.4991790  89.2150450
  62.0439570 153.8882590 101.7902420  61.9047340 154.7605390 102.1589820
  61.1620930 153.5455400 101.6450360  73.8390710 145.1205200  87.4427350
  73.5263370 145.2132030  88.3426420  74.6003180 145.6986230  87.3924780
  60.3572850 152.4865000  91.9004690  60.2370450 153.2127090  91.2885960
  60.0473740 151.7167910  91.4232600  75.0492000 149.8576700 103.4201490
  74.4336270 150.3656370 102.8916950  74.7288420 148.9575030 103.3627430
  62.8236510 145.8300070  95.2828360  62.3804660 146.6109610  94.9512880
  63.3821500 146.1529960  95.9899300  67.1106320 148.6968590 100.8863680
  66.6485690 148.9051610 101.6983620  66.7084430 147.8827940 100.5834350
  72.1110830 149.9177540 102.0160340  71.2604420 149.6183290 102.3369410
  71.9512620 150.1619550 101.1044160  69.2060540 151.4179290 104.1159130
  69.5313950 150.5843040 103.7761360  69.9940870 151.9407810 104.2637460
  65.9395330 145.4510770  90.1634190  65.3149510 145.4470640  90.8887500
  65.8525450 144.5841730  89.7670160  64.8612410 146.3747400  97.1417960
  65.1584740 147.2810230  97.0609980  65.4097970 145.8866180  96.5277530
  62.6150730 150.9533640  93.0109610  62.3891650 150.7370810  93.9156230
  61.8343260 151.3862100  92.6655580  69.8448490 150.9597010  91.6100260
  69.2457380 151.6832810  91.4263880  70.3928100 150.8973790  90.8276710
  65.0549940 151.8519220 103.6769880  64.9593540 150.9113950 103.5270280
  65.8981920 152.0734290 103.2817950  68.4513360 149.5960550  93.6403540
  68.8442930 149.9132750  92.8272230  68.8130210 148.7172430  93.7548060
  60.1860480 148.2632890 101.8303660  59.7923870 149.1108100 102.0376440
  59.4978880 147.6259260 102.0212300  66.7605530 148.3467860 104.9000400
  66.0703850 148.1540060 105.5346490  67.5037830 148.6302500 105.4324700
  57.4877530 146.1861350  95.8633740  57.1990580 146.7564210  96.5758720
  58.2323290 145.7065800  96.2264970  57.6747760 150.1281470  87.0736460
  57.5922430 151.0712230  87.2151450  57.3230820 149.9856380  86.1948810
  69.0368500 152.1866300  97.7354320  68.3049620 152.6953110  98.0844420
  68.6392840 151.3696280  97.4343100  65.4745890 148.8620500  96.1406810
  65.4781950 148.4210450  95.2911350  66.3697010 149.1837830  96.2478630
  61.3248270 148.7446990  95.1001020  60.9848320 149.2222220  95.8568070
  60.5625590 148.2912110  94.7402120  65.5366040 149.8632580  89.1313570
  65.6578860 149.8219060  90.0799390  65.1514550 150.7256730  88.9760300
  69.4994410 147.6399980  97.1477260  69.5167150 148.0908630  97.9919110
  69.2509990 146.7405620  97.3610700  64.5487540 152.1733720  88.5296870
  63.9804440 151.7251970  87.9032780  65.2576540 152.5326500  87.9962020
  72.9265160 145.0532160 102.9863640  73.2510930 144.3221820 103.5121620
  72.9621670 144.7345800 102.0844630  65.7753860 152.9222280  97.8872220
  66.1423990 152.4480850  98.6333560  65.5858920 153.7963850  98.2280560
  58.6394350 147.6665970  94.0165690  58.3541270 147.3021640  94.8544310
  58.5773210 146.9346430  93.4028830  63.5653230 151.9630920 100.2056430
  63.2610300 152.8422900 100.4306790  64.5199690 152.0230710 100.2413870
  68.3132940 146.5595230  90.7379060  67.4997550 146.0608400  90.6624370
  68.1194890 147.3993480  90.3215410  71.0281330 150.9314880  89.0341220
  71.9160950 151.2432110  88.8592560  70.9986420 150.0587130  88.6421800
  59.6216960 152.8033660 101.3527790  59.2631900 153.4687510 101.9401130
  59.3271520 151.9717210 101.7240410  62.8230080 153.2617900 104.2367340
  62.5230220 153.4075080 103.3395160  63.5941320 152.7023190 104.1440730
  73.2995600 152.2426720  88.5021080  73.2159320 152.6740940  87.6517520
  74.0189790 152.7025070  88.9347900  58.1325010 152.8024920  87.9762390
  59.0019860 153.0849720  88.2598310  57.6415330 153.6160790  87.8611200
  65.2959820 154.1898130  92.0970670  65.7522600 155.0003380  92.3230860
  64.9448030 153.8721270  92.9289160  61.1971600 144.5335780  92.5693190
  61.0686230 144.5253680  93.5178110  60.3733620 144.8718870  92.2184200
  58.1965530 146.2926900 102.0299890  57.4824050 146.4923820 102.6352500
  58.6160570 145.5166470 102.4014690  69.6904310 148.7849210  99.7801340
  70.0585130 147.9644420 100.1080910  68.8302510 148.8451100 100.1956990
  73.0566340 147.7406150  90.5888900  72.4279500 147.8451820  89.8747130
  72.5618260 147.9602930  91.3782780  65.0250370 150.0192100  92.0046780
  64.3166520 150.4878440  92.4460390  65.3094850 149.3614110  92.6391970
  66.6506300 151.4388800 100.0039310  67.1491550 151.9134620 100.6691160
  66.7929250 150.5152320 100.2109340  69.0565800 146.7442760  93.4442570
  68.9333580 146.7628890  92.4952080  70.0050360 146.7921700  93.5640970
  63.2285390 148.3277180  89.3797490  64.0775920 148.7647330  89.3137680
  62.8616660 148.6397440  90.2069550  73.8573160 147.6556760 100.8467700
  73.3546760 148.3962160 101.1861510  74.6729820 148.0440760 100.5304490
  72.1495170 152.8989940  94.2929060  71.2085310 152.9140170  94.4676750
  72.4639240 152.1125900  94.7389360  62.1276810 154.5809540  87.8533020
  62.8940080 154.4690900  88.4158450  62.2051500 153.8847510  87.2009790
  60.8223570 152.0134610  88.5365910  60.9027160 151.0662120  88.6483310
  61.7143320 152.3441490  88.6426570  58.3494370 153.8349530 103.7722080
  58.8533390 153.2556810 104.3438310  57.6101790 154.1189760 104.3098450
  60.3817450 151.9779120 104.6672150  60.4222790 151.6792990 105.5757380
  61.2362950 152.3786730 104.5079670  64.1595840 154.5774670  89.8275660
  64.5812260 154.4114540  90.6707050  64.2846680 153.7674900  89.3330800
  62.3223260 150.5571220 102.6346640  61.7919720 150.0662170 102.0069980
  62.9911330 150.9855420 102.1004570  66.6723480 153.6012280  87.0752760
  67.1929140 152.8861300  86.7093910  67.3191880 154.2398150  87.3753270
  71.6923490 152.3636840 104.4026980  72.2744260 151.6089160 104.3147460
  71.8685260 152.8944280 103.6258460  62.8095560 147.5233590 102.7143930
  62.7152430 146.9054340 101.9894800  62.2292950 148.2499880 102.4873840
  65.5757000 146.0806830  99.7471320  65.1274300 146.1031090  98.9016870
  64.9422200 145.6825850 100.3441620  68.3180450 152.7077340 101.7521600
  68.4376660 152.1118480 102.4916440  69.1774450 152.7447030 101.3322900
  70.6568350 153.2614530 100.3284110  70.1303570 153.7857150  99.7249250
  70.9999690 153.8941920 100.9593840  63.0554740 150.6507900  86.7733820
  62.8543800 149.7875260  87.1347160  62.8846790 150.5641260  85.8355420
  65.0849220 149.2498690 103.0097420  65.6748910 148.9414540 103.6975240
  64.2669460 148.7778440 103.1657320  69.9042650 148.8664500 103.2430440
  69.2158170 148.2046040 103.1780430  70.6248670 148.4202770 103.6878900
  70.5343050 145.4616130  89.3020700  70.8145340 144.6184030  89.6580120
  69.7608780 145.6939240  89.8159450  61.8537540 147.7508520  86.7611700
  62.1563440 147.7575950  85.8530850  62.5932130 147.4006380  87.2579360
  65.0722470 146.6943140  87.7467900  64.7244470 146.0167130  87.1670350
  65.2735240 146.2332650  88.5611290  58.4128110 153.2230790  94.1432270
  57.7576950 152.9542430  93.4991970  59.2506060 153.1135270  93.6934250
  71.3618550 148.0172080  88.3650760  71.7803430 147.8303060  87.5247420
  71.0554610 147.1651130  88.6753690  74.8608280 152.9296220  92.0626560
  74.4851880 152.1624150  91.6307850  74.1311400 153.3118920  92.5501490
  59.4504040 153.6083360  98.6835610  59.8177080 153.5210760  99.5631630
  58.8814860 152.8449910  98.5842470  74.2507900 152.0767740 101.6966080
  74.0193990 151.8480490 100.7964030  74.5112450 152.9967290 101.6510970
  59.0020040 150.5192450 102.5894030  58.1076090 150.4859210 102.9287740
  59.5417590 150.7179240 103.3545280  72.6895970 147.3024170 104.4745780
  73.5666150 147.3107570 104.8579780  72.7016810 146.5655010 103.8638130
  57.6266190 150.4329720  90.0857600  56.7230270 150.6959920  89.9109260
  58.1106810 150.7040890  89.3057560  74.1359240 151.1553710  95.3633800
  74.6596720 150.6616360  94.7323970  74.7218660 151.2904070  96.1081370
  74.3148960 151.2393580  98.8853350  73.3651670 151.2057120  98.9998340
  74.4961970 152.1493690  98.6503120  60.1693400 149.4895260  87.9951980
  60.8785100 149.0678480  87.5099260  59.4533340 149.5570490  87.3635330
  59.8167560 145.5434590  87.0354630  60.5395690 146.0843530  87.3535850
  60.0892080 145.2698010  86.1596170  73.6259210 150.4127060  91.3026210
  74.1218330 150.1797930  92.0875090  73.4275280 149.5738900  90.8863850
  59.5059750 144.7940780  96.9377250  60.1535940 144.2438160  96.4972410
  59.9261590 145.0483930  97.7593060  75.0546370 149.0488010  93.8363890
  74.9445650 148.8944050  94.7746160  75.8153960 148.5208950  93.5939300
  73.4012090 144.9882140 100.2946890  74.0384310 145.6016280 100.6606080
  73.5486980 145.0242800  99.3496120  75.9436640 146.8795930  87.0770030
  76.8685950 146.7477110  86.8688320  75.9212430 146.9588750  88.0306480
  76.0175130 147.6506590  89.7026740  75.2226630 147.5851710  90.2319650
  76.2218410 148.5857230  89.6912090  59.2591750 144.9496450  99.6802570
  58.9106570 145.4060270 100.4460750  58.9279450 144.0553580  99.7625000
  66.7716570 146.1408330 103.2021990  66.7105460 146.7330160 103.9517400
  67.7116950 146.0334290 103.0572250  69.4091130 145.7978390 102.8414280
  70.0231540 146.1157680 102.1795360  69.9540690 145.3126980 103.4610140
  59.9312390 144.4772650 102.9553340  60.4795380 144.2960700 102.1919450
  59.9967700 143.6866760 103.4909650  70.1499170 144.3610530  99.1683570
  69.2759010 144.6945640  98.9656500  70.0409920 143.8883710  99.9935440
  71.0571150 146.5681400 100.5525290  70.7284510 145.7533160 100.1727020
  72.0053450 146.5251210 100.4290980  67.8973990 145.2780370  98.1076480
  67.1145780 145.7525870  98.3873240  67.6036920 144.3735200  97.9989660
  72.4495060 145.9803470  96.1525570  72.8903150 145.9248570  95.3047170
  72.1802650 146.8961480  96.2235750  74.3133630 145.6118710  94.1634390
  74.2522030 144.6679930  94.0165410  75.0925660 145.7198800  94.7087850
  59.2414400 145.5827850  90.6290200  59.9993760 145.6956730  90.0554230
  58.7791570 146.4197050  90.5833630  65.7828210 147.6967120  93.6192510
  64.9702720 147.3224010  93.2788390  66.2869850 146.9412200  93.9213700
  70.2853190 144.3609570  94.8575580  70.8882560 144.9329780  95.3324100
  69.5446180 144.9249010  94.6349480  73.4287790 144.7631130  90.1315860
  73.6238420 145.6614580  90.3983290  72.6417660 144.5318210  90.6248810
  61.6139550 146.1091900  89.1692170  62.1432310 145.3221700  89.0400120
  62.2467870 146.7883090  89.4027700  63.8077390 145.8467040  92.2237560
  63.1780130 145.1454350  92.3907690  63.2682530 146.6071170  92.0070720
  63.9332950 145.1251020 104.6590050  63.6517220 145.6284620 103.8950870
  64.3152650 144.3272770 104.2932180  70.5348410 144.5404600 105.2370520
  70.4213860 144.8599210 106.1322040  71.3518150 144.9417110 104.9407800
  69.4406560 152.5597070  75.6005260  69.3600610 151.6451680  75.3296970
  69.0270980 153.0564140  74.8944970  67.5724600 154.3376090  77.4814530
  66.7966700 153.8576530  77.7713100  68.2237530 153.6581740  77.3070690
  61.5890430 154.6495900  78.3590290  60.7575310 154.3944610  78.7586800
  62.1971410 154.7206670  79.0948210  59.9982380 149.6097790  72.1432680
  59.1099080 149.9513760  72.0412560  60.2823570 149.4098110  71.2513510
  57.9615390 152.2103440  78.0272380  58.5331500 151.4425640  78.0276020
  57.9616930 152.5092200  77.1178990  59.2040260 147.6187800  79.8141310
  59.0243100 146.7213550  80.0944070  58.8020340 148.1659670  80.4888260
  68.0438760 149.8203660  77.7153620  68.4203580 148.9475540  77.6027290
  67.9458270 150.1562360  76.8244060  62.1743770 148.1929290  73.1771060
  62.2810520 149.0933020  73.4839820  61.2636130 148.1447260  72.8865710
  71.8262880 147.3154100  74.6481960  72.6472500 146.8250670  74.6907440
  71.8596960 147.9051760  75.4013800  59.8226930 150.1148300  78.4223650
  60.5037040 150.3786670  79.0411050  59.5074980 149.2749170  78.7561660
  64.0151500 151.1615660  77.5096240  64.5229720 151.6596630  78.1501260
  64.5464740 150.3850860  77.3335600  76.1162430 149.3320850  81.2125590
  75.4114600 149.7202560  80.6940700  76.3820350 150.0271140  81.8146520
  62.2987600 145.8014220  81.7759660  62.3006040 146.3186610  80.9705560
  61.4691910 145.3244400  81.7529590  72.0624360 149.2554480  77.4209500
  71.3579930 149.5439370  78.0012610  72.4236520 150.0654590  77.0609060
  61.9802930 147.5124180  79.7830110  62.3219740 148.3566230  79.4883980
  61.0418740 147.6607920  79.8995450  75.1311280 148.7009270  77.8118710
  74.1836190 148.7348250  77.9434140  75.4561270 149.5148220  78.1968070
  65.6630820 145.0006450  76.1074700  65.9705800 144.4453340  75.3910200
  64.7331520 145.1350910  75.9247690  68.0511580 153.0655280  72.8434820
  67.1240860 152.9992660  73.0723290  68.2036400 154.0035410  72.7290060
  68.0380660 149.3372280  69.8401980  67.0984330 149.4986240  69.9254440
  68.3563920 150.0557960  69.2937970  74.5593420 154.0190800  79.8181010
  73.7312050 154.0883890  79.3431140  75.1543900 154.6045110  79.3496840
  72.0808870 154.6275580  73.3470070  71.4621290 154.2895130  72.6996370
  72.0633320 153.9835340  74.0549260  71.5235430 150.8060120  80.7635880
  71.1106610 151.6313830  81.0175870  70.7911380 150.2205160  80.5712240
  63.6568220 153.5920020  75.6254550  63.2525220 152.8797270  75.1300450
  63.7431340 153.2473260  76.5142590  62.3696840 150.3663230  79.4053590
  62.9211430 150.4758570  78.6306840  62.8840350 150.7400830  80.1208820
  70.2573570 153.8662390  70.3542820  70.6966850 153.0284820  70.2080640
  70.9701990 154.4991790  70.4406960  62.0439570 153.8882590  83.0158930
  61.9047340 154.7605390  83.3846330  61.1620930 153.5455400  82.8706870
  73.8390710 145.1205200  68.6683860  73.5263370 145.2132030  69.5682930
  74.6003180 145.6986230  68.6181290  60.3572850 152.4865000  73.1261200
  60.2370450 153.2127090  72.5142470  60.0473740 151.7167910  72.6489110
  75.0492000 149.8576700  84.6458000  74.4336270 150.3656370  84.1173460
  74.7288420 148.9575030  84.5883940  62.8236510 145.8300070  76.5084870
  62.3804660 146.6109610  76.1769390  63.3821500 146.1529960  77.2155810
  67.1106320 148.6968590  82.1120190  66.6485690 148.9051610  82.9240130
  66.7084430 147.8827940  81.8090860  72.1110830 149.9177540  83.2416850
  71.2604420 149.6183290  83.5625920  71.9512620 150.1619550  82.3300670
  69.2060540 151.4179290  85.3415640  69.5313950 150.5843040  85.0017870
  69.9940870 151.9407810  85.4893970  64.8612410 146.3747400  78.3674470
  65.1584740 147.2810230  78.2866490  65.4097970 145.8866180  77.7534040
  62.6150730 150.9533640  74.2366120  62.3891650 150.7370810  75.1412740
  61.8343260 151.3862100  73.8912090  69.8448490 150.9597010  72.8356770
  69.2457380 151.6832810  72.6520390  70.3928100 150.8973790  72.0533220
  65.0549940 151.8519220  84.9026390  64.9593540 150.9113950  84.7526790
  65.8981920 152.0734290  84.5074460  68.4513360 149.5960550  74.8660050
  68.8442930 149.9132750  74.0528740  68.8130210 148.7172430  74.9804570
  60.1860480 148.2632890  83.0560170  59.7923870 149.1108100  83.2632950
  59.4978880 147.6259260  83.2468810  66.7605530 148.3467860  86.1256910
  66.0703850 148.1540060  86.7603000  67.5037830 148.6302500  86.6581210
  57.4877530 146.1861350  77.0890250  57.1990580 146.7564210  77.8015230
  58.2323290 145.7065800  77.4521480  57.6747760 150.1281470  68.2992970
  57.5922430 151.0712230  68.4407960  57.3230820 149.9856380  67.4205320
  69.0368500 152.1866300  78.9610830  68.3049620 152.6953110  79.3100930
  68.6392840 151.3696280  78.6599610  65.4745890 148.8620500  77.3663320
  65.4781950 148.4210450  76.5167860  66.3697010 149.1837830  77.4735140
  61.3248270 148.7446990  76.3257530  60.9848320 149.2222220  77.0824580
  60.5625590 148.2912110  75.9658630  65.5366040 149.8632580  70.3570080
  65.6578860 149.8219060  71.3055900  65.1514550 150.7256730  70.2016810
  69.4994410 147.6399980  78.3733770  69.5167150 148.0908630  79.2175620
  69.2509990 146.7405620  78.5867210  64.5487540 152.1733720  69.7553380
  63.9804440 151.7251970  69.1289290  65.2576540 152.5326500  69.2218530
  72.9265160 145.0532160  84.2120150  73.2510930 144.3221820  84.7378130
  72.9621670 144.7345800  83.3101140  65.7753860 152.9222280  79.1128730
  66.1423990 152.4480850  79.8590070  65.5858920 153.7963850  79.4537070
  58.6394350 147.6665970  75.2422200  58.3541270 147.3021640  76.0800820
  58.5773210 146.9346430  74.6285340  63.5653230 151.9630920  81.4312940
  63.2610300 152.8422900  81.6563300  64.5199690 152.0230710  81.4670380
  68.3132940 146.5595230  71.9635570  67.4997550 146.0608400  71.8880880
  68.1194890 147.3993480  71.5471920  71.0281330 150.9314880  70.2597730
  71.9160950 151.2432110  70.0849070  70.9986420 150.0587130  69.8678310
  59.6216960 152.8033660  82.5784300  59.2631900 153.4687510  83.1657640
  59.3271520 151.9717210  82.9496920  62.8230080 153.2617900  85.4623850
  62.5230220 153.4075080  84.5651670  63.5941320 152.7023190  85.3697240
  73.2995600 152.2426720  69.7277590  73.2159320 152.6740940  68.8774030
  74.0189790 152.7025070  70.1604410  58.1325010 152.8024920  69.2018900
  59.0019860 153.0849720  69.4854820  57.6415330 153.6160790  69.0867710
  65.2959820 154.1898130  73.3227180  65.7522600 155.0003380  73.5487370
  64.9448030 153.8721270  74.1545670  61.1971600 144.5335780  73.7949700
  61.0686230 144.5253680  74.7434620  60.3733620 144.8718870  73.4440710
  58.1965530 146.2926900  83.2556400  57.4824050 146.4923820  83.8609010
  58.6160570 145.5166470  83.6271200  69.6904310 148.7849210  81.0057850
  70.0585130 147.9644420  81.3337420  68.8302510 148.8451100  81.4213500
  73.0566340 147.7406150  71.8145410  72.4279500 147.8451820  71.1003640
  72.5618260 147.9602930  72.6039290  65.0250370 150.0192100  73.2303290
  64.3166520 150.4878440  73.6716900  65.3094850 149.3614110  73.8648480
  66.6506300 151.4388800  81.2295820  67.1491550 151.9134620  81.8947670
  66.7929250 150.5152320  81.4365850  69.0565800 146.7442760  74.6699080
  68.9333580 146.7628890  73.7208590  70.0050360 146.7921700  74.7897480
  63.2285390 148.3277180  70.6054000  64.0775920 148.7647330  70.5394190
  62.8616660 148.6397440  71.4326060  73.8573160 147.6556760  82.0724210
  73.3546760 148.3962160  82.4118020  74.6729820 148.0440760  81.7561000
  72.1495170 152.8989940  75.5185570  71.2085310 152.9140170  75.6933260
  72.4639240 152.1125900  75.9645870  62.1276810 154.5809540  69.0789530
  62.8940080 154.4690900  69.6414960  62.2051500 153.8847510  68.4266300
  60.8223570 152.0134610  69.7622420  60.9027160 151.0662120  69.8739820
  61.7143320 152.3441490  69.8683080  58.3494370 153.8349530  84.9978590
  58.8533390 153.2556810  85.5694820  57.6101790 154.1189760  85.5354960
  60.3817450 151.9779120  85.8928660  60.4222790 151.6792990  86.8013890
  61.2362950 152.3786730  85.7336180  64.1595840 154.5774670  71.0532170
  64.5812260 154.4114540  71.8963560  64.2846680 153.7674900  70.5587310
  62.3223260 150.5571220  83.8603150  61.7919720 150.0662170  83.2326490
  62.9911330 150.9855420  83.3261080  66.6723480 153.6012280  68.3009270
  67.1929140 152.8861300  67.9350420  67.3191880 154.2398150  68.6009780
  71.6923490 152.3636840  85.6283490  72.2744260 151.6089160  85.5403970
  71.8685260 152.8944280  84.8514970  62.8095560 147.5233590  83.9400440
  62.7152430 146.9054340  83.2151310  62.2292950 148.2499880  83.7130350
  65.5757000 146.0806830  80.9727830  65.1274300 146.1031090  80.1273380
  64.9422200 145.6825850  81.5698130  68.3180450 152.7077340  82.9778110
  68.4376660 152.1118480  83.7172950  69.1774450 152.7447030  82.5579410
  70.6568350 153.2614530  81.5540620  70.1303570 153.7857150  80.9505760
  70.9999690 153.8941920  82.1850350  63.0554740 150.6507900  67.9990330
  62.8543800 149.7875260  68.3603670  62.8846790 150.5641260  67.0611930
  65.0849220 149.2498690  84.2353930  65.6748910 148.9414540  84.9231750
  64.2669460 148.7778440  84.3913830  69.9042650 148.8664500  84.4686950
  69.2158170 148.2046040  84.4036940  70.6248670 148.4202770  84.9135410
  70.5343050 145.4616130  70.5277210  70.8145340 144.6184030  70.8836630
  69.7608780 145.6939240  71.0415960  61.8537540 147.7508520  67.9868210
  62.1563440 147.7575950  67.0787360  62.5932130 147.4006380  68.4835870
  65.0722470 146.6943140  68.9724410  64.7244470 146.0167130  68.3926860
  65.2735240 146.2332650  69.7867800  58.4128110 153.2230790  75.3688780
  57.7576950 152.9542430  74.7248480  59.2506060 153.1135270  74.9190760
  71.3618550 148.0172080  69.5907270  71.7803430 147.8303060  68.7503930
  71.0554610 147.1651130  69.9010200  74.8608280 152.9296220  73.2883070
  74.4851880 152.1624150  72.8564360  74.1311400 153.3118920  73.7758000
  59.4504040 153.6083360  79.9092120  59.8177080 153.5210760  80.7888140
  58.8814860 152.8449910  79.8098980  74.2507900 152.0767740  82.9222590
  74.0193990 151.8480490  82.0220540  74.5112450 152.9967290  82.8767480
  59.0020040 150.5192450  83.8150540  58.1076090 150.4859210  84.1544250
  59.5417590 150.7179240  84.5801790  72.6895970 147.3024170  85.7002290
  73.5666150 147.3107570  86.0836290  72.7016810 146.5655010  85.0894640
  57.6266190 150.4329720  71.3114110  56.7230270 150.6959920  71.1365770
  58.1106810 150.7040890  70.5314070  74.1359240 151.1553710  76.5890310
  74.6596720 150.6616360  75.9580480  74.7218660 151.2904070  77.3337880
  74.3148960 151.2393580  80.1109860  73.3651670 151.2057120  80.2254850
  74.4961970 152.1493690  79.8759630  60.1693400 149.4895260  69.2208490
  60.8785100 149.0678480  68.7355770  59.4533340 149.5570490  68.5891840
  59.8167560 145.5434590  68.2611140  60.5395690 146.0843530  68.5792360
  60.0892080 145.2698010  67.3852680  73.6259210 150.4127060  72.5282720
  74.1218330 150.1797930  73.3131600  73.4275280 149.5738900  72.1120360
  59.5059750 144.7940780  78.1633760  60.1535940 144.2438160  77.7228920
  59.9261590 145.0483930  78.9849570  75.0546370 149.0488010  75.0620400
  74.9445650 148.8944050  76.0002670  75.8153960 148.5208950  74.8195810
  73.4012090 144.9882140  81.5203400  74.0384310 145.6016280  81.8862590
  73.5486980 145.0242800  80.5752630  75.9436640 146.8795930  68.3026540
  76.8685950 146.7477110  68.0944830  75.9212430 146.9588750  69.2562990
  76.0175130 147.6506590  70.9283250  75.2226630 147.5851710  71.4576160
  76.2218410 148.5857230  70.9168600  59.2591750 144.9496450  80.9059080
  58.9106570 145.4060270  81.6717260  58.9279450 144.0553580  80.9881510
  66.7716570 146.1408330  84.4278500  66.7105460 146.7330160  85.1773910
  67.7116950 146.0334290  84.2828760  69.4091130 145.7978390  84.0670790
  70.0231540 146.1157680  83.4051870  69.9540690 145.3126980  84.6866650
  59.9312390 144.4772650  84.1809850  60.4795380 144.2960700  83.4175960
  59.9967700 143.6866760  84.7166160  71.0571150 146.5681400  81.7781800
  70.7284510 145.7533160  81.3983530  72.0053450 146.5251210  81.6547490
  72.4495060 145.9803470  77.3782080  72.8903150 145.9248570  76.5303680
  72.1802650 146.8961480  77.4492260  59.2414400 145.5827850  71.8546710
  59.9993760 145.6956730  71.2810740  58.7791570 146.4197050  71.8090140
  65.7828210 147.6967120  74.8449020  64.9702720 147.3224010  74.5044900
  66.2869850 146.9412200  75.1470210  70.2853190 144.3609570  76.0832090
  70.8882560 144.9329780  76.5580610  69.5446180 144.9249010  75.8605990
  73.4287790 144.7631130  71.3572370  73.6238420 145.6614580  71.6239800
  72.6417660 144.5318210  71.8505320  61.6139550 146.1091900  70.3948680
  62.1432310 145.3221700  70.2656630  62.2467870 146.7883090  70.6284210
  63.8077390 145.8467040  73.4494070  63.1780130 145.1454350  73.6164200
  63.2682530 146.6071170  73.2327230  63.9332950 145.1251020  85.8846560
  63.6517220 145.6284620  85.1207380  64.3152650 144.3272770  85.5188690
  70.5348410 144.5404600  86.4627030  70.4213860 144.8599210  87.3578550
  71.3518150 144.9417110  86.1664310  69.4406560 152.5597070  56.8261770
  69.3600610 151.6451680  56.5553480  69.0270980 153.0564140  56.1201480
  67.5724600 154.3376090  58.7071040  66.7966700 153.8576530  58.9969610
  68.2237530 153.6581740  58.5327200  61.5890430 154.6495900  59.5846800
  60.7575310 154.3944610  59.9843310  62.1971410 154.7206670  60.3204720
  59.9982380 149.6097790  53.3689190  59.1099080 149.9513760  53.2669070
  60.2823570 149.4098110  52.4770020  57.9615390 152.2103440  59.2528890
  58.5331500 151.4425640  59.2532530  57.9616930 152.5092200  58.3435500
  59.2040260 147.6187800  61.0397820  59.0243100 146.7213550  61.3200580
  58.8020340 148.1659670  61.7144770  68.0438760 149.8203660  58.9410130
  68.4203580 148.9475540  58.8283800  67.9458270 150.1562360  58.0500570
  62.1743770 148.1929290  54.4027570  62.2810520 149.0933020  54.7096330
  61.2636130 148.1447260  54.1122220  71.8262880 147.3154100  55.8738470
  72.6472500 146.8250670  55.9163950  71.8596960 147.9051760  56.6270310
  59.8226930 150.1148300  59.6480160  60.5037040 150.3786670  60.2667560
  59.5074980 149.2749170  59.9818170  64.0151500 151.1615660  58.7352750
  64.5229720 151.6596630  59.3757770  64.5464740 150.3850860  58.5592110
  76.1162430 149.3320850  62.4382100  75.4114600 149.7202560  61.9197210
  76.3820350 150.0271140  63.0403030  62.2987600 145.8014220  63.0016170
  62.3006040 146.3186610  62.1962070  61.4691910 145.3244400  62.9786100
  72.0624360 149.2554480  58.6466010  71.3579930 149.5439370  59.2269120
  72.4236520 150.0654590  58.2865570  61.9802930 147.5124180  61.0086620
  62.3219740 148.3566230  60.7140490  61.0418740 147.6607920  61.1251960
  75.1311280 148.7009270  59.0375220  74.1836190 148.7348250  59.1690650
  75.4561270 149.5148220  59.4224580  65.6630820 145.0006450  57.3331210
  65.9705800 144.4453340  56.6166710  64.7331520 145.1350910  57.1504200
  68.0511580 153.0655280  54.0691330  67.1240860 152.9992660  54.2979800
  68.2036400 154.0035410  53.9546570  68.0380660 149.3372280  51.0658490
  67.0984330 149.4986240  51.1510950  68.3563920 150.0557960  50.5194480
  74.5593420 154.0190800  61.0437520  73.7312050 154.0883890  60.5687650
  75.1543900 154.6045110  60.5753350  72.0808870 154.6275580  54.5726580
  71.4621290 154.2895130  53.9252880  72.0633320 153.9835340  55.2805770
  71.5235430 150.8060120  61.9892390  71.1106610 151.6313830  62.2432380
  70.7911380 150.2205160  61.7968750  63.6568220 153.5920020  56.8511060
  63.2525220 152.8797270  56.3556960  63.7431340 153.2473260  57.7399100
  62.3696840 150.3663230  60.6310100  62.9211430 150.4758570  59.8563350
  62.8840350 150.7400830  61.3465330  70.2573570 153.8662390  51.5799330
  70.6966850 153.0284820  51.4337150  70.9701990 154.4991790  51.6663470
  62.0439570 153.8882590  64.2415440  61.9047340 154.7605390  64.6102840
  61.1620930 153.5455400  64.0963380  73.8390710 145.1205200  49.8940370
  73.5263370 145.2132030  50.7939440  74.6003180 145.6986230  49.8437800
  60.3572850 152.4865000  54.3517710  60.2370450 153.2127090  53.7398980
  60.0473740 151.7167910  53.8745620  75.0492000 149.8576700  65.8714510
  74.4336270 150.3656370  65.3429970  74.7288420 148.9575030  65.8140450
  62.8236510 145.8300070  57.7341380  62.3804660 146.6109610  57.4025900
  63.3821500 146.1529960  58.4412320  67.1106320 148.6968590  63.3376700
  66.6485690 148.9051610  64.1496640  66.7084430 147.8827940  63.0347370
  72.1110830 149.9177540  64.4673360  71.2604420 149.6183290  64.7882430
  71.9512620 150.1619550  63.5557180  69.2060540 151.4179290  66.5672150
  69.5313950 150.5843040  66.2274380  69.9940870 151.9407810  66.7150480
  65.9395330 145.4510770  52.6147210  65.3149510 145.4470640  53.3400520
  65.8525450 144.5841730  52.2183180  64.8612410 146.3747400  59.5930980
  65.1584740 147.2810230  59.5123000  65.4097970 145.8866180  58.9790550
  62.6150730 150.9533640  55.4622630  62.3891650 150.7370810  56.3669250
  61.8343260 151.3862100  55.1168600  69.8448490 150.9597010  54.0613280
  69.2457380 151.6832810  53.8776900  70.3928100 150.8973790  53.2789730
  65.0549940 151.8519220  66.1282900  64.9593540 150.9113950  65.9783300
  65.8981920 152.0734290  65.7330970  68.4513360 149.5960550  56.0916560
  68.8442930 149.9132750  55.2785250  68.8130210 148.7172430  56.2061080
  60.1860480 148.2632890  64.2816680  59.7923870 149.1108100  64.4889460
  59.4978880 147.6259260  64.4725320  66.7605530 148.3467860  67.3513420
  66.0703850 148.1540060  67.9859510  67.5037830 148.6302500  67.8837720
  57.4877530 146.1861350  58.3146760  57.1990580 146.7564210  59.0271740
  58.2323290 145.7065800  58.6777990  57.6747760 150.1281470  49.5249480
  57.5922430 151.0712230  49.6664470  57.3230820 149.9856380  48.6461830
  69.0368500 152.1866300  60.1867340  68.3049620 152.6953110  60.5357440
  68.6392840 151.3696280  59.8856120  65.4745890 148.8620500  58.5919830
  65.4781950 148.4210450  57.7424370  66.3697010 149.1837830  58.6991650
  61.3248270 148.7446990  57.5514040  60.9848320 149.2222220  58.3081090
  60.5625590 148.2912110  57.1915140  65.5366040 149.8632580  51.5826590
  65.6578860 149.8219060  52.5312410  65.1514550 150.7256730  51.4273320
  69.4994410 147.6399980  59.5990280  69.5167150 148.0908630  60.4432130
  69.2509990 146.7405620  59.8123720  64.5487540 152.1733720  50.9809890
  63.9804440 151.7251970  50.3545800  65.2576540 152.5326500  50.4475040
  72.9265160 145.0532160  65.4376660  73.2510930 144.3221820  65.9634640
  72.9621670 144.7345800  64.5357650  65.7753860 152.9222280  60.3385240
  66.1423990 152.4480850  61.0846580  65.5858920 153.7963850  60.6793580
  58.6394350 147.6665970  56.4678710  58.3541270 147.3021640  57.3057330
  58.5773210 146.9346430  55.8541850  63.5653230 151.9630920  62.6569450
  63.2610300 152.8422900  62.8819810  64.5199690 152.0230710  62.6926890
  68.3132940 146.5595230  53.1892080  67.4997550 146.0608400  53.1137390
  68.1194890 147.3993480  52.7728430  71.0281330 150.9314880  51.4854240
  71.9160950 151.2432110  51.3105580  70.9986420 150.0587130  51.0934820
  59.6216960 152.8033660  63.8040810  59.2631900 153.4687510  64.3914150
  59.3271520 151.9717210  64.1753430  62.8230080 153.2617900  66.6880360
  62.5230220 153.4075080  65.7908180  63.5941320 152.7023190  66.5953750
  73.2995600 152.2426720  50.9534100  73.2159320 152.6740940  50.1030540
  74.0189790 152.7025070  51.3860920  58.1325010 152.8024920  50.4275410
  59.0019860 153.0849720  50.7111330  57.6415330 153.6160790  50.3124220
  65.2959820 154.1898130  54.5483690  65.7522600 155.0003380  54.7743880
  64.9448030 153.8721270  55.3802180  61.1971600 144.5335780  55.0206210
  61.0686230 144.5253680  55.9691130  60.3733620 144.8718870  54.6697220
  58.1965530 146.2926900  64.4812910  57.4824050 146.4923820  65.0865520
  58.6160570 145.5166470  64.8527710  69.6904310 148.7849210  62.2314360
  70.0585130 147.9644420  62.5593930  68.8302510 148.8451100  62.6470010
  73.0566340 147.7406150  53.0401920  72.4279500 147.8451820  52.3260150
  72.5618260 147.9602930  53.8295800  65.0250370 150.0192100  54.4559800
  64.3166520 150.4878440  54.8973410  65.3094850 149.3614110  55.0904990
  66.6506300 151.4388800  62.4552330  67.1491550 151.9134620  63.1204180
  66.7929250 150.5152320  62.6622360  69.0565800 146.7442760  55.8955590
  68.9333580 146.7628890  54.9465100  70.0050360 146.7921700  56.0153990
  63.2285390 148.3277180  51.8310510  64.0775920 148.7647330  51.7650700
  62.8616660 148.6397440  52.6582570  73.8573160 147.6556760  63.2980720
  73.3546760 148.3962160  63.6374530  74.6729820 148.0440760  62.9817510
  72.1495170 152.8989940  56.7442080  71.2085310 152.9140170  56.9189770
  72.4639240 152.1125900  57.1902380  62.1276810 154.5809540  50.3046040
  62.8940080 154.4690900  50.8671470  62.2051500 153.8847510  49.6522810
  60.8223570 152.0134610  50.9878930  60.9027160 151.0662120  51.0996330
  61.7143320 152.3441490  51.0939590  58.3494370 153.8349530  66.2235100
  58.8533390 153.2556810  66.7951330  57.6101790 154.1189760  66.7611470
  60.3817450 151.9779120  67.1185170  60.4222790 151.6792990  68.0270400
  61.2362950 152.3786730  66.9592690  64.1595840 154.5774670  52.2788680
  64.5812260 154.4114540  53.1220070  64.2846680 153.7674900  51.7843820
  62.3223260 150.5571220  65.0859660  61.7919720 150.0662170  64.4583000
  62.9911330 150.9855420  64.5517590  66.6723480 153.6012280  49.5265780
  67.1929140 152.8861300  49.1606930  67.3191880 154.2398150  49.8266290
  71.6923490 152.3636840  66.8540000  72.2744260 151.6089160  66.7660480
  71.8685260 152.8944280  66.0771480  62.8095560 147.5233590  65.1656950
  62.7152430 146.9054340  64.4407820  62.2292950 148.2499880  64.9386860
  65.5757000 146.0806830  62.1984340  65.1274300 146.1031090  61.3529890
  64.9422200 145.6825850  62.7954640  68.3180450 152.7077340  64.2034620
  68.4376660 152.1118480  64.9429460  69.1774450 152.7447030  63.7835920
  70.6568350 153.2614530  62.7797130  70.1303570 153.7857150  62.1762270
  70.9999690 153.8941920  63.4106860  63.0554740 150.6507900  49.2246840
  62.8543800 149.7875260  49.5860180  62.8846790 150.5641260  48.2868440
  65.0849220 149.2498690  65.4610440  65.6748910 148.9414540  66.1488260
  64.2669460 148.7778440  65.6170340  69.9042650 148.8664500  65.6943460
  69.2158170 148.2046040  65.6293450  70.6248670 148.4202770  66.1391920
  70.5343050 145.4616130  51.7533720  70.8145340 144.6184030  52.1093140
  69.7608780 145.6939240  52.2672470  61.8537540 147.7508520  49.2124720
  62.1563440 147.7575950  48.3043870  62.5932130 147.4006380  49.7092380
  65.0722470 146.6943140  50.1980920  64.7244470 146.0167130  49.6183370
  65.2735240 146.2332650  51.0124310  58.4128110 153.2230790  56.5945290
  57.7576950 152.9542430  55.9504990  59.2506060 153.1135270  56.1447270
  71.3618550 148.0172080  50.8163780  71.7803430 147.8303060  49.9760440
  71.0554610 147.1651130  51.1266710  74.8608280 152.9296220  54.5139580
  74.4851880 152.1624150  54.0820870  74.1311400 153.3118920  55.0014510
  59.4504040 153.6083360  61.1348630  59.8177080 153.5210760  62.0144650
  58.8814860 152.8449910  61.0355490  74.2507900 152.0767740  64.1479100
  74.0193990 151.8480490  63.2477050  74.5112450 152.9967290  64.1023990
  59.0020040 150.5192450  65.0407050  58.1076090 150.4859210  65.3800760
  59.5417590 150.7179240  65.8058300  72.6895970 147.3024170  66.9258800
  73.5666150 147.3107570  67.3092800  72.7016810 146.5655010  66.3151150
  57.6266190 150.4329720  52.5370620  56.7230270 150.6959920  52.3622280
  58.1106810 150.7040890  51.7570580  74.1359240 151.1553710  57.8146820
  74.6596720 150.6616360  57.1836990  74.7218660 151.2904070  58.5594390
  74.3148960 151.2393580  61.3366370  73.3651670 151.2057120  61.4511360
  74.4961970 152.1493690  61.1016140  60.1693400 149.4895260  50.4465000
  60.8785100 149.0678480  49.9612280  59.4533340 149.5570490  49.8148350
  59.8167560 145.5434590  49.4867650  60.5395690 146.0843530  49.8048870
  60.0892080 145.2698010  48.6109190  73.6259210 150.4127060  53.7539230
  74.1218330 150.1797930  54.5388110  73.4275280 149.5738900  53.3376870
  59.5059750 144.7940780  59.3890270  60.1535940 144.2438160  58.9485430
  59.9261590 145.0483930  60.2106080  75.0546370 149.0488010  56.2876910
  74.9445650 148.8944050  57.2259180  75.8153960 148.5208950  56.0452320
  73.4012090 144.9882140  62.7459910  74.0384310 145.6016280  63.1119100
  73.5486980 145.0242800  61.8009140  75.9436640 146.8795930  49.5283050
  76.8685950 146.7477110  49.3201340  75.9212430 146.9588750  50.4819500
  76.0175130 147.6506590  52.1539760  75.2226630 147.5851710  52.6832670
  76.2218410 148.5857230  52.1425110  59.2591750 144.9496450  62.1315590
  58.9106570 145.4060270  62.8973770  58.9279450 144.0553580  62.2138020
  66.7716570 146.1408330  65.6535010  66.7105460 146.7330160  66.4030420
  67.7116950 146.0334290  65.5085270  69.4091130 145.7978390  65.2927300
  70.0231540 146.1157680  64.6308380  69.9540690 145.3126980  65.9123160
  59.9312390 144.4772650  65.4066360  60.4795380 144.2960700  64.6432470
  59.9967700 143.6866760  65.9422670  70.1499170 144.3610530  61.6196590
  69.2759010 144.6945640  61.4169520  70.0409920 143.8883710  62.4448460
  71.0571150 146.5681400  63.0038310  70.7284510 145.7533160  62.6240040
  72.0053450 146.5251210  62.8804000  67.8973990 145.2780370  60.5589500
  67.1145780 145.7525870  60.8386260  67.6036920 144.3735200  60.4502680
  72.4495060 145.9803470  58.6038590  72.8903150 145.9248570  57.7560190
  72.1802650 146.8961480  58.6748770  74.3133630 145.6118710  56.6147410
  74.2522030 144.6679930  56.4678430  75.0925660 145.7198800  57.1600870
  59.2414400 145.5827850  53.0803220  59.9993760 145.6956730  52.5067250
  58.7791570 146.4197050  53.0346650  65.7828210 147.6967120  56.0705530
  64.9702720 147.3224010  55.7301410  66.2869850 146.9412200  56.3726720
  70.2853190 144.3609570  57.3088600  70.8882560 144.9329780  57.7837120
  69.5446180 144.9249010  57.0862500  73.4287790 144.7631130  52.5828880
  73.6238420 145.6614580  52.8496310  72.6417660 144.5318210  53.0761830
  61.6139550 146.1091900  51.6205190  62.1432310 145.3221700  51.4913140
  62.2467870 146.7883090  51.8540720  63.8077390 145.8467040  54.6750580
  63.1780130 145.1454350  54.8420710  63.2682530 146.6071170  54.4583740
  63.9332950 145.1251020  67.1103070  63.6517220 145.6284620  66.3463890
  64.3152650 144.3272770  66.7445200  70.5348410 144.5404600  67.6883540
  70.4213860 144.8599210  68.5835060  71.3518150 144.9417110  67.3920820
  69.4406560 152.5597070  38.0518280  69.3600610 151.6451680  37.7809990
  69.0270980 153.0564140  37.3457990  67.5724600 154.3376090  39.9327550
  66.7966700 153.8576530  40.2226120  68.2237530 153.6581740  39.7583710
  61.5890430 154.6495900  40.8103310  60.7575310 154.3944610  41.2099820
  62.1971410 154.7206670  41.5461230  59.9982380 149.6097790  34.5945700
  59.1099080 149.9513760  34.4925580  60.2823570 149.4098110  33.7026530
  57.9615390 152.2103440  40.4785400  58.5331500 151.4425640  40.4789040
  57.9616930 152.5092200  39.5692010  59.2040260 147.6187800  42.2654330
  59.0243100 146.7213550  42.5457090  58.8020340 148.1659670  42.9401280
  68.0438760 149.8203660  40.1666640  68.4203580 148.9475540  40.0540310
  67.9458270 150.1562360  39.2757080  62.1743770 148.1929290  35.6284080
  62.2810520 149.0933020  35.9352840  61.2636130 148.1447260  35.3378730
  71.8262880 147.3154100  37.0994980  72.6472500 146.8250670  37.1420460
  71.8596960 147.9051760  37.8526820  59.8226930 150.1148300  40.8736670
  60.5037040 150.3786670  41.4924070  59.5074980 149.2749170  41.2074680
  64.0151500 151.1615660  39.9609260  64.5229720 151.6596630  40.6014280
  64.5464740 150.3850860  39.7848620  76.1162430 149.3320850  43.6638610
  75.4114600 149.7202560  43.1453720  76.3820350 150.0271140  44.2659540
  62.2987600 145.8014220  44.2272680  62.3006040 146.3186610  43.4218580
  61.4691910 145.3244400  44.2042610  72.0624360 149.2554480  39.8722520
  71.3579930 149.5439370  40.4525630  72.4236520 150.0654590  39.5122080
  61.9802930 147.5124180  42.2343130  62.3219740 148.3566230  41.9397000
  61.0418740 147.6607920  42.3508470  75.1311280 148.7009270  40.2631730
  74.1836190 148.7348250  40.3947160  75.4561270 149.5148220  40.6481090
  65.6630820 145.0006450  38.5587720  65.9705800 144.4453340  37.8423220
  64.7331520 145.1350910  38.3760710  68.0511580 153.0655280  35.2947840
  67.1240860 152.9992660  35.5236310  68.2036400 154.0035410  35.1803080
  68.0380660 149.3372280  32.2915000  67.0984330 149.4986240  32.3767460
  68.3563920 150.0557960  31.7450990  74.5593420 154.0190800  42.2694030
  73.7312050 154.0883890  41.7944160  75.1543900 154.6045110  41.8009860
  72.0808870 154.6275580  35.7983090  71.4621290 154.2895130  35.1509390
  72.0633320 153.9835340  36.5062280  71.5235430 150.8060120  43.2148900
  71.1106610 151.6313830  43.4688890  70.7911380 150.2205160  43.0225260
  63.6568220 153.5920020  38.0767570  63.2525220 152.8797270  37.5813470
  63.7431340 153.2473260  38.9655610  62.3696840 150.3663230  41.8566610
  62.9211430 150.4758570  41.0819860  62.8840350 150.7400830  42.5721840
  70.2573570 153.8662390  32.8055840  70.6966850 153.0284820  32.6593660
  70.9701990 154.4991790  32.8919980  62.0439570 153.8882590  45.4671950
  61.9047340 154.7605390  45.8359350  61.1620930 153.5455400  45.3219890
  73.8390710 145.1205200  31.1196880  73.5263370 145.2132030  32.0195950
  74.6003180 145.6986230  31.0694310  60.3572850 152.4865000  35.5774220
  60.2370450 153.2127090  34.9655490  60.0473740 151.7167910  35.1002130
  75.0492000 149.8576700  47.0971020  74.4336270 150.3656370  46.5686480
  74.7288420 148.9575030  47.0396960  62.8236510 145.8300070  38.9597890
  62.3804660 146.6109610  38.6282410  63.3821500 146.1529960  39.6668830
  67.1106320 148.6968590  44.5633210  66.6485690 148.9051610  45.3753150
  66.7084430 147.8827940  44.2603880  72.1110830 149.9177540  45.6929870
  71.2604420 149.6183290  46.0138940  71.9512620 150.1619550  44.7813690
  69.2060540 151.4179290  47.7928660  69.5313950 150.5843040  47.4530890
  69.9940870 151.9407810  47.9406990  65.9395330 145.4510770  33.8403720
  65.3149510 145.4470640  34.5657030  65.8525450 144.5841730  33.4439690
  64.8612410 146.3747400  40.8187490  65.1584740 147.2810230  40.7379510
  65.4097970 145.8866180  40.2047060  62.6150730 150.9533640  36.6879140
  62.3891650 150.7370810  37.5925760  61.8343260 151.3862100  36.3425110
  69.8448490 150.9597010  35.2869790  69.2457380 151.6832810  35.1033410
  70.3928100 150.8973790  34.5046240  65.0549940 151.8519220  47.3539410
  64.9593540 150.9113950  47.2039810  65.8981920 152.0734290  46.9587480
  68.4513360 149.5960550  37.3173070  68.8442930 149.9132750  36.5041760
  68.8130210 148.7172430  37.4317590  60.1860480 148.2632890  45.5073190
  59.7923870 149.1108100  45.7145970  59.4978880 147.6259260  45.6981830
  66.7605530 148.3467860  48.5769930  66.0703850 148.1540060  49.2116020
  67.5037830 148.6302500  49.1094230  57.4877530 146.1861350  39.5403270
  57.1990580 146.7564210  40.2528250  58.2323290 145.7065800  39.9034500
  57.6747760 150.1281470  30.7505990  57.5922430 151.0712230  30.8920980
  57.3230820 149.9856380  29.8718340  69.0368500 152.1866300  41.4123850
  68.3049620 152.6953110  41.7613950  68.6392840 151.3696280  41.1112630
  65.4745890 148.8620500  39.8176340  65.4781950 148.4210450  38.9680880
  66.3697010 149.1837830  39.9248160  61.3248270 148.7446990  38.7770550
  60.9848320 149.2222220  39.5337600  60.5625590 148.2912110  38.4171650
  65.5366040 149.8632580  32.8083100  65.6578860 149.8219060  33.7568920
  65.1514550 150.7256730  32.6529830  69.4994410 147.6399980  40.8246790
  69.5167150 148.0908630  41.6688640  69.2509990 146.7405620  41.0380230
  64.5487540 152.1733720  32.2066400  63.9804440 151.7251970  31.5802310
  65.2576540 152.5326500  31.6731550  72.9265160 145.0532160  46.6633170
  73.2510930 144.3221820  47.1891150  72.9621670 144.7345800  45.7614160
  65.7753860 152.9222280  41.5641750  66.1423990 152.4480850  42.3103090
  65.5858920 153.7963850  41.9050090  58.6394350 147.6665970  37.6935220
  58.3541270 147.3021640  38.5313840  58.5773210 146.9346430  37.0798360
  63.5653230 151.9630920  43.8825960  63.2610300 152.8422900  44.1076320
  64.5199690 152.0230710  43.9183400  68.3132940 146.5595230  34.4148590
  67.4997550 146.0608400  34.3393900  68.1194890 147.3993480  33.9984940
  71.0281330 150.9314880  32.7110750  71.9160950 151.2432110  32.5362090
  70.9986420 150.0587130  32.3191330  59.6216960 152.8033660  45.0297320
  59.2631900 153.4687510  45.6170660  59.3271520 151.9717210  45.4009940
  62.8230080 153.2617900  47.9136870  62.5230220 153.4075080  47.0164690
  63.5941320 152.7023190  47.8210260  73.2995600 152.2426720  32.1790610
  73.2159320 152.6740940  31.3287050  74.0189790 152.7025070  32.6117430
  58.1325010 152.8024920  31.6531920  59.0019860 153.0849720  31.9367840
  57.6415330 153.6160790  31.5380730  65.2959820 154.1898130  35.7740200
  65.7522600 155.0003380  36.0000390  64.9448030 153.8721270  36.6058690
  61.1971600 144.5335780  36.2462720  61.0686230 144.5253680  37.1947640
  60.3733620 144.8718870  35.8953730  58.1965530 146.2926900  45.7069420
  57.4824050 146.4923820  46.3122030  58.6160570 145.5166470  46.0784220
  69.6904310 148.7849210  43.4570870  70.0585130 147.9644420  43.7850440
  68.8302510 148.8451100  43.8726520  73.0566340 147.7406150  34.2658430
  72.4279500 147.8451820  33.5516660  72.5618260 147.9602930  35.0552310
  65.0250370 150.0192100  35.6816310  64.3166520 150.4878440  36.1229920
  65.3094850 149.3614110  36.3161500  66.6506300 151.4388800  43.6808840
  67.1491550 151.9134620  44.3460690  66.7929250 150.5152320  43.8878870
  69.0565800 146.7442760  37.1212100  68.9333580 146.7628890  36.1721610
  70.0050360 146.7921700  37.2410500  63.2285390 148.3277180  33.0567020
  64.0775920 148.7647330  32.9907210  62.8616660 148.6397440  33.8839080
  73.8573160 147.6556760  44.5237230  73.3546760 148.3962160  44.8631040
  74.6729820 148.0440760  44.2074020  72.1495170 152.8989940  37.9698590
  71.2085310 152.9140170  38.1446280  72.4639240 152.1125900  38.4158890
  62.1276810 154.5809540  31.5302550  62.8940080 154.4690900  32.0927980
  62.2051500 153.8847510  30.8779320  60.8223570 152.0134610  32.2135440
  60.9027160 151.0662120  32.3252840  61.7143320 152.3441490  32.3196100
  58.3494370 153.8349530  47.4491610  58.8533390 153.2556810  48.0207840
  57.6101790 154.1189760  47.9867980  60.3817450 151.9779120  48.3441680
  60.4222790 151.6792990  49.2526910  61.2362950 152.3786730  48.1849200
  64.1595840 154.5774670  33.5045190  64.5812260 154.4114540  34.3476580
  64.2846680 153.7674900  33.0100330  62.3223260 150.5571220  46.3116170
  61.7919720 150.0662170  45.6839510  62.9911330 150.9855420  45.7774100
  66.6723480 153.6012280  30.7522290  67.1929140 152.8861300  30.3863440
  67.3191880 154.2398150  31.0522800  71.6923490 152.3636840  48.0796510
  72.2744260 151.6089160  47.9916990  71.8685260 152.8944280  47.3027990
  62.8095560 147.5233590  46.3913460  62.7152430 146.9054340  45.6664330
  62.2292950 148.2499880  46.1643370  65.5757000 146.0806830  43.4240850
  65.1274300 146.1031090  42.5786400  64.9422200 145.6825850  44.0211150
  68.3180450 152.7077340  45.4291130  68.4376660 152.1118480  46.1685970
  69.1774450 152.7447030  45.0092430  70.6568350 153.2614530  44.0053640
  70.1303570 153.7857150  43.4018780  70.9999690 153.8941920  44.6363370
  63.0554740 150.6507900  30.4503350  62.8543800 149.7875260  30.8116690
  62.8846790 150.5641260  29.5124950  65.0849220 149.2498690  46.6866950
  65.6748910 148.9414540  47.3744770  64.2669460 148.7778440  46.8426850
  69.9042650 148.8664500  46.9199970  69.2158170 148.2046040  46.8549960
  70.6248670 148.4202770  47.3648430  70.5343050 145.4616130  32.9790230
  70.8145340 144.6184030  33.3349650  69.7608780 145.6939240  33.4928980
  61.8537540 147.7508520  30.4381230  62.1563440 147.7575950  29.5300380
  62.5932130 147.4006380  30.9348890  65.0722470 146.6943140  31.4237430
  64.7244470 146.0167130  30.8439880  65.2735240 146.2332650  32.2380820
  58.4128110 153.2230790  37.8201800  57.7576950 152.9542430  37.1761500
  59.2506060 153.1135270  37.3703780  71.3618550 148.0172080  32.0420290
  71.7803430 147.8303060  31.2016950  71.0554610 147.1651130  32.3523220
  74.8608280 152.9296220  35.7396090  74.4851880 152.1624150  35.3077380
  74.1311400 153.3118920  36.2271020  59.4504040 153.6083360  42.3605140
  59.8177080 153.5210760  43.2401160  58.8814860 152.8449910  42.2612000
  74.2507900 152.0767740  45.3735610  74.0193990 151.8480490  44.4733560
  74.5112450 152.9967290  45.3280500  59.0020040 150.5192450  46.2663560
  58.1076090 150.4859210  46.6057270  59.5417590 150.7179240  47.0314810
  72.6895970 147.3024170  48.1515310  73.5666150 147.3107570  48.5349310
  72.7016810 146.5655010  47.5407660  57.6266190 150.4329720  33.7627130
  56.7230270 150.6959920  33.5878790  58.1106810 150.7040890  32.9827090
  74.1359240 151.1553710  39.0403330  74.6596720 150.6616360  38.4093500
  74.7218660 151.2904070  39.7850900  74.3148960 151.2393580  42.5622880
  73.3651670 151.2057120  42.6767870  74.4961970 152.1493690  42.3272650
  60.1693400 149.4895260  31.6721510  60.8785100 149.0678480  31.1868790
  59.4533340 149.5570490  31.0404860  59.8167560 145.5434590  30.7124160
  60.5395690 146.0843530  31.0305380  60.0892080 145.2698010  29.8365700
  73.6259210 150.4127060  34.9795740  74.1218330 150.1797930  35.7644620
  73.4275280 149.5738900  34.5633380  59.5059750 144.7940780  40.6146780
  60.1535940 144.2438160  40.1741940  59.9261590 145.0483930  41.4362590
  75.0546370 149.0488010  37.5133420  74.9445650 148.8944050  38.4515690
  75.8153960 148.5208950  37.2708830  73.4012090 144.9882140  43.9716420
  74.0384310 145.6016280  44.3375610  73.5486980 145.0242800  43.0265650
  75.9436640 146.8795930  30.7539560  76.8685950 146.7477110  30.5457850
  75.9212430 146.9588750  31.7076010  76.0175130 147.6506590  33.3796270
  75.2226630 147.5851710  33.9089180  76.2218410 148.5857230  33.3681620
  59.2591750 144.9496450  43.3572100  58.9106570 145.4060270  44.1230280
  58.9279450 144.0553580  43.4394530  66.7716570 146.1408330  46.8791520
  66.7105460 146.7330160  47.6286930  67.7116950 146.0334290  46.7341780
  69.4091130 145.7978390  46.5183810  70.0231540 146.1157680  45.8564890
  69.9540690 145.3126980  47.1379670  59.9312390 144.4772650  46.6322870
  60.4795380 144.2960700  45.8688980  59.9967700 143.6866760  47.1679180
  70.1499170 144.3610530  42.8453100  69.2759010 144.6945640  42.6426030
  70.0409920 143.8883710  43.6704970  71.0571150 146.5681400  44.2294820
  70.7284510 145.7533160  43.8496550  72.0053450 146.5251210  44.1060510
  67.8973990 145.2780370  41.7846010  67.1145780 145.7525870  42.0642770
  67.6036920 144.3735200  41.6759190  72.4495060 145.9803470  39.8295100
  72.8903150 145.9248570  38.9816700  72.1802650 146.8961480  39.9005280
  74.3133630 145.6118710  37.8403920  74.2522030 144.6679930  37.6934940
  75.0925660 145.7198800  38.3857380  59.2414400 145.5827850  34.3059730
  59.9993760 145.6956730  33.7323760  58.7791570 146.4197050  34.2603160
  65.7828210 147.6967120  37.2962040  64.9702720 147.3224010  36.9557920
  66.2869850 146.9412200  37.5983230  70.2853190 144.3609570  38.5345110
  70.8882560 144.9329780  39.0093630  69.5446180 144.9249010  38.3119010
  73.4287790 144.7631130  33.8085390  73.6238420 145.6614580  34.0752820
  72.6417660 144.5318210  34.3018340  61.6139550 146.1091900  32.8461700
  62.1432310 145.3221700  32.7169650  62.2467870 146.7883090  33.0797230
  63.8077390 145.8467040  35.9007090  63.1780130 145.1454350  36.0677220
  63.2682530 146.6071170  35.6840250  63.9332950 145.1251020  48.3359580
  63.6517220 145.6284620  47.5720400  64.3152650 144.3272770  47.9701710
  70.5348410 144.5404600  48.9140050  70.4213860 144.8599210  49.8091570
  71.3518150 144.9417110  48.6177330  69.4406560 152.5597070  19.2774790
  69.3600610 151.6451680  19.0066500  69.0270980 153.0564140  18.5714500
  67.5724600 154.3376090  21.1584060  66.7966700 153.8576530  21.4482630
  68.2237530 153.6581740  20.9840220  61.5890430 154.6495900  22.0359820
  60.7575310 154.3944610  22.4356330  62.1971410 154.7206670  22.7717740
  59.9982380 149.6097790  15.8202210  59.1099080 149.9513760  15.7182090
  60.2823570 149.4098110  14.9283040  57.9615390 152.2103440  21.7041910
  58.5331500 151.4425640  21.7045550  57.9616930 152.5092200  20.7948520
  59.2040260 147.6187800  23.4910840  59.0243100 146.7213550  23.7713600
  58.8020340 148.1659670  24.1657790  68.0438760 149.8203660  21.3923150
  68.4203580 148.9475540  21.2796820  67.9458270 150.1562360  20.5013590
  62.1743770 148.1929290  16.8540590  62.2810520 149.0933020  17.1609350
  61.2636130 148.1447260  16.5635240  71.8262880 147.3154100  18.3251490
  72.6472500 146.8250670  18.3676970  71.8596960 147.9051760  19.0783330
  59.8226930 150.1148300  22.0993180  60.5037040 150.3786670  22.7180580
  59.5074980 149.2749170  22.4331190  64.0151500 151.1615660  21.1865770
  64.5229720 151.6596630  21.8270790  64.5464740 150.3850860  21.0105130
  76.1162430 149.3320850  24.8895120  75.4114600 149.7202560  24.3710230
  76.3820350 150.0271140  25.4916050  62.2987600 145.8014220  25.4529190
  62.3006040 146.3186610  24.6475090  61.4691910 145.3244400  25.4299120
  72.0624360 149.2554480  21.0979030  71.3579930 149.5439370  21.6782140
  72.4236520 150.0654590  20.7378590  61.9802930 147.5124180  23.4599640
  62.3219740 148.3566230  23.1653510  61.0418740 147.6607920  23.5764980
  75.1311280 148.7009270  21.4888240  74.1836190 148.7348250  21.6203670
  75.4561270 149.5148220  21.8737600  65.6630820 145.0006450  19.7844230
  65.9705800 144.4453340  19.0679730  64.7331520 145.1350910  19.6017220
  68.0511580 153.0655280  16.5204350  67.1240860 152.9992660  16.7492820
  68.2036400 154.0035410  16.4059590  68.0380660 149.3372280  13.5171510
  67.0984330 149.4986240  13.6023970  68.3563920 150.0557960  12.9707500
  74.5593420 154.0190800  23.4950540  73.7312050 154.0883890  23.0200670
  75.1543900 154.6045110  23.0266370  72.0808870 154.6275580  17.0239600
  71.4621290 154.2895130  16.3765900  72.0633320 153.9835340  17.7318790
  71.5235430 150.8060120  24.4405410  71.1106610 151.6313830  24.6945400
  70.7911380 150.2205160  24.2481770  63.6568220 153.5920020  19.3024080
  63.2525220 152.8797270  18.8069980  63.7431340 153.2473260  20.1912120
  62.3696840 150.3663230  23.0823120  62.9211430 150.4758570  22.3076370
  62.8840350 150.7400830  23.7978350  70.2573570 153.8662390  14.0312350
  70.6966850 153.0284820  13.8850170  70.9701990 154.4991790  14.1176490
  62.0439570 153.8882590  26.6928460  61.9047340 154.7605390  27.0615860
  61.1620930 153.5455400  26.5476400  73.8390710 145.1205200  12.3453390
  73.5263370 145.2132030  13.2452460  74.6003180 145.6986230  12.2950820
  60.3572850 152.4865000  16.8030730  60.2370450 153.2127090  16.1912000
  60.0473740 151.7167910  16.3258640  75.0492000 149.8576700  28.3227530
  74.4336270 150.3656370  27.7942990  74.7288420 148.9575030  28.2653470
  62.8236510 145.8300070  20.1854400  62.3804660 146.6109610  19.8538920
  63.3821500 146.1529960  20.8925340  67.1106320 148.6968590  25.7889720
  66.6485690 148.9051610  26.6009660  66.7084430 147.8827940  25.4860390
  72.1110830 149.9177540  26.9186380  71.2604420 149.6183290  27.2395450
  71.9512620 150.1619550  26.0070200  69.2060540 151.4179290  29.0185170
  69.5313950 150.5843040  28.6787400  69.9940870 151.9407810  29.1663500
  65.9395330 145.4510770  15.0660230  65.3149510 145.4470640  15.7913540
  65.8525450 144.5841730  14.6696200  64.8612410 146.3747400  22.0444000
  65.1584740 147.2810230  21.9636020  65.4097970 145.8866180  21.4303570
  62.6150730 150.9533640  17.9135650  62.3891650 150.7370810  18.8182270
  61.8343260 151.3862100  17.5681620  69.8448490 150.9597010  16.5126300
  69.2457380 151.6832810  16.3289920  70.3928100 150.8973790  15.7302750
  65.0549940 151.8519220  28.5795920  64.9593540 150.9113950  28.4296320
  65.8981920 152.0734290  28.1843990  68.4513360 149.5960550  18.5429580
  68.8442930 149.9132750  17.7298270  68.8130210 148.7172430  18.6574100
  60.1860480 148.2632890  26.7329700  59.7923870 149.1108100  26.9402480
  59.4978880 147.6259260  26.9238340  66.7605530 148.3467860  29.8026440
  66.0703850 148.1540060  30.4372530  67.5037830 148.6302500  30.3350740
  57.4877530 146.1861350  20.7659780  57.1990580 146.7564210  21.4784760
  58.2323290 145.7065800  21.1291010  57.6747760 150.1281470  11.9762500
  57.5922430 151.0712230  12.1177490  57.3230820 149.9856380  11.0974850
  69.0368500 152.1866300  22.6380360  68.3049620 152.6953110  22.9870460
  68.6392840 151.3696280  22.3369140  65.4745890 148.8620500  21.0432850
  65.4781950 148.4210450  20.1937390  66.3697010 149.1837830  21.1504670
  61.3248270 148.7446990  20.0027060  60.9848320 149.2222220  20.7594110
  60.5625590 148.2912110  19.6428160  65.5366040 149.8632580  14.0339610
  65.6578860 149.8219060  14.9825430  65.1514550 150.7256730  13.8786340
  69.4994410 147.6399980  22.0503300  69.5167150 148.0908630  22.8945150
  69.2509990 146.7405620  22.2636740  64.5487540 152.1733720  13.4322910
  63.9804440 151.7251970  12.8058820  65.2576540 152.5326500  12.8988060
  72.9265160 145.0532160  27.8889680  73.2510930 144.3221820  28.4147660
  72.9621670 144.7345800  26.9870670  65.7753860 152.9222280  22.7898260
  66.1423990 152.4480850  23.5359600  65.5858920 153.7963850  23.1306600
  58.6394350 147.6665970  18.9191730  58.3541270 147.3021640  19.7570350
  58.5773210 146.9346430  18.3054870  63.5653230 151.9630920  25.1082470
  63.2610300 152.8422900  25.3332830  64.5199690 152.0230710  25.1439910
  68.3132940 146.5595230  15.6405100  67.4997550 146.0608400  15.5650410
  68.1194890 147.3993480  15.2241450  71.0281330 150.9314880  13.9367260
  71.9160950 151.2432110  13.7618600  70.9986420 150.0587130  13.5447840
  59.6216960 152.8033660  26.2553830  59.2631900 153.4687510  26.8427170
  59.3271520 151.9717210  26.6266450  62.8230080 153.2617900  29.1393380
  62.5230220 153.4075080  28.2421200  63.5941320 152.7023190  29.0466770
  73.2995600 152.2426720  13.4047120  73.2159320 152.6740940  12.5543560
  74.0189790 152.7025070  13.8373940  58.1325010 152.8024920  12.8788430
  59.0019860 153.0849720  13.1624350  57.6415330 153.6160790  12.7637240
  65.2959820 154.1898130  16.9996710  65.7522600 155.0003380  17.2256900
  64.9448030 153.8721270  17.8315200  61.1971600 144.5335780  17.4719230
  61.0686230 144.5253680  18.4204150  60.3733620 144.8718870  17.1210240
  58.1965530 146.2926900  26.9325930  57.4824050 146.4923820  27.5378540
  58.6160570 145.5166470  27.3040730  69.6904310 148.7849210  24.6827380
  70.0585130 147.9644420  25.0106950  68.8302510 148.8451100  25.0983030
  73.0566340 147.7406150  15.4914940  72.4279500 147.8451820  14.7773170
  72.5618260 147.9602930  16.2808820  65.0250370 150.0192100  16.9072820
  64.3166520 150.4878440  17.3486430  65.3094850 149.3614110  17.5418010
  66.6506300 151.4388800  24.9065350  67.1491550 151.9134620  25.5717200
  66.7929250 150.5152320  25.1135380  69.0565800 146.7442760  18.3468610
  68.9333580 146.7628890  17.3978120  70.0050360 146.7921700  18.4667010
  63.2285390 148.3277180  14.2823530  64.0775920 148.7647330  14.2163720
  62.8616660 148.6397440  15.1095590  73.8573160 147.6556760  25.7493740
  73.3546760 148.3962160  26.0887550  74.6729820 148.0440760  25.4330530
  72.1495170 152.8989940  19.1955100  71.2085310 152.9140170  19.3702790
  72.4639240 152.1125900  19.6415400  62.1276810 154.5809540  12.7559060
  62.8940080 154.4690900  13.3184490  62.2051500 153.8847510  12.1035830
  60.8223570 152.0134610  13.4391950  60.9027160 151.0662120  13.5509350
  61.7143320 152.3441490  13.5452610  58.3494370 153.8349530  28.6748120
  58.8533390 153.2556810  29.2464350  57.6101790 154.1189760  29.2124490
  60.3817450 151.9779120  29.5698190  60.4222790 151.6792990  30.4783420
  61.2362950 152.3786730  29.4105710  64.1595840 154.5774670  14.7301700
  64.5812260 154.4114540  15.5733090  64.2846680 153.7674900  14.2356840
  62.3223260 150.5571220  27.5372680  61.7919720 150.0662170  26.9096020
  62.9911330 150.9855420  27.0030610  66.6723480 153.6012280  11.9778800
  67.1929140 152.8861300  11.6119950  67.3191880 154.2398150  12.2779310
  71.6923490 152.3636840  29.3053020  72.2744260 151.6089160  29.2173500
  71.8685260 152.8944280  28.5284500  62.8095560 147.5233590  27.6169970
  62.7152430 146.9054340  26.8920840  62.2292950 148.2499880  27.3899880
  65.5757000 146.0806830  24.6497360  65.1274300 146.1031090  23.8042910
  64.9422200 145.6825850  25.2467660  68.3180450 152.7077340  26.6547640
  68.4376660 152.1118480  27.3942480  69.1774450 152.7447030  26.2348940
  70.6568350 153.2614530  25.2310150  70.1303570 153.7857150  24.6275290
  70.9999690 153.8941920  25.8619880  63.0554740 150.6507900  11.6759860
  62.8543800 149.7875260  12.0373200  62.8846790 150.5641260  10.7381460
  65.0849220 149.2498690  27.9123460  65.6748910 148.9414540  28.6001280
  64.2669460 148.7778440  28.0683360  69.9042650 148.8664500  28.1456480
  69.2158170 148.2046040  28.0806470  70.6248670 148.4202770  28.5904940
  70.5343050 145.4616130  14.2046740  70.8145340 144.6184030  14.5606160
  69.7608780 145.6939240  14.7185490  61.8537540 147.7508520  11.6637740
  62.1563440 147.7575950  10.7556890  62.5932130 147.4006380  12.1605400
  65.0722470 146.6943140  12.6493940  64.7244470 146.0167130  12.0696390
  65.2735240 146.2332650  13.4637330  58.4128110 153.2230790  19.0458310
  57.7576950 152.9542430  18.4018010  59.2506060 153.1135270  18.5960290
  71.3618550 148.0172080  13.2676800  71.7803430 147.8303060  12.4273460
  71.0554610 147.1651130  13.5779730  74.8608280 152.9296220  16.9652600
  74.4851880 152.1624150  16.5333890  74.1311400 153.3118920  17.4527530
  59.4504040 153.6083360  23.5861650  59.8177080 153.5210760  24.4657670
  58.8814860 152.8449910  23.4868510  74.2507900 152.0767740  26.5992120
  74.0193990 151.8480490  25.6990070  74.5112450 152.9967290  26.5537010
  59.0020040 150.5192450  27.4920070  58.1076090 150.4859210  27.8313780
  59.5417590 150.7179240  28.2571320  72.6895970 147.3024170  29.3771820
  73.5666150 147.3107570  29.7605820  72.7016810 146.5655010  28.7664170
  57.6266190 150.4329720  14.9883640  56.7230270 150.6959920  14.8135300
  58.1106810 150.7040890  14.2083600  74.1359240 151.1553710  20.2659840
  74.6596720 150.6616360  19.6350010  74.7218660 151.2904070  21.0107410
  74.3148960 151.2393580  23.7879390  73.3651670 151.2057120  23.9024380
  74.4961970 152.1493690  23.5529160  60.1693400 149.4895260  12.8978020
  60.8785100 149.0678480  12.4125300  59.4533340 149.5570490  12.2661370
  59.8167560 145.5434590  11.9380670  60.5395690 146.0843530  12.2561890
  60.0892080 145.2698010  11.0622210  73.6259210 150.4127060  16.2052250
  74.1218330 150.1797930  16.9901130  73.4275280 149.5738900  15.7889890
  59.5059750 144.7940780  21.8403290  60.1535940 144.2438160  21.3998450
  59.9261590 145.0483930  22.6619100  75.0546370 149.0488010  18.7389930
  74.9445650 148.8944050  19.6772200  75.8153960 148.5208950  18.4965340
  73.4012090 144.9882140  25.1972930  74.0384310 145.6016280  25.5632120
  73.5486980 145.0242800  24.2522160  75.9436640 146.8795930  11.9796070
  76.8685950 146.7477110  11.7714360  75.9212430 146.9588750  12.9332520
  76.0175130 147.6506590  14.6052780  75.2226630 147.5851710  15.1345690
  76.2218410 148.5857230  14.5938130  59.2591750 144.9496450  24.5828610
  58.9106570 145.4060270  25.3486790  58.9279450 144.0553580  24.6651040
  66.7716570 146.1408330  28.1048030  66.7105460 146.7330160  28.8543440
  67.7116950 146.0334290  27.9598290  69.4091130 145.7978390  27.7440320
  70.0231540 146.1157680  27.0821400  69.9540690 145.3126980  28.3636180
  59.9312390 144.4772650  27.8579380  60.4795380 144.2960700  27.0945490
  59.9967700 143.6866760  28.3935690  70.1499170 144.3610530  24.0709610
  69.2759010 144.6945640  23.8682540  70.0409920 143.8883710  24.8961480
  71.0571150 146.5681400  25.4551330  70.7284510 145.7533160  25.0753060
  72.0053450 146.5251210  25.3317020  67.8973990 145.2780370  23.0102520
  67.1145780 145.7525870  23.2899280  67.6036920 144.3735200  22.9015700
  72.4495060 145.9803470  21.0551610  72.8903150 145.9248570  20.2073210
  72.1802650 146.8961480  21.1261790  74.3133630 145.6118710  19.0660430
  74.2522030 144.6679930  18.9191450  75.0925660 145.7198800  19.6113890
  59.2414400 145.5827850  15.5316240  59.9993760 145.6956730  14.9580270
  58.7791570 146.4197050  15.4859670  65.7828210 147.6967120  18.5218550
  64.9702720 147.3224010  18.1814430  66.2869850 146.9412200  18.8239740
  70.2853190 144.3609570  19.7601620  70.8882560 144.9329780  20.2350140
  69.5446180 144.9249010  19.5375520  73.4287790 144.7631130  15.0341900
  73.6238420 145.6614580  15.3009330  72.6417660 144.5318210  15.5274850
  61.6139550 146.1091900  14.0718210  62.1432310 145.3221700  13.9426160
  62.2467870 146.7883090  14.3053740  63.8077390 145.8467040  17.1263600
  63.1780130 145.1454350  17.2933730  63.2682530 146.6071170  16.9096760
  63.9332950 145.1251020  29.5616090  63.6517220 145.6284620  28.7976910
  64.3152650 144.3272770  29.1958220  70.5348410 144.5404600  30.1396560
  70.4213860 144.8599210  31.0348080  71.3518150 144.9417110  29.8433840
  67.5724600 154.3376090   2.3840570  66.7966700 153.8576530   2.6739140
  68.2237530 153.6581740   2.2096730  61.5890430 154.6495900   3.2616330
  60.7575310 154.3944610   3.6612840  62.1971410 154.7206670   3.9974250
  57.9615390 152.2103440   2.9298420  58.5331500 151.4425640   2.9302060
  57.9616930 152.5092200   2.0205030  59.2040260 147.6187800   4.7167350
  59.0243100 146.7213550   4.9970110  58.8020340 148.1659670   5.3914300
  68.0438760 149.8203660   2.6179660  68.4203580 148.9475540   2.5053330
  67.9458270 150.1562360   1.7270100  59.8226930 150.1148300   3.3249690
  60.5037040 150.3786670   3.9437090  59.5074980 149.2749170   3.6587700
  64.0151500 151.1615660   2.4122280  64.5229720 151.6596630   3.0527300
  64.5464740 150.3850860   2.2361640  76.1162430 149.3320850   6.1151630
  75.4114600 149.7202560   5.5966740  76.3820350 150.0271140   6.7172560
  62.2987600 145.8014220   6.6785700  62.3006040 146.3186610   5.8731600
  61.4691910 145.3244400   6.6555630  72.0624360 149.2554480   2.3235540
  71.3579930 149.5439370   2.9038650  72.4236520 150.0654590   1.9635100
  61.9802930 147.5124180   4.6856150  62.3219740 148.3566230   4.3910020
  61.0418740 147.6607920   4.8021490  75.1311280 148.7009270   2.7144750
  74.1836190 148.7348250   2.8460180  75.4561270 149.5148220   3.0994110
  74.5593420 154.0190800   4.7207050  73.7312050 154.0883890   4.2457180
  75.1543900 154.6045110   4.2522880  71.5235430 150.8060120   5.6661920
  71.1106610 151.6313830   5.9201910  70.7911380 150.2205160   5.4738280
  62.3696840 150.3663230   4.3079630  62.9211430 150.4758570   3.5332880
  62.8840350 150.7400830   5.0234860  62.0439570 153.8882590   7.9184970
  61.9047340 154.7605390   8.2872370  61.1620930 153.5455400   7.7732910
  75.0492000 149.8576700   9.5484040  74.4336270 150.3656370   9.0199500
  74.7288420 148.9575030   9.4909980  67.1106320 148.6968590   7.0146230
  66.6485690 148.9051610   7.8266170  66.7084430 147.8827940   6.7116900
  72.1110830 149.9177540   8.1442890  71.2604420 149.6183290   8.4651960
  71.9512620 150.1619550   7.2326710  69.2060540 151.4179290  10.2441680
  69.5313950 150.5843040   9.9043910  69.9940870 151.9407810  10.3920010
  64.8612410 146.3747400   3.2700510  65.1584740 147.2810230   3.1892530
  65.4097970 145.8866180   2.6560080  65.0549940 151.8519220   9.8052430
  64.9593540 150.9113950   9.6552830  65.8981920 152.0734290   9.4100500
  60.1860480 148.2632890   7.9586210  59.7923870 149.1108100   8.1658990
  59.4978880 147.6259260   8.1494850  66.7605530 148.3467860  11.0282950
  66.0703850 148.1540060  11.6629040  67.5037830 148.6302500  11.5607250
  57.4877530 146.1861350   1.9916290  57.1990580 146.7564210   2.7041270
  58.2323290 145.7065800   2.3547520  69.0368500 152.1866300   3.8636870
  68.3049620 152.6953110   4.2126970  68.6392840 151.3696280   3.5625650
  65.4745890 148.8620500   2.2689360  65.4781950 148.4210450   1.4193900
  66.3697010 149.1837830   2.3761180  69.4994410 147.6399980   3.2759810
  69.5167150 148.0908630   4.1201660  69.2509990 146.7405620   3.4893250
  72.9265160 145.0532160   9.1146190  73.2510930 144.3221820   9.6404170
  72.9621670 144.7345800   8.2127180  65.7753860 152.9222280   4.0154770
  66.1423990 152.4480850   4.7616110  65.5858920 153.7963850   4.3563110
  63.5653230 151.9630920   6.3338980  63.2610300 152.8422900   6.5589340
  64.5199690 152.0230710   6.3696420  59.6216960 152.8033660   7.4810340
  59.2631900 153.4687510   8.0683680  59.3271520 151.9717210   7.8522960
  62.8230080 153.2617900  10.3649890  62.5230220 153.4075080   9.4677710
  63.5941320 152.7023190  10.2723280  58.1965530 146.2926900   8.1582440
  57.4824050 146.4923820   8.7635050  58.6160570 145.5166470   8.5297240
  69.6904310 148.7849210   5.9083890  70.0585130 147.9644420   6.2363460
  68.8302510 148.8451100   6.3239540  66.6506300 151.4388800   6.1321860
  67.1491550 151.9134620   6.7973710  66.7929250 150.5152320   6.3391890
  73.8573160 147.6556760   6.9750250  73.3546760 148.3962160   7.3144060
  74.6729820 148.0440760   6.6587040  58.3494370 153.8349530   9.9004630
  58.8533390 153.2556810  10.4720860  57.6101790 154.1189760  10.4381000
  60.3817450 151.9779120  10.7954700  60.4222790 151.6792990  11.7039930
  61.2362950 152.3786730  10.6362220  62.3223260 150.5571220   8.7629190
  61.7919720 150.0662170   8.1352530  62.9911330 150.9855420   8.2287120
  71.6923490 152.3636840  10.5309530  72.2744260 151.6089160  10.4430010
  71.8685260 152.8944280   9.7541010  62.8095560 147.5233590   8.8426480
  62.7152430 146.9054340   8.1177350  62.2292950 148.2499880   8.6156390
  65.5757000 146.0806830   5.8753870  65.1274300 146.1031090   5.0299420
  64.9422200 145.6825850   6.4724170  68.3180450 152.7077340   7.8804150
  68.4376660 152.1118480   8.6198990  69.1774450 152.7447030   7.4605450
  70.6568350 153.2614530   6.4566660  70.1303570 153.7857150   5.8531800
  70.9999690 153.8941920   7.0876390  65.0849220 149.2498690   9.1379970
  65.6748910 148.9414540   9.8257790  64.2669460 148.7778440   9.2939870
  69.9042650 148.8664500   9.3712990  69.2158170 148.2046040   9.3062980
  70.6248670 148.4202770   9.8161450  59.4504040 153.6083360   4.8118160
  59.8177080 153.5210760   5.6914180  58.8814860 152.8449910   4.7125020
  74.2507900 152.0767740   7.8248630  74.0193990 151.8480490   6.9246580
  74.5112450 152.9967290   7.7793520  59.0020040 150.5192450   8.7176580
  58.1076090 150.4859210   9.0570290  59.5417590 150.7179240   9.4827830
  72.6895970 147.3024170  10.6028330  73.5666150 147.3107570  10.9862330
  72.7016810 146.5655010   9.9920680  74.3148960 151.2393580   5.0135900
  73.3651670 151.2057120   5.1280890  74.4961970 152.1493690   4.7785670
  59.5059750 144.7940780   3.0659800  60.1535940 144.2438160   2.6254960
  59.9261590 145.0483930   3.8875610  73.4012090 144.9882140   6.4229440
  74.0384310 145.6016280   6.7888630  73.5486980 145.0242800   5.4778670
  59.2591750 144.9496450   5.8085120  58.9106570 145.4060270   6.5743300
  58.9279450 144.0553580   5.8907550  66.7716570 146.1408330   9.3304540
  66.7105460 146.7330160  10.0799950  67.7116950 146.0334290   9.1854800
  69.4091130 145.7978390   8.9696830  70.0231540 146.1157680   8.3077910
  69.9540690 145.3126980   9.5892690  59.9312390 144.4772650   9.0835890
  60.4795380 144.2960700   8.3202000  59.9967700 143.6866760   9.6192200
  70.1499170 144.3610530   5.2966120  69.2759010 144.6945640   5.0939050
  70.0409920 143.8883710   6.1217990  71.0571150 146.5681400   6.6807840
  70.7284510 145.7533160   6.3009570  72.0053450 146.5251210   6.5573530
  67.8973990 145.2780370   4.2359030  67.1145780 145.7525870   4.5155790
  67.6036920 144.3735200   4.1272210  72.4495060 145.9803470   2.2808120
  72.8903150 145.9248570   1.4329720  72.1802650 146.8961480   2.3518300
  63.9332950 145.1251020  10.7872600  63.6517220 145.6284620  10.0233420
  64.3152650 144.3272770  10.4214730  70.5348410 144.5404600  11.3653070
  70.4213860 144.8599210  12.2604590  71.3518150 144.9417110  11.0690350
  69.4406560 133.7853580 150.6979220  69.3600610 132.8708190 150.4270930
  69.0270980 134.2820650 149.9918930  67.5724600 135.5632600 152.5788490
  66.7966700 135.0833040 152.8687060  68.2237530 134.8838250 152.4044650
  71.5932030 139.9692790 151.3587620  71.1313560 139.1980030 151.6874790
  72.4057580 139.9958860 151.8640070  59.9982380 130.8354300 147.2406640
  59.1099080 131.1770270 147.1386520  60.2823570 130.6354620 146.3487470
  57.9615390 133.4359950 153.1246340  58.5331500 132.6682150 153.1249980
  57.9616930 133.7348710 152.2152950  67.8195340 142.2550800 150.9791610
  67.2006780 142.7108300 150.4086050  68.6747120 142.4102260 150.5781310
  67.0133590 138.2389790 152.5858650  66.9441870 137.2979730 152.4247780
  67.7753450 138.3291200 153.1581220  68.0438760 131.0460170 152.8127580
  68.4203580 130.1732050 152.7001250  67.9458270 131.3818870 151.9218020
  62.1743770 129.4185800 148.2745020  62.2810520 130.3189530 148.5813780
  61.2636130 129.3703770 147.9839670  71.8262880 128.5410610 149.7455920
  72.6472500 128.0507180 149.7881400  71.8596960 129.1308270 150.4987760
  68.6858690 137.1390040 148.3723520  68.0675960 137.6039490 147.8086240
  69.1981940 137.8317520 148.7893030  72.0624360 130.4810990 152.5183460
  71.3579930 130.7695880 153.0986570  72.4236520 131.2911100 152.1583020
  58.0541890 137.8246570 145.7463150  57.6769870 138.3133670 145.0148050
  58.3114960 138.4971850 146.3769680  65.6630820 126.2262960 151.2048660
  65.9705800 125.6709850 150.4884160  64.7331520 126.3607420 151.0221650
  72.5091300 138.6646470 148.5846290  72.3987630 137.7220800 148.7095710
  72.5059550 139.0262110 149.4709050  68.0511580 134.2911790 147.9408780
  67.1240860 134.2249170 148.1697250  68.2036400 135.2291920 147.8264020
  68.0380660 130.5628790 144.9375940  67.0984330 130.7242750 145.0228400
  68.3563920 131.2814470 144.3911930  72.0808870 135.8532090 148.4444030
  71.4621290 135.5151640 147.7970330  72.0633320 135.2091850 149.1523220
  63.6568220 134.8176530 150.7228510  63.2525220 134.1053780 150.2274410
  63.7431340 134.4729770 151.6116550  64.1249920 138.5044090 152.8867720
  63.8278210 137.8989560 152.2075500  65.0749740 138.5421400 152.7757080
  70.2573570 135.0918900 145.4516780  70.6966850 134.2541330 145.3054600
  70.9701990 135.7248300 145.5380920  68.3668950 140.0314970 149.4198020
  68.8064860 140.7739300 149.0053410  68.3055840 140.2741540 150.3436980
  73.8390710 126.3461710 143.7657820  73.5263370 126.4388540 144.6656890
  74.6003180 126.9242740 143.7155250  60.3572850 133.7121510 148.2235160
  60.2370450 134.4383600 147.6116430  60.0473740 132.9424420 147.7463070
  59.2405850 138.5836840 150.4409980  58.8333930 138.7251430 149.5863580
  60.1318860 138.2997000 150.2381190  71.0339130 143.0184090 146.7761030
  70.8740270 142.7287030 147.6742860  70.8685840 142.2424220 146.2406260
  63.5127510 142.7982620 148.5532650  63.3369990 141.8818160 148.3400450
  62.6583250 143.1569910 148.7930450  70.7365260 140.5271650 145.3359030
  70.0430420 140.5248940 144.6761310  71.4788120 140.1030970 144.9053200
  70.3015190 142.1534360 149.4107520  70.7572140 141.3723740 149.7246140
  70.6407710 142.8641180 149.9548700  62.8236510 127.0556580 151.6058830
  62.3804660 127.8366120 151.2743350  63.3821500 127.3786470 152.3129770
  65.9395330 126.6767280 146.4864660  65.3149510 126.6727150 147.2117970
  65.8525450 125.8098240 146.0900630  62.6150730 132.1790150 149.3340080
  62.3891650 131.9627320 150.2386700  61.8343260 132.6118610 148.9886050
  69.8448490 132.1853520 147.9330730  69.2457380 132.9089320 147.7494350
  70.3928100 132.1230300 147.1507180  68.4513360 130.8217060 149.9634010
  68.8442930 131.1389260 149.1502700  68.8130210 129.9428940 150.0778530
  57.4877530 127.4117860 152.1864210  57.1990580 127.9820720 152.8989190
  58.2323290 126.9322310 152.5495440  57.6747760 131.3537980 143.3966930
  57.5922430 132.2968740 143.5381920  57.3230820 131.2112890 142.5179280
  65.4745890 130.0877010 152.4637280  65.4781950 129.6466960 151.6141820
  66.3697010 130.4094340 152.5709100  61.3248270 129.9703500 151.4231490
  60.9848320 130.4478730 152.1798540  60.5625590 129.5168620 151.0632590
  65.5366040 131.0889090 145.4544040  65.6578860 131.0475570 146.4029860
  65.1514550 131.9513240 145.2990770  64.5487540 133.3990230 144.8527340
  63.9804440 132.9508480 144.2263250  65.2576540 133.7583010 144.3192490
  58.6394350 128.8922480 150.3396160  58.3541270 128.5278150 151.1774780
  58.5773210 128.1602940 149.7259300  62.0935020 137.3948420 147.1253750
  61.3197280 136.8546040 146.9652470  62.8229650 136.8755030 146.7871510
  72.8523000 136.3913780 152.9180140  73.5722120 136.8869070 152.5276250
  72.6504820 135.7131670 152.2734010  68.3132940 127.7851740 147.0609530
  67.4997550 127.2864910 146.9854840  68.1194890 128.6249990 146.6445880
  71.0281330 132.1571390 145.3571690  71.9160950 132.4688620 145.1823030
  70.9986420 131.2843640 144.9652270  62.1372420 137.0628800 150.7632560
  62.6551090 136.2597060 150.7089450  61.6856440 137.0007940 151.6049390
  67.0241920 138.3295080 146.0359860  67.3657620 139.0737310 145.5403180
  66.1954630 138.6426200 146.3984690  73.2995600 133.4683230 144.8251550
  73.2159320 133.8997450 143.9747990  74.0189790 133.9281580 145.2578370
  74.3282850 140.3225490 147.5533680  73.6859010 139.6681110 147.8277400
  73.9413510 140.7280580 146.7774350  69.9069330 137.6510920 151.4005370
  70.2593150 137.0539050 150.7406740  69.0231660 137.3255150 151.5713620
  65.9932610 138.4108610 148.8075780  66.6803740 138.9577820 149.1883370
  65.2065030 138.9549340 148.8425390  58.1325010 134.0281430 144.2992860
  59.0019860 134.3106230 144.5828780  57.6415330 134.8417300 144.1841670
  65.2959820 135.4154640 148.4201140  65.7522600 136.2259890 148.6461330
  64.9448030 135.0977780 149.2519630  61.1971600 125.7592290 148.8923660
  61.0686230 125.7510190 149.8408580  60.3733620 126.0975380 148.5414670
  72.7180230 139.2141950 144.0910030  72.4917810 138.4972390 144.6834670
  72.3276430 138.9654390 143.2531780  58.4996260 143.2408810 144.8654490
  58.8593900 143.8398150 144.2111760  58.3588600 143.7868700 145.6389520
  72.2996480 137.1313890 145.7524190  72.0118180 137.5926580 146.5402070
  73.0948650 136.6711660 146.0208410  64.5164880 140.6240010 145.6828160
  64.5074980 141.3569700 145.0672670  63.5963240 140.3771590 145.7755120
  60.1171520 135.8454900 146.4274920  59.5099470 136.5853800 146.4370220
  60.5920870 135.9354260 145.6013120  73.0566340 128.9662660 146.9119370
  72.4279500 129.0708330 146.1977600  72.5618260 129.1859440 147.7013250
  67.5024480 140.6868250 144.3453350  67.6036460 140.4832240 143.4155330
  66.6026220 140.4326530 144.5501130  65.0250370 131.2448610 148.3277250
  64.3166520 131.7134950 148.7690860  65.3094850 130.5870620 148.9622440
  69.0565800 127.9699270 149.7673040  68.9333580 127.9885400 148.8182550
  70.0050360 128.0178210 149.8871440  66.1442590 143.2054570 149.0401020
  66.3984090 143.1675960 148.1180390  65.1955070 143.0787900 149.0329270
  63.2285390 129.5533690 145.7027960  64.0775920 129.9903840 145.6368150
  62.8616660 129.8653950 146.5300020  72.1495170 134.1246450 150.6159530
  71.2085310 134.1396680 150.7907220  72.4639240 133.3382410 151.0619830
  62.1276810 135.8066050 144.1763490  62.8940080 135.6947410 144.7388920
  62.2051500 135.1104020 143.5240260  60.8223570 133.2391120 144.8596380
  60.9027160 132.2918630 144.9713780  61.7143320 133.5698000 144.9657040
  74.1520750 141.2955300 152.2913790  74.2768170 142.1186470 152.7637600
  75.0186310 141.0846030 151.9437940  61.6238280 143.3886510 151.9630920
  62.3600760 142.8401970 152.2339490  62.0079200 144.2542520 151.8236910
  58.5083760 139.4560080 147.8372430  57.5823540 139.6981220 147.8277840
  58.9740190 140.2834340 147.7157180  64.7340590 142.5616820 143.7856490
  65.5269200 142.8505650 143.3338280  64.2144940 142.1308990 143.1068970
  73.7870760 141.7886950 145.2093230  73.5012270 141.3752090 144.3947410
  73.5890310 142.7174660 145.0893750  65.2517990 137.7820230 143.6498840
  65.1468630 137.1672580 144.3760220  65.0842210 137.2586120 142.8661850
  68.4920720 136.8440260 144.2540830  67.9430820 137.2909560 144.8983570
  69.1139980 136.3389510 144.7778500  64.1595840 135.8031180 146.1506130
  64.5812260 135.6371050 146.9937520  64.2846680 134.9931410 145.6561270
  66.6723480 134.8268790 143.3983230  67.1929140 134.1117810 143.0324380
  67.3191880 135.4654660 143.6983740  63.0554740 131.8764410 143.0964290
  62.8543800 131.0131770 143.4577630  62.8846790 131.7897770 142.1585890
  70.5343050 126.6872640 145.6251170  70.8145340 125.8440540 145.9810590
  69.7608780 126.9195750 146.1389920  61.8537540 128.9765030 143.0842170
  62.1563440 128.9832460 142.1761320  62.5932130 128.6262890 143.5809830
  65.0722470 127.9199650 144.0698370  64.7244470 127.2423640 143.4900820
  65.2735240 127.4589160 144.8841760  67.2371510 142.9080400 145.6884970
  68.1322300 143.2465370 145.7103730  67.2689140 142.1859810 145.0609250
  60.8767670 138.2807450 143.9171970  61.3142540 138.8237120 144.5729550
  61.3615400 137.4554400 143.9268310  58.0913470 141.0696480 151.3692230
  58.4216480 140.2017540 151.1370870  58.5204470 141.2755000 152.1997190
  62.6875390 139.4005490 149.0294200  62.3870930 139.2770460 149.9298110
  62.5812880 138.5414080 148.6209930  75.4567310 139.1801890 143.7320880
  74.6260270 139.2478540 144.2028110  75.6339140 140.0706010 143.4287740
  74.9123770 135.9249370 146.2355080  75.6742680 136.4946020 146.3414770
  74.9278140 135.3576570 147.0063390  58.4128110 134.4487300 150.4662740
  57.7576950 134.1798940 149.8222440  59.2506060 134.3391780 150.0164720
  75.9183740 136.7799470 151.0797010  76.2892570 135.9966790 150.6732980
  76.5585670 137.4688570 150.9014310  74.9642940 136.2183740 143.3927600
  75.2391780 137.1262620 143.2646820  74.7753680 136.1546270 144.3289590
  71.3618550 129.2428590 144.6881230  71.7803430 129.0559570 143.8477890
  71.0554610 128.3907640 144.9984160  74.8608280 134.1552730 148.3857030
  74.4851880 133.3880660 147.9538320  74.1311400 134.5375430 148.8731960
  57.6266190 131.6586230 146.4088070  56.7230270 131.9216430 146.2339730
  58.1106810 131.9297400 145.6288030  74.1359240 132.3810220 151.6864270
  74.6596720 131.8872870 151.0554440  74.7218660 132.5160580 152.4311840
  60.1693400 130.7151770 144.3182450  60.8785100 130.2934990 143.8329730
  59.4533340 130.7827000 143.6865800  59.8167560 126.7691100 143.3585100
  60.5395690 127.3100040 143.6766320  60.0892080 126.4954520 142.4826640
  73.6259210 131.6383570 147.6256680  74.1218330 131.4054440 148.4105560
  73.4275280 130.7995410 147.2094320  75.0546370 130.2744520 150.1594360
  74.9445650 130.1200560 151.0976630  75.8153960 129.7465460 149.9169770
  75.9436640 128.1052440 143.4000500  76.8685950 127.9733620 143.1918790
  75.9212430 128.1845260 144.3536950  76.0175130 128.8763100 146.0257210
  75.2226630 128.8108220 146.5550120  76.2218410 129.8113740 146.0142560
  72.9593550 142.9154650 150.0195600  73.5552620 142.5939220 149.3430020
  73.2171700 142.4426470 150.8108870  72.4495060 127.2059980 152.4756040
  72.8903150 127.1505080 151.6277640  72.1802650 128.1217990 152.5466220
  74.3133630 126.8375220 150.4864860  74.2522030 125.8936440 150.3395880
  75.0925660 126.9455310 151.0318320  58.6186380 142.9767580 149.4488810
  58.4508420 142.3438260 150.1470700  57.7520890 143.1826980 149.0983000
  59.2414400 126.8084360 146.9520670  59.9993760 126.9213240 146.3784700
  58.7791570 127.6453560 146.9064100  65.7828210 128.9223630 149.9422980
  64.9702720 128.5480520 149.6018860  66.2869850 128.1668710 150.2444170
  70.2853190 125.5866080 151.1806050  70.8882560 126.1586290 151.6554570
  69.5446180 126.1505520 150.9579950  73.4287790 125.9887640 146.4546330
  73.6238420 126.8871090 146.7213760  72.6417660 125.7574720 146.9479280
  60.2249080 141.6700810 146.8938950  59.6996700 142.0508840 146.1900910
  60.1493660 142.2951580 147.6148660  61.6139550 127.3348410 145.4922640
  62.1432310 126.5478210 145.3630590  62.2467870 128.0139600 145.7258170
  63.8077390 127.0723550 148.5468030  63.1780130 126.3710860 148.7138160
  63.2682530 127.8327680 148.3301190  74.9814400 143.2288350 148.2152890
  75.1566590 142.5426090 147.5713810  74.2835970 143.7535400 147.8229560
  62.8242050 143.6183190 145.7688200  63.5560870 143.3342470 145.2212090
  63.0835720 143.3796470 146.6587580  61.9856840 139.7347920 145.7734530
  61.3565720 140.2033020 146.3220360  62.1004670 138.8897140 146.2080720
  69.4406560 133.7853580 131.9235730  69.3600610 132.8708190 131.6527440
  69.0270980 134.2820650 131.2175440  67.5724600 135.5632600 133.8045000
  66.7966700 135.0833040 134.0943570  68.2237530 134.8838250 133.6301160
  61.5890430 135.8752410 134.6820760  60.7575310 135.6201120 135.0817270
  62.1971410 135.9463180 135.4178680  71.5932030 139.9692790 132.5844130
  71.1313560 139.1980030 132.9131300  72.4057580 139.9958860 133.0896580
  61.5691690 139.9092500 134.8778780  61.8719730 139.0190240 134.6989000
  62.3135280 140.4662720 134.6501030  59.9982380 130.8354300 128.4663150
  59.1099080 131.1770270 128.3643030  60.2823570 130.6354620 127.5743980
  57.9615390 133.4359950 134.3502850  58.5331500 132.6682150 134.3506490
  57.9616930 133.7348710 133.4409460  67.8195340 142.2550800 132.2048120
  67.2006780 142.7108300 131.6342560  68.6747120 142.4102260 131.8037820
  67.0133590 138.2389790 133.8115160  66.9441870 137.2979730 133.6504290
  67.7753450 138.3291200 134.3837730  59.2040260 128.8444310 136.1371780
  59.0243100 127.9470060 136.4174540  58.8020340 129.3916180 136.8118730
  68.0438760 131.0460170 134.0384090  68.4203580 130.1732050 133.9257760
  67.9458270 131.3818870 133.1474530  62.1743770 129.4185800 129.5001530
  62.2810520 130.3189530 129.8070290  61.2636130 129.3703770 129.2096180
  71.8262880 128.5410610 130.9712430  72.6472500 128.0507180 131.0137910
  71.8596960 129.1308270 131.7244270  59.8226930 131.3404810 134.7454120
  60.5037040 131.6043180 135.3641520  59.5074980 130.5005680 135.0792130
  64.0151500 132.3872170 133.8326710  64.5229720 132.8853140 134.4731730
  64.5464740 131.6107370 133.6566070  76.1162430 130.5577360 137.5356060
  75.4114600 130.9459070 137.0171170  76.3820350 131.2527650 138.1376990
  62.2987600 127.0270730 138.0990130  62.3006040 127.5443120 137.2936030
  61.4691910 126.5500910 138.0760060  68.6858690 137.1390040 129.5980030
  68.0675960 137.6039490 129.0342750  69.1981940 137.8317520 130.0149540
  63.5490450 136.6665910 136.2763630  63.2159830 137.2934830 136.9184700
  63.7257130 137.1927790 135.4965300  72.0624360 130.4810990 133.7439970
  71.3579930 130.7695880 134.3243080  72.4236520 131.2911100 133.3839530
  61.9802930 128.7380690 136.1060580  62.3219740 129.5822740 135.8114450
  61.0418740 128.8864430 136.2225920  62.7609550 138.6346710 138.0912810
  63.3783550 139.3097790 137.8097260  61.9002670 139.0434690 138.0000310
  58.0541890 137.8246570 126.9719660  57.6769870 138.3133670 126.2404560
  58.3114960 138.4971850 127.6026190  73.6787140 140.0986120 136.0067450
  72.9950660 140.7685230 135.9984120  74.2181430 140.2966770 135.2412310
  75.1311280 129.9265780 134.1349180  74.1836190 129.9604760 134.2664610
  75.4561270 130.7404730 134.5198540  65.6630820 126.2262960 132.4305170
  65.9705800 125.6709850 131.7140670  64.7331520 126.3607420 132.2478160
  71.2145880 141.9430250 134.7212630  71.2273040 141.5392540 133.8534890
  70.6621100 142.7177540 134.6174060  72.5091300 138.6646470 129.8102800
  72.3987630 137.7220800 129.9352220  72.5059550 139.0262110 130.6965560
  70.6131320 136.8460090 136.0495240  71.0300110 136.6320200 135.2148700
  71.3371140 137.1032880 136.6203860  68.0511580 134.2911790 129.1665290
  67.1240860 134.2249170 129.3953760  68.2036400 135.2291920 129.0520530
  68.0380660 130.5628790 126.1632450  67.0984330 130.7242750 126.2484910
  68.3563920 131.2814470 125.6168440  74.5593420 135.2447310 136.1411480
  73.7312050 135.3140400 135.6661610  75.1543900 135.8301620 135.6727310
  72.0808870 135.8532090 129.6700540  71.4621290 135.5151640 129.0226840
  72.0633320 135.2091850 130.3779730  71.5235430 132.0316630 137.0866350
  71.1106610 132.8570340 137.3406340  70.7911380 131.4461670 136.8942710
  63.6568220 134.8176530 131.9485020  63.2525220 134.1053780 131.4530920
  63.7431340 134.4729770 132.8373060  64.1249920 138.5044090 134.1124230
  63.8278210 137.8989560 133.4332010  65.0749740 138.5421400 134.0013590
  62.3696840 131.5919740 135.7284060  62.9211430 131.7015080 134.9537310
  62.8840350 131.9657340 136.4439290  72.2135530 142.0775960 137.7747330
  71.7366090 142.8848150 137.5819940  71.5297320 141.4254290 137.9273540
  63.2168350 138.2425780 140.7632030  62.3196880 138.4665750 141.0105430
  63.2421220 138.3660720 139.8143430  70.2573570 135.0918900 126.6773290
  70.6966850 134.2541330 126.5311110  70.9701990 135.7248300 126.7637430
  62.0439570 135.1139100 139.3389400  61.9047340 135.9861900 139.7076800
  61.1620930 134.7711910 139.1937340  68.3668950 140.0314970 130.6454530
  68.8064860 140.7739300 130.2309920  68.3055840 140.2741540 131.5693490
  63.8419920 141.0560800 141.5474550  63.8135350 141.4603750 140.6802980
  63.6784890 140.1271160 141.3846150  73.8390710 126.3461710 124.9914330
  73.5263370 126.4388540 125.8913400  74.6003180 126.9242740 124.9411760
  60.3572850 133.7121510 129.4491670  60.2370450 134.4383600 128.8372940
  60.0473740 132.9424420 128.9719580  75.7934740 141.8387900 142.8438720
  76.2694460 142.3170790 143.5227800  76.4141900 141.7705390 142.1184220
  57.9958220 136.8836650 135.2560310  58.0738640 137.0185420 134.3116030
  58.6099900 136.1752540 135.4488430  59.2405850 138.5836840 131.6666490
  58.8333930 138.7251430 130.8120090  60.1318860 138.2997000 131.4637700
  75.1967990 139.0300750 140.0038730  75.3231050 138.7912630 139.0855910
  75.2389370 138.1985290 140.4760810  69.0584730 142.7328750 138.5733540
  69.5729400 142.6436760 139.3755970  68.2153810 143.0788450 138.8661450
  71.0339130 143.0184090 128.0017540  70.8740270 142.7287030 128.8999370
  70.8685840 142.2424220 127.4662770  63.5127510 142.7982620 129.7789160
  63.3369990 141.8818160 129.5656960  62.6583250 143.1569910 130.0186960
  70.7365260 140.5271650 126.5615540  70.0430420 140.5248940 125.9017820
  71.4788120 140.1030970 126.1309710  70.3015190 142.1534360 130.6364030
  70.7572140 141.3723740 130.9502650  70.6407710 142.8641180 131.1805210
  75.0492000 131.0833210 140.9688470  74.4336270 131.5912880 140.4403930
  74.7288420 130.1831540 140.9114410  58.0517740 137.9250820 137.7954770
  58.2148780 137.4556180 136.9774140  58.5170190 137.4174380 138.4603610
  62.8236510 127.0556580 132.8315340  62.3804660 127.8366120 132.4999860
  63.3821500 127.3786470 133.5386280  67.1106320 129.9225100 138.4350660
  66.6485690 130.1308120 139.2470600  66.7084430 129.1084450 138.1321330
  72.1110830 131.1434050 139.5647320  71.2604420 130.8439800 139.8856390
  71.9512620 131.3876060 138.6531140  69.2060540 132.6435800 141.6646110
  69.5313950 131.8099550 141.3248340  69.9940870 133.1664320 141.8124440
  65.9395330 126.6767280 127.7121170  65.3149510 126.6727150 128.4374480
  65.8525450 125.8098240 127.3157140  64.8612410 127.6003910 134.6904940
  65.1584740 128.5066740 134.6096960  65.4097970 127.1122690 134.0764510
  62.6150730 132.1790150 130.5596590  62.3891650 131.9627320 131.4643210
  61.8343260 132.6118610 130.2142560  69.8448490 132.1853520 129.1587240
  69.2457380 132.9089320 128.9750860  70.3928100 132.1230300 128.3763690
  65.0549940 133.0775730 141.2256860  64.9593540 132.1370460 141.0757260
  65.8981920 133.2990800 140.8304930  68.4513360 130.8217060 131.1890520
  68.8442930 131.1389260 130.3759210  68.8130210 129.9428940 131.3035040
  60.1860480 129.4889400 139.3790640  59.7923870 130.3364610 139.5863420
  59.4978880 128.8515770 139.5699280  66.7605530 129.5724370 142.4487380
  66.0703850 129.3796570 143.0833470  67.5037830 129.8559010 142.9811680
  57.4877530 127.4117860 133.4120720  57.1990580 127.9820720 134.1245700
  58.2323290 126.9322310 133.7751950  57.6747760 131.3537980 124.6223440
  57.5922430 132.2968740 124.7638430  57.3230820 131.2112890 123.7435790
  69.0368500 133.4122810 135.2841300  68.3049620 133.9209620 135.6331400
  68.6392840 132.5952790 134.9830080  65.4745890 130.0877010 133.6893790
  65.4781950 129.6466960 132.8398330  66.3697010 130.4094340 133.7965610
  61.3248270 129.9703500 132.6488000  60.9848320 130.4478730 133.4055050
  60.5625590 129.5168620 132.2889100  65.5366040 131.0889090 126.6800550
  65.6578860 131.0475570 127.6286370  65.1514550 131.9513240 126.5247280
  69.4994410 128.8656490 134.6964240  69.5167150 129.3165140 135.5406090
  69.2509990 127.9662130 134.9097680  64.5487540 133.3990230 126.0783850
  63.9804440 132.9508480 125.4519760  65.2576540 133.7583010 125.5449000
  72.9265160 126.2788670 140.5350620  73.2510930 125.5478330 141.0608600
  72.9621670 125.9602310 139.6331610  59.6256720 137.3002250 139.9550580
  59.2411510 136.6595920 140.5533540  59.9368910 138.0038370 140.5245310
  65.7753860 134.1478790 135.4359200  66.1423990 133.6737360 136.1820540
  65.5858920 135.0220360 135.7767540  58.6394350 128.8922480 131.5652670
  58.3541270 128.5278150 132.4031290  58.5773210 128.1602940 130.9515810
  63.5653230 133.1887430 137.7543410  63.2610300 134.0679410 137.9793770
  64.5199690 133.2487220 137.7900850  62.0935020 137.3948420 128.3510260
  61.3197280 136.8546040 128.1908980  62.8229650 136.8755030 128.0128020
  72.8523000 136.3913780 134.1436650  73.5722120 136.8869070 133.7532760
  72.6504820 135.7131670 133.4990520  68.3132940 127.7851740 128.2866040
  67.4997550 127.2864910 128.2111350  68.1194890 128.6249990 127.8702390
  68.2341800 136.4622840 140.0305650  68.1679110 135.5418510 139.7763240
  67.6046940 136.5598280 140.7450290  71.0281330 132.1571390 126.5828200
  71.9160950 132.4688620 126.4079540  70.9986420 131.2843640 126.1908780
  62.1372420 137.0628800 131.9889070  62.6551090 136.2597060 131.9345960
  61.6856440 137.0007940 132.8305900  67.0241920 138.3295080 127.2616370
  67.3657620 139.0737310 126.7659690  66.1954630 138.6426200 127.6241200
  59.6216960 134.0290170 138.9014770  59.2631900 134.6944020 139.4888110
  59.3271520 133.1973720 139.2727390  62.8230080 134.4874410 141.7854320
  62.5230220 134.6331590 140.8882140  63.5941320 133.9279700 141.6927710
  68.1658530 139.2843410 139.7809450  68.1803070 138.3524370 139.5628360
  67.4583630 139.3703170 140.4199220  73.2995600 133.4683230 126.0508060
  73.2159320 133.8997450 125.2004500  74.0189790 133.9281580 126.4834880
  74.3769740 135.9250750 139.1278030  73.6517930 136.5179530 138.9307420
  74.9045200 135.9174290 138.3291400  74.3282850 140.3225490 128.7790190
  73.6859010 139.6681110 129.0533910  73.9413510 140.7280580 128.0030860
  69.9069330 137.6510920 132.6261880  70.2593150 137.0539050 131.9663250
  69.0231660 137.3255150 132.7970130  65.9932610 138.4108610 130.0332290
  66.6803740 138.9577820 130.4139880  65.2065030 138.9549340 130.0681900
  58.1325010 134.0281430 125.5249370  59.0019860 134.3106230 125.8085290
  57.6415330 134.8417300 125.4098180  65.2959820 135.4154640 129.6457650
  65.7522600 136.2259890 129.8717840  64.9448030 135.0977780 130.4776140
  67.5992430 140.9260980 136.8749950  68.2434650 141.1320360 137.5523370
  67.9621870 140.1649380 136.4220800  61.1971600 125.7592290 130.1180170
  61.0686230 125.7510190 131.0665090  60.3733620 126.0975380 129.7671180
  68.8724510 138.9293330 135.5927400  69.5146740 138.2286490 135.7059570
  69.3973860 139.7091770 135.4124290  72.7180230 139.2141950 125.3166540
  72.4917810 138.4972390 125.9091180  72.3276430 138.9654390 124.4788290
  70.6462130 139.7288230 138.7963460  70.9818370 140.3154920 139.4741380
  69.7262470 139.5980940 139.0261250  58.4996260 143.2408810 126.0911000
  58.8593900 143.8398150 125.4368270  58.3588600 143.7868700 126.8646030
  58.1965530 127.5183410 139.5786870  57.4824050 127.7180330 140.1839480
  58.6160570 126.7422980 139.9501670  72.2996480 137.1313890 126.9780700
  72.0118180 137.5926580 127.7658580  73.0948650 136.6711660 127.2464920
  58.4838120 141.5063670 140.5653400  58.5929240 140.5658410 140.4248790
  57.8318680 141.7718420 139.9167130  66.4750710 139.7779560 141.9651520
  66.1547580 139.0588800 142.5097210  65.8009070 140.4534630 142.0387580
  64.5164880 140.6240010 126.9084670  64.5074980 141.3569700 126.2929180
  63.5963240 140.3771590 127.0011630  60.1171520 135.8454900 127.6531430
  59.5099470 136.5853800 127.6626730  60.5920870 135.9354260 126.8269630
  69.6904310 130.0105720 137.3288320  70.0585130 129.1900930 137.6567890
  68.8302510 130.0707610 137.7443970  73.0566340 128.9662660 128.1375880
  72.4279500 129.0708330 127.4234110  72.5618260 129.1859440 128.9269760
  67.5024480 140.6868250 125.5709860  67.6036460 140.4832240 124.6411840
  66.6026220 140.4326530 125.7757640  65.0250370 131.2448610 129.5533760
  64.3166520 131.7134950 129.9947370  65.3094850 130.5870620 130.1878950
  66.6506300 132.6645310 137.5526290  67.1491550 133.1391130 138.2178140
  66.7929250 131.7408830 137.7596320  69.0565800 127.9699270 130.9929550
  68.9333580 127.9885400 130.0439060  70.0050360 128.0178210 131.1127950
  66.1442590 143.2054570 130.2657530  66.3984090 143.1675960 129.3436900
  65.1955070 143.0787900 130.2585780  63.2285390 129.5533690 126.9284470
  64.0775920 129.9903840 126.8624660  62.8616660 129.8653950 127.7556530
  73.8573160 128.8813270 138.3954680  73.3546760 129.6218670 138.7348490
  74.6729820 129.2697270 138.0791470  72.1495170 134.1246450 131.8416040
  71.2085310 134.1396680 132.0163730  72.4639240 133.3382410 132.2876340
  62.1276810 135.8066050 125.4020000  62.8940080 135.6947410 125.9645430
  62.2051500 135.1104020 124.7496770  60.8223570 133.2391120 126.0852890
  60.9027160 132.2918630 126.1970290  61.7143320 133.5698000 126.1913550
  74.1520750 141.2955300 133.5170300  74.2768170 142.1186470 133.9894110
  75.0186310 141.0846030 133.1694450  61.6238280 143.3886510 133.1887430
  62.3600760 142.8401970 133.4596000  62.0079200 144.2542520 133.0493420
  58.5083760 139.4560080 129.0628940  57.5823540 139.6981220 129.0534350
  58.9740190 140.2834340 128.9413690  60.6296560 142.5732580 142.3773010
  61.4309290 142.8944630 142.7908410  60.1148380 142.2128160 143.0992920
  64.7340590 142.5616820 125.0113000  65.5269200 142.8505650 124.5594790
  64.2144940 142.1308990 124.3325480  69.4661190 138.6812450 142.3248420
  68.8599350 138.7044050 141.5844170  69.1615300 137.9495490 142.8615670
  70.8961560 142.4092740 140.9357830  71.8483310 142.3250760 140.8858070
  70.7489780 143.0734450 141.6091620  73.7870760 141.7886950 126.4349740
  73.5012270 141.3752090 125.6203920  73.5890310 142.7174660 126.3150260
  58.3494370 135.0606040 141.3209060  58.8533390 134.4813320 141.8925290
  57.6101790 135.3446270 141.8585430  65.2517990 137.7820230 124.8755350
  65.1468630 137.1672580 125.6016730  65.0842210 137.2586120 124.0918360
  65.4032310 136.4677030 140.8544580  64.6377980 137.0362030 140.7699250
  65.5848270 136.1753240 139.9612810  68.4920720 136.8440260 125.4797340
  67.9430820 137.2909560 126.1240080  69.1139980 136.3389510 126.0035010
  72.5455660 138.1982360 141.4119600  73.2865130 138.5358120 140.9087060
  71.7828340 138.3674420 140.8589370  60.3817450 133.2035630 142.2159130
  60.4222790 132.9049500 143.1244360  61.2362950 133.6043240 142.0566650
  64.1595840 135.8031180 127.3762640  64.5812260 135.6371050 128.2194030
  64.2846680 134.9931410 126.8817780  62.3223260 131.7827730 140.1833620
  61.7919720 131.2918680 139.5556960  62.9911330 132.2111930 139.6491550
  66.6723480 134.8268790 124.6239740  67.1929140 134.1117810 124.2580890
  67.3191880 135.4654660 124.9240250  71.2201320 136.2497190 139.9474810
  71.6342340 136.4042270 140.7965230  70.2852320 136.3752410 140.1100590
  71.6923490 133.5893350 141.9513960  72.2744260 132.8345670 141.8634440
  71.8685260 134.1200790 141.1745440  62.8095560 128.7490100 140.2630910
  62.7152430 128.1310850 139.5381780  62.2292950 129.4756390 140.0360820
  65.5757000 127.3063340 137.2958300  65.1274300 127.3287600 136.4503850
  64.9422200 126.9082360 137.8928600  65.9816550 136.2017670 137.9170740
  66.4004660 137.0450400 137.7446980  65.0625180 136.3389710 137.6877520
  68.3180450 133.9333850 139.3008580  68.4376660 133.3374990 140.0403420
  69.1774450 133.9703540 138.8809880  70.6568350 134.4871040 137.8771090
  70.1303570 135.0113660 137.2736230  70.9999690 135.1198430 138.5080820
  63.0554740 131.8764410 124.3220800  62.8543800 131.0131770 124.6834140
  62.8846790 131.7897770 123.3842400  63.8323970 142.5070680 139.0328470
  63.2945060 143.2316740 138.7137170  64.0857930 142.0301020 138.2425810
  65.0849220 130.4755200 140.5584400  65.6748910 130.1671050 141.2462220
  64.2669460 130.0034950 140.7144300  69.9042650 130.0921010 140.7917420
  69.2158170 129.4302550 140.7267410  70.6248670 129.6459280 141.2365880
  70.5343050 126.6872640 126.8507680  70.8145340 125.8440540 127.2067100
  69.7608780 126.9195750 127.3646430  61.8537540 128.9765030 124.3098680
  62.1563440 128.9832460 123.4017830  62.5932130 128.6262890 124.8066340
  66.6886180 143.7421890 139.2915120  66.6144880 144.6457030 139.5987490
  65.7865020 143.4233790 139.2637190  65.0722470 127.9199650 125.2954880
  64.7244470 127.2423640 124.7157330  65.2735240 127.4589160 126.1098270
  67.2371510 142.9080400 126.9141480  68.1322300 143.2465370 126.9360240
  67.2689140 142.1859810 126.2865760  60.8767670 138.2807450 125.1428480
  61.3142540 138.8237120 125.7986060  61.3615400 137.4554400 125.1524820
  58.0913470 141.0696480 132.5948740  58.4216480 140.2017540 132.3627380
  58.5204470 141.2755000 133.4253700  62.6875390 139.4005490 130.2550710
  62.3870930 139.2770460 131.1554620  62.5812880 138.5414080 129.8466440
  58.5803680 141.9367070 135.3330370  58.1434670 142.1167870 136.1654520
  59.1481360 142.6941690 135.1912090  74.2165860 141.4384070 139.6207680
  73.6167850 141.4976630 138.8771600  74.3459760 140.4989050 139.7504530
  75.4567310 139.1801890 124.9577390  74.6260270 139.2478540 125.4284620
  75.6339140 140.0706010 124.6544250  74.9123770 135.9249370 127.4611590
  75.6742680 136.4946020 127.5671280  74.9278140 135.3576570 128.2319900
  58.4128110 134.4487300 131.6919250  57.7576950 134.1798940 131.0478950
  59.2506060 134.3391780 131.2421230  75.9183740 136.7799470 132.3053520
  76.2892570 135.9966790 131.8989490  76.5585670 137.4688570 132.1270820
  72.9017500 138.1636050 137.7183840  72.0877340 138.5933210 137.9809630
  73.3091700 138.7754460 137.1052890  74.9642940 136.2183740 124.6184110
  75.2391780 137.1262620 124.4903330  74.7753680 136.1546270 125.5546100
  71.3618550 129.2428590 125.9137740  71.7803430 129.0559570 125.0734400
  71.0554610 128.3907640 126.2240670  74.8608280 134.1552730 129.6113540
  74.4851880 133.3880660 129.1794830  74.1311400 134.5375430 130.0988470
  59.4504040 134.8339870 136.2322590  59.8177080 134.7467270 137.1118610
  58.8814860 134.0706420 136.1329450  74.2507900 133.3024250 139.2453060
  74.0193990 133.0737000 138.3451010  74.5112450 134.2223800 139.1997950
  59.0020040 131.7448960 140.1381010  58.1076090 131.7115720 140.4774720
  59.5417590 131.9435750 140.9032260  72.6895970 128.5280680 142.0232760
  73.5666150 128.5364080 142.4066760  72.7016810 127.7911520 141.4125110
  57.6266190 131.6586230 127.6344580  56.7230270 131.9216430 127.4596240
  58.1106810 131.9297400 126.8544540  74.1359240 132.3810220 132.9120780
  74.6596720 131.8872870 132.2810950  74.7218660 132.5160580 133.6568350
  74.3148960 132.4650090 136.4340330  73.3651670 132.4313630 136.5485320
  74.4961970 133.3750200 136.1990100  60.1693400 130.7151770 125.5438960
  60.8785100 130.2934990 125.0586240  59.4533340 130.7827000 124.9122310
  59.8167560 126.7691100 124.5841610  60.5395690 127.3100040 124.9022830
  60.0892080 126.4954520 123.7083150  73.6259210 131.6383570 128.8513190
  74.1218330 131.4054440 129.6362070  73.4275280 130.7995410 128.4350830
  59.5059750 126.0197290 134.4864230  60.1535940 125.4694670 134.0459390
  59.9261590 126.2740440 135.3080040  75.0546370 130.2744520 131.3850870
  74.9445650 130.1200560 132.3233140  75.8153960 129.7465460 131.1426280
  73.4012090 126.2138650 137.8433870  74.0384310 126.8272790 138.2093060
  73.5486980 126.2499310 136.8983100  75.9436640 128.1052440 124.6257010
  76.8685950 127.9733620 124.4175300  75.9212430 128.1845260 125.5793460
  76.0175130 128.8763100 127.2513720  75.2226630 128.8108220 127.7806630
  76.2218410 129.8113740 127.2399070  72.9593550 142.9154650 131.2452110
  73.5552620 142.5939220 130.5686530  73.2171700 142.4426470 132.0365380
  59.2591750 126.1752960 137.2289550  58.9106570 126.6316780 137.9947730
  58.9279450 125.2810090 137.3111980  60.8656120 139.3472560 141.3942740
  60.8225750 138.9765470 142.2757200  60.9967130 140.2850130 141.5344560
  64.5662150 140.9032150 136.9952460  64.3253510 141.1706710 136.1082980
  65.5064790 141.0737880 137.0503320  66.7716570 127.3664840 140.7508970
  66.7105460 127.9586670 141.5004380  67.7116950 127.2590800 140.6059230
  69.4091130 127.0234900 140.3901260  70.0231540 127.3414190 139.7282340
  69.9540690 126.5383490 141.0097120  75.8266310 142.9226530 137.7963100
  75.3324590 143.3195400 137.0790230  75.2179600 142.2975740 138.1900380
  59.9312390 125.7029160 140.5040320  60.4795380 125.5217210 139.7406430
  59.9967700 124.9123270 141.0396630  60.7044150 142.2934810 138.5140520
  60.1104470 142.1619510 139.2530560  60.6967990 141.4572950 138.0482620
  70.1499170 125.5867040 136.7170550  69.2759010 125.9202150 136.5143480
  70.0409920 125.1140220 137.5422420  71.0571150 127.7937910 138.1012270
  70.7284510 126.9789670 137.7214000  72.0053450 127.7507720 137.9777960
  73.5105760 143.5649950 135.0749840  73.0508730 144.3165760 134.7007860
  72.8818220 142.8456420 135.0164640  60.3356380 139.6593190 137.4648560
  59.6090440 139.0398480 137.3974510  60.3965530 140.0533800 136.5946640
  63.9401480 141.8738190 134.2497970  64.4566500 141.2625550 133.7246230
  64.5898860 142.3766970 134.7408980  66.6796980 142.7646680 135.0766950
  66.9674790 142.5100980 134.1999960  67.1920200 142.2124040 135.6672520
  67.8973990 126.5036880 135.6563460  67.1145780 126.9782380 135.9360220
  67.6036920 125.5991710 135.5476640  72.4495060 127.2059980 133.7012550
  72.8903150 127.1505080 132.8534150  72.1802650 128.1217990 133.7722730
  74.3133630 126.8375220 131.7121370  74.2522030 125.8936440 131.5652390
  75.0925660 126.9455310 132.2574830  58.6186380 142.9767580 130.6745320
  58.4508420 142.3438260 131.3727210  57.7520890 143.1826980 130.3239510
  59.2414400 126.8084360 128.1777180  59.9993760 126.9213240 127.6041210
  58.7791570 127.6453560 128.1320610  65.7828210 128.9223630 131.1679490
  64.9702720 128.5480520 130.8275370  66.2869850 128.1668710 131.4700680
  70.2853190 125.5866080 132.4062560  70.8882560 126.1586290 132.8811080
  69.5446180 126.1505520 132.1836460  73.4287790 125.9887640 127.6802840
  73.6238420 126.8871090 127.9470270  72.6417660 125.7574720 128.1735790
  60.2249080 141.6700810 128.1195460  59.6996700 142.0508840 127.4157420
  60.1493660 142.2951580 128.8405170  61.6139550 127.3348410 126.7179150
  62.1432310 126.5478210 126.5887100  62.2467870 128.0139600 126.9514680
  63.8077390 127.0723550 129.7724540  63.1780130 126.3710860 129.9394670
  63.2682530 127.8327680 129.5557700  66.7469340 143.6862780 142.4435150
  67.6736650 143.4507050 142.4871110  66.7319770 144.5134780 141.9621180
  74.9814400 143.2288350 129.4409400  75.1566590 142.5426090 128.7970320
  74.2835970 143.7535400 129.0486070  63.9332950 126.3507530 142.2077030
  63.6517220 126.8541130 141.4437850  64.3152650 125.5529280 141.8419160
  62.8242050 143.6183190 126.9944710  63.5560870 143.3342470 126.4468600
  63.0835720 143.3796470 127.8844090  61.9856840 139.7347920 126.9991040
  61.3565720 140.2033020 127.5476870  62.1004670 138.8897140 127.4337230
  70.5348410 125.7661110 142.7857500  70.4213860 126.0855720 143.6809020
  71.3518150 126.1673620 142.4894780  73.3146900 142.9132640 142.2676190
  74.1072220 142.4181870 142.0602150  73.6080050 143.5922780 142.8751800
  69.4406560 133.7853580 113.1492240  69.3600610 132.8708190 112.8783950
  69.0270980 134.2820650 112.4431950  67.5724600 135.5632600 115.0301510
  66.7966700 135.0833040 115.3200080  68.2237530 134.8838250 114.8557670
  61.5890430 135.8752410 115.9077270  60.7575310 135.6201120 116.3073780
  62.1971410 135.9463180 116.6435190  71.5932030 139.9692790 113.8100640
  71.1313560 139.1980030 114.1387810  72.4057580 139.9958860 114.3153090
  61.5691690 139.9092500 116.1035290  61.8719730 139.0190240 115.9245510
  62.3135280 140.4662720 115.8757540  59.9982380 130.8354300 109.6919660
  59.1099080 131.1770270 109.5899540  60.2823570 130.6354620 108.8000490
  57.9615390 133.4359950 115.5759360  58.5331500 132.6682150 115.5763000
  57.9616930 133.7348710 114.6665970  67.8195340 142.2550800 113.4304630
  67.2006780 142.7108300 112.8599070  68.6747120 142.4102260 113.0294330
  67.0133590 138.2389790 115.0371670  66.9441870 137.2979730 114.8760800
  67.7753450 138.3291200 115.6094240  59.2040260 128.8444310 117.3628290
  59.0243100 127.9470060 117.6431050  58.8020340 129.3916180 118.0375240
  68.0438760 131.0460170 115.2640600  68.4203580 130.1732050 115.1514270
  67.9458270 131.3818870 114.3731040  62.1743770 129.4185800 110.7258040
  62.2810520 130.3189530 111.0326800  61.2636130 129.3703770 110.4352690
  71.8262880 128.5410610 112.1968940  72.6472500 128.0507180 112.2394420
  71.8596960 129.1308270 112.9500780  59.8226930 131.3404810 115.9710630
  60.5037040 131.6043180 116.5898030  59.5074980 130.5005680 116.3048640
  64.0151500 132.3872170 115.0583220  64.5229720 132.8853140 115.6988240
  64.5464740 131.6107370 114.8822580  76.1162430 130.5577360 118.7612570
  75.4114600 130.9459070 118.2427680  76.3820350 131.2527650 119.3633500
  62.2987600 127.0270730 119.3246640  62.3006040 127.5443120 118.5192540
  61.4691910 126.5500910 119.3016570  68.6858690 137.1390040 110.8236540
  68.0675960 137.6039490 110.2599260  69.1981940 137.8317520 111.2406050
  63.5490450 136.6665910 117.5020140  63.2159830 137.2934830 118.1441210
  63.7257130 137.1927790 116.7221810  72.0624360 130.4810990 114.9696480
  71.3579930 130.7695880 115.5499590  72.4236520 131.2911100 114.6096040
  61.9802930 128.7380690 117.3317090  62.3219740 129.5822740 117.0370960
  61.0418740 128.8864430 117.4482430  62.7609550 138.6346710 119.3169320
  63.3783550 139.3097790 119.0353770  61.9002670 139.0434690 119.2256820
  58.0541890 137.8246570 108.1976170  57.6769870 138.3133670 107.4661070
  58.3114960 138.4971850 108.8282700  73.6787140 140.0986120 117.2323960
  72.9950660 140.7685230 117.2240630  74.2181430 140.2966770 116.4668820
  75.1311280 129.9265780 115.3605690  74.1836190 129.9604760 115.4921120
  75.4561270 130.7404730 115.7455050  71.2145880 141.9430250 115.9469140
  71.2273040 141.5392540 115.0791400  70.6621100 142.7177540 115.8430570
  72.5091300 138.6646470 111.0359310  72.3987630 137.7220800 111.1608730
  72.5059550 139.0262110 111.9222070  70.6131320 136.8460090 117.2751750
  71.0300110 136.6320200 116.4405210  71.3371140 137.1032880 117.8460370
  68.0511580 134.2911790 110.3921800  67.1240860 134.2249170 110.6210270
  68.2036400 135.2291920 110.2777040  68.0380660 130.5628790 107.3888960
  67.0984330 130.7242750 107.4741420  68.3563920 131.2814470 106.8424950
  74.5593420 135.2447310 117.3667990  73.7312050 135.3140400 116.8918120
  75.1543900 135.8301620 116.8983820  72.0808870 135.8532090 110.8957050
  71.4621290 135.5151640 110.2483350  72.0633320 135.2091850 111.6036240
  71.5235430 132.0316630 118.3122860  71.1106610 132.8570340 118.5662850
  70.7911380 131.4461670 118.1199220  63.6568220 134.8176530 113.1741530
  63.2525220 134.1053780 112.6787430  63.7431340 134.4729770 114.0629570
  64.1249920 138.5044090 115.3380740  63.8278210 137.8989560 114.6588520
  65.0749740 138.5421400 115.2270100  62.3696840 131.5919740 116.9540570
  62.9211430 131.7015080 116.1793820  62.8840350 131.9657340 117.6695800
  72.2135530 142.0775960 119.0003840  71.7366090 142.8848150 118.8076450
  71.5297320 141.4254290 119.1530050  63.2168350 138.2425780 121.9888540
  62.3196880 138.4665750 122.2361940  63.2421220 138.3660720 121.0399940
  70.2573570 135.0918900 107.9029800  70.6966850 134.2541330 107.7567620
  70.9701990 135.7248300 107.9893940  62.0439570 135.1139100 120.5645910
  61.9047340 135.9861900 120.9333310  61.1620930 134.7711910 120.4193850
  68.3668950 140.0314970 111.8711040  68.8064860 140.7739300 111.4566430
  68.3055840 140.2741540 112.7950000  63.8419920 141.0560800 122.7731060
  63.8135350 141.4603750 121.9059490  63.6784890 140.1271160 122.6102660
  73.8390710 126.3461710 106.2170840  73.5263370 126.4388540 107.1169910
  74.6003180 126.9242740 106.1668270  60.3572850 133.7121510 110.6748180
  60.2370450 134.4383600 110.0629450  60.0473740 132.9424420 110.1976090
  75.7934740 141.8387900 124.0695230  76.2694460 142.3170790 124.7484310
  76.4141900 141.7705390 123.3440730  57.9958220 136.8836650 116.4816820
  58.0738640 137.0185420 115.5372540  58.6099900 136.1752540 116.6744940
  59.2405850 138.5836840 112.8923000  58.8333930 138.7251430 112.0376600
  60.1318860 138.2997000 112.6894210  75.1967990 139.0300750 121.2295240
  75.3231050 138.7912630 120.3112420  75.2389370 138.1985290 121.7017320
  69.0584730 142.7328750 119.7990050  69.5729400 142.6436760 120.6012480
  68.2153810 143.0788450 120.0917960  71.0339130 143.0184090 109.2274050
  70.8740270 142.7287030 110.1255880  70.8685840 142.2424220 108.6919280
  63.5127510 142.7982620 111.0045670  63.3369990 141.8818160 110.7913470
  62.6583250 143.1569910 111.2443470  70.7365260 140.5271650 107.7872050
  70.0430420 140.5248940 107.1274330  71.4788120 140.1030970 107.3566220
  70.3015190 142.1534360 111.8620540  70.7572140 141.3723740 112.1759160
  70.6407710 142.8641180 112.4061720  75.0492000 131.0833210 122.1944980
  74.4336270 131.5912880 121.6660440  74.7288420 130.1831540 122.1370920
  58.0517740 137.9250820 119.0211280  58.2148780 137.4556180 118.2030650
  58.5170190 137.4174380 119.6860120  62.8236510 127.0556580 114.0571850
  62.3804660 127.8366120 113.7256370  63.3821500 127.3786470 114.7642790
  67.1106320 129.9225100 119.6607170  66.6485690 130.1308120 120.4727110
  66.7084430 129.1084450 119.3577840  72.1110830 131.1434050 120.7903830
  71.2604420 130.8439800 121.1112900  71.9512620 131.3876060 119.8787650
  69.2060540 132.6435800 122.8902620  69.5313950 131.8099550 122.5504850
  69.9940870 133.1664320 123.0380950  65.9395330 126.6767280 108.9377680
  65.3149510 126.6727150 109.6630990  65.8525450 125.8098240 108.5413650
  62.6150730 132.1790150 111.7853100  62.3891650 131.9627320 112.6899720
  61.8343260 132.6118610 111.4399070  69.8448490 132.1853520 110.3843750
  69.2457380 132.9089320 110.2007370  70.3928100 132.1230300 109.6020200
  65.0549940 133.0775730 122.4513370  64.9593540 132.1370460 122.3013770
  65.8981920 133.2990800 122.0561440  68.4513360 130.8217060 112.4147030
  68.8442930 131.1389260 111.6015720  68.8130210 129.9428940 112.5291550
  60.1860480 129.4889400 120.6047150  59.7923870 130.3364610 120.8119930
  59.4978880 128.8515770 120.7955790  66.7605530 129.5724370 123.6743890
  66.0703850 129.3796570 124.3089980  67.5037830 129.8559010 124.2068190
  57.4877530 127.4117860 114.6377230  57.1990580 127.9820720 115.3502210
  58.2323290 126.9322310 115.0008460  57.6747760 131.3537980 105.8479950
  57.5922430 132.2968740 105.9894940  57.3230820 131.2112890 104.9692300
  69.0368500 133.4122810 116.5097810  68.3049620 133.9209620 116.8587910
  68.6392840 132.5952790 116.2086590  61.3248270 129.9703500 113.8744510
  60.9848320 130.4478730 114.6311560  60.5625590 129.5168620 113.5145610
  65.5366040 131.0889090 107.9057060  65.6578860 131.0475570 108.8542880
  65.1514550 131.9513240 107.7503790  69.4994410 128.8656490 115.9220750
  69.5167150 129.3165140 116.7662600  69.2509990 127.9662130 116.1354190
  64.5487540 133.3990230 107.3040360  63.9804440 132.9508480 106.6776270
  65.2576540 133.7583010 106.7705510  72.9265160 126.2788670 121.7607130
  73.2510930 125.5478330 122.2865110  72.9621670 125.9602310 120.8588120
  59.6256720 137.3002250 121.1807090  59.2411510 136.6595920 121.7790050
  59.9368910 138.0038370 121.7501820  65.7753860 134.1478790 116.6615710
  66.1423990 133.6737360 117.4077050  65.5858920 135.0220360 117.0024050
  58.6394350 128.8922480 112.7909180  58.3541270 128.5278150 113.6287800
  58.5773210 128.1602940 112.1772320  63.5653230 133.1887430 118.9799920
  63.2610300 134.0679410 119.2050280  64.5199690 133.2487220 119.0157360
  62.0935020 137.3948420 109.5766770  61.3197280 136.8546040 109.4165490
  62.8229650 136.8755030 109.2384530  72.8523000 136.3913780 115.3693160
  73.5722120 136.8869070 114.9789270  72.6504820 135.7131670 114.7247030
  68.3132940 127.7851740 109.5122550  67.4997550 127.2864910 109.4367860
  68.1194890 128.6249990 109.0958900  68.2341800 136.4622840 121.2562160
  68.1679110 135.5418510 121.0019750  67.6046940 136.5598280 121.9706800
  71.0281330 132.1571390 107.8084710  71.9160950 132.4688620 107.6336050
  70.9986420 131.2843640 107.4165290  62.1372420 137.0628800 113.2145580
  62.6551090 136.2597060 113.1602470  61.6856440 137.0007940 114.0562410
  67.0241920 138.3295080 108.4872880  67.3657620 139.0737310 107.9916200
  66.1954630 138.6426200 108.8497710  59.6216960 134.0290170 120.1271280
  59.2631900 134.6944020 120.7144620  59.3271520 133.1973720 120.4983900
  62.8230080 134.4874410 123.0110830  62.5230220 134.6331590 122.1138650
  63.5941320 133.9279700 122.9184220  68.1658530 139.2843410 121.0065960
  68.1803070 138.3524370 120.7884870  67.4583630 139.3703170 121.6455730
  73.2995600 133.4683230 107.2764570  73.2159320 133.8997450 106.4261010
  74.0189790 133.9281580 107.7091390  74.3769740 135.9250750 120.3534540
  73.6517930 136.5179530 120.1563930  74.9045200 135.9174290 119.5547910
  74.3282850 140.3225490 110.0046700  73.6859010 139.6681110 110.2790420
  73.9413510 140.7280580 109.2287370  69.9069330 137.6510920 113.8518390
  70.2593150 137.0539050 113.1919760  69.0231660 137.3255150 114.0226640
  65.9932610 138.4108610 111.2588800  66.6803740 138.9577820 111.6396390
  65.2065030 138.9549340 111.2938410  65.2959820 135.4154640 110.8714160
  65.7522600 136.2259890 111.0974350  64.9448030 135.0977780 111.7032650
  67.5992430 140.9260980 118.1006460  68.2434650 141.1320360 118.7779880
  67.9621870 140.1649380 117.6477310  68.8724510 138.9293330 116.8183910
  69.5146740 138.2286490 116.9316080  69.3973860 139.7091770 116.6380800
  72.7180230 139.2141950 106.5423050  72.4917810 138.4972390 107.1347690
  72.3276430 138.9654390 105.7044800  70.6462130 139.7288230 120.0219970
  70.9818370 140.3154920 120.6997890  69.7262470 139.5980940 120.2517760
  58.4996260 143.2408810 107.3167510  58.8593900 143.8398150 106.6624780
  58.3588600 143.7868700 108.0902540  58.1965530 127.5183410 120.8043380
  57.4824050 127.7180330 121.4095990  58.6160570 126.7422980 121.1758180
  72.2996480 137.1313890 108.2037210  72.0118180 137.5926580 108.9915090
  73.0948650 136.6711660 108.4721430  58.4838120 141.5063670 121.7909910
  58.5929240 140.5658410 121.6505300  57.8318680 141.7718420 121.1423640
  66.4750710 139.7779560 123.1908030  66.1547580 139.0588800 123.7353720
  65.8009070 140.4534630 123.2644090  64.5164880 140.6240010 108.1341180
  64.5074980 141.3569700 107.5185690  63.5963240 140.3771590 108.2268140
  60.1171520 135.8454900 108.8787940  59.5099470 136.5853800 108.8883240
  60.5920870 135.9354260 108.0526140  69.6904310 130.0105720 118.5544830
  70.0585130 129.1900930 118.8824400  68.8302510 130.0707610 118.9700480
  73.0566340 128.9662660 109.3632390  72.4279500 129.0708330 108.6490620
  72.5618260 129.1859440 110.1526270  67.5024480 140.6868250 106.7966370
  67.6036460 140.4832240 105.8668350  66.6026220 140.4326530 107.0014150
  65.0250370 131.2448610 110.7790270  64.3166520 131.7134950 111.2203880
  65.3094850 130.5870620 111.4135460  66.6506300 132.6645310 118.7782800
  67.1491550 133.1391130 119.4434650  66.7929250 131.7408830 118.9852830
  69.0565800 127.9699270 112.2186060  68.9333580 127.9885400 111.2695570
  70.0050360 128.0178210 112.3384460  66.1442590 143.2054570 111.4914040
  66.3984090 143.1675960 110.5693410  65.1955070 143.0787900 111.4842290
  63.2285390 129.5533690 108.1540980  64.0775920 129.9903840 108.0881170
  62.8616660 129.8653950 108.9813040  73.8573160 128.8813270 119.6211190
  73.3546760 129.6218670 119.9605000  74.6729820 129.2697270 119.3047980
  72.1495170 134.1246450 113.0672550  71.2085310 134.1396680 113.2420240
  72.4639240 133.3382410 113.5132850  62.1276810 135.8066050 106.6276510
  62.8940080 135.6947410 107.1901940  62.2051500 135.1104020 105.9753280
  60.8223570 133.2391120 107.3109400  60.9027160 132.2918630 107.4226800
  61.7143320 133.5698000 107.4170060  74.1520750 141.2955300 114.7426810
  74.2768170 142.1186470 115.2150620  75.0186310 141.0846030 114.3950960
  61.6238280 143.3886510 114.4143940  62.3600760 142.8401970 114.6852510
  62.0079200 144.2542520 114.2749930  58.5083760 139.4560080 110.2885450
  57.5823540 139.6981220 110.2790860  58.9740190 140.2834340 110.1670200
  60.6296560 142.5732580 123.6029520  61.4309290 142.8944630 124.0164920
  60.1148380 142.2128160 124.3249430  64.7340590 142.5616820 106.2369510
  65.5269200 142.8505650 105.7851300  64.2144940 142.1308990 105.5581990
  69.4661190 138.6812450 123.5504930  68.8599350 138.7044050 122.8100680
  69.1615300 137.9495490 124.0872180  70.8961560 142.4092740 122.1614340
  71.8483310 142.3250760 122.1114580  70.7489780 143.0734450 122.8348130
  73.7870760 141.7886950 107.6606250  73.5012270 141.3752090 106.8460430
  73.5890310 142.7174660 107.5406770  58.3494370 135.0606040 122.5465570
  58.8533390 134.4813320 123.1181800  57.6101790 135.3446270 123.0841940
  65.2517990 137.7820230 106.1011860  65.1468630 137.1672580 106.8273240
  65.0842210 137.2586120 105.3174870  65.4032310 136.4677030 122.0801090
  64.6377980 137.0362030 121.9955760  65.5848270 136.1753240 121.1869320
  68.4920720 136.8440260 106.7053850  67.9430820 137.2909560 107.3496590
  69.1139980 136.3389510 107.2291520  72.5455660 138.1982360 122.6376110
  73.2865130 138.5358120 122.1343570  71.7828340 138.3674420 122.0845880
  60.3817450 133.2035630 123.4415640  60.4222790 132.9049500 124.3500870
  61.2362950 133.6043240 123.2823160  64.1595840 135.8031180 108.6019150
  64.5812260 135.6371050 109.4450540  64.2846680 134.9931410 108.1074290
  62.3223260 131.7827730 121.4090130  61.7919720 131.2918680 120.7813470
  62.9911330 132.2111930 120.8748060  66.6723480 134.8268790 105.8496250
  67.1929140 134.1117810 105.4837400  67.3191880 135.4654660 106.1496760
  71.2201320 136.2497190 121.1731320  71.6342340 136.4042270 122.0221740
  70.2852320 136.3752410 121.3357100  71.6923490 133.5893350 123.1770470
  72.2744260 132.8345670 123.0890950  71.8685260 134.1200790 122.4001950
  62.8095560 128.7490100 121.4887420  62.7152430 128.1310850 120.7638290
  62.2292950 129.4756390 121.2617330  65.5757000 127.3063340 118.5214810
  65.1274300 127.3287600 117.6760360  64.9422200 126.9082360 119.1185110
  65.9816550 136.2017670 119.1427250  66.4004660 137.0450400 118.9703490
  65.0625180 136.3389710 118.9134030  68.3180450 133.9333850 120.5265090
  68.4376660 133.3374990 121.2659930  69.1774450 133.9703540 120.1066390
  70.6568350 134.4871040 119.1027600  70.1303570 135.0113660 118.4992740
  70.9999690 135.1198430 119.7337330  63.0554740 131.8764410 105.5477310
  62.8543800 131.0131770 105.9090650  62.8846790 131.7897770 104.6098910
  63.8323970 142.5070680 120.2584980  63.2945060 143.2316740 119.9393680
  64.0857930 142.0301020 119.4682320  65.0849220 130.4755200 121.7840910
  65.6748910 130.1671050 122.4718730  64.2669460 130.0034950 121.9400810
  69.9042650 130.0921010 122.0173930  69.2158170 129.4302550 121.9523920
  70.6248670 129.6459280 122.4622390  70.5343050 126.6872640 108.0764190
  70.8145340 125.8440540 108.4323610  69.7608780 126.9195750 108.5902940
  61.8537540 128.9765030 105.5355190  62.1563440 128.9832460 104.6274340
  62.5932130 128.6262890 106.0322850  66.6886180 143.7421890 120.5171630
  66.6144880 144.6457030 120.8244000  65.7865020 143.4233790 120.4893700
  65.0722470 127.9199650 106.5211390  64.7244470 127.2423640 105.9413840
  65.2735240 127.4589160 107.3354780  67.2371510 142.9080400 108.1397990
  68.1322300 143.2465370 108.1616750  67.2689140 142.1859810 107.5122270
  60.8767670 138.2807450 106.3684990  61.3142540 138.8237120 107.0242570
  61.3615400 137.4554400 106.3781330  58.0913470 141.0696480 113.8205250
  58.4216480 140.2017540 113.5883890  58.5204470 141.2755000 114.6510210
  62.6875390 139.4005490 111.4807220  62.3870930 139.2770460 112.3811130
  62.5812880 138.5414080 111.0722950  58.5803680 141.9367070 116.5586880
  58.1434670 142.1167870 117.3911030  59.1481360 142.6941690 116.4168600
  74.2165860 141.4384070 120.8464190  73.6167850 141.4976630 120.1028110
  74.3459760 140.4989050 120.9761040  75.4567310 139.1801890 106.1833900
  74.6260270 139.2478540 106.6541130  75.6339140 140.0706010 105.8800760
  74.9123770 135.9249370 108.6868100  75.6742680 136.4946020 108.7927790
  74.9278140 135.3576570 109.4576410  58.4128110 134.4487300 112.9175760
  57.7576950 134.1798940 112.2735460  59.2506060 134.3391780 112.4677740
  75.9183740 136.7799470 113.5310030  76.2892570 135.9966790 113.1246000
  76.5585670 137.4688570 113.3527330  72.9017500 138.1636050 118.9440350
  72.0877340 138.5933210 119.2066140  73.3091700 138.7754460 118.3309400
  74.9642940 136.2183740 105.8440620  75.2391780 137.1262620 105.7159840
  74.7753680 136.1546270 106.7802610  71.3618550 129.2428590 107.1394250
  71.7803430 129.0559570 106.2990910  71.0554610 128.3907640 107.4497180
  74.8608280 134.1552730 110.8370050  74.4851880 133.3880660 110.4051340
  74.1311400 134.5375430 111.3244980  59.4504040 134.8339870 117.4579100
  59.8177080 134.7467270 118.3375120  58.8814860 134.0706420 117.3585960
  74.2507900 133.3024250 120.4709570  74.0193990 133.0737000 119.5707520
  74.5112450 134.2223800 120.4254460  59.0020040 131.7448960 121.3637520
  58.1076090 131.7115720 121.7031230  59.5417590 131.9435750 122.1288770
  72.6895970 128.5280680 123.2489270  73.5666150 128.5364080 123.6323270
  72.7016810 127.7911520 122.6381620  57.6266190 131.6586230 108.8601090
  56.7230270 131.9216430 108.6852750  58.1106810 131.9297400 108.0801050
  74.1359240 132.3810220 114.1377290  74.6596720 131.8872870 113.5067460
  74.7218660 132.5160580 114.8824860  74.3148960 132.4650090 117.6596840
  73.3651670 132.4313630 117.7741830  74.4961970 133.3750200 117.4246610
  60.1693400 130.7151770 106.7695470  60.8785100 130.2934990 106.2842750
  59.4533340 130.7827000 106.1378820  73.6259210 131.6383570 110.0769700
  74.1218330 131.4054440 110.8618580  73.4275280 130.7995410 109.6607340
  75.0546370 130.2744520 112.6107380  74.9445650 130.1200560 113.5489650
  75.8153960 129.7465460 112.3682790  73.4012090 126.2138650 119.0690380
  74.0384310 126.8272790 119.4349570  73.5486980 126.2499310 118.1239610
  76.0175130 128.8763100 108.4770230  75.2226630 128.8108220 109.0063140
  76.2218410 129.8113740 108.4655580  72.9593550 142.9154650 112.4708620
  73.5552620 142.5939220 111.7943040  73.2171700 142.4426470 113.2621890
  59.2591750 126.1752960 118.4546060  58.9106570 126.6316780 119.2204240
  58.9279450 125.2810090 118.5368490  60.8656120 139.3472560 122.6199250
  60.8225750 138.9765470 123.5013710  60.9967130 140.2850130 122.7601070
  64.5662150 140.9032150 118.2208970  64.3253510 141.1706710 117.3339490
  65.5064790 141.0737880 118.2759830  66.7716570 127.3664840 121.9765480
  66.7105460 127.9586670 122.7260890  67.7116950 127.2590800 121.8315740
  69.4091130 127.0234900 121.6157770  70.0231540 127.3414190 120.9538850
  69.9540690 126.5383490 122.2353630  75.8266310 142.9226530 119.0219610
  75.3324590 143.3195400 118.3046740  75.2179600 142.2975740 119.4156890
  59.9312390 125.7029160 121.7296830  60.4795380 125.5217210 120.9662940
  59.9967700 124.9123270 122.2653140  60.7044150 142.2934810 119.7397030
  60.1104470 142.1619510 120.4787070  60.6967990 141.4572950 119.2739130
  70.1499170 125.5867040 117.9427060  69.2759010 125.9202150 117.7399990
  70.0409920 125.1140220 118.7678930  71.0571150 127.7937910 119.3268780
  70.7284510 126.9789670 118.9470510  72.0053450 127.7507720 119.2034470
  73.5105760 143.5649950 116.3006350  73.0508730 144.3165760 115.9264370
  72.8818220 142.8456420 116.2421150  60.3356380 139.6593190 118.6905070
  59.6090440 139.0398480 118.6231020  60.3965530 140.0533800 117.8203150
  63.9401480 141.8738190 115.4754480  64.4566500 141.2625550 114.9502740
  64.5898860 142.3766970 115.9665490  66.6796980 142.7646680 116.3023460
  66.9674790 142.5100980 115.4256470  67.1920200 142.2124040 116.8929030
  67.8973990 126.5036880 116.8819970  67.1145780 126.9782380 117.1616730
  67.6036920 125.5991710 116.7733150  58.6186380 142.9767580 111.9001830
  58.4508420 142.3438260 112.5983720  57.7520890 143.1826980 111.5496020
  59.2414400 126.8084360 109.4033690  59.9993760 126.9213240 108.8297720
  58.7791570 127.6453560 109.3577120  70.2853190 125.5866080 113.6319070
  70.8882560 126.1586290 114.1067590  69.5446180 126.1505520 113.4092970
  73.4287790 125.9887640 108.9059350  73.6238420 126.8871090 109.1726780
  72.6417660 125.7574720 109.3992300  60.2249080 141.6700810 109.3451970
  59.6996700 142.0508840 108.6413930  60.1493660 142.2951580 110.0661680
  61.6139550 127.3348410 107.9435660  62.1432310 126.5478210 107.8143610
  62.2467870 128.0139600 108.1771190  63.8077390 127.0723550 110.9981050
  63.1780130 126.3710860 111.1651180  63.2682530 127.8327680 110.7814210
  66.7469340 143.6862780 123.6691660  67.6736650 143.4507050 123.7127620
  66.7319770 144.5134780 123.1877690  74.9814400 143.2288350 110.6665910
  75.1566590 142.5426090 110.0226830  74.2835970 143.7535400 110.2742580
  63.9332950 126.3507530 123.4333540  63.6517220 126.8541130 122.6694360
  64.3152650 125.5529280 123.0675670  62.8242050 143.6183190 108.2201220
  63.5560870 143.3342470 107.6725110  63.0835720 143.3796470 109.1100600
  61.9856840 139.7347920 108.2247550  61.3565720 140.2033020 108.7733380
  62.1004670 138.8897140 108.6593740  70.5348410 125.7661110 124.0114010
  70.4213860 126.0855720 124.9065530  71.3518150 126.1673620 123.7151290
  73.3146900 142.9132640 123.4932700  74.1072220 142.4181870 123.2858660
  73.6080050 143.5922780 124.1008310  71.5932030 139.9692790  95.0357150
  71.1313560 139.1980030  95.3644320  72.4057580 139.9958860  95.5409600
  61.5691690 139.9092500  97.3291800  61.8719730 139.0190240  97.1502020
  62.3135280 140.4662720  97.1014050  59.9982380 130.8354300  90.9176170
  59.1099080 131.1770270  90.8156050  60.2823570 130.6354620  90.0257000
  67.8195340 142.2550800  94.6561140  67.2006780 142.7108300  94.0855580
  68.6747120 142.4102260  94.2550840  67.0133590 138.2389790  96.2628180
  66.9441870 137.2979730  96.1017310  67.7753450 138.3291200  96.8350750
  62.2987600 127.0270730 100.5503150  62.3006040 127.5443120  99.7449050
  61.4691910 126.5500910 100.5273080  68.6858690 137.1390040  92.0493050
  68.0675960 137.6039490  91.4855770  69.1981940 137.8317520  92.4662560
  62.7609550 138.6346710 100.5425830  63.3783550 139.3097790 100.2610280
  61.9002670 139.0434690 100.4513330  58.0541890 137.8246570  89.4232680
  57.6769870 138.3133670  88.6917580  58.3114960 138.4971850  90.0539210
  73.6787140 140.0986120  98.4580470  72.9950660 140.7685230  98.4497140
  74.2181430 140.2966770  97.6925330  65.6630820 126.2262960  94.8818190
  65.9705800 125.6709850  94.1653690  64.7331520 126.3607420  94.6991180
  71.2145880 141.9430250  97.1725650  71.2273040 141.5392540  96.3047910
  70.6621100 142.7177540  97.0687080  72.5091300 138.6646470  92.2615820
  72.3987630 137.7220800  92.3865240  72.5059550 139.0262110  93.1478580
  70.6131320 136.8460090  98.5008260  71.0300110 136.6320200  97.6661720
  71.3371140 137.1032880  99.0716880  74.5593420 135.2447310  98.5924500
  73.7312050 135.3140400  98.1174630  75.1543900 135.8301620  98.1240330
  72.0808870 135.8532090  92.1213560  71.4621290 135.5151640  91.4739860
  72.0633320 135.2091850  92.8292750  64.1249920 138.5044090  96.5637250
  63.8278210 137.8989560  95.8845030  65.0749740 138.5421400  96.4526610
  62.3696840 131.5919740  98.1797080  62.9211430 131.7015080  97.4050330
  62.8840350 131.9657340  98.8952310  72.2135530 142.0775960 100.2260350
  71.7366090 142.8848150 100.0332960  71.5297320 141.4254290 100.3786560
  63.2168350 138.2425780 103.2145050  62.3196880 138.4665750 103.4618450
  63.2421220 138.3660720 102.2656450  70.2573570 135.0918900  89.1286310
  70.6966850 134.2541330  88.9824130  70.9701990 135.7248300  89.2150450
  68.3668950 140.0314970  93.0967550  68.8064860 140.7739300  92.6822940
  68.3055840 140.2741540  94.0206510  63.8419920 141.0560800 103.9987570
  63.8135350 141.4603750 103.1316000  63.6784890 140.1271160 103.8359170
  73.8390710 126.3461710  87.4427350  73.5263370 126.4388540  88.3426420
  74.6003180 126.9242740  87.3924780  60.3572850 133.7121510  91.9004690
  60.2370450 134.4383600  91.2885960  60.0473740 132.9424420  91.4232600
  75.7934740 141.8387900 105.2951740  76.2694460 142.3170790 105.9740820
  76.4141900 141.7705390 104.5697240  57.9958220 136.8836650  97.7073330
  58.0738640 137.0185420  96.7629050  58.6099900 136.1752540  97.9001450
  59.2405850 138.5836840  94.1179510  58.8333930 138.7251430  93.2633110
  60.1318860 138.2997000  93.9150720  75.1967990 139.0300750 102.4551750
  75.3231050 138.7912630 101.5368930  75.2389370 138.1985290 102.9273830
  69.0584730 142.7328750 101.0246560  69.5729400 142.6436760 101.8268990
  68.2153810 143.0788450 101.3174470  71.0339130 143.0184090  90.4530560
  70.8740270 142.7287030  91.3512390  70.8685840 142.2424220  89.9175790
  63.5127510 142.7982620  92.2302180  63.3369990 141.8818160  92.0169980
  62.6583250 143.1569910  92.4699980  70.7365260 140.5271650  89.0128560
  70.0430420 140.5248940  88.3530840  71.4788120 140.1030970  88.5822730
  70.3015190 142.1534360  93.0877050  70.7572140 141.3723740  93.4015670
  70.6407710 142.8641180  93.6318230  65.9395330 126.6767280  90.1634190
  65.3149510 126.6727150  90.8887500  65.8525450 125.8098240  89.7670160
  64.8612410 127.6003910  97.1417960  65.1584740 128.5066740  97.0609980
  65.4097970 127.1122690  96.5277530  69.8448490 132.1853520  91.6100260
  69.2457380 132.9089320  91.4263880  70.3928100 132.1230300  90.8276710
  65.0549940 133.0775730 103.6769880  64.9593540 132.1370460 103.5270280
  65.8981920 133.2990800 103.2817950  60.1860480 129.4889400 101.8303660
  59.7923870 130.3364610 102.0376440  59.4978880 128.8515770 102.0212300
  69.0368500 133.4122810  97.7354320  68.3049620 133.9209620  98.0844420
  68.6392840 132.5952790  97.4343100  64.5487540 133.3990230  88.5296870
  63.9804440 132.9508480  87.9032780  65.2576540 133.7583010  87.9962020
  62.0935020 137.3948420  90.8023280  61.3197280 136.8546040  90.6422000
  62.8229650 136.8755030  90.4641040  72.8523000 136.3913780  96.5949670
  73.5722120 136.8869070  96.2045780  72.6504820 135.7131670  95.9503540
  68.3132940 127.7851740  90.7379060  67.4997550 127.2864910  90.6624370
  68.1194890 128.6249990  90.3215410  68.2341800 136.4622840 102.4818670
  68.1679110 135.5418510 102.2276260  67.6046940 136.5598280 103.1963310
  71.0281330 132.1571390  89.0341220  71.9160950 132.4688620  88.8592560
  70.9986420 131.2843640  88.6421800  62.1372420 137.0628800  94.4402090
  62.6551090 136.2597060  94.3858980  61.6856440 137.0007940  95.2818920
  67.0241920 138.3295080  89.7129390  67.3657620 139.0737310  89.2172710
  66.1954630 138.6426200  90.0754220  68.1658530 139.2843410 102.2322470
  68.1803070 138.3524370 102.0141380  67.4583630 139.3703170 102.8712240
  73.2995600 133.4683230  88.5021080  73.2159320 133.8997450  87.6517520
  74.0189790 133.9281580  88.9347900  74.3282850 140.3225490  91.2303210
  73.6859010 139.6681110  91.5046930  73.9413510 140.7280580  90.4543880
  69.9069330 137.6510920  95.0774900  70.2593150 137.0539050  94.4176270
  69.0231660 137.3255150  95.2483150  65.9932610 138.4108610  92.4845310
  66.6803740 138.9577820  92.8652900  65.2065030 138.9549340  92.5194920
  67.5992430 140.9260980  99.3262970  68.2434650 141.1320360 100.0036390
  67.9621870 140.1649380  98.8733820  68.8724510 138.9293330  98.0440420
  69.5146740 138.2286490  98.1572590  69.3973860 139.7091770  97.8637310
  72.7180230 139.2141950  87.7679560  72.4917810 138.4972390  88.3604200
  72.3276430 138.9654390  86.9301310  58.4996260 143.2408810  88.5424020
  58.8593900 143.8398150  87.8881290  58.3588600 143.7868700  89.3159050
  58.1965530 127.5183410 102.0299890  57.4824050 127.7180330 102.6352500
  58.6160570 126.7422980 102.4014690  72.2996480 137.1313890  89.4293720
  72.0118180 137.5926580  90.2171600  73.0948650 136.6711660  89.6977940
  58.4838120 141.5063670 103.0166420  58.5929240 140.5658410 102.8761810
  57.8318680 141.7718420 102.3680150  66.4750710 139.7779560 104.4164540
  66.1547580 139.0588800 104.9610230  65.8009070 140.4534630 104.4900600
  64.5164880 140.6240010  89.3597690  64.5074980 141.3569700  88.7442200
  63.5963240 140.3771590  89.4524650  60.1171520 135.8454900  90.1044450
  59.5099470 136.5853800  90.1139750  60.5920870 135.9354260  89.2782650
  73.0566340 128.9662660  90.5888900  72.4279500 129.0708330  89.8747130
  72.5618260 129.1859440  91.3782780  67.5024480 140.6868250  88.0222880
  67.6036460 140.4832240  87.0924860  66.6026220 140.4326530  88.2270660
  66.6506300 132.6645310 100.0039310  67.1491550 133.1391130 100.6691160
  66.7929250 131.7408830 100.2109340  69.0565800 127.9699270  93.4442570
  68.9333580 127.9885400  92.4952080  70.0050360 128.0178210  93.5640970
  66.1442590 143.2054570  92.7170550  66.3984090 143.1675960  91.7949920
  65.1955070 143.0787900  92.7098800  63.2285390 129.5533690  89.3797490
  64.0775920 129.9903840  89.3137680  62.8616660 129.8653950  90.2069550
  72.1495170 134.1246450  94.2929060  71.2085310 134.1396680  94.4676750
  72.4639240 133.3382410  94.7389360  62.1276810 135.8066050  87.8533020
  62.8940080 135.6947410  88.4158450  62.2051500 135.1104020  87.2009790
  60.8223570 133.2391120  88.5365910  60.9027160 132.2918630  88.6483310
  61.7143320 133.5698000  88.6426570  74.1520750 141.2955300  95.9683320
  74.2768170 142.1186470  96.4407130  75.0186310 141.0846030  95.6207470
  61.6238280 143.3886510  95.6400450  62.3600760 142.8401970  95.9109020
  62.0079200 144.2542520  95.5006440  58.5083760 139.4560080  91.5141960
  57.5823540 139.6981220  91.5047370  58.9740190 140.2834340  91.3926710
  60.6296560 142.5732580 104.8286030  61.4309290 142.8944630 105.2421430
  60.1148380 142.2128160 105.5505940  64.7340590 142.5616820  87.4626020
  65.5269200 142.8505650  87.0107810  64.2144940 142.1308990  86.7838500
  69.4661190 138.6812450 104.7761440  68.8599350 138.7044050 104.0357190
  69.1615300 137.9495490 105.3128690  70.8961560 142.4092740 103.3870850
  71.8483310 142.3250760 103.3371090  70.7489780 143.0734450 104.0604640
  73.7870760 141.7886950  88.8862760  73.5012270 141.3752090  88.0716940
  73.5890310 142.7174660  88.7663280  65.2517990 137.7820230  87.3268370
  65.1468630 137.1672580  88.0529750  65.0842210 137.2586120  86.5431380
  65.4032310 136.4677030 103.3057600  64.6377980 137.0362030 103.2212270
  65.5848270 136.1753240 102.4125830  68.4920720 136.8440260  87.9310360
  67.9430820 137.2909560  88.5753100  69.1139980 136.3389510  88.4548030
  64.1595840 135.8031180  89.8275660  64.5812260 135.6371050  90.6707050
  64.2846680 134.9931410  89.3330800  62.3223260 131.7827730 102.6346640
  61.7919720 131.2918680 102.0069980  62.9911330 132.2111930 102.1004570
  66.6723480 134.8268790  87.0752760  67.1929140 134.1117810  86.7093910
  67.3191880 135.4654660  87.3753270  62.8095560 128.7490100 102.7143930
  62.7152430 128.1310850 101.9894800  62.2292950 129.4756390 102.4873840
  65.5757000 127.3063340  99.7471320  65.1274300 127.3287600  98.9016870
  64.9422200 126.9082360 100.3441620  65.9816550 136.2017670 100.3683760
  66.4004660 137.0450400 100.1960000  65.0625180 136.3389710 100.1390540
  68.3180450 133.9333850 101.7521600  68.4376660 133.3374990 102.4916440
  69.1774450 133.9703540 101.3322900  70.6568350 134.4871040 100.3284110
  70.1303570 135.0113660  99.7249250  70.9999690 135.1198430 100.9593840
  63.0554740 131.8764410  86.7733820  62.8543800 131.0131770  87.1347160
  62.8846790 131.7897770  85.8355420  63.8323970 142.5070680 101.4841490
  63.2945060 143.2316740 101.1650190  64.0857930 142.0301020 100.6938830
  65.0849220 130.4755200 103.0097420  65.6748910 130.1671050 103.6975240
  64.2669460 130.0034950 103.1657320  70.5343050 126.6872640  89.3020700
  70.8145340 125.8440540  89.6580120  69.7608780 126.9195750  89.8159450
  61.8537540 128.9765030  86.7611700  62.1563440 128.9832460  85.8530850
  62.5932130 128.6262890  87.2579360  66.6886180 143.7421890 101.7428140
  66.6144880 144.6457030 102.0500510  65.7865020 143.4233790 101.7150210
  67.2371510 142.9080400  89.3654500  68.1322300 143.2465370  89.3873260
  67.2689140 142.1859810  88.7378780  60.8767670 138.2807450  87.5941500
  61.3142540 138.8237120  88.2499080  61.3615400 137.4554400  87.6037840
  58.0913470 141.0696480  95.0461760  58.4216480 140.2017540  94.8140400
  58.5204470 141.2755000  95.8766720  62.6875390 139.4005490  92.7063730
  62.3870930 139.2770460  93.6067640  62.5812880 138.5414080  92.2979460
  58.5803680 141.9367070  97.7843390  58.1434670 142.1167870  98.6167540
  59.1481360 142.6941690  97.6425110  74.2165860 141.4384070 102.0720700
  73.6167850 141.4976630 101.3284620  74.3459760 140.4989050 102.2017550
  75.4567310 139.1801890  87.4090410  74.6260270 139.2478540  87.8797640
  75.6339140 140.0706010  87.1057270  74.9123770 135.9249370  89.9124610
  75.6742680 136.4946020  90.0184300  74.9278140 135.3576570  90.6832920
  75.9183740 136.7799470  94.7566540  76.2892570 135.9966790  94.3502510
  76.5585670 137.4688570  94.5783840  74.9642940 136.2183740  87.0697130
  75.2391780 137.1262620  86.9416350  74.7753680 136.1546270  88.0059120
  71.3618550 129.2428590  88.3650760  71.7803430 129.0559570  87.5247420
  71.0554610 128.3907640  88.6753690  74.8608280 134.1552730  92.0626560
  74.4851880 133.3880660  91.6307850  74.1311400 134.5375430  92.5501490
  74.1359240 132.3810220  95.3633800  74.6596720 131.8872870  94.7323970
  74.7218660 132.5160580  96.1081370  60.1693400 130.7151770  87.9951980
  60.8785100 130.2934990  87.5099260  59.4533340 130.7827000  87.3635330
  73.6259210 131.6383570  91.3026210  74.1218330 131.4054440  92.0875090
  73.4275280 130.7995410  90.8863850  73.4012090 126.2138650 100.2946890
  74.0384310 126.8272790 100.6606080  73.5486980 126.2499310  99.3496120
  76.0175130 128.8763100  89.7026740  75.2226630 128.8108220  90.2319650
  76.2218410 129.8113740  89.6912090  72.9593550 142.9154650  93.6965130
  73.5552620 142.5939220  93.0199550  73.2171700 142.4426470  94.4878400
  60.8656120 139.3472560 103.8455760  60.8225750 138.9765470 104.7270220
  60.9967130 140.2850130 103.9857580  64.5662150 140.9032150  99.4465480
  64.3253510 141.1706710  98.5596000  65.5064790 141.0737880  99.5016340
  75.8266310 142.9226530 100.2476120  75.3324590 143.3195400  99.5303250
  75.2179600 142.2975740 100.6413400  60.7044150 142.2934810 100.9653540
  60.1104470 142.1619510 101.7043580  60.6967990 141.4572950 100.4995640
  70.1499170 125.5867040  99.1683570  69.2759010 125.9202150  98.9656500
  70.0409920 125.1140220  99.9935440  73.5105760 143.5649950  97.5262860
  73.0508730 144.3165760  97.1520880  72.8818220 142.8456420  97.4677660
  60.3356380 139.6593190  99.9161580  59.6090440 139.0398480  99.8487530
  60.3965530 140.0533800  99.0459660  63.9401480 141.8738190  96.7010990
  64.4566500 141.2625550  96.1759250  64.5898860 142.3766970  97.1922000
  66.6796980 142.7646680  97.5279970  66.9674790 142.5100980  96.6512980
  67.1920200 142.2124040  98.1185540  67.8973990 126.5036880  98.1076480
  67.1145780 126.9782380  98.3873240  67.6036920 125.5991710  97.9989660
  58.6186380 142.9767580  93.1258340  58.4508420 142.3438260  93.8240230
  57.7520890 143.1826980  92.7752530  73.4287790 125.9887640  90.1315860
  73.6238420 126.8871090  90.3983290  72.6417660 125.7574720  90.6248810
  60.2249080 141.6700810  90.5708480  59.6996700 142.0508840  89.8670440
  60.1493660 142.2951580  91.2918190  61.6139550 127.3348410  89.1692170
  62.1432310 126.5478210  89.0400120  62.2467870 128.0139600  89.4027700
  66.7469340 143.6862780 104.8948170  67.6736650 143.4507050 104.9384130
  66.7319770 144.5134780 104.4134200  74.9814400 143.2288350  91.8922420
  75.1566590 142.5426090  91.2483340  74.2835970 143.7535400  91.4999090
  63.9332950 126.3507530 104.6590050  63.6517220 126.8541130 103.8950870
  64.3152650 125.5529280 104.2932180  62.8242050 143.6183190  89.4457730
  63.5560870 143.3342470  88.8981620  63.0835720 143.3796470  90.3357110
  61.9856840 139.7347920  89.4504060  61.3565720 140.2033020  89.9989890
  62.1004670 138.8897140  89.8850250  70.5348410 125.7661110 105.2370520
  70.4213860 126.0855720 106.1322040  71.3518150 126.1673620 104.9407800
  73.3146900 142.9132640 104.7189210  74.1072220 142.4181870 104.5115170
  73.6080050 143.5922780 105.3264820  61.5890430 135.8752410  78.3590290
  60.7575310 135.6201120  78.7586800  62.1971410 135.9463180  79.0948210
  61.5691690 139.9092500  78.5548310  61.8719730 139.0190240  78.3758530
  62.3135280 140.4662720  78.3270560  59.9982380 130.8354300  72.1432680
  59.1099080 131.1770270  72.0412560  60.2823570 130.6354620  71.2513510
  59.2040260 128.8444310  79.8141310  59.0243100 127.9470060  80.0944070
  58.8020340 129.3916180  80.4888260  68.0438760 131.0460170  77.7153620
  68.4203580 130.1732050  77.6027290  67.9458270 131.3818870  76.8244060
  62.1743770 129.4185800  73.1771060  62.2810520 130.3189530  73.4839820
  61.2636130 129.3703770  72.8865710  71.8262880 128.5410610  74.6481960
  72.6472500 128.0507180  74.6907440  71.8596960 129.1308270  75.4013800
  59.8226930 131.3404810  78.4223650  60.5037040 131.6043180  79.0411050
  59.5074980 130.5005680  78.7561660  64.0151500 132.3872170  77.5096240
  64.5229720 132.8853140  78.1501260  64.5464740 131.6107370  77.3335600
  76.1162430 130.5577360  81.2125590  75.4114600 130.9459070  80.6940700
  76.3820350 131.2527650  81.8146520  72.0624360 130.4810990  77.4209500
  71.3579930 130.7695880  78.0012610  72.4236520 131.2911100  77.0609060
  61.9802930 128.7380690  79.7830110  62.3219740 129.5822740  79.4883980
  61.0418740 128.8864430  79.8995450  75.1311280 129.9265780  77.8118710
  74.1836190 129.9604760  77.9434140  75.4561270 130.7404730  78.1968070
  65.6630820 126.2262960  76.1074700  65.9705800 125.6709850  75.3910200
  64.7331520 126.3607420  75.9247690  68.0380660 130.5628790  69.8401980
  67.0984330 130.7242750  69.9254440  68.3563920 131.2814470  69.2937970
  63.6568220 134.8176530  75.6254550  63.2525220 134.1053780  75.1300450
  63.7431340 134.4729770  76.5142590  64.1249920 138.5044090  77.7893760
  63.8278210 137.8989560  77.1101540  65.0749740 138.5421400  77.6783120
  62.3696840 131.5919740  79.4053590  62.9211430 131.7015080  78.6306840
  62.8840350 131.9657340  80.1208820  63.8419920 141.0560800  85.2244080
  63.8135350 141.4603750  84.3572510  63.6784890 140.1271160  85.0615680
  73.8390710 126.3461710  68.6683860  73.5263370 126.4388540  69.5682930
  74.6003180 126.9242740  68.6181290  60.3572850 133.7121510  73.1261200
  60.2370450 134.4383600  72.5142470  60.0473740 132.9424420  72.6489110
  75.7934740 141.8387900  86.5208250  76.2694460 142.3170790  87.1997330
  76.4141900 141.7705390  85.7953750  57.9958220 136.8836650  78.9329840
  58.0738640 137.0185420  77.9885560  58.6099900 136.1752540  79.1257960
  71.0339130 143.0184090  71.6787070  70.8740270 142.7287030  72.5768900
  70.8685840 142.2424220  71.1432300  70.7365260 140.5271650  70.2385070
  70.0430420 140.5248940  69.5787350  71.4788120 140.1030970  69.8079240
  75.0492000 131.0833210  84.6458000  74.4336270 131.5912880  84.1173460
  74.7288420 130.1831540  84.5883940  58.0517740 137.9250820  81.4724300
  58.2148780 137.4556180  80.6543670  58.5170190 137.4174380  82.1373140
  67.1106320 129.9225100  82.1120190  66.6485690 130.1308120  82.9240130
  66.7084430 129.1084450  81.8090860  65.9395330 126.6767280  71.3890700
  65.3149510 126.6727150  72.1144010  65.8525450 125.8098240  70.9926670
  64.8612410 127.6003910  78.3674470  65.1584740 128.5066740  78.2866490
  65.4097970 127.1122690  77.7534040  62.6150730 132.1790150  74.2366120
  62.3891650 131.9627320  75.1412740  61.8343260 132.6118610  73.8912090
  69.8448490 132.1853520  72.8356770  69.2457380 132.9089320  72.6520390
  70.3928100 132.1230300  72.0533220  65.0549940 133.0775730  84.9026390
  64.9593540 132.1370460  84.7526790  65.8981920 133.2990800  84.5074460
  68.4513360 130.8217060  74.8660050  68.8442930 131.1389260  74.0528740
  68.8130210 129.9428940  74.9804570  57.4877530 127.4117860  77.0890250
  57.1990580 127.9820720  77.8015230  58.2323290 126.9322310  77.4521480
  57.6747760 131.3537980  68.2992970  57.5922430 132.2968740  68.4407960
  57.3230820 131.2112890  67.4205320  69.0368500 133.4122810  78.9610830
  68.3049620 133.9209620  79.3100930  68.6392840 132.5952790  78.6599610
  65.4745890 130.0877010  77.3663320  65.4781950 129.6466960  76.5167860
  66.3697010 130.4094340  77.4735140  61.3248270 129.9703500  76.3257530
  60.9848320 130.4478730  77.0824580  60.5625590 129.5168620  75.9658630
  65.5366040 131.0889090  70.3570080  65.6578860 131.0475570  71.3055900
  65.1514550 131.9513240  70.2016810  69.4994410 128.8656490  78.3733770
  69.5167150 129.3165140  79.2175620  69.2509990 127.9662130  78.5867210
  72.9265160 126.2788670  84.2120150  73.2510930 125.5478330  84.7378130
  72.9621670 125.9602310  83.3101140  59.6256720 137.3002250  83.6320110
  59.2411510 136.6595920  84.2303070  59.9368910 138.0038370  84.2014840
  68.3132940 127.7851740  71.9635570  67.4997550 127.2864910  71.8880880
  68.1194890 128.6249990  71.5471920  62.1372420 137.0628800  75.6658600
  62.6551090 136.2597060  75.6115490  61.6856440 137.0007940  76.5075430
  59.6216960 134.0290170  82.5784300  59.2631900 134.6944020  83.1657640
  59.3271520 133.1973720  82.9496920  62.8230080 134.4874410  85.4623850
  62.5230220 134.6331590  84.5651670  63.5941320 133.9279700  85.3697240
  58.4996260 143.2408810  69.7680530  58.8593900 143.8398150  69.1137800
  58.3588600 143.7868700  70.5415560  58.4838120 141.5063670  84.2422930
  58.5929240 140.5658410  84.1018320  57.8318680 141.7718420  83.5936660
  66.4750710 139.7779560  85.6421050  66.1547580 139.0588800  86.1866740
  65.8009070 140.4534630  85.7157110  73.0566340 128.9662660  71.8145410
  72.4279500 129.0708330  71.1003640  72.5618260 129.1859440  72.6039290
  65.0250370 131.2448610  73.2303290  64.3166520 131.7134950  73.6716900
  65.3094850 130.5870620  73.8648480  66.6506300 132.6645310  81.2295820
  67.1491550 133.1391130  81.8947670  66.7929250 131.7408830  81.4365850
  69.0565800 127.9699270  74.6699080  68.9333580 127.9885400  73.7208590
  70.0050360 128.0178210  74.7897480  63.2285390 129.5533690  70.6054000
  64.0775920 129.9903840  70.5394190  62.8616660 129.8653950  71.4326060
  73.8573160 128.8813270  82.0724210  73.3546760 129.6218670  82.4118020
  74.6729820 129.2697270  81.7561000  61.6238280 143.3886510  76.8656960
  62.3600760 142.8401970  77.1365530  62.0079200 144.2542520  76.7262950
  60.6296560 142.5732580  86.0542540  61.4309290 142.8944630  86.4677940
  60.1148380 142.2128160  86.7762450  69.4661190 138.6812450  86.0017950
  68.8599350 138.7044050  85.2613700  69.1615300 137.9495490  86.5385200
  73.7870760 141.7886950  70.1119270  73.5012270 141.3752090  69.2973450
  73.5890310 142.7174660  69.9919790  72.5455660 138.1982360  85.0889130
  73.2865130 138.5358120  84.5856590  71.7828340 138.3674420  84.5358900
  60.3817450 133.2035630  85.8928660  60.4222790 132.9049500  86.8013890
  61.2362950 133.6043240  85.7336180  62.3223260 131.7827730  83.8603150
  61.7919720 131.2918680  83.2326490  62.9911330 132.2111930  83.3261080
  71.2201320 136.2497190  83.6244340  71.6342340 136.4042270  84.4734760
  70.2852320 136.3752410  83.7870120  71.6923490 133.5893350  85.6283490
  72.2744260 132.8345670  85.5403970  71.8685260 134.1200790  84.8514970
  62.8095560 128.7490100  83.9400440  62.7152430 128.1310850  83.2151310
  62.2292950 129.4756390  83.7130350  65.5757000 127.3063340  80.9727830
  65.1274300 127.3287600  80.1273380  64.9422200 126.9082360  81.5698130
  63.8323970 142.5070680  82.7098000  63.2945060 143.2316740  82.3906700
  64.0857930 142.0301020  81.9195340  65.0849220 130.4755200  84.2353930
  65.6748910 130.1671050  84.9231750  64.2669460 130.0034950  84.3913830
  61.8537540 128.9765030  67.9868210  62.1563440 128.9832460  67.0787360
  62.5932130 128.6262890  68.4835870  58.0913470 141.0696480  76.2718270
  58.4216480 140.2017540  76.0396910  58.5204470 141.2755000  77.1023230
  58.5803680 141.9367070  79.0099900  58.1434670 142.1167870  79.8424050
  59.1481360 142.6941690  78.8681620  71.3618550 129.2428590  69.5907270
  71.7803430 129.0559570  68.7503930  71.0554610 128.3907640  69.9010200
  59.4504040 134.8339870  79.9092120  59.8177080 134.7467270  80.7888140
  58.8814860 134.0706420  79.8098980  59.0020040 131.7448960  83.8150540
  58.1076090 131.7115720  84.1544250  59.5417590 131.9435750  84.5801790
  72.6895970 128.5280680  85.7002290  73.5666150 128.5364080  86.0836290
  72.7016810 127.7911520  85.0894640  57.6266190 131.6586230  71.3114110
  56.7230270 131.9216430  71.1365770  58.1106810 131.9297400  70.5314070
  74.1359240 132.3810220  76.5890310  74.6596720 131.8872870  75.9580480
  74.7218660 132.5160580  77.3337880  59.8167560 126.7691100  68.2611140
  60.5395690 127.3100040  68.5792360  60.0892080 126.4954520  67.3852680
  73.6259210 131.6383570  72.5282720  74.1218330 131.4054440  73.3131600
  73.4275280 130.7995410  72.1120360  75.0546370 130.2744520  75.0620400
  74.9445650 130.1200560  76.0002670  75.8153960 129.7465460  74.8195810
  73.4012090 126.2138650  81.5203400  74.0384310 126.8272790  81.8862590
  73.5486980 126.2499310  80.5752630  75.9436640 128.1052440  68.3026540
  76.8685950 127.9733620  68.0944830  75.9212430 128.1845260  69.2562990
  76.0175130 128.8763100  70.9283250  75.2226630 128.8108220  71.4576160
  76.2218410 129.8113740  70.9168600  60.8656120 139.3472560  85.0712270
  60.8225750 138.9765470  85.9526730  60.9967130 140.2850130  85.2114090
  64.5662150 140.9032150  80.6721990  64.3253510 141.1706710  79.7852510
  65.5064790 141.0737880  80.7272850  66.7716570 127.3664840  84.4278500
  66.7105460 127.9586670  85.1773910  67.7116950 127.2590800  84.2828760
  69.4091130 127.0234900  84.0670790  70.0231540 127.3414190  83.4051870
  69.9540690 126.5383490  84.6866650  60.7044150 142.2934810  82.1910050
  60.1104470 142.1619510  82.9300090  60.6967990 141.4572950  81.7252150
  70.1499170 125.5867040  80.3940080  69.2759010 125.9202150  80.1913010
  70.0409920 125.1140220  81.2191950  71.0571150 127.7937910  81.7781800
  70.7284510 126.9789670  81.3983530  72.0053450 127.7507720  81.6547490
  60.3356380 139.6593190  81.1418090  59.6090440 139.0398480  81.0744040
  60.3965530 140.0533800  80.2716170  63.9401480 141.8738190  77.9267500
  64.4566500 141.2625550  77.4015760  64.5898860 142.3766970  78.4178510
  67.8973990 126.5036880  79.3332990  67.1145780 126.9782380  79.6129750
  67.6036920 125.5991710  79.2246170  72.4495060 127.2059980  77.3782080
  72.8903150 127.1505080  76.5303680  72.1802650 128.1217990  77.4492260
  74.3133630 126.8375220  75.3890900  74.2522030 125.8936440  75.2421920
  75.0925660 126.9455310  75.9344360  58.6186380 142.9767580  74.3514850
  58.4508420 142.3438260  75.0496740  57.7520890 143.1826980  74.0009040
  59.2414400 126.8084360  71.8546710  59.9993760 126.9213240  71.2810740
  58.7791570 127.6453560  71.8090140  65.7828210 128.9223630  74.8449020
  64.9702720 128.5480520  74.5044900  66.2869850 128.1668710  75.1470210
  70.2853190 125.5866080  76.0832090  70.8882560 126.1586290  76.5580610
  69.5446180 126.1505520  75.8605990  73.4287790 125.9887640  71.3572370
  73.6238420 126.8871090  71.6239800  72.6417660 125.7574720  71.8505320
  61.6139550 127.3348410  70.3948680  62.1432310 126.5478210  70.2656630
  62.2467870 128.0139600  70.6284210  63.8077390 127.0723550  73.4494070
  63.1780130 126.3710860  73.6164200  63.2682530 127.8327680  73.2327230
  66.7469340 143.6862780  86.1204680  67.6736650 143.4507050  86.1640640
  66.7319770 144.5134780  85.6390710  63.9332950 126.3507530  85.8846560
  63.6517220 126.8541130  85.1207380  64.3152650 125.5529280  85.5188690
  70.5348410 125.7661110  86.4627030  70.4213860 126.0855720  87.3578550
  71.3518150 126.1673620  86.1664310  73.3146900 142.9132640  85.9445720
  74.1072220 142.4181870  85.7371680  73.6080050 143.5922780  86.5521330
  67.5724600 135.5632600  58.7071040  66.7966700 135.0833040  58.9969610
  68.2237530 134.8838250  58.5327200  61.5890430 135.8752410  59.5846800
  60.7575310 135.6201120  59.9843310  62.1971410 135.9463180  60.3204720
  71.5932030 139.9692790  57.4870170  71.1313560 139.1980030  57.8157340
  72.4057580 139.9958860  57.9922620  61.5691690 139.9092500  59.7804820
  61.8719730 139.0190240  59.6015040  62.3135280 140.4662720  59.5527070
  59.9982380 130.8354300  53.3689190  59.1099080 131.1770270  53.2669070
  60.2823570 130.6354620  52.4770020  57.9615390 133.4359950  59.2528890
  58.5331500 132.6682150  59.2532530  57.9616930 133.7348710  58.3435500
  67.8195340 142.2550800  57.1074160  67.2006780 142.7108300  56.5368600
  68.6747120 142.4102260  56.7063860  67.0133590 138.2389790  58.7141200
  66.9441870 137.2979730  58.5530330  67.7753450 138.3291200  59.2863770
  59.2040260 128.8444310  61.0397820  59.0243100 127.9470060  61.3200580
  58.8020340 129.3916180  61.7144770  68.0438760 131.0460170  58.9410130
  68.4203580 130.1732050  58.8283800  67.9458270 131.3818870  58.0500570
  62.1743770 129.4185800  54.4027570  62.2810520 130.3189530  54.7096330
  61.2636130 129.3703770  54.1122220  71.8262880 128.5410610  55.8738470
  72.6472500 128.0507180  55.9163950  71.8596960 129.1308270  56.6270310
  59.8226930 131.3404810  59.6480160  60.5037040 131.6043180  60.2667560
  59.5074980 130.5005680  59.9818170  64.0151500 132.3872170  58.7352750
  64.5229720 132.8853140  59.3757770  64.5464740 131.6107370  58.5592110
  76.1162430 130.5577360  62.4382100  75.4114600 130.9459070  61.9197210
  76.3820350 131.2527650  63.0403030  68.6858690 137.1390040  54.5006070
  68.0675960 137.6039490  53.9368790  69.1981940 137.8317520  54.9175580
  63.5490450 136.6665910  61.1789670  63.2159830 137.2934830  61.8210740
  63.7257130 137.1927790  60.3991340  72.0624360 130.4810990  58.6466010
  71.3579930 130.7695880  59.2269120  72.4236520 131.2911100  58.2865570
  61.9802930 128.7380690  61.0086620  62.3219740 129.5822740  60.7140490
  61.0418740 128.8864430  61.1251960  62.7609550 138.6346710  62.9938850
  63.3783550 139.3097790  62.7123300  61.9002670 139.0434690  62.9026350
  58.0541890 137.8246570  51.8745700  57.6769870 138.3133670  51.1430600
  58.3114960 138.4971850  52.5052230  73.6787140 140.0986120  60.9093490
  72.9950660 140.7685230  60.9010160  74.2181430 140.2966770  60.1438350
  75.1311280 129.9265780  59.0375220  74.1836190 129.9604760  59.1690650
  75.4561270 130.7404730  59.4224580  65.6630820 126.2262960  57.3331210
  65.9705800 125.6709850  56.6166710  64.7331520 126.3607420  57.1504200
  71.2145880 141.9430250  59.6238670  71.2273040 141.5392540  58.7560930
  70.6621100 142.7177540  59.5200100  70.6131320 136.8460090  60.9521280
  71.0300110 136.6320200  60.1174740  71.3371140 137.1032880  61.5229900
  68.0380660 130.5628790  51.0658490  67.0984330 130.7242750  51.1510950
  68.3563920 131.2814470  50.5194480  74.5593420 135.2447310  61.0437520
  73.7312050 135.3140400  60.5687650  75.1543900 135.8301620  60.5753350
  72.0808870 135.8532090  54.5726580  71.4621290 135.5151640  53.9252880
  72.0633320 135.2091850  55.2805770  71.5235430 132.0316630  61.9892390
  71.1106610 132.8570340  62.2432380  70.7911380 131.4461670  61.7968750
  63.6568220 134.8176530  56.8511060  63.2525220 134.1053780  56.3556960
  63.7431340 134.4729770  57.7399100  64.1249920 138.5044090  59.0150270
  63.8278210 137.8989560  58.3358050  65.0749740 138.5421400  58.9039630
  62.3696840 131.5919740  60.6310100  62.9211430 131.7015080  59.8563350
  62.8840350 131.9657340  61.3465330  72.2135530 142.0775960  62.6773370
  71.7366090 142.8848150  62.4845980  71.5297320 141.4254290  62.8299580
  70.2573570 135.0918900  51.5799330  70.6966850 134.2541330  51.4337150
  70.9701990 135.7248300  51.6663470  68.3668950 140.0314970  55.5480570
  68.8064860 140.7739300  55.1335960  68.3055840 140.2741540  56.4719530
  73.8390710 126.3461710  49.8940370  73.5263370 126.4388540  50.7939440
  74.6003180 126.9242740  49.8437800  60.3572850 133.7121510  54.3517710
  60.2370450 134.4383600  53.7398980  60.0473740 132.9424420  53.8745620
  57.9958220 136.8836650  60.1586350  58.0738640 137.0185420  59.2142070
  58.6099900 136.1752540  60.3514470  69.0584730 142.7328750  63.4759580
  69.5729400 142.6436760  64.2782010  68.2153810 143.0788450  63.7687490
  71.0339130 143.0184090  52.9043580  70.8740270 142.7287030  53.8025410
  70.8685840 142.2424220  52.3688810  63.5127510 142.7982620  54.6815200
  63.3369990 141.8818160  54.4683000  62.6583250 143.1569910  54.9213000
  70.7365260 140.5271650  51.4641580  70.0430420 140.5248940  50.8043860
  71.4788120 140.1030970  51.0335750  70.3015190 142.1534360  55.5390070
  70.7572140 141.3723740  55.8528690  70.6407710 142.8641180  56.0831250
  58.0517740 137.9250820  62.6980810  58.2148780 137.4556180  61.8800180
  58.5170190 137.4174380  63.3629650  62.8236510 127.0556580  57.7341380
  62.3804660 127.8366120  57.4025900  63.3821500 127.3786470  58.4412320
  72.1110830 131.1434050  64.4673360  71.2604420 130.8439800  64.7882430
  71.9512620 131.3876060  63.5557180  69.2060540 132.6435800  66.5672150
  69.5313950 131.8099550  66.2274380  69.9940870 133.1664320  66.7150480
  64.8612410 127.6003910  59.5930980  65.1584740 128.5066740  59.5123000
  65.4097970 127.1122690  58.9790550  62.6150730 132.1790150  55.4622630
  62.3891650 131.9627320  56.3669250  61.8343260 132.6118610  55.1168600
  68.4513360 130.8217060  56.0916560  68.8442930 131.1389260  55.2785250
  68.8130210 129.9428940  56.2061080  57.4877530 127.4117860  58.3146760
  57.1990580 127.9820720  59.0271740  58.2323290 126.9322310  58.6777990
  69.0368500 133.4122810  60.1867340  68.3049620 133.9209620  60.5357440
  68.6392840 132.5952790  59.8856120  65.4745890 130.0877010  58.5919830
  65.4781950 129.6466960  57.7424370  66.3697010 130.4094340  58.6991650
  61.3248270 129.9703500  57.5514040  60.9848320 130.4478730  58.3081090
  60.5625590 129.5168620  57.1915140  65.5366040 131.0889090  51.5826590
  65.6578860 131.0475570  52.5312410  65.1514550 131.9513240  51.4273320
  69.4994410 128.8656490  59.5990280  69.5167150 129.3165140  60.4432130
  69.2509990 127.9662130  59.8123720  64.5487540 133.3990230  50.9809890
  63.9804440 132.9508480  50.3545800  65.2576540 133.7583010  50.4475040
  72.9265160 126.2788670  65.4376660  73.2510930 125.5478330  65.9634640
  72.9621670 125.9602310  64.5357650  65.7753860 134.1478790  60.3385240
  66.1423990 133.6737360  61.0846580  65.5858920 135.0220360  60.6793580
  58.6394350 128.8922480  56.4678710  58.3541270 128.5278150  57.3057330
  58.5773210 128.1602940  55.8541850  62.0935020 137.3948420  53.2536300
  61.3197280 136.8546040  53.0935020  62.8229650 136.8755030  52.9154060
  72.8523000 136.3913780  59.0462690  73.5722120 136.8869070  58.6558800
  72.6504820 135.7131670  58.4016560  68.3132940 127.7851740  53.1892080
  67.4997550 127.2864910  53.1137390  68.1194890 128.6249990  52.7728430
  71.0281330 132.1571390  51.4854240  71.9160950 132.4688620  51.3105580
  70.9986420 131.2843640  51.0934820  67.0241920 138.3295080  52.1642410
  67.3657620 139.0737310  51.6685730  66.1954630 138.6426200  52.5267240
  68.1658530 139.2843410  64.6835490  68.1803070 138.3524370  64.4654400
  67.4583630 139.3703170  65.3225260  73.2995600 133.4683230  50.9534100
  73.2159320 133.8997450  50.1030540  74.0189790 133.9281580  51.3860920
  74.3769740 135.9250750  64.0304070  73.6517930 136.5179530  63.8333460
  74.9045200 135.9174290  63.2317440  69.9069330 137.6510920  57.5287920
  70.2593150 137.0539050  56.8689290  69.0231660 137.3255150  57.6996170
  65.9932610 138.4108610  54.9358330  66.6803740 138.9577820  55.3165920
  65.2065030 138.9549340  54.9707940  58.1325010 134.0281430  50.4275410
  59.0019860 134.3106230  50.7111330  57.6415330 134.8417300  50.3124220
  65.2959820 135.4154640  54.5483690  65.7522600 136.2259890  54.7743880
  64.9448030 135.0977780  55.3802180  67.5992430 140.9260980  61.7775990
  68.2434650 141.1320360  62.4549410  67.9621870 140.1649380  61.3246840
  61.1971600 125.7592290  55.0206210  61.0686230 125.7510190  55.9691130
  60.3733620 126.0975380  54.6697220  68.8724510 138.9293330  60.4953440
  69.5146740 138.2286490  60.6085610  69.3973860 139.7091770  60.3150330
  72.7180230 139.2141950  50.2192580  72.4917810 138.4972390  50.8117220
  72.3276430 138.9654390  49.3814330  70.6462130 139.7288230  63.6989500
  70.9818370 140.3154920  64.3767420  69.7262470 139.5980940  63.9287290
  58.4996260 143.2408810  50.9937040  58.8593900 143.8398150  50.3394310
  58.3588600 143.7868700  51.7672070  58.1965530 127.5183410  64.4812910
  57.4824050 127.7180330  65.0865520  58.6160570 126.7422980  64.8527710
  72.2996480 137.1313890  51.8806740  72.0118180 137.5926580  52.6684620
  73.0948650 136.6711660  52.1490960  58.4838120 141.5063670  65.4679440
  58.5929240 140.5658410  65.3274830  57.8318680 141.7718420  64.8193170
  64.5164880 140.6240010  51.8110710  64.5074980 141.3569700  51.1955220
  63.5963240 140.3771590  51.9037670  60.1171520 135.8454900  52.5557470
  59.5099470 136.5853800  52.5652770  60.5920870 135.9354260  51.7295670
  69.6904310 130.0105720  62.2314360  70.0585130 129.1900930  62.5593930
  68.8302510 130.0707610  62.6470010  73.0566340 128.9662660  53.0401920
  72.4279500 129.0708330  52.3260150  72.5618260 129.1859440  53.8295800
  67.5024480 140.6868250  50.4735900  67.6036460 140.4832240  49.5437880
  66.6026220 140.4326530  50.6783680  65.0250370 131.2448610  54.4559800
  64.3166520 131.7134950  54.8973410  65.3094850 130.5870620  55.0904990
  66.6506300 132.6645310  62.4552330  67.1491550 133.1391130  63.1204180
  66.7929250 131.7408830  62.6622360  69.0565800 127.9699270  55.8955590
  68.9333580 127.9885400  54.9465100  70.0050360 128.0178210  56.0153990
  66.1442590 143.2054570  55.1683570  66.3984090 143.1675960  54.2462940
  65.1955070 143.0787900  55.1611820  72.1495170 134.1246450  56.7442080
  71.2085310 134.1396680  56.9189770  72.4639240 133.3382410  57.1902380
  62.1276810 135.8066050  50.3046040  62.8940080 135.6947410  50.8671470
  62.2051500 135.1104020  49.6522810  60.8223570 133.2391120  50.9878930
  60.9027160 132.2918630  51.0996330  61.7143320 133.5698000  51.0939590
  74.1520750 141.2955300  58.4196340  74.2768170 142.1186470  58.8920150
  75.0186310 141.0846030  58.0720490  61.6238280 143.3886510  58.0913470
  62.3600760 142.8401970  58.3622040  62.0079200 144.2542520  57.9519460
  58.5083760 139.4560080  53.9654980  57.5823540 139.6981220  53.9560390
  58.9740190 140.2834340  53.8439730  64.7340590 142.5616820  49.9139040
  65.5269200 142.8505650  49.4620830  64.2144940 142.1308990  49.2351520
  70.8961560 142.4092740  65.8383870  71.8483310 142.3250760  65.7884110
  70.7489780 143.0734450  66.5117660  73.7870760 141.7886950  51.3375780
  73.5012270 141.3752090  50.5229960  73.5890310 142.7174660  51.2176300
  65.2517990 137.7820230  49.7781390  65.1468630 137.1672580  50.5042770
  65.0842210 137.2586120  48.9944400  68.4920720 136.8440260  50.3823380
  67.9430820 137.2909560  51.0266120  69.1139980 136.3389510  50.9061050
  64.1595840 135.8031180  52.2788680  64.5812260 135.6371050  53.1220070
  64.2846680 134.9931410  51.7843820  66.6723480 134.8268790  49.5265780
  67.1929140 134.1117810  49.1606930  67.3191880 135.4654660  49.8266290
  65.9816550 136.2017670  62.8196780  66.4004660 137.0450400  62.6473020
  65.0625180 136.3389710  62.5903560  68.3180450 133.9333850  64.2034620
  68.4376660 133.3374990  64.9429460  69.1774450 133.9703540  63.7835920
  70.6568350 134.4871040  62.7797130  70.1303570 135.0113660  62.1762270
  70.9999690 135.1198430  63.4106860  63.0554740 131.8764410  49.2246840
  62.8543800 131.0131770  49.5860180  62.8846790 131.7897770  48.2868440
  63.8323970 142.5070680  63.9354510  63.2945060 143.2316740  63.6163210
  64.0857930 142.0301020  63.1451850  69.9042650 130.0921010  65.6943460
  69.2158170 129.4302550  65.6293450  70.6248670 129.6459280  66.1391920
  70.5343050 126.6872640  51.7533720  70.8145340 125.8440540  52.1093140
  69.7608780 126.9195750  52.2672470  66.6886180 143.7421890  64.1941160
  66.6144880 144.6457030  64.5013530  65.7865020 143.4233790  64.1663230
  67.2371510 142.9080400  51.8167520  68.1322300 143.2465370  51.8386280
  67.2689140 142.1859810  51.1891800  60.8767670 138.2807450  50.0454520
  61.3142540 138.8237120  50.7012100  61.3615400 137.4554400  50.0550860
  58.0913470 141.0696480  57.4974780  58.4216480 140.2017540  57.2653420
  58.5204470 141.2755000  58.3279740  58.5803680 141.9367070  60.2356410
  58.1434670 142.1167870  61.0680560  59.1481360 142.6941690  60.0938130
  75.4567310 139.1801890  49.8603430  74.6260270 139.2478540  50.3310660
  75.6339140 140.0706010  49.5570290  74.9123770 135.9249370  52.3637630
  75.6742680 136.4946020  52.4697320  74.9278140 135.3576570  53.1345940
  58.4128110 134.4487300  56.5945290  57.7576950 134.1798940  55.9504990
  59.2506060 134.3391780  56.1447270  75.9183740 136.7799470  57.2079560
  76.2892570 135.9966790  56.8015530  76.5585670 137.4688570  57.0296860
  72.9017500 138.1636050  62.6209880  72.0877340 138.5933210  62.8835670
  73.3091700 138.7754460  62.0078930  74.9642940 136.2183740  49.5210150
  75.2391780 137.1262620  49.3929370  74.7753680 136.1546270  50.4572140
  71.3618550 129.2428590  50.8163780  71.7803430 129.0559570  49.9760440
  71.0554610 128.3907640  51.1266710  59.4504040 134.8339870  61.1348630
  59.8177080 134.7467270  62.0144650  58.8814860 134.0706420  61.0355490
  74.2507900 133.3024250  64.1479100  74.0193990 133.0737000  63.2477050
  74.5112450 134.2223800  64.1023990  72.6895970 128.5280680  66.9258800
  73.5666150 128.5364080  67.3092800  72.7016810 127.7911520  66.3151150
  57.6266190 131.6586230  52.5370620  56.7230270 131.9216430  52.3622280
  58.1106810 131.9297400  51.7570580  74.1359240 132.3810220  57.8146820
  74.6596720 131.8872870  57.1836990  74.7218660 132.5160580  58.5594390
  74.3148960 132.4650090  61.3366370  73.3651670 132.4313630  61.4511360
  74.4961970 133.3750200  61.1016140  60.1693400 130.7151770  50.4465000
  60.8785100 130.2934990  49.9612280  59.4533340 130.7827000  49.8148350
  59.8167560 126.7691100  49.4867650  60.5395690 127.3100040  49.8048870
  60.0892080 126.4954520  48.6109190  59.5059750 126.0197290  59.3890270
  60.1535940 125.4694670  58.9485430  59.9261590 126.2740440  60.2106080
  72.9593550 142.9154650  56.1478150  73.5552620 142.5939220  55.4712570
  73.2171700 142.4426470  56.9391420  59.2591750 126.1752960  62.1315590
  58.9106570 126.6316780  62.8973770  58.9279450 125.2810090  62.2138020
  64.5662150 140.9032150  61.8978500  64.3253510 141.1706710  61.0109020
  65.5064790 141.0737880  61.9529360  75.8266310 142.9226530  62.6989140
  75.3324590 143.3195400  61.9816270  75.2179600 142.2975740  63.0926420
  59.9312390 125.7029160  65.4066360  60.4795380 125.5217210  64.6432470
  59.9967700 124.9123270  65.9422670  60.7044150 142.2934810  63.4166560
  60.1104470 142.1619510  64.1556600  60.6967990 141.4572950  62.9508660
  71.0571150 127.7937910  63.0038310  70.7284510 126.9789670  62.6240040
  72.0053450 127.7507720  62.8804000  73.5105760 143.5649950  59.9775880
  73.0508730 144.3165760  59.6033900  72.8818220 142.8456420  59.9190680
  60.3356380 139.6593190  62.3674600  59.6090440 139.0398480  62.3000550
  60.3965530 140.0533800  61.4972680  63.9401480 141.8738190  59.1524010
  64.4566500 141.2625550  58.6272270  64.5898860 142.3766970  59.6435020
  66.6796980 142.7646680  59.9792990  66.9674790 142.5100980  59.1026000
  67.1920200 142.2124040  60.5698560  67.8973990 126.5036880  60.5589500
  67.1145780 126.9782380  60.8386260  67.6036920 125.5991710  60.4502680
  72.4495060 127.2059980  58.6038590  72.8903150 127.1505080  57.7560190
  72.1802650 128.1217990  58.6748770  74.3133630 126.8375220  56.6147410
  74.2522030 125.8936440  56.4678430  75.0925660 126.9455310  57.1600870
  58.6186380 142.9767580  55.5771360  58.4508420 142.3438260  56.2753250
  57.7520890 143.1826980  55.2265550  59.2414400 126.8084360  53.0803220
  59.9993760 126.9213240  52.5067250  58.7791570 127.6453560  53.0346650
  65.7828210 128.9223630  56.0705530  64.9702720 128.5480520  55.7301410
  66.2869850 128.1668710  56.3726720  70.2853190 125.5866080  57.3088600
  70.8882560 126.1586290  57.7837120  69.5446180 126.1505520  57.0862500
  73.4287790 125.9887640  52.5828880  73.6238420 126.8871090  52.8496310
  72.6417660 125.7574720  53.0761830  60.2249080 141.6700810  53.0221500
  59.6996700 142.0508840  52.3183460  60.1493660 142.2951580  53.7431210
  61.6139550 127.3348410  51.6205190  62.1432310 126.5478210  51.4913140
  62.2467870 128.0139600  51.8540720  63.8077390 127.0723550  54.6750580
  63.1780130 126.3710860  54.8420710  63.2682530 127.8327680  54.4583740
  74.9814400 143.2288350  54.3435440  75.1566590 142.5426090  53.6996360
  74.2835970 143.7535400  53.9512110  62.8242050 143.6183190  51.8970750
  63.5560870 143.3342470  51.3494640  63.0835720 143.3796470  52.7870130
  61.9856840 139.7347920  51.9017080  61.3565720 140.2033020  52.4502910
  62.1004670 138.8897140  52.3363270  70.5348410 125.7661110  67.6883540
  70.4213860 126.0855720  68.5835060  71.3518150 126.1673620  67.3920820
  73.3146900 142.9132640  67.1702230  74.1072220 142.4181870  66.9628190
  73.6080050 143.5922780  67.7777840  69.4406560 133.7853580  38.0518280
  69.3600610 132.8708190  37.7809990  69.0270980 134.2820650  37.3457990
  67.5724600 135.5632600  39.9327550  66.7966700 135.0833040  40.2226120
  68.2237530 134.8838250  39.7583710  61.5890430 135.8752410  40.8103310
  60.7575310 135.6201120  41.2099820  62.1971410 135.9463180  41.5461230
  71.5932030 139.9692790  38.7126680  71.1313560 139.1980030  39.0413850
  72.4057580 139.9958860  39.2179130  61.5691690 139.9092500  41.0061330
  61.8719730 139.0190240  40.8271550  62.3135280 140.4662720  40.7783580
  59.9982380 130.8354300  34.5945700  59.1099080 131.1770270  34.4925580
  60.2823570 130.6354620  33.7026530  67.8195340 142.2550800  38.3330670
  67.2006780 142.7108300  37.7625110  68.6747120 142.4102260  37.9320370
  67.0133590 138.2389790  39.9397710  66.9441870 137.2979730  39.7786840
  67.7753450 138.3291200  40.5120280  68.0438760 131.0460170  40.1666640
  68.4203580 130.1732050  40.0540310  67.9458270 131.3818870  39.2757080
  62.1743770 129.4185800  35.6284080  62.2810520 130.3189530  35.9352840
  61.2636130 129.3703770  35.3378730  64.0151500 132.3872170  39.9609260
  64.5229720 132.8853140  40.6014280  64.5464740 131.6107370  39.7848620
  76.1162430 130.5577360  43.6638610  75.4114600 130.9459070  43.1453720
  76.3820350 131.2527650  44.2659540  62.2987600 127.0270730  44.2272680
  62.3006040 127.5443120  43.4218580  61.4691910 126.5500910  44.2042610
  68.6858690 137.1390040  35.7262580  68.0675960 137.6039490  35.1625300
  69.1981940 137.8317520  36.1432090  63.5490450 136.6665910  42.4046180
  63.2159830 137.2934830  43.0467250  63.7257130 137.1927790  41.6247850
  72.0624360 130.4810990  39.8722520  71.3579930 130.7695880  40.4525630
  72.4236520 131.2911100  39.5122080  62.7609550 138.6346710  44.2195360
  63.3783550 139.3097790  43.9379810  61.9002670 139.0434690  44.1282860
  58.0541890 137.8246570  33.1002210  57.6769870 138.3133670  32.3687110
  58.3114960 138.4971850  33.7308740  73.6787140 140.0986120  42.1350000
  72.9950660 140.7685230  42.1266670  74.2181430 140.2966770  41.3694860
  75.1311280 129.9265780  40.2631730  74.1836190 129.9604760  40.3947160
  75.4561270 130.7404730  40.6481090  65.6630820 126.2262960  38.5587720
  65.9705800 125.6709850  37.8423220  64.7331520 126.3607420  38.3760710
  71.2145880 141.9430250  40.8495180  71.2273040 141.5392540  39.9817440
  70.6621100 142.7177540  40.7456610  72.5091300 138.6646470  35.9385350
  72.3987630 137.7220800  36.0634770  72.5059550 139.0262110  36.8248110
  70.6131320 136.8460090  42.1777790  71.0300110 136.6320200  41.3431250
  71.3371140 137.1032880  42.7486410  68.0511580 134.2911790  35.2947840
  67.1240860 134.2249170  35.5236310  68.2036400 135.2291920  35.1803080
  68.0380660 130.5628790  32.2915000  67.0984330 130.7242750  32.3767460
  68.3563920 131.2814470  31.7450990  74.5593420 135.2447310  42.2694030
  73.7312050 135.3140400  41.7944160  75.1543900 135.8301620  41.8009860
  72.0808870 135.8532090  35.7983090  71.4621290 135.5151640  35.1509390
  72.0633320 135.2091850  36.5062280  71.5235430 132.0316630  43.2148900
  71.1106610 132.8570340  43.4688890  70.7911380 131.4461670  43.0225260
  63.6568220 134.8176530  38.0767570  63.2525220 134.1053780  37.5813470
  63.7431340 134.4729770  38.9655610  64.1249920 138.5044090  40.2406780
  63.8278210 137.8989560  39.5614560  65.0749740 138.5421400  40.1296140
  72.2135530 142.0775960  43.9029880  71.7366090 142.8848150  43.7102490
  71.5297320 141.4254290  44.0556090  63.2168350 138.2425780  46.8914580
  62.3196880 138.4665750  47.1387980  63.2421220 138.3660720  45.9425980
  70.2573570 135.0918900  32.8055840  70.6966850 134.2541330  32.6593660
  70.9701990 135.7248300  32.8919980  62.0439570 135.1139100  45.4671950
  61.9047340 135.9861900  45.8359350  61.1620930 134.7711910  45.3219890
  68.3668950 140.0314970  36.7737080  68.8064860 140.7739300  36.3592470
  68.3055840 140.2741540  37.6976040  63.8419920 141.0560800  47.6757100
  63.8135350 141.4603750  46.8085530  63.6784890 140.1271160  47.5128700
  60.3572850 133.7121510  35.5774220  60.2370450 134.4383600  34.9655490
  60.0473740 132.9424420  35.1002130  75.7934740 141.8387900  48.9721270
  76.2694460 142.3170790  49.6510350  76.4141900 141.7705390  48.2466770
  57.9958220 136.8836650  41.3842860  58.0738640 137.0185420  40.4398580
  58.6099900 136.1752540  41.5770980  59.2405850 138.5836840  37.7949040
  58.8333930 138.7251430  36.9402640  60.1318860 138.2997000  37.5920250
  75.1967990 139.0300750  46.1321280  75.3231050 138.7912630  45.2138460
  75.2389370 138.1985290  46.6043360  69.0584730 142.7328750  44.7016090
  69.5729400 142.6436760  45.5038520  68.2153810 143.0788450  44.9944000
  71.0339130 143.0184090  34.1300090  70.8740270 142.7287030  35.0281920
  70.8685840 142.2424220  33.5945320  63.5127510 142.7982620  35.9071710
  63.3369990 141.8818160  35.6939510  62.6583250 143.1569910  36.1469510
  70.7365260 140.5271650  32.6898090  70.0430420 140.5248940  32.0300370
  71.4788120 140.1030970  32.2592260  70.3015190 142.1534360  36.7646580
  70.7572140 141.3723740  37.0785200  70.6407710 142.8641180  37.3087760
  75.0492000 131.0833210  47.0971020  74.4336270 131.5912880  46.5686480
  74.7288420 130.1831540  47.0396960  58.0517740 137.9250820  43.9237320
  58.2148780 137.4556180  43.1056690  58.5170190 137.4174380  44.5886160
  62.8236510 127.0556580  38.9597890  62.3804660 127.8366120  38.6282410
  63.3821500 127.3786470  39.6668830  67.1106320 129.9225100  44.5633210
  66.6485690 130.1308120  45.3753150  66.7084430 129.1084450  44.2603880
  72.1110830 131.1434050  45.6929870  71.2604420 130.8439800  46.0138940
  71.9512620 131.3876060  44.7813690  69.2060540 132.6435800  47.7928660
  69.5313950 131.8099550  47.4530890  69.9940870 133.1664320  47.9406990
  65.9395330 126.6767280  33.8403720  65.3149510 126.6727150  34.5657030
  65.8525450 125.8098240  33.4439690  64.8612410 127.6003910  40.8187490
  65.1584740 128.5066740  40.7379510  65.4097970 127.1122690  40.2047060
  62.6150730 132.1790150  36.6879140  62.3891650 131.9627320  37.5925760
  61.8343260 132.6118610  36.3425110  69.8448490 132.1853520  35.2869790
  69.2457380 132.9089320  35.1033410  70.3928100 132.1230300  34.5046240
  65.0549940 133.0775730  47.3539410  64.9593540 132.1370460  47.2039810
  65.8981920 133.2990800  46.9587480  68.4513360 130.8217060  37.3173070
  68.8442930 131.1389260  36.5041760  68.8130210 129.9428940  37.4317590
  57.6747760 131.3537980  30.7505990  57.5922430 132.2968740  30.8920980
  57.3230820 131.2112890  29.8718340  69.0368500 133.4122810  41.4123850
  68.3049620 133.9209620  41.7613950  68.6392840 132.5952790  41.1112630
  65.4745890 130.0877010  39.8176340  65.4781950 129.6466960  38.9680880
  66.3697010 130.4094340  39.9248160  65.5366040 131.0889090  32.8083100
  65.6578860 131.0475570  33.7568920  65.1514550 131.9513240  32.6529830
  69.4994410 128.8656490  40.8246790  69.5167150 129.3165140  41.6688640
  69.2509990 127.9662130  41.0380230  64.5487540 133.3990230  32.2066400
  63.9804440 132.9508480  31.5802310  65.2576540 133.7583010  31.6731550
  59.6256720 137.3002250  46.0833130  59.2411510 136.6595920  46.6816090
  59.9368910 138.0038370  46.6527860  65.7753860 134.1478790  41.5641750
  66.1423990 133.6737360  42.3103090  65.5858920 135.0220360  41.9050090
  63.5653230 133.1887430  43.8825960  63.2610300 134.0679410  44.1076320
  64.5199690 133.2487220  43.9183400  62.0935020 137.3948420  34.4792810
  61.3197280 136.8546040  34.3191530  62.8229650 136.8755030  34.1410570
  72.8523000 136.3913780  40.2719200  73.5722120 136.8869070  39.8815310
  72.6504820 135.7131670  39.6273070  68.3132940 127.7851740  34.4148590
  67.4997550 127.2864910  34.3393900  68.1194890 128.6249990  33.9984940
  68.2341800 136.4622840  46.1588200  68.1679110 135.5418510  45.9045790
  67.6046940 136.5598280  46.8732840  71.0281330 132.1571390  32.7110750
  71.9160950 132.4688620  32.5362090  70.9986420 131.2843640  32.3191330
  62.1372420 137.0628800  38.1171620  62.6551090 136.2597060  38.0628510
  61.6856440 137.0007940  38.9588450  67.0241920 138.3295080  33.3898920
  67.3657620 139.0737310  32.8942240  66.1954630 138.6426200  33.7523750
  59.6216960 134.0290170  45.0297320  59.2631900 134.6944020  45.6170660
  59.3271520 133.1973720  45.4009940  62.8230080 134.4874410  47.9136870
  62.5230220 134.6331590  47.0164690  63.5941320 133.9279700  47.8210260
  68.1658530 139.2843410  45.9092000  68.1803070 138.3524370  45.6910910
  67.4583630 139.3703170  46.5481770  73.2995600 133.4683230  32.1790610
  73.2159320 133.8997450  31.3287050  74.0189790 133.9281580  32.6117430
  74.3769740 135.9250750  45.2560580  73.6517930 136.5179530  45.0589970
  74.9045200 135.9174290  44.4573950  74.3282850 140.3225490  34.9072740
  73.6859010 139.6681110  35.1816460  73.9413510 140.7280580  34.1313410
  69.9069330 137.6510920  38.7544430  70.2593150 137.0539050  38.0945800
  69.0231660 137.3255150  38.9252680  65.9932610 138.4108610  36.1614840
  66.6803740 138.9577820  36.5422430  65.2065030 138.9549340  36.1964450
  58.1325010 134.0281430  31.6531920  59.0019860 134.3106230  31.9367840
  57.6415330 134.8417300  31.5380730  65.2959820 135.4154640  35.7740200
  65.7522600 136.2259890  36.0000390  64.9448030 135.0977780  36.6058690
  67.5992430 140.9260980  43.0032500  68.2434650 141.1320360  43.6805920
  67.9621870 140.1649380  42.5503350  61.1971600 125.7592290  36.2462720
  61.0686230 125.7510190  37.1947640  60.3733620 126.0975380  35.8953730
  68.8724510 138.9293330  41.7209950  69.5146740 138.2286490  41.8342120
  69.3973860 139.7091770  41.5406840  72.7180230 139.2141950  31.4449090
  72.4917810 138.4972390  32.0373730  72.3276430 138.9654390  30.6070840
  70.6462130 139.7288230  44.9246010  70.9818370 140.3154920  45.6023930
  69.7262470 139.5980940  45.1543800  58.4996260 143.2408810  32.2193550
  58.8593900 143.8398150  31.5650820  58.3588600 143.7868700  32.9928580
  72.2996480 137.1313890  33.1063250  72.0118180 137.5926580  33.8941130
  73.0948650 136.6711660  33.3747470  58.4838120 141.5063670  46.6935950
  58.5929240 140.5658410  46.5531340  57.8318680 141.7718420  46.0449680
  66.4750710 139.7779560  48.0934070  66.1547580 139.0588800  48.6379760
  65.8009070 140.4534630  48.1670130  64.5164880 140.6240010  33.0367220
  64.5074980 141.3569700  32.4211730  63.5963240 140.3771590  33.1294180
  60.1171520 135.8454900  33.7813980  59.5099470 136.5853800  33.7909280
  60.5920870 135.9354260  32.9552180  69.6904310 130.0105720  43.4570870
  70.0585130 129.1900930  43.7850440  68.8302510 130.0707610  43.8726520
  67.5024480 140.6868250  31.6992410  67.6036460 140.4832240  30.7694390
  66.6026220 140.4326530  31.9040190  65.0250370 131.2448610  35.6816310
  64.3166520 131.7134950  36.1229920  65.3094850 130.5870620  36.3161500
  66.6506300 132.6645310  43.6808840  67.1491550 133.1391130  44.3460690
  66.7929250 131.7408830  43.8878870  69.0565800 127.9699270  37.1212100
  68.9333580 127.9885400  36.1721610  70.0050360 128.0178210  37.2410500
  66.1442590 143.2054570  36.3940080  66.3984090 143.1675960  35.4719450
  65.1955070 143.0787900  36.3868330  63.2285390 129.5533690  33.0567020
  64.0775920 129.9903840  32.9907210  62.8616660 129.8653950  33.8839080
  73.8573160 128.8813270  44.5237230  73.3546760 129.6218670  44.8631040
  74.6729820 129.2697270  44.2074020  72.1495170 134.1246450  37.9698590
  71.2085310 134.1396680  38.1446280  72.4639240 133.3382410  38.4158890
  62.1276810 135.8066050  31.5302550  62.8940080 135.6947410  32.0927980
  62.2051500 135.1104020  30.8779320  60.8223570 133.2391120  32.2135440
  60.9027160 132.2918630  32.3252840  61.7143320 133.5698000  32.3196100
  74.1520750 141.2955300  39.6452850  74.2768170 142.1186470  40.1176660
  75.0186310 141.0846030  39.2977000  61.6238280 143.3886510  39.3169980
  62.3600760 142.8401970  39.5878550  62.0079200 144.2542520  39.1775970
  58.5083760 139.4560080  35.1911490  57.5823540 139.6981220  35.1816900
  58.9740190 140.2834340  35.0696240  60.6296560 142.5732580  48.5055560
  61.4309290 142.8944630  48.9190960  60.1148380 142.2128160  49.2275470
  64.7340590 142.5616820  31.1395550  65.5269200 142.8505650  30.6877340
  64.2144940 142.1308990  30.4608030  69.4661190 138.6812450  48.4530970
  68.8599350 138.7044050  47.7126720  69.1615300 137.9495490  48.9898220
  70.8961560 142.4092740  47.0640380  71.8483310 142.3250760  47.0140620
  70.7489780 143.0734450  47.7374170  73.7870760 141.7886950  32.5632290
  73.5012270 141.3752090  31.7486470  73.5890310 142.7174660  32.4432810
  58.3494370 135.0606040  47.4491610  58.8533390 134.4813320  48.0207840
  57.6101790 135.3446270  47.9867980  65.2517990 137.7820230  31.0037900
  65.1468630 137.1672580  31.7299280  65.0842210 137.2586120  30.2200910
  65.4032310 136.4677030  46.9827130  64.6377980 137.0362030  46.8981800
  65.5848270 136.1753240  46.0895360  68.4920720 136.8440260  31.6079890
  67.9430820 137.2909560  32.2522630  69.1139980 136.3389510  32.1317560
  72.5455660 138.1982360  47.5402150  73.2865130 138.5358120  47.0369610
  71.7828340 138.3674420  46.9871920  60.3817450 133.2035630  48.3441680
  60.4222790 132.9049500  49.2526910  61.2362950 133.6043240  48.1849200
  64.1595840 135.8031180  33.5045190  64.5812260 135.6371050  34.3476580
  64.2846680 134.9931410  33.0100330  62.3223260 131.7827730  46.3116170
  61.7919720 131.2918680  45.6839510  62.9911330 132.2111930  45.7774100
  66.6723480 134.8268790  30.7522290  67.1929140 134.1117810  30.3863440
  67.3191880 135.4654660  31.0522800  71.2201320 136.2497190  46.0757360
  71.6342340 136.4042270  46.9247780  70.2852320 136.3752410  46.2383140
  71.6923490 133.5893350  48.0796510  72.2744260 132.8345670  47.9916990
  71.8685260 134.1200790  47.3027990  65.5757000 127.3063340  43.4240850
  65.1274300 127.3287600  42.5786400  64.9422200 126.9082360  44.0211150
  65.9816550 136.2017670  44.0453290  66.4004660 137.0450400  43.8729530
  65.0625180 136.3389710  43.8160070  68.3180450 133.9333850  45.4291130
  68.4376660 133.3374990  46.1685970  69.1774450 133.9703540  45.0092430
  70.6568350 134.4871040  44.0053640  70.1303570 135.0113660  43.4018780
  70.9999690 135.1198430  44.6363370  63.0554740 131.8764410  30.4503350
  62.8543800 131.0131770  30.8116690  62.8846790 131.7897770  29.5124950
  63.8323970 142.5070680  45.1611020  63.2945060 143.2316740  44.8419720
  64.0857930 142.0301020  44.3708360  69.9042650 130.0921010  46.9199970
  69.2158170 129.4302550  46.8549960  70.6248670 129.6459280  47.3648430
  61.8537540 128.9765030  30.4381230  62.1563440 128.9832460  29.5300380
  62.5932130 128.6262890  30.9348890  66.6886180 143.7421890  45.4197670
  66.6144880 144.6457030  45.7270040  65.7865020 143.4233790  45.3919740
  65.0722470 127.9199650  31.4237430  64.7244470 127.2423640  30.8439880
  65.2735240 127.4589160  32.2380820  67.2371510 142.9080400  33.0424030
  68.1322300 143.2465370  33.0642790  67.2689140 142.1859810  32.4148310
  60.8767670 138.2807450  31.2711030  61.3142540 138.8237120  31.9268610
  61.3615400 137.4554400  31.2807370  58.0913470 141.0696480  38.7231290
  58.4216480 140.2017540  38.4909930  58.5204470 141.2755000  39.5536250
  62.6875390 139.4005490  36.3833260  62.3870930 139.2770460  37.2837170
  62.5812880 138.5414080  35.9748990  58.5803680 141.9367070  41.4612920
  58.1434670 142.1167870  42.2937070  59.1481360 142.6941690  41.3194640
  74.2165860 141.4384070  45.7490230  73.6167850 141.4976630  45.0054150
  74.3459760 140.4989050  45.8787080  75.4567310 139.1801890  31.0859940
  74.6260270 139.2478540  31.5567170  75.6339140 140.0706010  30.7826800
  74.9123770 135.9249370  33.5894140  75.6742680 136.4946020  33.6953830
  74.9278140 135.3576570  34.3602450  58.4128110 134.4487300  37.8201800
  57.7576950 134.1798940  37.1761500  59.2506060 134.3391780  37.3703780
  75.9183740 136.7799470  38.4336070  76.2892570 135.9966790  38.0272040
  76.5585670 137.4688570  38.2553370  72.9017500 138.1636050  43.8466390
  72.0877340 138.5933210  44.1092180  73.3091700 138.7754460  43.2335440
  74.9642940 136.2183740  30.7466660  75.2391780 137.1262620  30.6185880
  74.7753680 136.1546270  31.6828650  74.8608280 134.1552730  35.7396090
  74.4851880 133.3880660  35.3077380  74.1311400 134.5375430  36.2271020
  59.4504040 134.8339870  42.3605140  59.8177080 134.7467270  43.2401160
  58.8814860 134.0706420  42.2612000  74.2507900 133.3024250  45.3735610
  74.0193990 133.0737000  44.4733560  74.5112450 134.2223800  45.3280500
  59.0020040 131.7448960  46.2663560  58.1076090 131.7115720  46.6057270
  59.5417590 131.9435750  47.0314810  72.6895970 128.5280680  48.1515310
  73.5666150 128.5364080  48.5349310  72.7016810 127.7911520  47.5407660
  57.6266190 131.6586230  33.7627130  56.7230270 131.9216430  33.5878790
  58.1106810 131.9297400  32.9827090  74.1359240 132.3810220  39.0403330
  74.6596720 131.8872870  38.4093500  74.7218660 132.5160580  39.7850900
  74.3148960 132.4650090  42.5622880  73.3651670 132.4313630  42.6767870
  74.4961970 133.3750200  42.3272650  60.1693400 130.7151770  31.6721510
  60.8785100 130.2934990  31.1868790  59.4533340 130.7827000  31.0404860
  59.8167560 126.7691100  30.7124160  60.5395690 127.3100040  31.0305380
  60.0892080 126.4954520  29.8365700  75.0546370 130.2744520  37.5133420
  74.9445650 130.1200560  38.4515690  75.8153960 129.7465460  37.2708830
  73.4012090 126.2138650  43.9716420  74.0384310 126.8272790  44.3375610
  73.5486980 126.2499310  43.0265650  75.9436640 128.1052440  30.7539560
  76.8685950 127.9733620  30.5457850  75.9212430 128.1845260  31.7076010
  72.9593550 142.9154650  37.3734660  73.5552620 142.5939220  36.6969080
  73.2171700 142.4426470  38.1647930  60.8656120 139.3472560  47.5225290
  60.8225750 138.9765470  48.4039750  60.9967130 140.2850130  47.6627110
  64.5662150 140.9032150  43.1235010  64.3253510 141.1706710  42.2365530
  65.5064790 141.0737880  43.1785870  75.8266310 142.9226530  43.9245650
  75.3324590 143.3195400  43.2072780  75.2179600 142.2975740  44.3182930
  59.9312390 125.7029160  46.6322870  60.4795380 125.5217210  45.8688980
  59.9967700 124.9123270  47.1679180  60.7044150 142.2934810  44.6423070
  60.1104470 142.1619510  45.3813110  60.6967990 141.4572950  44.1765170
  70.1499170 125.5867040  42.8453100  69.2759010 125.9202150  42.6426030
  70.0409920 125.1140220  43.6704970  71.0571150 127.7937910  44.2294820
  70.7284510 126.9789670  43.8496550  72.0053450 127.7507720  44.1060510
  73.5105760 143.5649950  41.2032390  73.0508730 144.3165760  40.8290410
  72.8818220 142.8456420  41.1447190  60.3356380 139.6593190  43.5931110
  59.6090440 139.0398480  43.5257060  60.3965530 140.0533800  42.7229190
  63.9401480 141.8738190  40.3780520  64.4566500 141.2625550  39.8528780
  64.5898860 142.3766970  40.8691530  66.6796980 142.7646680  41.2049500
  66.9674790 142.5100980  40.3282510  67.1920200 142.2124040  41.7955070
  67.8973990 126.5036880  41.7846010  67.1145780 126.9782380  42.0642770
  67.6036920 125.5991710  41.6759190  72.4495060 127.2059980  39.8295100
  72.8903150 127.1505080  38.9816700  72.1802650 128.1217990  39.9005280
  58.6186380 142.9767580  36.8027870  58.4508420 142.3438260  37.5009760
  57.7520890 143.1826980  36.4522060  59.2414400 126.8084360  34.3059730
  59.9993760 126.9213240  33.7323760  58.7791570 127.6453560  34.2603160
  65.7828210 128.9223630  37.2962040  64.9702720 128.5480520  36.9557920
  66.2869850 128.1668710  37.5983230  70.2853190 125.5866080  38.5345110
  70.8882560 126.1586290  39.0093630  69.5446180 126.1505520  38.3119010
  60.2249080 141.6700810  34.2478010  59.6996700 142.0508840  33.5439970
  60.1493660 142.2951580  34.9687720  61.6139550 127.3348410  32.8461700
  62.1432310 126.5478210  32.7169650  62.2467870 128.0139600  33.0797230
  63.8077390 127.0723550  35.9007090  63.1780130 126.3710860  36.0677220
  63.2682530 127.8327680  35.6840250  66.7469340 143.6862780  48.5717700
  67.6736650 143.4507050  48.6153660  66.7319770 144.5134780  48.0903730
  74.9814400 143.2288350  35.5691950  75.1566590 142.5426090  34.9252870
  74.2835970 143.7535400  35.1768620  62.8242050 143.6183190  33.1227260
  63.5560870 143.3342470  32.5751150  63.0835720 143.3796470  34.0126640
  61.9856840 139.7347920  33.1273590  61.3565720 140.2033020  33.6759420
  62.1004670 138.8897140  33.5619780  73.3146900 142.9132640  48.3958740
  74.1072220 142.4181870  48.1884700  73.6080050 143.5922780  49.0034350
  69.4406560 133.7853580  19.2774790  69.3600610 132.8708190  19.0066500
  69.0270980 134.2820650  18.5714500  67.5724600 135.5632600  21.1584060
  66.7966700 135.0833040  21.4482630  68.2237530 134.8838250  20.9840220
  61.5890430 135.8752410  22.0359820  60.7575310 135.6201120  22.4356330
  62.1971410 135.9463180  22.7717740  71.5932030 139.9692790  19.9383190
  71.1313560 139.1980030  20.2670360  72.4057580 139.9958860  20.4435640
  61.5691690 139.9092500  22.2317840  61.8719730 139.0190240  22.0528060
  62.3135280 140.4662720  22.0040090  59.9982380 130.8354300  15.8202210
  59.1099080 131.1770270  15.7182090  60.2823570 130.6354620  14.9283040
  57.9615390 133.4359950  21.7041910  58.5331500 132.6682150  21.7045550
  57.9616930 133.7348710  20.7948520  67.8195340 142.2550800  19.5587180
  67.2006780 142.7108300  18.9881620  68.6747120 142.4102260  19.1576880
  67.0133590 138.2389790  21.1654220  66.9441870 137.2979730  21.0043350
  67.7753450 138.3291200  21.7376790  59.2040260 128.8444310  23.4910840
  59.0243100 127.9470060  23.7713600  58.8020340 129.3916180  24.1657790
  68.0438760 131.0460170  21.3923150  68.4203580 130.1732050  21.2796820
  67.9458270 131.3818870  20.5013590  62.1743770 129.4185800  16.8540590
  62.2810520 130.3189530  17.1609350  61.2636130 129.3703770  16.5635240
  71.8262880 128.5410610  18.3251490  72.6472500 128.0507180  18.3676970
  71.8596960 129.1308270  19.0783330  59.8226930 131.3404810  22.0993180
  60.5037040 131.6043180  22.7180580  59.5074980 130.5005680  22.4331190
  64.0151500 132.3872170  21.1865770  64.5229720 132.8853140  21.8270790
  64.5464740 131.6107370  21.0105130  76.1162430 130.5577360  24.8895120
  75.4114600 130.9459070  24.3710230  76.3820350 131.2527650  25.4916050
  62.2987600 127.0270730  25.4529190  62.3006040 127.5443120  24.6475090
  61.4691910 126.5500910  25.4299120  68.6858690 137.1390040  16.9519090
  68.0675960 137.6039490  16.3881810  69.1981940 137.8317520  17.3688600
  63.5490450 136.6665910  23.6302690  63.2159830 137.2934830  24.2723760
  63.7257130 137.1927790  22.8504360  72.0624360 130.4810990  21.0979030
  71.3579930 130.7695880  21.6782140  72.4236520 131.2911100  20.7378590
  61.9802930 128.7380690  23.4599640  62.3219740 129.5822740  23.1653510
  61.0418740 128.8864430  23.5764980  62.7609550 138.6346710  25.4451870
  63.3783550 139.3097790  25.1636320  61.9002670 139.0434690  25.3539370
  58.0541890 137.8246570  14.3258720  57.6769870 138.3133670  13.5943620
  58.3114960 138.4971850  14.9565250  73.6787140 140.0986120  23.3606510
  72.9950660 140.7685230  23.3523180  74.2181430 140.2966770  22.5951370
  75.1311280 129.9265780  21.4888240  74.1836190 129.9604760  21.6203670
  75.4561270 130.7404730  21.8737600  65.6630820 126.2262960  19.7844230
  65.9705800 125.6709850  19.0679730  64.7331520 126.3607420  19.6017220
  71.2145880 141.9430250  22.0751690  71.2273040 141.5392540  21.2073950
  70.6621100 142.7177540  21.9713120  72.5091300 138.6646470  17.1641860
  72.3987630 137.7220800  17.2891280  72.5059550 139.0262110  18.0504620
  70.6131320 136.8460090  23.4034300  71.0300110 136.6320200  22.5687760
  71.3371140 137.1032880  23.9742920  68.0511580 134.2911790  16.5204350
  67.1240860 134.2249170  16.7492820  68.2036400 135.2291920  16.4059590
  68.0380660 130.5628790  13.5171510  67.0984330 130.7242750  13.6023970
  68.3563920 131.2814470  12.9707500  74.5593420 135.2447310  23.4950540
  73.7312050 135.3140400  23.0200670  75.1543900 135.8301620  23.0266370
  72.0808870 135.8532090  17.0239600  71.4621290 135.5151640  16.3765900
  72.0633320 135.2091850  17.7318790  71.5235430 132.0316630  24.4405410
  71.1106610 132.8570340  24.6945400  70.7911380 131.4461670  24.2481770
  63.6568220 134.8176530  19.3024080  63.2525220 134.1053780  18.8069980
  63.7431340 134.4729770  20.1912120  64.1249920 138.5044090  21.4663290
  63.8278210 137.8989560  20.7871070  65.0749740 138.5421400  21.3552650
  62.3696840 131.5919740  23.0823120  62.9211430 131.7015080  22.3076370
  62.8840350 131.9657340  23.7978350  72.2135530 142.0775960  25.1286390
  71.7366090 142.8848150  24.9359000  71.5297320 141.4254290  25.2812600
  63.2168350 138.2425780  28.1171090  62.3196880 138.4665750  28.3644490
  63.2421220 138.3660720  27.1682490  70.2573570 135.0918900  14.0312350
  70.6966850 134.2541330  13.8850170  70.9701990 135.7248300  14.1176490
  62.0439570 135.1139100  26.6928460  61.9047340 135.9861900  27.0615860
  61.1620930 134.7711910  26.5476400  68.3668950 140.0314970  17.9993590
  68.8064860 140.7739300  17.5848980  68.3055840 140.2741540  18.9232550
  63.8419920 141.0560800  28.9013610  63.8135350 141.4603750  28.0342040
  63.6784890 140.1271160  28.7385210  73.8390710 126.3461710  12.3453390
  73.5263370 126.4388540  13.2452460  74.6003180 126.9242740  12.2950820
  60.3572850 133.7121510  16.8030730  60.2370450 134.4383600  16.1912000
  60.0473740 132.9424420  16.3258640  75.7934740 141.8387900  30.1977780
  76.2694460 142.3170790  30.8766860  76.4141900 141.7705390  29.4723280
  57.9958220 136.8836650  22.6099370  58.0738640 137.0185420  21.6655090
  58.6099900 136.1752540  22.8027490  59.2405850 138.5836840  19.0205550
  58.8333930 138.7251430  18.1659150  60.1318860 138.2997000  18.8176760
  75.1967990 139.0300750  27.3577790  75.3231050 138.7912630  26.4394970
  75.2389370 138.1985290  27.8299870  69.0584730 142.7328750  25.9272600
  69.5729400 142.6436760  26.7295030  68.2153810 143.0788450  26.2200510
  71.0339130 143.0184090  15.3556600  70.8740270 142.7287030  16.2538430
  70.8685840 142.2424220  14.8201830  63.5127510 142.7982620  17.1328220
  63.3369990 141.8818160  16.9196020  62.6583250 143.1569910  17.3726020
  70.7365260 140.5271650  13.9154600  70.0430420 140.5248940  13.2556880
  71.4788120 140.1030970  13.4848770  70.3015190 142.1534360  17.9903090
  70.7572140 141.3723740  18.3041710  70.6407710 142.8641180  18.5344270
  75.0492000 131.0833210  28.3227530  74.4336270 131.5912880  27.7942990
  74.7288420 130.1831540  28.2653470  58.0517740 137.9250820  25.1493830
  58.2148780 137.4556180  24.3313200  58.5170190 137.4174380  25.8142670
  62.8236510 127.0556580  20.1854400  62.3804660 127.8366120  19.8538920
  63.3821500 127.3786470  20.8925340  67.1106320 129.9225100  25.7889720
  66.6485690 130.1308120  26.6009660  66.7084430 129.1084450  25.4860390
  72.1110830 131.1434050  26.9186380  71.2604420 130.8439800  27.2395450
  71.9512620 131.3876060  26.0070200  69.2060540 132.6435800  29.0185170
  69.5313950 131.8099550  28.6787400  69.9940870 133.1664320  29.1663500
  65.9395330 126.6767280  15.0660230  65.3149510 126.6727150  15.7913540
  65.8525450 125.8098240  14.6696200  64.8612410 127.6003910  22.0444000
  65.1584740 128.5066740  21.9636020  65.4097970 127.1122690  21.4303570
  62.6150730 132.1790150  17.9135650  62.3891650 131.9627320  18.8182270
  61.8343260 132.6118610  17.5681620  69.8448490 132.1853520  16.5126300
  69.2457380 132.9089320  16.3289920  70.3928100 132.1230300  15.7302750
  65.0549940 133.0775730  28.5795920  64.9593540 132.1370460  28.4296320
  65.8981920 133.2990800  28.1843990  68.4513360 130.8217060  18.5429580
  68.8442930 131.1389260  17.7298270  68.8130210 129.9428940  18.6574100
  60.1860480 129.4889400  26.7329700  59.7923870 130.3364610  26.9402480
  59.4978880 128.8515770  26.9238340  66.7605530 129.5724370  29.8026440
  66.0703850 129.3796570  30.4372530  67.5037830 129.8559010  30.3350740
  57.4877530 127.4117860  20.7659780  57.1990580 127.9820720  21.4784760
  58.2323290 126.9322310  21.1291010  57.6747760 131.3537980  11.9762500
  57.5922430 132.2968740  12.1177490  57.3230820 131.2112890  11.0974850
  69.0368500 133.4122810  22.6380360  68.3049620 133.9209620  22.9870460
  68.6392840 132.5952790  22.3369140  65.4745890 130.0877010  21.0432850
  65.4781950 129.6466960  20.1937390  66.3697010 130.4094340  21.1504670
  61.3248270 129.9703500  20.0027060  60.9848320 130.4478730  20.7594110
  60.5625590 129.5168620  19.6428160  65.5366040 131.0889090  14.0339610
  65.6578860 131.0475570  14.9825430  65.1514550 131.9513240  13.8786340
  69.4994410 128.8656490  22.0503300  69.5167150 129.3165140  22.8945150
  69.2509990 127.9662130  22.2636740  64.5487540 133.3990230  13.4322910
  63.9804440 132.9508480  12.8058820  65.2576540 133.7583010  12.8988060
  72.9265160 126.2788670  27.8889680  73.2510930 125.5478330  28.4147660
  72.9621670 125.9602310  26.9870670  59.6256720 137.3002250  27.3089640
  59.2411510 136.6595920  27.9072600  59.9368910 138.0038370  27.8784370
  65.7753860 134.1478790  22.7898260  66.1423990 133.6737360  23.5359600
  65.5858920 135.0220360  23.1306600  58.6394350 128.8922480  18.9191730
  58.3541270 128.5278150  19.7570350  58.5773210 128.1602940  18.3054870
  63.5653230 133.1887430  25.1082470  63.2610300 134.0679410  25.3332830
  64.5199690 133.2487220  25.1439910  62.0935020 137.3948420  15.7049320
  61.3197280 136.8546040  15.5448040  62.8229650 136.8755030  15.3667080
  72.8523000 136.3913780  21.4975710  73.5722120 136.8869070  21.1071820
  72.6504820 135.7131670  20.8529580  68.3132940 127.7851740  15.6405100
  67.4997550 127.2864910  15.5650410  68.1194890 128.6249990  15.2241450
  68.2341800 136.4622840  27.3844710  68.1679110 135.5418510  27.1302300
  67.6046940 136.5598280  28.0989350  71.0281330 132.1571390  13.9367260
  71.9160950 132.4688620  13.7618600  70.9986420 131.2843640  13.5447840
  62.1372420 137.0628800  19.3428130  62.6551090 136.2597060  19.2885020
  61.6856440 137.0007940  20.1844960  67.0241920 138.3295080  14.6155430
  67.3657620 139.0737310  14.1198750  66.1954630 138.6426200  14.9780260
  59.6216960 134.0290170  26.2553830  59.2631900 134.6944020  26.8427170
  59.3271520 133.1973720  26.6266450  62.8230080 134.4874410  29.1393380
  62.5230220 134.6331590  28.2421200  63.5941320 133.9279700  29.0466770
  68.1658530 139.2843410  27.1348510  68.1803070 138.3524370  26.9167420
  67.4583630 139.3703170  27.7738280  73.2995600 133.4683230  13.4047120
  73.2159320 133.8997450  12.5543560  74.0189790 133.9281580  13.8373940
  74.3769740 135.9250750  26.4817090  73.6517930 136.5179530  26.2846480
  74.9045200 135.9174290  25.6830460  74.3282850 140.3225490  16.1329250
  73.6859010 139.6681110  16.4072970  73.9413510 140.7280580  15.3569920
  69.9069330 137.6510920  19.9800940  70.2593150 137.0539050  19.3202310
  69.0231660 137.3255150  20.1509190  65.9932610 138.4108610  17.3871350
  66.6803740 138.9577820  17.7678940  65.2065030 138.9549340  17.4220960
  58.1325010 134.0281430  12.8788430  59.0019860 134.3106230  13.1624350
  57.6415330 134.8417300  12.7637240  65.2959820 135.4154640  16.9996710
  65.7522600 136.2259890  17.2256900  64.9448030 135.0977780  17.8315200
  67.5992430 140.9260980  24.2289010  68.2434650 141.1320360  24.9062430
  67.9621870 140.1649380  23.7759860  61.1971600 125.7592290  17.4719230
  61.0686230 125.7510190  18.4204150  60.3733620 126.0975380  17.1210240
  68.8724510 138.9293330  22.9466460  69.5146740 138.2286490  23.0598630
  69.3973860 139.7091770  22.7663350  72.7180230 139.2141950  12.6705600
  72.4917810 138.4972390  13.2630240  72.3276430 138.9654390  11.8327350
  70.6462130 139.7288230  26.1502520  70.9818370 140.3154920  26.8280440
  69.7262470 139.5980940  26.3800310  58.4996260 143.2408810  13.4450060
  58.8593900 143.8398150  12.7907330  58.3588600 143.7868700  14.2185090
  58.1965530 127.5183410  26.9325930  57.4824050 127.7180330  27.5378540
  58.6160570 126.7422980  27.3040730  72.2996480 137.1313890  14.3319760
  72.0118180 137.5926580  15.1197640  73.0948650 136.6711660  14.6003980
  58.4838120 141.5063670  27.9192460  58.5929240 140.5658410  27.7787850
  57.8318680 141.7718420  27.2706190  66.4750710 139.7779560  29.3190580
  66.1547580 139.0588800  29.8636270  65.8009070 140.4534630  29.3926640
  64.5164880 140.6240010  14.2623730  64.5074980 141.3569700  13.6468240
  63.5963240 140.3771590  14.3550690  60.1171520 135.8454900  15.0070490
  59.5099470 136.5853800  15.0165790  60.5920870 135.9354260  14.1808690
  69.6904310 130.0105720  24.6827380  70.0585130 129.1900930  25.0106950
  68.8302510 130.0707610  25.0983030  73.0566340 128.9662660  15.4914940
  72.4279500 129.0708330  14.7773170  72.5618260 129.1859440  16.2808820
  67.5024480 140.6868250  12.9248920  67.6036460 140.4832240  11.9950900
  66.6026220 140.4326530  13.1296700  65.0250370 131.2448610  16.9072820
  64.3166520 131.7134950  17.3486430  65.3094850 130.5870620  17.5418010
  66.6506300 132.6645310  24.9065350  67.1491550 133.1391130  25.5717200
  66.7929250 131.7408830  25.1135380  69.0565800 127.9699270  18.3468610
  68.9333580 127.9885400  17.3978120  70.0050360 128.0178210  18.4667010
  66.1442590 143.2054570  17.6196590  66.3984090 143.1675960  16.6975960
  65.1955070 143.0787900  17.6124840  63.2285390 129.5533690  14.2823530
  64.0775920 129.9903840  14.2163720  62.8616660 129.8653950  15.1095590
  73.8573160 128.8813270  25.7493740  73.3546760 129.6218670  26.0887550
  74.6729820 129.2697270  25.4330530  72.1495170 134.1246450  19.1955100
  71.2085310 134.1396680  19.3702790  72.4639240 133.3382410  19.6415400
  62.1276810 135.8066050  12.7559060  62.8940080 135.6947410  13.3184490
  62.2051500 135.1104020  12.1035830  60.8223570 133.2391120  13.4391950
  60.9027160 132.2918630  13.5509350  61.7143320 133.5698000  13.5452610
  74.1520750 141.2955300  20.8709360  74.2768170 142.1186470  21.3433170
  75.0186310 141.0846030  20.5233510  61.6238280 143.3886510  20.5426490
  62.3600760 142.8401970  20.8135060  62.0079200 144.2542520  20.4032480
  58.5083760 139.4560080  16.4168000  57.5823540 139.6981220  16.4073410
  58.9740190 140.2834340  16.2952750  60.6296560 142.5732580  29.7312070
  61.4309290 142.8944630  30.1447470  60.1148380 142.2128160  30.4531980
  64.7340590 142.5616820  12.3652060  65.5269200 142.8505650  11.9133850
  64.2144940 142.1308990  11.6864540  69.4661190 138.6812450  29.6787480
  68.8599350 138.7044050  28.9383230  69.1615300 137.9495490  30.2154730
  70.8961560 142.4092740  28.2896890  71.8483310 142.3250760  28.2397130
  70.7489780 143.0734450  28.9630680  73.7870760 141.7886950  13.7888800
  73.5012270 141.3752090  12.9742980  73.5890310 142.7174660  13.6689320
  58.3494370 135.0606040  28.6748120  58.8533390 134.4813320  29.2464350
  57.6101790 135.3446270  29.2124490  65.2517990 137.7820230  12.2294410
  65.1468630 137.1672580  12.9555790  65.0842210 137.2586120  11.4457420
  65.4032310 136.4677030  28.2083640  64.6377980 137.0362030  28.1238310
  65.5848270 136.1753240  27.3151870  68.4920720 136.8440260  12.8336400
  67.9430820 137.2909560  13.4779140  69.1139980 136.3389510  13.3574070
  72.5455660 138.1982360  28.7658660  73.2865130 138.5358120  28.2626120
  71.7828340 138.3674420  28.2128430  60.3817450 133.2035630  29.5698190
  60.4222790 132.9049500  30.4783420  61.2362950 133.6043240  29.4105710
  64.1595840 135.8031180  14.7301700  64.5812260 135.6371050  15.5733090
  64.2846680 134.9931410  14.2356840  62.3223260 131.7827730  27.5372680
  61.7919720 131.2918680  26.9096020  62.9911330 132.2111930  27.0030610
  66.6723480 134.8268790  11.9778800  67.1929140 134.1117810  11.6119950
  67.3191880 135.4654660  12.2779310  71.2201320 136.2497190  27.3013870
  71.6342340 136.4042270  28.1504290  70.2852320 136.3752410  27.4639650
  71.6923490 133.5893350  29.3053020  72.2744260 132.8345670  29.2173500
  71.8685260 134.1200790  28.5284500  62.8095560 128.7490100  27.6169970
  62.7152430 128.1310850  26.8920840  62.2292950 129.4756390  27.3899880
  65.5757000 127.3063340  24.6497360  65.1274300 127.3287600  23.8042910
  64.9422200 126.9082360  25.2467660  65.9816550 136.2017670  25.2709800
  66.4004660 137.0450400  25.0986040  65.0625180 136.3389710  25.0416580
  68.3180450 133.9333850  26.6547640  68.4376660 133.3374990  27.3942480
  69.1774450 133.9703540  26.2348940  70.6568350 134.4871040  25.2310150
  70.1303570 135.0113660  24.6275290  70.9999690 135.1198430  25.8619880
  63.0554740 131.8764410  11.6759860  62.8543800 131.0131770  12.0373200
  62.8846790 131.7897770  10.7381460  63.8323970 142.5070680  26.3867530
  63.2945060 143.2316740  26.0676230  64.0857930 142.0301020  25.5964870
  65.0849220 130.4755200  27.9123460  65.6748910 130.1671050  28.6001280
  64.2669460 130.0034950  28.0683360  69.9042650 130.0921010  28.1456480
  69.2158170 129.4302550  28.0806470  70.6248670 129.6459280  28.5904940
  70.5343050 126.6872640  14.2046740  70.8145340 125.8440540  14.5606160
  69.7608780 126.9195750  14.7185490  61.8537540 128.9765030  11.6637740
  62.1563440 128.9832460  10.7556890  62.5932130 128.6262890  12.1605400
  66.6886180 143.7421890  26.6454180  66.6144880 144.6457030  26.9526550
  65.7865020 143.4233790  26.6176250  65.0722470 127.9199650  12.6493940
  64.7244470 127.2423640  12.0696390  65.2735240 127.4589160  13.4637330
  67.2371510 142.9080400  14.2680540  68.1322300 143.2465370  14.2899300
  67.2689140 142.1859810  13.6404820  60.8767670 138.2807450  12.4967540
  61.3142540 138.8237120  13.1525120  61.3615400 137.4554400  12.5063880
  58.0913470 141.0696480  19.9487800  58.4216480 140.2017540  19.7166440
  58.5204470 141.2755000  20.7792760  62.6875390 139.4005490  17.6089770
  62.3870930 139.2770460  18.5093680  62.5812880 138.5414080  17.2005500
  58.5803680 141.9367070  22.6869430  58.1434670 142.1167870  23.5193580
  59.1481360 142.6941690  22.5451150  74.2165860 141.4384070  26.9746740
  73.6167850 141.4976630  26.2310660  74.3459760 140.4989050  27.1043590
  75.4567310 139.1801890  12.3116450  74.6260270 139.2478540  12.7823680
  75.6339140 140.0706010  12.0083310  74.9123770 135.9249370  14.8150650
  75.6742680 136.4946020  14.9210340  74.9278140 135.3576570  15.5858960
  58.4128110 134.4487300  19.0458310  57.7576950 134.1798940  18.4018010
  59.2506060 134.3391780  18.5960290  75.9183740 136.7799470  19.6592580
  76.2892570 135.9966790  19.2528550  76.5585670 137.4688570  19.4809880
  72.9017500 138.1636050  25.0722900  72.0877340 138.5933210  25.3348690
  73.3091700 138.7754460  24.4591950  74.9642940 136.2183740  11.9723170
  75.2391780 137.1262620  11.8442390  74.7753680 136.1546270  12.9085160
  71.3618550 129.2428590  13.2676800  71.7803430 129.0559570  12.4273460
  71.0554610 128.3907640  13.5779730  74.8608280 134.1552730  16.9652600
  74.4851880 133.3880660  16.5333890  74.1311400 134.5375430  17.4527530
  59.4504040 134.8339870  23.5861650  59.8177080 134.7467270  24.4657670
  58.8814860 134.0706420  23.4868510  74.2507900 133.3024250  26.5992120
  74.0193990 133.0737000  25.6990070  74.5112450 134.2223800  26.5537010
  59.0020040 131.7448960  27.4920070  58.1076090 131.7115720  27.8313780
  59.5417590 131.9435750  28.2571320  72.6895970 128.5280680  29.3771820
  73.5666150 128.5364080  29.7605820  72.7016810 127.7911520  28.7664170
  57.6266190 131.6586230  14.9883640  56.7230270 131.9216430  14.8135300
  58.1106810 131.9297400  14.2083600  74.1359240 132.3810220  20.2659840
  74.6596720 131.8872870  19.6350010  74.7218660 132.5160580  21.0107410
  74.3148960 132.4650090  23.7879390  73.3651670 132.4313630  23.9024380
  74.4961970 133.3750200  23.5529160  60.1693400 130.7151770  12.8978020
  60.8785100 130.2934990  12.4125300  59.4533340 130.7827000  12.2661370
  59.8167560 126.7691100  11.9380670  60.5395690 127.3100040  12.2561890
  60.0892080 126.4954520  11.0622210  73.6259210 131.6383570  16.2052250
  74.1218330 131.4054440  16.9901130  73.4275280 130.7995410  15.7889890
  59.5059750 126.0197290  21.8403290  60.1535940 125.4694670  21.3998450
  59.9261590 126.2740440  22.6619100  75.0546370 130.2744520  18.7389930
  74.9445650 130.1200560  19.6772200  75.8153960 129.7465460  18.4965340
  73.4012090 126.2138650  25.1972930  74.0384310 126.8272790  25.5632120
  73.5486980 126.2499310  24.2522160  75.9436640 128.1052440  11.9796070
  76.8685950 127.9733620  11.7714360  75.9212430 128.1845260  12.9332520
  76.0175130 128.8763100  14.6052780  75.2226630 128.8108220  15.1345690
  76.2218410 129.8113740  14.5938130  72.9593550 142.9154650  18.5991170
  73.5552620 142.5939220  17.9225590  73.2171700 142.4426470  19.3904440
  59.2591750 126.1752960  24.5828610  58.9106570 126.6316780  25.3486790
  58.9279450 125.2810090  24.6651040  60.8656120 139.3472560  28.7481800
  60.8225750 138.9765470  29.6296260  60.9967130 140.2850130  28.8883620
  64.5662150 140.9032150  24.3491520  64.3253510 141.1706710  23.4622040
  65.5064790 141.0737880  24.4042380  66.7716570 127.3664840  28.1048030
  66.7105460 127.9586670  28.8543440  67.7116950 127.2590800  27.9598290
  69.4091130 127.0234900  27.7440320  70.0231540 127.3414190  27.0821400
  69.9540690 126.5383490  28.3636180  75.8266310 142.9226530  25.1502160
  75.3324590 143.3195400  24.4329290  75.2179600 142.2975740  25.5439440
  59.9312390 125.7029160  27.8579380  60.4795380 125.5217210  27.0945490
  59.9967700 124.9123270  28.3935690  60.7044150 142.2934810  25.8679580
  60.1104470 142.1619510  26.6069620  60.6967990 141.4572950  25.4021680
  70.1499170 125.5867040  24.0709610  69.2759010 125.9202150  23.8682540
  70.0409920 125.1140220  24.8961480  71.0571150 127.7937910  25.4551330
  70.7284510 126.9789670  25.0753060  72.0053450 127.7507720  25.3317020
  73.5105760 143.5649950  22.4288900  73.0508730 144.3165760  22.0546920
  72.8818220 142.8456420  22.3703700  60.3356380 139.6593190  24.8187620
  59.6090440 139.0398480  24.7513570  60.3965530 140.0533800  23.9485700
  63.9401480 141.8738190  21.6037030  64.4566500 141.2625550  21.0785290
  64.5898860 142.3766970  22.0948040  66.6796980 142.7646680  22.4306010
  66.9674790 142.5100980  21.5539020  67.1920200 142.2124040  23.0211580
  67.8973990 126.5036880  23.0102520  67.1145780 126.9782380  23.2899280
  67.6036920 125.5991710  22.9015700  72.4495060 127.2059980  21.0551610
  72.8903150 127.1505080  20.2073210  72.1802650 128.1217990  21.1261790
  74.3133630 126.8375220  19.0660430  74.2522030 125.8936440  18.9191450
  75.0925660 126.9455310  19.6113890  58.6186380 142.9767580  18.0284380
  58.4508420 142.3438260  18.7266270  57.7520890 143.1826980  17.6778570
  59.2414400 126.8084360  15.5316240  59.9993760 126.9213240  14.9580270
  58.7791570 127.6453560  15.4859670  65.7828210 128.9223630  18.5218550
  64.9702720 128.5480520  18.1814430  66.2869850 128.1668710  18.8239740
  70.2853190 125.5866080  19.7601620  70.8882560 126.1586290  20.2350140
  69.5446180 126.1505520  19.5375520  73.4287790 125.9887640  15.0341900
  73.6238420 126.8871090  15.3009330  72.6417660 125.7574720  15.5274850
  60.2249080 141.6700810  15.4734520  59.6996700 142.0508840  14.7696480
  60.1493660 142.2951580  16.1944230  61.6139550 127.3348410  14.0718210
  62.1432310 126.5478210  13.9426160  62.2467870 128.0139600  14.3053740
  63.8077390 127.0723550  17.1263600  63.1780130 126.3710860  17.2933730
  63.2682530 127.8327680  16.9096760  66.7469340 143.6862780  29.7974210
  67.6736650 143.4507050  29.8410170  66.7319770 144.5134780  29.3160240
  74.9814400 143.2288350  16.7948460  75.1566590 142.5426090  16.1509380
  74.2835970 143.7535400  16.4025130  63.9332950 126.3507530  29.5616090
  63.6517220 126.8541130  28.7976910  64.3152650 125.5529280  29.1958220
  62.8242050 143.6183190  14.3483770  63.5560870 143.3342470  13.8007660
  63.0835720 143.3796470  15.2383150  61.9856840 139.7347920  14.3530100
  61.3565720 140.2033020  14.9015930  62.1004670 138.8897140  14.7876290
  70.5348410 125.7661110  30.1396560  70.4213860 126.0855720  31.0348080
  71.3518150 126.1673620  29.8433840  73.3146900 142.9132640  29.6215250
  74.1072220 142.4181870  29.4141210  73.6080050 143.5922780  30.2290860
  67.5724600 135.5632600   2.3840570  66.7966700 135.0833040   2.6739140
  68.2237530 134.8838250   2.2096730  61.5890430 135.8752410   3.2616330
  60.7575310 135.6201120   3.6612840  62.1971410 135.9463180   3.9974250
  61.5691690 139.9092500   3.4574350  61.8719730 139.0190240   3.2784570
  62.3135280 140.4662720   3.2296600  57.9615390 133.4359950   2.9298420
  58.5331500 132.6682150   2.9302060  57.9616930 133.7348710   2.0205030
  67.0133590 138.2389790   2.3910730  66.9441870 137.2979730   2.2299860
  67.7753450 138.3291200   2.9633300  59.2040260 128.8444310   4.7167350
  59.0243100 127.9470060   4.9970110  58.8020340 129.3916180   5.3914300
  68.0438760 131.0460170   2.6179660  68.4203580 130.1732050   2.5053330
  67.9458270 131.3818870   1.7270100  59.8226930 131.3404810   3.3249690
  60.5037040 131.6043180   3.9437090  59.5074980 130.5005680   3.6587700
  64.0151500 132.3872170   2.4122280  64.5229720 132.8853140   3.0527300
  64.5464740 131.6107370   2.2361640  76.1162430 130.5577360   6.1151630
  75.4114600 130.9459070   5.5966740  76.3820350 131.2527650   6.7172560
  62.2987600 127.0270730   6.6785700  62.3006040 127.5443120   5.8731600
  61.4691910 126.5500910   6.6555630  63.5490450 136.6665910   4.8559200
  63.2159830 137.2934830   5.4980270  63.7257130 137.1927790   4.0760870
  72.0624360 130.4810990   2.3235540  71.3579930 130.7695880   2.9038650
  72.4236520 131.2911100   1.9635100  61.9802930 128.7380690   4.6856150
  62.3219740 129.5822740   4.3910020  61.0418740 128.8864430   4.8021490
  62.7609550 138.6346710   6.6708380  63.3783550 139.3097790   6.3892830
  61.9002670 139.0434690   6.5795880  73.6787140 140.0986120   4.5863020
  72.9950660 140.7685230   4.5779690  74.2181430 140.2966770   3.8207880
  75.1311280 129.9265780   2.7144750  74.1836190 129.9604760   2.8460180
  75.4561270 130.7404730   3.0994110  71.2145880 141.9430250   3.3008200
  71.2273040 141.5392540   2.4330460  70.6621100 142.7177540   3.1969630
  70.6131320 136.8460090   4.6290810  71.0300110 136.6320200   3.7944270
  71.3371140 137.1032880   5.1999430  74.5593420 135.2447310   4.7207050
  73.7312050 135.3140400   4.2457180  75.1543900 135.8301620   4.2522880
  71.5235430 132.0316630   5.6661920  71.1106610 132.8570340   5.9201910
  70.7911380 131.4461670   5.4738280  64.1249920 138.5044090   2.6919800
  63.8278210 137.8989560   2.0127580  65.0749740 138.5421400   2.5809160
  62.3696840 131.5919740   4.3079630  62.9211430 131.7015080   3.5332880
  62.8840350 131.9657340   5.0234860  72.2135530 142.0775960   6.3542900
  71.7366090 142.8848150   6.1615510  71.5297320 141.4254290   6.5069110
  63.2168350 138.2425780   9.3427600  62.3196880 138.4665750   9.5901000
  63.2421220 138.3660720   8.3939000  62.0439570 135.1139100   7.9184970
  61.9047340 135.9861900   8.2872370  61.1620930 134.7711910   7.7732910
  63.8419920 141.0560800  10.1270120  63.8135350 141.4603750   9.2598550
  63.6784890 140.1271160   9.9641720  75.7934740 141.8387900  11.4234290
  76.2694460 142.3170790  12.1023370  76.4141900 141.7705390  10.6979790
  57.9958220 136.8836650   3.8355880  58.0738640 137.0185420   2.8911600
  58.6099900 136.1752540   4.0284000  75.1967990 139.0300750   8.5834300
  75.3231050 138.7912630   7.6651480  75.2389370 138.1985290   9.0556380
  69.0584730 142.7328750   7.1529110  69.5729400 142.6436760   7.9551540
  68.2153810 143.0788450   7.4457020  75.0492000 131.0833210   9.5484040
  74.4336270 131.5912880   9.0199500  74.7288420 130.1831540   9.4909980
  58.0517740 137.9250820   6.3750340  58.2148780 137.4556180   5.5569710
  58.5170190 137.4174380   7.0399180  67.1106320 129.9225100   7.0146230
  66.6485690 130.1308120   7.8266170  66.7084430 129.1084450   6.7116900
  72.1110830 131.1434050   8.1442890  71.2604420 130.8439800   8.4651960
  71.9512620 131.3876060   7.2326710  69.2060540 132.6435800  10.2441680
  69.5313950 131.8099550   9.9043910  69.9940870 133.1664320  10.3920010
  64.8612410 127.6003910   3.2700510  65.1584740 128.5066740   3.1892530
  65.4097970 127.1122690   2.6560080  65.0549940 133.0775730   9.8052430
  64.9593540 132.1370460   9.6552830  65.8981920 133.2990800   9.4100500
  60.1860480 129.4889400   7.9586210  59.7923870 130.3364610   8.1658990
  59.4978880 128.8515770   8.1494850  66.7605530 129.5724370  11.0282950
  66.0703850 129.3796570  11.6629040  67.5037830 129.8559010  11.5607250
  57.4877530 127.4117860   1.9916290  57.1990580 127.9820720   2.7041270
  58.2323290 126.9322310   2.3547520  69.0368500 133.4122810   3.8636870
  68.3049620 133.9209620   4.2126970  68.6392840 132.5952790   3.5625650
  65.4745890 130.0877010   2.2689360  65.4781950 129.6466960   1.4193900
  66.3697010 130.4094340   2.3761180  69.4994410 128.8656490   3.2759810
  69.5167150 129.3165140   4.1201660  69.2509990 127.9662130   3.4893250
  72.9265160 126.2788670   9.1146190  73.2510930 125.5478330   9.6404170
  72.9621670 125.9602310   8.2127180  59.6256720 137.3002250   8.5346150
  59.2411510 136.6595920   9.1329110  59.9368910 138.0038370   9.1040880
  65.7753860 134.1478790   4.0154770  66.1423990 133.6737360   4.7616110
  65.5858920 135.0220360   4.3563110  63.5653230 133.1887430   6.3338980
  63.2610300 134.0679410   6.5589340  64.5199690 133.2487220   6.3696420
  72.8523000 136.3913780   2.7232220  73.5722120 136.8869070   2.3328330
  72.6504820 135.7131670   2.0786090  68.2341800 136.4622840   8.6101220
  68.1679110 135.5418510   8.3558810  67.6046940 136.5598280   9.3245860
  59.6216960 134.0290170   7.4810340  59.2631900 134.6944020   8.0683680
  59.3271520 133.1973720   7.8522960  62.8230080 134.4874410  10.3649890
  62.5230220 134.6331590   9.4677710  63.5941320 133.9279700  10.2723280
  68.1658530 139.2843410   8.3605020  68.1803070 138.3524370   8.1423930
  67.4583630 139.3703170   8.9994790  74.3769740 135.9250750   7.7073600
  73.6517930 136.5179530   7.5102990  74.9045200 135.9174290   6.9086970
  67.5992430 140.9260980   5.4545520  68.2434650 141.1320360   6.1318940
  67.9621870 140.1649380   5.0016370  68.8724510 138.9293330   4.1722970
  69.5146740 138.2286490   4.2855140  69.3973860 139.7091770   3.9919860
  70.6462130 139.7288230   7.3759030  70.9818370 140.3154920   8.0536950
  69.7262470 139.5980940   7.6056820  58.1965530 127.5183410   8.1582440
  57.4824050 127.7180330   8.7635050  58.6160570 126.7422980   8.5297240
  58.4838120 141.5063670   9.1448970  58.5929240 140.5658410   9.0044360
  57.8318680 141.7718420   8.4962700  66.4750710 139.7779560  10.5447090
  66.1547580 139.0588800  11.0892780  65.8009070 140.4534630  10.6183150
  69.6904310 130.0105720   5.9083890  70.0585130 129.1900930   6.2363460
  68.8302510 130.0707610   6.3239540  66.6506300 132.6645310   6.1321860
  67.1491550 133.1391130   6.7973710  66.7929250 131.7408830   6.3391890
  73.8573160 128.8813270   6.9750250  73.3546760 129.6218670   7.3144060
  74.6729820 129.2697270   6.6587040  74.1520750 141.2955300   2.0965870
  74.2768170 142.1186470   2.5689680  75.0186310 141.0846030   1.7490020
  61.6238280 143.3886510   1.7683000  62.3600760 142.8401970   2.0391570
  62.0079200 144.2542520   1.6288990  60.6296560 142.5732580  10.9568580
  61.4309290 142.8944630  11.3703980  60.1148380 142.2128160  11.6788490
  69.4661190 138.6812450  10.9043990  68.8599350 138.7044050  10.1639740
  69.1615300 137.9495490  11.4411240  70.8961560 142.4092740   9.5153400
  71.8483310 142.3250760   9.4653640  70.7489780 143.0734450  10.1887190
  58.3494370 135.0606040   9.9004630  58.8533390 134.4813320  10.4720860
  57.6101790 135.3446270  10.4381000  65.4032310 136.4677030   9.4340150
  64.6377980 137.0362030   9.3494820  65.5848270 136.1753240   8.5408380
  72.5455660 138.1982360   9.9915170  73.2865130 138.5358120   9.4882630
  71.7828340 138.3674420   9.4384940  60.3817450 133.2035630  10.7954700
  60.4222790 132.9049500  11.7039930  61.2362950 133.6043240  10.6362220
  62.3223260 131.7827730   8.7629190  61.7919720 131.2918680   8.1352530
  62.9911330 132.2111930   8.2287120  71.2201320 136.2497190   8.5270380
  71.6342340 136.4042270   9.3760800  70.2852320 136.3752410   8.6896160
  71.6923490 133.5893350  10.5309530  72.2744260 132.8345670  10.4430010
  71.8685260 134.1200790   9.7541010  62.8095560 128.7490100   8.8426480
  62.7152430 128.1310850   8.1177350  62.2292950 129.4756390   8.6156390
  65.5757000 127.3063340   5.8753870  65.1274300 127.3287600   5.0299420
  64.9422200 126.9082360   6.4724170  65.9816550 136.2017670   6.4966310
  66.4004660 137.0450400   6.3242550  65.0625180 136.3389710   6.2673090
  68.3180450 133.9333850   7.8804150  68.4376660 133.3374990   8.6198990
  69.1774450 133.9703540   7.4605450  70.6568350 134.4871040   6.4566660
  70.1303570 135.0113660   5.8531800  70.9999690 135.1198430   7.0876390
  63.8323970 142.5070680   7.6124040  63.2945060 143.2316740   7.2932740
  64.0857930 142.0301020   6.8221380  65.0849220 130.4755200   9.1379970
  65.6748910 130.1671050   9.8257790  64.2669460 130.0034950   9.2939870
  69.9042650 130.0921010   9.3712990  69.2158170 129.4302550   9.3062980
  70.6248670 129.6459280   9.8161450  66.6886180 143.7421890   7.8710690
  66.6144880 144.6457030   8.1783060  65.7865020 143.4233790   7.8432760
  58.5803680 141.9367070   3.9125940  58.1434670 142.1167870   4.7450090
  59.1481360 142.6941690   3.7707660  74.2165860 141.4384070   8.2003250
  73.6167850 141.4976630   7.4567170  74.3459760 140.4989050   8.3300100
  72.9017500 138.1636050   6.2979410  72.0877340 138.5933210   6.5605200
  73.3091700 138.7754460   5.6848460  59.4504040 134.8339870   4.8118160
  59.8177080 134.7467270   5.6914180  58.8814860 134.0706420   4.7125020
  74.2507900 133.3024250   7.8248630  74.0193990 133.0737000   6.9246580
  74.5112450 134.2223800   7.7793520  59.0020040 131.7448960   8.7176580
  58.1076090 131.7115720   9.0570290  59.5417590 131.9435750   9.4827830
  72.6895970 128.5280680  10.6028330  73.5666150 128.5364080  10.9862330
  72.7016810 127.7911520   9.9920680  74.3148960 132.4650090   5.0135900
  73.3651670 132.4313630   5.1280890  74.4961970 133.3750200   4.7785670
  59.5059750 126.0197290   3.0659800  60.1535940 125.4694670   2.6254960
  59.9261590 126.2740440   3.8875610  73.4012090 126.2138650   6.4229440
  74.0384310 126.8272790   6.7888630  73.5486980 126.2499310   5.4778670
  59.2591750 126.1752960   5.8085120  58.9106570 126.6316780   6.5743300
  58.9279450 125.2810090   5.8907550  60.8656120 139.3472560   9.9738310
  60.8225750 138.9765470  10.8552770  60.9967130 140.2850130  10.1140130
  64.5662150 140.9032150   5.5748030  64.3253510 141.1706710   4.6878550
  65.5064790 141.0737880   5.6298890  66.7716570 127.3664840   9.3304540
  66.7105460 127.9586670  10.0799950  67.7116950 127.2590800   9.1854800
  69.4091130 127.0234900   8.9696830  70.0231540 127.3414190   8.3077910
  69.9540690 126.5383490   9.5892690  75.8266310 142.9226530   6.3758670
  75.3324590 143.3195400   5.6585800  75.2179600 142.2975740   6.7695950
  59.9312390 125.7029160   9.0835890  60.4795380 125.5217210   8.3202000
  59.9967700 124.9123270   9.6192200  60.7044150 142.2934810   7.0936090
  60.1104470 142.1619510   7.8326130  60.6967990 141.4572950   6.6278190
  70.1499170 125.5867040   5.2966120  69.2759010 125.9202150   5.0939050
  70.0409920 125.1140220   6.1217990  71.0571150 127.7937910   6.6807840
  70.7284510 126.9789670   6.3009570  72.0053450 127.7507720   6.5573530
  73.5105760 143.5649950   3.6545410  73.0508730 144.3165760   3.2803430
  72.8818220 142.8456420   3.5960210  60.3356380 139.6593190   6.0444130
  59.6090440 139.0398480   5.9770080  60.3965530 140.0533800   5.1742210
  63.9401480 141.8738190   2.8293540  64.4566500 141.2625550   2.3041800
  64.5898860 142.3766970   3.3204550  66.6796980 142.7646680   3.6562520
  66.9674790 142.5100980   2.7795530  67.1920200 142.2124040   4.2468090
  67.8973990 126.5036880   4.2359030  67.1145780 126.9782380   4.5155790
  67.6036920 125.5991710   4.1272210  72.4495060 127.2059980   2.2808120
  72.8903150 127.1505080   1.4329720  72.1802650 128.1217990   2.3518300
  66.7469340 143.6862780  11.0230720  67.6736650 143.4507050  11.0666680
  66.7319770 144.5134780  10.5416750  63.9332950 126.3507530  10.7872600
  63.6517220 126.8541130  10.0233420  64.3152650 125.5529280  10.4214730
  70.5348410 125.7661110  11.3653070  70.4213860 126.0855720  12.2604590
  71.3518150 126.1673620  11.0690350  73.3146900 142.9132640  10.8471760
  74.1072220 142.4181870  10.6397720  73.6080050 143.5922780  11.4547370
  69.4406560 115.0110090 150.6979220  69.3600610 114.0964700 150.4270930
  69.0270980 115.5077160 149.9918930  67.5724600 116.7889110 152.5788490
  66.7966700 116.3089550 152.8687060  68.2237530 116.1094760 152.4044650
  71.5932030 121.1949300 151.3587620  71.1313560 120.4236540 151.6874790
  72.4057580 121.2215370 151.8640070  59.9982380 112.0610810 147.2406640
  59.1099080 112.4026780 147.1386520  60.2823570 111.8611130 146.3487470
  57.9615390 114.6616460 153.1246340  58.5331500 113.8938660 153.1249980
  57.9616930 114.9605220 152.2152950  67.8195340 123.4807310 150.9791610
  67.2006780 123.9364810 150.4086050  68.6747120 123.6358770 150.5781310
  67.0133590 119.4646300 152.5858650  66.9441870 118.5236240 152.4247780
  67.7753450 119.5547710 153.1581220  68.0438760 112.2716680 152.8127580
  68.4203580 111.3988560 152.7001250  67.9458270 112.6075380 151.9218020
  62.1743770 110.6442310 148.2745020  62.2810520 111.5446040 148.5813780
  61.2636130 110.5960280 147.9839670  71.8262880 109.7667120 149.7455920
  72.6472500 109.2763690 149.7881400  71.8596960 110.3564780 150.4987760
  68.6858690 118.3646550 148.3723520  68.0675960 118.8296000 147.8086240
  69.1981940 119.0574030 148.7893030  72.0624360 111.7067500 152.5183460
  71.3579930 111.9952390 153.0986570  72.4236520 112.5167610 152.1583020
  58.0541890 119.0503080 145.7463150  57.6769870 119.5390180 145.0148050
  58.3114960 119.7228360 146.3769680  65.6630820 107.4519470 151.2048660
  65.9705800 106.8966360 150.4884160  64.7331520 107.5863930 151.0221650
  72.5091300 119.8902980 148.5846290  72.3987630 118.9477310 148.7095710
  72.5059550 120.2518620 149.4709050  68.0511580 115.5168300 147.9408780
  67.1240860 115.4505680 148.1697250  68.2036400 116.4548430 147.8264020
  68.0380660 111.7885300 144.9375940  67.0984330 111.9499260 145.0228400
  68.3563920 112.5070980 144.3911930  72.0808870 117.0788600 148.4444030
  71.4621290 116.7408150 147.7970330  72.0633320 116.4348360 149.1523220
  63.6568220 116.0433040 150.7228510  63.2525220 115.3310290 150.2274410
  63.7431340 115.6986280 151.6116550  64.1249920 119.7300600 152.8867720
  63.8278210 119.1246070 152.2075500  65.0749740 119.7677910 152.7757080
  70.2573570 116.3175410 145.4516780  70.6966850 115.4797840 145.3054600
  70.9701990 116.9504810 145.5380920  68.3668950 121.2571480 149.4198020
  68.8064860 121.9995810 149.0053410  68.3055840 121.4998050 150.3436980
  73.8390710 107.5718220 143.7657820  73.5263370 107.6645050 144.6656890
  74.6003180 108.1499250 143.7155250  60.3572850 114.9378020 148.2235160
  60.2370450 115.6640110 147.6116430  60.0473740 114.1680930 147.7463070
  59.2405850 119.8093350 150.4409980  58.8333930 119.9507940 149.5863580
  60.1318860 119.5253510 150.2381190  71.0339130 124.2440600 146.7761030
  70.8740270 123.9543540 147.6742860  70.8685840 123.4680730 146.2406260
  63.5127510 124.0239130 148.5532650  63.3369990 123.1074670 148.3400450
  62.6583250 124.3826420 148.7930450  70.7365260 121.7528160 145.3359030
  70.0430420 121.7505450 144.6761310  71.4788120 121.3287480 144.9053200
  70.3015190 123.3790870 149.4107520  70.7572140 122.5980250 149.7246140
  70.6407710 124.0897690 149.9548700  62.8236510 108.2813090 151.6058830
  62.3804660 109.0622630 151.2743350  63.3821500 108.6042980 152.3129770
  65.9395330 107.9023790 146.4864660  65.3149510 107.8983660 147.2117970
  65.8525450 107.0354750 146.0900630  62.6150730 113.4046660 149.3340080
  62.3891650 113.1883830 150.2386700  61.8343260 113.8375120 148.9886050
  69.8448490 113.4110030 147.9330730  69.2457380 114.1345830 147.7494350
  70.3928100 113.3486810 147.1507180  68.4513360 112.0473570 149.9634010
  68.8442930 112.3645770 149.1502700  68.8130210 111.1685450 150.0778530
  57.4877530 108.6374370 152.1864210  57.1990580 109.2077230 152.8989190
  58.2323290 108.1578820 152.5495440  57.6747760 112.5794490 143.3966930
  57.5922430 113.5225250 143.5381920  57.3230820 112.4369400 142.5179280
  65.4745890 111.3133520 152.4637280  65.4781950 110.8723470 151.6141820
  66.3697010 111.6350850 152.5709100  61.3248270 111.1960010 151.4231490
  60.9848320 111.6735240 152.1798540  60.5625590 110.7425130 151.0632590
  65.5366040 112.3145600 145.4544040  65.6578860 112.2732080 146.4029860
  65.1514550 113.1769750 145.2990770  64.5487540 114.6246740 144.8527340
  63.9804440 114.1764990 144.2263250  65.2576540 114.9839520 144.3192490
  58.6394350 110.1178990 150.3396160  58.3541270 109.7534660 151.1774780
  58.5773210 109.3859450 149.7259300  62.0935020 118.6204930 147.1253750
  61.3197280 118.0802550 146.9652470  62.8229650 118.1011540 146.7871510
  72.8523000 117.6170290 152.9180140  73.5722120 118.1125580 152.5276250
  72.6504820 116.9388180 152.2734010  68.3132940 109.0108250 147.0609530
  67.4997550 108.5121420 146.9854840  68.1194890 109.8506500 146.6445880
  71.0281330 113.3827900 145.3571690  71.9160950 113.6945130 145.1823030
  70.9986420 112.5100150 144.9652270  62.1372420 118.2885310 150.7632560
  62.6551090 117.4853570 150.7089450  61.6856440 118.2264450 151.6049390
  67.0241920 119.5551590 146.0359860  67.3657620 120.2993820 145.5403180
  66.1954630 119.8682710 146.3984690  73.2995600 114.6939740 144.8251550
  73.2159320 115.1253960 143.9747990  74.0189790 115.1538090 145.2578370
  74.3282850 121.5482000 147.5533680  73.6859010 120.8937620 147.8277400
  73.9413510 121.9537090 146.7774350  69.9069330 118.8767430 151.4005370
  70.2593150 118.2795560 150.7406740  69.0231660 118.5511660 151.5713620
  65.9932610 119.6365120 148.8075780  66.6803740 120.1834330 149.1883370
  65.2065030 120.1805850 148.8425390  58.1325010 115.2537940 144.2992860
  59.0019860 115.5362740 144.5828780  57.6415330 116.0673810 144.1841670
  65.2959820 116.6411150 148.4201140  65.7522600 117.4516400 148.6461330
  64.9448030 116.3234290 149.2519630  61.1971600 106.9848800 148.8923660
  61.0686230 106.9766700 149.8408580  60.3733620 107.3231890 148.5414670
  72.7180230 120.4398460 144.0910030  72.4917810 119.7228900 144.6834670
  72.3276430 120.1910900 143.2531780  58.4996260 124.4665320 144.8654490
  58.8593900 125.0654660 144.2111760  58.3588600 125.0125210 145.6389520
  72.2996480 118.3570400 145.7524190  72.0118180 118.8183090 146.5402070
  73.0948650 117.8968170 146.0208410  64.5164880 121.8496520 145.6828160
  64.5074980 122.5826210 145.0672670  63.5963240 121.6028100 145.7755120
  60.1171520 117.0711410 146.4274920  59.5099470 117.8110310 146.4370220
  60.5920870 117.1610770 145.6013120  73.0566340 110.1919170 146.9119370
  72.4279500 110.2964840 146.1977600  72.5618260 110.4115950 147.7013250
  67.5024480 121.9124760 144.3453350  67.6036460 121.7088750 143.4155330
  66.6026220 121.6583040 144.5501130  65.0250370 112.4705120 148.3277250
  64.3166520 112.9391460 148.7690860  65.3094850 111.8127130 148.9622440
  69.0565800 109.1955780 149.7673040  68.9333580 109.2141910 148.8182550
  70.0050360 109.2434720 149.8871440  66.1442590 124.4311080 149.0401020
  66.3984090 124.3932470 148.1180390  65.1955070 124.3044410 149.0329270
  63.2285390 110.7790200 145.7027960  64.0775920 111.2160350 145.6368150
  62.8616660 111.0910460 146.5300020  72.1495170 115.3502960 150.6159530
  71.2085310 115.3653190 150.7907220  72.4639240 114.5638920 151.0619830
  62.1276810 117.0322560 144.1763490  62.8940080 116.9203920 144.7388920
  62.2051500 116.3360530 143.5240260  60.8223570 114.4647630 144.8596380
  60.9027160 113.5175140 144.9713780  61.7143320 114.7954510 144.9657040
  74.1520750 122.5211810 152.2913790  74.2768170 123.3442980 152.7637600
  75.0186310 122.3102540 151.9437940  61.6238280 124.6143020 151.9630920
  62.3600760 124.0658480 152.2339490  62.0079200 125.4799030 151.8236910
  58.5083760 120.6816590 147.8372430  57.5823540 120.9237730 147.8277840
  58.9740190 121.5090850 147.7157180  64.7340590 123.7873330 143.7856490
  65.5269200 124.0762160 143.3338280  64.2144940 123.3565500 143.1068970
  73.7870760 123.0143460 145.2093230  73.5012270 122.6008600 144.3947410
  73.5890310 123.9431170 145.0893750  65.2517990 119.0076740 143.6498840
  65.1468630 118.3929090 144.3760220  65.0842210 118.4842630 142.8661850
  68.4920720 118.0696770 144.2540830  67.9430820 118.5166070 144.8983570
  69.1139980 117.5646020 144.7778500  64.1595840 117.0287690 146.1506130
  64.5812260 116.8627560 146.9937520  64.2846680 116.2187920 145.6561270
  66.6723480 116.0525300 143.3983230  67.1929140 115.3374320 143.0324380
  67.3191880 116.6911170 143.6983740  63.0554740 113.1020920 143.0964290
  62.8543800 112.2388280 143.4577630  62.8846790 113.0154280 142.1585890
  70.5343050 107.9129150 145.6251170  70.8145340 107.0697050 145.9810590
  69.7608780 108.1452260 146.1389920  61.8537540 110.2021540 143.0842170
  62.1563440 110.2088970 142.1761320  62.5932130 109.8519400 143.5809830
  65.0722470 109.1456160 144.0698370  64.7244470 108.4680150 143.4900820
  65.2735240 108.6845670 144.8841760  67.2371510 124.1336910 145.6884970
  68.1322300 124.4721880 145.7103730  67.2689140 123.4116320 145.0609250
  60.8767670 119.5063960 143.9171970  61.3142540 120.0493630 144.5729550
  61.3615400 118.6810910 143.9268310  58.0913470 122.2952990 151.3692230
  58.4216480 121.4274050 151.1370870  58.5204470 122.5011510 152.1997190
  62.6875390 120.6262000 149.0294200  62.3870930 120.5026970 149.9298110
  62.5812880 119.7670590 148.6209930  75.4567310 120.4058400 143.7320880
  74.6260270 120.4735050 144.2028110  75.6339140 121.2962520 143.4287740
  74.9123770 117.1505880 146.2355080  75.6742680 117.7202530 146.3414770
  74.9278140 116.5833080 147.0063390  58.4128110 115.6743810 150.4662740
  57.7576950 115.4055450 149.8222440  59.2506060 115.5648290 150.0164720
  75.9183740 118.0055980 151.0797010  76.2892570 117.2223300 150.6732980
  76.5585670 118.6945080 150.9014310  74.9642940 117.4440250 143.3927600
  75.2391780 118.3519130 143.2646820  74.7753680 117.3802780 144.3289590
  71.3618550 110.4685100 144.6881230  71.7803430 110.2816080 143.8477890
  71.0554610 109.6164150 144.9984160  74.8608280 115.3809240 148.3857030
  74.4851880 114.6137170 147.9538320  74.1311400 115.7631940 148.8731960
  57.6266190 112.8842740 146.4088070  56.7230270 113.1472940 146.2339730
  58.1106810 113.1553910 145.6288030  74.1359240 113.6066730 151.6864270
  74.6596720 113.1129380 151.0554440  74.7218660 113.7417090 152.4311840
  60.1693400 111.9408280 144.3182450  60.8785100 111.5191500 143.8329730
  59.4533340 112.0083510 143.6865800  59.8167560 107.9947610 143.3585100
  60.5395690 108.5356550 143.6766320  60.0892080 107.7211030 142.4826640
  73.6259210 112.8640080 147.6256680  74.1218330 112.6310950 148.4105560
  73.4275280 112.0251920 147.2094320  75.0546370 111.5001030 150.1594360
  74.9445650 111.3457070 151.0976630  75.8153960 110.9721970 149.9169770
  75.9436640 109.3308950 143.4000500  76.8685950 109.1990130 143.1918790
  75.9212430 109.4101770 144.3536950  76.0175130 110.1019610 146.0257210
  75.2226630 110.0364730 146.5550120  76.2218410 111.0370250 146.0142560
  72.9593550 124.1411160 150.0195600  73.5552620 123.8195730 149.3430020
  73.2171700 123.6682980 150.8108870  72.4495060 108.4316490 152.4756040
  72.8903150 108.3761590 151.6277640  72.1802650 109.3474500 152.5466220
  74.3133630 108.0631730 150.4864860  74.2522030 107.1192950 150.3395880
  75.0925660 108.1711820 151.0318320  58.6186380 124.2024090 149.4488810
  58.4508420 123.5694770 150.1470700  57.7520890 124.4083490 149.0983000
  59.2414400 108.0340870 146.9520670  59.9993760 108.1469750 146.3784700
  58.7791570 108.8710070 146.9064100  65.7828210 110.1480140 149.9422980
  64.9702720 109.7737030 149.6018860  66.2869850 109.3925220 150.2444170
  70.2853190 106.8122590 151.1806050  70.8882560 107.3842800 151.6554570
  69.5446180 107.3762030 150.9579950  73.4287790 107.2144150 146.4546330
  73.6238420 108.1127600 146.7213760  72.6417660 106.9831230 146.9479280
  60.2249080 122.8957320 146.8938950  59.6996700 123.2765350 146.1900910
  60.1493660 123.5208090 147.6148660  61.6139550 108.5604920 145.4922640
  62.1432310 107.7734720 145.3630590  62.2467870 109.2396110 145.7258170
  63.8077390 108.2980060 148.5468030  63.1780130 107.5967370 148.7138160
  63.2682530 109.0584190 148.3301190  74.9814400 124.4544860 148.2152890
  75.1566590 123.7682600 147.5713810  74.2835970 124.9791910 147.8229560
  62.8242050 124.8439700 145.7688200  63.5560870 124.5598980 145.2212090
  63.0835720 124.6052980 146.6587580  61.9856840 120.9604430 145.7734530
  61.3565720 121.4289530 146.3220360  62.1004670 120.1153650 146.2080720
  67.5724600 116.7889110 133.8045000  66.7966700 116.3089550 134.0943570
  68.2237530 116.1094760 133.6301160  61.5890430 117.1008920 134.6820760
  60.7575310 116.8457630 135.0817270  62.1971410 117.1719690 135.4178680
  71.5932030 121.1949300 132.5844130  71.1313560 120.4236540 132.9131300
  72.4057580 121.2215370 133.0896580  61.5691690 121.1349010 134.8778780
  61.8719730 120.2446750 134.6989000  62.3135280 121.6919230 134.6501030
  59.9982380 112.0610810 128.4663150  59.1099080 112.4026780 128.3643030
  60.2823570 111.8611130 127.5743980  57.9615390 114.6616460 134.3502850
  58.5331500 113.8938660 134.3506490  57.9616930 114.9605220 133.4409460
  67.8195340 123.4807310 132.2048120  67.2006780 123.9364810 131.6342560
  68.6747120 123.6358770 131.8037820  67.0133590 119.4646300 133.8115160
  66.9441870 118.5236240 133.6504290  67.7753450 119.5547710 134.3837730
  59.2040260 110.0700820 136.1371780  59.0243100 109.1726570 136.4174540
  58.8020340 110.6172690 136.8118730  68.0438760 112.2716680 134.0384090
  68.4203580 111.3988560 133.9257760  67.9458270 112.6075380 133.1474530
  62.1743770 110.6442310 129.5001530  62.2810520 111.5446040 129.8070290
  61.2636130 110.5960280 129.2096180  59.8226930 112.5661320 134.7454120
  60.5037040 112.8299690 135.3641520  59.5074980 111.7262190 135.0792130
  64.0151500 113.6128680 133.8326710  64.5229720 114.1109650 134.4731730
  64.5464740 112.8363880 133.6566070  76.1162430 111.7833870 137.5356060
  75.4114600 112.1715580 137.0171170  76.3820350 112.4784160 138.1376990
  62.2987600 108.2527240 138.0990130  62.3006040 108.7699630 137.2936030
  61.4691910 107.7757420 138.0760060  63.5490450 117.8922420 136.2763630
  63.2159830 118.5191340 136.9184700  63.7257130 118.4184300 135.4965300
  72.0624360 111.7067500 133.7439970  71.3579930 111.9952390 134.3243080
  72.4236520 112.5167610 133.3839530  61.9802930 109.9637200 136.1060580
  62.3219740 110.8079250 135.8114450  61.0418740 110.1120940 136.2225920
  62.7609550 119.8603220 138.0912810  63.3783550 120.5354300 137.8097260
  61.9002670 120.2691200 138.0000310  58.0541890 119.0503080 126.9719660
  57.6769870 119.5390180 126.2404560  58.3114960 119.7228360 127.6026190
  73.6787140 121.3242630 136.0067450  72.9950660 121.9941740 135.9984120
  74.2181430 121.5223280 135.2412310  75.1311280 111.1522290 134.1349180
  74.1836190 111.1861270 134.2664610  75.4561270 111.9661240 134.5198540
  65.6630820 107.4519470 132.4305170  65.9705800 106.8966360 131.7140670
  64.7331520 107.5863930 132.2478160  71.2145880 123.1686760 134.7212630
  71.2273040 122.7649050 133.8534890  70.6621100 123.9434050 134.6174060
  72.5091300 119.8902980 129.8102800  72.3987630 118.9477310 129.9352220
  72.5059550 120.2518620 130.6965560  70.6131320 118.0716600 136.0495240
  71.0300110 117.8576710 135.2148700  71.3371140 118.3289390 136.6203860
  74.5593420 116.4703820 136.1411480  73.7312050 116.5396910 135.6661610
  75.1543900 117.0558130 135.6727310  72.0808870 117.0788600 129.6700540
  71.4621290 116.7408150 129.0226840  72.0633320 116.4348360 130.3779730
  71.5235430 113.2573140 137.0866350  71.1106610 114.0826850 137.3406340
  70.7911380 112.6718180 136.8942710  63.6568220 116.0433040 131.9485020
  63.2525220 115.3310290 131.4530920  63.7431340 115.6986280 132.8373060
  64.1249920 119.7300600 134.1124230  63.8278210 119.1246070 133.4332010
  65.0749740 119.7677910 134.0013590  62.3696840 112.8176250 135.7284060
  62.9211430 112.9271590 134.9537310  62.8840350 113.1913850 136.4439290
  72.2135530 123.3032470 137.7747330  71.7366090 124.1104660 137.5819940
  71.5297320 122.6510800 137.9273540  63.2168350 119.4682290 140.7632030
  62.3196880 119.6922260 141.0105430  63.2421220 119.5917230 139.8143430
  62.0439570 116.3395610 139.3389400  61.9047340 117.2118410 139.7076800
  61.1620930 115.9968420 139.1937340  68.3668950 121.2571480 130.6454530
  68.8064860 121.9995810 130.2309920  68.3055840 121.4998050 131.5693490
  63.8419920 122.2817310 141.5474550  63.8135350 122.6860260 140.6802980
  63.6784890 121.3527670 141.3846150  60.3572850 114.9378020 129.4491670
  60.2370450 115.6640110 128.8372940  60.0473740 114.1680930 128.9719580
  75.7934740 123.0644410 142.8438720  76.2694460 123.5427300 143.5227800
  76.4141900 122.9961900 142.1184220  57.9958220 118.1093160 135.2560310
  58.0738640 118.2441930 134.3116030  58.6099900 117.4009050 135.4488430
  59.2405850 119.8093350 131.6666490  58.8333930 119.9507940 130.8120090
  60.1318860 119.5253510 131.4637700  75.1967990 120.2557260 140.0038730
  75.3231050 120.0169140 139.0855910  75.2389370 119.4241800 140.4760810
  69.0584730 123.9585260 138.5733540  69.5729400 123.8693270 139.3755970
  68.2153810 124.3044960 138.8661450  71.0339130 124.2440600 128.0017540
  70.8740270 123.9543540 128.8999370  70.8685840 123.4680730 127.4662770
  63.5127510 124.0239130 129.7789160  63.3369990 123.1074670 129.5656960
  62.6583250 124.3826420 130.0186960  70.3015190 123.3790870 130.6364030
  70.7572140 122.5980250 130.9502650  70.6407710 124.0897690 131.1805210
  75.0492000 112.3089720 140.9688470  74.4336270 112.8169390 140.4403930
  74.7288420 111.4088050 140.9114410  58.0517740 119.1507330 137.7954770
  58.2148780 118.6812690 136.9774140  58.5170190 118.6430890 138.4603610
  62.8236510 108.2813090 132.8315340  62.3804660 109.0622630 132.4999860
  63.3821500 108.6042980 133.5386280  67.1106320 111.1481610 138.4350660
  66.6485690 111.3564630 139.2470600  66.7084430 110.3340960 138.1321330
  72.1110830 112.3690560 139.5647320  71.2604420 112.0696310 139.8856390
  71.9512620 112.6132570 138.6531140  69.2060540 113.8692310 141.6646110
  69.5313950 113.0356060 141.3248340  69.9940870 114.3920830 141.8124440
  65.9395330 107.9023790 127.7121170  65.3149510 107.8983660 128.4374480
  65.8525450 107.0354750 127.3157140  64.8612410 108.8260420 134.6904940
  65.1584740 109.7323250 134.6096960  65.4097970 108.3379200 134.0764510
  62.6150730 113.4046660 130.5596590  62.3891650 113.1883830 131.4643210
  61.8343260 113.8375120 130.2142560  65.0549940 114.3032240 141.2256860
  64.9593540 113.3626970 141.0757260  65.8981920 114.5247310 140.8304930
  68.4513360 112.0473570 131.1890520  68.8442930 112.3645770 130.3759210
  68.8130210 111.1685450 131.3035040  60.1860480 110.7145910 139.3790640
  59.7923870 111.5621120 139.5863420  59.4978880 110.0772280 139.5699280
  66.7605530 110.7980880 142.4487380  66.0703850 110.6053080 143.0833470
  67.5037830 111.0815520 142.9811680  57.4877530 108.6374370 133.4120720
  57.1990580 109.2077230 134.1245700  58.2323290 108.1578820 133.7751950
  57.6747760 112.5794490 124.6223440  57.5922430 113.5225250 124.7638430
  57.3230820 112.4369400 123.7435790  69.0368500 114.6379320 135.2841300
  68.3049620 115.1466130 135.6331400  68.6392840 113.8209300 134.9830080
  65.4745890 111.3133520 133.6893790  65.4781950 110.8723470 132.8398330
  66.3697010 111.6350850 133.7965610  61.3248270 111.1960010 132.6488000
  60.9848320 111.6735240 133.4055050  60.5625590 110.7425130 132.2889100
  69.4994410 110.0913000 134.6964240  69.5167150 110.5421650 135.5406090
  69.2509990 109.1918640 134.9097680  72.9265160 107.5045180 140.5350620
  73.2510930 106.7734840 141.0608600  72.9621670 107.1858820 139.6331610
  59.6256720 118.5258760 139.9550580  59.2411510 117.8852430 140.5533540
  59.9368910 119.2294880 140.5245310  65.7753860 115.3735300 135.4359200
  66.1423990 114.8993870 136.1820540  65.5858920 116.2476870 135.7767540
  58.6394350 110.1178990 131.5652670  58.3541270 109.7534660 132.4031290
  58.5773210 109.3859450 130.9515810  63.5653230 114.4143940 137.7543410
  63.2610300 115.2935920 137.9793770  64.5199690 114.4743730 137.7900850
  62.0935020 118.6204930 128.3510260  61.3197280 118.0802550 128.1908980
  62.8229650 118.1011540 128.0128020  72.8523000 117.6170290 134.1436650
  73.5722120 118.1125580 133.7532760  72.6504820 116.9388180 133.4990520
  68.3132940 109.0108250 128.2866040  67.4997550 108.5121420 128.2111350
  68.1194890 109.8506500 127.8702390  68.2341800 117.6879350 140.0305650
  68.1679110 116.7675020 139.7763240  67.6046940 117.7854790 140.7450290
  62.1372420 118.2885310 131.9889070  62.6551090 117.4853570 131.9345960
  61.6856440 118.2264450 132.8305900  67.0241920 119.5551590 127.2616370
  67.3657620 120.2993820 126.7659690  66.1954630 119.8682710 127.6241200
  59.6216960 115.2546680 138.9014770  59.2631900 115.9200530 139.4888110
  59.3271520 114.4230230 139.2727390  62.8230080 115.7130920 141.7854320
  62.5230220 115.8588100 140.8882140  63.5941320 115.1536210 141.6927710
  68.1658530 120.5099920 139.7809450  68.1803070 119.5780880 139.5628360
  67.4583630 120.5959680 140.4199220  74.3769740 117.1507260 139.1278030
  73.6517930 117.7436040 138.9307420  74.9045200 117.1430800 138.3291400
  74.3282850 121.5482000 128.7790190  73.6859010 120.8937620 129.0533910
  73.9413510 121.9537090 128.0030860  69.9069330 118.8767430 132.6261880
  70.2593150 118.2795560 131.9663250  69.0231660 118.5511660 132.7970130
  65.9932610 119.6365120 130.0332290  66.6803740 120.1834330 130.4139880
  65.2065030 120.1805850 130.0681900  58.1325010 115.2537940 125.5249370
  59.0019860 115.5362740 125.8085290  57.6415330 116.0673810 125.4098180
  67.5992430 122.1517490 136.8749950  68.2434650 122.3576870 137.5523370
  67.9621870 121.3905890 136.4220800  61.1971600 106.9848800 130.1180170
  61.0686230 106.9766700 131.0665090  60.3733620 107.3231890 129.7671180
  68.8724510 120.1549840 135.5927400  69.5146740 119.4543000 135.7059570
  69.3973860 120.9348280 135.4124290  70.6462130 120.9544740 138.7963460
  70.9818370 121.5411430 139.4741380  69.7262470 120.8237450 139.0261250
  58.4996260 124.4665320 126.0911000  58.8593900 125.0654660 125.4368270
  58.3588600 125.0125210 126.8646030  58.1965530 108.7439920 139.5786870
  57.4824050 108.9436840 140.1839480  58.6160570 107.9679490 139.9501670
  58.4838120 122.7320180 140.5653400  58.5929240 121.7914920 140.4248790
  57.8318680 122.9974930 139.9167130  66.4750710 121.0036070 141.9651520
  66.1547580 120.2845310 142.5097210  65.8009070 121.6791140 142.0387580
  64.5164880 121.8496520 126.9084670  64.5074980 122.5826210 126.2929180
  63.5963240 121.6028100 127.0011630  60.1171520 117.0711410 127.6531430
  59.5099470 117.8110310 127.6626730  60.5920870 117.1610770 126.8269630
  69.6904310 111.2362230 137.3288320  70.0585130 110.4157440 137.6567890
  68.8302510 111.2964120 137.7443970  67.5024480 121.9124760 125.5709860
  67.6036460 121.7088750 124.6411840  66.6026220 121.6583040 125.7757640
  65.0250370 112.4705120 129.5533760  64.3166520 112.9391460 129.9947370
  65.3094850 111.8127130 130.1878950  66.6506300 113.8901820 137.5526290
  67.1491550 114.3647640 138.2178140  66.7929250 112.9665340 137.7596320
  69.0565800 109.1955780 130.9929550  68.9333580 109.2141910 130.0439060
  70.0050360 109.2434720 131.1127950  66.1442590 124.4311080 130.2657530
  66.3984090 124.3932470 129.3436900  65.1955070 124.3044410 130.2585780
  63.2285390 110.7790200 126.9284470  64.0775920 111.2160350 126.8624660
  62.8616660 111.0910460 127.7556530  73.8573160 110.1069780 138.3954680
  73.3546760 110.8475180 138.7348490  74.6729820 110.4953780 138.0791470
  72.1495170 115.3502960 131.8416040  71.2085310 115.3653190 132.0163730
  72.4639240 114.5638920 132.2876340  62.1276810 117.0322560 125.4020000
  62.8940080 116.9203920 125.9645430  62.2051500 116.3360530 124.7496770
  60.8223570 114.4647630 126.0852890  60.9027160 113.5175140 126.1970290
  61.7143320 114.7954510 126.1913550  74.1520750 122.5211810 133.5170300
  74.2768170 123.3442980 133.9894110  75.0186310 122.3102540 133.1694450
  61.6238280 124.6143020 133.1887430  62.3600760 124.0658480 133.4596000
  62.0079200 125.4799030 133.0493420  58.5083760 120.6816590 129.0628940
  57.5823540 120.9237730 129.0534350  58.9740190 121.5090850 128.9413690
  60.6296560 123.7989090 142.3773010  61.4309290 124.1201140 142.7908410
  60.1148380 123.4384670 143.0992920  64.7340590 123.7873330 125.0113000
  65.5269200 124.0762160 124.5594790  64.2144940 123.3565500 124.3325480
  69.4661190 119.9068960 142.3248420  68.8599350 119.9300560 141.5844170
  69.1615300 119.1752000 142.8615670  70.8961560 123.6349250 140.9357830
  71.8483310 123.5507270 140.8858070  70.7489780 124.2990960 141.6091620
  73.7870760 123.0143460 126.4349740  73.5012270 122.6008600 125.6203920
  73.5890310 123.9431170 126.3150260  58.3494370 116.2862550 141.3209060
  58.8533390 115.7069830 141.8925290  57.6101790 116.5702780 141.8585430
  65.4032310 117.6933540 140.8544580  64.6377980 118.2618540 140.7699250
  65.5848270 117.4009750 139.9612810  72.5455660 119.4238870 141.4119600
  73.2865130 119.7614630 140.9087060  71.7828340 119.5930930 140.8589370
  60.3817450 114.4292140 142.2159130  60.4222790 114.1306010 143.1244360
  61.2362950 114.8299750 142.0566650  62.3223260 113.0084240 140.1833620
  61.7919720 112.5175190 139.5556960  62.9911330 113.4368440 139.6491550
  71.2201320 117.4753700 139.9474810  71.6342340 117.6298780 140.7965230
  70.2852320 117.6008920 140.1100590  71.6923490 114.8149860 141.9513960
  72.2744260 114.0602180 141.8634440  71.8685260 115.3457300 141.1745440
  62.8095560 109.9746610 140.2630910  62.7152430 109.3567360 139.5381780
  62.2292950 110.7012900 140.0360820  65.5757000 108.5319850 137.2958300
  65.1274300 108.5544110 136.4503850  64.9422200 108.1338870 137.8928600
  65.9816550 117.4274180 137.9170740  66.4004660 118.2706910 137.7446980
  65.0625180 117.5646220 137.6877520  68.3180450 115.1590360 139.3008580
  68.4376660 114.5631500 140.0403420  69.1774450 115.1960050 138.8809880
  70.6568350 115.7127550 137.8771090  70.1303570 116.2370170 137.2736230
  70.9999690 116.3454940 138.5080820  63.8323970 123.7327190 139.0328470
  63.2945060 124.4573250 138.7137170  64.0857930 123.2557530 138.2425810
  65.0849220 111.7011710 140.5584400  65.6748910 111.3927560 141.2462220
  64.2669460 111.2291460 140.7144300  69.9042650 111.3177520 140.7917420
  69.2158170 110.6559060 140.7267410  70.6248670 110.8715790 141.2365880
  70.5343050 107.9129150 126.8507680  70.8145340 107.0697050 127.2067100
  69.7608780 108.1452260 127.3646430  61.8537540 110.2021540 124.3098680
  62.1563440 110.2088970 123.4017830  62.5932130 109.8519400 124.8066340
  66.6886180 124.9678400 139.2915120  66.6144880 125.8713540 139.5987490
  65.7865020 124.6490300 139.2637190  65.0722470 109.1456160 125.2954880
  64.7244470 108.4680150 124.7157330  65.2735240 108.6845670 126.1098270
  67.2371510 124.1336910 126.9141480  68.1322300 124.4721880 126.9360240
  67.2689140 123.4116320 126.2865760  60.8767670 119.5063960 125.1428480
  61.3142540 120.0493630 125.7986060  61.3615400 118.6810910 125.1524820
  58.0913470 122.2952990 132.5948740  58.4216480 121.4274050 132.3627380
  58.5204470 122.5011510 133.4253700  62.6875390 120.6262000 130.2550710
  62.3870930 120.5026970 131.1554620  62.5812880 119.7670590 129.8466440
  58.5803680 123.1623580 135.3330370  58.1434670 123.3424380 136.1654520
  59.1481360 123.9198200 135.1912090  74.2165860 122.6640580 139.6207680
  73.6167850 122.7233140 138.8771600  74.3459760 121.7245560 139.7504530
  58.4128110 115.6743810 131.6919250  57.7576950 115.4055450 131.0478950
  59.2506060 115.5648290 131.2421230  75.9183740 118.0055980 132.3053520
  76.2892570 117.2223300 131.8989490  76.5585670 118.6945080 132.1270820
  72.9017500 119.3892560 137.7183840  72.0877340 119.8189720 137.9809630
  73.3091700 120.0010970 137.1052890  71.3618550 110.4685100 125.9137740
  71.7803430 110.2816080 125.0734400  71.0554610 109.6164150 126.2240670
  74.8608280 115.3809240 129.6113540  74.4851880 114.6137170 129.1794830
  74.1311400 115.7631940 130.0988470  59.4504040 116.0596380 136.2322590
  59.8177080 115.9723780 137.1118610  58.8814860 115.2962930 136.1329450
  74.2507900 114.5280760 139.2453060  74.0193990 114.2993510 138.3451010
  74.5112450 115.4480310 139.1997950  59.0020040 112.9705470 140.1381010
  58.1076090 112.9372230 140.4774720  59.5417590 113.1692260 140.9032260
  72.6895970 109.7537190 142.0232760  73.5666150 109.7620590 142.4066760
  72.7016810 109.0168030 141.4125110  57.6266190 112.8842740 127.6344580
  56.7230270 113.1472940 127.4596240  58.1106810 113.1553910 126.8544540
  74.1359240 113.6066730 132.9120780  74.6596720 113.1129380 132.2810950
  74.7218660 113.7417090 133.6568350  74.3148960 113.6906600 136.4340330
  73.3651670 113.6570140 136.5485320  74.4961970 114.6006710 136.1990100
  60.1693400 111.9408280 125.5438960  60.8785100 111.5191500 125.0586240
  59.4533340 112.0083510 124.9122310  59.8167560 107.9947610 124.5841610
  60.5395690 108.5356550 124.9022830  60.0892080 107.7211030 123.7083150
  73.6259210 112.8640080 128.8513190  74.1218330 112.6310950 129.6362070
  73.4275280 112.0251920 128.4350830  59.5059750 107.2453800 134.4864230
  60.1535940 106.6951180 134.0459390  59.9261590 107.4996950 135.3080040
  73.4012090 107.4395160 137.8433870  74.0384310 108.0529300 138.2093060
  73.5486980 107.4755820 136.8983100  72.9593550 124.1411160 131.2452110
  73.5552620 123.8195730 130.5686530  73.2171700 123.6682980 132.0365380
  59.2591750 107.4009470 137.2289550  58.9106570 107.8573290 137.9947730
  58.9279450 106.5066600 137.3111980  60.8656120 120.5729070 141.3942740
  60.8225750 120.2021980 142.2757200  60.9967130 121.5106640 141.5344560
  64.5662150 122.1288660 136.9952460  64.3253510 122.3963220 136.1082980
  65.5064790 122.2994390 137.0503320  66.7716570 108.5921350 140.7508970
  66.7105460 109.1843180 141.5004380  67.7116950 108.4847310 140.6059230
  69.4091130 108.2491410 140.3901260  70.0231540 108.5670700 139.7282340
  69.9540690 107.7640000 141.0097120  75.8266310 124.1483040 137.7963100
  75.3324590 124.5451910 137.0790230  75.2179600 123.5232250 138.1900380
  59.9312390 106.9285670 140.5040320  60.4795380 106.7473720 139.7406430
  59.9967700 106.1379780 141.0396630  60.7044150 123.5191320 138.5140520
  60.1104470 123.3876020 139.2530560  60.6967990 122.6829460 138.0482620
  71.0571150 109.0194420 138.1012270  70.7284510 108.2046180 137.7214000
  72.0053450 108.9764230 137.9777960  73.5105760 124.7906460 135.0749840
  73.0508730 125.5422270 134.7007860  72.8818220 124.0712930 135.0164640
  60.3356380 120.8849700 137.4648560  59.6090440 120.2654990 137.3974510
  60.3965530 121.2790310 136.5946640  63.9401480 123.0994700 134.2497970
  64.4566500 122.4882060 133.7246230  64.5898860 123.6023480 134.7408980
  66.6796980 123.9903190 135.0766950  66.9674790 123.7357490 134.1999960
  67.1920200 123.4380550 135.6672520  67.8973990 107.7293390 135.6563460
  67.1145780 108.2038890 135.9360220  67.6036920 106.8248220 135.5476640
  58.6186380 124.2024090 130.6745320  58.4508420 123.5694770 131.3727210
  57.7520890 124.4083490 130.3239510  59.2414400 108.0340870 128.1777180
  59.9993760 108.1469750 127.6041210  58.7791570 108.8710070 128.1320610
  65.7828210 110.1480140 131.1679490  64.9702720 109.7737030 130.8275370
  66.2869850 109.3925220 131.4700680  60.2249080 122.8957320 128.1195460
  59.6996700 123.2765350 127.4157420  60.1493660 123.5208090 128.8405170
  61.6139550 108.5604920 126.7179150  62.1432310 107.7734720 126.5887100
  62.2467870 109.2396110 126.9514680  63.8077390 108.2980060 129.7724540
  63.1780130 107.5967370 129.9394670  63.2682530 109.0584190 129.5557700
  66.7469340 124.9119290 142.4435150  67.6736650 124.6763560 142.4871110
  66.7319770 125.7391290 141.9621180  74.9814400 124.4544860 129.4409400
  75.1566590 123.7682600 128.7970320  74.2835970 124.9791910 129.0486070
  63.9332950 107.5764040 142.2077030  63.6517220 108.0797640 141.4437850
  64.3152650 106.7785790 141.8419160  62.8242050 124.8439700 126.9944710
  63.5560870 124.5598980 126.4468600  63.0835720 124.6052980 127.8844090
  61.9856840 120.9604430 126.9991040  61.3565720 121.4289530 127.5476870
  62.1004670 120.1153650 127.4337230  70.5348410 106.9917620 142.7857500
  70.4213860 107.3112230 143.6809020  71.3518150 107.3930130 142.4894780
  73.3146900 124.1389150 142.2676190  74.1072220 123.6438380 142.0602150
  73.6080050 124.8179290 142.8751800  69.4406560 115.0110090 113.1492240
  69.3600610 114.0964700 112.8783950  69.0270980 115.5077160 112.4431950
  59.9982380 112.0610810 109.6919660  59.1099080 112.4026780 109.5899540
  60.2823570 111.8611130 108.8000490  57.9615390 114.6616460 115.5759360
  58.5331500 113.8938660 115.5763000  57.9616930 114.9605220 114.6665970
  67.8195340 123.4807310 113.4304630  67.2006780 123.9364810 112.8599070
  68.6747120 123.6358770 113.0294330  68.0438760 112.2716680 115.2640600
  68.4203580 111.3988560 115.1514270  67.9458270 112.6075380 114.3731040
  62.1743770 110.6442310 110.7258040  62.2810520 111.5446040 111.0326800
  61.2636130 110.5960280 110.4352690  71.8262880 109.7667120 112.1968940
  72.6472500 109.2763690 112.2394420  71.8596960 110.3564780 112.9500780
  72.0624360 111.7067500 114.9696480  71.3579930 111.9952390 115.5499590
  72.4236520 112.5167610 114.6096040  73.6787140 121.3242630 117.2323960
  72.9950660 121.9941740 117.2240630  74.2181430 121.5223280 116.4668820
  75.1311280 111.1522290 115.3605690  74.1836190 111.1861270 115.4921120
  75.4561270 111.9661240 115.7455050  65.6630820 107.4519470 113.6561680
  65.9705800 106.8966360 112.9397180  64.7331520 107.5863930 113.4734670
  71.2145880 123.1686760 115.9469140  71.2273040 122.7649050 115.0791400
  70.6621100 123.9434050 115.8430570  72.5091300 119.8902980 111.0359310
  72.3987630 118.9477310 111.1608730  72.5059550 120.2518620 111.9222070
  70.6131320 118.0716600 117.2751750  71.0300110 117.8576710 116.4405210
  71.3371140 118.3289390 117.8460370  68.0380660 111.7885300 107.3888960
  67.0984330 111.9499260 107.4741420  68.3563920 112.5070980 106.8424950
  74.5593420 116.4703820 117.3667990  73.7312050 116.5396910 116.8918120
  75.1543900 117.0558130 116.8983820  72.0808870 117.0788600 110.8957050
  71.4621290 116.7408150 110.2483350  72.0633320 116.4348360 111.6036240
  71.5235430 113.2573140 118.3122860  71.1106610 114.0826850 118.5662850
  70.7911380 112.6718180 118.1199220  62.3696840 112.8176250 116.9540570
  62.9211430 112.9271590 116.1793820  62.8840350 113.1913850 117.6695800
  72.2135530 123.3032470 119.0003840  71.7366090 124.1104660 118.8076450
  71.5297320 122.6510800 119.1530050  63.2168350 119.4682290 121.9888540
  62.3196880 119.6922260 122.2361940  63.2421220 119.5917230 121.0399940
  70.2573570 116.3175410 107.9029800  70.6966850 115.4797840 107.7567620
  70.9701990 116.9504810 107.9893940  62.0439570 116.3395610 120.5645910
  61.9047340 117.2118410 120.9333310  61.1620930 115.9968420 120.4193850
  63.8419920 122.2817310 122.7731060  63.8135350 122.6860260 121.9059490
  63.6784890 121.3527670 122.6102660  73.8390710 107.5718220 106.2170840
  73.5263370 107.6645050 107.1169910  74.6003180 108.1499250 106.1668270
  60.3572850 114.9378020 110.6748180  60.2370450 115.6640110 110.0629450
  60.0473740 114.1680930 110.1976090  75.7934740 123.0644410 124.0695230
  76.2694460 123.5427300 124.7484310  76.4141900 122.9961900 123.3440730
  57.9958220 118.1093160 116.4816820  58.0738640 118.2441930 115.5372540
  58.6099900 117.4009050 116.6744940  59.2405850 119.8093350 112.8923000
  58.8333930 119.9507940 112.0376600  60.1318860 119.5253510 112.6894210
  69.0584730 123.9585260 119.7990050  69.5729400 123.8693270 120.6012480
  68.2153810 124.3044960 120.0917960  71.0339130 124.2440600 109.2274050
  70.8740270 123.9543540 110.1255880  70.8685840 123.4680730 108.6919280
  70.7365260 121.7528160 107.7872050  70.0430420 121.7505450 107.1274330
  71.4788120 121.3287480 107.3566220  58.0517740 119.1507330 119.0211280
  58.2148780 118.6812690 118.2030650  58.5170190 118.6430890 119.6860120
  62.8236510 108.2813090 114.0571850  62.3804660 109.0622630 113.7256370
  63.3821500 108.6042980 114.7642790  67.1106320 111.1481610 119.6607170
  66.6485690 111.3564630 120.4727110  66.7084430 110.3340960 119.3577840
  65.9395330 107.9023790 108.9377680  65.3149510 107.8983660 109.6630990
  65.8525450 107.0354750 108.5413650  64.8612410 108.8260420 115.9161450
  65.1584740 109.7323250 115.8353470  65.4097970 108.3379200 115.3021020
  62.6150730 113.4046660 111.7853100  62.3891650 113.1883830 112.6899720
  61.8343260 113.8375120 111.4399070  69.8448490 113.4110030 110.3843750
  69.2457380 114.1345830 110.2007370  70.3928100 113.3486810 109.6020200
  68.4513360 112.0473570 112.4147030  68.8442930 112.3645770 111.6015720
  68.8130210 111.1685450 112.5291550  57.6747760 112.5794490 105.8479950
  57.5922430 113.5225250 105.9894940  57.3230820 112.4369400 104.9692300
  65.4745890 111.3133520 114.9150300  65.4781950 110.8723470 114.0654840
  66.3697010 111.6350850 115.0222120  61.3248270 111.1960010 113.8744510
  60.9848320 111.6735240 114.6311560  60.5625590 110.7425130 113.5145610
  65.5366040 112.3145600 107.9057060  65.6578860 112.2732080 108.8542880
  65.1514550 113.1769750 107.7503790  69.4994410 110.0913000 115.9220750
  69.5167150 110.5421650 116.7662600  69.2509990 109.1918640 116.1354190
  59.6256720 118.5258760 121.1807090  59.2411510 117.8852430 121.7790050
  59.9368910 119.2294880 121.7501820  58.6394350 110.1178990 112.7909180
  58.3541270 109.7534660 113.6287800  58.5773210 109.3859450 112.1772320
  72.8523000 117.6170290 115.3693160  73.5722120 118.1125580 114.9789270
  72.6504820 116.9388180 114.7247030  68.3132940 109.0108250 109.5122550
  67.4997550 108.5121420 109.4367860  68.1194890 109.8506500 109.0958900
  71.0281330 113.3827900 107.8084710  71.9160950 113.6945130 107.6336050
  70.9986420 112.5100150 107.4165290  59.6216960 115.2546680 120.1271280
  59.2631900 115.9200530 120.7144620  59.3271520 114.4230230 120.4983900
  62.8230080 115.7130920 123.0110830  62.5230220 115.8588100 122.1138650
  63.5941320 115.1536210 122.9184220  73.2995600 114.6939740 107.2764570
  73.2159320 115.1253960 106.4261010  74.0189790 115.1538090 107.7091390
  69.9069330 118.8767430 113.8518390  70.2593150 118.2795560 113.1919760
  69.0231660 118.5511660 114.0226640  58.1325010 115.2537940 106.7505880
  59.0019860 115.5362740 107.0341800  57.6415330 116.0673810 106.6354690
  67.5992430 122.1517490 118.1006460  68.2434650 122.3576870 118.7779880
  67.9621870 121.3905890 117.6477310  61.1971600 106.9848800 111.3436680
  61.0686230 106.9766700 112.2921600  60.3733620 107.3231890 110.9927690
  68.8724510 120.1549840 116.8183910  69.5146740 119.4543000 116.9316080
  69.3973860 120.9348280 116.6380800  72.7180230 120.4398460 106.5423050
  72.4917810 119.7228900 107.1347690  72.3276430 120.1910900 105.7044800
  72.2996480 118.3570400 108.2037210  72.0118180 118.8183090 108.9915090
  73.0948650 117.8968170 108.4721430  58.4838120 122.7320180 121.7909910
  58.5929240 121.7914920 121.6505300  57.8318680 122.9974930 121.1423640
  66.4750710 121.0036070 123.1908030  66.1547580 120.2845310 123.7353720
  65.8009070 121.6791140 123.2644090  69.6904310 111.2362230 118.5544830
  70.0585130 110.4157440 118.8824400  68.8302510 111.2964120 118.9700480
  73.0566340 110.1919170 109.3632390  72.4279500 110.2964840 108.6490620
  72.5618260 110.4115950 110.1526270  67.5024480 121.9124760 106.7966370
  67.6036460 121.7088750 105.8668350  66.6026220 121.6583040 107.0014150
  65.0250370 112.4705120 110.7790270  64.3166520 112.9391460 111.2203880
  65.3094850 111.8127130 111.4135460  69.0565800 109.1955780 112.2186060
  68.9333580 109.2141910 111.2695570  70.0050360 109.2434720 112.3384460
  66.1442590 124.4311080 111.4914040  66.3984090 124.3932470 110.5693410
  65.1955070 124.3044410 111.4842290  63.2285390 110.7790200 108.1540980
  64.0775920 111.2160350 108.0881170  62.8616660 111.0910460 108.9813040
  72.1495170 115.3502960 113.0672550  71.2085310 115.3653190 113.2420240
  72.4639240 114.5638920 113.5132850  62.1276810 117.0322560 106.6276510
  62.8940080 116.9203920 107.1901940  62.2051500 116.3360530 105.9753280
  60.8223570 114.4647630 107.3109400  60.9027160 113.5175140 107.4226800
  61.7143320 114.7954510 107.4170060  58.5083760 120.6816590 110.2885450
  57.5823540 120.9237730 110.2790860  58.9740190 121.5090850 110.1670200
  60.6296560 123.7989090 123.6029520  61.4309290 124.1201140 124.0164920
  60.1148380 123.4384670 124.3249430  64.7340590 123.7873330 106.2369510
  65.5269200 124.0762160 105.7851300  64.2144940 123.3565500 105.5581990
  70.8961560 123.6349250 122.1614340  71.8483310 123.5507270 122.1114580
  70.7489780 124.2990960 122.8348130  73.7870760 123.0143460 107.6606250
  73.5012270 122.6008600 106.8460430  73.5890310 123.9431170 107.5406770
  58.3494370 116.2862550 122.5465570  58.8533390 115.7069830 123.1181800
  57.6101790 116.5702780 123.0841940  65.2517990 119.0076740 106.1011860
  65.1468630 118.3929090 106.8273240  65.0842210 118.4842630 105.3174870
  68.4920720 118.0696770 106.7053850  67.9430820 118.5166070 107.3496590
  69.1139980 117.5646020 107.2291520  60.3817450 114.4292140 123.4415640
  60.4222790 114.1306010 124.3500870  61.2362950 114.8299750 123.2823160
  62.3223260 113.0084240 121.4090130  61.7919720 112.5175190 120.7813470
  62.9911330 113.4368440 120.8748060  66.6723480 116.0525300 105.8496250
  67.1929140 115.3374320 105.4837400  67.3191880 116.6911170 106.1496760
  62.8095560 109.9746610 121.4887420  62.7152430 109.3567360 120.7638290
  62.2292950 110.7012900 121.2617330  65.5757000 108.5319850 118.5214810
  65.1274300 108.5544110 117.6760360  64.9422200 108.1338870 119.1185110
  63.0554740 113.1020920 105.5477310  62.8543800 112.2388280 105.9090650
  62.8846790 113.0154280 104.6098910  63.8323970 123.7327190 120.2584980
  63.2945060 124.4573250 119.9393680  64.0857930 123.2557530 119.4682320
  65.0849220 111.7011710 121.7840910  65.6748910 111.3927560 122.4718730
  64.2669460 111.2291460 121.9400810  70.5343050 107.9129150 108.0764190
  70.8145340 107.0697050 108.4323610  69.7608780 108.1452260 108.5902940
  61.8537540 110.2021540 105.5355190  62.1563440 110.2088970 104.6274340
  62.5932130 109.8519400 106.0322850  66.6886180 124.9678400 120.5171630
  66.6144880 125.8713540 120.8244000  65.7865020 124.6490300 120.4893700
  67.2371510 124.1336910 108.1397990  68.1322300 124.4721880 108.1616750
  67.2689140 123.4116320 107.5122270  74.2165860 122.6640580 120.8464190
  73.6167850 122.7233140 120.1028110  74.3459760 121.7245560 120.9761040
  75.4567310 120.4058400 106.1833900  74.6260270 120.4735050 106.6541130
  75.6339140 121.2962520 105.8800760  74.9123770 117.1505880 108.6868100
  75.6742680 117.7202530 108.7927790  74.9278140 116.5833080 109.4576410
  58.4128110 115.6743810 112.9175760  57.7576950 115.4055450 112.2735460
  59.2506060 115.5648290 112.4677740  75.9183740 118.0055980 113.5310030
  76.2892570 117.2223300 113.1246000  76.5585670 118.6945080 113.3527330
  72.9017500 119.3892560 118.9440350  72.0877340 119.8189720 119.2066140
  73.3091700 120.0010970 118.3309400  74.9642940 117.4440250 105.8440620
  75.2391780 118.3519130 105.7159840  74.7753680 117.3802780 106.7802610
  71.3618550 110.4685100 107.1394250  71.7803430 110.2816080 106.2990910
  71.0554610 109.6164150 107.4497180  74.8608280 115.3809240 110.8370050
  74.4851880 114.6137170 110.4051340  74.1311400 115.7631940 111.3244980
  59.4504040 116.0596380 117.4579100  59.8177080 115.9723780 118.3375120
  58.8814860 115.2962930 117.3585960  59.0020040 112.9705470 121.3637520
  58.1076090 112.9372230 121.7031230  59.5417590 113.1692260 122.1288770
  57.6266190 112.8842740 108.8601090  56.7230270 113.1472940 108.6852750
  58.1106810 113.1553910 108.0801050  74.1359240 113.6066730 114.1377290
  74.6596720 113.1129380 113.5067460  74.7218660 113.7417090 114.8824860
  60.1693400 111.9408280 106.7695470  60.8785100 111.5191500 106.2842750
  59.4533340 112.0083510 106.1378820  59.8167560 107.9947610 105.8098120
  60.5395690 108.5356550 106.1279340  60.0892080 107.7211030 104.9339660
  75.9436640 109.3308950 105.8513520  76.8685950 109.1990130 105.6431810
  75.9212430 109.4101770 106.8049970  76.0175130 110.1019610 108.4770230
  75.2226630 110.0364730 109.0063140  76.2218410 111.0370250 108.4655580
  60.8656120 120.5729070 122.6199250  60.8225750 120.2021980 123.5013710
  60.9967130 121.5106640 122.7601070  64.5662150 122.1288660 118.2208970
  64.3253510 122.3963220 117.3339490  65.5064790 122.2994390 118.2759830
  66.7716570 108.5921350 121.9765480  66.7105460 109.1843180 122.7260890
  67.7116950 108.4847310 121.8315740  69.4091130 108.2491410 121.6157770
  70.0231540 108.5670700 120.9538850  69.9540690 107.7640000 122.2353630
  59.9312390 106.9285670 121.7296830  60.4795380 106.7473720 120.9662940
  59.9967700 106.1379780 122.2653140  60.7044150 123.5191320 119.7397030
  60.1104470 123.3876020 120.4787070  60.6967990 122.6829460 119.2739130
  70.1499170 106.8123550 117.9427060  69.2759010 107.1458660 117.7399990
  70.0409920 106.3396730 118.7678930  71.0571150 109.0194420 119.3268780
  70.7284510 108.2046180 118.9470510  72.0053450 108.9764230 119.2034470
  60.3356380 120.8849700 118.6905070  59.6090440 120.2654990 118.6231020
  60.3965530 121.2790310 117.8203150  66.6796980 123.9903190 116.3023460
  66.9674790 123.7357490 115.4256470  67.1920200 123.4380550 116.8929030
  67.8973990 107.7293390 116.8819970  67.1145780 108.2038890 117.1616730
  67.6036920 106.8248220 116.7733150  72.4495060 108.4316490 114.9269060
  72.8903150 108.3761590 114.0790660  72.1802650 109.3474500 114.9979240
  74.3133630 108.0631730 112.9377880  74.2522030 107.1192950 112.7908900
  75.0925660 108.1711820 113.4831340  59.2414400 108.0340870 109.4033690
  59.9993760 108.1469750 108.8297720  58.7791570 108.8710070 109.3577120
  65.7828210 110.1480140 112.3936000  64.9702720 109.7737030 112.0531880
  66.2869850 109.3925220 112.6957190  70.2853190 106.8122590 113.6319070
  70.8882560 107.3842800 114.1067590  69.5446180 107.3762030 113.4092970
  73.4287790 107.2144150 108.9059350  73.6238420 108.1127600 109.1726780
  72.6417660 106.9831230 109.3992300  61.6139550 108.5604920 107.9435660
  62.1432310 107.7734720 107.8143610  62.2467870 109.2396110 108.1771190
  63.8077390 108.2980060 110.9981050  63.1780130 107.5967370 111.1651180
  63.2682530 109.0584190 110.7814210  66.7469340 124.9119290 123.6691660
  67.6736650 124.6763560 123.7127620  66.7319770 125.7391290 123.1877690
  63.9332950 107.5764040 123.4333540  63.6517220 108.0797640 122.6694360
  64.3152650 106.7785790 123.0675670  62.8242050 124.8439700 108.2201220
  63.5560870 124.5598980 107.6725110  63.0835720 124.6052980 109.1100600
  70.5348410 106.9917620 124.0114010  70.4213860 107.3112230 124.9065530
  71.3518150 107.3930130 123.7151290  73.3146900 124.1389150 123.4932700
  74.1072220 123.6438380 123.2858660  73.6080050 124.8179290 124.1008310
  67.5724600 116.7889110  96.2558020  66.7966700 116.3089550  96.5456590
  68.2237530 116.1094760  96.0814180  61.5890430 117.1008920  97.1333780
  60.7575310 116.8457630  97.5330290  62.1971410 117.1719690  97.8691700
  71.5932030 121.1949300  95.0357150  71.1313560 120.4236540  95.3644320
  72.4057580 121.2215370  95.5409600  59.9982380 112.0610810  90.9176170
  59.1099080 112.4026780  90.8156050  60.2823570 111.8611130  90.0257000
  57.9615390 114.6616460  96.8015870  58.5331500 113.8938660  96.8019510
  57.9616930 114.9605220  95.8922480  59.2040260 110.0700820  98.5884800
  59.0243100 109.1726570  98.8687560  58.8020340 110.6172690  99.2631750
  62.1743770 110.6442310  91.9514550  62.2810520 111.5446040  92.2583310
  61.2636130 110.5960280  91.6609200  59.8226930 112.5661320  97.1967140
  60.5037040 112.8299690  97.8154540  59.5074980 111.7262190  97.5305150
  64.0151500 113.6128680  96.2839730  64.5229720 114.1109650  96.9244750
  64.5464740 112.8363880  96.1079090  63.5490450 117.8922420  98.7276650
  63.2159830 118.5191340  99.3697720  63.7257130 118.4184300  97.9478320
  62.7609550 119.8603220 100.5425830  63.3783550 120.5354300 100.2610280
  61.9002670 120.2691200 100.4513330  73.6787140 121.3242630  98.4580470
  72.9950660 121.9941740  98.4497140  74.2181430 121.5223280  97.6925330
  71.2145880 123.1686760  97.1725650  71.2273040 122.7649050  96.3047910
  70.6621100 123.9434050  97.0687080  72.5091300 119.8902980  92.2615820
  72.3987630 118.9477310  92.3865240  72.5059550 120.2518620  93.1478580
  70.6131320 118.0716600  98.5008260  71.0300110 117.8576710  97.6661720
  71.3371140 118.3289390  99.0716880  63.6568220 116.0433040  94.3998040
  63.2525220 115.3310290  93.9043940  63.7431340 115.6986280  95.2886080
  64.1249920 119.7300600  96.5637250  63.8278210 119.1246070  95.8845030
  65.0749740 119.7677910  96.4526610  62.3696840 112.8176250  98.1797080
  62.9211430 112.9271590  97.4050330  62.8840350 113.1913850  98.8952310
  72.2135530 123.3032470 100.2260350  71.7366090 124.1104660 100.0332960
  71.5297320 122.6510800 100.3786560  63.2168350 119.4682290 103.2145050
  62.3196880 119.6922260 103.4618450  63.2421220 119.5917230 102.2656450
  62.0439570 116.3395610 101.7902420  61.9047340 117.2118410 102.1589820
  61.1620930 115.9968420 101.6450360  63.8419920 122.2817310 103.9987570
  63.8135350 122.6860260 103.1316000  63.6784890 121.3527670 103.8359170
  60.3572850 114.9378020  91.9004690  60.2370450 115.6640110  91.2885960
  60.0473740 114.1680930  91.4232600  75.7934740 123.0644410 105.2951740
  76.2694460 123.5427300 105.9740820  76.4141900 122.9961900 104.5697240
  59.2405850 119.8093350  94.1179510  58.8333930 119.9507940  93.2633110
  60.1318860 119.5253510  93.9150720  75.1967990 120.2557260 102.4551750
  75.3231050 120.0169140 101.5368930  75.2389370 119.4241800 102.9273830
  69.0584730 123.9585260 101.0246560  69.5729400 123.8693270 101.8268990
  68.2153810 124.3044960 101.3174470  71.0339130 124.2440600  90.4530560
  70.8740270 123.9543540  91.3512390  70.8685840 123.4680730  89.9175790
  63.5127510 124.0239130  92.2302180  63.3369990 123.1074670  92.0169980
  62.6583250 124.3826420  92.4699980  70.7365260 121.7528160  89.0128560
  70.0430420 121.7505450  88.3530840  71.4788120 121.3287480  88.5822730
  70.3015190 123.3790870  93.0877050  70.7572140 122.5980250  93.4015670
  70.6407710 124.0897690  93.6318230  62.8236510 108.2813090  95.2828360
  62.3804660 109.0622630  94.9512880  63.3821500 108.6042980  95.9899300
  69.2060540 113.8692310 104.1159130  69.5313950 113.0356060 103.7761360
  69.9940870 114.3920830 104.2637460  62.6150730 113.4046660  93.0109610
  62.3891650 113.1883830  93.9156230  61.8343260 113.8375120  92.6655580
  65.0549940 114.3032240 103.6769880  64.9593540 113.3626970 103.5270280
  65.8981920 114.5247310 103.2817950  60.1860480 110.7145910 101.8303660
  59.7923870 111.5621120 102.0376440  59.4978880 110.0772280 102.0212300
  57.4877530 108.6374370  95.8633740  57.1990580 109.2077230  96.5758720
  58.2323290 108.1578820  96.2264970  69.0368500 114.6379320  97.7354320
  68.3049620 115.1466130  98.0844420  68.6392840 113.8209300  97.4343100
  65.4745890 111.3133520  96.1406810  65.4781950 110.8723470  95.2911350
  66.3697010 111.6350850  96.2478630  61.3248270 111.1960010  95.1001020
  60.9848320 111.6735240  95.8568070  60.5625590 110.7425130  94.7402120
  65.5366040 112.3145600  89.1313570  65.6578860 112.2732080  90.0799390
  65.1514550 113.1769750  88.9760300  64.5487540 114.6246740  88.5296870
  63.9804440 114.1764990  87.9032780  65.2576540 114.9839520  87.9962020
  59.6256720 118.5258760 102.4063600  59.2411510 117.8852430 103.0046560
  59.9368910 119.2294880 102.9758330  65.7753860 115.3735300  97.8872220
  66.1423990 114.8993870  98.6333560  65.5858920 116.2476870  98.2280560
  58.6394350 110.1178990  94.0165690  58.3541270 109.7534660  94.8544310
  58.5773210 109.3859450  93.4028830  63.5653230 114.4143940 100.2056430
  63.2610300 115.2935920 100.4306790  64.5199690 114.4743730 100.2413870
  62.0935020 118.6204930  90.8023280  61.3197280 118.0802550  90.6422000
  62.8229650 118.1011540  90.4641040  68.2341800 117.6879350 102.4818670
  68.1679110 116.7675020 102.2276260  67.6046940 117.7854790 103.1963310
  62.1372420 118.2885310  94.4402090  62.6551090 117.4853570  94.3858980
  61.6856440 118.2264450  95.2818920  59.6216960 115.2546680 101.3527790
  59.2631900 115.9200530 101.9401130  59.3271520 114.4230230 101.7240410
  62.8230080 115.7130920 104.2367340  62.5230220 115.8588100 103.3395160
  63.5941320 115.1536210 104.1440730  68.1658530 120.5099920 102.2322470
  68.1803070 119.5780880 102.0141380  67.4583630 120.5959680 102.8712240
  69.9069330 118.8767430  95.0774900  70.2593150 118.2795560  94.4176270
  69.0231660 118.5511660  95.2483150  58.1325010 115.2537940  87.9762390
  59.0019860 115.5362740  88.2598310  57.6415330 116.0673810  87.8611200
  67.5992430 122.1517490  99.3262970  68.2434650 122.3576870 100.0036390
  67.9621870 121.3905890  98.8733820  61.1971600 106.9848800  92.5693190
  61.0686230 106.9766700  93.5178110  60.3733620 107.3231890  92.2184200
  68.8724510 120.1549840  98.0440420  69.5146740 119.4543000  98.1572590
  69.3973860 120.9348280  97.8637310  72.7180230 120.4398460  87.7679560
  72.4917810 119.7228900  88.3604200  72.3276430 120.1910900  86.9301310
  70.6462130 120.9544740 101.2476480  70.9818370 121.5411430 101.9254400
  69.7262470 120.8237450 101.4774270  58.1965530 108.7439920 102.0299890
  57.4824050 108.9436840 102.6352500  58.6160570 107.9679490 102.4014690
  72.2996480 118.3570400  89.4293720  72.0118180 118.8183090  90.2171600
  73.0948650 117.8968170  89.6977940  66.4750710 121.0036070 104.4164540
  66.1547580 120.2845310 104.9610230  65.8009070 121.6791140 104.4900600
  64.5164880 121.8496520  89.3597690  64.5074980 122.5826210  88.7442200
  63.5963240 121.6028100  89.4524650  60.1171520 117.0711410  90.1044450
  59.5099470 117.8110310  90.1139750  60.5920870 117.1610770  89.2782650
  65.0250370 112.4705120  92.0046780  64.3166520 112.9391460  92.4460390
  65.3094850 111.8127130  92.6391970  66.6506300 113.8901820 100.0039310
  67.1491550 114.3647640 100.6691160  66.7929250 112.9665340 100.2109340
  66.1442590 124.4311080  92.7170550  66.3984090 124.3932470  91.7949920
  65.1955070 124.3044410  92.7098800  63.2285390 110.7790200  89.3797490
  64.0775920 111.2160350  89.3137680  62.8616660 111.0910460  90.2069550
  62.1276810 117.0322560  87.8533020  62.8940080 116.9203920  88.4158450
  62.2051500 116.3360530  87.2009790  60.8223570 114.4647630  88.5365910
  60.9027160 113.5175140  88.6483310  61.7143320 114.7954510  88.6426570
  74.1520750 122.5211810  95.9683320  74.2768170 123.3442980  96.4407130
  75.0186310 122.3102540  95.6207470  58.5083760 120.6816590  91.5141960
  57.5823540 120.9237730  91.5047370  58.9740190 121.5090850  91.3926710
  64.7340590 123.7873330  87.4626020  65.5269200 124.0762160  87.0107810
  64.2144940 123.3565500  86.7838500  69.4661190 119.9068960 104.7761440
  68.8599350 119.9300560 104.0357190  69.1615300 119.1752000 105.3128690
  70.8961560 123.6349250 103.3870850  71.8483310 123.5507270 103.3371090
  70.7489780 124.2990960 104.0604640  73.7870760 123.0143460  88.8862760
  73.5012270 122.6008600  88.0716940  73.5890310 123.9431170  88.7663280
  58.3494370 116.2862550 103.7722080  58.8533390 115.7069830 104.3438310
  57.6101790 116.5702780 104.3098450  65.2517990 119.0076740  87.3268370
  65.1468630 118.3929090  88.0529750  65.0842210 118.4842630  86.5431380
  65.4032310 117.6933540 103.3057600  64.6377980 118.2618540 103.2212270
  65.5848270 117.4009750 102.4125830  68.4920720 118.0696770  87.9310360
  67.9430820 118.5166070  88.5753100  69.1139980 117.5646020  88.4548030
  72.5455660 119.4238870 103.8632620  73.2865130 119.7614630 103.3600080
  71.7828340 119.5930930 103.3102390  60.3817450 114.4292140 104.6672150
  60.4222790 114.1306010 105.5757380  61.2362950 114.8299750 104.5079670
  64.1595840 117.0287690  89.8275660  64.5812260 116.8627560  90.6707050
  64.2846680 116.2187920  89.3330800  62.3223260 113.0084240 102.6346640
  61.7919720 112.5175190 102.0069980  62.9911330 113.4368440 102.1004570
  66.6723480 116.0525300  87.0752760  67.1929140 115.3374320  86.7093910
  67.3191880 116.6911170  87.3753270  71.2201320 117.4753700 102.3987830
  71.6342340 117.6298780 103.2478250  70.2852320 117.6008920 102.5613610
  71.6923490 114.8149860 104.4026980  72.2744260 114.0602180 104.3147460
  71.8685260 115.3457300 103.6258460  65.9816550 117.4274180 100.3683760
  66.4004660 118.2706910 100.1960000  65.0625180 117.5646220 100.1390540
  68.3180450 115.1590360 101.7521600  68.4376660 114.5631500 102.4916440
  69.1774450 115.1960050 101.3322900  66.6886180 124.9678400 101.7428140
  66.6144880 125.8713540 102.0500510  65.7865020 124.6490300 101.7150210
  65.0722470 109.1456160  87.7467900  64.7244470 108.4680150  87.1670350
  65.2735240 108.6845670  88.5611290  67.2371510 124.1336910  89.3654500
  68.1322300 124.4721880  89.3873260  67.2689140 123.4116320  88.7378780
  60.8767670 119.5063960  87.5941500  61.3142540 120.0493630  88.2499080
  61.3615400 118.6810910  87.6037840  58.0913470 122.2952990  95.0461760
  58.4216480 121.4274050  94.8140400  58.5204470 122.5011510  95.8766720
  62.6875390 120.6262000  92.7063730  62.3870930 120.5026970  93.6067640
  62.5812880 119.7670590  92.2979460  74.2165860 122.6640580 102.0720700
  73.6167850 122.7233140 101.3284620  74.3459760 121.7245560 102.2017550
  75.4567310 120.4058400  87.4090410  74.6260270 120.4735050  87.8797640
  75.6339140 121.2962520  87.1057270  58.4128110 115.6743810  94.1432270
  57.7576950 115.4055450  93.4991970  59.2506060 115.5648290  93.6934250
  72.9017500 119.3892560 100.1696860  72.0877340 119.8189720 100.4322650
  73.3091700 120.0010970  99.5565910  74.9642940 117.4440250  87.0697130
  75.2391780 118.3519130  86.9416350  74.7753680 117.3802780  88.0059120
  59.4504040 116.0596380  98.6835610  59.8177080 115.9723780  99.5631630
  58.8814860 115.2962930  98.5842470  59.0020040 112.9705470 102.5894030
  58.1076090 112.9372230 102.9287740  59.5417590 113.1692260 103.3545280
  72.6895970 109.7537190 104.4745780  73.5666150 109.7620590 104.8579780
  72.7016810 109.0168030 103.8638130  57.6266190 112.8842740  90.0857600
  56.7230270 113.1472940  89.9109260  58.1106810 113.1553910  89.3057560
  75.8266310 124.1483040 100.2476120  75.3324590 124.5451910  99.5303250
  75.2179600 123.5232250 100.6413400  59.9312390 106.9285670 102.9553340
  60.4795380 106.7473720 102.1919450  59.9967700 106.1379780 103.4909650
  66.6796980 123.9903190  97.5279970  66.9674790 123.7357490  96.6512980
  67.1920200 123.4380550  98.1185540  66.7469340 124.9119290 104.8948170
  67.6736650 124.6763560 104.9384130  66.7319770 125.7391290 104.4134200
  62.8242050 124.8439700  89.4457730  63.5560870 124.5598980  88.8981620
  63.0835720 124.6052980  90.3357110  61.9856840 120.9604430  89.4504060
  61.3565720 121.4289530  89.9989890  62.1004670 120.1153650  89.8850250
  73.3146900 124.1389150 104.7189210  74.1072220 123.6438380 104.5115170
  73.6080050 124.8179290 105.3264820  69.4406560 115.0110090  75.6005260
  69.3600610 114.0964700  75.3296970  69.0270980 115.5077160  74.8944970
  61.5890430 117.1008920  78.3590290  60.7575310 116.8457630  78.7586800
  62.1971410 117.1719690  79.0948210  71.5932030 121.1949300  76.2613660
  71.1313560 120.4236540  76.5900830  72.4057580 121.2215370  76.7666110
  67.8195340 123.4807310  75.8817650  67.2006780 123.9364810  75.3112090
  68.6747120 123.6358770  75.4807350  67.0133590 119.4646300  77.4884690
  66.9441870 118.5236240  77.3273820  67.7753450 119.5547710  78.0607260
  68.0438760 112.2716680  77.7153620  68.4203580 111.3988560  77.6027290
  67.9458270 112.6075380  76.8244060  62.1743770 110.6442310  73.1771060
  62.2810520 111.5446040  73.4839820  61.2636130 110.5960280  72.8865710
  59.8226930 112.5661320  78.4223650  60.5037040 112.8299690  79.0411050
  59.5074980 111.7262190  78.7561660  64.0151500 113.6128680  77.5096240
  64.5229720 114.1109650  78.1501260  64.5464740 112.8363880  77.3335600
  63.5490450 117.8922420  79.9533160  63.2159830 118.5191340  80.5954230
  63.7257130 118.4184300  79.1734830  61.9802930 109.9637200  79.7830110
  62.3219740 110.8079250  79.4883980  61.0418740 110.1120940  79.8995450
  62.7609550 119.8603220  81.7682340  63.3783550 120.5354300  81.4866790
  61.9002670 120.2691200  81.6769840  58.0541890 119.0503080  70.6489190
  57.6769870 119.5390180  69.9174090  58.3114960 119.7228360  71.2795720
  73.6787140 121.3242630  79.6836980  72.9950660 121.9941740  79.6753650
  74.2181430 121.5223280  78.9181840  71.2145880 123.1686760  78.3982160
  71.2273040 122.7649050  77.5304420  70.6621100 123.9434050  78.2943590
  72.5091300 119.8902980  73.4872330  72.3987630 118.9477310  73.6121750
  72.5059550 120.2518620  74.3735090  70.6131320 118.0716600  79.7264770
  71.0300110 117.8576710  78.8918230  71.3371140 118.3289390  80.2973390
  68.0380660 111.7885300  69.8401980  67.0984330 111.9499260  69.9254440
  68.3563920 112.5070980  69.2937970  74.5593420 116.4703820  79.8181010
  73.7312050 116.5396910  79.3431140  75.1543900 117.0558130  79.3496840
  72.0808870 117.0788600  73.3470070  71.4621290 116.7408150  72.6996370
  72.0633320 116.4348360  74.0549260  62.3696840 112.8176250  79.4053590
  62.9211430 112.9271590  78.6306840  62.8840350 113.1913850  80.1208820
  72.2135530 123.3032470  81.4516860  71.7366090 124.1104660  81.2589470
  71.5297320 122.6510800  81.6043070  63.2168350 119.4682290  84.4401560
  62.3196880 119.6922260  84.6874960  63.2421220 119.5917230  83.4912960
  70.2573570 116.3175410  70.3542820  70.6966850 115.4797840  70.2080640
  70.9701990 116.9504810  70.4406960  62.0439570 116.3395610  83.0158930
  61.9047340 117.2118410  83.3846330  61.1620930 115.9968420  82.8706870
  68.3668950 121.2571480  74.3224060  68.8064860 121.9995810  73.9079450
  68.3055840 121.4998050  75.2463020  63.8419920 122.2817310  85.2244080
  63.8135350 122.6860260  84.3572510  63.6784890 121.3527670  85.0615680
  75.7934740 123.0644410  86.5208250  76.2694460 123.5427300  87.1997330
  76.4141900 122.9961900  85.7953750  75.1967990 120.2557260  83.6808260
  75.3231050 120.0169140  82.7625440  75.2389370 119.4241800  84.1530340
  69.0584730 123.9585260  82.2503070  69.5729400 123.8693270  83.0525500
  68.2153810 124.3044960  82.5430980  63.5127510 124.0239130  73.4558690
  63.3369990 123.1074670  73.2426490  62.6583250 124.3826420  73.6956490
  70.7365260 121.7528160  70.2385070  70.0430420 121.7505450  69.5787350
  71.4788120 121.3287480  69.8079240  70.3015190 123.3790870  74.3133560
  70.7572140 122.5980250  74.6272180  70.6407710 124.0897690  74.8574740
  58.0517740 119.1507330  81.4724300  58.2148780 118.6812690  80.6543670
  58.5170190 118.6430890  82.1373140  62.8236510 108.2813090  76.5084870
  62.3804660 109.0622630  76.1769390  63.3821500 108.6042980  77.2155810
  67.1106320 111.1481610  82.1120190  66.6485690 111.3564630  82.9240130
  66.7084430 110.3340960  81.8090860  65.9395330 107.9023790  71.3890700
  65.3149510 107.8983660  72.1144010  65.8525450 107.0354750  70.9926670
  64.8612410 108.8260420  78.3674470  65.1584740 109.7323250  78.2866490
  65.4097970 108.3379200  77.7534040  62.6150730 113.4046660  74.2366120
  62.3891650 113.1883830  75.1412740  61.8343260 113.8375120  73.8912090
  69.8448490 113.4110030  72.8356770  69.2457380 114.1345830  72.6520390
  70.3928100 113.3486810  72.0533220  65.0549940 114.3032240  84.9026390
  64.9593540 113.3626970  84.7526790  65.8981920 114.5247310  84.5074460
  68.4513360 112.0473570  74.8660050  68.8442930 112.3645770  74.0528740
  68.8130210 111.1685450  74.9804570  66.7605530 110.7980880  86.1256910
  66.0703850 110.6053080  86.7603000  67.5037830 111.0815520  86.6581210
  57.4877530 108.6374370  77.0890250  57.1990580 109.2077230  77.8015230
  58.2323290 108.1578820  77.4521480  69.0368500 114.6379320  78.9610830
  68.3049620 115.1466130  79.3100930  68.6392840 113.8209300  78.6599610
  65.4745890 111.3133520  77.3663320  65.4781950 110.8723470  76.5167860
  66.3697010 111.6350850  77.4735140  61.3248270 111.1960010  76.3257530
  60.9848320 111.6735240  77.0824580  60.5625590 110.7425130  75.9658630
  65.5366040 112.3145600  70.3570080  65.6578860 112.2732080  71.3055900
  65.1514550 113.1769750  70.2016810  69.4994410 110.0913000  78.3733770
  69.5167150 110.5421650  79.2175620  69.2509990 109.1918640  78.5867210
  59.6256720 118.5258760  83.6320110  59.2411510 117.8852430  84.2303070
  59.9368910 119.2294880  84.2014840  65.7753860 115.3735300  79.1128730
  66.1423990 114.8993870  79.8590070  65.5858920 116.2476870  79.4537070
  63.5653230 114.4143940  81.4312940  63.2610300 115.2935920  81.6563300
  64.5199690 114.4743730  81.4670380  72.8523000 117.6170290  77.8206180
  73.5722120 118.1125580  77.4302290  72.6504820 116.9388180  77.1760050
  68.3132940 109.0108250  71.9635570  67.4997550 108.5121420  71.8880880
  68.1194890 109.8506500  71.5471920  68.2341800 117.6879350  83.7075180
  68.1679110 116.7675020  83.4532770  67.6046940 117.7854790  84.4219820
  71.0281330 113.3827900  70.2597730  71.9160950 113.6945130  70.0849070
  70.9986420 112.5100150  69.8678310  59.6216960 115.2546680  82.5784300
  59.2631900 115.9200530  83.1657640  59.3271520 114.4230230  82.9496920
  62.8230080 115.7130920  85.4623850  62.5230220 115.8588100  84.5651670
  63.5941320 115.1536210  85.3697240  74.3769740 117.1507260  82.8047560
  73.6517930 117.7436040  82.6076950  74.9045200 117.1430800  82.0060930
  74.3282850 121.5482000  72.4559720  73.6859010 120.8937620  72.7303440
  73.9413510 121.9537090  71.6800390  69.9069330 118.8767430  76.3031410
  70.2593150 118.2795560  75.6432780  69.0231660 118.5511660  76.4739660
  67.5992430 122.1517490  80.5519480  68.2434650 122.3576870  81.2292900
  67.9621870 121.3905890  80.0990330  68.8724510 120.1549840  79.2696930
  69.5146740 119.4543000  79.3829100  69.3973860 120.9348280  79.0893820
  72.7180230 120.4398460  68.9936070  72.4917810 119.7228900  69.5860710
  72.3276430 120.1910900  68.1557820  70.6462130 120.9544740  82.4732990
  70.9818370 121.5411430  83.1510910  69.7262470 120.8237450  82.7030780
  58.4996260 124.4665320  69.7680530  58.8593900 125.0654660  69.1137800
  58.3588600 125.0125210  70.5415560  72.2996480 118.3570400  70.6550230
  72.0118180 118.8183090  71.4428110  73.0948650 117.8968170  70.9234450
  64.5164880 121.8496520  70.5854200  64.5074980 122.5826210  69.9698710
  63.5963240 121.6028100  70.6781160  69.6904310 111.2362230  81.0057850
  70.0585130 110.4157440  81.3337420  68.8302510 111.2964120  81.4213500
  73.0566340 110.1919170  71.8145410  72.4279500 110.2964840  71.1003640
  72.5618260 110.4115950  72.6039290  65.0250370 112.4705120  73.2303290
  64.3166520 112.9391460  73.6716900  65.3094850 111.8127130  73.8648480
  66.6506300 113.8901820  81.2295820  67.1491550 114.3647640  81.8947670
  66.7929250 112.9665340  81.4365850  66.1442590 124.4311080  73.9427060
  66.3984090 124.3932470  73.0206430  65.1955070 124.3044410  73.9355310
  63.2285390 110.7790200  70.6054000  64.0775920 111.2160350  70.5394190
  62.8616660 111.0910460  71.4326060  72.1495170 115.3502960  75.5185570
  71.2085310 115.3653190  75.6933260  72.4639240 114.5638920  75.9645870
  74.1520750 122.5211810  77.1939830  74.2768170 123.3442980  77.6663640
  75.0186310 122.3102540  76.8463980  58.5083760 120.6816590  72.7398470
  57.5823540 120.9237730  72.7303880  58.9740190 121.5090850  72.6183220
  64.7340590 123.7873330  68.6882530  65.5269200 124.0762160  68.2364320
  64.2144940 123.3565500  68.0095010  70.8961560 123.6349250  84.6127360
  71.8483310 123.5507270  84.5627600  70.7489780 124.2990960  85.2861150
  73.7870760 123.0143460  70.1119270  73.5012270 122.6008600  69.2973450
  73.5890310 123.9431170  69.9919790  58.3494370 116.2862550  84.9978590
  58.8533390 115.7069830  85.5694820  57.6101790 116.5702780  85.5354960
  65.4032310 117.6933540  84.5314110  64.6377980 118.2618540  84.4468780
  65.5848270 117.4009750  83.6382340  68.4920720 118.0696770  69.1566870
  67.9430820 118.5166070  69.8009610  69.1139980 117.5646020  69.6804540
  72.5455660 119.4238870  85.0889130  73.2865130 119.7614630  84.5856590
  71.7828340 119.5930930  84.5358900  66.6723480 116.0525300  68.3009270
  67.1929140 115.3374320  67.9350420  67.3191880 116.6911170  68.6009780
  71.2201320 117.4753700  83.6244340  71.6342340 117.6298780  84.4734760
  70.2852320 117.6008920  83.7870120  65.5757000 108.5319850  80.9727830
  65.1274300 108.5544110  80.1273380  64.9422200 108.1338870  81.5698130
  65.9816550 117.4274180  81.5940270  66.4004660 118.2706910  81.4216510
  65.0625180 117.5646220  81.3647050  68.3180450 115.1590360  82.9778110
  68.4376660 114.5631500  83.7172950  69.1774450 115.1960050  82.5579410
  70.6568350 115.7127550  81.5540620  70.1303570 116.2370170  80.9505760
  70.9999690 116.3454940  82.1850350  65.0849220 111.7011710  84.2353930
  65.6748910 111.3927560  84.9231750  64.2669460 111.2291460  84.3913830
  70.5343050 107.9129150  70.5277210  70.8145340 107.0697050  70.8836630
  69.7608780 108.1452260  71.0415960  66.6886180 124.9678400  82.9684650
  66.6144880 125.8713540  83.2757020  65.7865020 124.6490300  82.9406720
  65.0722470 109.1456160  68.9724410  64.7244470 108.4680150  68.3926860
  65.2735240 108.6845670  69.7867800  74.2165860 122.6640580  83.2977210
  73.6167850 122.7233140  82.5541130  74.3459760 121.7245560  83.4274060
  75.4567310 120.4058400  68.6346920  74.6260270 120.4735050  69.1054150
  75.6339140 121.2962520  68.3313780  75.9183740 118.0055980  75.9823050
  76.2892570 117.2223300  75.5759020  76.5585670 118.6945080  75.8040350
  72.9017500 119.3892560  81.3953370  72.0877340 119.8189720  81.6579160
  73.3091700 120.0010970  80.7822420  74.9642940 117.4440250  68.2953640
  75.2391780 118.3519130  68.1672860  74.7753680 117.3802780  69.2315630
  71.3618550 110.4685100  69.5907270  71.7803430 110.2816080  68.7503930
  71.0554610 109.6164150  69.9010200  59.5059750 107.2453800  78.1633760
  60.1535940 106.6951180  77.7228920  59.9261590 107.4996950  78.9849570
  75.9436640 109.3308950  68.3026540  76.8685950 109.1990130  68.0944830
  75.9212430 109.4101770  69.2562990  72.9593550 124.1411160  74.9221640
  73.5552620 123.8195730  74.2456060  73.2171700 123.6682980  75.7134910
  60.8656120 120.5729070  85.0712270  60.8225750 120.2021980  85.9526730
  60.9967130 121.5106640  85.2114090  64.5662150 122.1288660  80.6721990
  64.3253510 122.3963220  79.7852510  65.5064790 122.2994390  80.7272850
  75.8266310 124.1483040  81.4732630  75.3324590 124.5451910  80.7559760
  75.2179600 123.5232250  81.8669910  73.5105760 124.7906460  78.7519370
  73.0508730 125.5422270  78.3777390  72.8818220 124.0712930  78.6934170
  63.9401480 123.0994700  77.9267500  64.4566500 122.4882060  77.4015760
  64.5898860 123.6023480  78.4178510  66.6796980 123.9903190  78.7536480
  66.9674790 123.7357490  77.8769490  67.1920200 123.4380550  79.3442050
  58.6186380 124.2024090  74.3514850  58.4508420 123.5694770  75.0496740
  57.7520890 124.4083490  74.0009040  65.7828210 110.1480140  74.8449020
  64.9702720 109.7737030  74.5044900  66.2869850 109.3925220  75.1470210
  60.2249080 122.8957320  71.7964990  59.6996700 123.2765350  71.0926950
  60.1493660 123.5208090  72.5174700  61.6139550 108.5604920  70.3948680
  62.1432310 107.7734720  70.2656630  62.2467870 109.2396110  70.6284210
  63.8077390 108.2980060  73.4494070  63.1780130 107.5967370  73.6164200
  63.2682530 109.0584190  73.2327230  66.7469340 124.9119290  86.1204680
  67.6736650 124.6763560  86.1640640  66.7319770 125.7391290  85.6390710
  74.9814400 124.4544860  73.1178930  75.1566590 123.7682600  72.4739850
  74.2835970 124.9791910  72.7255600  63.9332950 107.5764040  85.8846560
  63.6517220 108.0797640  85.1207380  64.3152650 106.7785790  85.5188690
  62.8242050 124.8439700  70.6714240  63.5560870 124.5598980  70.1238130
  63.0835720 124.6052980  71.5613620  73.3146900 124.1389150  85.9445720
  74.1072220 123.6438380  85.7371680  73.6080050 124.8179290  86.5521330
  69.4406560 115.0110090  56.8261770  69.3600610 114.0964700  56.5553480
  69.0270980 115.5077160  56.1201480  71.5932030 121.1949300  57.4870170
  71.1313560 120.4236540  57.8157340  72.4057580 121.2215370  57.9922620
  59.9982380 112.0610810  53.3689190  59.1099080 112.4026780  53.2669070
  60.2823570 111.8611130  52.4770020  57.9615390 114.6616460  59.2528890
  58.5331500 113.8938660  59.2532530  57.9616930 114.9605220  58.3435500
  67.8195340 123.4807310  57.1074160  67.2006780 123.9364810  56.5368600
  68.6747120 123.6358770  56.7063860  68.0438760 112.2716680  58.9410130
  68.4203580 111.3988560  58.8283800  67.9458270 112.6075380  58.0500570
  62.1743770 110.6442310  54.4027570  62.2810520 111.5446040  54.7096330
  61.2636130 110.5960280  54.1122220  59.8226930 112.5661320  59.6480160
  60.5037040 112.8299690  60.2667560  59.5074980 111.7262190  59.9818170
  68.6858690 118.3646550  54.5006070  68.0675960 118.8296000  53.9368790
  69.1981940 119.0574030  54.9175580  72.0624360 111.7067500  58.6466010
  71.3579930 111.9952390  59.2269120  72.4236520 112.5167610  58.2865570
  73.6787140 121.3242630  60.9093490  72.9950660 121.9941740  60.9010160
  74.2181430 121.5223280  60.1438350  65.6630820 107.4519470  57.3331210
  65.9705800 106.8966360  56.6166710  64.7331520 107.5863930  57.1504200
  71.2145880 123.1686760  59.6238670  71.2273040 122.7649050  58.7560930
  70.6621100 123.9434050  59.5200100  72.5091300 119.8902980  54.7128840
  72.3987630 118.9477310  54.8378260  72.5059550 120.2518620  55.5991600
  68.0511580 115.5168300  54.0691330  67.1240860 115.4505680  54.2979800
  68.2036400 116.4548430  53.9546570  74.5593420 116.4703820  61.0437520
  73.7312050 116.5396910  60.5687650  75.1543900 117.0558130  60.5753350
  72.0808870 117.0788600  54.5726580  71.4621290 116.7408150  53.9252880
  72.0633320 116.4348360  55.2805770  71.5235430 113.2573140  61.9892390
  71.1106610 114.0826850  62.2432380  70.7911380 112.6718180  61.7968750
  62.3696840 112.8176250  60.6310100  62.9211430 112.9271590  59.8563350
  62.8840350 113.1913850  61.3465330  70.2573570 116.3175410  51.5799330
  70.6966850 115.4797840  51.4337150  70.9701990 116.9504810  51.6663470
  68.3668950 121.2571480  55.5480570  68.8064860 121.9995810  55.1335960
  68.3055840 121.4998050  56.4719530  75.7934740 123.0644410  67.7464760
  76.2694460 123.5427300  68.4253840  76.4141900 122.9961900  67.0210260
  75.1967990 120.2557260  64.9064770  75.3231050 120.0169140  63.9881950
  75.2389370 119.4241800  65.3786850  71.0339130 124.2440600  52.9043580
  70.8740270 123.9543540  53.8025410  70.8685840 123.4680730  52.3688810
  63.5127510 124.0239130  54.6815200  63.3369990 123.1074670  54.4683000
  62.6583250 124.3826420  54.9213000  70.7365260 121.7528160  51.4641580
  70.0430420 121.7505450  50.8043860  71.4788120 121.3287480  51.0335750
  70.3015190 123.3790870  55.5390070  70.7572140 122.5980250  55.8528690
  70.6407710 124.0897690  56.0831250  75.0492000 112.3089720  65.8714510
  74.4336270 112.8169390  65.3429970  74.7288420 111.4088050  65.8140450
  67.1106320 111.1481610  63.3376700  66.6485690 111.3564630  64.1496640
  66.7084430 110.3340960  63.0347370  72.1110830 112.3690560  64.4673360
  71.2604420 112.0696310  64.7882430  71.9512620 112.6132570  63.5557180
  69.2060540 113.8692310  66.5672150  69.5313950 113.0356060  66.2274380
  69.9940870 114.3920830  66.7150480  64.8612410 108.8260420  59.5930980
  65.1584740 109.7323250  59.5123000  65.4097970 108.3379200  58.9790550
  62.6150730 113.4046660  55.4622630  62.3891650 113.1883830  56.3669250
  61.8343260 113.8375120  55.1168600  66.7605530 110.7980880  67.3513420
  66.0703850 110.6053080  67.9859510  67.5037830 111.0815520  67.8837720
  65.4745890 111.3133520  58.5919830  65.4781950 110.8723470  57.7424370
  66.3697010 111.6350850  58.6991650  69.4994410 110.0913000  59.5990280
  69.5167150 110.5421650  60.4432130  69.2509990 109.1918640  59.8123720
  64.5487540 114.6246740  50.9809890  63.9804440 114.1764990  50.3545800
  65.2576540 114.9839520  50.4475040  72.9265160 107.5045180  65.4376660
  73.2510930 106.7734840  65.9634640  72.9621670 107.1858820  64.5357650
  72.8523000 117.6170290  59.0462690  73.5722120 118.1125580  58.6558800
  72.6504820 116.9388180  58.4016560  67.0241920 119.5551590  52.1642410
  67.3657620 120.2993820  51.6685730  66.1954630 119.8682710  52.5267240
  74.3769740 117.1507260  64.0304070  73.6517930 117.7436040  63.8333460
  74.9045200 117.1430800  63.2317440  74.3282850 121.5482000  53.6816230
  73.6859010 120.8937620  53.9559950  73.9413510 121.9537090  52.9056900
  69.9069330 118.8767430  57.5287920  70.2593150 118.2795560  56.8689290
  69.0231660 118.5511660  57.6996170  65.9932610 119.6365120  54.9358330
  66.6803740 120.1834330  55.3165920  65.2065030 120.1805850  54.9707940
  58.1325010 115.2537940  50.4275410  59.0019860 115.5362740  50.7111330
  57.6415330 116.0673810  50.3124220  65.2959820 116.6411150  54.5483690
  65.7522600 117.4516400  54.7743880  64.9448030 116.3234290  55.3802180
  61.1971600 106.9848800  55.0206210  61.0686230 106.9766700  55.9691130
  60.3733620 107.3231890  54.6697220  72.7180230 120.4398460  50.2192580
  72.4917810 119.7228900  50.8117220  72.3276430 120.1910900  49.3814330
  58.4996260 124.4665320  50.9937040  58.8593900 125.0654660  50.3394310
  58.3588600 125.0125210  51.7672070  72.2996480 118.3570400  51.8806740
  72.0118180 118.8183090  52.6684620  73.0948650 117.8968170  52.1490960
  58.4838120 122.7320180  65.4679440  58.5929240 121.7914920  65.3274830
  57.8318680 122.9974930  64.8193170  64.5164880 121.8496520  51.8110710
  64.5074980 122.5826210  51.1955220  63.5963240 121.6028100  51.9037670
  69.6904310 111.2362230  62.2314360  70.0585130 110.4157440  62.5593930
  68.8302510 111.2964120  62.6470010  67.5024480 121.9124760  50.4735900
  67.6036460 121.7088750  49.5437880  66.6026220 121.6583040  50.6783680
  65.0250370 112.4705120  54.4559800  64.3166520 112.9391460  54.8973410
  65.3094850 111.8127130  55.0904990  66.1442590 124.4311080  55.1683570
  66.3984090 124.3932470  54.2462940  65.1955070 124.3044410  55.1611820
  63.2285390 110.7790200  51.8310510  64.0775920 111.2160350  51.7650700
  62.8616660 111.0910460  52.6582570  73.8573160 110.1069780  63.2980720
  73.3546760 110.8475180  63.6374530  74.6729820 110.4953780  62.9817510
  72.1495170 115.3502960  56.7442080  71.2085310 115.3653190  56.9189770
  72.4639240 114.5638920  57.1902380  62.1276810 117.0322560  50.3046040
  62.8940080 116.9203920  50.8671470  62.2051500 116.3360530  49.6522810
  60.8223570 114.4647630  50.9878930  60.9027160 113.5175140  51.0996330
  61.7143320 114.7954510  51.0939590  74.1520750 122.5211810  58.4196340
  74.2768170 123.3442980  58.8920150  75.0186310 122.3102540  58.0720490
  61.6238280 124.6143020  58.0913470  62.3600760 124.0658480  58.3622040
  62.0079200 125.4799030  57.9519460  60.6296560 123.7989090  67.2799050
  61.4309290 124.1201140  67.6934450  60.1148380 123.4384670  68.0018960
  73.7870760 123.0143460  51.3375780  73.5012270 122.6008600  50.5229960
  73.5890310 123.9431170  51.2176300  65.2517990 119.0076740  49.7781390
  65.1468630 118.3929090  50.5042770  65.0842210 118.4842630  48.9944400
  68.4920720 118.0696770  50.3823380  67.9430820 118.5166070  51.0266120
  69.1139980 117.5646020  50.9061050  72.5455660 119.4238870  66.3145640
  73.2865130 119.7614630  65.8113100  71.7828340 119.5930930  65.7615410
  64.1595840 117.0287690  52.2788680  64.5812260 116.8627560  53.1220070
  64.2846680 116.2187920  51.7843820  71.6923490 114.8149860  66.8540000
  72.2744260 114.0602180  66.7660480  71.8685260 115.3457300  66.0771480
  65.5757000 108.5319850  62.1984340  65.1274300 108.5544110  61.3529890
  64.9422200 108.1338870  62.7954640  68.3180450 115.1590360  64.2034620
  68.4376660 114.5631500  64.9429460  69.1774450 115.1960050  63.7835920
  63.0554740 113.1020920  49.2246840  62.8543800 112.2388280  49.5860180
  62.8846790 113.0154280  48.2868440  69.9042650 111.3177520  65.6943460
  69.2158170 110.6559060  65.6293450  70.6248670 110.8715790  66.1391920
  61.8537540 110.2021540  49.2124720  62.1563440 110.2088970  48.3043870
  62.5932130 109.8519400  49.7092380  58.0913470 122.2952990  57.4974780
  58.4216480 121.4274050  57.2653420  58.5204470 122.5011510  58.3279740
  58.5803680 123.1623580  60.2356410  58.1434670 123.3424380  61.0680560
  59.1481360 123.9198200  60.0938130  74.2165860 122.6640580  64.5233720
  73.6167850 122.7233140  63.7797640  74.3459760 121.7245560  64.6530570
  74.9123770 117.1505880  52.3637630  75.6742680 117.7202530  52.4697320
  74.9278140 116.5833080  53.1345940  75.9183740 118.0055980  57.2079560
  76.2892570 117.2223300  56.8015530  76.5585670 118.6945080  57.0296860
  72.9017500 119.3892560  62.6209880  72.0877340 119.8189720  62.8835670
  73.3091700 120.0010970  62.0078930  74.8608280 115.3809240  54.5139580
  74.4851880 114.6137170  54.0820870  74.1311400 115.7631940  55.0014510
  74.2507900 114.5280760  64.1479100  74.0193990 114.2993510  63.2477050
  74.5112450 115.4480310  64.1023990  72.6895970 109.7537190  66.9258800
  73.5666150 109.7620590  67.3092800  72.7016810 109.0168030  66.3151150
  60.1693400 111.9408280  50.4465000  60.8785100 111.5191500  49.9612280
  59.4533340 112.0083510  49.8148350  73.4012090 107.4395160  62.7459910
  74.0384310 108.0529300  63.1119100  73.5486980 107.4755820  61.8009140
  72.9593550 124.1411160  56.1478150  73.5552620 123.8195730  55.4712570
  73.2171700 123.6682980  56.9391420  66.7716570 108.5921350  65.6535010
  66.7105460 109.1843180  66.4030420  67.7116950 108.4847310  65.5085270
  69.4091130 108.2491410  65.2927300  70.0231540 108.5670700  64.6308380
  69.9540690 107.7640000  65.9123160  75.8266310 124.1483040  62.6989140
  75.3324590 124.5451910  61.9816270  75.2179600 123.5232250  63.0926420
  70.1499170 106.8123550  61.6196590  69.2759010 107.1458660  61.4169520
  70.0409920 106.3396730  62.4448460  71.0571150 109.0194420  63.0038310
  70.7284510 108.2046180  62.6240040  72.0053450 108.9764230  62.8804000
  73.5105760 124.7906460  59.9775880  73.0508730 125.5422270  59.6033900
  72.8818220 124.0712930  59.9190680  67.8973990 107.7293390  60.5589500
  67.1145780 108.2038890  60.8386260  67.6036920 106.8248220  60.4502680
  72.4495060 108.4316490  58.6038590  72.8903150 108.3761590  57.7560190
  72.1802650 109.3474500  58.6748770  58.6186380 124.2024090  55.5771360
  58.4508420 123.5694770  56.2753250  57.7520890 124.4083490  55.2265550
  59.2414400 108.0340870  53.0803220  59.9993760 108.1469750  52.5067250
  58.7791570 108.8710070  53.0346650  65.7828210 110.1480140  56.0705530
  64.9702720 109.7737030  55.7301410  66.2869850 109.3925220  56.3726720
  70.2853190 106.8122590  57.3088600  70.8882560 107.3842800  57.7837120
  69.5446180 107.3762030  57.0862500  61.6139550 108.5604920  51.6205190
  62.1432310 107.7734720  51.4913140  62.2467870 109.2396110  51.8540720
  63.8077390 108.2980060  54.6750580  63.1780130 107.5967370  54.8420710
  63.2682530 109.0584190  54.4583740  74.9814400 124.4544860  54.3435440
  75.1566590 123.7682600  53.6996360  74.2835970 124.9791910  53.9512110
  63.9332950 107.5764040  67.1103070  63.6517220 108.0797640  66.3463890
  64.3152650 106.7785790  66.7445200  70.5348410 106.9917620  67.6883540
  70.4213860 107.3112230  68.5835060  71.3518150 107.3930130  67.3920820
  73.3146900 124.1389150  67.1702230  74.1072220 123.6438380  66.9628190
  73.6080050 124.8179290  67.7777840  67.8195340 123.4807310  38.3330670
  67.2006780 123.9364810  37.7625110  68.6747120 123.6358770  37.9320370
  67.0133590 119.4646300  39.9397710  66.9441870 118.5236240  39.7786840
  67.7753450 119.5547710  40.5120280  59.2040260 110.0700820  42.2654330
  59.0243100 109.1726570  42.5457090  58.8020340 110.6172690  42.9401280
  68.0438760 112.2716680  40.1666640  68.4203580 111.3988560  40.0540310
  67.9458270 112.6075380  39.2757080  71.8262880 109.7667120  37.0994980
  72.6472500 109.2763690  37.1420460  71.8596960 110.3564780  37.8526820
  76.1162430 111.7833870  43.6638610  75.4114600 112.1715580  43.1453720
  76.3820350 112.4784160  44.2659540  62.2987600 108.2527240  44.2272680
  62.3006040 108.7699630  43.4218580  61.4691910 107.7757420  44.2042610
  72.0624360 111.7067500  39.8722520  71.3579930 111.9952390  40.4525630
  72.4236520 112.5167610  39.5122080  61.9802930 109.9637200  42.2343130
  62.3219740 110.8079250  41.9397000  61.0418740 110.1120940  42.3508470
  58.0541890 119.0503080  33.1002210  57.6769870 119.5390180  32.3687110
  58.3114960 119.7228360  33.7308740  73.6787140 121.3242630  42.1350000
  72.9950660 121.9941740  42.1266670  74.2181430 121.5223280  41.3694860
  75.1311280 111.1522290  40.2631730  74.1836190 111.1861270  40.3947160
  75.4561270 111.9661240  40.6481090  65.6630820 107.4519470  38.5587720
  65.9705800 106.8966360  37.8423220  64.7331520 107.5863930  38.3760710
  71.2145880 123.1686760  40.8495180  71.2273040 122.7649050  39.9817440
  70.6621100 123.9434050  40.7456610  70.6131320 118.0716600  42.1777790
  71.0300110 117.8576710  41.3431250  71.3371140 118.3289390  42.7486410
  68.0380660 111.7885300  32.2915000  67.0984330 111.9499260  32.3767460
  68.3563920 112.5070980  31.7450990  74.5593420 116.4703820  42.2694030
  73.7312050 116.5396910  41.7944160  75.1543900 117.0558130  41.8009860
  71.5235430 113.2573140  43.2148900  71.1106610 114.0826850  43.4688890
  70.7911380 112.6718180  43.0225260  72.2135530 123.3032470  43.9029880
  71.7366090 124.1104660  43.7102490  71.5297320 122.6510800  44.0556090
  63.2168350 119.4682290  46.8914580  62.3196880 119.6922260  47.1387980
  63.2421220 119.5917230  45.9425980  68.3668950 121.2571480  36.7737080
  68.8064860 121.9995810  36.3592470  68.3055840 121.4998050  37.6976040
  63.8419920 122.2817310  47.6757100  63.8135350 122.6860260  46.8085530
  63.6784890 121.3527670  47.5128700  59.2405850 119.8093350  37.7949040
  58.8333930 119.9507940  36.9402640  60.1318860 119.5253510  37.5920250
  69.0584730 123.9585260  44.7016090  69.5729400 123.8693270  45.5038520
  68.2153810 124.3044960  44.9944000  63.5127510 124.0239130  35.9071710
  63.3369990 123.1074670  35.6939510  62.6583250 124.3826420  36.1469510
  70.3015190 123.3790870  36.7646580  70.7572140 122.5980250  37.0785200
  70.6407710 124.0897690  37.3087760  67.1106320 111.1481610  44.5633210
  66.6485690 111.3564630  45.3753150  66.7084430 110.3340960  44.2603880
  65.9395330 107.9023790  33.8403720  65.3149510 107.8983660  34.5657030
  65.8525450 107.0354750  33.4439690  64.8612410 108.8260420  40.8187490
  65.1584740 109.7323250  40.7379510  65.4097970 108.3379200  40.2047060
  65.0549940 114.3032240  47.3539410  64.9593540 113.3626970  47.2039810
  65.8981920 114.5247310  46.9587480  68.4513360 112.0473570  37.3173070
  68.8442930 112.3645770  36.5041760  68.8130210 111.1685450  37.4317590
  60.1860480 110.7145910  45.5073190  59.7923870 111.5621120  45.7145970
  59.4978880 110.0772280  45.6981830  57.4877530 108.6374370  39.5403270
  57.1990580 109.2077230  40.2528250  58.2323290 108.1578820  39.9034500
  57.6747760 112.5794490  30.7505990  57.5922430 113.5225250  30.8920980
  57.3230820 112.4369400  29.8718340  65.4745890 111.3133520  39.8176340
  65.4781950 110.8723470  38.9680880  66.3697010 111.6350850  39.9248160
  65.5366040 112.3145600  32.8083100  65.6578860 112.2732080  33.7568920
  65.1514550 113.1769750  32.6529830  69.4994410 110.0913000  40.8246790
  69.5167150 110.5421650  41.6688640  69.2509990 109.1918640  41.0380230
  64.5487540 114.6246740  32.2066400  63.9804440 114.1764990  31.5802310
  65.2576540 114.9839520  31.6731550  59.6256720 118.5258760  46.0833130
  59.2411510 117.8852430  46.6816090  59.9368910 119.2294880  46.6527860
  62.0935020 118.6204930  34.4792810  61.3197280 118.0802550  34.3191530
  62.8229650 118.1011540  34.1410570  72.8523000 117.6170290  40.2719200
  73.5722120 118.1125580  39.8815310  72.6504820 116.9388180  39.6273070
  68.3132940 109.0108250  34.4148590  67.4997550 108.5121420  34.3393900
  68.1194890 109.8506500  33.9984940  68.2341800 117.6879350  46.1588200
  68.1679110 116.7675020  45.9045790  67.6046940 117.7854790  46.8732840
  67.0241920 119.5551590  33.3898920  67.3657620 120.2993820  32.8942240
  66.1954630 119.8682710  33.7523750  59.6216960 115.2546680  45.0297320
  59.2631900 115.9200530  45.6170660  59.3271520 114.4230230  45.4009940
  62.8230080 115.7130920  47.9136870  62.5230220 115.8588100  47.0164690
  63.5941320 115.1536210  47.8210260  68.1658530 120.5099920  45.9092000
  68.1803070 119.5780880  45.6910910  67.4583630 120.5959680  46.5481770
  74.3769740 117.1507260  45.2560580  73.6517930 117.7436040  45.0589970
  74.9045200 117.1430800  44.4573950  65.9932610 119.6365120  36.1614840
  66.6803740 120.1834330  36.5422430  65.2065030 120.1805850  36.1964450
  65.2959820 116.6411150  35.7740200  65.7522600 117.4516400  36.0000390
  64.9448030 116.3234290  36.6058690  67.5992430 122.1517490  43.0032500
  68.2434650 122.3576870  43.6805920  67.9621870 121.3905890  42.5503350
  68.8724510 120.1549840  41.7209950  69.5146740 119.4543000  41.8342120
  69.3973860 120.9348280  41.5406840  70.6462130 120.9544740  44.9246010
  70.9818370 121.5411430  45.6023930  69.7262470 120.8237450  45.1543800
  58.4996260 124.4665320  32.2193550  58.8593900 125.0654660  31.5650820
  58.3588600 125.0125210  32.9928580  66.4750710 121.0036070  48.0934070
  66.1547580 120.2845310  48.6379760  65.8009070 121.6791140  48.1670130
  69.6904310 111.2362230  43.4570870  70.0585130 110.4157440  43.7850440
  68.8302510 111.2964120  43.8726520  73.0566340 110.1919170  34.2658430
  72.4279500 110.2964840  33.5516660  72.5618260 110.4115950  35.0552310
  67.5024480 121.9124760  31.6992410  67.6036460 121.7088750  30.7694390
  66.6026220 121.6583040  31.9040190  65.0250370 112.4705120  35.6816310
  64.3166520 112.9391460  36.1229920  65.3094850 111.8127130  36.3161500
  66.6506300 113.8901820  43.6808840  67.1491550 114.3647640  44.3460690
  66.7929250 112.9665340  43.8878870  69.0565800 109.1955780  37.1212100
  68.9333580 109.2141910  36.1721610  70.0050360 109.2434720  37.2410500
  66.1442590 124.4311080  36.3940080  66.3984090 124.3932470  35.4719450
  65.1955070 124.3044410  36.3868330  63.2285390 110.7790200  33.0567020
  64.0775920 111.2160350  32.9907210  62.8616660 111.0910460  33.8839080
  60.8223570 114.4647630  32.2135440  60.9027160 113.5175140  32.3252840
  61.7143320 114.7954510  32.3196100  74.1520750 122.5211810  39.6452850
  74.2768170 123.3442980  40.1176660  75.0186310 122.3102540  39.2977000
  61.6238280 124.6143020  39.3169980  62.3600760 124.0658480  39.5878550
  62.0079200 125.4799030  39.1775970  58.5083760 120.6816590  35.1911490
  57.5823540 120.9237730  35.1816900  58.9740190 121.5090850  35.0696240
  60.6296560 123.7989090  48.5055560  61.4309290 124.1201140  48.9190960
  60.1148380 123.4384670  49.2275470  64.7340590 123.7873330  31.1395550
  65.5269200 124.0762160  30.6877340  64.2144940 123.3565500  30.4608030
  69.4661190 119.9068960  48.4530970  68.8599350 119.9300560  47.7126720
  69.1615300 119.1752000  48.9898220  58.3494370 116.2862550  47.4491610
  58.8533390 115.7069830  48.0207840  57.6101790 116.5702780  47.9867980
  65.4032310 117.6933540  46.9827130  64.6377980 118.2618540  46.8981800
  65.5848270 117.4009750  46.0895360  72.5455660 119.4238870  47.5402150
  73.2865130 119.7614630  47.0369610  71.7828340 119.5930930  46.9871920
  60.3817450 114.4292140  48.3441680  60.4222790 114.1306010  49.2526910
  61.2362950 114.8299750  48.1849200  62.3223260 113.0084240  46.3116170
  61.7919720 112.5175190  45.6839510  62.9911330 113.4368440  45.7774100
  71.2201320 117.4753700  46.0757360  71.6342340 117.6298780  46.9247780
  70.2852320 117.6008920  46.2383140  62.8095560 109.9746610  46.3913460
  62.7152430 109.3567360  45.6664330  62.2292950 110.7012900  46.1643370
  65.5757000 108.5319850  43.4240850  65.1274300 108.5544110  42.5786400
  64.9422200 108.1338870  44.0211150  68.3180450 115.1590360  45.4291130
  68.4376660 114.5631500  46.1685970  69.1774450 115.1960050  45.0092430
  70.6568350 115.7127550  44.0053640  70.1303570 116.2370170  43.4018780
  70.9999690 116.3454940  44.6363370  63.0554740 113.1020920  30.4503350
  62.8543800 112.2388280  30.8116690  62.8846790 113.0154280  29.5124950
  63.8323970 123.7327190  45.1611020  63.2945060 124.4573250  44.8419720
  64.0857930 123.2557530  44.3708360  65.0849220 111.7011710  46.6866950
  65.6748910 111.3927560  47.3744770  64.2669460 111.2291460  46.8426850
  66.6886180 124.9678400  45.4197670  66.6144880 125.8713540  45.7270040
  65.7865020 124.6490300  45.3919740  65.0722470 109.1456160  31.4237430
  64.7244470 108.4680150  30.8439880  65.2735240 108.6845670  32.2380820
  72.9017500 119.3892560  43.8466390  72.0877340 119.8189720  44.1092180
  73.3091700 120.0010970  43.2335440  74.8608280 115.3809240  35.7396090
  74.4851880 114.6137170  35.3077380  74.1311400 115.7631940  36.2271020
  59.4504040 116.0596380  42.3605140  59.8177080 115.9723780  43.2401160
  58.8814860 115.2962930  42.2612000  74.2507900 114.5280760  45.3735610
  74.0193990 114.2993510  44.4733560  74.5112450 115.4480310  45.3280500
  59.0020040 112.9705470  46.2663560  58.1076090 112.9372230  46.6057270
  59.5417590 113.1692260  47.0314810  74.1359240 113.6066730  39.0403330
  74.6596720 113.1129380  38.4093500  74.7218660 113.7417090  39.7850900
  74.3148960 113.6906600  42.5622880  73.3651670 113.6570140  42.6767870
  74.4961970 114.6006710  42.3272650  60.1693400 111.9408280  31.6721510
  60.8785100 111.5191500  31.1868790  59.4533340 112.0083510  31.0404860
  73.6259210 112.8640080  34.9795740  74.1218330 112.6310950  35.7644620
  73.4275280 112.0251920  34.5633380  59.5059750 107.2453800  40.6146780
  60.1535940 106.6951180  40.1741940  59.9261590 107.4996950  41.4362590
  75.0546370 111.5001030  37.5133420  74.9445650 111.3457070  38.4515690
  75.8153960 110.9721970  37.2708830  75.9436640 109.3308950  30.7539560
  76.8685950 109.1990130  30.5457850  75.9212430 109.4101770  31.7076010
  76.0175130 110.1019610  33.3796270  75.2226630 110.0364730  33.9089180
  76.2218410 111.0370250  33.3681620  59.2591750 107.4009470  43.3572100
  58.9106570 107.8573290  44.1230280  58.9279450 106.5066600  43.4394530
  60.8656120 120.5729070  47.5225290  60.8225750 120.2021980  48.4039750
  60.9967130 121.5106640  47.6627110  64.5662150 122.1288660  43.1235010
  64.3253510 122.3963220  42.2365530  65.5064790 122.2994390  43.1785870
  66.7716570 108.5921350  46.8791520  66.7105460 109.1843180  47.6286930
  67.7116950 108.4847310  46.7341780  59.9312390 106.9285670  46.6322870
  60.4795380 106.7473720  45.8688980  59.9967700 106.1379780  47.1679180
  73.5105760 124.7906460  41.2032390  73.0508730 125.5422270  40.8290410
  72.8818220 124.0712930  41.1447190  63.9401480 123.0994700  40.3780520
  64.4566500 122.4882060  39.8528780  64.5898860 123.6023480  40.8691530
  66.6796980 123.9903190  41.2049500  66.9674790 123.7357490  40.3282510
  67.1920200 123.4380550  41.7955070  67.8973990 107.7293390  41.7846010
  67.1145780 108.2038890  42.0642770  67.6036920 106.8248220  41.6759190
  58.6186380 124.2024090  36.8027870  58.4508420 123.5694770  37.5009760
  57.7520890 124.4083490  36.4522060  65.7828210 110.1480140  37.2962040
  64.9702720 109.7737030  36.9557920  66.2869850 109.3925220  37.5983230
  70.2853190 106.8122590  38.5345110  70.8882560 107.3842800  39.0093630
  69.5446180 107.3762030  38.3119010  60.2249080 122.8957320  34.2478010
  59.6996700 123.2765350  33.5439970  60.1493660 123.5208090  34.9687720
  62.8242050 124.8439700  33.1227260  63.5560870 124.5598980  32.5751150
  63.0835720 124.6052980  34.0126640  69.4406560 115.0110090  19.2774790
  69.3600610 114.0964700  19.0066500  69.0270980 115.5077160  18.5714500
  67.5724600 116.7889110  21.1584060  66.7966700 116.3089550  21.4482630
  68.2237530 116.1094760  20.9840220  61.5890430 117.1008920  22.0359820
  60.7575310 116.8457630  22.4356330  62.1971410 117.1719690  22.7717740
  71.5932030 121.1949300  19.9383190  71.1313560 120.4236540  20.2670360
  72.4057580 121.2215370  20.4435640  61.5691690 121.1349010  22.2317840
  61.8719730 120.2446750  22.0528060  62.3135280 121.6919230  22.0040090
  59.9982380 112.0610810  15.8202210  59.1099080 112.4026780  15.7182090
  60.2823570 111.8611130  14.9283040  57.9615390 114.6616460  21.7041910
  58.5331500 113.8938660  21.7045550  57.9616930 114.9605220  20.7948520
  67.8195340 123.4807310  19.5587180  67.2006780 123.9364810  18.9881620
  68.6747120 123.6358770  19.1576880  67.0133590 119.4646300  21.1654220
  66.9441870 118.5236240  21.0043350  67.7753450 119.5547710  21.7376790
  59.2040260 110.0700820  23.4910840  59.0243100 109.1726570  23.7713600
  58.8020340 110.6172690  24.1657790  68.0438760 112.2716680  21.3923150
  68.4203580 111.3988560  21.2796820  67.9458270 112.6075380  20.5013590
  62.1743770 110.6442310  16.8540590  62.2810520 111.5446040  17.1609350
  61.2636130 110.5960280  16.5635240  71.8262880 109.7667120  18.3251490
  72.6472500 109.2763690  18.3676970  71.8596960 110.3564780  19.0783330
  59.8226930 112.5661320  22.0993180  60.5037040 112.8299690  22.7180580
  59.5074980 111.7262190  22.4331190  64.0151500 113.6128680  21.1865770
  64.5229720 114.1109650  21.8270790  64.5464740 112.8363880  21.0105130
  68.6858690 118.3646550  16.9519090  68.0675960 118.8296000  16.3881810
  69.1981940 119.0574030  17.3688600  63.5490450 117.8922420  23.6302690
  63.2159830 118.5191340  24.2723760  63.7257130 118.4184300  22.8504360
  72.0624360 111.7067500  21.0979030  71.3579930 111.9952390  21.6782140
  72.4236520 112.5167610  20.7378590  58.0541890 119.0503080  14.3258720
  57.6769870 119.5390180  13.5943620  58.3114960 119.7228360  14.9565250
  73.6787140 121.3242630  23.3606510  72.9950660 121.9941740  23.3523180
  74.2181430 121.5223280  22.5951370  75.1311280 111.1522290  21.4888240
  74.1836190 111.1861270  21.6203670  75.4561270 111.9661240  21.8737600
  65.6630820 107.4519470  19.7844230  65.9705800 106.8966360  19.0679730
  64.7331520 107.5863930  19.6017220  71.2145880 123.1686760  22.0751690
  71.2273040 122.7649050  21.2073950  70.6621100 123.9434050  21.9713120
  72.5091300 119.8902980  17.1641860  72.3987630 118.9477310  17.2891280
  72.5059550 120.2518620  18.0504620  70.6131320 118.0716600  23.4034300
  71.0300110 117.8576710  22.5687760  71.3371140 118.3289390  23.9742920
  68.0511580 115.5168300  16.5204350  67.1240860 115.4505680  16.7492820
  68.2036400 116.4548430  16.4059590  68.0380660 111.7885300  13.5171510
  67.0984330 111.9499260  13.6023970  68.3563920 112.5070980  12.9707500
  74.5593420 116.4703820  23.4950540  73.7312050 116.5396910  23.0200670
  75.1543900 117.0558130  23.0266370  72.0808870 117.0788600  17.0239600
  71.4621290 116.7408150  16.3765900  72.0633320 116.4348360  17.7318790
  63.6568220 116.0433040  19.3024080  63.2525220 115.3310290  18.8069980
  63.7431340 115.6986280  20.1912120  64.1249920 119.7300600  21.4663290
  63.8278210 119.1246070  20.7871070  65.0749740 119.7677910  21.3552650
  62.3696840 112.8176250  23.0823120  62.9211430 112.9271590  22.3076370
  62.8840350 113.1913850  23.7978350  72.2135530 123.3032470  25.1286390
  71.7366090 124.1104660  24.9359000  71.5297320 122.6510800  25.2812600
  70.2573570 116.3175410  14.0312350  70.6966850 115.4797840  13.8850170
  70.9701990 116.9504810  14.1176490  62.0439570 116.3395610  26.6928460
  61.9047340 117.2118410  27.0615860  61.1620930 115.9968420  26.5476400
  68.3668950 121.2571480  17.9993590  68.8064860 121.9995810  17.5848980
  68.3055840 121.4998050  18.9232550  73.8390710 107.5718220  12.3453390
  73.5263370 107.6645050  13.2452460  74.6003180 108.1499250  12.2950820
  60.3572850 114.9378020  16.8030730  60.2370450 115.6640110  16.1912000
  60.0473740 114.1680930  16.3258640  57.9958220 118.1093160  22.6099370
  58.0738640 118.2441930  21.6655090  58.6099900 117.4009050  22.8027490
  59.2405850 119.8093350  19.0205550  58.8333930 119.9507940  18.1659150
  60.1318860 119.5253510  18.8176760  75.1967990 120.2557260  27.3577790
  75.3231050 120.0169140  26.4394970  75.2389370 119.4241800  27.8299870
  69.0584730 123.9585260  25.9272600  69.5729400 123.8693270  26.7295030
  68.2153810 124.3044960  26.2200510  71.0339130 124.2440600  15.3556600
  70.8740270 123.9543540  16.2538430  70.8685840 123.4680730  14.8201830
  63.5127510 124.0239130  17.1328220  63.3369990 123.1074670  16.9196020
  62.6583250 124.3826420  17.3726020  70.7365260 121.7528160  13.9154600
  70.0430420 121.7505450  13.2556880  71.4788120 121.3287480  13.4848770
  70.3015190 123.3790870  17.9903090  70.7572140 122.5980250  18.3041710
  70.6407710 124.0897690  18.5344270  58.0517740 119.1507330  25.1493830
  58.2148780 118.6812690  24.3313200  58.5170190 118.6430890  25.8142670
  62.8236510 108.2813090  20.1854400  62.3804660 109.0622630  19.8538920
  63.3821500 108.6042980  20.8925340  65.9395330 107.9023790  15.0660230
  65.3149510 107.8983660  15.7913540  65.8525450 107.0354750  14.6696200
  64.8612410 108.8260420  22.0444000  65.1584740 109.7323250  21.9636020
  65.4097970 108.3379200  21.4303570  62.6150730 113.4046660  17.9135650
  62.3891650 113.1883830  18.8182270  61.8343260 113.8375120  17.5681620
  69.8448490 113.4110030  16.5126300  69.2457380 114.1345830  16.3289920
  70.3928100 113.3486810  15.7302750  68.4513360 112.0473570  18.5429580
  68.8442930 112.3645770  17.7298270  68.8130210 111.1685450  18.6574100
  60.1860480 110.7145910  26.7329700  59.7923870 111.5621120  26.9402480
  59.4978880 110.0772280  26.9238340  57.4877530 108.6374370  20.7659780
  57.1990580 109.2077230  21.4784760  58.2323290 108.1578820  21.1291010
  57.6747760 112.5794490  11.9762500  57.5922430 113.5225250  12.1177490
  57.3230820 112.4369400  11.0974850  65.4745890 111.3133520  21.0432850
  65.4781950 110.8723470  20.1937390  66.3697010 111.6350850  21.1504670
  61.3248270 111.1960010  20.0027060  60.9848320 111.6735240  20.7594110
  60.5625590 110.7425130  19.6428160  65.5366040 112.3145600  14.0339610
  65.6578860 112.2732080  14.9825430  65.1514550 113.1769750  13.8786340
  69.4994410 110.0913000  22.0503300  69.5167150 110.5421650  22.8945150
  69.2509990 109.1918640  22.2636740  64.5487540 114.6246740  13.4322910
  63.9804440 114.1764990  12.8058820  65.2576540 114.9839520  12.8988060
  59.6256720 118.5258760  27.3089640  59.2411510 117.8852430  27.9072600
  59.9368910 119.2294880  27.8784370  58.6394350 110.1178990  18.9191730
  58.3541270 109.7534660  19.7570350  58.5773210 109.3859450  18.3054870
  63.5653230 114.4143940  25.1082470  63.2610300 115.2935920  25.3332830
  64.5199690 114.4743730  25.1439910  62.0935020 118.6204930  15.7049320
  61.3197280 118.0802550  15.5448040  62.8229650 118.1011540  15.3667080
  72.8523000 117.6170290  21.4975710  73.5722120 118.1125580  21.1071820
  72.6504820 116.9388180  20.8529580  68.3132940 109.0108250  15.6405100
  67.4997550 108.5121420  15.5650410  68.1194890 109.8506500  15.2241450
  71.0281330 113.3827900  13.9367260  71.9160950 113.6945130  13.7618600
  70.9986420 112.5100150  13.5447840  62.1372420 118.2885310  19.3428130
  62.6551090 117.4853570  19.2885020  61.6856440 118.2264450  20.1844960
  67.0241920 119.5551590  14.6155430  67.3657620 120.2993820  14.1198750
  66.1954630 119.8682710  14.9780260  59.6216960 115.2546680  26.2553830
  59.2631900 115.9200530  26.8427170  59.3271520 114.4230230  26.6266450
  73.2995600 114.6939740  13.4047120  73.2159320 115.1253960  12.5543560
  74.0189790 115.1538090  13.8373940  74.3769740 117.1507260  26.4817090
  73.6517930 117.7436040  26.2846480  74.9045200 117.1430800  25.6830460
  74.3282850 121.5482000  16.1329250  73.6859010 120.8937620  16.4072970
  73.9413510 121.9537090  15.3569920  69.9069330 118.8767430  19.9800940
  70.2593150 118.2795560  19.3202310  69.0231660 118.5511660  20.1509190
  65.9932610 119.6365120  17.3871350  66.6803740 120.1834330  17.7678940
  65.2065030 120.1805850  17.4220960  58.1325010 115.2537940  12.8788430
  59.0019860 115.5362740  13.1624350  57.6415330 116.0673810  12.7637240
  65.2959820 116.6411150  16.9996710  65.7522600 117.4516400  17.2256900
  64.9448030 116.3234290  17.8315200  67.5992430 122.1517490  24.2289010
  68.2434650 122.3576870  24.9062430  67.9621870 121.3905890  23.7759860
  61.1971600 106.9848800  17.4719230  61.0686230 106.9766700  18.4204150
  60.3733620 107.3231890  17.1210240  68.8724510 120.1549840  22.9466460
  69.5146740 119.4543000  23.0598630  69.3973860 120.9348280  22.7663350
  72.7180230 120.4398460  12.6705600  72.4917810 119.7228900  13.2630240
  72.3276430 120.1910900  11.8327350  70.6462130 120.9544740  26.1502520
  70.9818370 121.5411430  26.8280440  69.7262470 120.8237450  26.3800310
  58.4996260 124.4665320  13.4450060  58.8593900 125.0654660  12.7907330
  58.3588600 125.0125210  14.2185090  58.1965530 108.7439920  26.9325930
  57.4824050 108.9436840  27.5378540  58.6160570 107.9679490  27.3040730
  72.2996480 118.3570400  14.3319760  72.0118180 118.8183090  15.1197640
  73.0948650 117.8968170  14.6003980  58.4838120 122.7320180  27.9192460
  58.5929240 121.7914920  27.7787850  57.8318680 122.9974930  27.2706190
  64.5164880 121.8496520  14.2623730  64.5074980 122.5826210  13.6468240
  63.5963240 121.6028100  14.3550690  60.1171520 117.0711410  15.0070490
  59.5099470 117.8110310  15.0165790  60.5920870 117.1610770  14.1808690
  73.0566340 110.1919170  15.4914940  72.4279500 110.2964840  14.7773170
  72.5618260 110.4115950  16.2808820  67.5024480 121.9124760  12.9248920
  67.6036460 121.7088750  11.9950900  66.6026220 121.6583040  13.1296700
  65.0250370 112.4705120  16.9072820  64.3166520 112.9391460  17.3486430
  65.3094850 111.8127130  17.5418010  69.0565800 109.1955780  18.3468610
  68.9333580 109.2141910  17.3978120  70.0050360 109.2434720  18.4667010
  66.1442590 124.4311080  17.6196590  66.3984090 124.3932470  16.6975960
  65.1955070 124.3044410  17.6124840  63.2285390 110.7790200  14.2823530
  64.0775920 111.2160350  14.2163720  62.8616660 111.0910460  15.1095590
  72.1495170 115.3502960  19.1955100  71.2085310 115.3653190  19.3702790
  72.4639240 114.5638920  19.6415400  62.1276810 117.0322560  12.7559060
  62.8940080 116.9203920  13.3184490  62.2051500 116.3360530  12.1035830
  60.8223570 114.4647630  13.4391950  60.9027160 113.5175140  13.5509350
  61.7143320 114.7954510  13.5452610  74.1520750 122.5211810  20.8709360
  74.2768170 123.3442980  21.3433170  75.0186310 122.3102540  20.5233510
  61.6238280 124.6143020  20.5426490  62.3600760 124.0658480  20.8135060
  62.0079200 125.4799030  20.4032480  58.5083760 120.6816590  16.4168000
  57.5823540 120.9237730  16.4073410  58.9740190 121.5090850  16.2952750
  60.6296560 123.7989090  29.7312070  61.4309290 124.1201140  30.1447470
  60.1148380 123.4384670  30.4531980  64.7340590 123.7873330  12.3652060
  65.5269200 124.0762160  11.9133850  64.2144940 123.3565500  11.6864540
  70.8961560 123.6349250  28.2896890  71.8483310 123.5507270  28.2397130
  70.7489780 124.2990960  28.9630680  73.7870760 123.0143460  13.7888800
  73.5012270 122.6008600  12.9742980  73.5890310 123.9431170  13.6689320
  58.3494370 116.2862550  28.6748120  58.8533390 115.7069830  29.2464350
  57.6101790 116.5702780  29.2124490  65.2517990 119.0076740  12.2294410
  65.1468630 118.3929090  12.9555790  65.0842210 118.4842630  11.4457420
  68.4920720 118.0696770  12.8336400  67.9430820 118.5166070  13.4779140
  69.1139980 117.5646020  13.3574070  60.3817450 114.4292140  29.5698190
  60.4222790 114.1306010  30.4783420  61.2362950 114.8299750  29.4105710
  64.1595840 117.0287690  14.7301700  64.5812260 116.8627560  15.5733090
  64.2846680 116.2187920  14.2356840  62.3223260 113.0084240  27.5372680
  61.7919720 112.5175190  26.9096020  62.9911330 113.4368440  27.0030610
  66.6723480 116.0525300  11.9778800  67.1929140 115.3374320  11.6119950
  67.3191880 116.6911170  12.2779310  65.5757000 108.5319850  24.6497360
  65.1274300 108.5544110  23.8042910  64.9422200 108.1338870  25.2467660
  63.0554740 113.1020920  11.6759860  62.8543800 112.2388280  12.0373200
  62.8846790 113.0154280  10.7381460  63.8323970 123.7327190  26.3867530
  63.2945060 124.4573250  26.0676230  64.0857930 123.2557530  25.5964870
  69.9042650 111.3177520  28.1456480  69.2158170 110.6559060  28.0806470
  70.6248670 110.8715790  28.5904940  70.5343050 107.9129150  14.2046740
  70.8145340 107.0697050  14.5606160  69.7608780 108.1452260  14.7185490
  61.8537540 110.2021540  11.6637740  62.1563440 110.2088970  10.7556890
  62.5932130 109.8519400  12.1605400  66.6886180 124.9678400  26.6454180
  66.6144880 125.8713540  26.9526550  65.7865020 124.6490300  26.6176250
  65.0722470 109.1456160  12.6493940  64.7244470 108.4680150  12.0696390
  65.2735240 108.6845670  13.4637330  67.2371510 124.1336910  14.2680540
  68.1322300 124.4721880  14.2899300  67.2689140 123.4116320  13.6404820
  60.8767670 119.5063960  12.4967540  61.3142540 120.0493630  13.1525120
  61.3615400 118.6810910  12.5063880  58.0913470 122.2952990  19.9487800
  58.4216480 121.4274050  19.7166440  58.5204470 122.5011510  20.7792760
  62.6875390 120.6262000  17.6089770  62.3870930 120.5026970  18.5093680
  62.5812880 119.7670590  17.2005500  58.5803680 123.1623580  22.6869430
  58.1434670 123.3424380  23.5193580  59.1481360 123.9198200  22.5451150
  74.2165860 122.6640580  26.9746740  73.6167850 122.7233140  26.2310660
  74.3459760 121.7245560  27.1043590  75.4567310 120.4058400  12.3116450
  74.6260270 120.4735050  12.7823680  75.6339140 121.2962520  12.0083310
  74.9123770 117.1505880  14.8150650  75.6742680 117.7202530  14.9210340
  74.9278140 116.5833080  15.5858960  58.4128110 115.6743810  19.0458310
  57.7576950 115.4055450  18.4018010  59.2506060 115.5648290  18.5960290
  75.9183740 118.0055980  19.6592580  76.2892570 117.2223300  19.2528550
  76.5585670 118.6945080  19.4809880  72.9017500 119.3892560  25.0722900
  72.0877340 119.8189720  25.3348690  73.3091700 120.0010970  24.4591950
  74.9642940 117.4440250  11.9723170  75.2391780 118.3519130  11.8442390
  74.7753680 117.3802780  12.9085160  71.3618550 110.4685100  13.2676800
  71.7803430 110.2816080  12.4273460  71.0554610 109.6164150  13.5779730
  74.8608280 115.3809240  16.9652600  74.4851880 114.6137170  16.5333890
  74.1311400 115.7631940  17.4527530  59.4504040 116.0596380  23.5861650
  59.8177080 115.9723780  24.4657670  58.8814860 115.2962930  23.4868510
  59.0020040 112.9705470  27.4920070  58.1076090 112.9372230  27.8313780
  59.5417590 113.1692260  28.2571320  72.6895970 109.7537190  29.3771820
  73.5666150 109.7620590  29.7605820  72.7016810 109.0168030  28.7664170
  57.6266190 112.8842740  14.9883640  56.7230270 113.1472940  14.8135300
  58.1106810 113.1553910  14.2083600  74.1359240 113.6066730  20.2659840
  74.6596720 113.1129380  19.6350010  74.7218660 113.7417090  21.0107410
  60.1693400 111.9408280  12.8978020  60.8785100 111.5191500  12.4125300
  59.4533340 112.0083510  12.2661370  59.8167560 107.9947610  11.9380670
  60.5395690 108.5356550  12.2561890  60.0892080 107.7211030  11.0622210
  73.6259210 112.8640080  16.2052250  74.1218330 112.6310950  16.9901130
  73.4275280 112.0251920  15.7889890  59.5059750 107.2453800  21.8403290
  60.1535940 106.6951180  21.3998450  59.9261590 107.4996950  22.6619100
  75.0546370 111.5001030  18.7389930  74.9445650 111.3457070  19.6772200
  75.8153960 110.9721970  18.4965340  73.4012090 107.4395160  25.1972930
  74.0384310 108.0529300  25.5632120  73.5486980 107.4755820  24.2522160
  75.9436640 109.3308950  11.9796070  76.8685950 109.1990130  11.7714360
  75.9212430 109.4101770  12.9332520  76.0175130 110.1019610  14.6052780
  75.2226630 110.0364730  15.1345690  76.2218410 111.0370250  14.5938130
  72.9593550 124.1411160  18.5991170  73.5552620 123.8195730  17.9225590
  73.2171700 123.6682980  19.3904440  59.2591750 107.4009470  24.5828610
  58.9106570 107.8573290  25.3486790  58.9279450 106.5066600  24.6651040
  64.5662150 122.1288660  24.3491520  64.3253510 122.3963220  23.4622040
  65.5064790 122.2994390  24.4042380  75.8266310 124.1483040  25.1502160
  75.3324590 124.5451910  24.4329290  75.2179600 123.5232250  25.5439440
  60.7044150 123.5191320  25.8679580  60.1104470 123.3876020  26.6069620
  60.6967990 122.6829460  25.4021680  70.1499170 106.8123550  24.0709610
  69.2759010 107.1458660  23.8682540  70.0409920 106.3396730  24.8961480
  71.0571150 109.0194420  25.4551330  70.7284510 108.2046180  25.0753060
  72.0053450 108.9764230  25.3317020  73.5105760 124.7906460  22.4288900
  73.0508730 125.5422270  22.0546920  72.8818220 124.0712930  22.3703700
  60.3356380 120.8849700  24.8187620  59.6090440 120.2654990  24.7513570
  60.3965530 121.2790310  23.9485700  63.9401480 123.0994700  21.6037030
  64.4566500 122.4882060  21.0785290  64.5898860 123.6023480  22.0948040
  66.6796980 123.9903190  22.4306010  66.9674790 123.7357490  21.5539020
  67.1920200 123.4380550  23.0211580  67.8973990 107.7293390  23.0102520
  67.1145780 108.2038890  23.2899280  67.6036920 106.8248220  22.9015700
  72.4495060 108.4316490  21.0551610  72.8903150 108.3761590  20.2073210
  72.1802650 109.3474500  21.1261790  74.3133630 108.0631730  19.0660430
  74.2522030 107.1192950  18.9191450  75.0925660 108.1711820  19.6113890
  58.6186380 124.2024090  18.0284380  58.4508420 123.5694770  18.7266270
  57.7520890 124.4083490  17.6778570  59.2414400 108.0340870  15.5316240
  59.9993760 108.1469750  14.9580270  58.7791570 108.8710070  15.4859670
  65.7828210 110.1480140  18.5218550  64.9702720 109.7737030  18.1814430
  66.2869850 109.3925220  18.8239740  70.2853190 106.8122590  19.7601620
  70.8882560 107.3842800  20.2350140  69.5446180 107.3762030  19.5375520
  73.4287790 107.2144150  15.0341900  73.6238420 108.1127600  15.3009330
  72.6417660 106.9831230  15.5274850  60.2249080 122.8957320  15.4734520
  59.6996700 123.2765350  14.7696480  60.1493660 123.5208090  16.1944230
  61.6139550 108.5604920  14.0718210  62.1432310 107.7734720  13.9426160
  62.2467870 109.2396110  14.3053740  63.8077390 108.2980060  17.1263600
  63.1780130 107.5967370  17.2933730  63.2682530 109.0584190  16.9096760
  66.7469340 124.9119290  29.7974210  67.6736650 124.6763560  29.8410170
  66.7319770 125.7391290  29.3160240  74.9814400 124.4544860  16.7948460
  75.1566590 123.7682600  16.1509380  74.2835970 124.9791910  16.4025130
  62.8242050 124.8439700  14.3483770  63.5560870 124.5598980  13.8007660
  63.0835720 124.6052980  15.2383150  61.9856840 120.9604430  14.3530100
  61.3565720 121.4289530  14.9015930  62.1004670 120.1153650  14.7876290
  73.3146900 124.1389150  29.6215250  74.1072220 123.6438380  29.4141210
  73.6080050 124.8179290  30.2290860  67.5724600 116.7889110   2.3840570
  66.7966700 116.3089550   2.6739140  68.2237530 116.1094760   2.2096730
  61.5890430 117.1008920   3.2616330  60.7575310 116.8457630   3.6612840
  62.1971410 117.1719690   3.9974250  61.5691690 121.1349010   3.4574350
  61.8719730 120.2446750   3.2784570  62.3135280 121.6919230   3.2296600
  57.9615390 114.6616460   2.9298420  58.5331500 113.8938660   2.9302060
  57.9616930 114.9605220   2.0205030  67.0133590 119.4646300   2.3910730
  66.9441870 118.5236240   2.2299860  67.7753450 119.5547710   2.9633300
  59.2040260 110.0700820   4.7167350  59.0243100 109.1726570   4.9970110
  58.8020340 110.6172690   5.3914300  68.0438760 112.2716680   2.6179660
  68.4203580 111.3988560   2.5053330  67.9458270 112.6075380   1.7270100
  59.8226930 112.5661320   3.3249690  60.5037040 112.8299690   3.9437090
  59.5074980 111.7262190   3.6587700  64.0151500 113.6128680   2.4122280
  64.5229720 114.1109650   3.0527300  64.5464740 112.8363880   2.2361640
  76.1162430 111.7833870   6.1151630  75.4114600 112.1715580   5.5966740
  76.3820350 112.4784160   6.7172560  62.2987600 108.2527240   6.6785700
  62.3006040 108.7699630   5.8731600  61.4691910 107.7757420   6.6555630
  63.5490450 117.8922420   4.8559200  63.2159830 118.5191340   5.4980270
  63.7257130 118.4184300   4.0760870  72.0624360 111.7067500   2.3235540
  71.3579930 111.9952390   2.9038650  72.4236520 112.5167610   1.9635100
  61.9802930 109.9637200   4.6856150  62.3219740 110.8079250   4.3910020
  61.0418740 110.1120940   4.8021490  62.7609550 119.8603220   6.6708380
  63.3783550 120.5354300   6.3892830  61.9002670 120.2691200   6.5795880
  73.6787140 121.3242630   4.5863020  72.9950660 121.9941740   4.5779690
  74.2181430 121.5223280   3.8207880  75.1311280 111.1522290   2.7144750
  74.1836190 111.1861270   2.8460180  75.4561270 111.9661240   3.0994110
  71.2145880 123.1686760   3.3008200  71.2273040 122.7649050   2.4330460
  70.6621100 123.9434050   3.1969630  70.6131320 118.0716600   4.6290810
  71.0300110 117.8576710   3.7944270  71.3371140 118.3289390   5.1999430
  74.5593420 116.4703820   4.7207050  73.7312050 116.5396910   4.2457180
  75.1543900 117.0558130   4.2522880  71.5235430 113.2573140   5.6661920
  71.1106610 114.0826850   5.9201910  70.7911380 112.6718180   5.4738280
  64.1249920 119.7300600   2.6919800  63.8278210 119.1246070   2.0127580
  65.0749740 119.7677910   2.5809160  62.3696840 112.8176250   4.3079630
  62.9211430 112.9271590   3.5332880  62.8840350 113.1913850   5.0234860
  72.2135530 123.3032470   6.3542900  71.7366090 124.1104660   6.1615510
  71.5297320 122.6510800   6.5069110  63.2168350 119.4682290   9.3427600
  62.3196880 119.6922260   9.5901000  63.2421220 119.5917230   8.3939000
  62.0439570 116.3395610   7.9184970  61.9047340 117.2118410   8.2872370
  61.1620930 115.9968420   7.7732910  63.8419920 122.2817310  10.1270120
  63.8135350 122.6860260   9.2598550  63.6784890 121.3527670   9.9641720
  75.7934740 123.0644410  11.4234290  76.2694460 123.5427300  12.1023370
  76.4141900 122.9961900  10.6979790  57.9958220 118.1093160   3.8355880
  58.0738640 118.2441930   2.8911600  58.6099900 117.4009050   4.0284000
  75.1967990 120.2557260   8.5834300  75.3231050 120.0169140   7.6651480
  75.2389370 119.4241800   9.0556380  69.0584730 123.9585260   7.1529110
  69.5729400 123.8693270   7.9551540  68.2153810 124.3044960   7.4457020
  75.0492000 112.3089720   9.5484040  74.4336270 112.8169390   9.0199500
  74.7288420 111.4088050   9.4909980  58.0517740 119.1507330   6.3750340
  58.2148780 118.6812690   5.5569710  58.5170190 118.6430890   7.0399180
  67.1106320 111.1481610   7.0146230  66.6485690 111.3564630   7.8266170
  66.7084430 110.3340960   6.7116900  72.1110830 112.3690560   8.1442890
  71.2604420 112.0696310   8.4651960  71.9512620 112.6132570   7.2326710
  69.2060540 113.8692310  10.2441680  69.5313950 113.0356060   9.9043910
  69.9940870 114.3920830  10.3920010  64.8612410 108.8260420   3.2700510
  65.1584740 109.7323250   3.1892530  65.4097970 108.3379200   2.6560080
  65.0549940 114.3032240   9.8052430  64.9593540 113.3626970   9.6552830
  65.8981920 114.5247310   9.4100500  60.1860480 110.7145910   7.9586210
  59.7923870 111.5621120   8.1658990  59.4978880 110.0772280   8.1494850
  66.7605530 110.7980880  11.0282950  66.0703850 110.6053080  11.6629040
  67.5037830 111.0815520  11.5607250  57.4877530 108.6374370   1.9916290
  57.1990580 109.2077230   2.7041270  58.2323290 108.1578820   2.3547520
  69.0368500 114.6379320   3.8636870  68.3049620 115.1466130   4.2126970
  68.6392840 113.8209300   3.5625650  65.4745890 111.3133520   2.2689360
  65.4781950 110.8723470   1.4193900  66.3697010 111.6350850   2.3761180
  69.4994410 110.0913000   3.2759810  69.5167150 110.5421650   4.1201660
  69.2509990 109.1918640   3.4893250  72.9265160 107.5045180   9.1146190
  73.2510930 106.7734840   9.6404170  72.9621670 107.1858820   8.2127180
  59.6256720 118.5258760   8.5346150  59.2411510 117.8852430   9.1329110
  59.9368910 119.2294880   9.1040880  65.7753860 115.3735300   4.0154770
  66.1423990 114.8993870   4.7616110  65.5858920 116.2476870   4.3563110
  63.5653230 114.4143940   6.3338980  63.2610300 115.2935920   6.5589340
  64.5199690 114.4743730   6.3696420  72.8523000 117.6170290   2.7232220
  73.5722120 118.1125580   2.3328330  72.6504820 116.9388180   2.0786090
  68.2341800 117.6879350   8.6101220  68.1679110 116.7675020   8.3558810
  67.6046940 117.7854790   9.3245860  59.6216960 115.2546680   7.4810340
  59.2631900 115.9200530   8.0683680  59.3271520 114.4230230   7.8522960
  62.8230080 115.7130920  10.3649890  62.5230220 115.8588100   9.4677710
  63.5941320 115.1536210  10.2723280  68.1658530 120.5099920   8.3605020
  68.1803070 119.5780880   8.1423930  67.4583630 120.5959680   8.9994790
  74.3769740 117.1507260   7.7073600  73.6517930 117.7436040   7.5102990
  74.9045200 117.1430800   6.9086970  67.5992430 122.1517490   5.4545520
  68.2434650 122.3576870   6.1318940  67.9621870 121.3905890   5.0016370
  68.8724510 120.1549840   4.1722970  69.5146740 119.4543000   4.2855140
  69.3973860 120.9348280   3.9919860  70.6462130 120.9544740   7.3759030
  70.9818370 121.5411430   8.0536950  69.7262470 120.8237450   7.6056820
  58.1965530 108.7439920   8.1582440  57.4824050 108.9436840   8.7635050
  58.6160570 107.9679490   8.5297240  58.4838120 122.7320180   9.1448970
  58.5929240 121.7914920   9.0044360  57.8318680 122.9974930   8.4962700
  66.4750710 121.0036070  10.5447090  66.1547580 120.2845310  11.0892780
  65.8009070 121.6791140  10.6183150  69.6904310 111.2362230   5.9083890
  70.0585130 110.4157440   6.2363460  68.8302510 111.2964120   6.3239540
  66.6506300 113.8901820   6.1321860  67.1491550 114.3647640   6.7973710
  66.7929250 112.9665340   6.3391890  73.8573160 110.1069780   6.9750250
  73.3546760 110.8475180   7.3144060  74.6729820 110.4953780   6.6587040
  74.1520750 122.5211810   2.0965870  74.2768170 123.3442980   2.5689680
  75.0186310 122.3102540   1.7490020  61.6238280 124.6143020   1.7683000
  62.3600760 124.0658480   2.0391570  62.0079200 125.4799030   1.6288990
  60.6296560 123.7989090  10.9568580  61.4309290 124.1201140  11.3703980
  60.1148380 123.4384670  11.6788490  69.4661190 119.9068960  10.9043990
  68.8599350 119.9300560  10.1639740  69.1615300 119.1752000  11.4411240
  70.8961560 123.6349250   9.5153400  71.8483310 123.5507270   9.4653640
  70.7489780 124.2990960  10.1887190  58.3494370 116.2862550   9.9004630
  58.8533390 115.7069830  10.4720860  57.6101790 116.5702780  10.4381000
  65.4032310 117.6933540   9.4340150  64.6377980 118.2618540   9.3494820
  65.5848270 117.4009750   8.5408380  72.5455660 119.4238870   9.9915170
  73.2865130 119.7614630   9.4882630  71.7828340 119.5930930   9.4384940
  60.3817450 114.4292140  10.7954700  60.4222790 114.1306010  11.7039930
  61.2362950 114.8299750  10.6362220  62.3223260 113.0084240   8.7629190
  61.7919720 112.5175190   8.1352530  62.9911330 113.4368440   8.2287120
  71.2201320 117.4753700   8.5270380  71.6342340 117.6298780   9.3760800
  70.2852320 117.6008920   8.6896160  71.6923490 114.8149860  10.5309530
  72.2744260 114.0602180  10.4430010  71.8685260 115.3457300   9.7541010
  62.8095560 109.9746610   8.8426480  62.7152430 109.3567360   8.1177350
  62.2292950 110.7012900   8.6156390  65.5757000 108.5319850   5.8753870
  65.1274300 108.5544110   5.0299420  64.9422200 108.1338870   6.4724170
  65.9816550 117.4274180   6.4966310  66.4004660 118.2706910   6.3242550
  65.0625180 117.5646220   6.2673090  68.3180450 115.1590360   7.8804150
  68.4376660 114.5631500   8.6198990  69.1774450 115.1960050   7.4605450
  70.6568350 115.7127550   6.4566660  70.1303570 116.2370170   5.8531800
  70.9999690 116.3454940   7.0876390  63.8323970 123.7327190   7.6124040
  63.2945060 124.4573250   7.2932740  64.0857930 123.2557530   6.8221380
  65.0849220 111.7011710   9.1379970  65.6748910 111.3927560   9.8257790
  64.2669460 111.2291460   9.2939870  69.9042650 111.3177520   9.3712990
  69.2158170 110.6559060   9.3062980  70.6248670 110.8715790   9.8161450
  66.6886180 124.9678400   7.8710690  66.6144880 125.8713540   8.1783060
  65.7865020 124.6490300   7.8432760  58.5803680 123.1623580   3.9125940
  58.1434670 123.3424380   4.7450090  59.1481360 123.9198200   3.7707660
  74.2165860 122.6640580   8.2003250  73.6167850 122.7233140   7.4567170
  74.3459760 121.7245560   8.3300100  72.9017500 119.3892560   6.2979410
  72.0877340 119.8189720   6.5605200  73.3091700 120.0010970   5.6848460
  59.4504040 116.0596380   4.8118160  59.8177080 115.9723780   5.6914180
  58.8814860 115.2962930   4.7125020  74.2507900 114.5280760   7.8248630
  74.0193990 114.2993510   6.9246580  74.5112450 115.4480310   7.7793520
  59.0020040 112.9705470   8.7176580  58.1076090 112.9372230   9.0570290
  59.5417590 113.1692260   9.4827830  72.6895970 109.7537190  10.6028330
  73.5666150 109.7620590  10.9862330  72.7016810 109.0168030   9.9920680
  74.3148960 113.6906600   5.0135900  73.3651670 113.6570140   5.1280890
  74.4961970 114.6006710   4.7785670  59.5059750 107.2453800   3.0659800
  60.1535940 106.6951180   2.6254960  59.9261590 107.4996950   3.8875610
  73.4012090 107.4395160   6.4229440  74.0384310 108.0529300   6.7888630
  73.5486980 107.4755820   5.4778670  59.2591750 107.4009470   5.8085120
  58.9106570 107.8573290   6.5743300  58.9279450 106.5066600   5.8907550
  60.8656120 120.5729070   9.9738310  60.8225750 120.2021980  10.8552770
  60.9967130 121.5106640  10.1140130  64.5662150 122.1288660   5.5748030
  64.3253510 122.3963220   4.6878550  65.5064790 122.2994390   5.6298890
  66.7716570 108.5921350   9.3304540  66.7105460 109.1843180  10.0799950
  67.7116950 108.4847310   9.1854800  69.4091130 108.2491410   8.9696830
  70.0231540 108.5670700   8.3077910  69.9540690 107.7640000   9.5892690
  75.8266310 124.1483040   6.3758670  75.3324590 124.5451910   5.6585800
  75.2179600 123.5232250   6.7695950  59.9312390 106.9285670   9.0835890
  60.4795380 106.7473720   8.3202000  59.9967700 106.1379780   9.6192200
  60.7044150 123.5191320   7.0936090  60.1104470 123.3876020   7.8326130
  60.6967990 122.6829460   6.6278190  70.1499170 106.8123550   5.2966120
  69.2759010 107.1458660   5.0939050  70.0409920 106.3396730   6.1217990
  71.0571150 109.0194420   6.6807840  70.7284510 108.2046180   6.3009570
  72.0053450 108.9764230   6.5573530  73.5105760 124.7906460   3.6545410
  73.0508730 125.5422270   3.2803430  72.8818220 124.0712930   3.5960210
  60.3356380 120.8849700   6.0444130  59.6090440 120.2654990   5.9770080
  60.3965530 121.2790310   5.1742210  63.9401480 123.0994700   2.8293540
  64.4566500 122.4882060   2.3041800  64.5898860 123.6023480   3.3204550
  66.6796980 123.9903190   3.6562520  66.9674790 123.7357490   2.7795530
  67.1920200 123.4380550   4.2468090  67.8973990 107.7293390   4.2359030
  67.1145780 108.2038890   4.5155790  67.6036920 106.8248220   4.1272210
  72.4495060 108.4316490   2.2808120  72.8903150 108.3761590   1.4329720
  72.1802650 109.3474500   2.3518300  66.7469340 124.9119290  11.0230720
  67.6736650 124.6763560  11.0666680  66.7319770 125.7391290  10.5416750
  63.9332950 107.5764040  10.7872600  63.6517220 108.0797640  10.0233420
  64.3152650 106.7785790  10.4214730  70.5348410 106.9917620  11.3653070
  70.4213860 107.3112230  12.2604590  71.3518150 107.3930130  11.0690350
  73.3146900 124.1389150  10.8471760  74.1072220 123.6438380  10.6397720
  73.6080050 124.8179290  11.4547370  69.4406560  96.2366600 150.6979220
  69.3600610  95.3221210 150.4270930  69.0270980  96.7333670 149.9918930
  67.5724600  98.0145620 152.5788490  66.7966700  97.5346060 152.8687060
  68.2237530  97.3351270 152.4044650  71.5932030 102.4205810 151.3587620
  71.1313560 101.6493050 151.6874790  72.4057580 102.4471880 151.8640070
  59.9982380  93.2867320 147.2406640  59.1099080  93.6283290 147.1386520
  60.2823570  93.0867640 146.3487470  57.9615390  95.8872970 153.1246340
  58.5331500  95.1195170 153.1249980  57.9616930  96.1861730 152.2152950
  67.8195340 104.7063820 150.9791610  67.2006780 105.1621320 150.4086050
  68.6747120 104.8615280 150.5781310  67.0133590 100.6902810 152.5858650
  66.9441870  99.7492750 152.4247780  67.7753450 100.7804220 153.1581220
  68.0438760  93.4973190 152.8127580  68.4203580  92.6245070 152.7001250
  67.9458270  93.8331890 151.9218020  62.1743770  91.8698820 148.2745020
  62.2810520  92.7702550 148.5813780  61.2636130  91.8216790 147.9839670
  71.8262880  90.9923630 149.7455920  72.6472500  90.5020200 149.7881400
  71.8596960  91.5821290 150.4987760  68.6858690  99.5903060 148.3723520
  68.0675960 100.0552510 147.8086240  69.1981940 100.2830540 148.7893030
  72.0624360  92.9324010 152.5183460  71.3579930  93.2208900 153.0986570
  72.4236520  93.7424120 152.1583020  58.0541890 100.2759590 145.7463150
  57.6769870 100.7646690 145.0148050  58.3114960 100.9484870 146.3769680
  65.6630820  88.6775980 151.2048660  65.9705800  88.1222870 150.4884160
  64.7331520  88.8120440 151.0221650  72.5091300 101.1159490 148.5846290
  72.3987630 100.1733820 148.7095710  72.5059550 101.4775130 149.4709050
  68.0511580  96.7424810 147.9408780  67.1240860  96.6762190 148.1697250
  68.2036400  97.6804940 147.8264020  68.0380660  93.0141810 144.9375940
  67.0984330  93.1755770 145.0228400  68.3563920  93.7327490 144.3911930
  72.0808870  98.3045110 148.4444030  71.4621290  97.9664660 147.7970330
  72.0633320  97.6604870 149.1523220  63.6568220  97.2689550 150.7228510
  63.2525220  96.5566800 150.2274410  63.7431340  96.9242790 151.6116550
  64.1249920 100.9557110 152.8867720  63.8278210 100.3502580 152.2075500
  65.0749740 100.9934420 152.7757080  70.2573570  97.5431920 145.4516780
  70.6966850  96.7054350 145.3054600  70.9701990  98.1761320 145.5380920
  68.3668950 102.4827990 149.4198020  68.8064860 103.2252320 149.0053410
  68.3055840 102.7254560 150.3436980  73.8390710  88.7974730 143.7657820
  73.5263370  88.8901560 144.6656890  74.6003180  89.3755760 143.7155250
  60.3572850  96.1634530 148.2235160  60.2370450  96.8896620 147.6116430
  60.0473740  95.3937440 147.7463070  59.2405850 101.0349860 150.4409980
  58.8333930 101.1764450 149.5863580  60.1318860 100.7510020 150.2381190
  71.0339130 105.4697110 146.7761030  70.8740270 105.1800050 147.6742860
  70.8685840 104.6937240 146.2406260  63.5127510 105.2495640 148.5532650
  63.3369990 104.3331180 148.3400450  62.6583250 105.6082930 148.7930450
  70.7365260 102.9784670 145.3359030  70.0430420 102.9761960 144.6761310
  71.4788120 102.5543990 144.9053200  70.3015190 104.6047380 149.4107520
  70.7572140 103.8236760 149.7246140  70.6407710 105.3154200 149.9548700
  62.8236510  89.5069600 151.6058830  62.3804660  90.2879140 151.2743350
  63.3821500  89.8299490 152.3129770  65.9395330  89.1280300 146.4864660
  65.3149510  89.1240170 147.2117970  65.8525450  88.2611260 146.0900630
  62.6150730  94.6303170 149.3340080  62.3891650  94.4140340 150.2386700
  61.8343260  95.0631630 148.9886050  69.8448490  94.6366540 147.9330730
  69.2457380  95.3602340 147.7494350  70.3928100  94.5743320 147.1507180
  68.4513360  93.2730080 149.9634010  68.8442930  93.5902280 149.1502700
  68.8130210  92.3941960 150.0778530  57.4877530  89.8630880 152.1864210
  57.1990580  90.4333740 152.8989190  58.2323290  89.3835330 152.5495440
  57.6747760  93.8051000 143.3966930  57.5922430  94.7481760 143.5381920
  57.3230820  93.6625910 142.5179280  65.4745890  92.5390030 152.4637280
  65.4781950  92.0979980 151.6141820  66.3697010  92.8607360 152.5709100
  61.3248270  92.4216520 151.4231490  60.9848320  92.8991750 152.1798540
  60.5625590  91.9681640 151.0632590  65.5366040  93.5402110 145.4544040
  65.6578860  93.4988590 146.4029860  65.1514550  94.4026260 145.2990770
  64.5487540  95.8503250 144.8527340  63.9804440  95.4021500 144.2263250
  65.2576540  96.2096030 144.3192490  58.6394350  91.3435500 150.3396160
  58.3541270  90.9791170 151.1774780  58.5773210  90.6115960 149.7259300
  62.0935020  99.8461440 147.1253750  61.3197280  99.3059060 146.9652470
  62.8229650  99.3268050 146.7871510  72.8523000  98.8426800 152.9180140
  73.5722120  99.3382090 152.5276250  72.6504820  98.1644690 152.2734010
  68.3132940  90.2364760 147.0609530  67.4997550  89.7377930 146.9854840
  68.1194890  91.0763010 146.6445880  71.0281330  94.6084410 145.3571690
  71.9160950  94.9201640 145.1823030  70.9986420  93.7356660 144.9652270
  62.1372420  99.5141820 150.7632560  62.6551090  98.7110080 150.7089450
  61.6856440  99.4520960 151.6049390  67.0241920 100.7808100 146.0359860
  67.3657620 101.5250330 145.5403180  66.1954630 101.0939220 146.3984690
  73.2995600  95.9196250 144.8251550  73.2159320  96.3510470 143.9747990
  74.0189790  96.3794600 145.2578370  74.3282850 102.7738510 147.5533680
  73.6859010 102.1194130 147.8277400  73.9413510 103.1793600 146.7774350
  69.9069330 100.1023940 151.4005370  70.2593150  99.5052070 150.7406740
  69.0231660  99.7768170 151.5713620  65.9932610 100.8621630 148.8075780
  66.6803740 101.4090840 149.1883370  65.2065030 101.4062360 148.8425390
  58.1325010  96.4794450 144.2992860  59.0019860  96.7619250 144.5828780
  57.6415330  97.2930320 144.1841670  65.2959820  97.8667660 148.4201140
  65.7522600  98.6772910 148.6461330  64.9448030  97.5490800 149.2519630
  61.1971600  88.2105310 148.8923660  61.0686230  88.2023210 149.8408580
  60.3733620  88.5488400 148.5414670  72.7180230 101.6654970 144.0910030
  72.4917810 100.9485410 144.6834670  72.3276430 101.4167410 143.2531780
  58.4996260 105.6921830 144.8654490  58.8593900 106.2911170 144.2111760
  58.3588600 106.2381720 145.6389520  72.2996480  99.5826910 145.7524190
  72.0118180 100.0439600 146.5402070  73.0948650  99.1224680 146.0208410
  64.5164880 103.0753030 145.6828160  64.5074980 103.8082720 145.0672670
  63.5963240 102.8284610 145.7755120  60.1171520  98.2967920 146.4274920
  59.5099470  99.0366820 146.4370220  60.5920870  98.3867280 145.6013120
  73.0566340  91.4175680 146.9119370  72.4279500  91.5221350 146.1977600
  72.5618260  91.6372460 147.7013250  67.5024480 103.1381270 144.3453350
  67.6036460 102.9345260 143.4155330  66.6026220 102.8839550 144.5501130
  65.0250370  93.6961630 148.3277250  64.3166520  94.1647970 148.7690860
  65.3094850  93.0383640 148.9622440  69.0565800  90.4212290 149.7673040
  68.9333580  90.4398420 148.8182550  70.0050360  90.4691230 149.8871440
  66.1442590 105.6567590 149.0401020  66.3984090 105.6188980 148.1180390
  65.1955070 105.5300920 149.0329270  63.2285390  92.0046710 145.7027960
  64.0775920  92.4416860 145.6368150  62.8616660  92.3166970 146.5300020
  72.1495170  96.5759470 150.6159530  71.2085310  96.5909700 150.7907220
  72.4639240  95.7895430 151.0619830  62.1276810  98.2579070 144.1763490
  62.8940080  98.1460430 144.7388920  62.2051500  97.5617040 143.5240260
  60.8223570  95.6904140 144.8596380  60.9027160  94.7431650 144.9713780
  61.7143320  96.0211020 144.9657040  74.1520750 103.7468320 152.2913790
  74.2768170 104.5699490 152.7637600  75.0186310 103.5359050 151.9437940
  61.6238280 105.8399530 151.9630920  62.3600760 105.2914990 152.2339490
  62.0079200 106.7055540 151.8236910  58.5083760 101.9073100 147.8372430
  57.5823540 102.1494240 147.8277840  58.9740190 102.7347360 147.7157180
  64.7340590 105.0129840 143.7856490  65.5269200 105.3018670 143.3338280
  64.2144940 104.5822010 143.1068970  73.7870760 104.2399970 145.2093230
  73.5012270 103.8265110 144.3947410  73.5890310 105.1687680 145.0893750
  65.2517990 100.2333250 143.6498840  65.1468630  99.6185600 144.3760220
  65.0842210  99.7099140 142.8661850  68.4920720  99.2953280 144.2540830
  67.9430820  99.7422580 144.8983570  69.1139980  98.7902530 144.7778500
  64.1595840  98.2544200 146.1506130  64.5812260  98.0884070 146.9937520
  64.2846680  97.4444430 145.6561270  66.6723480  97.2781810 143.3983230
  67.1929140  96.5630830 143.0324380  67.3191880  97.9167680 143.6983740
  63.0554740  94.3277430 143.0964290  62.8543800  93.4644790 143.4577630
  62.8846790  94.2410790 142.1585890  70.5343050  89.1385660 145.6251170
  70.8145340  88.2953560 145.9810590  69.7608780  89.3708770 146.1389920
  61.8537540  91.4278050 143.0842170  62.1563440  91.4345480 142.1761320
  62.5932130  91.0775910 143.5809830  65.0722470  90.3712670 144.0698370
  64.7244470  89.6936660 143.4900820  65.2735240  89.9102180 144.8841760
  67.2371510 105.3593420 145.6884970  68.1322300 105.6978390 145.7103730
  67.2689140 104.6372830 145.0609250  60.8767670 100.7320470 143.9171970
  61.3142540 101.2750140 144.5729550  61.3615400  99.9067420 143.9268310
  58.0913470 103.5209500 151.3692230  58.4216480 102.6530560 151.1370870
  58.5204470 103.7268020 152.1997190  62.6875390 101.8518510 149.0294200
  62.3870930 101.7283480 149.9298110  62.5812880 100.9927100 148.6209930
  75.4567310 101.6314910 143.7320880  74.6260270 101.6991560 144.2028110
  75.6339140 102.5219030 143.4287740  74.9123770  98.3762390 146.2355080
  75.6742680  98.9459040 146.3414770  74.9278140  97.8089590 147.0063390
  58.4128110  96.9000320 150.4662740  57.7576950  96.6311960 149.8222440
  59.2506060  96.7904800 150.0164720  75.9183740  99.2312490 151.0797010
  76.2892570  98.4479810 150.6732980  76.5585670  99.9201590 150.9014310
  74.9642940  98.6696760 143.3927600  75.2391780  99.5775640 143.2646820
  74.7753680  98.6059290 144.3289590  71.3618550  91.6941610 144.6881230
  71.7803430  91.5072590 143.8477890  71.0554610  90.8420660 144.9984160
  74.8608280  96.6065750 148.3857030  74.4851880  95.8393680 147.9538320
  74.1311400  96.9888450 148.8731960  57.6266190  94.1099250 146.4088070
  56.7230270  94.3729450 146.2339730  58.1106810  94.3810420 145.6288030
  74.1359240  94.8323240 151.6864270  74.6596720  94.3385890 151.0554440
  74.7218660  94.9673600 152.4311840  60.1693400  93.1664790 144.3182450
  60.8785100  92.7448010 143.8329730  59.4533340  93.2340020 143.6865800
  59.8167560  89.2204120 143.3585100  60.5395690  89.7613060 143.6766320
  60.0892080  88.9467540 142.4826640  73.6259210  94.0896590 147.6256680
  74.1218330  93.8567460 148.4105560  73.4275280  93.2508430 147.2094320
  75.0546370  92.7257540 150.1594360  74.9445650  92.5713580 151.0976630
  75.8153960  92.1978480 149.9169770  75.9436640  90.5565460 143.4000500
  76.8685950  90.4246640 143.1918790  75.9212430  90.6358280 144.3536950
  76.0175130  91.3276120 146.0257210  75.2226630  91.2621240 146.5550120
  76.2218410  92.2626760 146.0142560  72.9593550 105.3667670 150.0195600
  73.5552620 105.0452240 149.3430020  73.2171700 104.8939490 150.8108870
  72.4495060  89.6573000 152.4756040  72.8903150  89.6018100 151.6277640
  72.1802650  90.5731010 152.5466220  74.3133630  89.2888240 150.4864860
  74.2522030  88.3449460 150.3395880  75.0925660  89.3968330 151.0318320
  58.6186380 105.4280600 149.4488810  58.4508420 104.7951280 150.1470700
  57.7520890 105.6340000 149.0983000  59.2414400  89.2597380 146.9520670
  59.9993760  89.3726260 146.3784700  58.7791570  90.0966580 146.9064100
  65.7828210  91.3736650 149.9422980  64.9702720  90.9993540 149.6018860
  66.2869850  90.6181730 150.2444170  70.2853190  88.0379100 151.1806050
  70.8882560  88.6099310 151.6554570  69.5446180  88.6018540 150.9579950
  73.4287790  88.4400660 146.4546330  73.6238420  89.3384110 146.7213760
  72.6417660  88.2087740 146.9479280  60.2249080 104.1213830 146.8938950
  59.6996700 104.5021860 146.1900910  60.1493660 104.7464600 147.6148660
  61.6139550  89.7861430 145.4922640  62.1432310  88.9991230 145.3630590
  62.2467870  90.4652620 145.7258170  63.8077390  89.5236570 148.5468030
  63.1780130  88.8223880 148.7138160  63.2682530  90.2840700 148.3301190
  74.9814400 105.6801370 148.2152890  75.1566590 104.9939110 147.5713810
  74.2835970 106.2048420 147.8229560  62.8242050 106.0696210 145.7688200
  63.5560870 105.7855490 145.2212090  63.0835720 105.8309490 146.6587580
  61.9856840 102.1860940 145.7734530  61.3565720 102.6546040 146.3220360
  62.1004670 101.3410160 146.2080720  69.4406560  96.2366600 131.9235730
  69.3600610  95.3221210 131.6527440  69.0270980  96.7333670 131.2175440
  67.5724600  98.0145620 133.8045000  66.7966700  97.5346060 134.0943570
  68.2237530  97.3351270 133.6301160  61.5890430  98.3265430 134.6820760
  60.7575310  98.0714140 135.0817270  62.1971410  98.3976200 135.4178680
  61.5691690 102.3605520 134.8778780  61.8719730 101.4703260 134.6989000
  62.3135280 102.9175740 134.6501030  68.0438760  93.4973190 134.0384090
  68.4203580  92.6245070 133.9257760  67.9458270  93.8331890 133.1474530
  71.8262880  90.9923630 130.9712430  72.6472500  90.5020200 131.0137910
  71.8596960  91.5821290 131.7244270  64.0151500  94.8385190 133.8326710
  64.5229720  95.3366160 134.4731730  64.5464740  94.0620390 133.6566070
  76.1162430  93.0090380 137.5356060  75.4114600  93.3972090 137.0171170
  76.3820350  93.7040670 138.1376990  62.2987600  89.4783750 138.0990130
  62.3006040  89.9956140 137.2936030  61.4691910  89.0013930 138.0760060
  63.5490450  99.1178930 136.2763630  63.2159830  99.7447850 136.9184700
  63.7257130  99.6440810 135.4965300  72.0624360  92.9324010 133.7439970
  71.3579930  93.2208900 134.3243080  72.4236520  93.7424120 133.3839530
  61.9802930  91.1893710 136.1060580  62.3219740  92.0335760 135.8114450
  61.0418740  91.3377450 136.2225920  62.7609550 101.0859730 138.0912810
  63.3783550 101.7610810 137.8097260  61.9002670 101.4947710 138.0000310
  75.1311280  92.3778800 134.1349180  74.1836190  92.4117780 134.2664610
  75.4561270  93.1917750 134.5198540  65.6630820  88.6775980 132.4305170
  65.9705800  88.1222870 131.7140670  64.7331520  88.8120440 132.2478160
  70.6131320  99.2973110 136.0495240  71.0300110  99.0833220 135.2148700
  71.3371140  99.5545900 136.6203860  68.0511580  96.7424810 129.1665290
  67.1240860  96.6762190 129.3953760  68.2036400  97.6804940 129.0520530
  74.5593420  97.6960330 136.1411480  73.7312050  97.7653420 135.6661610
  75.1543900  98.2814640 135.6727310  71.5235430  94.4829650 137.0866350
  71.1106610  95.3083360 137.3406340  70.7911380  93.8974690 136.8942710
  63.6568220  97.2689550 131.9485020  63.2525220  96.5566800 131.4530920
  63.7431340  96.9242790 132.8373060  64.1249920 100.9557110 134.1124230
  63.8278210 100.3502580 133.4332010  65.0749740 100.9934420 134.0013590
  62.3696840  94.0432760 135.7284060  62.9211430  94.1528100 134.9537310
  62.8840350  94.4170360 136.4439290  63.2168350 100.6938800 140.7632030
  62.3196880 100.9178770 141.0105430  63.2421220 100.8173740 139.8143430
  62.0439570  97.5652120 139.3389400  61.9047340  98.4374920 139.7076800
  61.1620930  97.2224930 139.1937340  63.8419920 103.5073820 141.5474550
  63.8135350 103.9116770 140.6802980  63.6784890 102.5784180 141.3846150
  73.8390710  88.7974730 124.9914330  73.5263370  88.8901560 125.8913400
  74.6003180  89.3755760 124.9411760  60.3572850  96.1634530 129.4491670
  60.2370450  96.8896620 128.8372940  60.0473740  95.3937440 128.9719580
  75.7934740 104.2900920 142.8438720  76.2694460 104.7683810 143.5227800
  76.4141900 104.2218410 142.1184220  57.9958220  99.3349670 135.2560310
  58.0738640  99.4698440 134.3116030  58.6099900  98.6265560 135.4488430
  59.2405850 101.0349860 131.6666490  58.8333930 101.1764450 130.8120090
  60.1318860 100.7510020 131.4637700  75.1967990 101.4813770 140.0038730
  75.3231050 101.2425650 139.0855910  75.2389370 100.6498310 140.4760810
  63.5127510 105.2495640 129.7789160  63.3369990 104.3331180 129.5656960
  62.6583250 105.6082930 130.0186960  75.0492000  93.5346230 140.9688470
  74.4336270  94.0425900 140.4403930  74.7288420  92.6344560 140.9114410
  58.0517740 100.3763840 137.7954770  58.2148780  99.9069200 136.9774140
  58.5170190  99.8687400 138.4603610  62.8236510  89.5069600 132.8315340
  62.3804660  90.2879140 132.4999860  63.3821500  89.8299490 133.5386280
  67.1106320  92.3738120 138.4350660  66.6485690  92.5821140 139.2470600
  66.7084430  91.5597470 138.1321330  72.1110830  93.5947070 139.5647320
  71.2604420  93.2952820 139.8856390  71.9512620  93.8389080 138.6531140
  69.2060540  95.0948820 141.6646110  69.5313950  94.2612570 141.3248340
  69.9940870  95.6177340 141.8124440  65.9395330  89.1280300 127.7121170
  65.3149510  89.1240170 128.4374480  65.8525450  88.2611260 127.3157140
  64.8612410  90.0516930 134.6904940  65.1584740  90.9579760 134.6096960
  65.4097970  89.5635710 134.0764510  62.6150730  94.6303170 130.5596590
  62.3891650  94.4140340 131.4643210  61.8343260  95.0631630 130.2142560
  65.0549940  95.5288750 141.2256860  64.9593540  94.5883480 141.0757260
  65.8981920  95.7503820 140.8304930  68.4513360  93.2730080 131.1890520
  68.8442930  93.5902280 130.3759210  68.8130210  92.3941960 131.3035040
  60.1860480  91.9402420 139.3790640  59.7923870  92.7877630 139.5863420
  59.4978880  91.3028790 139.5699280  66.7605530  92.0237390 142.4487380
  66.0703850  91.8309590 143.0833470  67.5037830  92.3072030 142.9811680
  69.0368500  95.8635830 135.2841300  68.3049620  96.3722640 135.6331400
  68.6392840  95.0465810 134.9830080  65.4745890  92.5390030 133.6893790
  65.4781950  92.0979980 132.8398330  66.3697010  92.8607360 133.7965610
  65.5366040  93.5402110 126.6800550  65.6578860  93.4988590 127.6286370
  65.1514550  94.4026260 126.5247280  69.4994410  91.3169510 134.6964240
  69.5167150  91.7678160 135.5406090  69.2509990  90.4175150 134.9097680
  64.5487540  95.8503250 126.0783850  63.9804440  95.4021500 125.4519760
  65.2576540  96.2096030 125.5449000  72.9265160  88.7301690 140.5350620
  73.2510930  87.9991350 141.0608600  72.9621670  88.4115330 139.6331610
  59.6256720  99.7515270 139.9550580  59.2411510  99.1108940 140.5533540
  59.9368910 100.4551390 140.5245310  65.7753860  96.5991810 135.4359200
  66.1423990  96.1250380 136.1820540  65.5858920  97.4733380 135.7767540
  63.5653230  95.6400450 137.7543410  63.2610300  96.5192430 137.9793770
  64.5199690  95.7000240 137.7900850  62.0935020  99.8461440 128.3510260
  61.3197280  99.3059060 128.1908980  62.8229650  99.3268050 128.0128020
  68.3132940  90.2364760 128.2866040  67.4997550  89.7377930 128.2111350
  68.1194890  91.0763010 127.8702390  68.2341800  98.9135860 140.0305650
  68.1679110  97.9931530 139.7763240  67.6046940  99.0111300 140.7450290
  62.1372420  99.5141820 131.9889070  62.6551090  98.7110080 131.9345960
  61.6856440  99.4520960 132.8305900  59.6216960  96.4803190 138.9014770
  59.2631900  97.1457040 139.4888110  59.3271520  95.6486740 139.2727390
  62.8230080  96.9387430 141.7854320  62.5230220  97.0844610 140.8882140
  63.5941320  96.3792720 141.6927710  68.1658530 101.7356430 139.7809450
  68.1803070 100.8037390 139.5628360  67.4583630 101.8216190 140.4199220
  74.3769740  98.3763770 139.1278030  73.6517930  98.9692550 138.9307420
  74.9045200  98.3687310 138.3291400  70.6462130 102.1801250 138.7963460
  70.9818370 102.7667940 139.4741380  69.7262470 102.0493960 139.0261250
  58.4996260 105.6921830 126.0911000  58.8593900 106.2911170 125.4368270
  58.3588600 106.2381720 126.8646030  58.1965530  89.9696430 139.5786870
  57.4824050  90.1693350 140.1839480  58.6160570  89.1936000 139.9501670
  58.4838120 103.9576690 140.5653400  58.5929240 103.0171430 140.4248790
  57.8318680 104.2231440 139.9167130  66.4750710 102.2292580 141.9651520
  66.1547580 101.5101820 142.5097210  65.8009070 102.9047650 142.0387580
  60.1171520  98.2967920 127.6531430  59.5099470  99.0366820 127.6626730
  60.5920870  98.3867280 126.8269630  69.6904310  92.4618740 137.3288320
  70.0585130  91.6413950 137.6567890  68.8302510  92.5220630 137.7443970
  73.0566340  91.4175680 128.1375880  72.4279500  91.5221350 127.4234110
  72.5618260  91.6372460 128.9269760  65.0250370  93.6961630 129.5533760
  64.3166520  94.1647970 129.9947370  65.3094850  93.0383640 130.1878950
  66.6506300  95.1158330 137.5526290  67.1491550  95.5904150 138.2178140
  66.7929250  94.1921850 137.7596320  69.0565800  90.4212290 130.9929550
  68.9333580  90.4398420 130.0439060  70.0050360  90.4691230 131.1127950
  63.2285390  92.0046710 126.9284470  64.0775920  92.4416860 126.8624660
  62.8616660  92.3166970 127.7556530  73.8573160  91.3326290 138.3954680
  73.3546760  92.0731690 138.7348490  74.6729820  91.7210290 138.0791470
  72.1495170  96.5759470 131.8416040  71.2085310  96.5909700 132.0163730
  72.4639240  95.7895430 132.2876340  62.1276810  98.2579070 125.4020000
  62.8940080  98.1460430 125.9645430  62.2051500  97.5617040 124.7496770
  60.8223570  95.6904140 126.0852890  60.9027160  94.7431650 126.1970290
  61.7143320  96.0211020 126.1913550  61.6238280 105.8399530 133.1887430
  62.3600760 105.2914990 133.4596000  62.0079200 106.7055540 133.0493420
  58.5083760 101.9073100 129.0628940  57.5823540 102.1494240 129.0534350
  58.9740190 102.7347360 128.9413690  60.6296560 105.0245600 142.3773010
  61.4309290 105.3457650 142.7908410  60.1148380 104.6641180 143.0992920
  69.4661190 101.1325470 142.3248420  68.8599350 101.1557070 141.5844170
  69.1615300 100.4008510 142.8615670  70.8961560 104.8605760 140.9357830
  71.8483310 104.7763780 140.8858070  70.7489780 105.5247470 141.6091620
  58.3494370  97.5119060 141.3209060  58.8533390  96.9326340 141.8925290
  57.6101790  97.7959290 141.8585430  65.2517990 100.2333250 124.8755350
  65.1468630  99.6185600 125.6016730  65.0842210  99.7099140 124.0918360
  65.4032310  98.9190050 140.8544580  64.6377980  99.4875050 140.7699250
  65.5848270  98.6266260 139.9612810  72.5455660 100.6495380 141.4119600
  73.2865130 100.9871140 140.9087060  71.7828340 100.8187440 140.8589370
  60.3817450  95.6548650 142.2159130  60.4222790  95.3562520 143.1244360
  61.2362950  96.0556260 142.0566650  64.1595840  98.2544200 127.3762640
  64.5812260  98.0884070 128.2194030  64.2846680  97.4444430 126.8817780
  62.3223260  94.2340750 140.1833620  61.7919720  93.7431700 139.5556960
  62.9911330  94.6624950 139.6491550  66.6723480  97.2781810 124.6239740
  67.1929140  96.5630830 124.2580890  67.3191880  97.9167680 124.9240250
  71.2201320  98.7010210 139.9474810  71.6342340  98.8555290 140.7965230
  70.2852320  98.8265430 140.1100590  71.6923490  96.0406370 141.9513960
  72.2744260  95.2858690 141.8634440  71.8685260  96.5713810 141.1745440
  62.8095560  91.2003120 140.2630910  62.7152430  90.5823870 139.5381780
  62.2292950  91.9269410 140.0360820  65.5757000  89.7576360 137.2958300
  65.1274300  89.7800620 136.4503850  64.9422200  89.3595380 137.8928600
  65.9816550  98.6530690 137.9170740  66.4004660  99.4963420 137.7446980
  65.0625180  98.7902730 137.6877520  68.3180450  96.3846870 139.3008580
  68.4376660  95.7888010 140.0403420  69.1774450  96.4216560 138.8809880
  70.6568350  96.9384060 137.8771090  70.1303570  97.4626680 137.2736230
  70.9999690  97.5711450 138.5080820  63.0554740  94.3277430 124.3220800
  62.8543800  93.4644790 124.6834140  62.8846790  94.2410790 123.3842400
  63.8323970 104.9583700 139.0328470  63.2945060 105.6829760 138.7137170
  64.0857930 104.4814040 138.2425810  65.0849220  92.9268220 140.5584400
  65.6748910  92.6184070 141.2462220  64.2669460  92.4547970 140.7144300
  69.9042650  92.5434030 140.7917420  69.2158170  91.8815570 140.7267410
  70.6248670  92.0972300 141.2365880  70.5343050  89.1385660 126.8507680
  70.8145340  88.2953560 127.2067100  69.7608780  89.3708770 127.3646430
  61.8537540  91.4278050 124.3098680  62.1563440  91.4345480 123.4017830
  62.5932130  91.0775910 124.8066340  66.6886180 106.1934910 139.2915120
  66.6144880 107.0970050 139.5987490  65.7865020 105.8746810 139.2637190
  65.0722470  90.3712670 125.2954880  64.7244470  89.6936660 124.7157330
  65.2735240  89.9102180 126.1098270  60.8767670 100.7320470 125.1428480
  61.3142540 101.2750140 125.7986060  61.3615400  99.9067420 125.1524820
  58.0913470 103.5209500 132.5948740  58.4216480 102.6530560 132.3627380
  58.5204470 103.7268020 133.4253700  62.6875390 101.8518510 130.2550710
  62.3870930 101.7283480 131.1554620  62.5812880 100.9927100 129.8466440
  58.5803680 104.3880090 135.3330370  58.1434670 104.5680890 136.1654520
  59.1481360 105.1454710 135.1912090  74.2165860 103.8897090 139.6207680
  73.6167850 103.9489650 138.8771600  74.3459760 102.9502070 139.7504530
  58.4128110  96.9000320 131.6919250  57.7576950  96.6311960 131.0478950
  59.2506060  96.7904800 131.2421230  72.9017500 100.6149070 137.7183840
  72.0877340 101.0446230 137.9809630  73.3091700 101.2267480 137.1052890
  74.2507900  95.7537270 139.2453060  74.0193990  95.5250020 138.3451010
  74.5112450  96.6736820 139.1997950  59.0020040  94.1961980 140.1381010
  58.1076090  94.1628740 140.4774720  59.5417590  94.3948770 140.9032260
  72.6895970  90.9793700 142.0232760  73.5666150  90.9877100 142.4066760
  72.7016810  90.2424540 141.4125110  74.1359240  94.8323240 132.9120780
  74.6596720  94.3385890 132.2810950  74.7218660  94.9673600 133.6568350
  74.3148960  94.9163110 136.4340330  73.3651670  94.8826650 136.5485320
  74.4961970  95.8263220 136.1990100  60.1693400  93.1664790 125.5438960
  60.8785100  92.7448010 125.0586240  59.4533340  93.2340020 124.9122310
  59.8167560  89.2204120 124.5841610  60.5395690  89.7613060 124.9022830
  60.0892080  88.9467540 123.7083150  73.6259210  94.0896590 128.8513190
  74.1218330  93.8567460 129.6362070  73.4275280  93.2508430 128.4350830
  59.5059750  88.4710310 134.4864230  60.1535940  87.9207690 134.0459390
  59.9261590  88.7253460 135.3080040  75.0546370  92.7257540 131.3850870
  74.9445650  92.5713580 132.3233140  75.8153960  92.1978480 131.1426280
  73.4012090  88.6651670 137.8433870  74.0384310  89.2785810 138.2093060
  73.5486980  88.7012330 136.8983100  59.2591750  88.6265980 137.2289550
  58.9106570  89.0829800 137.9947730  58.9279450  87.7323110 137.3111980
  60.8656120 101.7985580 141.3942740  60.8225750 101.4278490 142.2757200
  60.9967130 102.7363150 141.5344560  64.5662150 103.3545170 136.9952460
  64.3253510 103.6219730 136.1082980  65.5064790 103.5250900 137.0503320
  66.7716570  89.8177860 140.7508970  66.7105460  90.4099690 141.5004380
  67.7116950  89.7103820 140.6059230  69.4091130  89.4747920 140.3901260
  70.0231540  89.7927210 139.7282340  69.9540690  88.9896510 141.0097120
  75.8266310 105.3739550 137.7963100  75.3324590 105.7708420 137.0790230
  75.2179600 104.7488760 138.1900380  59.9312390  88.1542180 140.5040320
  60.4795380  87.9730230 139.7406430  59.9967700  87.3636290 141.0396630
  60.7044150 104.7447830 138.5140520  60.1104470 104.6132530 139.2530560
  60.6967990 103.9085970 138.0482620  70.1499170  88.0380060 136.7170550
  69.2759010  88.3715170 136.5143480  70.0409920  87.5653240 137.5422420
  71.0571150  90.2450930 138.1012270  70.7284510  89.4302690 137.7214000
  72.0053450  90.2020740 137.9777960  73.5105760 106.0162970 135.0749840
  73.0508730 106.7678780 134.7007860  72.8818220 105.2969440 135.0164640
  60.3356380 102.1106210 137.4648560  59.6090440 101.4911500 137.3974510
  60.3965530 102.5046820 136.5946640  63.9401480 104.3251210 134.2497970
  64.4566500 103.7138570 133.7246230  64.5898860 104.8279990 134.7408980
  67.8973990  88.9549900 135.6563460  67.1145780  89.4295400 135.9360220
  67.6036920  88.0504730 135.5476640  58.6186380 105.4280600 130.6745320
  58.4508420 104.7951280 131.3727210  57.7520890 105.6340000 130.3239510
  65.7828210  91.3736650 131.1679490  64.9702720  90.9993540 130.8275370
  66.2869850  90.6181730 131.4700680  60.2249080 104.1213830 128.1195460
  59.6996700 104.5021860 127.4157420  60.1493660 104.7464600 128.8405170
  66.7469340 106.1375800 142.4435150  67.6736650 105.9020070 142.4871110
  66.7319770 106.9647800 141.9621180  63.9332950  88.8020550 142.2077030
  63.6517220  89.3054150 141.4437850  64.3152650  88.0042300 141.8419160
  62.8242050 106.0696210 126.9944710  63.5560870 105.7855490 126.4468600
  63.0835720 105.8309490 127.8844090  61.9856840 102.1860940 126.9991040
  61.3565720 102.6546040 127.5476870  62.1004670 101.3410160 127.4337230
  70.5348410  88.2174130 142.7857500  70.4213860  88.5368740 143.6809020
  71.3518150  88.6186640 142.4894780  73.3146900 105.3645660 142.2676190
  74.1072220 104.8694890 142.0602150  73.6080050 106.0435800 142.8751800
  61.5890430  98.3265430 115.9077270  60.7575310  98.0714140 116.3073780
  62.1971410  98.3976200 116.6435190  61.5691690 102.3605520 116.1035290
  61.8719730 101.4703260 115.9245510  62.3135280 102.9175740 115.8757540
  67.8195340 104.7063820 113.4304630  67.2006780 105.1621320 112.8599070
  68.6747120 104.8615280 113.0294330  67.0133590 100.6902810 115.0371670
  66.9441870  99.7492750 114.8760800  67.7753450 100.7804220 115.6094240
  59.2040260  91.2957330 117.3628290  59.0243100  90.3983080 117.6431050
  58.8020340  91.8429200 118.0375240  62.1743770  91.8698820 110.7258040
  62.2810520  92.7702550 111.0326800  61.2636130  91.8216790 110.4352690
  71.8262880  90.9923630 112.1968940  72.6472500  90.5020200 112.2394420
  71.8596960  91.5821290 112.9500780  59.8226930  93.7917830 115.9710630
  60.5037040  94.0556200 116.5898030  59.5074980  92.9518700 116.3048640
  62.2987600  89.4783750 119.3246640  62.3006040  89.9956140 118.5192540
  61.4691910  89.0013930 119.3016570  63.5490450  99.1178930 117.5020140
  63.2159830  99.7447850 118.1441210  63.7257130  99.6440810 116.7221810
  72.0624360  92.9324010 114.9696480  71.3579930  93.2208900 115.5499590
  72.4236520  93.7424120 114.6096040  61.9802930  91.1893710 117.3317090
  62.3219740  92.0335760 117.0370960  61.0418740  91.3377450 117.4482430
  62.7609550 101.0859730 119.3169320  63.3783550 101.7610810 119.0353770
  61.9002670 101.4947710 119.2256820  73.6787140 102.5499140 117.2323960
  72.9950660 103.2198250 117.2240630  74.2181430 102.7479790 116.4668820
  75.1311280  92.3778800 115.3605690  74.1836190  92.4117780 115.4921120
  75.4561270  93.1917750 115.7455050  65.6630820  88.6775980 113.6561680
  65.9705800  88.1222870 112.9397180  64.7331520  88.8120440 113.4734670
  71.2145880 104.3943270 115.9469140  71.2273040 103.9905560 115.0791400
  70.6621100 105.1690560 115.8430570  68.0380660  93.0141810 107.3888960
  67.0984330  93.1755770 107.4741420  68.3563920  93.7327490 106.8424950
  74.5593420  97.6960330 117.3667990  73.7312050  97.7653420 116.8918120
  75.1543900  98.2814640 116.8983820  63.6568220  97.2689550 113.1741530
  63.2525220  96.5566800 112.6787430  63.7431340  96.9242790 114.0629570
  64.1249920 100.9557110 115.3380740  63.8278210 100.3502580 114.6588520
  65.0749740 100.9934420 115.2270100  62.3696840  94.0432760 116.9540570
  62.9211430  94.1528100 116.1793820  62.8840350  94.4170360 117.6695800
  72.2135530 104.5288980 119.0003840  71.7366090 105.3361170 118.8076450
  71.5297320 103.8767310 119.1530050  63.2168350 100.6938800 121.9888540
  62.3196880 100.9178770 122.2361940  63.2421220 100.8173740 121.0399940
  70.2573570  97.5431920 107.9029800  70.6966850  96.7054350 107.7567620
  70.9701990  98.1761320 107.9893940  62.0439570  97.5652120 120.5645910
  61.9047340  98.4374920 120.9333310  61.1620930  97.2224930 120.4193850
  63.8419920 103.5073820 122.7731060  63.8135350 103.9116770 121.9059490
  63.6784890 102.5784180 122.6102660  75.1967990 101.4813770 121.2295240
  75.3231050 101.2425650 120.3112420  75.2389370 100.6498310 121.7017320
  69.0584730 105.1841770 119.7990050  69.5729400 105.0949780 120.6012480
  68.2153810 105.5301470 120.0917960  71.0339130 105.4697110 109.2274050
  70.8740270 105.1800050 110.1255880  70.8685840 104.6937240 108.6919280
  63.5127510 105.2495640 111.0045670  63.3369990 104.3331180 110.7913470
  62.6583250 105.6082930 111.2443470  70.7365260 102.9784670 107.7872050
  70.0430420 102.9761960 107.1274330  71.4788120 102.5543990 107.3566220
  70.3015190 104.6047380 111.8620540  70.7572140 103.8236760 112.1759160
  70.6407710 105.3154200 112.4061720  58.0517740 100.3763840 119.0211280
  58.2148780  99.9069200 118.2030650  58.5170190  99.8687400 119.6860120
  62.8236510  89.5069600 114.0571850  62.3804660  90.2879140 113.7256370
  63.3821500  89.8299490 114.7642790  67.1106320  92.3738120 119.6607170
  66.6485690  92.5821140 120.4727110  66.7084430  91.5597470 119.3577840
  65.9395330  89.1280300 108.9377680  65.3149510  89.1240170 109.6630990
  65.8525450  88.2611260 108.5413650  62.6150730  94.6303170 111.7853100
  62.3891650  94.4140340 112.6899720  61.8343260  95.0631630 111.4399070
  69.8448490  94.6366540 110.3843750  69.2457380  95.3602340 110.2007370
  70.3928100  94.5743320 109.6020200  65.0549940  95.5288750 122.4513370
  64.9593540  94.5883480 122.3013770  65.8981920  95.7503820 122.0561440
  68.4513360  93.2730080 112.4147030  68.8442930  93.5902280 111.6015720
  68.8130210  92.3941960 112.5291550  60.1860480  91.9402420 120.6047150
  59.7923870  92.7877630 120.8119930  59.4978880  91.3028790 120.7955790
  57.4877530  89.8630880 114.6377230  57.1990580  90.4333740 115.3502210
  58.2323290  89.3835330 115.0008460  61.3248270  92.4216520 113.8744510
  60.9848320  92.8991750 114.6311560  60.5625590  91.9681640 113.5145610
  65.5366040  93.5402110 107.9057060  65.6578860  93.4988590 108.8542880
  65.1514550  94.4026260 107.7503790  69.4994410  91.3169510 115.9220750
  69.5167150  91.7678160 116.7662600  69.2509990  90.4175150 116.1354190
  64.5487540  95.8503250 107.3040360  63.9804440  95.4021500 106.6776270
  65.2576540  96.2096030 106.7705510  72.9265160  88.7301690 121.7607130
  73.2510930  87.9991350 122.2865110  72.9621670  88.4115330 120.8588120
  59.6256720  99.7515270 121.1807090  59.2411510  99.1108940 121.7790050
  59.9368910 100.4551390 121.7501820  65.7753860  96.5991810 116.6615710
  66.1423990  96.1250380 117.4077050  65.5858920  97.4733380 117.0024050
  58.6394350  91.3435500 112.7909180  58.3541270  90.9791170 113.6287800
  58.5773210  90.6115960 112.1772320  63.5653230  95.6400450 118.9799920
  63.2610300  96.5192430 119.2050280  64.5199690  95.7000240 119.0157360
  62.0935020  99.8461440 109.5766770  61.3197280  99.3059060 109.4165490
  62.8229650  99.3268050 109.2384530  68.3132940  90.2364760 109.5122550
  67.4997550  89.7377930 109.4367860  68.1194890  91.0763010 109.0958900
  68.2341800  98.9135860 121.2562160  68.1679110  97.9931530 121.0019750
  67.6046940  99.0111300 121.9706800  71.0281330  94.6084410 107.8084710
  71.9160950  94.9201640 107.6336050  70.9986420  93.7356660 107.4165290
  62.1372420  99.5141820 113.2145580  62.6551090  98.7110080 113.1602470
  61.6856440  99.4520960 114.0562410  67.0241920 100.7808100 108.4872880
  67.3657620 101.5250330 107.9916200  66.1954630 101.0939220 108.8497710
  59.6216960  96.4803190 120.1271280  59.2631900  97.1457040 120.7144620
  59.3271520  95.6486740 120.4983900  62.8230080  96.9387430 123.0110830
  62.5230220  97.0844610 122.1138650  63.5941320  96.3792720 122.9184220
  68.1658530 101.7356430 121.0065960  68.1803070 100.8037390 120.7884870
  67.4583630 101.8216190 121.6455730  74.3282850 102.7738510 110.0046700
  73.6859010 102.1194130 110.2790420  73.9413510 103.1793600 109.2287370
  65.9932610 100.8621630 111.2588800  66.6803740 101.4090840 111.6396390
  65.2065030 101.4062360 111.2938410  65.2959820  97.8667660 110.8714160
  65.7522600  98.6772910 111.0974350  64.9448030  97.5490800 111.7032650
  67.5992430 103.3774000 118.1006460  68.2434650 103.5833380 118.7779880
  67.9621870 102.6162400 117.6477310  68.8724510 101.3806350 116.8183910
  69.5146740 100.6799510 116.9316080  69.3973860 102.1604790 116.6380800
  70.6462130 102.1801250 120.0219970  70.9818370 102.7667940 120.6997890
  69.7262470 102.0493960 120.2517760  58.4996260 105.6921830 107.3167510
  58.8593900 106.2911170 106.6624780  58.3588600 106.2381720 108.0902540
  58.1965530  89.9696430 120.8043380  57.4824050  90.1693350 121.4095990
  58.6160570  89.1936000 121.1758180  58.4838120 103.9576690 121.7909910
  58.5929240 103.0171430 121.6505300  57.8318680 104.2231440 121.1423640
  66.4750710 102.2292580 123.1908030  66.1547580 101.5101820 123.7353720
  65.8009070 102.9047650 123.2644090  64.5164880 103.0753030 108.1341180
  64.5074980 103.8082720 107.5185690  63.5963240 102.8284610 108.2268140
  69.6904310  92.4618740 118.5544830  70.0585130  91.6413950 118.8824400
  68.8302510  92.5220630 118.9700480  67.5024480 103.1381270 106.7966370
  67.6036460 102.9345260 105.8668350  66.6026220 102.8839550 107.0014150
  65.0250370  93.6961630 110.7790270  64.3166520  94.1647970 111.2203880
  65.3094850  93.0383640 111.4135460  66.6506300  95.1158330 118.7782800
  67.1491550  95.5904150 119.4434650  66.7929250  94.1921850 118.9852830
  69.0565800  90.4212290 112.2186060  68.9333580  90.4398420 111.2695570
  70.0050360  90.4691230 112.3384460  66.1442590 105.6567590 111.4914040
  66.3984090 105.6188980 110.5693410  65.1955070 105.5300920 111.4842290
  63.2285390  92.0046710 108.1540980  64.0775920  92.4416860 108.0881170
  62.8616660  92.3166970 108.9813040  73.8573160  91.3326290 119.6211190
  73.3546760  92.0731690 119.9605000  74.6729820  91.7210290 119.3047980
  74.1520750 103.7468320 114.7426810  74.2768170 104.5699490 115.2150620
  75.0186310 103.5359050 114.3950960  61.6238280 105.8399530 114.4143940
  62.3600760 105.2914990 114.6852510  62.0079200 106.7055540 114.2749930
  60.6296560 105.0245600 123.6029520  61.4309290 105.3457650 124.0164920
  60.1148380 104.6641180 124.3249430  64.7340590 105.0129840 106.2369510
  65.5269200 105.3018670 105.7851300  64.2144940 104.5822010 105.5581990
  69.4661190 101.1325470 123.5504930  68.8599350 101.1557070 122.8100680
  69.1615300 100.4008510 124.0872180  73.7870760 104.2399970 107.6606250
  73.5012270 103.8265110 106.8460430  73.5890310 105.1687680 107.5406770
  65.4032310  98.9190050 122.0801090  64.6377980  99.4875050 121.9955760
  65.5848270  98.6266260 121.1869320  68.4920720  99.2953280 106.7053850
  67.9430820  99.7422580 107.3496590  69.1139980  98.7902530 107.2291520
  72.5455660 100.6495380 122.6376110  73.2865130 100.9871140 122.1343570
  71.7828340 100.8187440 122.0845880  60.3817450  95.6548650 123.4415640
  60.4222790  95.3562520 124.3500870  61.2362950  96.0556260 123.2823160
  64.1595840  98.2544200 108.6019150  64.5812260  98.0884070 109.4450540
  64.2846680  97.4444430 108.1074290  62.3223260  94.2340750 121.4090130
  61.7919720  93.7431700 120.7813470  62.9911330  94.6624950 120.8748060
  71.2201320  98.7010210 121.1731320  71.6342340  98.8555290 122.0221740
  70.2852320  98.8265430 121.3357100  62.8095560  91.2003120 121.4887420
  62.7152430  90.5823870 120.7638290  62.2292950  91.9269410 121.2617330
  65.5757000  89.7576360 118.5214810  65.1274300  89.7800620 117.6760360
  64.9422200  89.3595380 119.1185110  65.9816550  98.6530690 119.1427250
  66.4004660  99.4963420 118.9703490  65.0625180  98.7902730 118.9134030
  68.3180450  96.3846870 120.5265090  68.4376660  95.7888010 121.2659930
  69.1774450  96.4216560 120.1066390  63.0554740  94.3277430 105.5477310
  62.8543800  93.4644790 105.9090650  62.8846790  94.2410790 104.6098910
  63.8323970 104.9583700 120.2584980  63.2945060 105.6829760 119.9393680
  64.0857930 104.4814040 119.4682320  65.0849220  92.9268220 121.7840910
  65.6748910  92.6184070 122.4718730  64.2669460  92.4547970 121.9400810
  66.6886180 106.1934910 120.5171630  66.6144880 107.0970050 120.8244000
  65.7865020 105.8746810 120.4893700  65.0722470  90.3712670 106.5211390
  64.7244470  89.6936660 105.9413840  65.2735240  89.9102180 107.3354780
  67.2371510 105.3593420 108.1397990  68.1322300 105.6978390 108.1616750
  67.2689140 104.6372830 107.5122270  60.8767670 100.7320470 106.3684990
  61.3142540 101.2750140 107.0242570  61.3615400  99.9067420 106.3781330
  58.0913470 103.5209500 113.8205250  58.4216480 102.6530560 113.5883890
  58.5204470 103.7268020 114.6510210  62.6875390 101.8518510 111.4807220
  62.3870930 101.7283480 112.3811130  62.5812880 100.9927100 111.0722950
  58.5803680 104.3880090 116.5586880  58.1434670 104.5680890 117.3911030
  59.1481360 105.1454710 116.4168600  74.2165860 103.8897090 120.8464190
  73.6167850 103.9489650 120.1028110  74.3459760 102.9502070 120.9761040
  72.9017500 100.6149070 118.9440350  72.0877340 101.0446230 119.2066140
  73.3091700 101.2267480 118.3309400  59.0020040  94.1961980 121.3637520
  58.1076090  94.1628740 121.7031230  59.5417590  94.3948770 122.1288770
  74.1359240  94.8323240 114.1377290  74.6596720  94.3385890 113.5067460
  74.7218660  94.9673600 114.8824860  73.6259210  94.0896590 110.0769700
  74.1218330  93.8567460 110.8618580  73.4275280  93.2508430 109.6607340
  59.5059750  88.4710310 115.7120740  60.1535940  87.9207690 115.2715900
  59.9261590  88.7253460 116.5336550  75.0546370  92.7257540 112.6107380
  74.9445650  92.5713580 113.5489650  75.8153960  92.1978480 112.3682790
  73.4012090  88.6651670 119.0690380  74.0384310  89.2785810 119.4349570
  73.5486980  88.7012330 118.1239610  72.9593550 105.3667670 112.4708620
  73.5552620 105.0452240 111.7943040  73.2171700 104.8939490 113.2621890
  59.2591750  88.6265980 118.4546060  58.9106570  89.0829800 119.2204240
  58.9279450  87.7323110 118.5368490  60.8656120 101.7985580 122.6199250
  60.8225750 101.4278490 123.5013710  60.9967130 102.7363150 122.7601070
  64.5662150 103.3545170 118.2208970  64.3253510 103.6219730 117.3339490
  65.5064790 103.5250900 118.2759830  66.7716570  89.8177860 121.9765480
  66.7105460  90.4099690 122.7260890  67.7116950  89.7103820 121.8315740
  75.8266310 105.3739550 119.0219610  75.3324590 105.7708420 118.3046740
  75.2179600 104.7488760 119.4156890  59.9312390  88.1542180 121.7296830
  60.4795380  87.9730230 120.9662940  59.9967700  87.3636290 122.2653140
  60.7044150 104.7447830 119.7397030  60.1104470 104.6132530 120.4787070
  60.6967990 103.9085970 119.2739130  70.1499170  88.0380060 117.9427060
  69.2759010  88.3715170 117.7399990  70.0409920  87.5653240 118.7678930
  71.0571150  90.2450930 119.3268780  70.7284510  89.4302690 118.9470510
  72.0053450  90.2020740 119.2034470  73.5105760 106.0162970 116.3006350
  73.0508730 106.7678780 115.9264370  72.8818220 105.2969440 116.2421150
  60.3356380 102.1106210 118.6905070  59.6090440 101.4911500 118.6231020
  60.3965530 102.5046820 117.8203150  63.9401480 104.3251210 115.4754480
  64.4566500 103.7138570 114.9502740  64.5898860 104.8279990 115.9665490
  66.6796980 105.2159700 116.3023460  66.9674790 104.9614000 115.4256470
  67.1920200 104.6637060 116.8929030  67.8973990  88.9549900 116.8819970
  67.1145780  89.4295400 117.1616730  67.6036920  88.0504730 116.7733150
  72.4495060  89.6573000 114.9269060  72.8903150  89.6018100 114.0790660
  72.1802650  90.5731010 114.9979240  58.6186380 105.4280600 111.9001830
  58.4508420 104.7951280 112.5983720  57.7520890 105.6340000 111.5496020
  70.2853190  88.0379100 113.6319070  70.8882560  88.6099310 114.1067590
  69.5446180  88.6018540 113.4092970  61.6139550  89.7861430 107.9435660
  62.1432310  88.9991230 107.8143610  62.2467870  90.4652620 108.1771190
  63.8077390  89.5236570 110.9981050  63.1780130  88.8223880 111.1651180
  63.2682530  90.2840700 110.7814210  66.7469340 106.1375800 123.6691660
  67.6736650 105.9020070 123.7127620  66.7319770 106.9647800 123.1877690
  74.9814400 105.6801370 110.6665910  75.1566590 104.9939110 110.0226830
  74.2835970 106.2048420 110.2742580  63.9332950  88.8020550 123.4333540
  63.6517220  89.3054150 122.6694360  64.3152650  88.0042300 123.0675670
  62.8242050 106.0696210 108.2201220  63.5560870 105.7855490 107.6725110
  63.0835720 105.8309490 109.1100600  61.9856840 102.1860940 108.2247550
  61.3565720 102.6546040 108.7733380  62.1004670 101.3410160 108.6593740
  61.5890430  98.3265430  97.1333780  60.7575310  98.0714140  97.5330290
  62.1971410  98.3976200  97.8691700  59.2040260  91.2957330  98.5884800
  59.0243100  90.3983080  98.8687560  58.8020340  91.8429200  99.2631750
  59.8226930  93.7917830  97.1967140  60.5037040  94.0556200  97.8154540
  59.5074980  92.9518700  97.5305150  64.0151500  94.8385190  96.2839730
  64.5229720  95.3366160  96.9244750  64.5464740  94.0620390  96.1079090
  62.2987600  89.4783750 100.5503150  62.3006040  89.9956140  99.7449050
  61.4691910  89.0013930 100.5273080  61.9802930  91.1893710  98.5573600
  62.3219740  92.0335760  98.2627470  61.0418740  91.3377450  98.6738940
  63.6568220  97.2689550  94.3998040  63.2525220  96.5566800  93.9043940
  63.7431340  96.9242790  95.2886080  64.1249920 100.9557110  96.5637250
  63.8278210 100.3502580  95.8845030  65.0749740 100.9934420  96.4526610
  62.3696840  94.0432760  98.1797080  62.9211430  94.1528100  97.4050330
  62.8840350  94.4170360  98.8952310  57.9958220  99.3349670  97.7073330
  58.0738640  99.4698440  96.7629050  58.6099900  98.6265560  97.9001450
  58.0517740 100.3763840 100.2467790  58.2148780  99.9069200  99.4287160
  58.5170190  99.8687400 100.9116630  67.1106320  92.3738120 100.8863680
  66.6485690  92.5821140 101.6983620  66.7084430  91.5597470 100.5834350
  62.6150730  94.6303170  93.0109610  62.3891650  94.4140340  93.9156230
  61.8343260  95.0631630  92.6655580  60.1860480  91.9402420 101.8303660
  59.7923870  92.7877630 102.0376440  59.4978880  91.3028790 102.0212300
  66.7605530  92.0237390 104.9000400  66.0703850  91.8309590 105.5346490
  67.5037830  92.3072030 105.4324700  57.4877530  89.8630880  95.8633740
  57.1990580  90.4333740  96.5758720  58.2323290  89.3835330  96.2264970
  57.6747760  93.8051000  87.0736460  57.5922430  94.7481760  87.2151450
  57.3230820  93.6625910  86.1948810  58.1325010  96.4794450  87.9762390
  59.0019860  96.7619250  88.2598310  57.6415330  97.2930320  87.8611200
  58.4838120 103.9576690 103.0166420  58.5929240 103.0171430 102.8761810
  57.8318680 104.2231440 102.3680150  60.8223570  95.6904140  88.5365910
  60.9027160  94.7431650  88.6483310  61.7143320  96.0211020  88.6426570
  60.6296560 105.0245600 104.8286030  61.4309290 105.3457650 105.2421430
  60.1148380 104.6641180 105.5505940  62.8095560  91.2003120 102.7143930
  62.7152430  90.5823870 101.9894800  62.2292950  91.9269410 102.4873840
  65.0849220  92.9268220 103.0097420  65.6748910  92.6184070 103.6975240
  64.2669460  92.4547970 103.1657320  60.8767670 100.7320470  87.5941500
  61.3142540 101.2750140  88.2499080  61.3615400  99.9067420  87.6037840
  58.0913470 103.5209500  95.0461760  58.4216480 102.6530560  94.8140400
  58.5204470 103.7268020  95.8766720  58.5803680 104.3880090  97.7843390
  58.1434670 104.5680890  98.6167540  59.1481360 105.1454710  97.6425110
  59.0020040  94.1961980 102.5894030  58.1076090  94.1628740 102.9287740
  59.5417590  94.3948770 103.3545280  57.6266190  94.1099250  90.0857600
  56.7230270  94.3729450  89.9109260  58.1106810  94.3810420  89.3057560
  60.1693400  93.1664790  87.9951980  60.8785100  92.7448010  87.5099260
  59.4533340  93.2340020  87.3635330  59.2591750  88.6265980  99.6802570
  58.9106570  89.0829800 100.4460750  58.9279450  87.7323110  99.7625000
  60.8656120 101.7985580 103.8455760  60.8225750 101.4278490 104.7270220
  60.9967130 102.7363150 103.9857580  59.9312390  88.1542180 102.9553340
  60.4795380  87.9730230 102.1919450  59.9967700  87.3636290 103.4909650
  60.3356380 102.1106210  99.9161580  59.6090440 101.4911500  99.8487530
  60.3965530 102.5046820  99.0459660  58.6186380 105.4280600  93.1258340
  58.4508420 104.7951280  93.8240230  57.7520890 105.6340000  92.7752530
  60.2249080 104.1213830  90.5708480  59.6996700 104.5021860  89.8670440
  60.1493660 104.7464600  91.2918190  63.9332950  88.8020550 104.6590050
  63.6517220  89.3054150 103.8950870  64.3152650  88.0042300 104.2932180
  61.9856840 102.1860940  89.4504060  61.3565720 102.6546040  89.9989890
  62.1004670 101.3410160  89.8850250  61.5890430  98.3265430  78.3590290
  60.7575310  98.0714140  78.7586800  62.1971410  98.3976200  79.0948210
  61.5691690 102.3605520  78.5548310  61.8719730 101.4703260  78.3758530
  62.3135280 102.9175740  78.3270560  57.9615390  95.8872970  78.0272380
  58.5331500  95.1195170  78.0276020  57.9616930  96.1861730  77.1178990
  59.2040260  91.2957330  79.8141310  59.0243100  90.3983080  80.0944070
  58.8020340  91.8429200  80.4888260  59.8226930  93.7917830  78.4223650
  60.5037040  94.0556200  79.0411050  59.5074980  92.9518700  78.7561660
  64.0151500  94.8385190  77.5096240  64.5229720  95.3366160  78.1501260
  64.5464740  94.0620390  77.3335600  62.2987600  89.4783750  81.7759660
  62.3006040  89.9956140  80.9705560  61.4691910  89.0013930  81.7529590
  63.5490450  99.1178930  79.9533160  63.2159830  99.7447850  80.5954230
  63.7257130  99.6440810  79.1734830  61.9802930  91.1893710  79.7830110
  62.3219740  92.0335760  79.4883980  61.0418740  91.3377450  79.8995450
  62.7609550 101.0859730  81.7682340  63.3783550 101.7610810  81.4866790
  61.9002670 101.4947710  81.6769840  58.0541890 100.2759590  70.6489190
  57.6769870 100.7646690  69.9174090  58.3114960 100.9484870  71.2795720
  63.6568220  97.2689550  75.6254550  63.2525220  96.5566800  75.1300450
  63.7431340  96.9242790  76.5142590  64.1249920 100.9557110  77.7893760
  63.8278210 100.3502580  77.1101540  65.0749740 100.9934420  77.6783120
  60.3572850  96.1634530  73.1261200  60.2370450  96.8896620  72.5142470
  60.0473740  95.3937440  72.6489110  57.9958220  99.3349670  78.9329840
  58.0738640  99.4698440  77.9885560  58.6099900  98.6265560  79.1257960
  59.2405850 101.0349860  75.3436020  58.8333930 101.1764450  74.4889620
  60.1318860 100.7510020  75.1407230  58.0517740 100.3763840  81.4724300
  58.2148780  99.9069200  80.6543670  58.5170190  99.8687400  82.1373140
  60.1860480  91.9402420  83.0560170  59.7923870  92.7877630  83.2632950
  59.4978880  91.3028790  83.2468810  57.4877530  89.8630880  77.0890250
  57.1990580  90.4333740  77.8015230  58.2323290  89.3835330  77.4521480
  59.6256720  99.7515270  83.6320110  59.2411510  99.1108940  84.2303070
  59.9368910 100.4551390  84.2014840  65.7753860  96.5991810  79.1128730
  66.1423990  96.1250380  79.8590070  65.5858920  97.4733380  79.4537070
  58.6394350  91.3435500  75.2422200  58.3541270  90.9791170  76.0800820
  58.5773210  90.6115960  74.6285340  62.0935020  99.8461440  72.0279790
  61.3197280  99.3059060  71.8678510  62.8229650  99.3268050  71.6897550
  62.1372420  99.5141820  75.6658600  62.6551090  98.7110080  75.6115490
  61.6856440  99.4520960  76.5075430  59.6216960  96.4803190  82.5784300
  59.2631900  97.1457040  83.1657640  59.3271520  95.6486740  82.9496920
  58.1325010  96.4794450  69.2018900  59.0019860  96.7619250  69.4854820
  57.6415330  97.2930320  69.0867710  61.1971600  88.2105310  73.7949700
  61.0686230  88.2023210  74.7434620  60.3733620  88.5488400  73.4440710
  58.4996260 105.6921830  69.7680530  58.8593900 106.2911170  69.1137800
  58.3588600 106.2381720  70.5415560  58.1965530  89.9696430  83.2556400
  57.4824050  90.1693350  83.8609010  58.6160570  89.1936000  83.6271200
  58.4838120 103.9576690  84.2422930  58.5929240 103.0171430  84.1018320
  57.8318680 104.2231440  83.5936660  64.5164880 103.0753030  70.5854200
  64.5074980 103.8082720  69.9698710  63.5963240 102.8284610  70.6781160
  60.1171520  98.2967920  71.3300960  59.5099470  99.0366820  71.3396260
  60.5920870  98.3867280  70.5039160  61.6238280 105.8399530  76.8656960
  62.3600760 105.2914990  77.1365530  62.0079200 106.7055540  76.7262950
  64.7340590 105.0129840  68.6882530  65.5269200 105.3018670  68.2364320
  64.2144940 104.5822010  68.0095010  58.3494370  97.5119060  84.9978590
  58.8533390  96.9326340  85.5694820  57.6101790  97.7959290  85.5354960
  60.3817450  95.6548650  85.8928660  60.4222790  95.3562520  86.8013890
  61.2362950  96.0556260  85.7336180  64.1595840  98.2544200  71.0532170
  64.5812260  98.0884070  71.8963560  64.2846680  97.4444430  70.5587310
  62.8095560  91.2003120  83.9400440  62.7152430  90.5823870  83.2151310
  62.2292950  91.9269410  83.7130350  63.8323970 104.9583700  82.7098000
  63.2945060 105.6829760  82.3906700  64.0857930 104.4814040  81.9195340
  60.8767670 100.7320470  68.8198010  61.3142540 101.2750140  69.4755590
  61.3615400  99.9067420  68.8294350  58.0913470 103.5209500  76.2718270
  58.4216480 102.6530560  76.0396910  58.5204470 103.7268020  77.1023230
  62.6875390 101.8518510  73.9320240  62.3870930 101.7283480  74.8324150
  62.5812880 100.9927100  73.5235970  58.5803680 104.3880090  79.0099900
  58.1434670 104.5680890  79.8424050  59.1481360 105.1454710  78.8681620
  58.4128110  96.9000320  75.3688780  57.7576950  96.6311960  74.7248480
  59.2506060  96.7904800  74.9190760  59.4504040  97.2852890  79.9092120
  59.8177080  97.1980290  80.7888140  58.8814860  96.5219440  79.8098980
  59.0020040  94.1961980  83.8150540  58.1076090  94.1628740  84.1544250
  59.5417590  94.3948770  84.5801790  57.6266190  94.1099250  71.3114110
  56.7230270  94.3729450  71.1365770  58.1106810  94.3810420  70.5314070
  59.5059750  88.4710310  78.1633760  60.1535940  87.9207690  77.7228920
  59.9261590  88.7253460  78.9849570  59.2591750  88.6265980  80.9059080
  58.9106570  89.0829800  81.6717260  58.9279450  87.7323110  80.9881510
  60.8656120 101.7985580  85.0712270  60.8225750 101.4278490  85.9526730
  60.9967130 102.7363150  85.2114090  64.5662150 103.3545170  80.6721990
  64.3253510 103.6219730  79.7852510  65.5064790 103.5250900  80.7272850
  59.9312390  88.1542180  84.1809850  60.4795380  87.9730230  83.4175960
  59.9967700  87.3636290  84.7166160  60.7044150 104.7447830  82.1910050
  60.1104470 104.6132530  82.9300090  60.6967990 103.9085970  81.7252150
  60.3356380 102.1106210  81.1418090  59.6090440 101.4911500  81.0744040
  60.3965530 102.5046820  80.2716170  63.9401480 104.3251210  77.9267500
  64.4566500 103.7138570  77.4015760  64.5898860 104.8279990  78.4178510
  60.2249080 104.1213830  71.7964990  59.6996700 104.5021860  71.0926950
  60.1493660 104.7464600  72.5174700  62.8242050 106.0696210  70.6714240
  63.5560870 105.7855490  70.1238130  63.0835720 105.8309490  71.5613620
  61.9856840 102.1860940  70.6760570  61.3565720 102.6546040  71.2246400
  62.1004670 101.3410160  71.1106760  61.5691690 102.3605520  59.7804820
  61.8719730 101.4703260  59.6015040  62.3135280 102.9175740  59.5527070
  67.8195340 104.7063820  57.1074160  67.2006780 105.1621320  56.5368600
  68.6747120 104.8615280  56.7063860  67.0133590 100.6902810  58.7141200
  66.9441870  99.7492750  58.5530330  67.7753450 100.7804220  59.2863770
  62.7609550 101.0859730  62.9938850  63.3783550 101.7610810  62.7123300
  61.9002670 101.4947710  62.9026350  58.0541890 100.2759590  51.8745700
  57.6769870 100.7646690  51.1430600  58.3114960 100.9484870  52.5052230
  73.6787140 102.5499140  60.9093490  72.9950660 103.2198250  60.9010160
  74.2181430 102.7479790  60.1438350  71.2145880 104.3943270  59.6238670
  71.2273040 103.9905560  58.7560930  70.6621100 105.1690560  59.5200100
  72.2135530 104.5288980  62.6773370  71.7366090 105.3361170  62.4845980
  71.5297320 103.8767310  62.8299580  63.2168350 100.6938800  65.6658070
  62.3196880 100.9178770  65.9131470  63.2421220 100.8173740  64.7169470
  63.8419920 103.5073820  66.4500590  63.8135350 103.9116770  65.5829020
  63.6784890 102.5784180  66.2872190  57.9958220  99.3349670  60.1586350
  58.0738640  99.4698440  59.2142070  58.6099900  98.6265560  60.3514470
  69.0584730 105.1841770  63.4759580  69.5729400 105.0949780  64.2782010
  68.2153810 105.5301470  63.7687490  63.5127510 105.2495640  54.6815200
  63.3369990 104.3331180  54.4683000  62.6583250 105.6082930  54.9213000
  70.7365260 102.9784670  51.4641580  70.0430420 102.9761960  50.8043860
  71.4788120 102.5543990  51.0335750  70.3015190 104.6047380  55.5390070
  70.7572140 103.8236760  55.8528690  70.6407710 105.3154200  56.0831250
  58.0517740 100.3763840  62.6980810  58.2148780  99.9069200  61.8800180
  58.5170190  99.8687400  63.3629650  59.6256720  99.7515270  64.8576620
  59.2411510  99.1108940  65.4559580  59.9368910 100.4551390  65.4271350
  67.0241920 100.7808100  52.1642410  67.3657620 101.5250330  51.6685730
  66.1954630 101.0939220  52.5267240  74.3282850 102.7738510  53.6816230
  73.6859010 102.1194130  53.9559950  73.9413510 103.1793600  52.9056900
  67.5992430 103.3774000  61.7775990  68.2434650 103.5833380  62.4549410
  67.9621870 102.6162400  61.3246840  68.8724510 101.3806350  60.4953440
  69.5146740 100.6799510  60.6085610  69.3973860 102.1604790  60.3150330
  72.7180230 101.6654970  50.2192580  72.4917810 100.9485410  50.8117220
  72.3276430 101.4167410  49.3814330  58.4996260 105.6921830  50.9937040
  58.8593900 106.2911170  50.3394310  58.3588600 106.2381720  51.7672070
  58.4838120 103.9576690  65.4679440  58.5929240 103.0171430  65.3274830
  57.8318680 104.2231440  64.8193170  64.5164880 103.0753030  51.8110710
  64.5074980 103.8082720  51.1955220  63.5963240 102.8284610  51.9037670
  67.5024480 103.1381270  50.4735900  67.6036460 102.9345260  49.5437880
  66.6026220 102.8839550  50.6783680  74.1520750 103.7468320  58.4196340
  74.2768170 104.5699490  58.8920150  75.0186310 103.5359050  58.0720490
  58.5083760 101.9073100  53.9654980  57.5823540 102.1494240  53.9560390
  58.9740190 102.7347360  53.8439730  60.6296560 105.0245600  67.2799050
  61.4309290 105.3457650  67.6934450  60.1148380 104.6641180  68.0018960
  64.7340590 105.0129840  49.9139040  65.5269200 105.3018670  49.4620830
  64.2144940 104.5822010  49.2351520  73.7870760 104.2399970  51.3375780
  73.5012270 103.8265110  50.5229960  73.5890310 105.1687680  51.2176300
  63.8323970 104.9583700  63.9354510  63.2945060 105.6829760  63.6163210
  64.0857930 104.4814040  63.1451850  66.6886180 106.1934910  64.1941160
  66.6144880 107.0970050  64.5013530  65.7865020 105.8746810  64.1663230
  58.0913470 103.5209500  57.4974780  58.4216480 102.6530560  57.2653420
  58.5204470 103.7268020  58.3279740  58.5803680 104.3880090  60.2356410
  58.1434670 104.5680890  61.0680560  59.1481360 105.1454710  60.0938130
  75.4567310 101.6314910  49.8603430  74.6260270 101.6991560  50.3310660
  75.6339140 102.5219030  49.5570290  74.9123770  98.3762390  52.3637630
  75.6742680  98.9459040  52.4697320  74.9278140  97.8089590  53.1345940
  72.9593550 105.3667670  56.1478150  73.5552620 105.0452240  55.4712570
  73.2171700 104.8939490  56.9391420  60.8656120 101.7985580  66.2968780
  60.8225750 101.4278490  67.1783240  60.9967130 102.7363150  66.4370600
  64.5662150 103.3545170  61.8978500  64.3253510 103.6219730  61.0109020
  65.5064790 103.5250900  61.9529360  75.8266310 105.3739550  62.6989140
  75.3324590 105.7708420  61.9816270  75.2179600 104.7488760  63.0926420
  60.7044150 104.7447830  63.4166560  60.1104470 104.6132530  64.1556600
  60.6967990 103.9085970  62.9508660  73.5105760 106.0162970  59.9775880
  73.0508730 106.7678780  59.6033900  72.8818220 105.2969440  59.9190680
  60.3356380 102.1106210  62.3674600  59.6090440 101.4911500  62.3000550
  60.3965530 102.5046820  61.4972680  63.9401480 104.3251210  59.1524010
  64.4566500 103.7138570  58.6272270  64.5898860 104.8279990  59.6435020
  66.6796980 105.2159700  59.9792990  66.9674790 104.9614000  59.1026000
  67.1920200 104.6637060  60.5698560  58.6186380 105.4280600  55.5771360
  58.4508420 104.7951280  56.2753250  57.7520890 105.6340000  55.2265550
  60.2249080 104.1213830  53.0221500  59.6996700 104.5021860  52.3183460
  60.1493660 104.7464600  53.7431210  66.7469340 106.1375800  67.3461190
  67.6736650 105.9020070  67.3897150  66.7319770 106.9647800  66.8647220
  74.9814400 105.6801370  54.3435440  75.1566590 104.9939110  53.6996360
  74.2835970 106.2048420  53.9512110  62.8242050 106.0696210  51.8970750
  63.5560870 105.7855490  51.3494640  63.0835720 105.8309490  52.7870130
  61.9856840 102.1860940  51.9017080  61.3565720 102.6546040  52.4502910
  62.1004670 101.3410160  52.3363270  71.5932030 102.4205810  38.7126680
  71.1313560 101.6493050  39.0413850  72.4057580 102.4471880  39.2179130
  61.5691690 102.3605520  41.0061330  61.8719730 101.4703260  40.8271550
  62.3135280 102.9175740  40.7783580  59.9982380  93.2867320  34.5945700
  59.1099080  93.6283290  34.4925580  60.2823570  93.0867640  33.7026530
  67.8195340 104.7063820  38.3330670  67.2006780 105.1621320  37.7625110
  68.6747120 104.8615280  37.9320370  62.1743770  91.8698820  35.6284080
  62.2810520  92.7702550  35.9352840  61.2636130  91.8216790  35.3378730
  71.8262880  90.9923630  37.0994980  72.6472500  90.5020200  37.1420460
  71.8596960  91.5821290  37.8526820  76.1162430  93.0090380  43.6638610
  75.4114600  93.3972090  43.1453720  76.3820350  93.7040670  44.2659540
  68.6858690  99.5903060  35.7262580  68.0675960 100.0552510  35.1625300
  69.1981940 100.2830540  36.1432090  72.0624360  92.9324010  39.8722520
  71.3579930  93.2208900  40.4525630  72.4236520  93.7424120  39.5122080
  58.0541890 100.2759590  33.1002210  57.6769870 100.7646690  32.3687110
  58.3114960 100.9484870  33.7308740  73.6787140 102.5499140  42.1350000
  72.9950660 103.2198250  42.1266670  74.2181430 102.7479790  41.3694860
  75.1311280  92.3778800  40.2631730  74.1836190  92.4117780  40.3947160
  75.4561270  93.1917750  40.6481090  65.6630820  88.6775980  38.5587720
  65.9705800  88.1222870  37.8423220  64.7331520  88.8120440  38.3760710
  72.5091300 101.1159490  35.9385350  72.3987630 100.1733820  36.0634770
  72.5059550 101.4775130  36.8248110  70.6131320  99.2973110  42.1777790
  71.0300110  99.0833220  41.3431250  71.3371140  99.5545900  42.7486410
  68.0511580  96.7424810  35.2947840  67.1240860  96.6762190  35.5236310
  68.2036400  97.6804940  35.1803080  74.5593420  97.6960330  42.2694030
  73.7312050  97.7653420  41.7944160  75.1543900  98.2814640  41.8009860
  72.0808870  98.3045110  35.7983090  71.4621290  97.9664660  35.1509390
  72.0633320  97.6604870  36.5062280  63.6568220  97.2689550  38.0767570
  63.2525220  96.5566800  37.5813470  63.7431340  96.9242790  38.9655610
  70.2573570  97.5431920  32.8055840  70.6966850  96.7054350  32.6593660
  70.9701990  98.1761320  32.8919980  68.3668950 102.4827990  36.7737080
  68.8064860 103.2252320  36.3592470  68.3055840 102.7254560  37.6976040
  63.8419920 103.5073820  47.6757100  63.8135350 103.9116770  46.8085530
  63.6784890 102.5784180  47.5128700  73.8390710  88.7974730  31.1196880
  73.5263370  88.8901560  32.0195950  74.6003180  89.3755760  31.0694310
  60.3572850  96.1634530  35.5774220  60.2370450  96.8896620  34.9655490
  60.0473740  95.3937440  35.1002130  75.7934740 104.2900920  48.9721270
  76.2694460 104.7683810  49.6510350  76.4141900 104.2218410  48.2466770
  75.1967990 101.4813770  46.1321280  75.3231050 101.2425650  45.2138460
  75.2389370 100.6498310  46.6043360  63.5127510 105.2495640  35.9071710
  63.3369990 104.3331180  35.6939510  62.6583250 105.6082930  36.1469510
  70.7365260 102.9784670  32.6898090  70.0430420 102.9761960  32.0300370
  71.4788120 102.5543990  32.2592260  70.3015190 104.6047380  36.7646580
  70.7572140 103.8236760  37.0785200  70.6407710 105.3154200  37.3087760
  62.8236510  89.5069600  38.9597890  62.3804660  90.2879140  38.6282410
  63.3821500  89.8299490  39.6668830  62.6150730  94.6303170  36.6879140
  62.3891650  94.4140340  37.5925760  61.8343260  95.0631630  36.3425110
  69.8448490  94.6366540  35.2869790  69.2457380  95.3602340  35.1033410
  70.3928100  94.5743320  34.5046240  57.4877530  89.8630880  39.5403270
  57.1990580  90.4333740  40.2528250  58.2323290  89.3835330  39.9034500
  57.6747760  93.8051000  30.7505990  57.5922430  94.7481760  30.8920980
  57.3230820  93.6625910  29.8718340  61.3248270  92.4216520  38.7770550
  60.9848320  92.8991750  39.5337600  60.5625590  91.9681640  38.4171650
  64.5487540  95.8503250  32.2066400  63.9804440  95.4021500  31.5802310
  65.2576540  96.2096030  31.6731550  58.6394350  91.3435500  37.6935220
  58.3541270  90.9791170  38.5313840  58.5773210  90.6115960  37.0798360
  62.0935020  99.8461440  34.4792810  61.3197280  99.3059060  34.3191530
  62.8229650  99.3268050  34.1410570  72.8523000  98.8426800  40.2719200
  73.5722120  99.3382090  39.8815310  72.6504820  98.1644690  39.6273070
  71.0281330  94.6084410  32.7110750  71.9160950  94.9201640  32.5362090
  70.9986420  93.7356660  32.3191330  62.1372420  99.5141820  38.1171620
  62.6551090  98.7110080  38.0628510  61.6856440  99.4520960  38.9588450
  67.0241920 100.7808100  33.3898920  67.3657620 101.5250330  32.8942240
  66.1954630 101.0939220  33.7523750  68.1658530 101.7356430  45.9092000
  68.1803070 100.8037390  45.6910910  67.4583630 101.8216190  46.5481770
  73.2995600  95.9196250  32.1790610  73.2159320  96.3510470  31.3287050
  74.0189790  96.3794600  32.6117430  74.3282850 102.7738510  34.9072740
  73.6859010 102.1194130  35.1816460  73.9413510 103.1793600  34.1313410
  69.9069330 100.1023940  38.7544430  70.2593150  99.5052070  38.0945800
  69.0231660  99.7768170  38.9252680  65.9932610 100.8621630  36.1614840
  66.6803740 101.4090840  36.5422430  65.2065030 101.4062360  36.1964450
  65.2959820  97.8667660  35.7740200  65.7522600  98.6772910  36.0000390
  64.9448030  97.5490800  36.6058690  67.5992430 103.3774000  43.0032500
  68.2434650 103.5833380  43.6805920  67.9621870 102.6162400  42.5503350
  61.1971600  88.2105310  36.2462720  61.0686230  88.2023210  37.1947640
  60.3733620  88.5488400  35.8953730  72.7180230 101.6654970  31.4449090
  72.4917810 100.9485410  32.0373730  72.3276430 101.4167410  30.6070840
  70.6462130 102.1801250  44.9246010  70.9818370 102.7667940  45.6023930
  69.7262470 102.0493960  45.1543800  58.4996260 105.6921830  32.2193550
  58.8593900 106.2911170  31.5650820  58.3588600 106.2381720  32.9928580
  72.2996480  99.5826910  33.1063250  72.0118180 100.0439600  33.8941130
  73.0948650  99.1224680  33.3747470  58.4838120 103.9576690  46.6935950
  58.5929240 103.0171430  46.5531340  57.8318680 104.2231440  46.0449680
  66.4750710 102.2292580  48.0934070  66.1547580 101.5101820  48.6379760
  65.8009070 102.9047650  48.1670130  60.1171520  98.2967920  33.7813980
  59.5099470  99.0366820  33.7909280  60.5920870  98.3867280  32.9552180
  67.5024480 103.1381270  31.6992410  67.6036460 102.9345260  30.7694390
  66.6026220 102.8839550  31.9040190  65.0250370  93.6961630  35.6816310
  64.3166520  94.1647970  36.1229920  65.3094850  93.0383640  36.3161500
  66.1442590 105.6567590  36.3940080  66.3984090 105.6188980  35.4719450
  65.1955070 105.5300920  36.3868330  72.1495170  96.5759470  37.9698590
  71.2085310  96.5909700  38.1446280  72.4639240  95.7895430  38.4158890
  62.1276810  98.2579070  31.5302550  62.8940080  98.1460430  32.0927980
  62.2051500  97.5617040  30.8779320  60.8223570  95.6904140  32.2135440
  60.9027160  94.7431650  32.3252840  61.7143320  96.0211020  32.3196100
  74.1520750 103.7468320  39.6452850  74.2768170 104.5699490  40.1176660
  75.0186310 103.5359050  39.2977000  61.6238280 105.8399530  39.3169980
  62.3600760 105.2914990  39.5878550  62.0079200 106.7055540  39.1775970
  60.6296560 105.0245600  48.5055560  61.4309290 105.3457650  48.9190960
  60.1148380 104.6641180  49.2275470  73.7870760 104.2399970  32.5632290
  73.5012270 103.8265110  31.7486470  73.5890310 105.1687680  32.4432810
  65.2517990 100.2333250  31.0037900  65.1468630  99.6185600  31.7299280
  65.0842210  99.7099140  30.2200910  68.4920720  99.2953280  31.6079890
  67.9430820  99.7422580  32.2522630  69.1139980  98.7902530  32.1317560
  72.5455660 100.6495380  47.5402150  73.2865130 100.9871140  47.0369610
  71.7828340 100.8187440  46.9871920  64.1595840  98.2544200  33.5045190
  64.5812260  98.0884070  34.3476580  64.2846680  97.4444430  33.0100330
  66.6723480  97.2781810  30.7522290  67.1929140  96.5630830  30.3863440
  67.3191880  97.9167680  31.0522800  63.8323970 104.9583700  45.1611020
  63.2945060 105.6829760  44.8419720  64.0857930 104.4814040  44.3708360
  66.6886180 106.1934910  45.4197670  66.6144880 107.0970050  45.7270040
  65.7865020 105.8746810  45.3919740  60.8767670 100.7320470  31.2711030
  61.3142540 101.2750140  31.9268610  61.3615400  99.9067420  31.2807370
  58.0913470 103.5209500  38.7231290  58.4216480 102.6530560  38.4909930
  58.5204470 103.7268020  39.5536250  62.6875390 101.8518510  36.3833260
  62.3870930 101.7283480  37.2837170  62.5812880 100.9927100  35.9748990
  58.5803680 104.3880090  41.4612920  58.1434670 104.5680890  42.2937070
  59.1481360 105.1454710  41.3194640  75.4567310 101.6314910  31.0859940
  74.6260270 101.6991560  31.5567170  75.6339140 102.5219030  30.7826800
  74.9123770  98.3762390  33.5894140  75.6742680  98.9459040  33.6953830
  74.9278140  97.8089590  34.3602450  58.4128110  96.9000320  37.8201800
  57.7576950  96.6311960  37.1761500  59.2506060  96.7904800  37.3703780
  75.9183740  99.2312490  38.4336070  76.2892570  98.4479810  38.0272040
  76.5585670  99.9201590  38.2553370  72.9017500 100.6149070  43.8466390
  72.0877340 101.0446230  44.1092180  73.3091700 101.2267480  43.2335440
  74.9642940  98.6696760  30.7466660  75.2391780  99.5775640  30.6185880
  74.7753680  98.6059290  31.6828650  74.8608280  96.6065750  35.7396090
  74.4851880  95.8393680  35.3077380  74.1311400  96.9888450  36.2271020
  57.6266190  94.1099250  33.7627130  56.7230270  94.3729450  33.5878790
  58.1106810  94.3810420  32.9827090  74.1359240  94.8323240  39.0403330
  74.6596720  94.3385890  38.4093500  74.7218660  94.9673600  39.7850900
  59.8167560  89.2204120  30.7124160  60.5395690  89.7613060  31.0305380
  60.0892080  88.9467540  29.8365700  73.6259210  94.0896590  34.9795740
  74.1218330  93.8567460  35.7644620  73.4275280  93.2508430  34.5633380
  75.0546370  92.7257540  37.5133420  74.9445650  92.5713580  38.4515690
  75.8153960  92.1978480  37.2708830  75.9436640  90.5565460  30.7539560
  76.8685950  90.4246640  30.5457850  75.9212430  90.6358280  31.7076010
  76.0175130  91.3276120  33.3796270  75.2226630  91.2621240  33.9089180
  76.2218410  92.2626760  33.3681620  64.5662150 103.3545170  43.1235010
  64.3253510 103.6219730  42.2365530  65.5064790 103.5250900  43.1785870
  60.7044150 104.7447830  44.6423070  60.1104470 104.6132530  45.3813110
  60.6967990 103.9085970  44.1765170  60.3356380 102.1106210  43.5931110
  59.6090440 101.4911500  43.5257060  60.3965530 102.5046820  42.7229190
  63.9401480 104.3251210  40.3780520  64.4566500 103.7138570  39.8528780
  64.5898860 104.8279990  40.8691530  66.6796980 105.2159700  41.2049500
  66.9674790 104.9614000  40.3282510  67.1920200 104.6637060  41.7955070
  74.3133630  89.2888240  37.8403920  74.2522030  88.3449460  37.6934940
  75.0925660  89.3968330  38.3857380  58.6186380 105.4280600  36.8027870
  58.4508420 104.7951280  37.5009760  57.7520890 105.6340000  36.4522060
  59.2414400  89.2597380  34.3059730  59.9993760  89.3726260  33.7323760
  58.7791570  90.0966580  34.2603160  73.4287790  88.4400660  33.8085390
  73.6238420  89.3384110  34.0752820  72.6417660  88.2087740  34.3018340
  60.2249080 104.1213830  34.2478010  59.6996700 104.5021860  33.5439970
  60.1493660 104.7464600  34.9687720  61.6139550  89.7861430  32.8461700
  62.1432310  88.9991230  32.7169650  62.2467870  90.4652620  33.0797230
  63.8077390  89.5236570  35.9007090  63.1780130  88.8223880  36.0677220
  63.2682530  90.2840700  35.6840250  66.7469340 106.1375800  48.5717700
  67.6736650 105.9020070  48.6153660  66.7319770 106.9647800  48.0903730
  69.4406560  96.2366600  19.2774790  69.3600610  95.3221210  19.0066500
  69.0270980  96.7333670  18.5714500  67.5724600  98.0145620  21.1584060
  66.7966700  97.5346060  21.4482630  68.2237530  97.3351270  20.9840220
  59.9982380  93.2867320  15.8202210  59.1099080  93.6283290  15.7182090
  60.2823570  93.0867640  14.9283040  67.8195340 104.7063820  19.5587180
  67.2006780 105.1621320  18.9881620  68.6747120 104.8615280  19.1576880
  67.0133590 100.6902810  21.1654220  66.9441870  99.7492750  21.0043350
  67.7753450 100.7804220  21.7376790  59.2040260  91.2957330  23.4910840
  59.0243100  90.3983080  23.7713600  58.8020340  91.8429200  24.1657790
  76.1162430  93.0090380  24.8895120  75.4114600  93.3972090  24.3710230
  76.3820350  93.7040670  25.4916050  62.2987600  89.4783750  25.4529190
  62.3006040  89.9956140  24.6475090  61.4691910  89.0013930  25.4299120
  68.6858690  99.5903060  16.9519090  68.0675960 100.0552510  16.3881810
  69.1981940 100.2830540  17.3688600  61.9802930  91.1893710  23.4599640
  62.3219740  92.0335760  23.1653510  61.0418740  91.3377450  23.5764980
  62.7609550 101.0859730  25.4451870  63.3783550 101.7610810  25.1636320
  61.9002670 101.4947710  25.3539370  58.0541890 100.2759590  14.3258720
  57.6769870 100.7646690  13.5943620  58.3114960 100.9484870  14.9565250
  70.6131320  99.2973110  23.4034300  71.0300110  99.0833220  22.5687760
  71.3371140  99.5545900  23.9742920  68.0511580  96.7424810  16.5204350
  67.1240860  96.6762190  16.7492820  68.2036400  97.6804940  16.4059590
  68.0380660  93.0141810  13.5171510  67.0984330  93.1755770  13.6023970
  68.3563920  93.7327490  12.9707500  74.5593420  97.6960330  23.4950540
  73.7312050  97.7653420  23.0200670  75.1543900  98.2814640  23.0266370
  63.6568220  97.2689550  19.3024080  63.2525220  96.5566800  18.8069980
  63.7431340  96.9242790  20.1912120  72.2135530 104.5288980  25.1286390
  71.7366090 105.3361170  24.9359000  71.5297320 103.8767310  25.2812600
  63.2168350 100.6938800  28.1171090  62.3196880 100.9178770  28.3644490
  63.2421220 100.8173740  27.1682490  70.2573570  97.5431920  14.0312350
  70.6966850  96.7054350  13.8850170  70.9701990  98.1761320  14.1176490
  68.3668950 102.4827990  17.9993590  68.8064860 103.2252320  17.5848980
  68.3055840 102.7254560  18.9232550  60.3572850  96.1634530  16.8030730
  60.2370450  96.8896620  16.1912000  60.0473740  95.3937440  16.3258640
  75.7934740 104.2900920  30.1977780  76.2694460 104.7683810  30.8766860
  76.4141900 104.2218410  29.4723280  59.2405850 101.0349860  19.0205550
  58.8333930 101.1764450  18.1659150  60.1318860 100.7510020  18.8176760
  75.1967990 101.4813770  27.3577790  75.3231050 101.2425650  26.4394970
  75.2389370 100.6498310  27.8299870  71.0339130 105.4697110  15.3556600
  70.8740270 105.1800050  16.2538430  70.8685840 104.6937240  14.8201830
  63.5127510 105.2495640  17.1328220  63.3369990 104.3331180  16.9196020
  62.6583250 105.6082930  17.3726020  70.7365260 102.9784670  13.9154600
  70.0430420 102.9761960  13.2556880  71.4788120 102.5543990  13.4848770
  70.3015190 104.6047380  17.9903090  70.7572140 103.8236760  18.3041710
  70.6407710 105.3154200  18.5344270  75.0492000  93.5346230  28.3227530
  74.4336270  94.0425900  27.7942990  74.7288420  92.6344560  28.2653470
  58.0517740 100.3763840  25.1493830  58.2148780  99.9069200  24.3313200
  58.5170190  99.8687400  25.8142670  69.2060540  95.0948820  29.0185170
  69.5313950  94.2612570  28.6787400  69.9940870  95.6177340  29.1663500
  62.6150730  94.6303170  17.9135650  62.3891650  94.4140340  18.8182270
  61.8343260  95.0631630  17.5681620  68.4513360  93.2730080  18.5429580
  68.8442930  93.5902280  17.7298270  68.8130210  92.3941960  18.6574100
  60.1860480  91.9402420  26.7329700  59.7923870  92.7877630  26.9402480
  59.4978880  91.3028790  26.9238340  57.6747760  93.8051000  11.9762500
  57.5922430  94.7481760  12.1177490  57.3230820  93.6625910  11.0974850
  65.4745890  92.5390030  21.0432850  65.4781950  92.0979980  20.1937390
  66.3697010  92.8607360  21.1504670  65.5366040  93.5402110  14.0339610
  65.6578860  93.4988590  14.9825430  65.1514550  94.4026260  13.8786340
  64.5487540  95.8503250  13.4322910  63.9804440  95.4021500  12.8058820
  65.2576540  96.2096030  12.8988060  72.9265160  88.7301690  27.8889680
  73.2510930  87.9991350  28.4147660  72.9621670  88.4115330  26.9870670
  59.6256720  99.7515270  27.3089640  59.2411510  99.1108940  27.9072600
  59.9368910 100.4551390  27.8784370  62.0935020  99.8461440  15.7049320
  61.3197280  99.3059060  15.5448040  62.8229650  99.3268050  15.3667080
  68.2341800  98.9135860  27.3844710  68.1679110  97.9931530  27.1302300
  67.6046940  99.0111300  28.0989350  62.1372420  99.5141820  19.3428130
  62.6551090  98.7110080  19.2885020  61.6856440  99.4520960  20.1844960
  67.0241920 100.7808100  14.6155430  67.3657620 101.5250330  14.1198750
  66.1954630 101.0939220  14.9780260  68.1658530 101.7356430  27.1348510
  68.1803070 100.8037390  26.9167420  67.4583630 101.8216190  27.7738280
  74.3769740  98.3763770  26.4817090  73.6517930  98.9692550  26.2846480
  74.9045200  98.3687310  25.6830460  74.3282850 102.7738510  16.1329250
  73.6859010 102.1194130  16.4072970  73.9413510 103.1793600  15.3569920
  65.9932610 100.8621630  17.3871350  66.6803740 101.4090840  17.7678940
  65.2065030 101.4062360  17.4220960  58.1325010  96.4794450  12.8788430
  59.0019860  96.7619250  13.1624350  57.6415330  97.2930320  12.7637240
  65.2959820  97.8667660  16.9996710  65.7522600  98.6772910  17.2256900
  64.9448030  97.5490800  17.8315200  67.5992430 103.3774000  24.2289010
  68.2434650 103.5833380  24.9062430  67.9621870 102.6162400  23.7759860
  68.8724510 101.3806350  22.9466460  69.5146740 100.6799510  23.0598630
  69.3973860 102.1604790  22.7663350  72.7180230 101.6654970  12.6705600
  72.4917810 100.9485410  13.2630240  72.3276430 101.4167410  11.8327350
  70.6462130 102.1801250  26.1502520  70.9818370 102.7667940  26.8280440
  69.7262470 102.0493960  26.3800310  58.4996260 105.6921830  13.4450060
  58.8593900 106.2911170  12.7907330  58.3588600 106.2381720  14.2185090
  58.1965530  89.9696430  26.9325930  57.4824050  90.1693350  27.5378540
  58.6160570  89.1936000  27.3040730  72.2996480  99.5826910  14.3319760
  72.0118180 100.0439600  15.1197640  73.0948650  99.1224680  14.6003980
  66.4750710 102.2292580  29.3190580  66.1547580 101.5101820  29.8636270
  65.8009070 102.9047650  29.3926640  64.5164880 103.0753030  14.2623730
  64.5074980 103.8082720  13.6468240  63.5963240 102.8284610  14.3550690
  60.1171520  98.2967920  15.0070490  59.5099470  99.0366820  15.0165790
  60.5920870  98.3867280  14.1808690  67.5024480 103.1381270  12.9248920
  67.6036460 102.9345260  11.9950900  66.6026220 102.8839550  13.1296700
  65.0250370  93.6961630  16.9072820  64.3166520  94.1647970  17.3486430
  65.3094850  93.0383640  17.5418010  69.0565800  90.4212290  18.3468610
  68.9333580  90.4398420  17.3978120  70.0050360  90.4691230  18.4667010
  66.1442590 105.6567590  17.6196590  66.3984090 105.6188980  16.6975960
  65.1955070 105.5300920  17.6124840  73.8573160  91.3326290  25.7493740
  73.3546760  92.0731690  26.0887550  74.6729820  91.7210290  25.4330530
  62.1276810  98.2579070  12.7559060  62.8940080  98.1460430  13.3184490
  62.2051500  97.5617040  12.1035830  60.8223570  95.6904140  13.4391950
  60.9027160  94.7431650  13.5509350  61.7143320  96.0211020  13.5452610
  58.5083760 101.9073100  16.4168000  57.5823540 102.1494240  16.4073410
  58.9740190 102.7347360  16.2952750  64.7340590 105.0129840  12.3652060
  65.5269200 105.3018670  11.9133850  64.2144940 104.5822010  11.6864540
  69.4661190 101.1325470  29.6787480  68.8599350 101.1557070  28.9383230
  69.1615300 100.4008510  30.2154730  73.7870760 104.2399970  13.7888800
  73.5012270 103.8265110  12.9742980  73.5890310 105.1687680  13.6689320
  65.2517990 100.2333250  12.2294410  65.1468630  99.6185600  12.9555790
  65.0842210  99.7099140  11.4457420  65.4032310  98.9190050  28.2083640
  64.6377980  99.4875050  28.1238310  65.5848270  98.6266260  27.3151870
  68.4920720  99.2953280  12.8336400  67.9430820  99.7422580  13.4779140
  69.1139980  98.7902530  13.3574070  72.5455660 100.6495380  28.7658660
  73.2865130 100.9871140  28.2626120  71.7828340 100.8187440  28.2128430
  64.1595840  98.2544200  14.7301700  64.5812260  98.0884070  15.5733090
  64.2846680  97.4444430  14.2356840  66.6723480  97.2781810  11.9778800
  67.1929140  96.5630830  11.6119950  67.3191880  97.9167680  12.2779310
  71.2201320  98.7010210  27.3013870  71.6342340  98.8555290  28.1504290
  70.2852320  98.8265430  27.4639650  71.6923490  96.0406370  29.3053020
  72.2744260  95.2858690  29.2173500  71.8685260  96.5713810  28.5284500
  62.8095560  91.2003120  27.6169970  62.7152430  90.5823870  26.8920840
  62.2292950  91.9269410  27.3899880  68.3180450  96.3846870  26.6547640
  68.4376660  95.7888010  27.3942480  69.1774450  96.4216560  26.2348940
  70.6568350  96.9384060  25.2310150  70.1303570  97.4626680  24.6275290
  70.9999690  97.5711450  25.8619880  63.0554740  94.3277430  11.6759860
  62.8543800  93.4644790  12.0373200  62.8846790  94.2410790  10.7381460
  61.8537540  91.4278050  11.6637740  62.1563440  91.4345480  10.7556890
  62.5932130  91.0775910  12.1605400  65.0722470  90.3712670  12.6493940
  64.7244470  89.6936660  12.0696390  65.2735240  89.9102180  13.4637330
  67.2371510 105.3593420  14.2680540  68.1322300 105.6978390  14.2899300
  67.2689140 104.6372830  13.6404820  60.8767670 100.7320470  12.4967540
  61.3142540 101.2750140  13.1525120  61.3615400  99.9067420  12.5063880
  58.0913470 103.5209500  19.9487800  58.4216480 102.6530560  19.7166440
  58.5204470 103.7268020  20.7792760  62.6875390 101.8518510  17.6089770
  62.3870930 101.7283480  18.5093680  62.5812880 100.9927100  17.2005500
  58.5803680 104.3880090  22.6869430  58.1434670 104.5680890  23.5193580
  59.1481360 105.1454710  22.5451150  74.2165860 103.8897090  26.9746740
  73.6167850 103.9489650  26.2310660  74.3459760 102.9502070  27.1043590
  75.4567310 101.6314910  12.3116450  74.6260270 101.6991560  12.7823680
  75.6339140 102.5219030  12.0083310  74.9123770  98.3762390  14.8150650
  75.6742680  98.9459040  14.9210340  74.9278140  97.8089590  15.5858960
  58.4128110  96.9000320  19.0458310  57.7576950  96.6311960  18.4018010
  59.2506060  96.7904800  18.5960290  72.9017500 100.6149070  25.0722900
  72.0877340 101.0446230  25.3348690  73.3091700 101.2267480  24.4591950
  74.9642940  98.6696760  11.9723170  75.2391780  99.5775640  11.8442390
  74.7753680  98.6059290  12.9085160  74.2507900  95.7537270  26.5992120
  74.0193990  95.5250020  25.6990070  74.5112450  96.6736820  26.5537010
  59.0020040  94.1961980  27.4920070  58.1076090  94.1628740  27.8313780
  59.5417590  94.3948770  28.2571320  72.6895970  90.9793700  29.3771820
  73.5666150  90.9877100  29.7605820  72.7016810  90.2424540  28.7664170
  57.6266190  94.1099250  14.9883640  56.7230270  94.3729450  14.8135300
  58.1106810  94.3810420  14.2083600  74.3148960  94.9163110  23.7879390
  73.3651670  94.8826650  23.9024380  74.4961970  95.8263220  23.5529160
  60.1693400  93.1664790  12.8978020  60.8785100  92.7448010  12.4125300
  59.4533340  93.2340020  12.2661370  59.8167560  89.2204120  11.9380670
  60.5395690  89.7613060  12.2561890  60.0892080  88.9467540  11.0622210
  73.4012090  88.6651670  25.1972930  74.0384310  89.2785810  25.5632120
  73.5486980  88.7012330  24.2522160  75.9436640  90.5565460  11.9796070
  76.8685950  90.4246640  11.7714360  75.9212430  90.6358280  12.9332520
  72.9593550 105.3667670  18.5991170  73.5552620 105.0452240  17.9225590
  73.2171700 104.8939490  19.3904440  59.2591750  88.6265980  24.5828610
  58.9106570  89.0829800  25.3486790  58.9279450  87.7323110  24.6651040
  64.5662150 103.3545170  24.3491520  64.3253510 103.6219730  23.4622040
  65.5064790 103.5250900  24.4042380  75.8266310 105.3739550  25.1502160
  75.3324590 105.7708420  24.4329290  75.2179600 104.7488760  25.5439440
  59.9312390  88.1542180  27.8579380  60.4795380  87.9730230  27.0945490
  59.9967700  87.3636290  28.3935690  60.3356380 102.1106210  24.8187620
  59.6090440 101.4911500  24.7513570  60.3965530 102.5046820  23.9485700
  66.6796980 105.2159700  22.4306010  66.9674790 104.9614000  21.5539020
  67.1920200 104.6637060  23.0211580  58.6186380 105.4280600  18.0284380
  58.4508420 104.7951280  18.7266270  57.7520890 105.6340000  17.6778570
  60.2249080 104.1213830  15.4734520  59.6996700 104.5021860  14.7696480
  60.1493660 104.7464600  16.1944230  74.9814400 105.6801370  16.7948460
  75.1566590 104.9939110  16.1509380  74.2835970 106.2048420  16.4025130
  63.9332950  88.8020550  29.5616090  63.6517220  89.3054150  28.7976910
  64.3152650  88.0042300  29.1958220  62.8242050 106.0696210  14.3483770
  63.5560870 105.7855490  13.8007660  63.0835720 105.8309490  15.2383150
  61.9856840 102.1860940  14.3530100  61.3565720 102.6546040  14.9015930
  62.1004670 101.3410160  14.7876290  67.5724600  98.0145620   2.3840570
  66.7966700  97.5346060   2.6739140  68.2237530  97.3351270   2.2096730
  61.5890430  98.3265430   3.2616330  60.7575310  98.0714140   3.6612840
  62.1971410  98.3976200   3.9974250  61.5691690 102.3605520   3.4574350
  61.8719730 101.4703260   3.2784570  62.3135280 102.9175740   3.2296600
  57.9615390  95.8872970   2.9298420  58.5331500  95.1195170   2.9302060
  57.9616930  96.1861730   2.0205030  67.0133590 100.6902810   2.3910730
  66.9441870  99.7492750   2.2299860  67.7753450 100.7804220   2.9633300
  59.2040260  91.2957330   4.7167350  59.0243100  90.3983080   4.9970110
  58.8020340  91.8429200   5.3914300  68.0438760  93.4973190   2.6179660
  68.4203580  92.6245070   2.5053330  67.9458270  93.8331890   1.7270100
  59.8226930  93.7917830   3.3249690  60.5037040  94.0556200   3.9437090
  59.5074980  92.9518700   3.6587700  64.0151500  94.8385190   2.4122280
  64.5229720  95.3366160   3.0527300  64.5464740  94.0620390   2.2361640
  76.1162430  93.0090380   6.1151630  75.4114600  93.3972090   5.5966740
  76.3820350  93.7040670   6.7172560  62.2987600  89.4783750   6.6785700
  62.3006040  89.9956140   5.8731600  61.4691910  89.0013930   6.6555630
  63.5490450  99.1178930   4.8559200  63.2159830  99.7447850   5.4980270
  63.7257130  99.6440810   4.0760870  72.0624360  92.9324010   2.3235540
  71.3579930  93.2208900   2.9038650  72.4236520  93.7424120   1.9635100
  61.9802930  91.1893710   4.6856150  62.3219740  92.0335760   4.3910020
  61.0418740  91.3377450   4.8021490  62.7609550 101.0859730   6.6708380
  63.3783550 101.7610810   6.3892830  61.9002670 101.4947710   6.5795880
  73.6787140 102.5499140   4.5863020  72.9950660 103.2198250   4.5779690
  74.2181430 102.7479790   3.8207880  75.1311280  92.3778800   2.7144750
  74.1836190  92.4117780   2.8460180  75.4561270  93.1917750   3.0994110
  71.2145880 104.3943270   3.3008200  71.2273040 103.9905560   2.4330460
  70.6621100 105.1690560   3.1969630  70.6131320  99.2973110   4.6290810
  71.0300110  99.0833220   3.7944270  71.3371140  99.5545900   5.1999430
  74.5593420  97.6960330   4.7207050  73.7312050  97.7653420   4.2457180
  75.1543900  98.2814640   4.2522880  71.5235430  94.4829650   5.6661920
  71.1106610  95.3083360   5.9201910  70.7911380  93.8974690   5.4738280
  64.1249920 100.9557110   2.6919800  63.8278210 100.3502580   2.0127580
  65.0749740 100.9934420   2.5809160  62.3696840  94.0432760   4.3079630
  62.9211430  94.1528100   3.5332880  62.8840350  94.4170360   5.0234860
  72.2135530 104.5288980   6.3542900  71.7366090 105.3361170   6.1615510
  71.5297320 103.8767310   6.5069110  63.2168350 100.6938800   9.3427600
  62.3196880 100.9178770   9.5901000  63.2421220 100.8173740   8.3939000
  62.0439570  97.5652120   7.9184970  61.9047340  98.4374920   8.2872370
  61.1620930  97.2224930   7.7732910  63.8419920 103.5073820  10.1270120
  63.8135350 103.9116770   9.2598550  63.6784890 102.5784180   9.9641720
  75.7934740 104.2900920  11.4234290  76.2694460 104.7683810  12.1023370
  76.4141900 104.2218410  10.6979790  57.9958220  99.3349670   3.8355880
  58.0738640  99.4698440   2.8911600  58.6099900  98.6265560   4.0284000
  75.1967990 101.4813770   8.5834300  75.3231050 101.2425650   7.6651480
  75.2389370 100.6498310   9.0556380  69.0584730 105.1841770   7.1529110
  69.5729400 105.0949780   7.9551540  68.2153810 105.5301470   7.4457020
  75.0492000  93.5346230   9.5484040  74.4336270  94.0425900   9.0199500
  74.7288420  92.6344560   9.4909980  58.0517740 100.3763840   6.3750340
  58.2148780  99.9069200   5.5569710  58.5170190  99.8687400   7.0399180
  67.1106320  92.3738120   7.0146230  66.6485690  92.5821140   7.8266170
  66.7084430  91.5597470   6.7116900  72.1110830  93.5947070   8.1442890
  71.2604420  93.2952820   8.4651960  71.9512620  93.8389080   7.2326710
  69.2060540  95.0948820  10.2441680  69.5313950  94.2612570   9.9043910
  69.9940870  95.6177340  10.3920010  64.8612410  90.0516930   3.2700510
  65.1584740  90.9579760   3.1892530  65.4097970  89.5635710   2.6560080
  65.0549940  95.5288750   9.8052430  64.9593540  94.5883480   9.6552830
  65.8981920  95.7503820   9.4100500  60.1860480  91.9402420   7.9586210
  59.7923870  92.7877630   8.1658990  59.4978880  91.3028790   8.1494850
  66.7605530  92.0237390  11.0282950  66.0703850  91.8309590  11.6629040
  67.5037830  92.3072030  11.5607250  57.4877530  89.8630880   1.9916290
  57.1990580  90.4333740   2.7041270  58.2323290  89.3835330   2.3547520
  69.0368500  95.8635830   3.8636870  68.3049620  96.3722640   4.2126970
  68.6392840  95.0465810   3.5625650  65.4745890  92.5390030   2.2689360
  65.4781950  92.0979980   1.4193900  66.3697010  92.8607360   2.3761180
  69.4994410  91.3169510   3.2759810  69.5167150  91.7678160   4.1201660
  69.2509990  90.4175150   3.4893250  72.9265160  88.7301690   9.1146190
  73.2510930  87.9991350   9.6404170  72.9621670  88.4115330   8.2127180
  59.6256720  99.7515270   8.5346150  59.2411510  99.1108940   9.1329110
  59.9368910 100.4551390   9.1040880  65.7753860  96.5991810   4.0154770
  66.1423990  96.1250380   4.7616110  65.5858920  97.4733380   4.3563110
  63.5653230  95.6400450   6.3338980  63.2610300  96.5192430   6.5589340
  64.5199690  95.7000240   6.3696420  72.8523000  98.8426800   2.7232220
  73.5722120  99.3382090   2.3328330  72.6504820  98.1644690   2.0786090
  68.2341800  98.9135860   8.6101220  68.1679110  97.9931530   8.3558810
  67.6046940  99.0111300   9.3245860  59.6216960  96.4803190   7.4810340
  59.2631900  97.1457040   8.0683680  59.3271520  95.6486740   7.8522960
  62.8230080  96.9387430  10.3649890  62.5230220  97.0844610   9.4677710
  63.5941320  96.3792720  10.2723280  68.1658530 101.7356430   8.3605020
  68.1803070 100.8037390   8.1423930  67.4583630 101.8216190   8.9994790
  74.3769740  98.3763770   7.7073600  73.6517930  98.9692550   7.5102990
  74.9045200  98.3687310   6.9086970  67.5992430 103.3774000   5.4545520
  68.2434650 103.5833380   6.1318940  67.9621870 102.6162400   5.0016370
  68.8724510 101.3806350   4.1722970  69.5146740 100.6799510   4.2855140
  69.3973860 102.1604790   3.9919860  70.6462130 102.1801250   7.3759030
  70.9818370 102.7667940   8.0536950  69.7262470 102.0493960   7.6056820
  58.1965530  89.9696430   8.1582440  57.4824050  90.1693350   8.7635050
  58.6160570  89.1936000   8.5297240  58.4838120 103.9576690   9.1448970
  58.5929240 103.0171430   9.0044360  57.8318680 104.2231440   8.4962700
  66.4750710 102.2292580  10.5447090  66.1547580 101.5101820  11.0892780
  65.8009070 102.9047650  10.6183150  69.6904310  92.4618740   5.9083890
  70.0585130  91.6413950   6.2363460  68.8302510  92.5220630   6.3239540
  66.6506300  95.1158330   6.1321860  67.1491550  95.5904150   6.7973710
  66.7929250  94.1921850   6.3391890  73.8573160  91.3326290   6.9750250
  73.3546760  92.0731690   7.3144060  74.6729820  91.7210290   6.6587040
  74.1520750 103.7468320   2.0965870  74.2768170 104.5699490   2.5689680
  75.0186310 103.5359050   1.7490020  61.6238280 105.8399530   1.7683000
  62.3600760 105.2914990   2.0391570  62.0079200 106.7055540   1.6288990
  60.6296560 105.0245600  10.9568580  61.4309290 105.3457650  11.3703980
  60.1148380 104.6641180  11.6788490  69.4661190 101.1325470  10.9043990
  68.8599350 101.1557070  10.1639740  69.1615300 100.4008510  11.4411240
  70.8961560 104.8605760   9.5153400  71.8483310 104.7763780   9.4653640
  70.7489780 105.5247470  10.1887190  58.3494370  97.5119060   9.9004630
  58.8533390  96.9326340  10.4720860  57.6101790  97.7959290  10.4381000
  65.4032310  98.9190050   9.4340150  64.6377980  99.4875050   9.3494820
  65.5848270  98.6266260   8.5408380  72.5455660 100.6495380   9.9915170
  73.2865130 100.9871140   9.4882630  71.7828340 100.8187440   9.4384940
  60.3817450  95.6548650  10.7954700  60.4222790  95.3562520  11.7039930
  61.2362950  96.0556260  10.6362220  62.3223260  94.2340750   8.7629190
  61.7919720  93.7431700   8.1352530  62.9911330  94.6624950   8.2287120
  71.2201320  98.7010210   8.5270380  71.6342340  98.8555290   9.3760800
  70.2852320  98.8265430   8.6896160  71.6923490  96.0406370  10.5309530
  72.2744260  95.2858690  10.4430010  71.8685260  96.5713810   9.7541010
  62.8095560  91.2003120   8.8426480  62.7152430  90.5823870   8.1177350
  62.2292950  91.9269410   8.6156390  65.5757000  89.7576360   5.8753870
  65.1274300  89.7800620   5.0299420  64.9422200  89.3595380   6.4724170
  65.9816550  98.6530690   6.4966310  66.4004660  99.4963420   6.3242550
  65.0625180  98.7902730   6.2673090  68.3180450  96.3846870   7.8804150
  68.4376660  95.7888010   8.6198990  69.1774450  96.4216560   7.4605450
  70.6568350  96.9384060   6.4566660  70.1303570  97.4626680   5.8531800
  70.9999690  97.5711450   7.0876390  63.8323970 104.9583700   7.6124040
  63.2945060 105.6829760   7.2932740  64.0857930 104.4814040   6.8221380
  65.0849220  92.9268220   9.1379970  65.6748910  92.6184070   9.8257790
  64.2669460  92.4547970   9.2939870  69.9042650  92.5434030   9.3712990
  69.2158170  91.8815570   9.3062980  70.6248670  92.0972300   9.8161450
  66.6886180 106.1934910   7.8710690  66.6144880 107.0970050   8.1783060
  65.7865020 105.8746810   7.8432760  58.5803680 104.3880090   3.9125940
  58.1434670 104.5680890   4.7450090  59.1481360 105.1454710   3.7707660
  74.2165860 103.8897090   8.2003250  73.6167850 103.9489650   7.4567170
  74.3459760 102.9502070   8.3300100  72.9017500 100.6149070   6.2979410
  72.0877340 101.0446230   6.5605200  73.3091700 101.2267480   5.6848460
  59.4504040  97.2852890   4.8118160  59.8177080  97.1980290   5.6914180
  58.8814860  96.5219440   4.7125020  74.2507900  95.7537270   7.8248630
  74.0193990  95.5250020   6.9246580  74.5112450  96.6736820   7.7793520
  59.0020040  94.1961980   8.7176580  58.1076090  94.1628740   9.0570290
  59.5417590  94.3948770   9.4827830  72.6895970  90.9793700  10.6028330
  73.5666150  90.9877100  10.9862330  72.7016810  90.2424540   9.9920680
  74.3148960  94.9163110   5.0135900  73.3651670  94.8826650   5.1280890
  74.4961970  95.8263220   4.7785670  59.5059750  88.4710310   3.0659800
  60.1535940  87.9207690   2.6254960  59.9261590  88.7253460   3.8875610
  73.4012090  88.6651670   6.4229440  74.0384310  89.2785810   6.7888630
  73.5486980  88.7012330   5.4778670  59.2591750  88.6265980   5.8085120
  58.9106570  89.0829800   6.5743300  58.9279450  87.7323110   5.8907550
  60.8656120 101.7985580   9.9738310  60.8225750 101.4278490  10.8552770
  60.9967130 102.7363150  10.1140130  64.5662150 103.3545170   5.5748030
  64.3253510 103.6219730   4.6878550  65.5064790 103.5250900   5.6298890
  66.7716570  89.8177860   9.3304540  66.7105460  90.4099690  10.0799950
  67.7116950  89.7103820   9.1854800  69.4091130  89.4747920   8.9696830
  70.0231540  89.7927210   8.3077910  69.9540690  88.9896510   9.5892690
  75.8266310 105.3739550   6.3758670  75.3324590 105.7708420   5.6585800
  75.2179600 104.7488760   6.7695950  59.9312390  88.1542180   9.0835890
  60.4795380  87.9730230   8.3202000  59.9967700  87.3636290   9.6192200
  60.7044150 104.7447830   7.0936090  60.1104470 104.6132530   7.8326130
  60.6967990 103.9085970   6.6278190  70.1499170  88.0380060   5.2966120
  69.2759010  88.3715170   5.0939050  70.0409920  87.5653240   6.1217990
  71.0571150  90.2450930   6.6807840  70.7284510  89.4302690   6.3009570
  72.0053450  90.2020740   6.5573530  73.5105760 106.0162970   3.6545410
  73.0508730 106.7678780   3.2803430  72.8818220 105.2969440   3.5960210
  60.3356380 102.1106210   6.0444130  59.6090440 101.4911500   5.9770080
  60.3965530 102.5046820   5.1742210  63.9401480 104.3251210   2.8293540
  64.4566500 103.7138570   2.3041800  64.5898860 104.8279990   3.3204550
  66.6796980 105.2159700   3.6562520  66.9674790 104.9614000   2.7795530
  67.1920200 104.6637060   4.2468090  67.8973990  88.9549900   4.2359030
  67.1145780  89.4295400   4.5155790  67.6036920  88.0504730   4.1272210
  72.4495060  89.6573000   2.2808120  72.8903150  89.6018100   1.4329720
  72.1802650  90.5731010   2.3518300  66.7469340 106.1375800  11.0230720
  67.6736650 105.9020070  11.0666680  66.7319770 106.9647800  10.5416750
  63.9332950  88.8020550  10.7872600  63.6517220  89.3054150  10.0233420
  64.3152650  88.0042300  10.4214730  70.5348410  88.2174130  11.3653070
  70.4213860  88.5368740  12.2604590  71.3518150  88.6186640  11.0690350
  73.3146900 105.3645660  10.8471760  74.1072220 104.8694890  10.6397720
  73.6080050 106.0435800  11.4547370  69.4406560  77.4623110 150.6979220
  69.3600610  76.5477720 150.4270930  69.0270980  77.9590180 149.9918930
  67.5724600  79.2402130 152.5788490  66.7966700  78.7602570 152.8687060
  68.2237530  78.5607780 152.4044650  71.5932030  83.6462320 151.3587620
  71.1313560  82.8749560 151.6874790  72.4057580  83.6728390 151.8640070
  59.9982380  74.5123830 147.2406640  59.1099080  74.8539800 147.1386520
  60.2823570  74.3124150 146.3487470  57.9615390  77.1129480 153.1246340
  58.5331500  76.3451680 153.1249980  57.9616930  77.4118240 152.2152950
  67.8195340  85.9320330 150.9791610  67.2006780  86.3877830 150.4086050
  68.6747120  86.0871790 150.5781310  67.0133590  81.9159320 152.5858650
  66.9441870  80.9749260 152.4247780  67.7753450  82.0060730 153.1581220
  68.0438760  74.7229700 152.8127580  68.4203580  73.8501580 152.7001250
  67.9458270  75.0588400 151.9218020  62.1743770  73.0955330 148.2745020
  62.2810520  73.9959060 148.5813780  61.2636130  73.0473300 147.9839670
  71.8262880  72.2180140 149.7455920  72.6472500  71.7276710 149.7881400
  71.8596960  72.8077800 150.4987760  68.6858690  80.8159570 148.3723520
  68.0675960  81.2809020 147.8086240  69.1981940  81.5087050 148.7893030
  72.0624360  74.1580520 152.5183460  71.3579930  74.4465410 153.0986570
  72.4236520  74.9680630 152.1583020  58.0541890  81.5016100 145.7463150
  57.6769870  81.9903200 145.0148050  58.3114960  82.1741380 146.3769680
  65.6630820  69.9032490 151.2048660  65.9705800  69.3479380 150.4884160
  64.7331520  70.0376950 151.0221650  72.5091300  82.3416000 148.5846290
  72.3987630  81.3990330 148.7095710  72.5059550  82.7031640 149.4709050
  68.0511580  77.9681320 147.9408780  67.1240860  77.9018700 148.1697250
  68.2036400  78.9061450 147.8264020  68.0380660  74.2398320 144.9375940
  67.0984330  74.4012280 145.0228400  68.3563920  74.9584000 144.3911930
  72.0808870  79.5301620 148.4444030  71.4621290  79.1921170 147.7970330
  72.0633320  78.8861380 149.1523220  63.6568220  78.4946060 150.7228510
  63.2525220  77.7823310 150.2274410  63.7431340  78.1499300 151.6116550
  64.1249920  82.1813620 152.8867720  63.8278210  81.5759090 152.2075500
  65.0749740  82.2190930 152.7757080  70.2573570  78.7688430 145.4516780
  70.6966850  77.9310860 145.3054600  70.9701990  79.4017830 145.5380920
  68.3668950  83.7084500 149.4198020  68.8064860  84.4508830 149.0053410
  68.3055840  83.9511070 150.3436980  73.8390710  70.0231240 143.7657820
  73.5263370  70.1158070 144.6656890  74.6003180  70.6012270 143.7155250
  60.3572850  77.3891040 148.2235160  60.2370450  78.1153130 147.6116430
  60.0473740  76.6193950 147.7463070  59.2405850  82.2606370 150.4409980
  58.8333930  82.4020960 149.5863580  60.1318860  81.9766530 150.2381190
  71.0339130  86.6953620 146.7761030  70.8740270  86.4056560 147.6742860
  70.8685840  85.9193750 146.2406260  63.5127510  86.4752150 148.5532650
  63.3369990  85.5587690 148.3400450  62.6583250  86.8339440 148.7930450
  70.7365260  84.2041180 145.3359030  70.0430420  84.2018470 144.6761310
  71.4788120  83.7800500 144.9053200  70.3015190  85.8303890 149.4107520
  70.7572140  85.0493270 149.7246140  70.6407710  86.5410710 149.9548700
  62.8236510  70.7326110 151.6058830  62.3804660  71.5135650 151.2743350
  63.3821500  71.0556000 152.3129770  65.9395330  70.3536810 146.4864660
  65.3149510  70.3496680 147.2117970  65.8525450  69.4867770 146.0900630
  62.6150730  75.8559680 149.3340080  62.3891650  75.6396850 150.2386700
  61.8343260  76.2888140 148.9886050  69.8448490  75.8623050 147.9330730
  69.2457380  76.5858850 147.7494350  70.3928100  75.7999830 147.1507180
  68.4513360  74.4986590 149.9634010  68.8442930  74.8158790 149.1502700
  68.8130210  73.6198470 150.0778530  57.4877530  71.0887390 152.1864210
  57.1990580  71.6590250 152.8989190  58.2323290  70.6091840 152.5495440
  57.6747760  75.0307510 143.3966930  57.5922430  75.9738270 143.5381920
  57.3230820  74.8882420 142.5179280  65.4745890  73.7646540 152.4637280
  65.4781950  73.3236490 151.6141820  66.3697010  74.0863870 152.5709100
  61.3248270  73.6473030 151.4231490  60.9848320  74.1248260 152.1798540
  60.5625590  73.1938150 151.0632590  65.5366040  74.7658620 145.4544040
  65.6578860  74.7245100 146.4029860  65.1514550  75.6282770 145.2990770
  64.5487540  77.0759760 144.8527340  63.9804440  76.6278010 144.2263250
  65.2576540  77.4352540 144.3192490  58.6394350  72.5692010 150.3396160
  58.3541270  72.2047680 151.1774780  58.5773210  71.8372470 149.7259300
  62.0935020  81.0717950 147.1253750  61.3197280  80.5315570 146.9652470
  62.8229650  80.5524560 146.7871510  72.8523000  80.0683310 152.9180140
  73.5722120  80.5638600 152.5276250  72.6504820  79.3901200 152.2734010
  68.3132940  71.4621270 147.0609530  67.4997550  70.9634440 146.9854840
  68.1194890  72.3019520 146.6445880  71.0281330  75.8340920 145.3571690
  71.9160950  76.1458150 145.1823030  70.9986420  74.9613170 144.9652270
  62.1372420  80.7398330 150.7632560  62.6551090  79.9366590 150.7089450
  61.6856440  80.6777470 151.6049390  67.0241920  82.0064610 146.0359860
  67.3657620  82.7506840 145.5403180  66.1954630  82.3195730 146.3984690
  73.2995600  77.1452760 144.8251550  73.2159320  77.5766980 143.9747990
  74.0189790  77.6051110 145.2578370  74.3282850  83.9995020 147.5533680
  73.6859010  83.3450640 147.8277400  73.9413510  84.4050110 146.7774350
  69.9069330  81.3280450 151.4005370  70.2593150  80.7308580 150.7406740
  69.0231660  81.0024680 151.5713620  65.9932610  82.0878140 148.8075780
  66.6803740  82.6347350 149.1883370  65.2065030  82.6318870 148.8425390
  58.1325010  77.7050960 144.2992860  59.0019860  77.9875760 144.5828780
  57.6415330  78.5186830 144.1841670  65.2959820  79.0924170 148.4201140
  65.7522600  79.9029420 148.6461330  64.9448030  78.7747310 149.2519630
  61.1971600  69.4361820 148.8923660  61.0686230  69.4279720 149.8408580
  60.3733620  69.7744910 148.5414670  58.4996260  86.9178340 144.8654490
  58.8593900  87.5167680 144.2111760  58.3588600  87.4638230 145.6389520
  72.2996480  80.8083420 145.7524190  72.0118180  81.2696110 146.5402070
  73.0948650  80.3481190 146.0208410  64.5164880  84.3009540 145.6828160
  64.5074980  85.0339230 145.0672670  63.5963240  84.0541120 145.7755120
  60.1171520  79.5224430 146.4274920  59.5099470  80.2623330 146.4370220
  60.5920870  79.6123790 145.6013120  73.0566340  72.6432190 146.9119370
  72.4279500  72.7477860 146.1977600  72.5618260  72.8628970 147.7013250
  67.5024480  84.3637780 144.3453350  67.6036460  84.1601770 143.4155330
  66.6026220  84.1096060 144.5501130  65.0250370  74.9218140 148.3277250
  64.3166520  75.3904480 148.7690860  65.3094850  74.2640150 148.9622440
  69.0565800  71.6468800 149.7673040  68.9333580  71.6654930 148.8182550
  70.0050360  71.6947740 149.8871440  66.1442590  86.8824100 149.0401020
  66.3984090  86.8445490 148.1180390  65.1955070  86.7557430 149.0329270
  63.2285390  73.2303220 145.7027960  64.0775920  73.6673370 145.6368150
  62.8616660  73.5423480 146.5300020  72.1495170  77.8015980 150.6159530
  71.2085310  77.8166210 150.7907220  72.4639240  77.0151940 151.0619830
  62.1276810  79.4835580 144.1763490  62.8940080  79.3716940 144.7388920
  62.2051500  78.7873550 143.5240260  60.8223570  76.9160650 144.8596380
  60.9027160  75.9688160 144.9713780  61.7143320  77.2467530 144.9657040
  74.1520750  84.9724830 152.2913790  74.2768170  85.7956000 152.7637600
  75.0186310  84.7615560 151.9437940  61.6238280  87.0656040 151.9630920
  62.3600760  86.5171500 152.2339490  62.0079200  87.9312050 151.8236910
  58.5083760  83.1329610 147.8372430  57.5823540  83.3750750 147.8277840
  58.9740190  83.9603870 147.7157180  64.7340590  86.2386350 143.7856490
  65.5269200  86.5275180 143.3338280  64.2144940  85.8078520 143.1068970
  73.7870760  85.4656480 145.2093230  73.5012270  85.0521620 144.3947410
  73.5890310  86.3944190 145.0893750  65.2517990  81.4589760 143.6498840
  65.1468630  80.8442110 144.3760220  65.0842210  80.9355650 142.8661850
  68.4920720  80.5209790 144.2540830  67.9430820  80.9679090 144.8983570
  69.1139980  80.0159040 144.7778500  64.1595840  79.4800710 146.1506130
  64.5812260  79.3140580 146.9937520  64.2846680  78.6700940 145.6561270
  66.6723480  78.5038320 143.3983230  67.1929140  77.7887340 143.0324380
  67.3191880  79.1424190 143.6983740  63.0554740  75.5533940 143.0964290
  62.8543800  74.6901300 143.4577630  62.8846790  75.4667300 142.1585890
  70.5343050  70.3642170 145.6251170  70.8145340  69.5210070 145.9810590
  69.7608780  70.5965280 146.1389920  61.8537540  72.6534560 143.0842170
  62.1563440  72.6601990 142.1761320  62.5932130  72.3032420 143.5809830
  65.0722470  71.5969180 144.0698370  64.7244470  70.9193170 143.4900820
  65.2735240  71.1358690 144.8841760  67.2371510  86.5849930 145.6884970
  68.1322300  86.9234900 145.7103730  67.2689140  85.8629340 145.0609250
  60.8767670  81.9576980 143.9171970  61.3142540  82.5006650 144.5729550
  61.3615400  81.1323930 143.9268310  58.0913470  84.7466010 151.3692230
  58.4216480  83.8787070 151.1370870  58.5204470  84.9524530 152.1997190
  62.6875390  83.0775020 149.0294200  62.3870930  82.9539990 149.9298110
  62.5812880  82.2183610 148.6209930  74.9123770  79.6018900 146.2355080
  75.6742680  80.1715550 146.3414770  74.9278140  79.0346100 147.0063390
  58.4128110  78.1256830 150.4662740  57.7576950  77.8568470 149.8222440
  59.2506060  78.0161310 150.0164720  75.9183740  80.4569000 151.0797010
  76.2892570  79.6736320 150.6732980  76.5585670  81.1458100 150.9014310
  74.9642940  79.8953270 143.3927600  75.2391780  80.8032150 143.2646820
  74.7753680  79.8315800 144.3289590  71.3618550  72.9198120 144.6881230
  71.7803430  72.7329100 143.8477890  71.0554610  72.0677170 144.9984160
  74.8608280  77.8322260 148.3857030  74.4851880  77.0650190 147.9538320
  74.1311400  78.2144960 148.8731960  57.6266190  75.3355760 146.4088070
  56.7230270  75.5985960 146.2339730  58.1106810  75.6066930 145.6288030
  74.1359240  76.0579750 151.6864270  74.6596720  75.5642400 151.0554440
  74.7218660  76.1930110 152.4311840  60.1693400  74.3921300 144.3182450
  60.8785100  73.9704520 143.8329730  59.4533340  74.4596530 143.6865800
  59.8167560  70.4460630 143.3585100  60.5395690  70.9869570 143.6766320
  60.0892080  70.1724050 142.4826640  73.6259210  75.3153100 147.6256680
  74.1218330  75.0823970 148.4105560  73.4275280  74.4764940 147.2094320
  75.0546370  73.9514050 150.1594360  74.9445650  73.7970090 151.0976630
  75.8153960  73.4234990 149.9169770  75.9436640  71.7821970 143.4000500
  76.8685950  71.6503150 143.1918790  75.9212430  71.8614790 144.3536950
  76.0175130  72.5532630 146.0257210  75.2226630  72.4877750 146.5550120
  76.2218410  73.4883270 146.0142560  72.9593550  86.5924180 150.0195600
  73.5552620  86.2708750 149.3430020  73.2171700  86.1196000 150.8108870
  72.4495060  70.8829510 152.4756040  72.8903150  70.8274610 151.6277640
  72.1802650  71.7987520 152.5466220  74.3133630  70.5144750 150.4864860
  74.2522030  69.5705970 150.3395880  75.0925660  70.6224840 151.0318320
  58.6186380  86.6537110 149.4488810  58.4508420  86.0207790 150.1470700
  57.7520890  86.8596510 149.0983000  59.2414400  70.4853890 146.9520670
  59.9993760  70.5982770 146.3784700  58.7791570  71.3223090 146.9064100
  65.7828210  72.5993160 149.9422980  64.9702720  72.2250050 149.6018860
  66.2869850  71.8438240 150.2444170  70.2853190  69.2635610 151.1806050
  70.8882560  69.8355820 151.6554570  69.5446180  69.8275050 150.9579950
  73.4287790  69.6657170 146.4546330  73.6238420  70.5640620 146.7213760
  72.6417660  69.4344250 146.9479280  60.2249080  85.3470340 146.8938950
  59.6996700  85.7278370 146.1900910  60.1493660  85.9721110 147.6148660
  61.6139550  71.0117940 145.4922640  62.1432310  70.2247740 145.3630590
  62.2467870  71.6909130 145.7258170  63.8077390  70.7493080 148.5468030
  63.1780130  70.0480390 148.7138160  63.2682530  71.5097210 148.3301190
  74.9814400  86.9057880 148.2152890  75.1566590  86.2195620 147.5713810
  74.2835970  87.4304930 147.8229560  62.8242050  87.2952720 145.7688200
  63.5560870  87.0112000 145.2212090  63.0835720  87.0566000 146.6587580
  61.9856840  83.4117450 145.7734530  61.3565720  83.8802550 146.3220360
  62.1004670  82.5666670 146.2080720  69.4406560  77.4623110 131.9235730
  69.3600610  76.5477720 131.6527440  69.0270980  77.9590180 131.2175440
  67.5724600  79.2402130 133.8045000  66.7966700  78.7602570 134.0943570
  68.2237530  78.5607780 133.6301160  61.5890430  79.5521940 134.6820760
  60.7575310  79.2970650 135.0817270  62.1971410  79.6232710 135.4178680
  61.5691690  83.5862030 134.8778780  61.8719730  82.6959770 134.6989000
  62.3135280  84.1432250 134.6501030  59.9982380  74.5123830 128.4663150
  59.1099080  74.8539800 128.3643030  60.2823570  74.3124150 127.5743980
  57.9615390  77.1129480 134.3502850  58.5331500  76.3451680 134.3506490
  57.9616930  77.4118240 133.4409460  67.8195340  85.9320330 132.2048120
  67.2006780  86.3877830 131.6342560  68.6747120  86.0871790 131.8037820
  62.1743770  73.0955330 129.5001530  62.2810520  73.9959060 129.8070290
  61.2636130  73.0473300 129.2096180  71.8262880  72.2180140 130.9712430
  72.6472500  71.7276710 131.0137910  71.8596960  72.8077800 131.7244270
  59.8226930  75.0174340 134.7454120  60.5037040  75.2812710 135.3641520
  59.5074980  74.1775210 135.0792130  64.0151500  76.0641700 133.8326710
  64.5229720  76.5622670 134.4731730  64.5464740  75.2876900 133.6566070
  62.2987600  70.7040260 138.0990130  62.3006040  71.2212650 137.2936030
  61.4691910  70.2270440 138.0760060  68.6858690  80.8159570 129.5980030
  68.0675960  81.2809020 129.0342750  69.1981940  81.5087050 130.0149540
  63.5490450  80.3435440 136.2763630  63.2159830  80.9704360 136.9184700
  63.7257130  80.8697320 135.4965300  61.9802930  72.4150220 136.1060580
  62.3219740  73.2592270 135.8114450  61.0418740  72.5633960 136.2225920
  62.7609550  82.3116240 138.0912810  63.3783550  82.9867320 137.8097260
  61.9002670  82.7204220 138.0000310  73.6787140  83.7755650 136.0067450
  72.9950660  84.4454760 135.9984120  74.2181430  83.9736300 135.2412310
  65.6630820  69.9032490 132.4305170  65.9705800  69.3479380 131.7140670
  64.7331520  70.0376950 132.2478160  72.5091300  82.3416000 129.8102800
  72.3987630  81.3990330 129.9352220  72.5059550  82.7031640 130.6965560
  70.6131320  80.5229620 136.0495240  71.0300110  80.3089730 135.2148700
  71.3371140  80.7802410 136.6203860  68.0511580  77.9681320 129.1665290
  67.1240860  77.9018700 129.3953760  68.2036400  78.9061450 129.0520530
  68.0380660  74.2398320 126.1632450  67.0984330  74.4012280 126.2484910
  68.3563920  74.9584000 125.6168440  74.5593420  78.9216840 136.1411480
  73.7312050  78.9909930 135.6661610  75.1543900  79.5071150 135.6727310
  72.0808870  79.5301620 129.6700540  71.4621290  79.1921170 129.0226840
  72.0633320  78.8861380 130.3779730  63.6568220  78.4946060 131.9485020
  63.2525220  77.7823310 131.4530920  63.7431340  78.1499300 132.8373060
  64.1249920  82.1813620 134.1124230  63.8278210  81.5759090 133.4332010
  65.0749740  82.2190930 134.0013590  62.3696840  75.2689270 135.7284060
  62.9211430  75.3784610 134.9537310  62.8840350  75.6426870 136.4439290
  72.2135530  85.7545490 137.7747330  71.7366090  86.5617680 137.5819940
  71.5297320  85.1023820 137.9273540  63.2168350  81.9195310 140.7632030
  62.3196880  82.1435280 141.0105430  63.2421220  82.0430250 139.8143430
  70.2573570  78.7688430 126.6773290  70.6966850  77.9310860 126.5311110
  70.9701990  79.4017830 126.7637430  62.0439570  78.7908630 139.3389400
  61.9047340  79.6631430 139.7076800  61.1620930  78.4481440 139.1937340
  68.3668950  83.7084500 130.6454530  68.8064860  84.4508830 130.2309920
  68.3055840  83.9511070 131.5693490  63.8419920  84.7330330 141.5474550
  63.8135350  85.1373280 140.6802980  63.6784890  83.8040690 141.3846150
  73.8390710  70.0231240 124.9914330  73.5263370  70.1158070 125.8913400
  74.6003180  70.6012270 124.9411760  57.9958220  80.5606180 135.2560310
  58.0738640  80.6954950 134.3116030  58.6099900  79.8522070 135.4488430
  59.2405850  82.2606370 131.6666490  58.8333930  82.4020960 130.8120090
  60.1318860  81.9766530 131.4637700  69.0584730  86.4098280 138.5733540
  69.5729400  86.3206290 139.3755970  68.2153810  86.7557980 138.8661450
  70.7365260  84.2041180 126.5615540  70.0430420  84.2018470 125.9017820
  71.4788120  83.7800500 126.1309710  75.0492000  74.7602740 140.9688470
  74.4336270  75.2682410 140.4403930  74.7288420  73.8601070 140.9114410
  58.0517740  81.6020350 137.7954770  58.2148780  81.1325710 136.9774140
  58.5170190  81.0943910 138.4603610  62.8236510  70.7326110 132.8315340
  62.3804660  71.5135650 132.4999860  63.3821500  71.0556000 133.5386280
  72.1110830  74.8203580 139.5647320  71.2604420  74.5209330 139.8856390
  71.9512620  75.0645590 138.6531140  69.2060540  76.3205330 141.6646110
  69.5313950  75.4869080 141.3248340  69.9940870  76.8433850 141.8124440
  65.9395330  70.3536810 127.7121170  65.3149510  70.3496680 128.4374480
  65.8525450  69.4867770 127.3157140  62.6150730  75.8559680 130.5596590
  62.3891650  75.6396850 131.4643210  61.8343260  76.2888140 130.2142560
  69.8448490  75.8623050 129.1587240  69.2457380  76.5858850 128.9750860
  70.3928100  75.7999830 128.3763690  65.0549940  76.7545260 141.2256860
  64.9593540  75.8139990 141.0757260  65.8981920  76.9760330 140.8304930
  68.4513360  74.4986590 131.1890520  68.8442930  74.8158790 130.3759210
  68.8130210  73.6198470 131.3035040  60.1860480  73.1658930 139.3790640
  59.7923870  74.0134140 139.5863420  59.4978880  72.5285300 139.5699280
  66.7605530  73.2493900 142.4487380  66.0703850  73.0566100 143.0833470
  67.5037830  73.5328540 142.9811680  57.6747760  75.0307510 124.6223440
  57.5922430  75.9738270 124.7638430  57.3230820  74.8882420 123.7435790
  61.3248270  73.6473030 132.6488000  60.9848320  74.1248260 133.4055050
  60.5625590  73.1938150 132.2889100  65.5366040  74.7658620 126.6800550
  65.6578860  74.7245100 127.6286370  65.1514550  75.6282770 126.5247280
  72.9265160  69.9558200 140.5350620  73.2510930  69.2247860 141.0608600
  72.9621670  69.6371840 139.6331610  59.6256720  80.9771780 139.9550580
  59.2411510  80.3365450 140.5533540  59.9368910  81.6807900 140.5245310
  65.7753860  77.8248320 135.4359200  66.1423990  77.3506890 136.1820540
  65.5858920  78.6989890 135.7767540  63.5653230  76.8656960 137.7543410
  63.2610300  77.7448940 137.9793770  64.5199690  76.9256750 137.7900850
  62.0935020  81.0717950 128.3510260  61.3197280  80.5315570 128.1908980
  62.8229650  80.5524560 128.0128020  72.8523000  80.0683310 134.1436650
  73.5722120  80.5638600 133.7532760  72.6504820  79.3901200 133.4990520
  68.3132940  71.4621270 128.2866040  67.4997550  70.9634440 128.2111350
  68.1194890  72.3019520 127.8702390  68.2341800  80.1392370 140.0305650
  68.1679110  79.2188040 139.7763240  67.6046940  80.2367810 140.7450290
  71.0281330  75.8340920 126.5828200  71.9160950  76.1458150 126.4079540
  70.9986420  74.9613170 126.1908780  62.1372420  80.7398330 131.9889070
  62.6551090  79.9366590 131.9345960  61.6856440  80.6777470 132.8305900
  67.0241920  82.0064610 127.2616370  67.3657620  82.7506840 126.7659690
  66.1954630  82.3195730 127.6241200  59.6216960  77.7059700 138.9014770
  59.2631900  78.3713550 139.4888110  59.3271520  76.8743250 139.2727390
  62.8230080  78.1643940 141.7854320  62.5230220  78.3101120 140.8882140
  63.5941320  77.6049230 141.6927710  68.1658530  82.9612940 139.7809450
  68.1803070  82.0293900 139.5628360  67.4583630  83.0472700 140.4199220
  73.2995600  77.1452760 126.0508060  73.2159320  77.5766980 125.2004500
  74.0189790  77.6051110 126.4834880  74.3769740  79.6020280 139.1278030
  73.6517930  80.1949060 138.9307420  74.9045200  79.5943820 138.3291400
  74.3282850  83.9995020 128.7790190  73.6859010  83.3450640 129.0533910
  73.9413510  84.4050110 128.0030860  65.9932610  82.0878140 130.0332290
  66.6803740  82.6347350 130.4139880  65.2065030  82.6318870 130.0681900
  58.1325010  77.7050960 125.5249370  59.0019860  77.9875760 125.8085290
  57.6415330  78.5186830 125.4098180  65.2959820  79.0924170 129.6457650
  65.7522600  79.9029420 129.8717840  64.9448030  78.7747310 130.4776140
  67.5992430  84.6030510 136.8749950  68.2434650  84.8089890 137.5523370
  67.9621870  83.8418910 136.4220800  72.7180230  82.8911480 125.3166540
  72.4917810  82.1741920 125.9091180  72.3276430  82.6423920 124.4788290
  70.6462130  83.4057760 138.7963460  70.9818370  83.9924450 139.4741380
  69.7262470  83.2750470 139.0261250  58.1965530  71.1952940 139.5786870
  57.4824050  71.3949860 140.1839480  58.6160570  70.4192510 139.9501670
  72.2996480  80.8083420 126.9780700  72.0118180  81.2696110 127.7658580
  73.0948650  80.3481190 127.2464920  58.4838120  85.1833200 140.5653400
  58.5929240  84.2427940 140.4248790  57.8318680  85.4487950 139.9167130
  66.4750710  83.4549090 141.9651520  66.1547580  82.7358330 142.5097210
  65.8009070  84.1304160 142.0387580  64.5164880  84.3009540 126.9084670
  64.5074980  85.0339230 126.2929180  63.5963240  84.0541120 127.0011630
  73.0566340  72.6432190 128.1375880  72.4279500  72.7477860 127.4234110
  72.5618260  72.8628970 128.9269760  67.5024480  84.3637780 125.5709860
  67.6036460  84.1601770 124.6411840  66.6026220  84.1096060 125.7757640
  65.0250370  74.9218140 129.5533760  64.3166520  75.3904480 129.9947370
  65.3094850  74.2640150 130.1878950  69.0565800  71.6468800 130.9929550
  68.9333580  71.6654930 130.0439060  70.0050360  71.6947740 131.1127950
  66.1442590  86.8824100 130.2657530  66.3984090  86.8445490 129.3436900
  65.1955070  86.7557430 130.2585780  63.2285390  73.2303220 126.9284470
  64.0775920  73.6673370 126.8624660  62.8616660  73.5423480 127.7556530
  72.1495170  77.8015980 131.8416040  71.2085310  77.8166210 132.0163730
  72.4639240  77.0151940 132.2876340  58.5083760  83.1329610 129.0628940
  57.5823540  83.3750750 129.0534350  58.9740190  83.9603870 128.9413690
  60.6296560  86.2502110 142.3773010  61.4309290  86.5714160 142.7908410
  60.1148380  85.8897690 143.0992920  64.7340590  86.2386350 125.0113000
  65.5269200  86.5275180 124.5594790  64.2144940  85.8078520 124.3325480
  69.4661190  82.3581980 142.3248420  68.8599350  82.3813580 141.5844170
  69.1615300  81.6265020 142.8615670  70.8961560  86.0862270 140.9357830
  71.8483310  86.0020290 140.8858070  70.7489780  86.7503980 141.6091620
  73.7870760  85.4656480 126.4349740  73.5012270  85.0521620 125.6203920
  73.5890310  86.3944190 126.3150260  58.3494370  78.7375570 141.3209060
  58.8533390  78.1582850 141.8925290  57.6101790  79.0215800 141.8585430
  65.2517990  81.4589760 124.8755350  65.1468630  80.8442110 125.6016730
  65.0842210  80.9355650 124.0918360  65.4032310  80.1446560 140.8544580
  64.6377980  80.7131560 140.7699250  65.5848270  79.8522770 139.9612810
  68.4920720  80.5209790 125.4797340  67.9430820  80.9679090 126.1240080
  69.1139980  80.0159040 126.0035010  60.3817450  76.8805160 142.2159130
  60.4222790  76.5819030 143.1244360  61.2362950  77.2812770 142.0566650
  62.3223260  75.4597260 140.1833620  61.7919720  74.9688210 139.5556960
  62.9911330  75.8881460 139.6491550  66.6723480  78.5038320 124.6239740
  67.1929140  77.7887340 124.2580890  67.3191880  79.1424190 124.9240250
  71.2201320  79.9266720 139.9474810  71.6342340  80.0811800 140.7965230
  70.2852320  80.0521940 140.1100590  71.6923490  77.2662880 141.9513960
  72.2744260  76.5115200 141.8634440  71.8685260  77.7970320 141.1745440
  62.8095560  72.4259630 140.2630910  62.7152430  71.8080380 139.5381780
  62.2292950  73.1525920 140.0360820  65.9816550  79.8787200 137.9170740
  66.4004660  80.7219930 137.7446980  65.0625180  80.0159240 137.6877520
  68.3180450  77.6103380 139.3008580  68.4376660  77.0144520 140.0403420
  69.1774450  77.6473070 138.8809880  70.6568350  78.1640570 137.8771090
  70.1303570  78.6883190 137.2736230  70.9999690  78.7967960 138.5080820
  63.0554740  75.5533940 124.3220800  62.8543800  74.6901300 124.6834140
  62.8846790  75.4667300 123.3842400  63.8323970  86.1840210 139.0328470
  63.2945060  86.9086270 138.7137170  64.0857930  85.7070550 138.2425810
  65.0849220  74.1524730 140.5584400  65.6748910  73.8440580 141.2462220
  64.2669460  73.6804480 140.7144300  69.9042650  73.7690540 140.7917420
  69.2158170  73.1072080 140.7267410  70.6248670  73.3228810 141.2365880
  70.5343050  70.3642170 126.8507680  70.8145340  69.5210070 127.2067100
  69.7608780  70.5965280 127.3646430  66.6886180  87.4191420 139.2915120
  66.6144880  88.3226560 139.5987490  65.7865020  87.1003320 139.2637190
  65.0722470  71.5969180 125.2954880  64.7244470  70.9193170 124.7157330
  65.2735240  71.1358690 126.1098270  67.2371510  86.5849930 126.9141480
  68.1322300  86.9234900 126.9360240  67.2689140  85.8629340 126.2865760
  60.8767670  81.9576980 125.1428480  61.3142540  82.5006650 125.7986060
  61.3615400  81.1323930 125.1524820  58.0913470  84.7466010 132.5948740
  58.4216480  83.8787070 132.3627380  58.5204470  84.9524530 133.4253700
  62.6875390  83.0775020 130.2550710  62.3870930  82.9539990 131.1554620
  62.5812880  82.2183610 129.8466440  58.5803680  85.6136600 135.3330370
  58.1434670  85.7937400 136.1654520  59.1481360  86.3711220 135.1912090
  74.9123770  79.6018900 127.4611590  75.6742680  80.1715550 127.5671280
  74.9278140  79.0346100 128.2319900  58.4128110  78.1256830 131.6919250
  57.7576950  77.8568470 131.0478950  59.2506060  78.0161310 131.2421230
  75.9183740  80.4569000 132.3053520  76.2892570  79.6736320 131.8989490
  76.5585670  81.1458100 132.1270820  74.9642940  79.8953270 124.6184110
  75.2391780  80.8032150 124.4903330  74.7753680  79.8315800 125.5546100
  71.3618550  72.9198120 125.9137740  71.7803430  72.7329100 125.0734400
  71.0554610  72.0677170 126.2240670  59.4504040  78.5109400 136.2322590
  59.8177080  78.4236800 137.1118610  58.8814860  77.7475950 136.1329450
  74.2507900  76.9793780 139.2453060  74.0193990  76.7506530 138.3451010
  74.5112450  77.8993330 139.1997950  59.0020040  75.4218490 140.1381010
  58.1076090  75.3885250 140.4774720  59.5417590  75.6205280 140.9032260
  72.6895970  72.2050210 142.0232760  73.5666150  72.2133610 142.4066760
  72.7016810  71.4681050 141.4125110  57.6266190  75.3355760 127.6344580
  56.7230270  75.5985960 127.4596240  58.1106810  75.6066930 126.8544540
  60.1693400  74.3921300 125.5438960  60.8785100  73.9704520 125.0586240
  59.4533340  74.4596530 124.9122310  73.6259210  75.3153100 128.8513190
  74.1218330  75.0823970 129.6362070  73.4275280  74.4764940 128.4350830
  75.9436640  71.7821970 124.6257010  76.8685950  71.6503150 124.4175300
  75.9212430  71.8614790 125.5793460  76.0175130  72.5532630 127.2513720
  75.2226630  72.4877750 127.7806630  76.2218410  73.4883270 127.2399070
  60.8656120  83.0242090 141.3942740  60.8225750  82.6535000 142.2757200
  60.9967130  83.9619660 141.5344560  64.5662150  84.5801680 136.9952460
  64.3253510  84.8476240 136.1082980  65.5064790  84.7507410 137.0503320
  66.7716570  71.0434370 140.7508970  66.7105460  71.6356200 141.5004380
  67.7116950  70.9360330 140.6059230  69.4091130  70.7004430 140.3901260
  70.0231540  71.0183720 139.7282340  69.9540690  70.2153020 141.0097120
  75.8266310  86.5996060 137.7963100  75.3324590  86.9964930 137.0790230
  75.2179600  85.9745270 138.1900380  59.9312390  69.3798690 140.5040320
  60.4795380  69.1986740 139.7406430  59.9967700  68.5892800 141.0396630
  60.7044150  85.9704340 138.5140520  60.1104470  85.8389040 139.2530560
  60.6967990  85.1342480 138.0482620  60.3356380  83.3362720 137.4648560
  59.6090440  82.7168010 137.3974510  60.3965530  83.7303330 136.5946640
  63.9401480  85.5507720 134.2497970  64.4566500  84.9395080 133.7246230
  64.5898860  86.0536500 134.7408980  66.6796980  86.4416210 135.0766950
  66.9674790  86.1870510 134.1999960  67.1920200  85.8893570 135.6672520
  65.7828210  72.5993160 131.1679490  64.9702720  72.2250050 130.8275370
  66.2869850  71.8438240 131.4700680  73.4287790  69.6657170 127.6802840
  73.6238420  70.5640620 127.9470270  72.6417660  69.4344250 128.1735790
  63.8077390  70.7493080 129.7724540  63.1780130  70.0480390 129.9394670
  63.2682530  71.5097210 129.5557700  66.7469340  87.3632310 142.4435150
  67.6736650  87.1276580 142.4871110  66.7319770  88.1904310 141.9621180
  63.9332950  70.0277060 142.2077030  63.6517220  70.5310660 141.4437850
  64.3152650  69.2298810 141.8419160  61.9856840  83.4117450 126.9991040
  61.3565720  83.8802550 127.5476870  62.1004670  82.5666670 127.4337230
  70.5348410  69.4430640 142.7857500  70.4213860  69.7625250 143.6809020
  71.3518150  69.8443150 142.4894780  67.5724600  79.2402130 115.0301510
  66.7966700  78.7602570 115.3200080  68.2237530  78.5607780 114.8557670
  61.5890430  79.5521940 115.9077270  60.7575310  79.2970650 116.3073780
  62.1971410  79.6232710 116.6435190  71.5932030  83.6462320 113.8100640
  71.1313560  82.8749560 114.1387810  72.4057580  83.6728390 114.3153090
  61.5691690  83.5862030 116.1035290  61.8719730  82.6959770 115.9245510
  62.3135280  84.1432250 115.8757540  67.8195340  85.9320330 113.4304630
  67.2006780  86.3877830 112.8599070  68.6747120  86.0871790 113.0294330
  67.0133590  81.9159320 115.0371670  66.9441870  80.9749260 114.8760800
  67.7753450  82.0060730 115.6094240  59.2040260  72.5213840 117.3628290
  59.0243100  71.6239590 117.6431050  58.8020340  73.0685710 118.0375240
  63.5490450  80.3435440 117.5020140  63.2159830  80.9704360 118.1441210
  63.7257130  80.8697320 116.7221810  61.9802930  72.4150220 117.3317090
  62.3219740  73.2592270 117.0370960  61.0418740  72.5633960 117.4482430
  62.7609550  82.3116240 119.3169320  63.3783550  82.9867320 119.0353770
  61.9002670  82.7204220 119.2256820  58.0541890  81.5016100 108.1976170
  57.6769870  81.9903200 107.4661070  58.3114960  82.1741380 108.8282700
  73.6787140  83.7755650 117.2323960  72.9950660  84.4454760 117.2240630
  74.2181430  83.9736300 116.4668820  71.2145880  85.6199780 115.9469140
  71.2273040  85.2162070 115.0791400  70.6621100  86.3947070 115.8430570
  70.6131320  80.5229620 117.2751750  71.0300110  80.3089730 116.4405210
  71.3371140  80.7802410 117.8460370  64.1249920  82.1813620 115.3380740
  63.8278210  81.5759090 114.6588520  65.0749740  82.2190930 115.2270100
  62.3696840  75.2689270 116.9540570  62.9211430  75.3784610 116.1793820
  62.8840350  75.6426870 117.6695800  72.2135530  85.7545490 119.0003840
  71.7366090  86.5617680 118.8076450  71.5297320  85.1023820 119.1530050
  63.2168350  81.9195310 121.9888540  62.3196880  82.1435280 122.2361940
  63.2421220  82.0430250 121.0399940  62.0439570  78.7908630 120.5645910
  61.9047340  79.6631430 120.9333310  61.1620930  78.4481440 120.4193850
  68.3668950  83.7084500 111.8711040  68.8064860  84.4508830 111.4566430
  68.3055840  83.9511070 112.7950000  63.8419920  84.7330330 122.7731060
  63.8135350  85.1373280 121.9059490  63.6784890  83.8040690 122.6102660
  57.9958220  80.5606180 116.4816820  58.0738640  80.6954950 115.5372540
  58.6099900  79.8522070 116.6744940  69.0584730  86.4098280 119.7990050
  69.5729400  86.3206290 120.6012480  68.2153810  86.7557980 120.0917960
  63.5127510  86.4752150 111.0045670  63.3369990  85.5587690 110.7913470
  62.6583250  86.8339440 111.2443470  70.3015190  85.8303890 111.8620540
  70.7572140  85.0493270 112.1759160  70.6407710  86.5410710 112.4061720
  58.0517740  81.6020350 119.0211280  58.2148780  81.1325710 118.2030650
  58.5170190  81.0943910 119.6860120  67.1106320  73.5994630 119.6607170
  66.6485690  73.8077650 120.4727110  66.7084430  72.7853980 119.3577840
  65.0549940  76.7545260 122.4513370  64.9593540  75.8139990 122.3013770
  65.8981920  76.9760330 122.0561440  66.7605530  73.2493900 123.6743890
  66.0703850  73.0566100 124.3089980  67.5037830  73.5328540 124.2068190
  69.0368500  77.0892340 116.5097810  68.3049620  77.5979150 116.8587910
  68.6392840  76.2722320 116.2086590  59.6256720  80.9771780 121.1807090
  59.2411510  80.3365450 121.7790050  59.9368910  81.6807900 121.7501820
  65.7753860  77.8248320 116.6615710  66.1423990  77.3506890 117.4077050
  65.5858920  78.6989890 117.0024050  63.5653230  76.8656960 118.9799920
  63.2610300  77.7448940 119.2050280  64.5199690  76.9256750 119.0157360
  72.8523000  80.0683310 115.3693160  73.5722120  80.5638600 114.9789270
  72.6504820  79.3901200 114.7247030  68.2341800  80.1392370 121.2562160
  68.1679110  79.2188040 121.0019750  67.6046940  80.2367810 121.9706800
  62.1372420  80.7398330 113.2145580  62.6551090  79.9366590 113.1602470
  61.6856440  80.6777470 114.0562410  59.6216960  77.7059700 120.1271280
  59.2631900  78.3713550 120.7144620  59.3271520  76.8743250 120.4983900
  62.8230080  78.1643940 123.0110830  62.5230220  78.3101120 122.1138650
  63.5941320  77.6049230 122.9184220  68.1658530  82.9612940 121.0065960
  68.1803070  82.0293900 120.7884870  67.4583630  83.0472700 121.6455730
  74.3769740  79.6020280 120.3534540  73.6517930  80.1949060 120.1563930
  74.9045200  79.5943820 119.5547910  69.9069330  81.3280450 113.8518390
  70.2593150  80.7308580 113.1919760  69.0231660  81.0024680 114.0226640
  65.9932610  82.0878140 111.2588800  66.6803740  82.6347350 111.6396390
  65.2065030  82.6318870 111.2938410  67.5992430  84.6030510 118.1006460
  68.2434650  84.8089890 118.7779880  67.9621870  83.8418910 117.6477310
  68.8724510  82.6062860 116.8183910  69.5146740  81.9056020 116.9316080
  69.3973860  83.3861300 116.6380800  58.4838120  85.1833200 121.7909910
  58.5929240  84.2427940 121.6505300  57.8318680  85.4487950 121.1423640
  66.4750710  83.4549090 123.1908030  66.1547580  82.7358330 123.7353720
  65.8009070  84.1304160 123.2644090  64.5164880  84.3009540 108.1341180
  64.5074980  85.0339230 107.5185690  63.5963240  84.0541120 108.2268140
  66.6506300  76.3414840 118.7782800  67.1491550  76.8160660 119.4434650
  66.7929250  75.4178360 118.9852830  66.1442590  86.8824100 111.4914040
  66.3984090  86.8445490 110.5693410  65.1955070  86.7557430 111.4842290
  74.1520750  84.9724830 114.7426810  74.2768170  85.7956000 115.2150620
  75.0186310  84.7615560 114.3950960  61.6238280  87.0656040 114.4143940
  62.3600760  86.5171500 114.6852510  62.0079200  87.9312050 114.2749930
  64.7340590  86.2386350 106.2369510  65.5269200  86.5275180 105.7851300
  64.2144940  85.8078520 105.5581990  69.4661190  82.3581980 123.5504930
  68.8599350  82.3813580 122.8100680  69.1615300  81.6265020 124.0872180
  58.3494370  78.7375570 122.5465570  58.8533390  78.1582850 123.1181800
  57.6101790  79.0215800 123.0841940  65.4032310  80.1446560 122.0801090
  64.6377980  80.7131560 121.9955760  65.5848270  79.8522770 121.1869320
  60.3817450  76.8805160 123.4415640  60.4222790  76.5819030 124.3500870
  61.2362950  77.2812770 123.2823160  62.3223260  75.4597260 121.4090130
  61.7919720  74.9688210 120.7813470  62.9911330  75.8881460 120.8748060
  62.8095560  72.4259630 121.4887420  62.7152430  71.8080380 120.7638290
  62.2292950  73.1525920 121.2617330  65.5757000  70.9832870 118.5214810
  65.1274300  71.0057130 117.6760360  64.9422200  70.5851890 119.1185110
  65.9816550  79.8787200 119.1427250  66.4004660  80.7219930 118.9703490
  65.0625180  80.0159240 118.9134030  63.8323970  86.1840210 120.2584980
  63.2945060  86.9086270 119.9393680  64.0857930  85.7070550 119.4682320
  65.0849220  74.1524730 121.7840910  65.6748910  73.8440580 122.4718730
  64.2669460  73.6804480 121.9400810  66.6886180  87.4191420 120.5171630
  66.6144880  88.3226560 120.8244000  65.7865020  87.1003320 120.4893700
  67.2371510  86.5849930 108.1397990  68.1322300  86.9234900 108.1616750
  67.2689140  85.8629340 107.5122270  62.6875390  83.0775020 111.4807220
  62.3870930  82.9539990 112.3811130  62.5812880  82.2183610 111.0722950
  72.9017500  81.8405580 118.9440350  72.0877340  82.2702740 119.2066140
  73.3091700  82.4523990 118.3309400  59.4504040  78.5109400 117.4579100
  59.8177080  78.4236800 118.3375120  58.8814860  77.7475950 117.3585960
  59.0020040  75.4218490 121.3637520  58.1076090  75.3885250 121.7031230
  59.5417590  75.6205280 122.1288770  73.4012090  69.8908180 119.0690380
  74.0384310  70.5042320 119.4349570  73.5486980  69.9268840 118.1239610
  60.8656120  83.0242090 122.6199250  60.8225750  82.6535000 123.5013710
  60.9967130  83.9619660 122.7601070  64.5662150  84.5801680 118.2208970
  64.3253510  84.8476240 117.3339490  65.5064790  84.7507410 118.2759830
  66.7716570  71.0434370 121.9765480  66.7105460  71.6356200 122.7260890
  67.7116950  70.9360330 121.8315740  75.8266310  86.5996060 119.0219610
  75.3324590  86.9964930 118.3046740  75.2179600  85.9745270 119.4156890
  60.7044150  85.9704340 119.7397030  60.1104470  85.8389040 120.4787070
  60.6967990  85.1342480 119.2739130  70.1499170  69.2636570 117.9427060
  69.2759010  69.5971680 117.7399990  70.0409920  68.7909750 118.7678930
  73.5105760  87.2419480 116.3006350  73.0508730  87.9935290 115.9264370
  72.8818220  86.5225950 116.2421150  60.3356380  83.3362720 118.6905070
  59.6090440  82.7168010 118.6231020  60.3965530  83.7303330 117.8203150
  63.9401480  85.5507720 115.4754480  64.4566500  84.9395080 114.9502740
  64.5898860  86.0536500 115.9665490  66.6796980  86.4416210 116.3023460
  66.9674790  86.1870510 115.4256470  67.1920200  85.8893570 116.8929030
  66.7469340  87.3632310 123.6691660  67.6736650  87.1276580 123.7127620
  66.7319770  88.1904310 123.1877690  63.9332950  70.0277060 123.4333540
  63.6517220  70.5310660 122.6694360  64.3152650  69.2298810 123.0675670
  62.8242050  87.2952720 108.2201220  63.5560870  87.0112000 107.6725110
  63.0835720  87.0566000 109.1100600  61.9856840  83.4117450 108.2247550
  61.3565720  83.8802550 108.7733380  62.1004670  82.5666670 108.6593740
  70.5348410  69.4430640 124.0114010  70.4213860  69.7625250 124.9065530
  71.3518150  69.8443150 123.7151290  73.3146900  86.5902170 123.4932700
  74.1072220  86.0951400 123.2858660  73.6080050  87.2692310 124.1008310
  58.0541890  81.5016100  89.4232680  57.6769870  81.9903200  88.6917580
  58.3114960  82.1741380  90.0539210  63.8419920  84.7330330 103.9987570
  63.8135350  85.1373280 103.1316000  63.6784890  83.8040690 103.8359170
  58.4996260  86.9178340  88.5424020  58.8593900  87.5167680  87.8881290
  58.3588600  87.4638230  89.3159050  58.4838120  85.1833200 103.0166420
  58.5929240  84.2427940 102.8761810  57.8318680  85.4487950 102.3680150
  60.6296560  86.2502110 104.8286030  61.4309290  86.5714160 105.2421430
  60.1148380  85.8897690 105.5505940  63.8323970  86.1840210 101.4841490
  63.2945060  86.9086270 101.1650190  64.0857930  85.7070550 100.6938830
  61.8537540  72.6534560  86.7611700  62.1563440  72.6601990  85.8530850
  62.5932130  72.3032420  87.2579360  59.8167560  70.4460630  87.0354630
  60.5395690  70.9869570  87.3535850  60.0892080  70.1724050  86.1596170
  60.8656120  83.0242090 103.8455760  60.8225750  82.6535000 104.7270220
  60.9967130  83.9619660 103.9857580  61.9856840  83.4117450  89.4504060
  61.3565720  83.8802550  89.9989890  62.1004670  82.5666670  89.8850250
  69.4406560  77.4623110  75.6005260  69.3600610  76.5477720  75.3296970
  69.0270980  77.9590180  74.8944970  67.5724600  79.2402130  77.4814530
  66.7966700  78.7602570  77.7713100  68.2237530  78.5607780  77.3070690
  71.5932030  83.6462320  76.2613660  71.1313560  82.8749560  76.5900830
  72.4057580  83.6728390  76.7666110  59.9982380  74.5123830  72.1432680
  59.1099080  74.8539800  72.0412560  60.2823570  74.3124150  71.2513510
  57.9615390  77.1129480  78.0272380  58.5331500  76.3451680  78.0276020
  57.9616930  77.4118240  77.1178990  67.0133590  81.9159320  77.4884690
  66.9441870  80.9749260  77.3273820  67.7753450  82.0060730  78.0607260
  59.2040260  72.5213840  79.8141310  59.0243100  71.6239590  80.0944070
  58.8020340  73.0685710  80.4888260  68.0438760  74.7229700  77.7153620
  68.4203580  73.8501580  77.6027290  67.9458270  75.0588400  76.8244060
  62.1743770  73.0955330  73.1771060  62.2810520  73.9959060  73.4839820
  61.2636130  73.0473300  72.8865710  59.8226930  75.0174340  78.4223650
  60.5037040  75.2812710  79.0411050  59.5074980  74.1775210  78.7561660
  64.0151500  76.0641700  77.5096240  64.5229720  76.5622670  78.1501260
  64.5464740  75.2876900  77.3335600  76.1162430  74.2346890  81.2125590
  75.4114600  74.6228600  80.6940700  76.3820350  74.9297180  81.8146520
  62.2987600  70.7040260  81.7759660  62.3006040  71.2212650  80.9705560
  61.4691910  70.2270440  81.7529590  68.6858690  80.8159570  73.2749560
  68.0675960  81.2809020  72.7112280  69.1981940  81.5087050  73.6919070
  63.5490450  80.3435440  79.9533160  63.2159830  80.9704360  80.5954230
  63.7257130  80.8697320  79.1734830  72.0624360  74.1580520  77.4209500
  71.3579930  74.4465410  78.0012610  72.4236520  74.9680630  77.0609060
  61.9802930  72.4150220  79.7830110  62.3219740  73.2592270  79.4883980
  61.0418740  72.5633960  79.8995450  62.7609550  82.3116240  81.7682340
  63.3783550  82.9867320  81.4866790  61.9002670  82.7204220  81.6769840
  58.0541890  81.5016100  70.6489190  57.6769870  81.9903200  69.9174090
  58.3114960  82.1741380  71.2795720  75.1311280  73.6035310  77.8118710
  74.1836190  73.6374290  77.9434140  75.4561270  74.4174260  78.1968070
  65.6630820  69.9032490  76.1074700  65.9705800  69.3479380  75.3910200
  64.7331520  70.0376950  75.9247690  72.5091300  82.3416000  73.4872330
  72.3987630  81.3990330  73.6121750  72.5059550  82.7031640  74.3735090
  70.6131320  80.5229620  79.7264770  71.0300110  80.3089730  78.8918230
  71.3371140  80.7802410  80.2973390  74.5593420  78.9216840  79.8181010
  73.7312050  78.9909930  79.3431140  75.1543900  79.5071150  79.3496840
  72.0808870  79.5301620  73.3470070  71.4621290  79.1921170  72.6996370
  72.0633320  78.8861380  74.0549260  71.5235430  75.7086160  80.7635880
  71.1106610  76.5339870  81.0175870  70.7911380  75.1231200  80.5712240
  63.6568220  78.4946060  75.6254550  63.2525220  77.7823310  75.1300450
  63.7431340  78.1499300  76.5142590  64.1249920  82.1813620  77.7893760
  63.8278210  81.5759090  77.1101540  65.0749740  82.2190930  77.6783120
  62.3696840  75.2689270  79.4053590  62.9211430  75.3784610  78.6306840
  62.8840350  75.6426870  80.1208820  62.0439570  78.7908630  83.0158930
  61.9047340  79.6631430  83.3846330  61.1620930  78.4481440  82.8706870
  68.3668950  83.7084500  74.3224060  68.8064860  84.4508830  73.9079450
  68.3055840  83.9511070  75.2463020  60.3572850  77.3891040  73.1261200
  60.2370450  78.1153130  72.5142470  60.0473740  76.6193950  72.6489110
  75.0492000  74.7602740  84.6458000  74.4336270  75.2682410  84.1173460
  74.7288420  73.8601070  84.5883940  62.8236510  70.7326110  76.5084870
  62.3804660  71.5135650  76.1769390  63.3821500  71.0556000  77.2155810
  72.1110830  74.8203580  83.2416850  71.2604420  74.5209330  83.5625920
  71.9512620  75.0645590  82.3300670  64.8612410  71.2773440  78.3674470
  65.1584740  72.1836270  78.2866490  65.4097970  70.7892220  77.7534040
  62.6150730  75.8559680  74.2366120  62.3891650  75.6396850  75.1412740
  61.8343260  76.2888140  73.8912090  68.4513360  74.4986590  74.8660050
  68.8442930  74.8158790  74.0528740  68.8130210  73.6198470  74.9804570
  60.1860480  73.1658930  83.0560170  59.7923870  74.0134140  83.2632950
  59.4978880  72.5285300  83.2468810  57.4877530  71.0887390  77.0890250
  57.1990580  71.6590250  77.8015230  58.2323290  70.6091840  77.4521480
  57.6747760  75.0307510  68.2992970  57.5922430  75.9738270  68.4407960
  57.3230820  74.8882420  67.4205320  69.0368500  77.0892340  78.9610830
  68.3049620  77.5979150  79.3100930  68.6392840  76.2722320  78.6599610
  65.4745890  73.7646540  77.3663320  65.4781950  73.3236490  76.5167860
  66.3697010  74.0863870  77.4735140  61.3248270  73.6473030  76.3257530
  60.9848320  74.1248260  77.0824580  60.5625590  73.1938150  75.9658630
  69.4994410  72.5426020  78.3733770  69.5167150  72.9934670  79.2175620
  69.2509990  71.6431660  78.5867210  59.6256720  80.9771780  83.6320110
  59.2411510  80.3365450  84.2303070  59.9368910  81.6807900  84.2014840
  65.7753860  77.8248320  79.1128730  66.1423990  77.3506890  79.8590070
  65.5858920  78.6989890  79.4537070  58.6394350  72.5692010  75.2422200
  58.3541270  72.2047680  76.0800820  58.5773210  71.8372470  74.6285340
  63.5653230  76.8656960  81.4312940  63.2610300  77.7448940  81.6563300
  64.5199690  76.9256750  81.4670380  62.0935020  81.0717950  72.0279790
  61.3197280  80.5315570  71.8678510  62.8229650  80.5524560  71.6897550
  72.8523000  80.0683310  77.8206180  73.5722120  80.5638600  77.4302290
  72.6504820  79.3901200  77.1760050  62.1372420  80.7398330  75.6658600
  62.6551090  79.9366590  75.6115490  61.6856440  80.6777470  76.5075430
  59.6216960  77.7059700  82.5784300  59.2631900  78.3713550  83.1657640
  59.3271520  76.8743250  82.9496920  74.3769740  79.6020280  82.8047560
  73.6517930  80.1949060  82.6076950  74.9045200  79.5943820  82.0060930
  74.3282850  83.9995020  72.4559720  73.6859010  83.3450640  72.7303440
  73.9413510  84.4050110  71.6800390  69.9069330  81.3280450  76.3031410
  70.2593150  80.7308580  75.6432780  69.0231660  81.0024680  76.4739660
  65.9932610  82.0878140  73.7101820  66.6803740  82.6347350  74.0909410
  65.2065030  82.6318870  73.7451430  58.1325010  77.7050960  69.2018900
  59.0019860  77.9875760  69.4854820  57.6415330  78.5186830  69.0867710
  65.2959820  79.0924170  73.3227180  65.7522600  79.9029420  73.5487370
  64.9448030  78.7747310  74.1545670  61.1971600  69.4361820  73.7949700
  61.0686230  69.4279720  74.7434620  60.3733620  69.7744910  73.4440710
  68.8724510  82.6062860  79.2696930  69.5146740  81.9056020  79.3829100
  69.3973860  83.3861300  79.0893820  58.1965530  71.1952940  83.2556400
  57.4824050  71.3949860  83.8609010  58.6160570  70.4192510  83.6271200
  58.4838120  85.1833200  84.2422930  58.5929240  84.2427940  84.1018320
  57.8318680  85.4487950  83.5936660  60.1171520  79.5224430  71.3300960
  59.5099470  80.2623330  71.3396260  60.5920870  79.6123790  70.5039160
  69.6904310  73.6875250  81.0057850  70.0585130  72.8670460  81.3337420
  68.8302510  73.7477140  81.4213500  65.0250370  74.9218140  73.2303290
  64.3166520  75.3904480  73.6716900  65.3094850  74.2640150  73.8648480
  66.6506300  76.3414840  81.2295820  67.1491550  76.8160660  81.8947670
  66.7929250  75.4178360  81.4365850  73.8573160  72.5582800  82.0724210
  73.3546760  73.2988200  82.4118020  74.6729820  72.9466800  81.7561000
  72.1495170  77.8015980  75.5185570  71.2085310  77.8166210  75.6933260
  72.4639240  77.0151940  75.9645870  61.6238280  87.0656040  76.8656960
  62.3600760  86.5171500  77.1365530  62.0079200  87.9312050  76.7262950
  58.5083760  83.1329610  72.7398470  57.5823540  83.3750750  72.7303880
  58.9740190  83.9603870  72.6183220  58.3494370  78.7375570  84.9978590
  58.8533390  78.1582850  85.5694820  57.6101790  79.0215800  85.5354960
  60.3817450  76.8805160  85.8928660  60.4222790  76.5819030  86.8013890
  61.2362950  77.2812770  85.7336180  62.3223260  75.4597260  83.8603150
  61.7919720  74.9688210  83.2326490  62.9911330  75.8881460  83.3261080
  62.8095560  72.4259630  83.9400440  62.7152430  71.8080380  83.2151310
  62.2292950  73.1525920  83.7130350  65.9816550  79.8787200  81.5940270
  66.4004660  80.7219930  81.4216510  65.0625180  80.0159240  81.3647050
  60.8767670  81.9576980  68.8198010  61.3142540  82.5006650  69.4755590
  61.3615400  81.1323930  68.8294350  58.0913470  84.7466010  76.2718270
  58.4216480  83.8787070  76.0396910  58.5204470  84.9524530  77.1023230
  62.6875390  83.0775020  73.9320240  62.3870930  82.9539990  74.8324150
  62.5812880  82.2183610  73.5235970  74.9123770  79.6018900  71.1381120
  75.6742680  80.1715550  71.2440810  74.9278140  79.0346100  71.9089430
  58.4128110  78.1256830  75.3688780  57.7576950  77.8568470  74.7248480
  59.2506060  78.0161310  74.9190760  75.9183740  80.4569000  75.9823050
  76.2892570  79.6736320  75.5759020  76.5585670  81.1458100  75.8040350
  74.8608280  77.8322260  73.2883070  74.4851880  77.0650190  72.8564360
  74.1311400  78.2144960  73.7758000  74.2507900  76.9793780  82.9222590
  74.0193990  76.7506530  82.0220540  74.5112450  77.8993330  82.8767480
  59.0020040  75.4218490  83.8150540  58.1076090  75.3885250  84.1544250
  59.5417590  75.6205280  84.5801790  57.6266190  75.3355760  71.3114110
  56.7230270  75.5985960  71.1365770  58.1106810  75.6066930  70.5314070
  74.1359240  76.0579750  76.5890310  74.6596720  75.5642400  75.9580480
  74.7218660  76.1930110  77.3337880  74.3148960  76.1419620  80.1109860
  73.3651670  76.1083160  80.2254850  74.4961970  77.0519730  79.8759630
  59.5059750  69.6966820  78.1633760  60.1535940  69.1464200  77.7228920
  59.9261590  69.9509970  78.9849570  59.2591750  69.8522490  80.9059080
  58.9106570  70.3086310  81.6717260  58.9279450  68.9579620  80.9881510
  60.8656120  83.0242090  85.0712270  60.8225750  82.6535000  85.9526730
  60.9967130  83.9619660  85.2114090  64.5662150  84.5801680  80.6721990
  64.3253510  84.8476240  79.7852510  65.5064790  84.7507410  80.7272850
  60.7044150  85.9704340  82.1910050  60.1104470  85.8389040  82.9300090
  60.6967990  85.1342480  81.7252150  63.9401480  85.5507720  77.9267500
  64.4566500  84.9395080  77.4015760  64.5898860  86.0536500  78.4178510
  66.6796980  86.4416210  78.7536480  66.9674790  86.1870510  77.8769490
  67.1920200  85.8893570  79.3442050  58.6186380  86.6537110  74.3514850
  58.4508420  86.0207790  75.0496740  57.7520890  86.8596510  74.0009040
  59.2414400  70.4853890  71.8546710  59.9993760  70.5982770  71.2810740
  58.7791570  71.3223090  71.8090140  65.7828210  72.5993160  74.8449020
  64.9702720  72.2250050  74.5044900  66.2869850  71.8438240  75.1470210
  60.2249080  85.3470340  71.7964990  59.6996700  85.7278370  71.0926950
  60.1493660  85.9721110  72.5174700  63.8077390  70.7493080  73.4494070
  63.1780130  70.0480390  73.6164200  63.2682530  71.5097210  73.2327230
  61.9856840  83.4117450  70.6760570  61.3565720  83.8802550  71.2246400
  62.1004670  82.5666670  71.1106760  61.1971600  69.4361820  55.0206210
  61.0686230  69.4279720  55.9691130  60.3733620  69.7744910  54.6697220
  58.1965530  71.1952940  64.4812910  57.4824050  71.3949860  65.0865520
  58.6160570  70.4192510  64.8527710  61.8537540  72.6534560  49.2124720
  62.1563440  72.6601990  48.3043870  62.5932130  72.3032420  49.7092380
  59.8167560  70.4460630  49.4867650  60.5395690  70.9869570  49.8048870
  60.0892080  70.1724050  48.6109190  59.2414400  70.4853890  53.0803220
  59.9993760  70.5982770  52.5067250  58.7791570  71.3223090  53.0346650
  61.6139550  71.0117940  51.6205190  62.1432310  70.2247740  51.4913140
  62.2467870  71.6909130  51.8540720  69.4406560  77.4623110  38.0518280
  69.3600610  76.5477720  37.7809990  69.0270980  77.9590180  37.3457990
  67.5724600  79.2402130  39.9327550  66.7966700  78.7602570  40.2226120
  68.2237530  78.5607780  39.7583710  61.5890430  79.5521940  40.8103310
  60.7575310  79.2970650  41.2099820  62.1971410  79.6232710  41.5461230
  71.5932030  83.6462320  38.7126680  71.1313560  82.8749560  39.0413850
  72.4057580  83.6728390  39.2179130  59.9982380  74.5123830  34.5945700
  59.1099080  74.8539800  34.4925580  60.2823570  74.3124150  33.7026530
  57.9615390  77.1129480  40.4785400  58.5331500  76.3451680  40.4789040
  57.9616930  77.4118240  39.5692010  67.8195340  85.9320330  38.3330670
  67.2006780  86.3877830  37.7625110  68.6747120  86.0871790  37.9320370
  59.2040260  72.5213840  42.2654330  59.0243100  71.6239590  42.5457090
  58.8020340  73.0685710  42.9401280  68.0438760  74.7229700  40.1666640
  68.4203580  73.8501580  40.0540310  67.9458270  75.0588400  39.2757080
  62.1743770  73.0955330  35.6284080  62.2810520  73.9959060  35.9352840
  61.2636130  73.0473300  35.3378730  71.8262880  72.2180140  37.0994980
  72.6472500  71.7276710  37.1420460  71.8596960  72.8077800  37.8526820
  59.8226930  75.0174340  40.8736670  60.5037040  75.2812710  41.4924070
  59.5074980  74.1775210  41.2074680  64.0151500  76.0641700  39.9609260
  64.5229720  76.5622670  40.6014280  64.5464740  75.2876900  39.7848620
  76.1162430  74.2346890  43.6638610  75.4114600  74.6228600  43.1453720
  76.3820350  74.9297180  44.2659540  62.2987600  70.7040260  44.2272680
  62.3006040  71.2212650  43.4218580  61.4691910  70.2270440  44.2042610
  68.6858690  80.8159570  35.7262580  68.0675960  81.2809020  35.1625300
  69.1981940  81.5087050  36.1432090  72.0624360  74.1580520  39.8722520
  71.3579930  74.4465410  40.4525630  72.4236520  74.9680630  39.5122080
  61.9802930  72.4150220  42.2343130  62.3219740  73.2592270  41.9397000
  61.0418740  72.5633960  42.3508470  75.1311280  73.6035310  40.2631730
  74.1836190  73.6374290  40.3947160  75.4561270  74.4174260  40.6481090
  65.6630820  69.9032490  38.5587720  65.9705800  69.3479380  37.8423220
  64.7331520  70.0376950  38.3760710  72.5091300  82.3416000  35.9385350
  72.3987630  81.3990330  36.0634770  72.5059550  82.7031640  36.8248110
  68.0511580  77.9681320  35.2947840  67.1240860  77.9018700  35.5236310
  68.2036400  78.9061450  35.1803080  68.0380660  74.2398320  32.2915000
  67.0984330  74.4012280  32.3767460  68.3563920  74.9584000  31.7450990
  72.0808870  79.5301620  35.7983090  71.4621290  79.1921170  35.1509390
  72.0633320  78.8861380  36.5062280  63.6568220  78.4946060  38.0767570
  63.2525220  77.7823310  37.5813470  63.7431340  78.1499300  38.9655610
  62.3696840  75.2689270  41.8566610  62.9211430  75.3784610  41.0819860
  62.8840350  75.6426870  42.5721840  68.3668950  83.7084500  36.7737080
  68.8064860  84.4508830  36.3592470  68.3055840  83.9511070  37.6976040
  73.8390710  70.0231240  31.1196880  73.5263370  70.1158070  32.0195950
  74.6003180  70.6012270  31.0694310  60.3572850  77.3891040  35.5774220
  60.2370450  78.1153130  34.9655490  60.0473740  76.6193950  35.1002130
  59.2405850  82.2606370  37.7949040  58.8333930  82.4020960  36.9402640
  60.1318860  81.9766530  37.5920250  63.5127510  86.4752150  35.9071710
  63.3369990  85.5587690  35.6939510  62.6583250  86.8339440  36.1469510
  70.3015190  85.8303890  36.7646580  70.7572140  85.0493270  37.0785200
  70.6407710  86.5410710  37.3087760  62.8236510  70.7326110  38.9597890
  62.3804660  71.5135650  38.6282410  63.3821500  71.0556000  39.6668830
  65.9395330  70.3536810  33.8403720  65.3149510  70.3496680  34.5657030
  65.8525450  69.4867770  33.4439690  64.8612410  71.2773440  40.8187490
  65.1584740  72.1836270  40.7379510  65.4097970  70.7892220  40.2047060
  62.6150730  75.8559680  36.6879140  62.3891650  75.6396850  37.5925760
  61.8343260  76.2888140  36.3425110  69.8448490  75.8623050  35.2869790
  69.2457380  76.5858850  35.1033410  70.3928100  75.7999830  34.5046240
  68.4513360  74.4986590  37.3173070  68.8442930  74.8158790  36.5041760
  68.8130210  73.6198470  37.4317590  60.1860480  73.1658930  45.5073190
  59.7923870  74.0134140  45.7145970  59.4978880  72.5285300  45.6981830
  57.4877530  71.0887390  39.5403270  57.1990580  71.6590250  40.2528250
  58.2323290  70.6091840  39.9034500  69.0368500  77.0892340  41.4123850
  68.3049620  77.5979150  41.7613950  68.6392840  76.2722320  41.1112630
  65.4745890  73.7646540  39.8176340  65.4781950  73.3236490  38.9680880
  66.3697010  74.0863870  39.9248160  61.3248270  73.6473030  38.7770550
  60.9848320  74.1248260  39.5337600  60.5625590  73.1938150  38.4171650
  65.5366040  74.7658620  32.8083100  65.6578860  74.7245100  33.7568920
  65.1514550  75.6282770  32.6529830  69.4994410  72.5426020  40.8246790
  69.5167150  72.9934670  41.6688640  69.2509990  71.6431660  41.0380230
  64.5487540  77.0759760  32.2066400  63.9804440  76.6278010  31.5802310
  65.2576540  77.4352540  31.6731550  65.7753860  77.8248320  41.5641750
  66.1423990  77.3506890  42.3103090  65.5858920  78.6989890  41.9050090
  58.6394350  72.5692010  37.6935220  58.3541270  72.2047680  38.5313840
  58.5773210  71.8372470  37.0798360  62.0935020  81.0717950  34.4792810
  61.3197280  80.5315570  34.3191530  62.8229650  80.5524560  34.1410570
  68.3132940  71.4621270  34.4148590  67.4997550  70.9634440  34.3393900
  68.1194890  72.3019520  33.9984940  67.0241920  82.0064610  33.3898920
  67.3657620  82.7506840  32.8942240  66.1954630  82.3195730  33.7523750
  74.3282850  83.9995020  34.9072740  73.6859010  83.3450640  35.1816460
  73.9413510  84.4050110  34.1313410  69.9069330  81.3280450  38.7544430
  70.2593150  80.7308580  38.0945800  69.0231660  81.0024680  38.9252680
  65.9932610  82.0878140  36.1614840  66.6803740  82.6347350  36.5422430
  65.2065030  82.6318870  36.1964450  65.2959820  79.0924170  35.7740200
  65.7522600  79.9029420  36.0000390  64.9448030  78.7747310  36.6058690
  61.1971600  69.4361820  36.2462720  61.0686230  69.4279720  37.1947640
  60.3733620  69.7744910  35.8953730  72.7180230  82.8911480  31.4449090
  72.4917810  82.1741920  32.0373730  72.3276430  82.6423920  30.6070840
  58.4996260  86.9178340  32.2193550  58.8593900  87.5167680  31.5650820
  58.3588600  87.4638230  32.9928580  58.1965530  71.1952940  45.7069420
  57.4824050  71.3949860  46.3122030  58.6160570  70.4192510  46.0784220
  64.5164880  84.3009540  33.0367220  64.5074980  85.0339230  32.4211730
  63.5963240  84.0541120  33.1294180  60.1171520  79.5224430  33.7813980
  59.5099470  80.2623330  33.7909280  60.5920870  79.6123790  32.9552180
  73.0566340  72.6432190  34.2658430  72.4279500  72.7477860  33.5516660
  72.5618260  72.8628970  35.0552310  65.0250370  74.9218140  35.6816310
  64.3166520  75.3904480  36.1229920  65.3094850  74.2640150  36.3161500
  69.0565800  71.6468800  37.1212100  68.9333580  71.6654930  36.1721610
  70.0050360  71.6947740  37.2410500  66.1442590  86.8824100  36.3940080
  66.3984090  86.8445490  35.4719450  65.1955070  86.7557430  36.3868330
  63.2285390  73.2303220  33.0567020  64.0775920  73.6673370  32.9907210
  62.8616660  73.5423480  33.8839080  72.1495170  77.8015980  37.9698590
  71.2085310  77.8166210  38.1446280  72.4639240  77.0151940  38.4158890
  74.1520750  84.9724830  39.6452850  74.2768170  85.7956000  40.1176660
  75.0186310  84.7615560  39.2977000  58.5083760  83.1329610  35.1911490
  57.5823540  83.3750750  35.1816900  58.9740190  83.9603870  35.0696240
  64.7340590  86.2386350  31.1395550  65.5269200  86.5275180  30.6877340
  64.2144940  85.8078520  30.4608030  73.7870760  85.4656480  32.5632290
  73.5012270  85.0521620  31.7486470  73.5890310  86.3944190  32.4432810
  65.2517990  81.4589760  31.0037900  65.1468630  80.8442110  31.7299280
  65.0842210  80.9355650  30.2200910  68.4920720  80.5209790  31.6079890
  67.9430820  80.9679090  32.2522630  69.1139980  80.0159040  32.1317560
  64.1595840  79.4800710  33.5045190  64.5812260  79.3140580  34.3476580
  64.2846680  78.6700940  33.0100330  66.6723480  78.5038320  30.7522290
  67.1929140  77.7887340  30.3863440  67.3191880  79.1424190  31.0522800
  62.8095560  72.4259630  46.3913460  62.7152430  71.8080380  45.6664330
  62.2292950  73.1525920  46.1643370  65.5757000  70.9832870  43.4240850
  65.1274300  71.0057130  42.5786400  64.9422200  70.5851890  44.0211150
  70.5343050  70.3642170  32.9790230  70.8145340  69.5210070  33.3349650
  69.7608780  70.5965280  33.4928980  65.0722470  71.5969180  31.4237430
  64.7244470  70.9193170  30.8439880  65.2735240  71.1358690  32.2380820
  58.0913470  84.7466010  38.7231290  58.4216480  83.8787070  38.4909930
  58.5204470  84.9524530  39.5536250  62.6875390  83.0775020  36.3833260
  62.3870930  82.9539990  37.2837170  62.5812880  82.2183610  35.9748990
  75.4567310  82.8571420  31.0859940  74.6260270  82.9248070  31.5567170
  75.6339140  83.7475540  30.7826800  74.9123770  79.6018900  33.5894140
  75.6742680  80.1715550  33.6953830  74.9278140  79.0346100  34.3602450
  58.4128110  78.1256830  37.8201800  57.7576950  77.8568470  37.1761500
  59.2506060  78.0161310  37.3703780  71.3618550  72.9198120  32.0420290
  71.7803430  72.7329100  31.2016950  71.0554610  72.0677170  32.3523220
  74.8608280  77.8322260  35.7396090  74.4851880  77.0650190  35.3077380
  74.1311400  78.2144960  36.2271020  57.6266190  75.3355760  33.7627130
  56.7230270  75.5985960  33.5878790  58.1106810  75.6066930  32.9827090
  74.1359240  76.0579750  39.0403330  74.6596720  75.5642400  38.4093500
  74.7218660  76.1930110  39.7850900  59.8167560  70.4460630  30.7124160
  60.5395690  70.9869570  31.0305380  60.0892080  70.1724050  29.8365700
  73.6259210  75.3153100  34.9795740  74.1218330  75.0823970  35.7644620
  73.4275280  74.4764940  34.5633380  75.0546370  73.9514050  37.5133420
  74.9445650  73.7970090  38.4515690  75.8153960  73.4234990  37.2708830
  75.9436640  71.7821970  30.7539560  76.8685950  71.6503150  30.5457850
  75.9212430  71.8614790  31.7076010  76.0175130  72.5532630  33.3796270
  75.2226630  72.4877750  33.9089180  76.2218410  73.4883270  33.3681620
  72.9593550  86.5924180  37.3734660  73.5552620  86.2708750  36.6969080
  73.2171700  86.1196000  38.1647930  59.9312390  69.3798690  46.6322870
  60.4795380  69.1986740  45.8688980  59.9967700  68.5892800  47.1679180
  67.8973990  70.1806410  41.7846010  67.1145780  70.6551910  42.0642770
  67.6036920  69.2761240  41.6759190  72.4495060  70.8829510  39.8295100
  72.8903150  70.8274610  38.9816700  72.1802650  71.7987520  39.9005280
  74.3133630  70.5144750  37.8403920  74.2522030  69.5705970  37.6934940
  75.0925660  70.6224840  38.3857380  58.6186380  86.6537110  36.8027870
  58.4508420  86.0207790  37.5009760  57.7520890  86.8596510  36.4522060
  59.2414400  70.4853890  34.3059730  59.9993760  70.5982770  33.7323760
  58.7791570  71.3223090  34.2603160  65.7828210  72.5993160  37.2962040
  64.9702720  72.2250050  36.9557920  66.2869850  71.8438240  37.5983230
  70.2853190  69.2635610  38.5345110  70.8882560  69.8355820  39.0093630
  69.5446180  69.8275050  38.3119010  73.4287790  69.6657170  33.8085390
  73.6238420  70.5640620  34.0752820  72.6417660  69.4344250  34.3018340
  60.2249080  85.3470340  34.2478010  59.6996700  85.7278370  33.5439970
  60.1493660  85.9721110  34.9687720  61.6139550  71.0117940  32.8461700
  62.1432310  70.2247740  32.7169650  62.2467870  71.6909130  33.0797230
  63.8077390  70.7493080  35.9007090  63.1780130  70.0480390  36.0677220
  63.2682530  71.5097210  35.6840250  74.9814400  86.9057880  35.5691950
  75.1566590  86.2195620  34.9252870  74.2835970  87.4304930  35.1768620
  63.9332950  70.0277060  48.3359580  63.6517220  70.5310660  47.5720400
  64.3152650  69.2298810  47.9701710  62.8242050  87.2952720  33.1227260
  63.5560870  87.0112000  32.5751150  63.0835720  87.0566000  34.0126640
  61.9856840  83.4117450  33.1273590  61.3565720  83.8802550  33.6759420
  62.1004670  82.5666670  33.5619780  61.5890430  79.5521940  22.0359820
  60.7575310  79.2970650  22.4356330  62.1971410  79.6232710  22.7717740
  61.5691690  83.5862030  22.2317840  61.8719730  82.6959770  22.0528060
  62.3135280  84.1432250  22.0040090  59.9982380  74.5123830  15.8202210
  59.1099080  74.8539800  15.7182090  60.2823570  74.3124150  14.9283040
  57.9615390  77.1129480  21.7041910  58.5331500  76.3451680  21.7045550
  57.9616930  77.4118240  20.7948520  67.8195340  85.9320330  19.5587180
  67.2006780  86.3877830  18.9881620  68.6747120  86.0871790  19.1576880
  59.2040260  72.5213840  23.4910840  59.0243100  71.6239590  23.7713600
  58.8020340  73.0685710  24.1657790  68.0438760  74.7229700  21.3923150
  68.4203580  73.8501580  21.2796820  67.9458270  75.0588400  20.5013590
  62.1743770  73.0955330  16.8540590  62.2810520  73.9959060  17.1609350
  61.2636130  73.0473300  16.5635240  59.8226930  75.0174340  22.0993180
  60.5037040  75.2812710  22.7180580  59.5074980  74.1775210  22.4331190
  64.0151500  76.0641700  21.1865770  64.5229720  76.5622670  21.8270790
  64.5464740  75.2876900  21.0105130  62.2987600  70.7040260  25.4529190
  62.3006040  71.2212650  24.6475090  61.4691910  70.2270440  25.4299120
  63.5490450  80.3435440  23.6302690  63.2159830  80.9704360  24.2723760
  63.7257130  80.8697320  22.8504360  72.0624360  74.1580520  21.0979030
  71.3579930  74.4465410  21.6782140  72.4236520  74.9680630  20.7378590
  61.9802930  72.4150220  23.4599640  62.3219740  73.2592270  23.1653510
  61.0418740  72.5633960  23.5764980  62.7609550  82.3116240  25.4451870
  63.3783550  82.9867320  25.1636320  61.9002670  82.7204220  25.3539370
  58.0541890  81.5016100  14.3258720  57.6769870  81.9903200  13.5943620
  58.3114960  82.1741380  14.9565250  73.6787140  83.7755650  23.3606510
  72.9950660  84.4454760  23.3523180  74.2181430  83.9736300  22.5951370
  68.0511580  77.9681320  16.5204350  67.1240860  77.9018700  16.7492820
  68.2036400  78.9061450  16.4059590  68.0380660  74.2398320  13.5171510
  67.0984330  74.4012280  13.6023970  68.3563920  74.9584000  12.9707500
  63.6568220  78.4946060  19.3024080  63.2525220  77.7823310  18.8069980
  63.7431340  78.1499300  20.1912120  64.1249920  82.1813620  21.4663290
  63.8278210  81.5759090  20.7871070  65.0749740  82.2190930  21.3552650
  62.3696840  75.2689270  23.0823120  62.9211430  75.3784610  22.3076370
  62.8840350  75.6426870  23.7978350  72.2135530  85.7545490  25.1286390
  71.7366090  86.5617680  24.9359000  71.5297320  85.1023820  25.2812600
  63.2168350  81.9195310  28.1171090  62.3196880  82.1435280  28.3644490
  63.2421220  82.0430250  27.1682490  70.2573570  78.7688430  14.0312350
  70.6966850  77.9310860  13.8850170  70.9701990  79.4017830  14.1176490
  62.0439570  78.7908630  26.6928460  61.9047340  79.6631430  27.0615860
  61.1620930  78.4481440  26.5476400  63.8419920  84.7330330  28.9013610
  63.8135350  85.1373280  28.0342040  63.6784890  83.8040690  28.7385210
  73.8390710  70.0231240  12.3453390  73.5263370  70.1158070  13.2452460
  74.6003180  70.6012270  12.2950820  60.3572850  77.3891040  16.8030730
  60.2370450  78.1153130  16.1912000  60.0473740  76.6193950  16.3258640
  75.7934740  85.5157430  30.1977780  76.2694460  85.9940320  30.8766860
  76.4141900  85.4474920  29.4723280  57.9958220  80.5606180  22.6099370
  58.0738640  80.6954950  21.6655090  58.6099900  79.8522070  22.8027490
  59.2405850  82.2606370  19.0205550  58.8333930  82.4020960  18.1659150
  60.1318860  81.9766530  18.8176760  75.1967990  82.7070280  27.3577790
  75.3231050  82.4682160  26.4394970  75.2389370  81.8754820  27.8299870
  58.0517740  81.6020350  25.1493830  58.2148780  81.1325710  24.3313200
  58.5170190  81.0943910  25.8142670  67.1106320  73.5994630  25.7889720
  66.6485690  73.8077650  26.6009660  66.7084430  72.7853980  25.4860390
  65.9395330  70.3536810  15.0660230  65.3149510  70.3496680  15.7913540
  65.8525450  69.4867770  14.6696200  62.6150730  75.8559680  17.9135650
  62.3891650  75.6396850  18.8182270  61.8343260  76.2888140  17.5681620
  69.8448490  75.8623050  16.5126300  69.2457380  76.5858850  16.3289920
  70.3928100  75.7999830  15.7302750  65.0549940  76.7545260  28.5795920
  64.9593540  75.8139990  28.4296320  65.8981920  76.9760330  28.1843990
  68.4513360  74.4986590  18.5429580  68.8442930  74.8158790  17.7298270
  68.8130210  73.6198470  18.6574100  60.1860480  73.1658930  26.7329700
  59.7923870  74.0134140  26.9402480  59.4978880  72.5285300  26.9238340
  66.7605530  73.2493900  29.8026440  66.0703850  73.0566100  30.4372530
  67.5037830  73.5328540  30.3350740  57.4877530  71.0887390  20.7659780
  57.1990580  71.6590250  21.4784760  58.2323290  70.6091840  21.1291010
  57.6747760  75.0307510  11.9762500  57.5922430  75.9738270  12.1177490
  57.3230820  74.8882420  11.0974850  69.0368500  77.0892340  22.6380360
  68.3049620  77.5979150  22.9870460  68.6392840  76.2722320  22.3369140
  65.4745890  73.7646540  21.0432850  65.4781950  73.3236490  20.1937390
  66.3697010  74.0863870  21.1504670  61.3248270  73.6473030  20.0027060
  60.9848320  74.1248260  20.7594110  60.5625590  73.1938150  19.6428160
  65.5366040  74.7658620  14.0339610  65.6578860  74.7245100  14.9825430
  65.1514550  75.6282770  13.8786340  69.4994410  72.5426020  22.0503300
  69.5167150  72.9934670  22.8945150  69.2509990  71.6431660  22.2636740
  64.5487540  77.0759760  13.4322910  63.9804440  76.6278010  12.8058820
  65.2576540  77.4352540  12.8988060  72.9265160  69.9558200  27.8889680
  73.2510930  69.2247860  28.4147660  72.9621670  69.6371840  26.9870670
  59.6256720  80.9771780  27.3089640  59.2411510  80.3365450  27.9072600
  59.9368910  81.6807900  27.8784370  65.7753860  77.8248320  22.7898260
  66.1423990  77.3506890  23.5359600  65.5858920  78.6989890  23.1306600
  58.6394350  72.5692010  18.9191730  58.3541270  72.2047680  19.7570350
  58.5773210  71.8372470  18.3054870  63.5653230  76.8656960  25.1082470
  63.2610300  77.7448940  25.3332830  64.5199690  76.9256750  25.1439910
  62.0935020  81.0717950  15.7049320  61.3197280  80.5315570  15.5448040
  62.8229650  80.5524560  15.3667080  68.3132940  71.4621270  15.6405100
  67.4997550  70.9634440  15.5650410  68.1194890  72.3019520  15.2241450
  68.2341800  80.1392370  27.3844710  68.1679110  79.2188040  27.1302300
  67.6046940  80.2367810  28.0989350  71.0281330  75.8340920  13.9367260
  71.9160950  76.1458150  13.7618600  70.9986420  74.9613170  13.5447840
  62.1372420  80.7398330  19.3428130  62.6551090  79.9366590  19.2885020
  61.6856440  80.6777470  20.1844960  67.0241920  82.0064610  14.6155430
  67.3657620  82.7506840  14.1198750  66.1954630  82.3195730  14.9780260
  73.2995600  77.1452760  13.4047120  73.2159320  77.5766980  12.5543560
  74.0189790  77.6051110  13.8373940  65.9932610  82.0878140  17.3871350
  66.6803740  82.6347350  17.7678940  65.2065030  82.6318870  17.4220960
  58.1325010  77.7050960  12.8788430  59.0019860  77.9875760  13.1624350
  57.6415330  78.5186830  12.7637240  65.2959820  79.0924170  16.9996710
  65.7522600  79.9029420  17.2256900  64.9448030  78.7747310  17.8315200
  72.7180230  82.8911480  12.6705600  72.4917810  82.1741920  13.2630240
  72.3276430  82.6423920  11.8327350  58.4996260  86.9178340  13.4450060
  58.8593900  87.5167680  12.7907330  58.3588600  87.4638230  14.2185090
  58.1965530  71.1952940  26.9325930  57.4824050  71.3949860  27.5378540
  58.6160570  70.4192510  27.3040730  72.2996480  80.8083420  14.3319760
  72.0118180  81.2696110  15.1197640  73.0948650  80.3481190  14.6003980
  66.4750710  83.4549090  29.3190580  66.1547580  82.7358330  29.8636270
  65.8009070  84.1304160  29.3926640  64.5164880  84.3009540  14.2623730
  64.5074980  85.0339230  13.6468240  63.5963240  84.0541120  14.3550690
  60.1171520  79.5224430  15.0070490  59.5099470  80.2623330  15.0165790
  60.5920870  79.6123790  14.1808690  69.6904310  73.6875250  24.6827380
  70.0585130  72.8670460  25.0106950  68.8302510  73.7477140  25.0983030
  73.0566340  72.6432190  15.4914940  72.4279500  72.7477860  14.7773170
  72.5618260  72.8628970  16.2808820  67.5024480  84.3637780  12.9248920
  67.6036460  84.1601770  11.9950900  66.6026220  84.1096060  13.1296700
  65.0250370  74.9218140  16.9072820  64.3166520  75.3904480  17.3486430
  65.3094850  74.2640150  17.5418010  66.6506300  76.3414840  24.9065350
  67.1491550  76.8160660  25.5717200  66.7929250  75.4178360  25.1135380
  69.0565800  71.6468800  18.3468610  68.9333580  71.6654930  17.3978120
  70.0050360  71.6947740  18.4667010  63.2285390  73.2303220  14.2823530
  64.0775920  73.6673370  14.2163720  62.8616660  73.5423480  15.1095590
  73.8573160  72.5582800  25.7493740  73.3546760  73.2988200  26.0887550
  74.6729820  72.9466800  25.4330530  62.1276810  79.4835580  12.7559060
  62.8940080  79.3716940  13.3184490  62.2051500  78.7873550  12.1035830
  60.8223570  76.9160650  13.4391950  60.9027160  75.9688160  13.5509350
  61.7143320  77.2467530  13.5452610  58.5083760  83.1329610  16.4168000
  57.5823540  83.3750750  16.4073410  58.9740190  83.9603870  16.2952750
  60.6296560  86.2502110  29.7312070  61.4309290  86.5714160  30.1447470
  60.1148380  85.8897690  30.4531980  64.7340590  86.2386350  12.3652060
  65.5269200  86.5275180  11.9133850  64.2144940  85.8078520  11.6864540
  65.2517990  81.4589760  12.2294410  65.1468630  80.8442110  12.9555790
  65.0842210  80.9355650  11.4457420  65.4032310  80.1446560  28.2083640
  64.6377980  80.7131560  28.1238310  65.5848270  79.8522770  27.3151870
  68.4920720  80.5209790  12.8336400  67.9430820  80.9679090  13.4779140
  69.1139980  80.0159040  13.3574070  64.1595840  79.4800710  14.7301700
  64.5812260  79.3140580  15.5733090  64.2846680  78.6700940  14.2356840
  62.3223260  75.4597260  27.5372680  61.7919720  74.9688210  26.9096020
  62.9911330  75.8881460  27.0030610  66.6723480  78.5038320  11.9778800
  67.1929140  77.7887340  11.6119950  67.3191880  79.1424190  12.2779310
  62.8095560  72.4259630  27.6169970  62.7152430  71.8080380  26.8920840
  62.2292950  73.1525920  27.3899880  65.5757000  70.9832870  24.6497360
  65.1274300  71.0057130  23.8042910  64.9422200  70.5851890  25.2467660
  65.9816550  79.8787200  25.2709800  66.4004660  80.7219930  25.0986040
  65.0625180  80.0159240  25.0416580  63.0554740  75.5533940  11.6759860
  62.8543800  74.6901300  12.0373200  62.8846790  75.4667300  10.7381460
  63.8323970  86.1840210  26.3867530  63.2945060  86.9086270  26.0676230
  64.0857930  85.7070550  25.5964870  65.0849220  74.1524730  27.9123460
  65.6748910  73.8440580  28.6001280  64.2669460  73.6804480  28.0683360
  70.5343050  70.3642170  14.2046740  70.8145340  69.5210070  14.5606160
  69.7608780  70.5965280  14.7185490  61.8537540  72.6534560  11.6637740
  62.1563440  72.6601990  10.7556890  62.5932130  72.3032420  12.1605400
  65.0722470  71.5969180  12.6493940  64.7244470  70.9193170  12.0696390
  65.2735240  71.1358690  13.4637330  60.8767670  81.9576980  12.4967540
  61.3142540  82.5006650  13.1525120  61.3615400  81.1323930  12.5063880
  58.0913470  84.7466010  19.9487800  58.4216480  83.8787070  19.7166440
  58.5204470  84.9524530  20.7792760  62.6875390  83.0775020  17.6089770
  62.3870930  82.9539990  18.5093680  62.5812880  82.2183610  17.2005500
  58.5803680  85.6136600  22.6869430  58.1434670  85.7937400  23.5193580
  59.1481360  86.3711220  22.5451150  74.2165860  85.1153600  26.9746740
  73.6167850  85.1746160  26.2310660  74.3459760  84.1758580  27.1043590
  75.4567310  82.8571420  12.3116450  74.6260270  82.9248070  12.7823680
  75.6339140  83.7475540  12.0083310  58.4128110  78.1256830  19.0458310
  57.7576950  77.8568470  18.4018010  59.2506060  78.0161310  18.5960290
  75.9183740  80.4569000  19.6592580  76.2892570  79.6736320  19.2528550
  76.5585670  81.1458100  19.4809880  71.3618550  72.9198120  13.2676800
  71.7803430  72.7329100  12.4273460  71.0554610  72.0677170  13.5779730
  59.4504040  78.5109400  23.5861650  59.8177080  78.4236800  24.4657670
  58.8814860  77.7475950  23.4868510  72.6895970  72.2050210  29.3771820
  73.5666150  72.2133610  29.7605820  72.7016810  71.4681050  28.7664170
  57.6266190  75.3355760  14.9883640  56.7230270  75.5985960  14.8135300
  58.1106810  75.6066930  14.2083600  60.1693400  74.3921300  12.8978020
  60.8785100  73.9704520  12.4125300  59.4533340  74.4596530  12.2661370
  59.8167560  70.4460630  11.9380670  60.5395690  70.9869570  12.2561890
  60.0892080  70.1724050  11.0622210  73.6259210  75.3153100  16.2052250
  74.1218330  75.0823970  16.9901130  73.4275280  74.4764940  15.7889890
  75.0546370  73.9514050  18.7389930  74.9445650  73.7970090  19.6772200
  75.8153960  73.4234990  18.4965340  73.4012090  69.8908180  25.1972930
  74.0384310  70.5042320  25.5632120  73.5486980  69.9268840  24.2522160
  75.9436640  71.7821970  11.9796070  76.8685950  71.6503150  11.7714360
  75.9212430  71.8614790  12.9332520  76.0175130  72.5532630  14.6052780
  75.2226630  72.4877750  15.1345690  76.2218410  73.4883270  14.5938130
  59.2591750  69.8522490  24.5828610  58.9106570  70.3086310  25.3486790
  58.9279450  68.9579620  24.6651040  60.8656120  83.0242090  28.7481800
  60.8225750  82.6535000  29.6296260  60.9967130  83.9619660  28.8883620
  66.7716570  71.0434370  28.1048030  66.7105460  71.6356200  28.8543440
  67.7116950  70.9360330  27.9598290  69.4091130  70.7004430  27.7440320
  70.0231540  71.0183720  27.0821400  69.9540690  70.2153020  28.3636180
  75.8266310  86.5996060  25.1502160  75.3324590  86.9964930  24.4329290
  75.2179600  85.9745270  25.5439440  59.9312390  69.3798690  27.8579380
  60.4795380  69.1986740  27.0945490  59.9967700  68.5892800  28.3935690
  60.7044150  85.9704340  25.8679580  60.1104470  85.8389040  26.6069620
  60.6967990  85.1342480  25.4021680  70.1499170  69.2636570  24.0709610
  69.2759010  69.5971680  23.8682540  70.0409920  68.7909750  24.8961480
  71.0571150  71.4707440  25.4551330  70.7284510  70.6559200  25.0753060
  72.0053450  71.4277250  25.3317020  73.5105760  87.2419480  22.4288900
  73.0508730  87.9935290  22.0546920  72.8818220  86.5225950  22.3703700
  60.3356380  83.3362720  24.8187620  59.6090440  82.7168010  24.7513570
  60.3965530  83.7303330  23.9485700  67.8973990  70.1806410  23.0102520
  67.1145780  70.6551910  23.2899280  67.6036920  69.2761240  22.9015700
  58.6186380  86.6537110  18.0284380  58.4508420  86.0207790  18.7266270
  57.7520890  86.8596510  17.6778570  59.2414400  70.4853890  15.5316240
  59.9993760  70.5982770  14.9580270  58.7791570  71.3223090  15.4859670
  65.7828210  72.5993160  18.5218550  64.9702720  72.2250050  18.1814430
  66.2869850  71.8438240  18.8239740  73.4287790  69.6657170  15.0341900
  73.6238420  70.5640620  15.3009330  72.6417660  69.4344250  15.5274850
  60.2249080  85.3470340  15.4734520  59.6996700  85.7278370  14.7696480
  60.1493660  85.9721110  16.1944230  61.6139550  71.0117940  14.0718210
  62.1432310  70.2247740  13.9426160  62.2467870  71.6909130  14.3053740
  63.8077390  70.7493080  17.1263600  63.1780130  70.0480390  17.2933730
  63.2682530  71.5097210  16.9096760  63.9332950  70.0277060  29.5616090
  63.6517220  70.5310660  28.7976910  64.3152650  69.2298810  29.1958220
  61.9856840  83.4117450  14.3530100  61.3565720  83.8802550  14.9015930
  62.1004670  82.5666670  14.7876290  70.5348410  69.4430640  30.1396560
  70.4213860  69.7625250  31.0348080  71.3518150  69.8443150  29.8433840
  73.3146900  86.5902170  29.6215250  74.1072220  86.0951400  29.4141210
  73.6080050  87.2692310  30.2290860  67.5724600  79.2402130   2.3840570
  66.7966700  78.7602570   2.6739140  68.2237530  78.5607780   2.2096730
  61.5890430  79.5521940   3.2616330  60.7575310  79.2970650   3.6612840
  62.1971410  79.6232710   3.9974250  61.5691690  83.5862030   3.4574350
  61.8719730  82.6959770   3.2784570  62.3135280  84.1432250   3.2296600
  57.9615390  77.1129480   2.9298420  58.5331500  76.3451680   2.9302060
  57.9616930  77.4118240   2.0205030  67.0133590  81.9159320   2.3910730
  66.9441870  80.9749260   2.2299860  67.7753450  82.0060730   2.9633300
  59.2040260  72.5213840   4.7167350  59.0243100  71.6239590   4.9970110
  58.8020340  73.0685710   5.3914300  68.0438760  74.7229700   2.6179660
  68.4203580  73.8501580   2.5053330  67.9458270  75.0588400   1.7270100
  59.8226930  75.0174340   3.3249690  60.5037040  75.2812710   3.9437090
  59.5074980  74.1775210   3.6587700  64.0151500  76.0641700   2.4122280
  64.5229720  76.5622670   3.0527300  64.5464740  75.2876900   2.2361640
  76.1162430  74.2346890   6.1151630  75.4114600  74.6228600   5.5966740
  76.3820350  74.9297180   6.7172560  62.2987600  70.7040260   6.6785700
  62.3006040  71.2212650   5.8731600  61.4691910  70.2270440   6.6555630
  63.5490450  80.3435440   4.8559200  63.2159830  80.9704360   5.4980270
  63.7257130  80.8697320   4.0760870  72.0624360  74.1580520   2.3235540
  71.3579930  74.4465410   2.9038650  72.4236520  74.9680630   1.9635100
  61.9802930  72.4150220   4.6856150  62.3219740  73.2592270   4.3910020
  61.0418740  72.5633960   4.8021490  62.7609550  82.3116240   6.6708380
  63.3783550  82.9867320   6.3892830  61.9002670  82.7204220   6.5795880
  73.6787140  83.7755650   4.5863020  72.9950660  84.4454760   4.5779690
  74.2181430  83.9736300   3.8207880  75.1311280  73.6035310   2.7144750
  74.1836190  73.6374290   2.8460180  75.4561270  74.4174260   3.0994110
  71.2145880  85.6199780   3.3008200  71.2273040  85.2162070   2.4330460
  70.6621100  86.3947070   3.1969630  70.6131320  80.5229620   4.6290810
  71.0300110  80.3089730   3.7944270  71.3371140  80.7802410   5.1999430
  74.5593420  78.9216840   4.7207050  73.7312050  78.9909930   4.2457180
  75.1543900  79.5071150   4.2522880  71.5235430  75.7086160   5.6661920
  71.1106610  76.5339870   5.9201910  70.7911380  75.1231200   5.4738280
  64.1249920  82.1813620   2.6919800  63.8278210  81.5759090   2.0127580
  65.0749740  82.2190930   2.5809160  62.3696840  75.2689270   4.3079630
  62.9211430  75.3784610   3.5332880  62.8840350  75.6426870   5.0234860
  72.2135530  85.7545490   6.3542900  71.7366090  86.5617680   6.1615510
  71.5297320  85.1023820   6.5069110  63.2168350  81.9195310   9.3427600
  62.3196880  82.1435280   9.5901000  63.2421220  82.0430250   8.3939000
  62.0439570  78.7908630   7.9184970  61.9047340  79.6631430   8.2872370
  61.1620930  78.4481440   7.7732910  63.8419920  84.7330330  10.1270120
  63.8135350  85.1373280   9.2598550  63.6784890  83.8040690   9.9641720
  57.9958220  80.5606180   3.8355880  58.0738640  80.6954950   2.8911600
  58.6099900  79.8522070   4.0284000  75.1967990  82.7070280   8.5834300
  75.3231050  82.4682160   7.6651480  75.2389370  81.8754820   9.0556380
  69.0584730  86.4098280   7.1529110  69.5729400  86.3206290   7.9551540
  68.2153810  86.7557980   7.4457020  75.0492000  74.7602740   9.5484040
  74.4336270  75.2682410   9.0199500  74.7288420  73.8601070   9.4909980
  58.0517740  81.6020350   6.3750340  58.2148780  81.1325710   5.5569710
  58.5170190  81.0943910   7.0399180  67.1106320  73.5994630   7.0146230
  66.6485690  73.8077650   7.8266170  66.7084430  72.7853980   6.7116900
  72.1110830  74.8203580   8.1442890  71.2604420  74.5209330   8.4651960
  71.9512620  75.0645590   7.2326710  69.2060540  76.3205330  10.2441680
  69.5313950  75.4869080   9.9043910  69.9940870  76.8433850  10.3920010
  64.8612410  71.2773440   3.2700510  65.1584740  72.1836270   3.1892530
  65.4097970  70.7892220   2.6560080  65.0549940  76.7545260   9.8052430
  64.9593540  75.8139990   9.6552830  65.8981920  76.9760330   9.4100500
  60.1860480  73.1658930   7.9586210  59.7923870  74.0134140   8.1658990
  59.4978880  72.5285300   8.1494850  66.7605530  73.2493900  11.0282950
  66.0703850  73.0566100  11.6629040  67.5037830  73.5328540  11.5607250
  57.4877530  71.0887390   1.9916290  57.1990580  71.6590250   2.7041270
  58.2323290  70.6091840   2.3547520  69.0368500  77.0892340   3.8636870
  68.3049620  77.5979150   4.2126970  68.6392840  76.2722320   3.5625650
  65.4745890  73.7646540   2.2689360  65.4781950  73.3236490   1.4193900
  66.3697010  74.0863870   2.3761180  69.4994410  72.5426020   3.2759810
  69.5167150  72.9934670   4.1201660  69.2509990  71.6431660   3.4893250
  72.9265160  69.9558200   9.1146190  73.2510930  69.2247860   9.6404170
  72.9621670  69.6371840   8.2127180  59.6256720  80.9771780   8.5346150
  59.2411510  80.3365450   9.1329110  59.9368910  81.6807900   9.1040880
  65.7753860  77.8248320   4.0154770  66.1423990  77.3506890   4.7616110
  65.5858920  78.6989890   4.3563110  63.5653230  76.8656960   6.3338980
  63.2610300  77.7448940   6.5589340  64.5199690  76.9256750   6.3696420
  72.8523000  80.0683310   2.7232220  73.5722120  80.5638600   2.3328330
  72.6504820  79.3901200   2.0786090  68.2341800  80.1392370   8.6101220
  68.1679110  79.2188040   8.3558810  67.6046940  80.2367810   9.3245860
  59.6216960  77.7059700   7.4810340  59.2631900  78.3713550   8.0683680
  59.3271520  76.8743250   7.8522960  62.8230080  78.1643940  10.3649890
  62.5230220  78.3101120   9.4677710  63.5941320  77.6049230  10.2723280
  68.1658530  82.9612940   8.3605020  68.1803070  82.0293900   8.1423930
  67.4583630  83.0472700   8.9994790  74.3769740  79.6020280   7.7073600
  73.6517930  80.1949060   7.5102990  74.9045200  79.5943820   6.9086970
  67.5992430  84.6030510   5.4545520  68.2434650  84.8089890   6.1318940
  67.9621870  83.8418910   5.0016370  68.8724510  82.6062860   4.1722970
  69.5146740  81.9056020   4.2855140  69.3973860  83.3861300   3.9919860
  70.6462130  83.4057760   7.3759030  70.9818370  83.9924450   8.0536950
  69.7262470  83.2750470   7.6056820  58.1965530  71.1952940   8.1582440
  57.4824050  71.3949860   8.7635050  58.6160570  70.4192510   8.5297240
  58.4838120  85.1833200   9.1448970  58.5929240  84.2427940   9.0044360
  57.8318680  85.4487950   8.4962700  66.4750710  83.4549090  10.5447090
  66.1547580  82.7358330  11.0892780  65.8009070  84.1304160  10.6183150
  69.6904310  73.6875250   5.9083890  70.0585130  72.8670460   6.2363460
  68.8302510  73.7477140   6.3239540  66.6506300  76.3414840   6.1321860
  67.1491550  76.8160660   6.7973710  66.7929250  75.4178360   6.3391890
  73.8573160  72.5582800   6.9750250  73.3546760  73.2988200   7.3144060
  74.6729820  72.9466800   6.6587040  74.1520750  84.9724830   2.0965870
  74.2768170  85.7956000   2.5689680  75.0186310  84.7615560   1.7490020
  61.6238280  87.0656040   1.7683000  62.3600760  86.5171500   2.0391570
  62.0079200  87.9312050   1.6288990  60.6296560  86.2502110  10.9568580
  61.4309290  86.5714160  11.3703980  60.1148380  85.8897690  11.6788490
  69.4661190  82.3581980  10.9043990  68.8599350  82.3813580  10.1639740
  69.1615300  81.6265020  11.4411240  70.8961560  86.0862270   9.5153400
  71.8483310  86.0020290   9.4653640  70.7489780  86.7503980  10.1887190
  58.3494370  78.7375570   9.9004630  58.8533390  78.1582850  10.4720860
  57.6101790  79.0215800  10.4381000  65.4032310  80.1446560   9.4340150
  64.6377980  80.7131560   9.3494820  65.5848270  79.8522770   8.5408380
  72.5455660  81.8751890   9.9915170  73.2865130  82.2127650   9.4882630
  71.7828340  82.0443950   9.4384940  60.3817450  76.8805160  10.7954700
  60.4222790  76.5819030  11.7039930  61.2362950  77.2812770  10.6362220
  62.3223260  75.4597260   8.7629190  61.7919720  74.9688210   8.1352530
  62.9911330  75.8881460   8.2287120  71.2201320  79.9266720   8.5270380
  71.6342340  80.0811800   9.3760800  70.2852320  80.0521940   8.6896160
  71.6923490  77.2662880  10.5309530  72.2744260  76.5115200  10.4430010
  71.8685260  77.7970320   9.7541010  62.8095560  72.4259630   8.8426480
  62.7152430  71.8080380   8.1177350  62.2292950  73.1525920   8.6156390
  65.5757000  70.9832870   5.8753870  65.1274300  71.0057130   5.0299420
  64.9422200  70.5851890   6.4724170  65.9816550  79.8787200   6.4966310
  66.4004660  80.7219930   6.3242550  65.0625180  80.0159240   6.2673090
  68.3180450  77.6103380   7.8804150  68.4376660  77.0144520   8.6198990
  69.1774450  77.6473070   7.4605450  70.6568350  78.1640570   6.4566660
  70.1303570  78.6883190   5.8531800  70.9999690  78.7967960   7.0876390
  63.8323970  86.1840210   7.6124040  63.2945060  86.9086270   7.2932740
  64.0857930  85.7070550   6.8221380  65.0849220  74.1524730   9.1379970
  65.6748910  73.8440580   9.8257790  64.2669460  73.6804480   9.2939870
  69.9042650  73.7690540   9.3712990  69.2158170  73.1072080   9.3062980
  70.6248670  73.3228810   9.8161450  66.6886180  87.4191420   7.8710690
  66.6144880  88.3226560   8.1783060  65.7865020  87.1003320   7.8432760
  58.5803680  85.6136600   3.9125940  58.1434670  85.7937400   4.7450090
  59.1481360  86.3711220   3.7707660  74.2165860  85.1153600   8.2003250
  73.6167850  85.1746160   7.4567170  74.3459760  84.1758580   8.3300100
  72.9017500  81.8405580   6.2979410  72.0877340  82.2702740   6.5605200
  73.3091700  82.4523990   5.6848460  59.4504040  78.5109400   4.8118160
  59.8177080  78.4236800   5.6914180  58.8814860  77.7475950   4.7125020
  74.2507900  76.9793780   7.8248630  74.0193990  76.7506530   6.9246580
  74.5112450  77.8993330   7.7793520  59.0020040  75.4218490   8.7176580
  58.1076090  75.3885250   9.0570290  59.5417590  75.6205280   9.4827830
  72.6895970  72.2050210  10.6028330  73.5666150  72.2133610  10.9862330
  72.7016810  71.4681050   9.9920680  74.3148960  76.1419620   5.0135900
  73.3651670  76.1083160   5.1280890  74.4961970  77.0519730   4.7785670
  59.5059750  69.6966820   3.0659800  60.1535940  69.1464200   2.6254960
  59.9261590  69.9509970   3.8875610  73.4012090  69.8908180   6.4229440
  74.0384310  70.5042320   6.7888630  73.5486980  69.9268840   5.4778670
  59.2591750  69.8522490   5.8085120  58.9106570  70.3086310   6.5743300
  58.9279450  68.9579620   5.8907550  60.8656120  83.0242090   9.9738310
  60.8225750  82.6535000  10.8552770  60.9967130  83.9619660  10.1140130
  64.5662150  84.5801680   5.5748030  64.3253510  84.8476240   4.6878550
  65.5064790  84.7507410   5.6298890  66.7716570  71.0434370   9.3304540
  66.7105460  71.6356200  10.0799950  67.7116950  70.9360330   9.1854800
  69.4091130  70.7004430   8.9696830  70.0231540  71.0183720   8.3077910
  69.9540690  70.2153020   9.5892690  75.8266310  86.5996060   6.3758670
  75.3324590  86.9964930   5.6585800  75.2179600  85.9745270   6.7695950
  59.9312390  69.3798690   9.0835890  60.4795380  69.1986740   8.3202000
  59.9967700  68.5892800   9.6192200  60.7044150  85.9704340   7.0936090
  60.1104470  85.8389040   7.8326130  60.6967990  85.1342480   6.6278190
  70.1499170  69.2636570   5.2966120  69.2759010  69.5971680   5.0939050
  70.0409920  68.7909750   6.1217990  71.0571150  71.4707440   6.6807840
  70.7284510  70.6559200   6.3009570  72.0053450  71.4277250   6.5573530
  73.5105760  87.2419480   3.6545410  73.0508730  87.9935290   3.2803430
  72.8818220  86.5225950   3.5960210  60.3356380  83.3362720   6.0444130
  59.6090440  82.7168010   5.9770080  60.3965530  83.7303330   5.1742210
  63.9401480  85.5507720   2.8293540  64.4566500  84.9395080   2.3041800
  64.5898860  86.0536500   3.3204550  66.6796980  86.4416210   3.6562520
  66.9674790  86.1870510   2.7795530  67.1920200  85.8893570   4.2468090
  67.8973990  70.1806410   4.2359030  67.1145780  70.6551910   4.5155790
  67.6036920  69.2761240   4.1272210  72.4495060  70.8829510   2.2808120
  72.8903150  70.8274610   1.4329720  72.1802650  71.7987520   2.3518300
  66.7469340  87.3632310  11.0230720  67.6736650  87.1276580  11.0666680
  66.7319770  88.1904310  10.5416750  63.9332950  70.0277060  10.7872600
  63.6517220  70.5310660  10.0233420  64.3152650  69.2298810  10.4214730
  70.5348410  69.4430640  11.3653070  70.4213860  69.7625250  12.2604590
  71.3518150  69.8443150  11.0690350  73.3146900  86.5902170  10.8471760
  74.1072220  86.0951400  10.6397720  73.6080050  87.2692310  11.4547370
  69.4406560  58.6879620 150.6979220  69.3600610  57.7734230 150.4270930
  69.0270980  59.1846690 149.9918930  67.5724600  60.4658640 152.5788490
  66.7966700  59.9859080 152.8687060  68.2237530  59.7864290 152.4044650
  71.5932030  64.8718830 151.3587620  71.1313560  64.1006070 151.6874790
  72.4057580  64.8984900 151.8640070  59.9982380  55.7380340 147.2406640
  59.1099080  56.0796310 147.1386520  60.2823570  55.5380660 146.3487470
  57.9615390  58.3385990 153.1246340  58.5331500  57.5708190 153.1249980
  57.9616930  58.6374750 152.2152950  67.8195340  67.1576840 150.9791610
  67.2006780  67.6134340 150.4086050  68.6747120  67.3128300 150.5781310
  67.0133590  63.1415830 152.5858650  66.9441870  62.2005770 152.4247780
  67.7753450  63.2317240 153.1581220  68.0438760  55.9486210 152.8127580
  68.4203580  55.0758090 152.7001250  67.9458270  56.2844910 151.9218020
  62.1743770  54.3211840 148.2745020  62.2810520  55.2215570 148.5813780
  61.2636130  54.2729810 147.9839670  71.8262880  53.4436650 149.7455920
  72.6472500  52.9533220 149.7881400  71.8596960  54.0334310 150.4987760
  68.6858690  62.0416080 148.3723520  68.0675960  62.5065530 147.8086240
  69.1981940  62.7343560 148.7893030  72.0624360  55.3837030 152.5183460
  71.3579930  55.6721920 153.0986570  72.4236520  56.1937140 152.1583020
  58.0541890  62.7272610 145.7463150  57.6769870  63.2159710 145.0148050
  58.3114960  63.3997890 146.3769680  65.6630820  51.1289000 151.2048660
  65.9705800  50.5735890 150.4884160  64.7331520  51.2633460 151.0221650
  72.5091300  63.5672510 148.5846290  72.3987630  62.6246840 148.7095710
  72.5059550  63.9288150 149.4709050  68.0511580  59.1937830 147.9408780
  67.1240860  59.1275210 148.1697250  68.2036400  60.1317960 147.8264020
  68.0380660  55.4654830 144.9375940  67.0984330  55.6268790 145.0228400
  68.3563920  56.1840510 144.3911930  72.0808870  60.7558130 148.4444030
  71.4621290  60.4177680 147.7970330  72.0633320  60.1117890 149.1523220
  63.6568220  59.7202570 150.7228510  63.2525220  59.0079820 150.2274410
  63.7431340  59.3755810 151.6116550  64.1249920  63.4070130 152.8867720
  63.8278210  62.8015600 152.2075500  65.0749740  63.4447440 152.7757080
  70.2573570  59.9944940 145.4516780  70.6966850  59.1567370 145.3054600
  70.9701990  60.6274340 145.5380920  68.3668950  64.9341010 149.4198020
  68.8064860  65.6765340 149.0053410  68.3055840  65.1767580 150.3436980
  73.8390710  51.2487750 143.7657820  73.5263370  51.3414580 144.6656890
  74.6003180  51.8268780 143.7155250  60.3572850  58.6147550 148.2235160
  60.2370450  59.3409640 147.6116430  60.0473740  57.8450460 147.7463070
  59.2405850  63.4862880 150.4409980  58.8333930  63.6277470 149.5863580
  60.1318860  63.2023040 150.2381190  71.0339130  67.9210130 146.7761030
  70.8740270  67.6313070 147.6742860  70.8685840  67.1450260 146.2406260
  63.5127510  67.7008660 148.5532650  63.3369990  66.7844200 148.3400450
  62.6583250  68.0595950 148.7930450  70.7365260  65.4297690 145.3359030
  70.0430420  65.4274980 144.6761310  71.4788120  65.0057010 144.9053200
  70.3015190  67.0560400 149.4107520  70.7572140  66.2749780 149.7246140
  70.6407710  67.7667220 149.9548700  62.8236510  51.9582620 151.6058830
  62.3804660  52.7392160 151.2743350  63.3821500  52.2812510 152.3129770
  65.9395330  51.5793320 146.4864660  65.3149510  51.5753190 147.2117970
  65.8525450  50.7124280 146.0900630  62.6150730  57.0816190 149.3340080
  62.3891650  56.8653360 150.2386700  61.8343260  57.5144650 148.9886050
  69.8448490  57.0879560 147.9330730  69.2457380  57.8115360 147.7494350
  70.3928100  57.0256340 147.1507180  68.4513360  55.7243100 149.9634010
  68.8442930  56.0415300 149.1502700  68.8130210  54.8454980 150.0778530
  57.4877530  52.3143900 152.1864210  57.1990580  52.8846760 152.8989190
  58.2323290  51.8348350 152.5495440  57.6747760  56.2564020 143.3966930
  57.5922430  57.1994780 143.5381920  57.3230820  56.1138930 142.5179280
  65.4745890  54.9903050 152.4637280  65.4781950  54.5493000 151.6141820
  66.3697010  55.3120380 152.5709100  61.3248270  54.8729540 151.4231490
  60.9848320  55.3504770 152.1798540  60.5625590  54.4194660 151.0632590
  65.5366040  55.9915130 145.4544040  65.6578860  55.9501610 146.4029860
  65.1514550  56.8539280 145.2990770  64.5487540  58.3016270 144.8527340
  63.9804440  57.8534520 144.2263250  65.2576540  58.6609050 144.3192490
  58.6394350  53.7948520 150.3396160  58.3541270  53.4304190 151.1774780
  58.5773210  53.0628980 149.7259300  62.0935020  62.2974460 147.1253750
  61.3197280  61.7572080 146.9652470  62.8229650  61.7781070 146.7871510
  72.8523000  61.2939820 152.9180140  73.5722120  61.7895110 152.5276250
  72.6504820  60.6157710 152.2734010  68.3132940  52.6877780 147.0609530
  67.4997550  52.1890950 146.9854840  68.1194890  53.5276030 146.6445880
  71.0281330  57.0597430 145.3571690  71.9160950  57.3714660 145.1823030
  70.9986420  56.1869680 144.9652270  62.1372420  61.9654840 150.7632560
  62.6551090  61.1623100 150.7089450  61.6856440  61.9033980 151.6049390
  67.0241920  63.2321120 146.0359860  67.3657620  63.9763350 145.5403180
  66.1954630  63.5452240 146.3984690  73.2995600  58.3709270 144.8251550
  73.2159320  58.8023490 143.9747990  74.0189790  58.8307620 145.2578370
  74.3282850  65.2251530 147.5533680  73.6859010  64.5707150 147.8277400
  73.9413510  65.6306620 146.7774350  69.9069330  62.5536960 151.4005370
  70.2593150  61.9565090 150.7406740  69.0231660  62.2281190 151.5713620
  65.9932610  63.3134650 148.8075780  66.6803740  63.8603860 149.1883370
  65.2065030  63.8575380 148.8425390  58.1325010  58.9307470 144.2992860
  59.0019860  59.2132270 144.5828780  57.6415330  59.7443340 144.1841670
  65.2959820  60.3180680 148.4201140  65.7522600  61.1285930 148.6461330
  64.9448030  60.0003820 149.2519630  61.1971600  50.6618330 148.8923660
  61.0686230  50.6536230 149.8408580  60.3733620  51.0001420 148.5414670
  72.7180230  64.1167990 144.0910030  72.4917810  63.3998430 144.6834670
  72.3276430  63.8680430 143.2531780  58.4996260  68.1434850 144.8654490
  58.8593900  68.7424190 144.2111760  58.3588600  68.6894740 145.6389520
  72.2996480  62.0339930 145.7524190  72.0118180  62.4952620 146.5402070
  73.0948650  61.5737700 146.0208410  64.5164880  65.5266050 145.6828160
  64.5074980  66.2595740 145.0672670  63.5963240  65.2797630 145.7755120
  60.1171520  60.7480940 146.4274920  59.5099470  61.4879840 146.4370220
  60.5920870  60.8380300 145.6013120  73.0566340  53.8688700 146.9119370
  72.4279500  53.9734370 146.1977600  72.5618260  54.0885480 147.7013250
  67.5024480  65.5894290 144.3453350  67.6036460  65.3858280 143.4155330
  66.6026220  65.3352570 144.5501130  65.0250370  56.1474650 148.3277250
  64.3166520  56.6160990 148.7690860  65.3094850  55.4896660 148.9622440
  69.0565800  52.8725310 149.7673040  68.9333580  52.8911440 148.8182550
  70.0050360  52.9204250 149.8871440  66.1442590  68.1080610 149.0401020
  66.3984090  68.0702000 148.1180390  65.1955070  67.9813940 149.0329270
  63.2285390  54.4559730 145.7027960  64.0775920  54.8929880 145.6368150
  62.8616660  54.7679990 146.5300020  72.1495170  59.0272490 150.6159530
  71.2085310  59.0422720 150.7907220  72.4639240  58.2408450 151.0619830
  62.1276810  60.7092090 144.1763490  62.8940080  60.5973450 144.7388920
  62.2051500  60.0130060 143.5240260  60.8223570  58.1417160 144.8596380
  60.9027160  57.1944670 144.9713780  61.7143320  58.4724040 144.9657040
  74.1520750  66.1981340 152.2913790  74.2768170  67.0212510 152.7637600
  75.0186310  65.9872070 151.9437940  61.6238280  68.2912550 151.9630920
  62.3600760  67.7428010 152.2339490  62.0079200  69.1568560 151.8236910
  58.5083760  64.3586120 147.8372430  57.5823540  64.6007260 147.8277840
  58.9740190  65.1860380 147.7157180  64.7340590  67.4642860 143.7856490
  65.5269200  67.7531690 143.3338280  64.2144940  67.0335030 143.1068970
  73.7870760  66.6912990 145.2093230  73.5012270  66.2778130 144.3947410
  73.5890310  67.6200700 145.0893750  65.2517990  62.6846270 143.6498840
  65.1468630  62.0698620 144.3760220  65.0842210  62.1612160 142.8661850
  68.4920720  61.7466300 144.2540830  67.9430820  62.1935600 144.8983570
  69.1139980  61.2415550 144.7778500  64.1595840  60.7057220 146.1506130
  64.5812260  60.5397090 146.9937520  64.2846680  59.8957450 145.6561270
  66.6723480  59.7294830 143.3983230  67.1929140  59.0143850 143.0324380
  67.3191880  60.3680700 143.6983740  63.0554740  56.7790450 143.0964290
  62.8543800  55.9157810 143.4577630  62.8846790  56.6923810 142.1585890
  70.5343050  51.5898680 145.6251170  70.8145340  50.7466580 145.9810590
  69.7608780  51.8221790 146.1389920  61.8537540  53.8791070 143.0842170
  62.1563440  53.8858500 142.1761320  62.5932130  53.5288930 143.5809830
  65.0722470  52.8225690 144.0698370  64.7244470  52.1449680 143.4900820
  65.2735240  52.3615200 144.8841760  67.2371510  67.8106440 145.6884970
  68.1322300  68.1491410 145.7103730  67.2689140  67.0885850 145.0609250
  60.8767670  63.1833490 143.9171970  61.3142540  63.7263160 144.5729550
  61.3615400  62.3580440 143.9268310  58.0913470  65.9722520 151.3692230
  58.4216480  65.1043580 151.1370870  58.5204470  66.1781040 152.1997190
  62.6875390  64.3031530 149.0294200  62.3870930  64.1796500 149.9298110
  62.5812880  63.4440120 148.6209930  75.4567310  64.0827930 143.7320880
  74.6260270  64.1504580 144.2028110  75.6339140  64.9732050 143.4287740
  74.9123770  60.8275410 146.2355080  75.6742680  61.3972060 146.3414770
  74.9278140  60.2602610 147.0063390  58.4128110  59.3513340 150.4662740
  57.7576950  59.0824980 149.8222440  59.2506060  59.2417820 150.0164720
  75.9183740  61.6825510 151.0797010  76.2892570  60.8992830 150.6732980
  76.5585670  62.3714610 150.9014310  74.9642940  61.1209780 143.3927600
  75.2391780  62.0288660 143.2646820  74.7753680  61.0572310 144.3289590
  71.3618550  54.1454630 144.6881230  71.7803430  53.9585610 143.8477890
  71.0554610  53.2933680 144.9984160  74.8608280  59.0578770 148.3857030
  74.4851880  58.2906700 147.9538320  74.1311400  59.4401470 148.8731960
  57.6266190  56.5612270 146.4088070  56.7230270  56.8242470 146.2339730
  58.1106810  56.8323440 145.6288030  74.1359240  57.2836260 151.6864270
  74.6596720  56.7898910 151.0554440  74.7218660  57.4186620 152.4311840
  60.1693400  55.6177810 144.3182450  60.8785100  55.1961030 143.8329730
  59.4533340  55.6853040 143.6865800  59.8167560  51.6717140 143.3585100
  60.5395690  52.2126080 143.6766320  60.0892080  51.3980560 142.4826640
  73.6259210  56.5409610 147.6256680  74.1218330  56.3080480 148.4105560
  73.4275280  55.7021450 147.2094320  75.0546370  55.1770560 150.1594360
  74.9445650  55.0226600 151.0976630  75.8153960  54.6491500 149.9169770
  75.9436640  53.0078480 143.4000500  76.8685950  52.8759660 143.1918790
  75.9212430  53.0871300 144.3536950  76.0175130  53.7789140 146.0257210
  75.2226630  53.7134260 146.5550120  76.2218410  54.7139780 146.0142560
  72.9593550  67.8180690 150.0195600  73.5552620  67.4965260 149.3430020
  73.2171700  67.3452510 150.8108870  72.4495060  52.1086020 152.4756040
  72.8903150  52.0531120 151.6277640  72.1802650  53.0244030 152.5466220
  74.3133630  51.7401260 150.4864860  74.2522030  50.7962480 150.3395880
  75.0925660  51.8481350 151.0318320  58.6186380  67.8793620 149.4488810
  58.4508420  67.2464300 150.1470700  57.7520890  68.0853020 149.0983000
  59.2414400  51.7110400 146.9520670  59.9993760  51.8239280 146.3784700
  58.7791570  52.5479600 146.9064100  65.7828210  53.8249670 149.9422980
  64.9702720  53.4506560 149.6018860  66.2869850  53.0694750 150.2444170
  70.2853190  50.4892120 151.1806050  70.8882560  51.0612330 151.6554570
  69.5446180  51.0531560 150.9579950  73.4287790  50.8913680 146.4546330
  73.6238420  51.7897130 146.7213760  72.6417660  50.6600760 146.9479280
  60.2249080  66.5726850 146.8938950  59.6996700  66.9534880 146.1900910
  60.1493660  67.1977620 147.6148660  61.6139550  52.2374450 145.4922640
  62.1432310  51.4504250 145.3630590  62.2467870  52.9165640 145.7258170
  63.8077390  51.9749590 148.5468030  63.1780130  51.2736900 148.7138160
  63.2682530  52.7353720 148.3301190  74.9814400  68.1314390 148.2152890
  75.1566590  67.4452130 147.5713810  74.2835970  68.6561440 147.8229560
  62.8242050  68.5209230 145.7688200  63.5560870  68.2368510 145.2212090
  63.0835720  68.2822510 146.6587580  61.9856840  64.6373960 145.7734530
  61.3565720  65.1059060 146.3220360  62.1004670  63.7923180 146.2080720
  69.4406560  58.6879620 131.9235730  69.3600610  57.7734230 131.6527440
  69.0270980  59.1846690 131.2175440  67.5724600  60.4658640 133.8045000
  66.7966700  59.9859080 134.0943570  68.2237530  59.7864290 133.6301160
  61.5691690  64.8118540 134.8778780  61.8719730  63.9216280 134.6989000
  62.3135280  65.3688760 134.6501030  67.8195340  67.1576840 132.2048120
  67.2006780  67.6134340 131.6342560  68.6747120  67.3128300 131.8037820
  67.0133590  63.1415830 133.8115160  66.9441870  62.2005770 133.6504290
  67.7753450  63.2317240 134.3837730  59.2040260  53.7470350 136.1371780
  59.0243100  52.8496100 136.4174540  58.8020340  54.2942220 136.8118730
  68.0438760  55.9486210 134.0384090  68.4203580  55.0758090 133.9257760
  67.9458270  56.2844910 133.1474530  62.1743770  54.3211840 129.5001530
  62.2810520  55.2215570 129.8070290  61.2636130  54.2729810 129.2096180
  59.8226930  56.2430850 134.7454120  60.5037040  56.5069220 135.3641520
  59.5074980  55.4031720 135.0792130  64.0151500  57.2898210 133.8326710
  64.5229720  57.7879180 134.4731730  64.5464740  56.5133410 133.6566070
  76.1162430  55.4603400 137.5356060  75.4114600  55.8485110 137.0171170
  76.3820350  56.1553690 138.1376990  62.2987600  51.9296770 138.0990130
  62.3006040  52.4469160 137.2936030  61.4691910  51.4526950 138.0760060
  63.5490450  61.5691950 136.2763630  63.2159830  62.1960870 136.9184700
  63.7257130  62.0953830 135.4965300  61.9802930  53.6406730 136.1060580
  62.3219740  54.4848780 135.8114450  61.0418740  53.7890470 136.2225920
  62.7609550  63.5372750 138.0912810  63.3783550  64.2123830 137.8097260
  61.9002670  63.9460730 138.0000310  58.0541890  62.7272610 126.9719660
  57.6769870  63.2159710 126.2404560  58.3114960  63.3997890 127.6026190
  65.6630820  51.1289000 132.4305170  65.9705800  50.5735890 131.7140670
  64.7331520  51.2633460 132.2478160  68.0380660  55.4654830 126.1632450
  67.0984330  55.6268790 126.2484910  68.3563920  56.1840510 125.6168440
  71.5235430  56.9342670 137.0866350  71.1106610  57.7596380 137.3406340
  70.7911380  56.3487710 136.8942710  64.1249920  63.4070130 134.1124230
  63.8278210  62.8015600 133.4332010  65.0749740  63.4447440 134.0013590
  62.3696840  56.4945780 135.7284060  62.9211430  56.6041120 134.9537310
  62.8840350  56.8683380 136.4439290  63.2168350  63.1451820 140.7632030
  62.3196880  63.3691790 141.0105430  63.2421220  63.2686760 139.8143430
  62.0439570  60.0165140 139.3389400  61.9047340  60.8887940 139.7076800
  61.1620930  59.6737950 139.1937340  68.3668950  64.9341010 130.6454530
  68.8064860  65.6765340 130.2309920  68.3055840  65.1767580 131.5693490
  63.8419920  65.9586840 141.5474550  63.8135350  66.3629790 140.6802980
  63.6784890  65.0297200 141.3846150  73.8390710  51.2487750 124.9914330
  73.5263370  51.3414580 125.8913400  74.6003180  51.8268780 124.9411760
  75.7934740  66.7413940 142.8438720  76.2694460  67.2196830 143.5227800
  76.4141900  66.6731430 142.1184220  57.9958220  61.7862690 135.2560310
  58.0738640  61.9211460 134.3116030  58.6099900  61.0778580 135.4488430
  71.0339130  67.9210130 128.0017540  70.8740270  67.6313070 128.8999370
  70.8685840  67.1450260 127.4662770  63.5127510  67.7008660 129.7789160
  63.3369990  66.7844200 129.5656960  62.6583250  68.0595950 130.0186960
  70.7365260  65.4297690 126.5615540  70.0430420  65.4274980 125.9017820
  71.4788120  65.0057010 126.1309710  70.3015190  67.0560400 130.6364030
  70.7572140  66.2749780 130.9502650  70.6407710  67.7667220 131.1805210
  75.0492000  55.9859250 140.9688470  74.4336270  56.4938920 140.4403930
  74.7288420  55.0857580 140.9114410  58.0517740  62.8276860 137.7954770
  58.2148780  62.3582220 136.9774140  58.5170190  62.3200420 138.4603610
  62.8236510  51.9582620 132.8315340  62.3804660  52.7392160 132.4999860
  63.3821500  52.2812510 133.5386280  67.1106320  54.8251140 138.4350660
  66.6485690  55.0334160 139.2470600  66.7084430  54.0110490 138.1321330
  72.1110830  56.0460090 139.5647320  71.2604420  55.7465840 139.8856390
  71.9512620  56.2902100 138.6531140  69.2060540  57.5461840 141.6646110
  69.5313950  56.7125590 141.3248340  69.9940870  58.0690360 141.8124440
  65.9395330  51.5793320 127.7121170  65.3149510  51.5753190 128.4374480
  65.8525450  50.7124280 127.3157140  64.8612410  52.5029950 134.6904940
  65.1584740  53.4092780 134.6096960  65.4097970  52.0148730 134.0764510
  69.8448490  57.0879560 129.1587240  69.2457380  57.8115360 128.9750860
  70.3928100  57.0256340 128.3763690  65.0549940  57.9801770 141.2256860
  64.9593540  57.0396500 141.0757260  65.8981920  58.2016840 140.8304930
  68.4513360  55.7243100 131.1890520  68.8442930  56.0415300 130.3759210
  68.8130210  54.8454980 131.3035040  60.1860480  54.3915440 139.3790640
  59.7923870  55.2390650 139.5863420  59.4978880  53.7541810 139.5699280
  66.7605530  54.4750410 142.4487380  66.0703850  54.2822610 143.0833470
  67.5037830  54.7585050 142.9811680  57.4877530  52.3143900 133.4120720
  57.1990580  52.8846760 134.1245700  58.2323290  51.8348350 133.7751950
  57.6747760  56.2564020 124.6223440  57.5922430  57.1994780 124.7638430
  57.3230820  56.1138930 123.7435790  69.0368500  58.3148850 135.2841300
  68.3049620  58.8235660 135.6331400  68.6392840  57.4978830 134.9830080
  65.4745890  54.9903050 133.6893790  65.4781950  54.5493000 132.8398330
  66.3697010  55.3120380 133.7965610  61.3248270  54.8729540 132.6488000
  60.9848320  55.3504770 133.4055050  60.5625590  54.4194660 132.2889100
  65.5366040  55.9915130 126.6800550  65.6578860  55.9501610 127.6286370
  65.1514550  56.8539280 126.5247280  69.4994410  53.7682530 134.6964240
  69.5167150  54.2191180 135.5406090  69.2509990  52.8688170 134.9097680
  72.9265160  51.1814710 140.5350620  73.2510930  50.4504370 141.0608600
  72.9621670  50.8628350 139.6331610  59.6256720  62.2028290 139.9550580
  59.2411510  61.5621960 140.5533540  59.9368910  62.9064410 140.5245310
  65.7753860  59.0504830 135.4359200  66.1423990  58.5763400 136.1820540
  65.5858920  59.9246400 135.7767540  58.6394350  53.7948520 131.5652670
  58.3541270  53.4304190 132.4031290  58.5773210  53.0628980 130.9515810
  63.5653230  58.0913470 137.7543410  63.2610300  58.9705450 137.9793770
  64.5199690  58.1513260 137.7900850  68.3132940  52.6877780 128.2866040
  67.4997550  52.1890950 128.2111350  68.1194890  53.5276030 127.8702390
  68.2341800  61.3648880 140.0305650  68.1679110  60.4444550 139.7763240
  67.6046940  61.4624320 140.7450290  71.0281330  57.0597430 126.5828200
  71.9160950  57.3714660 126.4079540  70.9986420  56.1869680 126.1908780
  59.6216960  58.9316210 138.9014770  59.2631900  59.5970060 139.4888110
  59.3271520  58.0999760 139.2727390  62.8230080  59.3900450 141.7854320
  62.5230220  59.5357630 140.8882140  63.5941320  58.8305740 141.6927710
  68.1658530  64.1869450 139.7809450  68.1803070  63.2550410 139.5628360
  67.4583630  64.2729210 140.4199220  58.1325010  58.9307470 125.5249370
  59.0019860  59.2132270 125.8085290  57.6415330  59.7443340 125.4098180
  61.1971600  50.6618330 130.1180170  61.0686230  50.6536230 131.0665090
  60.3733620  51.0001420 129.7671180  68.8724510  63.8319370 135.5927400
  69.5146740  63.1312530 135.7059570  69.3973860  64.6117810 135.4124290
  58.1965530  52.4209450 139.5786870  57.4824050  52.6206370 140.1839480
  58.6160570  51.6449020 139.9501670  58.4838120  66.4089710 140.5653400
  58.5929240  65.4684450 140.4248790  57.8318680  66.6744460 139.9167130
  66.4750710  64.6805600 141.9651520  66.1547580  63.9614840 142.5097210
  65.8009070  65.3560670 142.0387580  69.6904310  54.9131760 137.3288320
  70.0585130  54.0926970 137.6567890  68.8302510  54.9733650 137.7443970
  73.0566340  53.8688700 128.1375880  72.4279500  53.9734370 127.4234110
  72.5618260  54.0885480 128.9269760  65.0250370  56.1474650 129.5533760
  64.3166520  56.6160990 129.9947370  65.3094850  55.4896660 130.1878950
  66.6506300  57.5671350 137.5526290  67.1491550  58.0417170 138.2178140
  66.7929250  56.6434870 137.7596320  69.0565800  52.8725310 130.9929550
  68.9333580  52.8911440 130.0439060  70.0050360  52.9204250 131.1127950
  66.1442590  68.1080610 130.2657530  66.3984090  68.0702000 129.3436900
  65.1955070  67.9813940 130.2585780  63.2285390  54.4559730 126.9284470
  64.0775920  54.8929880 126.8624660  62.8616660  54.7679990 127.7556530
  73.8573160  53.7839310 138.3954680  73.3546760  54.5244710 138.7348490
  74.6729820  54.1723310 138.0791470  62.1276810  60.7092090 125.4020000
  62.8940080  60.5973450 125.9645430  62.2051500  60.0130060 124.7496770
  60.8223570  58.1417160 126.0852890  60.9027160  57.1944670 126.1970290
  61.7143320  58.4724040 126.1913550  61.6238280  68.2912550 133.1887430
  62.3600760  67.7428010 133.4596000  62.0079200  69.1568560 133.0493420
  60.6296560  67.4758620 142.3773010  61.4309290  67.7970670 142.7908410
  60.1148380  67.1154200 143.0992920  64.7340590  67.4642860 125.0113000
  65.5269200  67.7531690 124.5594790  64.2144940  67.0335030 124.3325480
  69.4661190  63.5838490 142.3248420  68.8599350  63.6070090 141.5844170
  69.1615300  62.8521530 142.8615670  70.8961560  67.3118780 140.9357830
  71.8483310  67.2276800 140.8858070  70.7489780  67.9760490 141.6091620
  58.3494370  59.9632080 141.3209060  58.8533390  59.3839360 141.8925290
  57.6101790  60.2472310 141.8585430  65.4032310  61.3703070 140.8544580
  64.6377980  61.9388070 140.7699250  65.5848270  61.0779280 139.9612810
  60.3817450  58.1061670 142.2159130  60.4222790  57.8075540 143.1244360
  61.2362950  58.5069280 142.0566650  62.3223260  56.6853770 140.1833620
  61.7919720  56.1944720 139.5556960  62.9911330  57.1137970 139.6491550
  71.6923490  58.4919390 141.9513960  72.2744260  57.7371710 141.8634440
  71.8685260  59.0226830 141.1745440  62.8095560  53.6516140 140.2630910
  62.7152430  53.0336890 139.5381780  62.2292950  54.3782430 140.0360820
  65.5757000  52.2089380 137.2958300  65.1274300  52.2313640 136.4503850
  64.9422200  51.8108400 137.8928600  65.9816550  61.1043710 137.9170740
  66.4004660  61.9476440 137.7446980  65.0625180  61.2415750 137.6877520
  68.3180450  58.8359890 139.3008580  68.4376660  58.2401030 140.0403420
  69.1774450  58.8729580 138.8809880  63.0554740  56.7790450 124.3220800
  62.8543800  55.9157810 124.6834140  62.8846790  56.6923810 123.3842400
  63.8323970  67.4096720 139.0328470  63.2945060  68.1342780 138.7137170
  64.0857930  66.9327060 138.2425810  65.0849220  55.3781240 140.5584400
  65.6748910  55.0697090 141.2462220  64.2669460  54.9060990 140.7144300
  69.9042650  54.9947050 140.7917420  69.2158170  54.3328590 140.7267410
  70.6248670  54.5485320 141.2365880  70.5343050  51.5898680 126.8507680
  70.8145340  50.7466580 127.2067100  69.7608780  51.8221790 127.3646430
  61.8537540  53.8791070 124.3098680  62.1563440  53.8858500 123.4017830
  62.5932130  53.5288930 124.8066340  65.0722470  52.8225690 125.2954880
  64.7244470  52.1449680 124.7157330  65.2735240  52.3615200 126.1098270
  67.2371510  67.8106440 126.9141480  68.1322300  68.1491410 126.9360240
  67.2689140  67.0885850 126.2865760  58.0913470  65.9722520 132.5948740
  58.4216480  65.1043580 132.3627380  58.5204470  66.1781040 133.4253700
  71.3618550  54.1454630 125.9137740  71.7803430  53.9585610 125.0734400
  71.0554610  53.2933680 126.2240670  59.4504040  59.7365910 136.2322590
  59.8177080  59.6493310 137.1118610  58.8814860  58.9732460 136.1329450
  59.0020040  56.6475000 140.1381010  58.1076090  56.6141760 140.4774720
  59.5417590  56.8461790 140.9032260  72.6895970  53.4306720 142.0232760
  73.5666150  53.4390120 142.4066760  72.7016810  52.6937560 141.4125110
  57.6266190  56.5612270 127.6344580  56.7230270  56.8242470 127.4596240
  58.1106810  56.8323440 126.8544540  60.1693400  55.6177810 125.5438960
  60.8785100  55.1961030 125.0586240  59.4533340  55.6853040 124.9122310
  73.6259210  56.5409610 128.8513190  74.1218330  56.3080480 129.6362070
  73.4275280  55.7021450 128.4350830  59.5059750  50.9223330 134.4864230
  60.1535940  50.3720710 134.0459390  59.9261590  51.1766480 135.3080040
  75.0546370  55.1770560 131.3850870  74.9445650  55.0226600 132.3233140
  75.8153960  54.6491500 131.1426280  73.4012090  51.1164690 137.8433870
  74.0384310  51.7298830 138.2093060  73.5486980  51.1525350 136.8983100
  75.9436640  53.0078480 124.6257010  76.8685950  52.8759660 124.4175300
  75.9212430  53.0871300 125.5793460  59.2591750  51.0779000 137.2289550
  58.9106570  51.5342820 137.9947730  58.9279450  50.1836130 137.3111980
  60.8656120  64.2498600 141.3942740  60.8225750  63.8791510 142.2757200
  60.9967130  65.1876170 141.5344560  64.5662150  65.8058190 136.9952460
  64.3253510  66.0732750 136.1082980  65.5064790  65.9763920 137.0503320
  66.7716570  52.2690880 140.7508970  66.7105460  52.8612710 141.5004380
  67.7116950  52.1616840 140.6059230  69.4091130  51.9260940 140.3901260
  70.0231540  52.2440230 139.7282340  69.9540690  51.4409530 141.0097120
  75.8266310  67.8252570 137.7963100  75.3324590  68.2221440 137.0790230
  75.2179600  67.2001780 138.1900380  59.9312390  50.6055200 140.5040320
  60.4795380  50.4243250 139.7406430  59.9967700  49.8149310 141.0396630
  60.7044150  67.1960850 138.5140520  60.1104470  67.0645550 139.2530560
  60.6967990  66.3598990 138.0482620  70.1499170  50.4893080 136.7170550
  69.2759010  50.8228190 136.5143480  70.0409920  50.0166260 137.5422420
  71.0571150  52.6963950 138.1012270  70.7284510  51.8815710 137.7214000
  72.0053450  52.6533760 137.9777960  60.3356380  64.5619230 137.4648560
  59.6090440  63.9424520 137.3974510  60.3965530  64.9559840 136.5946640
  63.9401480  66.7764230 134.2497970  64.4566500  66.1651590 133.7246230
  64.5898860  67.2793010 134.7408980  67.8973990  51.4062920 135.6563460
  67.1145780  51.8808420 135.9360220  67.6036920  50.5017750 135.5476640
  59.2414400  51.7110400 128.1777180  59.9993760  51.8239280 127.6041210
  58.7791570  52.5479600 128.1320610  65.7828210  53.8249670 131.1679490
  64.9702720  53.4506560 130.8275370  66.2869850  53.0694750 131.4700680
  73.4287790  50.8913680 127.6802840  73.6238420  51.7897130 127.9470270
  72.6417660  50.6600760 128.1735790  63.8077390  51.9749590 129.7724540
  63.1780130  51.2736900 129.9394670  63.2682530  52.7353720 129.5557700
  66.7469340  68.5888820 142.4435150  67.6736650  68.3533090 142.4871110
  66.7319770  69.4160820 141.9621180  63.9332950  51.2533570 142.2077030
  63.6517220  51.7567170 141.4437850  64.3152650  50.4555320 141.8419160
  62.8242050  68.5209230 126.9944710  63.5560870  68.2368510 126.4468600
  63.0835720  68.2822510 127.8844090  70.5348410  50.6687150 142.7857500
  70.4213860  50.9881760 143.6809020  71.3518150  51.0699660 142.4894780
  73.3146900  67.8158680 142.2676190  74.1072220  67.3207910 142.0602150
  73.6080050  68.4948820 142.8751800  61.5691690  64.8118540 116.1035290
  61.8719730  63.9216280 115.9245510  62.3135280  65.3688760 115.8757540
  59.2040260  53.7470350 117.3628290  59.0243100  52.8496100 117.6431050
  58.8020340  54.2942220 118.0375240  62.1743770  54.3211840 110.7258040
  62.2810520  55.2215570 111.0326800  61.2636130  54.2729810 110.4352690
  71.8262880  53.4436650 112.1968940  72.6472500  52.9533220 112.2394420
  71.8596960  54.0334310 112.9500780  59.8226930  56.2430850 115.9710630
  60.5037040  56.5069220 116.5898030  59.5074980  55.4031720 116.3048640
  64.0151500  57.2898210 115.0583220  64.5229720  57.7879180 115.6988240
  64.5464740  56.5133410 114.8822580  62.2987600  51.9296770 119.3246640
  62.3006040  52.4469160 118.5192540  61.4691910  51.4526950 119.3016570
  63.5490450  61.5691950 117.5020140  63.2159830  62.1960870 118.1441210
  63.7257130  62.0953830 116.7221810  61.9802930  53.6406730 117.3317090
  62.3219740  54.4848780 117.0370960  61.0418740  53.7890470 117.4482430
  73.6787140  65.0012160 117.2323960  72.9950660  65.6711270 117.2240630
  74.2181430  65.1992810 116.4668820  75.1311280  54.8291820 115.3605690
  74.1836190  54.8630800 115.4921120  75.4561270  55.6430770 115.7455050
  65.6630820  51.1289000 113.6561680  65.9705800  50.5735890 112.9397180
  64.7331520  51.2633460 113.4734670  71.2145880  66.8456290 115.9469140
  71.2273040  66.4418580 115.0791400  70.6621100  67.6203580 115.8430570
  74.5593420  60.1473350 117.3667990  73.7312050  60.2166440 116.8918120
  75.1543900  60.7327660 116.8983820  71.5235430  56.9342670 118.3122860
  71.1106610  57.7596380 118.5662850  70.7911380  56.3487710 118.1199220
  62.3696840  56.4945780 116.9540570  62.9211430  56.6041120 116.1793820
  62.8840350  56.8683380 117.6695800  72.2135530  66.9802000 119.0003840
  71.7366090  67.7874190 118.8076450  71.5297320  66.3280330 119.1530050
  63.8419920  65.9586840 122.7731060  63.8135350  66.3629790 121.9059490
  63.6784890  65.0297200 122.6102660  73.8390710  51.2487750 106.2170840
  73.5263370  51.3414580 107.1169910  74.6003180  51.8268780 106.1668270
  69.0584730  67.6354790 119.7990050  69.5729400  67.5462800 120.6012480
  68.2153810  67.9814490 120.0917960  62.8236510  51.9582620 114.0571850
  62.3804660  52.7392160 113.7256370  63.3821500  52.2812510 114.7642790
  67.1106320  54.8251140 119.6607170  66.6485690  55.0334160 120.4727110
  66.7084430  54.0110490 119.3577840  69.2060540  57.5461840 122.8902620
  69.5313950  56.7125590 122.5504850  69.9940870  58.0690360 123.0380950
  65.9395330  51.5793320 108.9377680  65.3149510  51.5753190 109.6630990
  65.8525450  50.7124280 108.5413650  64.8612410  52.5029950 115.9161450
  65.1584740  53.4092780 115.8353470  65.4097970  52.0148730 115.3021020
  65.0549940  57.9801770 122.4513370  64.9593540  57.0396500 122.3013770
  65.8981920  58.2016840 122.0561440  60.1860480  54.3915440 120.6047150
  59.7923870  55.2390650 120.8119930  59.4978880  53.7541810 120.7955790
  66.7605530  54.4750410 123.6743890  66.0703850  54.2822610 124.3089980
  67.5037830  54.7585050 124.2068190  57.4877530  52.3143900 114.6377230
  57.1990580  52.8846760 115.3502210  58.2323290  51.8348350 115.0008460
  65.4745890  54.9903050 114.9150300  65.4781950  54.5493000 114.0654840
  66.3697010  55.3120380 115.0222120  61.3248270  54.8729540 113.8744510
  60.9848320  55.3504770 114.6311560  60.5625590  54.4194660 113.5145610
  69.4994410  53.7682530 115.9220750  69.5167150  54.2191180 116.7662600
  69.2509990  52.8688170 116.1354190  72.9265160  51.1814710 121.7607130
  73.2510930  50.4504370 122.2865110  72.9621670  50.8628350 120.8588120
  65.7753860  59.0504830 116.6615710  66.1423990  58.5763400 117.4077050
  65.5858920  59.9246400 117.0024050  58.6394350  53.7948520 112.7909180
  58.3541270  53.4304190 113.6287800  58.5773210  53.0628980 112.1772320
  63.5653230  58.0913470 118.9799920  63.2610300  58.9705450 119.2050280
  64.5199690  58.1513260 119.0157360  68.3132940  52.6877780 109.5122550
  67.4997550  52.1890950 109.4367860  68.1194890  53.5276030 109.0958900
  68.2341800  61.3648880 121.2562160  68.1679110  60.4444550 121.0019750
  67.6046940  61.4624320 121.9706800  59.6216960  58.9316210 120.1271280
  59.2631900  59.5970060 120.7144620  59.3271520  58.0999760 120.4983900
  68.1658530  64.1869450 121.0065960  68.1803070  63.2550410 120.7884870
  67.4583630  64.2729210 121.6455730  67.5992430  65.8287020 118.1006460
  68.2434650  66.0346400 118.7779880  67.9621870  65.0675420 117.6477310
  61.1971600  50.6618330 111.3436680  61.0686230  50.6536230 112.2921600
  60.3733620  51.0001420 110.9927690  70.6462130  64.6314270 120.0219970
  70.9818370  65.2180960 120.6997890  69.7262470  64.5006980 120.2517760
  58.1965530  52.4209450 120.8043380  57.4824050  52.6206370 121.4095990
  58.6160570  51.6449020 121.1758180  66.4750710  64.6805600 123.1908030
  66.1547580  63.9614840 123.7353720  65.8009070  65.3560670 123.2644090
  69.6904310  54.9131760 118.5544830  70.0585130  54.0926970 118.8824400
  68.8302510  54.9733650 118.9700480  66.6506300  57.5671350 118.7782800
  67.1491550  58.0417170 119.4434650  66.7929250  56.6434870 118.9852830
  69.0565800  52.8725310 112.2186060  68.9333580  52.8911440 111.2695570
  70.0050360  52.9204250 112.3384460  63.2285390  54.4559730 108.1540980
  64.0775920  54.8929880 108.0881170  62.8616660  54.7679990 108.9813040
  73.8573160  53.7839310 119.6211190  73.3546760  54.5244710 119.9605000
  74.6729820  54.1723310 119.3047980  69.4661190  63.5838490 123.5504930
  68.8599350  63.6070090 122.8100680  69.1615300  62.8521530 124.0872180
  70.8961560  67.3118780 122.1614340  71.8483310  67.2276800 122.1114580
  70.7489780  67.9760490 122.8348130  60.3817450  58.1061670 123.4415640
  60.4222790  57.8075540 124.3500870  61.2362950  58.5069280 123.2823160
  62.3223260  56.6853770 121.4090130  61.7919720  56.1944720 120.7813470
  62.9911330  57.1137970 120.8748060  71.6923490  58.4919390 123.1770470
  72.2744260  57.7371710 123.0890950  71.8685260  59.0226830 122.4001950
  62.8095560  53.6516140 121.4887420  62.7152430  53.0336890 120.7638290
  62.2292950  54.3782430 121.2617330  65.5757000  52.2089380 118.5214810
  65.1274300  52.2313640 117.6760360  64.9422200  51.8108400 119.1185110
  65.9816550  61.1043710 119.1427250  66.4004660  61.9476440 118.9703490
  65.0625180  61.2415750 118.9134030  68.3180450  58.8359890 120.5265090
  68.4376660  58.2401030 121.2659930  69.1774450  58.8729580 120.1066390
  70.6568350  59.3897080 119.1027600  70.1303570  59.9139700 118.4992740
  70.9999690  60.0224470 119.7337330  65.0849220  55.3781240 121.7840910
  65.6748910  55.0697090 122.4718730  64.2669460  54.9060990 121.9400810
  69.9042650  54.9947050 122.0173930  69.2158170  54.3328590 121.9523920
  70.6248670  54.5485320 122.4622390  70.5343050  51.5898680 108.0764190
  70.8145340  50.7466580 108.4323610  69.7608780  51.8221790 108.5902940
  66.6886180  68.6447930 120.5171630  66.6144880  69.5483070 120.8244000
  65.7865020  68.3259830 120.4893700  65.0722470  52.8225690 106.5211390
  64.7244470  52.1449680 105.9413840  65.2735240  52.3615200 107.3354780
  58.5803680  66.8393110 116.5586880  58.1434670  67.0193910 117.3911030
  59.1481360  67.5967730 116.4168600  74.2165860  66.3410110 120.8464190
  73.6167850  66.4002670 120.1028110  74.3459760  65.4015090 120.9761040
  75.9183740  61.6825510 113.5310030  76.2892570  60.8992830 113.1246000
  76.5585670  62.3714610 113.3527330  72.9017500  63.0662090 118.9440350
  72.0877340  63.4959250 119.2066140  73.3091700  63.6780500 118.3309400
  71.3618550  54.1454630 107.1394250  71.7803430  53.9585610 106.2990910
  71.0554610  53.2933680 107.4497180  59.0020040  56.6475000 121.3637520
  58.1076090  56.6141760 121.7031230  59.5417590  56.8461790 122.1288770
  72.6895970  53.4306720 123.2489270  73.5666150  53.4390120 123.6323270
  72.7016810  52.6937560 122.6381620  74.1359240  57.2836260 114.1377290
  74.6596720  56.7898910 113.5067460  74.7218660  57.4186620 114.8824860
  74.3148960  57.3676130 117.6596840  73.3651670  57.3339670 117.7741830
  74.4961970  58.2776240 117.4246610  73.6259210  56.5409610 110.0769700
  74.1218330  56.3080480 110.8618580  73.4275280  55.7021450 109.6607340
  59.5059750  50.9223330 115.7120740  60.1535940  50.3720710 115.2715900
  59.9261590  51.1766480 116.5336550  75.0546370  55.1770560 112.6107380
  74.9445650  55.0226600 113.5489650  75.8153960  54.6491500 112.3682790
  73.4012090  51.1164690 119.0690380  74.0384310  51.7298830 119.4349570
  73.5486980  51.1525350 118.1239610  75.9436640  53.0078480 105.8513520
  76.8685950  52.8759660 105.6431810  75.9212430  53.0871300 106.8049970
  59.2591750  51.0779000 118.4546060  58.9106570  51.5342820 119.2204240
  58.9279450  50.1836130 118.5368490  64.5662150  65.8058190 118.2208970
  64.3253510  66.0732750 117.3339490  65.5064790  65.9763920 118.2759830
  66.7716570  52.2690880 121.9765480  66.7105460  52.8612710 122.7260890
  67.7116950  52.1616840 121.8315740  69.4091130  51.9260940 121.6157770
  70.0231540  52.2440230 120.9538850  69.9540690  51.4409530 122.2353630
  75.8266310  67.8252570 119.0219610  75.3324590  68.2221440 118.3046740
  75.2179600  67.2001780 119.4156890  59.9312390  50.6055200 121.7296830
  60.4795380  50.4243250 120.9662940  59.9967700  49.8149310 122.2653140
  71.0571150  52.6963950 119.3268780  70.7284510  51.8815710 118.9470510
  72.0053450  52.6533760 119.2034470  73.5105760  68.4675990 116.3006350
  73.0508730  69.2191800 115.9264370  72.8818220  67.7482460 116.2421150
  60.3356380  64.5619230 118.6905070  59.6090440  63.9424520 118.6231020
  60.3965530  64.9559840 117.8203150  67.8973990  51.4062920 116.8819970
  67.1145780  51.8808420 117.1616730  67.6036920  50.5017750 116.7733150
  59.2414400  51.7110400 109.4033690  59.9993760  51.8239280 108.8297720
  58.7791570  52.5479600 109.3577120  65.7828210  53.8249670 112.3936000
  64.9702720  53.4506560 112.0531880  66.2869850  53.0694750 112.6957190
  63.8077390  51.9749590 110.9981050  63.1780130  51.2736900 111.1651180
  63.2682530  52.7353720 110.7814210  66.7469340  68.5888820 123.6691660
  67.6736650  68.3533090 123.7127620  66.7319770  69.4160820 123.1877690
  70.5348410  50.6687150 124.0114010  70.4213860  50.9881760 124.9065530
  71.3518150  51.0699660 123.7151290  59.9982380  55.7380340  90.9176170
  59.1099080  56.0796310  90.8156050  60.2823570  55.5380660  90.0257000
  57.9615390  58.3385990  96.8015870  58.5331500  57.5708190  96.8019510
  57.9616930  58.6374750  95.8922480  68.0438760  55.9486210  96.4897110
  68.4203580  55.0758090  96.3770780  67.9458270  56.2844910  95.5987550
  62.1743770  54.3211840  91.9514550  62.2810520  55.2215570  92.2583310
  61.2636130  54.2729810  91.6609200  71.8262880  53.4436650  93.4225450
  72.6472500  52.9533220  93.4650930  71.8596960  54.0334310  94.1757290
  59.8226930  56.2430850  97.1967140  60.5037040  56.5069220  97.8154540
  59.5074980  55.4031720  97.5305150  62.2987600  51.9296770 100.5503150
  62.3006040  52.4469160  99.7449050  61.4691910  51.4526950 100.5273080
  72.0624360  55.3837030  96.1952990  71.3579930  55.6721920  96.7756100
  72.4236520  56.1937140  95.8352550  61.9802930  53.6406730  98.5573600
  62.3219740  54.4848780  98.2627470  61.0418740  53.7890470  98.6738940
  75.0492000  55.9859250 103.4201490  74.4336270  56.4938920 102.8916950
  74.7288420  55.0857580 103.3627430  67.1106320  54.8251140 100.8863680
  66.6485690  55.0334160 101.6983620  66.7084430  54.0110490 100.5834350
  65.9395330  51.5793320  90.1634190  65.3149510  51.5753190  90.8887500
  65.8525450  50.7124280  89.7670160  64.8612410  52.5029950  97.1417960
  65.1584740  53.4092780  97.0609980  65.4097970  52.0148730  96.5277530
  62.6150730  57.0816190  93.0109610  62.3891650  56.8653360  93.9156230
  61.8343260  57.5144650  92.6655580  60.1860480  54.3915440 101.8303660
  59.7923870  55.2390650 102.0376440  59.4978880  53.7541810 102.0212300
  66.7605530  54.4750410 104.9000400  66.0703850  54.2822610 105.5346490
  67.5037830  54.7585050 105.4324700  57.6747760  56.2564020  87.0736460
  57.5922430  57.1994780  87.2151450  57.3230820  56.1138930  86.1948810
  65.5366040  55.9915130  89.1313570  65.6578860  55.9501610  90.0799390
  65.1514550  56.8539280  88.9760300  72.9265160  51.1814710 102.9863640
  73.2510930  50.4504370 103.5121620  72.9621670  50.8628350 102.0844630
  68.3132940  52.6877780  90.7379060  67.4997550  52.1890950  90.6624370
  68.1194890  53.5276030  90.3215410  58.1325010  58.9307470  87.9762390
  59.0019860  59.2132270  88.2598310  57.6415330  59.7443340  87.8611200
  58.1965530  52.4209450 102.0299890  57.4824050  52.6206370 102.6352500
  58.6160570  51.6449020 102.4014690  65.0250370  56.1474650  92.0046780
  64.3166520  56.6160990  92.4460390  65.3094850  55.4896660  92.6391970
  69.0565800  52.8725310  93.4442570  68.9333580  52.8911440  92.4952080
  70.0050360  52.9204250  93.5640970  63.2285390  54.4559730  89.3797490
  64.0775920  54.8929880  89.3137680  62.8616660  54.7679990  90.2069550
  73.8573160  53.7839310 100.8467700  73.3546760  54.5244710 101.1861510
  74.6729820  54.1723310 100.5304490  62.8095560  53.6516140 102.7143930
  62.7152430  53.0336890 101.9894800  62.2292950  54.3782430 102.4873840
  65.5757000  52.2089380  99.7471320  65.1274300  52.2313640  98.9016870
  64.9422200  51.8108400 100.3441620  63.0554740  56.7790450  86.7733820
  62.8543800  55.9157810  87.1347160  62.8846790  56.6923810  85.8355420
  65.0849220  55.3781240 103.0097420  65.6748910  55.0697090 103.6975240
  64.2669460  54.9060990 103.1657320  69.9042650  54.9947050 103.2430440
  69.2158170  54.3328590 103.1780430  70.6248670  54.5485320 103.6878900
  70.5343050  51.5898680  89.3020700  70.8145340  50.7466580  89.6580120
  69.7608780  51.8221790  89.8159450  61.8537540  53.8791070  86.7611700
  62.1563440  53.8858500  85.8530850  62.5932130  53.5288930  87.2579360
  65.0722470  52.8225690  87.7467900  64.7244470  52.1449680  87.1670350
  65.2735240  52.3615200  88.5611290  58.4128110  59.3513340  94.1432270
  57.7576950  59.0824980  93.4991970  59.2506060  59.2417820  93.6934250
  59.0020040  56.6475000 102.5894030  58.1076090  56.6141760 102.9287740
  59.5417590  56.8461790 103.3545280  72.6895970  53.4306720 104.4745780
  73.5666150  53.4390120 104.8579780  72.7016810  52.6937560 103.8638130
  57.6266190  56.5612270  90.0857600  56.7230270  56.8242470  89.9109260
  58.1106810  56.8323440  89.3057560  60.1693400  55.6177810  87.9951980
  60.8785100  55.1961030  87.5099260  59.4533340  55.6853040  87.3635330
  59.8167560  51.6717140  87.0354630  60.5395690  52.2126080  87.3535850
  60.0892080  51.3980560  86.1596170  75.0546370  55.1770560  93.8363890
  74.9445650  55.0226600  94.7746160  75.8153960  54.6491500  93.5939300
  66.7716570  52.2690880 103.2021990  66.7105460  52.8612710 103.9517400
  67.7116950  52.1616840 103.0572250  69.4091130  51.9260940 102.8414280
  70.0231540  52.2440230 102.1795360  69.9540690  51.4409530 103.4610140
  59.9312390  50.6055200 102.9553340  60.4795380  50.4243250 102.1919450
  59.9967700  49.8149310 103.4909650  74.3133630  51.7401260  94.1634390
  74.2522030  50.7962480  94.0165410  75.0925660  51.8481350  94.7087850
  65.7828210  53.8249670  93.6192510  64.9702720  53.4506560  93.2788390
  66.2869850  53.0694750  93.9213700  73.4287790  50.8913680  90.1315860
  73.6238420  51.7897130  90.3983290  72.6417660  50.6600760  90.6248810
  61.6139550  52.2374450  89.1692170  62.1432310  51.4504250  89.0400120
  62.2467870  52.9165640  89.4027700  61.5890430  60.7778450  78.3590290
  60.7575310  60.5227160  78.7586800  62.1971410  60.8489220  79.0948210
  61.5691690  64.8118540  78.5548310  61.8719730  63.9216280  78.3758530
  62.3135280  65.3688760  78.3270560  59.9982380  55.7380340  72.1432680
  59.1099080  56.0796310  72.0412560  60.2823570  55.5380660  71.2513510
  57.9615390  58.3385990  78.0272380  58.5331500  57.5708190  78.0276020
  57.9616930  58.6374750  77.1178990  59.2040260  53.7470350  79.8141310
  59.0243100  52.8496100  80.0944070  58.8020340  54.2942220  80.4888260
  62.1743770  54.3211840  73.1771060  62.2810520  55.2215570  73.4839820
  61.2636130  54.2729810  72.8865710  59.8226930  56.2430850  78.4223650
  60.5037040  56.5069220  79.0411050  59.5074980  55.4031720  78.7561660
  64.0151500  57.2898210  77.5096240  64.5229720  57.7879180  78.1501260
  64.5464740  56.5133410  77.3335600  62.2987600  51.9296770  81.7759660
  62.3006040  52.4469160  80.9705560  61.4691910  51.4526950  81.7529590
  61.9802930  53.6406730  79.7830110  62.3219740  54.4848780  79.4883980
  61.0418740  53.7890470  79.8995450  58.0541890  62.7272610  70.6489190
  57.6769870  63.2159710  69.9174090  58.3114960  63.3997890  71.2795720
  65.6630820  51.1289000  76.1074700  65.9705800  50.5735890  75.3910200
  64.7331520  51.2633460  75.9247690  62.3696840  56.4945780  79.4053590
  62.9211430  56.6041120  78.6306840  62.8840350  56.8683380  80.1208820
  62.0439570  60.0165140  83.0158930  61.9047340  60.8887940  83.3846330
  61.1620930  59.6737950  82.8706870  60.3572850  58.6147550  73.1261200
  60.2370450  59.3409640  72.5142470  60.0473740  57.8450460  72.6489110
  57.9958220  61.7862690  78.9329840  58.0738640  61.9211460  77.9885560
  58.6099900  61.0778580  79.1257960  59.2405850  63.4862880  75.3436020
  58.8333930  63.6277470  74.4889620  60.1318860  63.2023040  75.1407230
  63.5127510  67.7008660  73.4558690  63.3369990  66.7844200  73.2426490
  62.6583250  68.0595950  73.6956490  58.0517740  62.8276860  81.4724300
  58.2148780  62.3582220  80.6543670  58.5170190  62.3200420  82.1373140
  62.6150730  57.0816190  74.2366120  62.3891650  56.8653360  75.1412740
  61.8343260  57.5144650  73.8912090  65.0549940  57.9801770  84.9026390
  64.9593540  57.0396500  84.7526790  65.8981920  58.2016840  84.5074460
  60.1860480  54.3915440  83.0560170  59.7923870  55.2390650  83.2632950
  59.4978880  53.7541810  83.2468810  65.4745890  54.9903050  77.3663320
  65.4781950  54.5493000  76.5167860  66.3697010  55.3120380  77.4735140
  61.3248270  54.8729540  76.3257530  60.9848320  55.3504770  77.0824580
  60.5625590  54.4194660  75.9658630  59.6256720  62.2028290  83.6320110
  59.2411510  61.5621960  84.2303070  59.9368910  62.9064410  84.2014840
  63.5653230  58.0913470  81.4312940  63.2610300  58.9705450  81.6563300
  64.5199690  58.1513260  81.4670380  59.6216960  58.9316210  82.5784300
  59.2631900  59.5970060  83.1657640  59.3271520  58.0999760  82.9496920
  58.1325010  58.9307470  69.2018900  59.0019860  59.2132270  69.4854820
  57.6415330  59.7443340  69.0867710  58.4996260  68.1434850  69.7680530
  58.8593900  68.7424190  69.1137800  58.3588600  68.6894740  70.5415560
  58.1965530  52.4209450  83.2556400  57.4824050  52.6206370  83.8609010
  58.6160570  51.6449020  83.6271200  66.1442590  68.1080610  73.9427060
  66.3984090  68.0702000  73.0206430  65.1955070  67.9813940  73.9355310
  63.2285390  54.4559730  70.6054000  64.0775920  54.8929880  70.5394190
  62.8616660  54.7679990  71.4326060  60.8223570  58.1417160  69.7622420
  60.9027160  57.1944670  69.8739820  61.7143320  58.4724040  69.8683080
  61.6238280  68.2912550  76.8656960  62.3600760  67.7428010  77.1365530
  62.0079200  69.1568560  76.7262950  58.5083760  64.3586120  72.7398470
  57.5823540  64.6007260  72.7303880  58.9740190  65.1860380  72.6183220
  58.3494370  59.9632080  84.9978590  58.8533390  59.3839360  85.5694820
  57.6101790  60.2472310  85.5354960  60.3817450  58.1061670  85.8928660
  60.4222790  57.8075540  86.8013890  61.2362950  58.5069280  85.7336180
  62.3223260  56.6853770  83.8603150  61.7919720  56.1944720  83.2326490
  62.9911330  57.1137970  83.3261080  62.8095560  53.6516140  83.9400440
  62.7152430  53.0336890  83.2151310  62.2292950  54.3782430  83.7130350
  65.0849220  55.3781240  84.2353930  65.6748910  55.0697090  84.9231750
  64.2669460  54.9060990  84.3913830  61.8537540  53.8791070  67.9868210
  62.1563440  53.8858500  67.0787360  62.5932130  53.5288930  68.4835870
  60.8767670  63.1833490  68.8198010  61.3142540  63.7263160  69.4755590
  61.3615400  62.3580440  68.8294350  58.0913470  65.9722520  76.2718270
  58.4216480  65.1043580  76.0396910  58.5204470  66.1781040  77.1023230
  58.5803680  66.8393110  79.0099900  58.1434670  67.0193910  79.8424050
  59.1481360  67.5967730  78.8681620  58.4128110  59.3513340  75.3688780
  57.7576950  59.0824980  74.7248480  59.2506060  59.2417820  74.9190760
  59.4504040  59.7365910  79.9092120  59.8177080  59.6493310  80.7888140
  58.8814860  58.9732460  79.8098980  59.0020040  56.6475000  83.8150540
  58.1076090  56.6141760  84.1544250  59.5417590  56.8461790  84.5801790
  60.1693400  55.6177810  69.2208490  60.8785100  55.1961030  68.7355770
  59.4533340  55.6853040  68.5891840  59.8167560  51.6717140  68.2611140
  60.5395690  52.2126080  68.5792360  60.0892080  51.3980560  67.3852680
  59.9312390  50.6055200  84.1809850  60.4795380  50.4243250  83.4175960
  59.9967700  49.8149310  84.7166160  60.7044150  67.1960850  82.1910050
  60.1104470  67.0645550  82.9300090  60.6967990  66.3598990  81.7252150
  60.3356380  64.5619230  81.1418090  59.6090440  63.9424520  81.0744040
  60.3965530  64.9559840  80.2716170  58.6186380  67.8793620  74.3514850
  58.4508420  67.2464300  75.0496740  57.7520890  68.0853020  74.0009040
  60.2249080  66.5726850  71.7964990  59.6996700  66.9534880  71.0926950
  60.1493660  67.1977620  72.5174700  63.8077390  51.9749590  73.4494070
  63.1780130  51.2736900  73.6164200  63.2682530  52.7353720  73.2327230
  61.9856840  64.6373960  70.6760570  61.3565720  65.1059060  71.2246400
  62.1004670  63.7923180  71.1106760  70.5348410  50.6687150  86.4627030
  70.4213860  50.9881760  87.3578550  71.3518150  51.0699660  86.1664310
  61.5890430  60.7778450  59.5846800  60.7575310  60.5227160  59.9843310
  62.1971410  60.8489220  60.3204720  61.5691690  64.8118540  59.7804820
  61.8719730  63.9216280  59.6015040  62.3135280  65.3688760  59.5527070
  57.9615390  58.3385990  59.2528890  58.5331500  57.5708190  59.2532530
  57.9616930  58.6374750  58.3435500  63.5490450  61.5691950  61.1789670
  63.2159830  62.1960870  61.8210740  63.7257130  62.0953830  60.3991340
  58.0541890  62.7272610  51.8745700  57.6769870  63.2159710  51.1430600
  58.3114960  63.3997890  52.5052230  62.3696840  56.4945780  60.6310100
  62.9211430  56.6041120  59.8563350  62.8840350  56.8683380  61.3465330
  62.0439570  60.0165140  64.2415440  61.9047340  60.8887940  64.6102840
  61.1620930  59.6737950  64.0963380  57.9958220  61.7862690  60.1586350
  58.0738640  61.9211460  59.2142070  58.6099900  61.0778580  60.3514470
  59.2405850  63.4862880  56.5692530  58.8333930  63.6277470  55.7146130
  60.1318860  63.2023040  56.3663740  58.0517740  62.8276860  62.6980810
  58.2148780  62.3582220  61.8800180  58.5170190  62.3200420  63.3629650
  57.6747760  56.2564020  49.5249480  57.5922430  57.1994780  49.6664470
  57.3230820  56.1138930  48.6461830  59.6256720  62.2028290  64.8576620
  59.2411510  61.5621960  65.4559580  59.9368910  62.9064410  65.4271350
  63.5653230  58.0913470  62.6569450  63.2610300  58.9705450  62.8819810
  64.5199690  58.1513260  62.6926890  59.6216960  58.9316210  63.8040810
  59.2631900  59.5970060  64.3914150  59.3271520  58.0999760  64.1753430
  65.9932610  63.3134650  54.9358330  66.6803740  63.8603860  55.3165920
  65.2065030  63.8575380  54.9707940  58.1325010  58.9307470  50.4275410
  59.0019860  59.2132270  50.7111330  57.6415330  59.7443340  50.3124220
  58.4996260  68.1434850  50.9937040  58.8593900  68.7424190  50.3394310
  58.3588600  68.6894740  51.7672070  64.5164880  65.5266050  51.8110710
  64.5074980  66.2595740  51.1955220  63.5963240  65.2797630  51.9037670
  58.5083760  64.3586120  53.9654980  57.5823540  64.6007260  53.9560390
  58.9740190  65.1860380  53.8439730  64.7340590  67.4642860  49.9139040
  65.5269200  67.7531690  49.4620830  64.2144940  67.0335030  49.2351520
  58.3494370  59.9632080  66.2235100  58.8533390  59.3839360  66.7951330
  57.6101790  60.2472310  66.7611470  60.3817450  58.1061670  67.1185170
  60.4222790  57.8075540  68.0270400  61.2362950  58.5069280  66.9592690
  62.3223260  56.6853770  65.0859660  61.7919720  56.1944720  64.4583000
  62.9911330  57.1137970  64.5517590  61.8537540  53.8791070  49.2124720
  62.1563440  53.8858500  48.3043870  62.5932130  53.5288930  49.7092380
  58.0913470  65.9722520  57.4974780  58.4216480  65.1043580  57.2653420
  58.5204470  66.1781040  58.3279740  58.4128110  59.3513340  56.5945290
  57.7576950  59.0824980  55.9504990  59.2506060  59.2417820  56.1447270
  59.4504040  59.7365910  61.1348630  59.8177080  59.6493310  62.0144650
  58.8814860  58.9732460  61.0355490  59.0020040  56.6475000  65.0407050
  58.1076090  56.6141760  65.3800760  59.5417590  56.8461790  65.8058300
  57.6266190  56.5612270  52.5370620  56.7230270  56.8242470  52.3622280
  58.1106810  56.8323440  51.7570580  59.8167560  51.6717140  49.4867650
  60.5395690  52.2126080  49.8048870  60.0892080  51.3980560  48.6109190
  58.6186380  67.8793620  55.5771360  58.4508420  67.2464300  56.2753250
  57.7520890  68.0853020  55.2265550  60.2249080  66.5726850  53.0221500
  59.6996700  66.9534880  52.3183460  60.1493660  67.1977620  53.7431210
  62.8242050  68.5209230  51.8970750  63.5560870  68.2368510  51.3494640
  63.0835720  68.2822510  52.7870130  67.5724600  60.4658640  39.9327550
  66.7966700  59.9859080  40.2226120  68.2237530  59.7864290  39.7583710
  61.5890430  60.7778450  40.8103310  60.7575310  60.5227160  41.2099820
  62.1971410  60.8489220  41.5461230  61.5691690  64.8118540  41.0061330
  61.8719730  63.9216280  40.8271550  62.3135280  65.3688760  40.7783580
  67.8195340  67.1576840  38.3330670  67.2006780  67.6134340  37.7625110
  68.6747120  67.3128300  37.9320370  67.0133590  63.1415830  39.9397710
  66.9441870  62.2005770  39.7786840  67.7753450  63.2317240  40.5120280
  59.2040260  53.7470350  42.2654330  59.0243100  52.8496100  42.5457090
  58.8020340  54.2942220  42.9401280  68.0438760  55.9486210  40.1666640
  68.4203580  55.0758090  40.0540310  67.9458270  56.2844910  39.2757080
  59.8226930  56.2430850  40.8736670  60.5037040  56.5069220  41.4924070
  59.5074980  55.4031720  41.2074680  64.0151500  57.2898210  39.9609260
  64.5229720  57.7879180  40.6014280  64.5464740  56.5133410  39.7848620
  76.1162430  55.4603400  43.6638610  75.4114600  55.8485110  43.1453720
  76.3820350  56.1553690  44.2659540  62.2987600  51.9296770  44.2272680
  62.3006040  52.4469160  43.4218580  61.4691910  51.4526950  44.2042610
  63.5490450  61.5691950  42.4046180  63.2159830  62.1960870  43.0467250
  63.7257130  62.0953830  41.6247850  72.0624360  55.3837030  39.8722520
  71.3579930  55.6721920  40.4525630  72.4236520  56.1937140  39.5122080
  61.9802930  53.6406730  42.2343130  62.3219740  54.4848780  41.9397000
  61.0418740  53.7890470  42.3508470  62.7609550  63.5372750  44.2195360
  63.3783550  64.2123830  43.9379810  61.9002670  63.9460730  44.1282860
  58.0541890  62.7272610  33.1002210  57.6769870  63.2159710  32.3687110
  58.3114960  63.3997890  33.7308740  73.6787140  65.0012160  42.1350000
  72.9950660  65.6711270  42.1266670  74.2181430  65.1992810  41.3694860
  75.1311280  54.8291820  40.2631730  74.1836190  54.8630800  40.3947160
  75.4561270  55.6430770  40.6481090  65.6630820  51.1289000  38.5587720
  65.9705800  50.5735890  37.8423220  64.7331520  51.2633460  38.3760710
  71.2145880  66.8456290  40.8495180  71.2273040  66.4418580  39.9817440
  70.6621100  67.6203580  40.7456610  70.6131320  61.7486130  42.1777790
  71.0300110  61.5346240  41.3431250  71.3371140  62.0058920  42.7486410
  68.0380660  55.4654830  32.2915000  67.0984330  55.6268790  32.3767460
  68.3563920  56.1840510  31.7450990  74.5593420  60.1473350  42.2694030
  73.7312050  60.2166440  41.7944160  75.1543900  60.7327660  41.8009860
  72.0808870  60.7558130  35.7983090  71.4621290  60.4177680  35.1509390
  72.0633320  60.1117890  36.5062280  71.5235430  56.9342670  43.2148900
  71.1106610  57.7596380  43.4688890  70.7911380  56.3487710  43.0225260
  64.1249920  63.4070130  40.2406780  63.8278210  62.8015600  39.5614560
  65.0749740  63.4447440  40.1296140  62.3696840  56.4945780  41.8566610
  62.9211430  56.6041120  41.0819860  62.8840350  56.8683380  42.5721840
  63.2168350  63.1451820  46.8914580  62.3196880  63.3691790  47.1387980
  63.2421220  63.2686760  45.9425980  62.0439570  60.0165140  45.4671950
  61.9047340  60.8887940  45.8359350  61.1620930  59.6737950  45.3219890
  63.8419920  65.9586840  47.6757100  63.8135350  66.3629790  46.8085530
  63.6784890  65.0297200  47.5128700  73.8390710  51.2487750  31.1196880
  73.5263370  51.3414580  32.0195950  74.6003180  51.8268780  31.0694310
  59.2405850  63.4862880  37.7949040  58.8333930  63.6277470  36.9402640
  60.1318860  63.2023040  37.5920250  69.0584730  67.6354790  44.7016090
  69.5729400  67.5462800  45.5038520  68.2153810  67.9814490  44.9944000
  71.0339130  67.9210130  34.1300090  70.8740270  67.6313070  35.0281920
  70.8685840  67.1450260  33.5945320  63.5127510  67.7008660  35.9071710
  63.3369990  66.7844200  35.6939510  62.6583250  68.0595950  36.1469510
  70.7365260  65.4297690  32.6898090  70.0430420  65.4274980  32.0300370
  71.4788120  65.0057010  32.2592260  70.3015190  67.0560400  36.7646580
  70.7572140  66.2749780  37.0785200  70.6407710  67.7667220  37.3087760
  62.8236510  51.9582620  38.9597890  62.3804660  52.7392160  38.6282410
  63.3821500  52.2812510  39.6668830  67.1106320  54.8251140  44.5633210
  66.6485690  55.0334160  45.3753150  66.7084430  54.0110490  44.2603880
  72.1110830  56.0460090  45.6929870  71.2604420  55.7465840  46.0138940
  71.9512620  56.2902100  44.7813690  69.2060540  57.5461840  47.7928660
  69.5313950  56.7125590  47.4530890  69.9940870  58.0690360  47.9406990
  65.9395330  51.5793320  33.8403720  65.3149510  51.5753190  34.5657030
  65.8525450  50.7124280  33.4439690  64.8612410  52.5029950  40.8187490
  65.1584740  53.4092780  40.7379510  65.4097970  52.0148730  40.2047060
  62.6150730  57.0816190  36.6879140  62.3891650  56.8653360  37.5925760
  61.8343260  57.5144650  36.3425110  65.0549940  57.9801770  47.3539410
  64.9593540  57.0396500  47.2039810  65.8981920  58.2016840  46.9587480
  68.4513360  55.7243100  37.3173070  68.8442930  56.0415300  36.5041760
  68.8130210  54.8454980  37.4317590  60.1860480  54.3915440  45.5073190
  59.7923870  55.2390650  45.7145970  59.4978880  53.7541810  45.6981830
  66.7605530  54.4750410  48.5769930  66.0703850  54.2822610  49.2116020
  67.5037830  54.7585050  49.1094230  57.4877530  52.3143900  39.5403270
  57.1990580  52.8846760  40.2528250  58.2323290  51.8348350  39.9034500
  69.0368500  58.3148850  41.4123850  68.3049620  58.8235660  41.7613950
  68.6392840  57.4978830  41.1112630  65.4745890  54.9903050  39.8176340
  65.4781950  54.5493000  38.9680880  66.3697010  55.3120380  39.9248160
  65.5366040  55.9915130  32.8083100  65.6578860  55.9501610  33.7568920
  65.1514550  56.8539280  32.6529830  69.4994410  53.7682530  40.8246790
  69.5167150  54.2191180  41.6688640  69.2509990  52.8688170  41.0380230
  64.5487540  58.3016270  32.2066400  63.9804440  57.8534520  31.5802310
  65.2576540  58.6609050  31.6731550  72.9265160  51.1814710  46.6633170
  73.2510930  50.4504370  47.1891150  72.9621670  50.8628350  45.7614160
  65.7753860  59.0504830  41.5641750  66.1423990  58.5763400  42.3103090
  65.5858920  59.9246400  41.9050090  63.5653230  58.0913470  43.8825960
  63.2610300  58.9705450  44.1076320  64.5199690  58.1513260  43.9183400
  62.0935020  62.2974460  34.4792810  61.3197280  61.7572080  34.3191530
  62.8229650  61.7781070  34.1410570  68.2341800  61.3648880  46.1588200
  68.1679110  60.4444550  45.9045790  67.6046940  61.4624320  46.8732840
  71.0281330  57.0597430  32.7110750  71.9160950  57.3714660  32.5362090
  70.9986420  56.1869680  32.3191330  62.1372420  61.9654840  38.1171620
  62.6551090  61.1623100  38.0628510  61.6856440  61.9033980  38.9588450
  62.8230080  59.3900450  47.9136870  62.5230220  59.5357630  47.0164690
  63.5941320  58.8305740  47.8210260  68.1658530  64.1869450  45.9092000
  68.1803070  63.2550410  45.6910910  67.4583630  64.2729210  46.5481770
  73.2995600  58.3709270  32.1790610  73.2159320  58.8023490  31.3287050
  74.0189790  58.8307620  32.6117430  74.3769740  60.8276790  45.2560580
  73.6517930  61.4205570  45.0589970  74.9045200  60.8200330  44.4573950
  67.5992430  65.8287020  43.0032500  68.2434650  66.0346400  43.6805920
  67.9621870  65.0675420  42.5503350  68.8724510  63.8319370  41.7209950
  69.5146740  63.1312530  41.8342120  69.3973860  64.6117810  41.5406840
  72.7180230  64.1167990  31.4449090  72.4917810  63.3998430  32.0373730
  72.3276430  63.8680430  30.6070840  58.4996260  68.1434850  32.2193550
  58.8593900  68.7424190  31.5650820  58.3588600  68.6894740  32.9928580
  58.1965530  52.4209450  45.7069420  57.4824050  52.6206370  46.3122030
  58.6160570  51.6449020  46.0784220  72.2996480  62.0339930  33.1063250
  72.0118180  62.4952620  33.8941130  73.0948650  61.5737700  33.3747470
  58.4838120  66.4089710  46.6935950  58.5929240  65.4684450  46.5531340
  57.8318680  66.6744460  46.0449680  66.4750710  64.6805600  48.0934070
  66.1547580  63.9614840  48.6379760  65.8009070  65.3560670  48.1670130
  64.5164880  65.5266050  33.0367220  64.5074980  66.2595740  32.4211730
  63.5963240  65.2797630  33.1294180  60.1171520  60.7480940  33.7813980
  59.5099470  61.4879840  33.7909280  60.5920870  60.8380300  32.9552180
  69.6904310  54.9131760  43.4570870  70.0585130  54.0926970  43.7850440
  68.8302510  54.9733650  43.8726520  73.0566340  53.8688700  34.2658430
  72.4279500  53.9734370  33.5516660  72.5618260  54.0885480  35.0552310
  67.5024480  65.5894290  31.6992410  67.6036460  65.3858280  30.7694390
  66.6026220  65.3352570  31.9040190  65.0250370  56.1474650  35.6816310
  64.3166520  56.6160990  36.1229920  65.3094850  55.4896660  36.3161500
  66.6506300  57.5671350  43.6808840  67.1491550  58.0417170  44.3460690
  66.7929250  56.6434870  43.8878870  66.1442590  68.1080610  36.3940080
  66.3984090  68.0702000  35.4719450  65.1955070  67.9813940  36.3868330
  73.8573160  53.7839310  44.5237230  73.3546760  54.5244710  44.8631040
  74.6729820  54.1723310  44.2074020  72.1495170  59.0272490  37.9698590
  71.2085310  59.0422720  38.1446280  72.4639240  58.2408450  38.4158890
  62.1276810  60.7092090  31.5302550  62.8940080  60.5973450  32.0927980
  62.2051500  60.0130060  30.8779320  60.8223570  58.1417160  32.2135440
  60.9027160  57.1944670  32.3252840  61.7143320  58.4724040  32.3196100
  61.6238280  68.2912550  39.3169980  62.3600760  67.7428010  39.5878550
  62.0079200  69.1568560  39.1775970  58.5083760  64.3586120  35.1911490
  57.5823540  64.6007260  35.1816900  58.9740190  65.1860380  35.0696240
  60.6296560  67.4758620  48.5055560  61.4309290  67.7970670  48.9190960
  60.1148380  67.1154200  49.2275470  64.7340590  67.4642860  31.1395550
  65.5269200  67.7531690  30.6877340  64.2144940  67.0335030  30.4608030
  65.2517990  62.6846270  31.0037900  65.1468630  62.0698620  31.7299280
  65.0842210  62.1612160  30.2200910  65.4032310  61.3703070  46.9827130
  64.6377980  61.9388070  46.8981800  65.5848270  61.0779280  46.0895360
  68.4920720  61.7466300  31.6079890  67.9430820  62.1935600  32.2522630
  69.1139980  61.2415550  32.1317560  60.3817450  58.1061670  48.3441680
  60.4222790  57.8075540  49.2526910  61.2362950  58.5069280  48.1849200
  62.3223260  56.6853770  46.3116170  61.7919720  56.1944720  45.6839510
  62.9911330  57.1137970  45.7774100  66.6723480  59.7294830  30.7522290
  67.1929140  59.0143850  30.3863440  67.3191880  60.3680700  31.0522800
  71.2201320  61.1523230  46.0757360  71.6342340  61.3068310  46.9247780
  70.2852320  61.2778450  46.2383140  62.8095560  53.6516140  46.3913460
  62.7152430  53.0336890  45.6664330  62.2292950  54.3782430  46.1643370
  65.5757000  52.2089380  43.4240850  65.1274300  52.2313640  42.5786400
  64.9422200  51.8108400  44.0211150  65.9816550  61.1043710  44.0453290
  66.4004660  61.9476440  43.8729530  65.0625180  61.2415750  43.8160070
  68.3180450  58.8359890  45.4291130  68.4376660  58.2401030  46.1685970
  69.1774450  58.8729580  45.0092430  70.6568350  59.3897080  44.0053640
  70.1303570  59.9139700  43.4018780  70.9999690  60.0224470  44.6363370
  63.8323970  67.4096720  45.1611020  63.2945060  68.1342780  44.8419720
  64.0857930  66.9327060  44.3708360  65.0849220  55.3781240  46.6866950
  65.6748910  55.0697090  47.3744770  64.2669460  54.9060990  46.8426850
  69.9042650  54.9947050  46.9199970  69.2158170  54.3328590  46.8549960
  70.6248670  54.5485320  47.3648430  66.6886180  68.6447930  45.4197670
  66.6144880  69.5483070  45.7270040  65.7865020  68.3259830  45.3919740
  65.0722470  52.8225690  31.4237430  64.7244470  52.1449680  30.8439880
  65.2735240  52.3615200  32.2380820  67.2371510  67.8106440  33.0424030
  68.1322300  68.1491410  33.0642790  67.2689140  67.0885850  32.4148310
  60.8767670  63.1833490  31.2711030  61.3142540  63.7263160  31.9268610
  61.3615400  62.3580440  31.2807370  58.0913470  65.9722520  38.7231290
  58.4216480  65.1043580  38.4909930  58.5204470  66.1781040  39.5536250
  62.6875390  64.3031530  36.3833260  62.3870930  64.1796500  37.2837170
  62.5812880  63.4440120  35.9748990  75.4567310  64.0827930  31.0859940
  74.6260270  64.1504580  31.5567170  75.6339140  64.9732050  30.7826800
  74.9123770  60.8275410  33.5894140  75.6742680  61.3972060  33.6953830
  74.9278140  60.2602610  34.3602450  58.4128110  59.3513340  37.8201800
  57.7576950  59.0824980  37.1761500  59.2506060  59.2417820  37.3703780
  72.9017500  63.0662090  43.8466390  72.0877340  63.4959250  44.1092180
  73.3091700  63.6780500  43.2335440  74.9642940  61.1209780  30.7466660
  75.2391780  62.0288660  30.6185880  74.7753680  61.0572310  31.6828650
  74.2507900  58.2050290  45.3735610  74.0193990  57.9763040  44.4733560
  74.5112450  59.1249840  45.3280500  59.0020040  56.6475000  46.2663560
  58.1076090  56.6141760  46.6057270  59.5417590  56.8461790  47.0314810
  74.1359240  57.2836260  39.0403330  74.6596720  56.7898910  38.4093500
  74.7218660  57.4186620  39.7850900  74.3148960  57.3676130  42.5622880
  73.3651670  57.3339670  42.6767870  74.4961970  58.2776240  42.3272650
  59.5059750  50.9223330  40.6146780  60.1535940  50.3720710  40.1741940
  59.9261590  51.1766480  41.4362590  73.4012090  51.1164690  43.9716420
  74.0384310  51.7298830  44.3375610  73.5486980  51.1525350  43.0265650
  75.9436640  53.0078480  30.7539560  76.8685950  52.8759660  30.5457850
  75.9212430  53.0871300  31.7076010  76.0175130  53.7789140  33.3796270
  75.2226630  53.7134260  33.9089180  76.2218410  54.7139780  33.3681620
  59.2591750  51.0779000  43.3572100  58.9106570  51.5342820  44.1230280
  58.9279450  50.1836130  43.4394530  60.8656120  64.2498600  47.5225290
  60.8225750  63.8791510  48.4039750  60.9967130  65.1876170  47.6627110
  64.5662150  65.8058190  43.1235010  64.3253510  66.0732750  42.2365530
  65.5064790  65.9763920  43.1785870  66.7716570  52.2690880  46.8791520
  66.7105460  52.8612710  47.6286930  67.7116950  52.1616840  46.7341780
  69.4091130  51.9260940  46.5183810  70.0231540  52.2440230  45.8564890
  69.9540690  51.4409530  47.1379670  59.9312390  50.6055200  46.6322870
  60.4795380  50.4243250  45.8688980  59.9967700  49.8149310  47.1679180
  70.1499170  50.4893080  42.8453100  69.2759010  50.8228190  42.6426030
  70.0409920  50.0166260  43.6704970  71.0571150  52.6963950  44.2294820
  70.7284510  51.8815710  43.8496550  72.0053450  52.6533760  44.1060510
  60.3356380  64.5619230  43.5931110  59.6090440  63.9424520  43.5257060
  60.3965530  64.9559840  42.7229190  63.9401480  66.7764230  40.3780520
  64.4566500  66.1651590  39.8528780  64.5898860  67.2793010  40.8691530
  66.6796980  67.6672720  41.2049500  66.9674790  67.4127020  40.3282510
  67.1920200  67.1150080  41.7955070  67.8973990  51.4062920  41.7846010
  67.1145780  51.8808420  42.0642770  67.6036920  50.5017750  41.6759190
  72.4495060  52.1086020  39.8295100  72.8903150  52.0531120  38.9816700
  72.1802650  53.0244030  39.9005280  58.6186380  67.8793620  36.8027870
  58.4508420  67.2464300  37.5009760  57.7520890  68.0853020  36.4522060
  65.7828210  53.8249670  37.2962040  64.9702720  53.4506560  36.9557920
  66.2869850  53.0694750  37.5983230  70.2853190  50.4892120  38.5345110
  70.8882560  51.0612330  39.0093630  69.5446180  51.0531560  38.3119010
  73.4287790  50.8913680  33.8085390  73.6238420  51.7897130  34.0752820
  72.6417660  50.6600760  34.3018340  60.2249080  66.5726850  34.2478010
  59.6996700  66.9534880  33.5439970  60.1493660  67.1977620  34.9687720
  63.9332950  51.2533570  48.3359580  63.6517220  51.7567170  47.5720400
  64.3152650  50.4555320  47.9701710  62.8242050  68.5209230  33.1227260
  63.5560870  68.2368510  32.5751150  63.0835720  68.2822510  34.0126640
  61.9856840  64.6373960  33.1273590  61.3565720  65.1059060  33.6759420
  62.1004670  63.7923180  33.5619780  70.5348410  50.6687150  48.9140050
  70.4213860  50.9881760  49.8091570  71.3518150  51.0699660  48.6177330
  59.9982380  55.7380340  15.8202210  59.1099080  56.0796310  15.7182090
  60.2823570  55.5380660  14.9283040  67.0133590  63.1415830  21.1654220
  66.9441870  62.2005770  21.0043350  67.7753450  63.2317240  21.7376790
  62.1743770  54.3211840  16.8540590  62.2810520  55.2215570  17.1609350
  61.2636130  54.2729810  16.5635240  71.8262880  53.4436650  18.3251490
  72.6472500  52.9533220  18.3676970  71.8596960  54.0334310  19.0783330
  76.1162430  55.4603400  24.8895120  75.4114600  55.8485110  24.3710230
  76.3820350  56.1553690  25.4916050  68.6858690  62.0416080  16.9519090
  68.0675960  62.5065530  16.3881810  69.1981940  62.7343560  17.3688600
  62.7609550  63.5372750  25.4451870  63.3783550  64.2123830  25.1636320
  61.9002670  63.9460730  25.3539370  75.1311280  54.8291820  21.4888240
  74.1836190  54.8630800  21.6203670  75.4561270  55.6430770  21.8737600
  65.6630820  51.1289000  19.7844230  65.9705800  50.5735890  19.0679730
  64.7331520  51.2633460  19.6017220  68.0511580  59.1937830  16.5204350
  67.1240860  59.1275210  16.7492820  68.2036400  60.1317960  16.4059590
  68.0380660  55.4654830  13.5171510  67.0984330  55.6268790  13.6023970
  68.3563920  56.1840510  12.9707500  72.0808870  60.7558130  17.0239600
  71.4621290  60.4177680  16.3765900  72.0633320  60.1117890  17.7318790
  62.3696840  56.4945780  23.0823120  62.9211430  56.6041120  22.3076370
  62.8840350  56.8683380  23.7978350  72.2135530  66.9802000  25.1286390
  71.7366090  67.7874190  24.9359000  71.5297320  66.3280330  25.2812600
  63.2168350  63.1451820  28.1171090  62.3196880  63.3691790  28.3644490
  63.2421220  63.2686760  27.1682490  70.2573570  59.9944940  14.0312350
  70.6966850  59.1567370  13.8850170  70.9701990  60.6274340  14.1176490
  62.0439570  60.0165140  26.6928460  61.9047340  60.8887940  27.0615860
  61.1620930  59.6737950  26.5476400  68.3668950  64.9341010  17.9993590
  68.8064860  65.6765340  17.5848980  68.3055840  65.1767580  18.9232550
  63.8419920  65.9586840  28.9013610  63.8135350  66.3629790  28.0342040
  63.6784890  65.0297200  28.7385210  73.8390710  51.2487750  12.3453390
  73.5263370  51.3414580  13.2452460  74.6003180  51.8268780  12.2950820
  60.3572850  58.6147550  16.8030730  60.2370450  59.3409640  16.1912000
  60.0473740  57.8450460  16.3258640  75.7934740  66.7413940  30.1977780
  76.2694460  67.2196830  30.8766860  76.4141900  66.6731430  29.4723280
  69.0584730  67.6354790  25.9272600  69.5729400  67.5462800  26.7295030
  68.2153810  67.9814490  26.2200510  71.0339130  67.9210130  15.3556600
  70.8740270  67.6313070  16.2538430  70.8685840  67.1450260  14.8201830
  63.5127510  67.7008660  17.1328220  63.3369990  66.7844200  16.9196020
  62.6583250  68.0595950  17.3726020  70.7365260  65.4297690  13.9154600
  70.0430420  65.4274980  13.2556880  71.4788120  65.0057010  13.4848770
  75.0492000  55.9859250  28.3227530  74.4336270  56.4938920  27.7942990
  74.7288420  55.0857580  28.2653470  58.0517740  62.8276860  25.1493830
  58.2148780  62.3582220  24.3313200  58.5170190  62.3200420  25.8142670
  62.8236510  51.9582620  20.1854400  62.3804660  52.7392160  19.8538920
  63.3821500  52.2812510  20.8925340  67.1106320  54.8251140  25.7889720
  66.6485690  55.0334160  26.6009660  66.7084430  54.0110490  25.4860390
  69.2060540  57.5461840  29.0185170  69.5313950  56.7125590  28.6787400
  69.9940870  58.0690360  29.1663500  65.9395330  51.5793320  15.0660230
  65.3149510  51.5753190  15.7913540  65.8525450  50.7124280  14.6696200
  64.8612410  52.5029950  22.0444000  65.1584740  53.4092780  21.9636020
  65.4097970  52.0148730  21.4303570  62.6150730  57.0816190  17.9135650
  62.3891650  56.8653360  18.8182270  61.8343260  57.5144650  17.5681620
  69.8448490  57.0879560  16.5126300  69.2457380  57.8115360  16.3289920
  70.3928100  57.0256340  15.7302750  65.0549940  57.9801770  28.5795920
  64.9593540  57.0396500  28.4296320  65.8981920  58.2016840  28.1843990
  68.4513360  55.7243100  18.5429580  68.8442930  56.0415300  17.7298270
  68.8130210  54.8454980  18.6574100  66.7605530  54.4750410  29.8026440
  66.0703850  54.2822610  30.4372530  67.5037830  54.7585050  30.3350740
  57.6747760  56.2564020  11.9762500  57.5922430  57.1994780  12.1177490
  57.3230820  56.1138930  11.0974850  65.4745890  54.9903050  21.0432850
  65.4781950  54.5493000  20.1937390  66.3697010  55.3120380  21.1504670
  61.3248270  54.8729540  20.0027060  60.9848320  55.3504770  20.7594110
  60.5625590  54.4194660  19.6428160  65.5366040  55.9915130  14.0339610
  65.6578860  55.9501610  14.9825430  65.1514550  56.8539280  13.8786340
  69.4994410  53.7682530  22.0503300  69.5167150  54.2191180  22.8945150
  69.2509990  52.8688170  22.2636740  64.5487540  58.3016270  13.4322910
  63.9804440  57.8534520  12.8058820  65.2576540  58.6609050  12.8988060
  72.9265160  51.1814710  27.8889680  73.2510930  50.4504370  28.4147660
  72.9621670  50.8628350  26.9870670  59.6256720  62.2028290  27.3089640
  59.2411510  61.5621960  27.9072600  59.9368910  62.9064410  27.8784370
  63.5653230  58.0913470  25.1082470  63.2610300  58.9705450  25.3332830
  64.5199690  58.1513260  25.1439910  68.3132940  52.6877780  15.6405100
  67.4997550  52.1890950  15.5650410  68.1194890  53.5276030  15.2241450
  68.2341800  61.3648880  27.3844710  68.1679110  60.4444550  27.1302300
  67.6046940  61.4624320  28.0989350  71.0281330  57.0597430  13.9367260
  71.9160950  57.3714660  13.7618600  70.9986420  56.1869680  13.5447840
  67.0241920  63.2321120  14.6155430  67.3657620  63.9763350  14.1198750
  66.1954630  63.5452240  14.9780260  59.6216960  58.9316210  26.2553830
  59.2631900  59.5970060  26.8427170  59.3271520  58.0999760  26.6266450
  62.8230080  59.3900450  29.1393380  62.5230220  59.5357630  28.2421200
  63.5941320  58.8305740  29.0466770  68.1658530  64.1869450  27.1348510
  68.1803070  63.2550410  26.9167420  67.4583630  64.2729210  27.7738280
  73.2995600  58.3709270  13.4047120  73.2159320  58.8023490  12.5543560
  74.0189790  58.8307620  13.8373940  74.3282850  65.2251530  16.1329250
  73.6859010  64.5707150  16.4072970  73.9413510  65.6306620  15.3569920
  69.9069330  62.5536960  19.9800940  70.2593150  61.9565090  19.3202310
  69.0231660  62.2281190  20.1509190  65.9932610  63.3134650  17.3871350
  66.6803740  63.8603860  17.7678940  65.2065030  63.8575380  17.4220960
  58.1325010  58.9307470  12.8788430  59.0019860  59.2132270  13.1624350
  57.6415330  59.7443340  12.7637240  65.2959820  60.3180680  16.9996710
  65.7522600  61.1285930  17.2256900  64.9448030  60.0003820  17.8315200
  61.1971600  50.6618330  17.4719230  61.0686230  50.6536230  18.4204150
  60.3733620  51.0001420  17.1210240  72.7180230  64.1167990  12.6705600
  72.4917810  63.3998430  13.2630240  72.3276430  63.8680430  11.8327350
  70.6462130  64.6314270  26.1502520  70.9818370  65.2180960  26.8280440
  69.7262470  64.5006980  26.3800310  58.4996260  68.1434850  13.4450060
  58.8593900  68.7424190  12.7907330  58.3588600  68.6894740  14.2185090
  72.2996480  62.0339930  14.3319760  72.0118180  62.4952620  15.1197640
  73.0948650  61.5737700  14.6003980  66.4750710  64.6805600  29.3190580
  66.1547580  63.9614840  29.8636270  65.8009070  65.3560670  29.3926640
  64.5164880  65.5266050  14.2623730  64.5074980  66.2595740  13.6468240
  63.5963240  65.2797630  14.3550690  60.1171520  60.7480940  15.0070490
  59.5099470  61.4879840  15.0165790  60.5920870  60.8380300  14.1808690
  73.0566340  53.8688700  15.4914940  72.4279500  53.9734370  14.7773170
  72.5618260  54.0885480  16.2808820  67.5024480  65.5894290  12.9248920
  67.6036460  65.3858280  11.9950900  66.6026220  65.3352570  13.1296700
  65.0250370  56.1474650  16.9072820  64.3166520  56.6160990  17.3486430
  65.3094850  55.4896660  17.5418010  69.0565800  52.8725310  18.3468610
  68.9333580  52.8911440  17.3978120  70.0050360  52.9204250  18.4667010
  63.2285390  54.4559730  14.2823530  64.0775920  54.8929880  14.2163720
  62.8616660  54.7679990  15.1095590  62.1276810  60.7092090  12.7559060
  62.8940080  60.5973450  13.3184490  62.2051500  60.0130060  12.1035830
  60.8223570  58.1417160  13.4391950  60.9027160  57.1944670  13.5509350
  61.7143320  58.4724040  13.5452610  60.6296560  67.4758620  29.7312070
  61.4309290  67.7970670  30.1447470  60.1148380  67.1154200  30.4531980
  64.7340590  67.4642860  12.3652060  65.5269200  67.7531690  11.9133850
  64.2144940  67.0335030  11.6864540  69.4661190  63.5838490  29.6787480
  68.8599350  63.6070090  28.9383230  69.1615300  62.8521530  30.2154730
  70.8961560  67.3118780  28.2896890  71.8483310  67.2276800  28.2397130
  70.7489780  67.9760490  28.9630680  73.7870760  66.6912990  13.7888800
  73.5012270  66.2778130  12.9742980  73.5890310  67.6200700  13.6689320
  58.3494370  59.9632080  28.6748120  58.8533390  59.3839360  29.2464350
  57.6101790  60.2472310  29.2124490  65.2517990  62.6846270  12.2294410
  65.1468630  62.0698620  12.9555790  65.0842210  62.1612160  11.4457420
  65.4032310  61.3703070  28.2083640  64.6377980  61.9388070  28.1238310
  65.5848270  61.0779280  27.3151870  68.4920720  61.7466300  12.8336400
  67.9430820  62.1935600  13.4779140  69.1139980  61.2415550  13.3574070
  72.5455660  63.1008400  28.7658660  73.2865130  63.4384160  28.2626120
  71.7828340  63.2700460  28.2128430  64.1595840  60.7057220  14.7301700
  64.5812260  60.5397090  15.5733090  64.2846680  59.8957450  14.2356840
  66.6723480  59.7294830  11.9778800  67.1929140  59.0143850  11.6119950
  67.3191880  60.3680700  12.2779310  71.2201320  61.1523230  27.3013870
  71.6342340  61.3068310  28.1504290  70.2852320  61.2778450  27.4639650
  71.6923490  58.4919390  29.3053020  72.2744260  57.7371710  29.2173500
  71.8685260  59.0226830  28.5284500  62.8095560  53.6516140  27.6169970
  62.7152430  53.0336890  26.8920840  62.2292950  54.3782430  27.3899880
  65.5757000  52.2089380  24.6497360  65.1274300  52.2313640  23.8042910
  64.9422200  51.8108400  25.2467660  65.9816550  61.1043710  25.2709800
  66.4004660  61.9476440  25.0986040  65.0625180  61.2415750  25.0416580
  63.0554740  56.7790450  11.6759860  62.8543800  55.9157810  12.0373200
  62.8846790  56.6923810  10.7381460  65.0849220  55.3781240  27.9123460
  65.6748910  55.0697090  28.6001280  64.2669460  54.9060990  28.0683360
  69.9042650  54.9947050  28.1456480  69.2158170  54.3328590  28.0806470
  70.6248670  54.5485320  28.5904940  70.5343050  51.5898680  14.2046740
  70.8145340  50.7466580  14.5606160  69.7608780  51.8221790  14.7185490
  61.8537540  53.8791070  11.6637740  62.1563440  53.8858500  10.7556890
  62.5932130  53.5288930  12.1605400  66.6886180  68.6447930  26.6454180
  66.6144880  69.5483070  26.9526550  65.7865020  68.3259830  26.6176250
  65.0722470  52.8225690  12.6493940  64.7244470  52.1449680  12.0696390
  65.2735240  52.3615200  13.4637330  67.2371510  67.8106440  14.2680540
  68.1322300  68.1491410  14.2899300  67.2689140  67.0885850  13.6404820
  60.8767670  63.1833490  12.4967540  61.3142540  63.7263160  13.1525120
  61.3615400  62.3580440  12.5063880  74.2165860  66.3410110  26.9746740
  73.6167850  66.4002670  26.2310660  74.3459760  65.4015090  27.1043590
  75.4567310  64.0827930  12.3116450  74.6260270  64.1504580  12.7823680
  75.6339140  64.9732050  12.0083310  75.9183740  61.6825510  19.6592580
  76.2892570  60.8992830  19.2528550  76.5585670  62.3714610  19.4809880
  74.9642940  61.1209780  11.9723170  75.2391780  62.0288660  11.8442390
  74.7753680  61.0572310  12.9085160  71.3618550  54.1454630  13.2676800
  71.7803430  53.9585610  12.4273460  71.0554610  53.2933680  13.5779730
  74.2507900  58.2050290  26.5992120  74.0193990  57.9763040  25.6990070
  74.5112450  59.1249840  26.5537010  57.6266190  56.5612270  14.9883640
  56.7230270  56.8242470  14.8135300  58.1106810  56.8323440  14.2083600
  74.3148960  57.3676130  23.7879390  73.3651670  57.3339670  23.9024380
  74.4961970  58.2776240  23.5529160  60.1693400  55.6177810  12.8978020
  60.8785100  55.1961030  12.4125300  59.4533340  55.6853040  12.2661370
  59.8167560  51.6717140  11.9380670  60.5395690  52.2126080  12.2561890
  60.0892080  51.3980560  11.0622210  73.6259210  56.5409610  16.2052250
  74.1218330  56.3080480  16.9901130  73.4275280  55.7021450  15.7889890
  75.0546370  55.1770560  18.7389930  74.9445650  55.0226600  19.6772200
  75.8153960  54.6491500  18.4965340  73.4012090  51.1164690  25.1972930
  74.0384310  51.7298830  25.5632120  73.5486980  51.1525350  24.2522160
  75.9436640  53.0078480  11.9796070  76.8685950  52.8759660  11.7714360
  75.9212430  53.0871300  12.9332520  76.0175130  53.7789140  14.6052780
  75.2226630  53.7134260  15.1345690  76.2218410  54.7139780  14.5938130
  60.8656120  64.2498600  28.7481800  60.8225750  63.8791510  29.6296260
  60.9967130  65.1876170  28.8883620  66.7716570  52.2690880  28.1048030
  66.7105460  52.8612710  28.8543440  67.7116950  52.1616840  27.9598290
  75.8266310  67.8252570  25.1502160  75.3324590  68.2221440  24.4329290
  75.2179600  67.2001780  25.5439440  70.1499170  50.4893080  24.0709610
  69.2759010  50.8228190  23.8682540  70.0409920  50.0166260  24.8961480
  67.8973990  51.4062920  23.0102520  67.1145780  51.8808420  23.2899280
  67.6036920  50.5017750  22.9015700  72.4495060  52.1086020  21.0551610
  72.8903150  52.0531120  20.2073210  72.1802650  53.0244030  21.1261790
  74.3133630  51.7401260  19.0660430  74.2522030  50.7962480  18.9191450
  75.0925660  51.8481350  19.6113890  59.2414400  51.7110400  15.5316240
  59.9993760  51.8239280  14.9580270  58.7791570  52.5479600  15.4859670
  65.7828210  53.8249670  18.5218550  64.9702720  53.4506560  18.1814430
  66.2869850  53.0694750  18.8239740  70.2853190  50.4892120  19.7601620
  70.8882560  51.0612330  20.2350140  69.5446180  51.0531560  19.5375520
  73.4287790  50.8913680  15.0341900  73.6238420  51.7897130  15.3009330
  72.6417660  50.6600760  15.5274850  61.6139550  52.2374450  14.0718210
  62.1432310  51.4504250  13.9426160  62.2467870  52.9165640  14.3053740
  63.8077390  51.9749590  17.1263600  63.1780130  51.2736900  17.2933730
  63.2682530  52.7353720  16.9096760  66.7469340  68.5888820  29.7974210
  67.6736650  68.3533090  29.8410170  66.7319770  69.4160820  29.3160240
  63.9332950  51.2533570  29.5616090  63.6517220  51.7567170  28.7976910
  64.3152650  50.4555320  29.1958220  62.8242050  68.5209230  14.3483770
  63.5560870  68.2368510  13.8007660  63.0835720  68.2822510  15.2383150
  73.3146900  67.8158680  29.6215250  74.1072220  67.3207910  29.4141210
  73.6080050  68.4948820  30.2290860  67.5724600  60.4658640   2.3840570
  66.7966700  59.9859080   2.6739140  68.2237530  59.7864290   2.2096730
  61.5890430  60.7778450   3.2616330  60.7575310  60.5227160   3.6612840
  62.1971410  60.8489220   3.9974250  61.5691690  64.8118540   3.4574350
  61.8719730  63.9216280   3.2784570  62.3135280  65.3688760   3.2296600
  57.9615390  58.3385990   2.9298420  58.5331500  57.5708190   2.9302060
  57.9616930  58.6374750   2.0205030  67.0133590  63.1415830   2.3910730
  66.9441870  62.2005770   2.2299860  67.7753450  63.2317240   2.9633300
  59.2040260  53.7470350   4.7167350  59.0243100  52.8496100   4.9970110
  58.8020340  54.2942220   5.3914300  68.0438760  55.9486210   2.6179660
  68.4203580  55.0758090   2.5053330  67.9458270  56.2844910   1.7270100
  59.8226930  56.2430850   3.3249690  60.5037040  56.5069220   3.9437090
  59.5074980  55.4031720   3.6587700  64.0151500  57.2898210   2.4122280
  64.5229720  57.7879180   3.0527300  64.5464740  56.5133410   2.2361640
  76.1162430  55.4603400   6.1151630  75.4114600  55.8485110   5.5966740
  76.3820350  56.1553690   6.7172560  62.2987600  51.9296770   6.6785700
  62.3006040  52.4469160   5.8731600  61.4691910  51.4526950   6.6555630
  63.5490450  61.5691950   4.8559200  63.2159830  62.1960870   5.4980270
  63.7257130  62.0953830   4.0760870  72.0624360  55.3837030   2.3235540
  71.3579930  55.6721920   2.9038650  72.4236520  56.1937140   1.9635100
  61.9802930  53.6406730   4.6856150  62.3219740  54.4848780   4.3910020
  61.0418740  53.7890470   4.8021490  62.7609550  63.5372750   6.6708380
  63.3783550  64.2123830   6.3892830  61.9002670  63.9460730   6.5795880
  73.6787140  65.0012160   4.5863020  72.9950660  65.6711270   4.5779690
  74.2181430  65.1992810   3.8207880  75.1311280  54.8291820   2.7144750
  74.1836190  54.8630800   2.8460180  75.4561270  55.6430770   3.0994110
  71.2145880  66.8456290   3.3008200  71.2273040  66.4418580   2.4330460
  70.6621100  67.6203580   3.1969630  70.6131320  61.7486130   4.6290810
  71.0300110  61.5346240   3.7944270  71.3371140  62.0058920   5.1999430
  74.5593420  60.1473350   4.7207050  73.7312050  60.2166440   4.2457180
  75.1543900  60.7327660   4.2522880  71.5235430  56.9342670   5.6661920
  71.1106610  57.7596380   5.9201910  70.7911380  56.3487710   5.4738280
  64.1249920  63.4070130   2.6919800  63.8278210  62.8015600   2.0127580
  65.0749740  63.4447440   2.5809160  62.3696840  56.4945780   4.3079630
  62.9211430  56.6041120   3.5332880  62.8840350  56.8683380   5.0234860
  72.2135530  66.9802000   6.3542900  71.7366090  67.7874190   6.1615510
  71.5297320  66.3280330   6.5069110  63.2168350  63.1451820   9.3427600
  62.3196880  63.3691790   9.5901000  63.2421220  63.2686760   8.3939000
  62.0439570  60.0165140   7.9184970  61.9047340  60.8887940   8.2872370
  61.1620930  59.6737950   7.7732910  63.8419920  65.9586840  10.1270120
  63.8135350  66.3629790   9.2598550  63.6784890  65.0297200   9.9641720
  75.7934740  66.7413940  11.4234290  76.2694460  67.2196830  12.1023370
  76.4141900  66.6731430  10.6979790  57.9958220  61.7862690   3.8355880
  58.0738640  61.9211460   2.8911600  58.6099900  61.0778580   4.0284000
  75.1967990  63.9326790   8.5834300  75.3231050  63.6938670   7.6651480
  75.2389370  63.1011330   9.0556380  69.0584730  67.6354790   7.1529110
  69.5729400  67.5462800   7.9551540  68.2153810  67.9814490   7.4457020
  75.0492000  55.9859250   9.5484040  74.4336270  56.4938920   9.0199500
  74.7288420  55.0857580   9.4909980  58.0517740  62.8276860   6.3750340
  58.2148780  62.3582220   5.5569710  58.5170190  62.3200420   7.0399180
  67.1106320  54.8251140   7.0146230  66.6485690  55.0334160   7.8266170
  66.7084430  54.0110490   6.7116900  72.1110830  56.0460090   8.1442890
  71.2604420  55.7465840   8.4651960  71.9512620  56.2902100   7.2326710
  69.2060540  57.5461840  10.2441680  69.5313950  56.7125590   9.9043910
  69.9940870  58.0690360  10.3920010  64.8612410  52.5029950   3.2700510
  65.1584740  53.4092780   3.1892530  65.4097970  52.0148730   2.6560080
  65.0549940  57.9801770   9.8052430  64.9593540  57.0396500   9.6552830
  65.8981920  58.2016840   9.4100500  60.1860480  54.3915440   7.9586210
  59.7923870  55.2390650   8.1658990  59.4978880  53.7541810   8.1494850
  66.7605530  54.4750410  11.0282950  66.0703850  54.2822610  11.6629040
  67.5037830  54.7585050  11.5607250  57.4877530  52.3143900   1.9916290
  57.1990580  52.8846760   2.7041270  58.2323290  51.8348350   2.3547520
  69.0368500  58.3148850   3.8636870  68.3049620  58.8235660   4.2126970
  68.6392840  57.4978830   3.5625650  65.4745890  54.9903050   2.2689360
  65.4781950  54.5493000   1.4193900  66.3697010  55.3120380   2.3761180
  69.4994410  53.7682530   3.2759810  69.5167150  54.2191180   4.1201660
  69.2509990  52.8688170   3.4893250  72.9265160  51.1814710   9.1146190
  73.2510930  50.4504370   9.6404170  72.9621670  50.8628350   8.2127180
  59.6256720  62.2028290   8.5346150  59.2411510  61.5621960   9.1329110
  59.9368910  62.9064410   9.1040880  65.7753860  59.0504830   4.0154770
  66.1423990  58.5763400   4.7616110  65.5858920  59.9246400   4.3563110
  63.5653230  58.0913470   6.3338980  63.2610300  58.9705450   6.5589340
  64.5199690  58.1513260   6.3696420  72.8523000  61.2939820   2.7232220
  73.5722120  61.7895110   2.3328330  72.6504820  60.6157710   2.0786090
  68.2341800  61.3648880   8.6101220  68.1679110  60.4444550   8.3558810
  67.6046940  61.4624320   9.3245860  59.6216960  58.9316210   7.4810340
  59.2631900  59.5970060   8.0683680  59.3271520  58.0999760   7.8522960
  62.8230080  59.3900450  10.3649890  62.5230220  59.5357630   9.4677710
  63.5941320  58.8305740  10.2723280  68.1658530  64.1869450   8.3605020
  68.1803070  63.2550410   8.1423930  67.4583630  64.2729210   8.9994790
  74.3769740  60.8276790   7.7073600  73.6517930  61.4205570   7.5102990
  74.9045200  60.8200330   6.9086970  67.5992430  65.8287020   5.4545520
  68.2434650  66.0346400   6.1318940  67.9621870  65.0675420   5.0016370
  68.8724510  63.8319370   4.1722970  69.5146740  63.1312530   4.2855140
  69.3973860  64.6117810   3.9919860  70.6462130  64.6314270   7.3759030
  70.9818370  65.2180960   8.0536950  69.7262470  64.5006980   7.6056820
  58.1965530  52.4209450   8.1582440  57.4824050  52.6206370   8.7635050
  58.6160570  51.6449020   8.5297240  58.4838120  66.4089710   9.1448970
  58.5929240  65.4684450   9.0044360  57.8318680  66.6744460   8.4962700
  66.4750710  64.6805600  10.5447090  66.1547580  63.9614840  11.0892780
  65.8009070  65.3560670  10.6183150  69.6904310  54.9131760   5.9083890
  70.0585130  54.0926970   6.2363460  68.8302510  54.9733650   6.3239540
  66.6506300  57.5671350   6.1321860  67.1491550  58.0417170   6.7973710
  66.7929250  56.6434870   6.3391890  73.8573160  53.7839310   6.9750250
  73.3546760  54.5244710   7.3144060  74.6729820  54.1723310   6.6587040
  74.1520750  66.1981340   2.0965870  74.2768170  67.0212510   2.5689680
  75.0186310  65.9872070   1.7490020  61.6238280  68.2912550   1.7683000
  62.3600760  67.7428010   2.0391570  62.0079200  69.1568560   1.6288990
  60.6296560  67.4758620  10.9568580  61.4309290  67.7970670  11.3703980
  60.1148380  67.1154200  11.6788490  69.4661190  63.5838490  10.9043990
  68.8599350  63.6070090  10.1639740  69.1615300  62.8521530  11.4411240
  70.8961560  67.3118780   9.5153400  71.8483310  67.2276800   9.4653640
  70.7489780  67.9760490  10.1887190  58.3494370  59.9632080   9.9004630
  58.8533390  59.3839360  10.4720860  57.6101790  60.2472310  10.4381000
  65.4032310  61.3703070   9.4340150  64.6377980  61.9388070   9.3494820
  65.5848270  61.0779280   8.5408380  72.5455660  63.1008400   9.9915170
  73.2865130  63.4384160   9.4882630  71.7828340  63.2700460   9.4384940
  60.3817450  58.1061670  10.7954700  60.4222790  57.8075540  11.7039930
  61.2362950  58.5069280  10.6362220  62.3223260  56.6853770   8.7629190
  61.7919720  56.1944720   8.1352530  62.9911330  57.1137970   8.2287120
  71.2201320  61.1523230   8.5270380  71.6342340  61.3068310   9.3760800
  70.2852320  61.2778450   8.6896160  71.6923490  58.4919390  10.5309530
  72.2744260  57.7371710  10.4430010  71.8685260  59.0226830   9.7541010
  62.8095560  53.6516140   8.8426480  62.7152430  53.0336890   8.1177350
  62.2292950  54.3782430   8.6156390  65.5757000  52.2089380   5.8753870
  65.1274300  52.2313640   5.0299420  64.9422200  51.8108400   6.4724170
  65.9816550  61.1043710   6.4966310  66.4004660  61.9476440   6.3242550
  65.0625180  61.2415750   6.2673090  68.3180450  58.8359890   7.8804150
  68.4376660  58.2401030   8.6198990  69.1774450  58.8729580   7.4605450
  70.6568350  59.3897080   6.4566660  70.1303570  59.9139700   5.8531800
  70.9999690  60.0224470   7.0876390  63.8323970  67.4096720   7.6124040
  63.2945060  68.1342780   7.2932740  64.0857930  66.9327060   6.8221380
  65.0849220  55.3781240   9.1379970  65.6748910  55.0697090   9.8257790
  64.2669460  54.9060990   9.2939870  69.9042650  54.9947050   9.3712990
  69.2158170  54.3328590   9.3062980  70.6248670  54.5485320   9.8161450
  66.6886180  68.6447930   7.8710690  66.6144880  69.5483070   8.1783060
  65.7865020  68.3259830   7.8432760  58.5803680  66.8393110   3.9125940
  58.1434670  67.0193910   4.7450090  59.1481360  67.5967730   3.7707660
  74.2165860  66.3410110   8.2003250  73.6167850  66.4002670   7.4567170
  74.3459760  65.4015090   8.3300100  72.9017500  63.0662090   6.2979410
  72.0877340  63.4959250   6.5605200  73.3091700  63.6780500   5.6848460
  59.4504040  59.7365910   4.8118160  59.8177080  59.6493310   5.6914180
  58.8814860  58.9732460   4.7125020  74.2507900  58.2050290   7.8248630
  74.0193990  57.9763040   6.9246580  74.5112450  59.1249840   7.7793520
  59.0020040  56.6475000   8.7176580  58.1076090  56.6141760   9.0570290
  59.5417590  56.8461790   9.4827830  72.6895970  53.4306720  10.6028330
  73.5666150  53.4390120  10.9862330  72.7016810  52.6937560   9.9920680
  74.3148960  57.3676130   5.0135900  73.3651670  57.3339670   5.1280890
  74.4961970  58.2776240   4.7785670  59.5059750  50.9223330   3.0659800
  60.1535940  50.3720710   2.6254960  59.9261590  51.1766480   3.8875610
  73.4012090  51.1164690   6.4229440  74.0384310  51.7298830   6.7888630
  73.5486980  51.1525350   5.4778670  59.2591750  51.0779000   5.8085120
  58.9106570  51.5342820   6.5743300  58.9279450  50.1836130   5.8907550
  60.8656120  64.2498600   9.9738310  60.8225750  63.8791510  10.8552770
  60.9967130  65.1876170  10.1140130  64.5662150  65.8058190   5.5748030
  64.3253510  66.0732750   4.6878550  65.5064790  65.9763920   5.6298890
  66.7716570  52.2690880   9.3304540  66.7105460  52.8612710  10.0799950
  67.7116950  52.1616840   9.1854800  69.4091130  51.9260940   8.9696830
  70.0231540  52.2440230   8.3077910  69.9540690  51.4409530   9.5892690
  75.8266310  67.8252570   6.3758670  75.3324590  68.2221440   5.6585800
  75.2179600  67.2001780   6.7695950  59.9312390  50.6055200   9.0835890
  60.4795380  50.4243250   8.3202000  59.9967700  49.8149310   9.6192200
  60.7044150  67.1960850   7.0936090  60.1104470  67.0645550   7.8326130
  60.6967990  66.3598990   6.6278190  70.1499170  50.4893080   5.2966120
  69.2759010  50.8228190   5.0939050  70.0409920  50.0166260   6.1217990
  71.0571150  52.6963950   6.6807840  70.7284510  51.8815710   6.3009570
  72.0053450  52.6533760   6.5573530  73.5105760  68.4675990   3.6545410
  73.0508730  69.2191800   3.2803430  72.8818220  67.7482460   3.5960210
  60.3356380  64.5619230   6.0444130  59.6090440  63.9424520   5.9770080
  60.3965530  64.9559840   5.1742210  63.9401480  66.7764230   2.8293540
  64.4566500  66.1651590   2.3041800  64.5898860  67.2793010   3.3204550
  66.6796980  67.6672720   3.6562520  66.9674790  67.4127020   2.7795530
  67.1920200  67.1150080   4.2468090  67.8973990  51.4062920   4.2359030
  67.1145780  51.8808420   4.5155790  67.6036920  50.5017750   4.1272210
  72.4495060  52.1086020   2.2808120  72.8903150  52.0531120   1.4329720
  72.1802650  53.0244030   2.3518300  66.7469340  68.5888820  11.0230720
  67.6736650  68.3533090  11.0666680  66.7319770  69.4160820  10.5416750
  63.9332950  51.2533570  10.7872600  63.6517220  51.7567170  10.0233420
  64.3152650  50.4555320  10.4214730  70.5348410  50.6687150  11.3653070
  70.4213860  50.9881760  12.2604590  71.3518150  51.0699660  11.0690350
  73.3146900  67.8158680  10.8471760  74.1072220  67.3207910  10.6397720
  73.6080050  68.4948820  11.4547370  69.4406560  39.9136130 150.6979220
  69.3600610  38.9990740 150.4270930  69.0270980  40.4103200 149.9918930
  67.5724600  41.6915150 152.5788490  66.7966700  41.2115590 152.8687060
  68.2237530  41.0120800 152.4044650  71.5932030  46.0975340 151.3587620
  71.1313560  45.3262580 151.6874790  72.4057580  46.1241410 151.8640070
  59.9982380  36.9636850 147.2406640  59.1099080  37.3052820 147.1386520
  60.2823570  36.7637170 146.3487470  57.9615390  39.5642500 153.1246340
  58.5331500  38.7964700 153.1249980  57.9616930  39.8631260 152.2152950
  67.8195340  48.3833350 150.9791610  67.2006780  48.8390850 150.4086050
  68.6747120  48.5384810 150.5781310  67.0133590  44.3672340 152.5858650
  66.9441870  43.4262280 152.4247780  67.7753450  44.4573750 153.1581220
  68.0438760  37.1742720 152.8127580  68.4203580  36.3014600 152.7001250
  67.9458270  37.5101420 151.9218020  62.1743770  35.5468350 148.2745020
  62.2810520  36.4472080 148.5813780  61.2636130  35.4986320 147.9839670
  71.8262880  34.6693160 149.7455920  72.6472500  34.1789730 149.7881400
  71.8596960  35.2590820 150.4987760  68.6858690  43.2672590 148.3723520
  68.0675960  43.7322040 147.8086240  69.1981940  43.9600070 148.7893030
  72.0624360  36.6093540 152.5183460  71.3579930  36.8978430 153.0986570
  72.4236520  37.4193650 152.1583020  58.0541890  43.9529120 145.7463150
  57.6769870  44.4416220 145.0148050  58.3114960  44.6254400 146.3769680
  65.6630820  32.3545510 151.2048660  65.9705800  31.7992400 150.4884160
  64.7331520  32.4889970 151.0221650  72.5091300  44.7929020 148.5846290
  72.3987630  43.8503350 148.7095710  72.5059550  45.1544660 149.4709050
  68.0511580  40.4194340 147.9408780  67.1240860  40.3531720 148.1697250
  68.2036400  41.3574470 147.8264020  68.0380660  36.6911340 144.9375940
  67.0984330  36.8525300 145.0228400  68.3563920  37.4097020 144.3911930
  72.0808870  41.9814640 148.4444030  71.4621290  41.6434190 147.7970330
  72.0633320  41.3374400 149.1523220  63.6568220  40.9459080 150.7228510
  63.2525220  40.2336330 150.2274410  63.7431340  40.6012320 151.6116550
  64.1249920  44.6326640 152.8867720  63.8278210  44.0272110 152.2075500
  65.0749740  44.6703950 152.7757080  70.2573570  41.2201450 145.4516780
  70.6966850  40.3823880 145.3054600  70.9701990  41.8530850 145.5380920
  68.3668950  46.1597520 149.4198020  68.8064860  46.9021850 149.0053410
  68.3055840  46.4024090 150.3436980  73.8390710  32.4744260 143.7657820
  73.5263370  32.5671090 144.6656890  74.6003180  33.0525290 143.7155250
  60.3572850  39.8404060 148.2235160  60.2370450  40.5666150 147.6116430
  60.0473740  39.0706970 147.7463070  59.2405850  44.7119390 150.4409980
  58.8333930  44.8533980 149.5863580  60.1318860  44.4279550 150.2381190
  71.0339130  49.1466640 146.7761030  70.8740270  48.8569580 147.6742860
  70.8685840  48.3706770 146.2406260  63.5127510  48.9265170 148.5532650
  63.3369990  48.0100710 148.3400450  62.6583250  49.2852460 148.7930450
  70.7365260  46.6554200 145.3359030  70.0430420  46.6531490 144.6761310
  71.4788120  46.2313520 144.9053200  70.3015190  48.2816910 149.4107520
  70.7572140  47.5006290 149.7246140  70.6407710  48.9923730 149.9548700
  62.8236510  33.1839130 151.6058830  62.3804660  33.9648670 151.2743350
  63.3821500  33.5069020 152.3129770  65.9395330  32.8049830 146.4864660
  65.3149510  32.8009700 147.2117970  65.8525450  31.9380790 146.0900630
  62.6150730  38.3072700 149.3340080  62.3891650  38.0909870 150.2386700
  61.8343260  38.7401160 148.9886050  69.8448490  38.3136070 147.9330730
  69.2457380  39.0371870 147.7494350  70.3928100  38.2512850 147.1507180
  68.4513360  36.9499610 149.9634010  68.8442930  37.2671810 149.1502700
  68.8130210  36.0711490 150.0778530  57.4877530  33.5400410 152.1864210
  57.1990580  34.1103270 152.8989190  58.2323290  33.0604860 152.5495440
  57.6747760  37.4820530 143.3966930  57.5922430  38.4251290 143.5381920
  57.3230820  37.3395440 142.5179280  65.4745890  36.2159560 152.4637280
  65.4781950  35.7749510 151.6141820  66.3697010  36.5376890 152.5709100
  61.3248270  36.0986050 151.4231490  60.9848320  36.5761280 152.1798540
  60.5625590  35.6451170 151.0632590  65.5366040  37.2171640 145.4544040
  65.6578860  37.1758120 146.4029860  65.1514550  38.0795790 145.2990770
  64.5487540  39.5272780 144.8527340  63.9804440  39.0791030 144.2263250
  65.2576540  39.8865560 144.3192490  58.6394350  35.0205030 150.3396160
  58.3541270  34.6560700 151.1774780  58.5773210  34.2885490 149.7259300
  62.0935020  43.5230970 147.1253750  61.3197280  42.9828590 146.9652470
  62.8229650  43.0037580 146.7871510  72.8523000  42.5196330 152.9180140
  73.5722120  43.0151620 152.5276250  72.6504820  41.8414220 152.2734010
  68.3132940  33.9134290 147.0609530  67.4997550  33.4147460 146.9854840
  68.1194890  34.7532540 146.6445880  71.0281330  38.2853940 145.3571690
  71.9160950  38.5971170 145.1823030  70.9986420  37.4126190 144.9652270
  62.1372420  43.1911350 150.7632560  62.6551090  42.3879610 150.7089450
  61.6856440  43.1290490 151.6049390  67.0241920  44.4577630 146.0359860
  67.3657620  45.2019860 145.5403180  66.1954630  44.7708750 146.3984690
  73.2995600  39.5965780 144.8251550  73.2159320  40.0280000 143.9747990
  74.0189790  40.0564130 145.2578370  74.3282850  46.4508040 147.5533680
  73.6859010  45.7963660 147.8277400  73.9413510  46.8563130 146.7774350
  69.9069330  43.7793470 151.4005370  70.2593150  43.1821600 150.7406740
  69.0231660  43.4537700 151.5713620  65.9932610  44.5391160 148.8075780
  66.6803740  45.0860370 149.1883370  65.2065030  45.0831890 148.8425390
  58.1325010  40.1563980 144.2992860  59.0019860  40.4388780 144.5828780
  57.6415330  40.9699850 144.1841670  65.2959820  41.5437190 148.4201140
  65.7522600  42.3542440 148.6461330  64.9448030  41.2260330 149.2519630
  61.1971600  31.8874840 148.8923660  61.0686230  31.8792740 149.8408580
  60.3733620  32.2257930 148.5414670  72.7180230  45.3424500 144.0910030
  72.4917810  44.6254940 144.6834670  72.3276430  45.0936940 143.2531780
  58.4996260  49.3691360 144.8654490  58.8593900  49.9680700 144.2111760
  58.3588600  49.9151250 145.6389520  72.2996480  43.2596440 145.7524190
  72.0118180  43.7209130 146.5402070  73.0948650  42.7994210 146.0208410
  64.5164880  46.7522560 145.6828160  64.5074980  47.4852250 145.0672670
  63.5963240  46.5054140 145.7755120  60.1171520  41.9737450 146.4274920
  59.5099470  42.7136350 146.4370220  60.5920870  42.0636810 145.6013120
  73.0566340  35.0945210 146.9119370  72.4279500  35.1990880 146.1977600
  72.5618260  35.3141990 147.7013250  67.5024480  46.8150800 144.3453350
  67.6036460  46.6114790 143.4155330  66.6026220  46.5609080 144.5501130
  65.0250370  37.3731160 148.3277250  64.3166520  37.8417500 148.7690860
  65.3094850  36.7153170 148.9622440  69.0565800  34.0981820 149.7673040
  68.9333580  34.1167950 148.8182550  70.0050360  34.1460760 149.8871440
  66.1442590  49.3337120 149.0401020  66.3984090  49.2958510 148.1180390
  65.1955070  49.2070450 149.0329270  63.2285390  35.6816240 145.7027960
  64.0775920  36.1186390 145.6368150  62.8616660  35.9936500 146.5300020
  72.1495170  40.2529000 150.6159530  71.2085310  40.2679230 150.7907220
  72.4639240  39.4664960 151.0619830  62.1276810  41.9348600 144.1763490
  62.8940080  41.8229960 144.7388920  62.2051500  41.2386570 143.5240260
  60.8223570  39.3673670 144.8596380  60.9027160  38.4201180 144.9713780
  61.7143320  39.6980550 144.9657040  74.1520750  47.4237850 152.2913790
  74.2768170  48.2469020 152.7637600  75.0186310  47.2128580 151.9437940
  61.6238280  49.5169060 151.9630920  62.3600760  48.9684520 152.2339490
  62.0079200  50.3825070 151.8236910  58.5083760  45.5842630 147.8372430
  57.5823540  45.8263770 147.8277840  58.9740190  46.4116890 147.7157180
  64.7340590  48.6899370 143.7856490  65.5269200  48.9788200 143.3338280
  64.2144940  48.2591540 143.1068970  73.7870760  47.9169500 145.2093230
  73.5012270  47.5034640 144.3947410  73.5890310  48.8457210 145.0893750
  65.2517990  43.9102780 143.6498840  65.1468630  43.2955130 144.3760220
  65.0842210  43.3868670 142.8661850  68.4920720  42.9722810 144.2540830
  67.9430820  43.4192110 144.8983570  69.1139980  42.4672060 144.7778500
  64.1595840  41.9313730 146.1506130  64.5812260  41.7653600 146.9937520
  64.2846680  41.1213960 145.6561270  66.6723480  40.9551340 143.3983230
  67.1929140  40.2400360 143.0324380  67.3191880  41.5937210 143.6983740
  63.0554740  38.0046960 143.0964290  62.8543800  37.1414320 143.4577630
  62.8846790  37.9180320 142.1585890  70.5343050  32.8155190 145.6251170
  70.8145340  31.9723090 145.9810590  69.7608780  33.0478300 146.1389920
  61.8537540  35.1047580 143.0842170  62.1563440  35.1115010 142.1761320
  62.5932130  34.7545440 143.5809830  65.0722470  34.0482200 144.0698370
  64.7244470  33.3706190 143.4900820  65.2735240  33.5871710 144.8841760
  67.2371510  49.0362950 145.6884970  68.1322300  49.3747920 145.7103730
  67.2689140  48.3142360 145.0609250  60.8767670  44.4090000 143.9171970
  61.3142540  44.9519670 144.5729550  61.3615400  43.5836950 143.9268310
  58.0913470  47.1979030 151.3692230  58.4216480  46.3300090 151.1370870
  58.5204470  47.4037550 152.1997190  62.6875390  45.5288040 149.0294200
  62.3870930  45.4053010 149.9298110  62.5812880  44.6696630 148.6209930
  75.4567310  45.3084440 143.7320880  74.6260270  45.3761090 144.2028110
  75.6339140  46.1988560 143.4287740  74.9123770  42.0531920 146.2355080
  75.6742680  42.6228570 146.3414770  74.9278140  41.4859120 147.0063390
  58.4128110  40.5769850 150.4662740  57.7576950  40.3081490 149.8222440
  59.2506060  40.4674330 150.0164720  75.9183740  42.9082020 151.0797010
  76.2892570  42.1249340 150.6732980  76.5585670  43.5971120 150.9014310
  74.9642940  42.3466290 143.3927600  75.2391780  43.2545170 143.2646820
  74.7753680  42.2828820 144.3289590  71.3618550  35.3711140 144.6881230
  71.7803430  35.1842120 143.8477890  71.0554610  34.5190190 144.9984160
  74.8608280  40.2835280 148.3857030  74.4851880  39.5163210 147.9538320
  74.1311400  40.6657980 148.8731960  57.6266190  37.7868780 146.4088070
  56.7230270  38.0498980 146.2339730  58.1106810  38.0579950 145.6288030
  74.1359240  38.5092770 151.6864270  74.6596720  38.0155420 151.0554440
  74.7218660  38.6443130 152.4311840  60.1693400  36.8434320 144.3182450
  60.8785100  36.4217540 143.8329730  59.4533340  36.9109550 143.6865800
  59.8167560  32.8973650 143.3585100  60.5395690  33.4382590 143.6766320
  60.0892080  32.6237070 142.4826640  73.6259210  37.7666120 147.6256680
  74.1218330  37.5336990 148.4105560  73.4275280  36.9277960 147.2094320
  75.0546370  36.4027070 150.1594360  74.9445650  36.2483110 151.0976630
  75.8153960  35.8748010 149.9169770  75.9436640  34.2334990 143.4000500
  76.8685950  34.1016170 143.1918790  75.9212430  34.3127810 144.3536950
  76.0175130  35.0045650 146.0257210  75.2226630  34.9390770 146.5550120
  76.2218410  35.9396290 146.0142560  72.9593550  49.0437200 150.0195600
  73.5552620  48.7221770 149.3430020  73.2171700  48.5709020 150.8108870
  72.4495060  33.3342530 152.4756040  72.8903150  33.2787630 151.6277640
  72.1802650  34.2500540 152.5466220  74.3133630  32.9657770 150.4864860
  74.2522030  32.0218990 150.3395880  75.0925660  33.0737860 151.0318320
  58.6186380  49.1050130 149.4488810  58.4508420  48.4720810 150.1470700
  57.7520890  49.3109530 149.0983000  59.2414400  32.9366910 146.9520670
  59.9993760  33.0495790 146.3784700  58.7791570  33.7736110 146.9064100
  65.7828210  35.0506180 149.9422980  64.9702720  34.6763070 149.6018860
  66.2869850  34.2951260 150.2444170  70.2853190  31.7148630 151.1806050
  70.8882560  32.2868840 151.6554570  69.5446180  32.2788070 150.9579950
  73.4287790  32.1170190 146.4546330  73.6238420  33.0153640 146.7213760
  72.6417660  31.8857270 146.9479280  60.2249080  47.7983360 146.8938950
  59.6996700  48.1791390 146.1900910  60.1493660  48.4234130 147.6148660
  61.6139550  33.4630960 145.4922640  62.1432310  32.6760760 145.3630590
  62.2467870  34.1422150 145.7258170  63.8077390  33.2006100 148.5468030
  63.1780130  32.4993410 148.7138160  63.2682530  33.9610230 148.3301190
  74.9814400  49.3570900 148.2152890  75.1566590  48.6708640 147.5713810
  74.2835970  49.8817950 147.8229560  62.8242050  49.7465740 145.7688200
  63.5560870  49.4625020 145.2212090  63.0835720  49.5079020 146.6587580
  61.9856840  45.8630470 145.7734530  61.3565720  46.3315570 146.3220360
  62.1004670  45.0179690 146.2080720  69.4406560  39.9136130 131.9235730
  69.3600610  38.9990740 131.6527440  69.0270980  40.4103200 131.2175440
  67.5724600  41.6915150 133.8045000  66.7966700  41.2115590 134.0943570
  68.2237530  41.0120800 133.6301160  61.5890430  42.0034960 134.6820760
  60.7575310  41.7483670 135.0817270  62.1971410  42.0745730 135.4178680
  61.5691690  46.0375050 134.8778780  61.8719730  45.1472790 134.6989000
  62.3135280  46.5945270 134.6501030  59.9982380  36.9636850 128.4663150
  59.1099080  37.3052820 128.3643030  60.2823570  36.7637170 127.5743980
  57.9615390  39.5642500 134.3502850  58.5331500  38.7964700 134.3506490
  57.9616930  39.8631260 133.4409460  67.8195340  48.3833350 132.2048120
  67.2006780  48.8390850 131.6342560  68.6747120  48.5384810 131.8037820
  67.0133590  44.3672340 133.8115160  66.9441870  43.4262280 133.6504290
  67.7753450  44.4573750 134.3837730  59.2040260  34.9726860 136.1371780
  59.0243100  34.0752610 136.4174540  58.8020340  35.5198730 136.8118730
  68.0438760  37.1742720 134.0384090  68.4203580  36.3014600 133.9257760
  67.9458270  37.5101420 133.1474530  62.1743770  35.5468350 129.5001530
  62.2810520  36.4472080 129.8070290  61.2636130  35.4986320 129.2096180
  71.8262880  34.6693160 130.9712430  72.6472500  34.1789730 131.0137910
  71.8596960  35.2590820 131.7244270  59.8226930  37.4687360 134.7454120
  60.5037040  37.7325730 135.3641520  59.5074980  36.6288230 135.0792130
  64.0151500  38.5154720 133.8326710  64.5229720  39.0135690 134.4731730
  64.5464740  37.7389920 133.6566070  76.1162430  36.6859910 137.5356060
  75.4114600  37.0741620 137.0171170  76.3820350  37.3810200 138.1376990
  62.2987600  33.1553280 138.0990130  62.3006040  33.6725670 137.2936030
  61.4691910  32.6783460 138.0760060  68.6858690  43.2672590 129.5980030
  68.0675960  43.7322040 129.0342750  69.1981940  43.9600070 130.0149540
  63.5490450  42.7948460 136.2763630  63.2159830  43.4217380 136.9184700
  63.7257130  43.3210340 135.4965300  72.0624360  36.6093540 133.7439970
  71.3579930  36.8978430 134.3243080  72.4236520  37.4193650 133.3839530
  61.9802930  34.8663240 136.1060580  62.3219740  35.7105290 135.8114450
  61.0418740  35.0146980 136.2225920  62.7609550  44.7629260 138.0912810
  63.3783550  45.4380340 137.8097260  61.9002670  45.1717240 138.0000310
  73.6787140  46.2268670 136.0067450  72.9950660  46.8967780 135.9984120
  74.2181430  46.4249320 135.2412310  75.1311280  36.0548330 134.1349180
  74.1836190  36.0887310 134.2664610  75.4561270  36.8687280 134.5198540
  65.6630820  32.3545510 132.4305170  65.9705800  31.7992400 131.7140670
  64.7331520  32.4889970 132.2478160  71.2145880  48.0712800 134.7212630
  71.2273040  47.6675090 133.8534890  70.6621100  48.8460090 134.6174060
  72.5091300  44.7929020 129.8102800  72.3987630  43.8503350 129.9352220
  72.5059550  45.1544660 130.6965560  70.6131320  42.9742640 136.0495240
  71.0300110  42.7602750 135.2148700  71.3371140  43.2315430 136.6203860
  68.0511580  40.4194340 129.1665290  67.1240860  40.3531720 129.3953760
  68.2036400  41.3574470 129.0520530  68.0380660  36.6911340 126.1632450
  67.0984330  36.8525300 126.2484910  68.3563920  37.4097020 125.6168440
  74.5593420  41.3729860 136.1411480  73.7312050  41.4422950 135.6661610
  75.1543900  41.9584170 135.6727310  72.0808870  41.9814640 129.6700540
  71.4621290  41.6434190 129.0226840  72.0633320  41.3374400 130.3779730
  71.5235430  38.1599180 137.0866350  71.1106610  38.9852890 137.3406340
  70.7911380  37.5744220 136.8942710  63.6568220  40.9459080 131.9485020
  63.2525220  40.2336330 131.4530920  63.7431340  40.6012320 132.8373060
  64.1249920  44.6326640 134.1124230  63.8278210  44.0272110 133.4332010
  65.0749740  44.6703950 134.0013590  62.3696840  37.7202290 135.7284060
  62.9211430  37.8297630 134.9537310  62.8840350  38.0939890 136.4439290
  72.2135530  48.2058510 137.7747330  71.7366090  49.0130700 137.5819940
  71.5297320  47.5536840 137.9273540  63.2168350  44.3708330 140.7632030
  62.3196880  44.5948300 141.0105430  63.2421220  44.4943270 139.8143430
  70.2573570  41.2201450 126.6773290  70.6966850  40.3823880 126.5311110
  70.9701990  41.8530850 126.7637430  62.0439570  41.2421650 139.3389400
  61.9047340  42.1144450 139.7076800  61.1620930  40.8994460 139.1937340
  68.3668950  46.1597520 130.6454530  68.8064860  46.9021850 130.2309920
  68.3055840  46.4024090 131.5693490  63.8419920  47.1843350 141.5474550
  63.8135350  47.5886300 140.6802980  63.6784890  46.2553710 141.3846150
  60.3572850  39.8404060 129.4491670  60.2370450  40.5666150 128.8372940
  60.0473740  39.0706970 128.9719580  75.7934740  47.9670450 142.8438720
  76.2694460  48.4453340 143.5227800  76.4141900  47.8987940 142.1184220
  57.9958220  43.0119200 135.2560310  58.0738640  43.1467970 134.3116030
  58.6099900  42.3035090 135.4488430  59.2405850  44.7119390 131.6666490
  58.8333930  44.8533980 130.8120090  60.1318860  44.4279550 131.4637700
  75.1967990  45.1583300 140.0038730  75.3231050  44.9195180 139.0855910
  75.2389370  44.3267840 140.4760810  69.0584730  48.8611300 138.5733540
  69.5729400  48.7719310 139.3755970  68.2153810  49.2071000 138.8661450
  63.5127510  48.9265170 129.7789160  63.3369990  48.0100710 129.5656960
  62.6583250  49.2852460 130.0186960  70.7365260  46.6554200 126.5615540
  70.0430420  46.6531490 125.9017820  71.4788120  46.2313520 126.1309710
  75.0492000  37.2115760 140.9688470  74.4336270  37.7195430 140.4403930
  74.7288420  36.3114090 140.9114410  58.0517740  44.0533370 137.7954770
  58.2148780  43.5838730 136.9774140  58.5170190  43.5456930 138.4603610
  62.8236510  33.1839130 132.8315340  62.3804660  33.9648670 132.4999860
  63.3821500  33.5069020 133.5386280  67.1106320  36.0507650 138.4350660
  66.6485690  36.2590670 139.2470600  66.7084430  35.2367000 138.1321330
  72.1110830  37.2716600 139.5647320  71.2604420  36.9722350 139.8856390
  71.9512620  37.5158610 138.6531140  69.2060540  38.7718350 141.6646110
  69.5313950  37.9382100 141.3248340  69.9940870  39.2946870 141.8124440
  65.9395330  32.8049830 127.7121170  65.3149510  32.8009700 128.4374480
  65.8525450  31.9380790 127.3157140  64.8612410  33.7286460 134.6904940
  65.1584740  34.6349290 134.6096960  65.4097970  33.2405240 134.0764510
  62.6150730  38.3072700 130.5596590  62.3891650  38.0909870 131.4643210
  61.8343260  38.7401160 130.2142560  69.8448490  38.3136070 129.1587240
  69.2457380  39.0371870 128.9750860  70.3928100  38.2512850 128.3763690
  65.0549940  39.2058280 141.2256860  64.9593540  38.2653010 141.0757260
  65.8981920  39.4273350 140.8304930  68.4513360  36.9499610 131.1890520
  68.8442930  37.2671810 130.3759210  68.8130210  36.0711490 131.3035040
  60.1860480  35.6171950 139.3790640  59.7923870  36.4647160 139.5863420
  59.4978880  34.9798320 139.5699280  66.7605530  35.7006920 142.4487380
  66.0703850  35.5079120 143.0833470  67.5037830  35.9841560 142.9811680
  57.4877530  33.5400410 133.4120720  57.1990580  34.1103270 134.1245700
  58.2323290  33.0604860 133.7751950  57.6747760  37.4820530 124.6223440
  57.5922430  38.4251290 124.7638430  57.3230820  37.3395440 123.7435790
  69.0368500  39.5405360 135.2841300  68.3049620  40.0492170 135.6331400
  68.6392840  38.7235340 134.9830080  65.4745890  36.2159560 133.6893790
  65.4781950  35.7749510 132.8398330  66.3697010  36.5376890 133.7965610
  61.3248270  36.0986050 132.6488000  60.9848320  36.5761280 133.4055050
  60.5625590  35.6451170 132.2889100  65.5366040  37.2171640 126.6800550
  65.6578860  37.1758120 127.6286370  65.1514550  38.0795790 126.5247280
  69.4994410  34.9939040 134.6964240  69.5167150  35.4447690 135.5406090
  69.2509990  34.0944680 134.9097680  64.5487540  39.5272780 126.0783850
  63.9804440  39.0791030 125.4519760  65.2576540  39.8865560 125.5449000
  72.9265160  32.4071220 140.5350620  73.2510930  31.6760880 141.0608600
  72.9621670  32.0884860 139.6331610  59.6256720  43.4284800 139.9550580
  59.2411510  42.7878470 140.5533540  59.9368910  44.1320920 140.5245310
  65.7753860  40.2761340 135.4359200  66.1423990  39.8019910 136.1820540
  65.5858920  41.1502910 135.7767540  58.6394350  35.0205030 131.5652670
  58.3541270  34.6560700 132.4031290  58.5773210  34.2885490 130.9515810
  63.5653230  39.3169980 137.7543410  63.2610300  40.1961960 137.9793770
  64.5199690  39.3769770 137.7900850  62.0935020  43.5230970 128.3510260
  61.3197280  42.9828590 128.1908980  62.8229650  43.0037580 128.0128020
  72.8523000  42.5196330 134.1436650  73.5722120  43.0151620 133.7532760
  72.6504820  41.8414220 133.4990520  68.3132940  33.9134290 128.2866040
  67.4997550  33.4147460 128.2111350  68.1194890  34.7532540 127.8702390
  68.2341800  42.5905390 140.0305650  68.1679110  41.6701060 139.7763240
  67.6046940  42.6880830 140.7450290  71.0281330  38.2853940 126.5828200
  71.9160950  38.5971170 126.4079540  70.9986420  37.4126190 126.1908780
  62.1372420  43.1911350 131.9889070  62.6551090  42.3879610 131.9345960
  61.6856440  43.1290490 132.8305900  67.0241920  44.4577630 127.2616370
  67.3657620  45.2019860 126.7659690  66.1954630  44.7708750 127.6241200
  59.6216960  40.1572720 138.9014770  59.2631900  40.8226570 139.4888110
  59.3271520  39.3256270 139.2727390  62.8230080  40.6156960 141.7854320
  62.5230220  40.7614140 140.8882140  63.5941320  40.0562250 141.6927710
  68.1658530  45.4125960 139.7809450  68.1803070  44.4806920 139.5628360
  67.4583630  45.4985720 140.4199220  73.2995600  39.5965780 126.0508060
  73.2159320  40.0280000 125.2004500  74.0189790  40.0564130 126.4834880
  74.3769740  42.0533300 139.1278030  73.6517930  42.6462080 138.9307420
  74.9045200  42.0456840 138.3291400  69.9069330  43.7793470 132.6261880
  70.2593150  43.1821600 131.9663250  69.0231660  43.4537700 132.7970130
  65.9932610  44.5391160 130.0332290  66.6803740  45.0860370 130.4139880
  65.2065030  45.0831890 130.0681900  58.1325010  40.1563980 125.5249370
  59.0019860  40.4388780 125.8085290  57.6415330  40.9699850 125.4098180
  65.2959820  41.5437190 129.6457650  65.7522600  42.3542440 129.8717840
  64.9448030  41.2260330 130.4776140  67.5992430  47.0543530 136.8749950
  68.2434650  47.2602910 137.5523370  67.9621870  46.2931930 136.4220800
  61.1971600  31.8874840 130.1180170  61.0686230  31.8792740 131.0665090
  60.3733620  32.2257930 129.7671180  68.8724510  45.0575880 135.5927400
  69.5146740  44.3569040 135.7059570  69.3973860  45.8374320 135.4124290
  72.7180230  45.3424500 125.3166540  72.4917810  44.6254940 125.9091180
  72.3276430  45.0936940 124.4788290  70.6462130  45.8570780 138.7963460
  70.9818370  46.4437470 139.4741380  69.7262470  45.7263490 139.0261250
  58.1965530  33.6465960 139.5786870  57.4824050  33.8462880 140.1839480
  58.6160570  32.8705530 139.9501670  72.2996480  43.2596440 126.9780700
  72.0118180  43.7209130 127.7658580  73.0948650  42.7994210 127.2464920
  58.4838120  47.6346220 140.5653400  58.5929240  46.6940960 140.4248790
  57.8318680  47.9000970 139.9167130  66.4750710  45.9062110 141.9651520
  66.1547580  45.1871350 142.5097210  65.8009070  46.5817180 142.0387580
  64.5164880  46.7522560 126.9084670  64.5074980  47.4852250 126.2929180
  63.5963240  46.5054140 127.0011630  60.1171520  41.9737450 127.6531430
  59.5099470  42.7136350 127.6626730  60.5920870  42.0636810 126.8269630
  69.6904310  36.1388270 137.3288320  70.0585130  35.3183480 137.6567890
  68.8302510  36.1990160 137.7443970  67.5024480  46.8150800 125.5709860
  67.6036460  46.6114790 124.6411840  66.6026220  46.5609080 125.7757640
  65.0250370  37.3731160 129.5533760  64.3166520  37.8417500 129.9947370
  65.3094850  36.7153170 130.1878950  66.6506300  38.7927860 137.5526290
  67.1491550  39.2673680 138.2178140  66.7929250  37.8691380 137.7596320
  69.0565800  34.0981820 130.9929550  68.9333580  34.1167950 130.0439060
  70.0050360  34.1460760 131.1127950  66.1442590  49.3337120 130.2657530
  66.3984090  49.2958510 129.3436900  65.1955070  49.2070450 130.2585780
  63.2285390  35.6816240 126.9284470  64.0775920  36.1186390 126.8624660
  62.8616660  35.9936500 127.7556530  73.8573160  35.0095820 138.3954680
  73.3546760  35.7501220 138.7348490  74.6729820  35.3979820 138.0791470
  72.1495170  40.2529000 131.8416040  71.2085310  40.2679230 132.0163730
  72.4639240  39.4664960 132.2876340  62.1276810  41.9348600 125.4020000
  62.8940080  41.8229960 125.9645430  62.2051500  41.2386570 124.7496770
  60.8223570  39.3673670 126.0852890  60.9027160  38.4201180 126.1970290
  61.7143320  39.6980550 126.1913550  61.6238280  49.5169060 133.1887430
  62.3600760  48.9684520 133.4596000  62.0079200  50.3825070 133.0493420
  58.5083760  45.5842630 129.0628940  57.5823540  45.8263770 129.0534350
  58.9740190  46.4116890 128.9413690  60.6296560  48.7015130 142.3773010
  61.4309290  49.0227180 142.7908410  60.1148380  48.3410710 143.0992920
  69.4661190  44.8095000 142.3248420  68.8599350  44.8326600 141.5844170
  69.1615300  44.0778040 142.8615670  70.8961560  48.5375290 140.9357830
  71.8483310  48.4533310 140.8858070  70.7489780  49.2017000 141.6091620
  73.7870760  47.9169500 126.4349740  73.5012270  47.5034640 125.6203920
  73.5890310  48.8457210 126.3150260  58.3494370  41.1888590 141.3209060
  58.8533390  40.6095870 141.8925290  57.6101790  41.4728820 141.8585430
  65.4032310  42.5959580 140.8544580  64.6377980  43.1644580 140.7699250
  65.5848270  42.3035790 139.9612810  68.4920720  42.9722810 125.4797340
  67.9430820  43.4192110 126.1240080  69.1139980  42.4672060 126.0035010
  72.5455660  44.3264910 141.4119600  73.2865130  44.6640670 140.9087060
  71.7828340  44.4956970 140.8589370  60.3817450  39.3318180 142.2159130
  60.4222790  39.0332050 143.1244360  61.2362950  39.7325790 142.0566650
  64.1595840  41.9313730 127.3762640  64.5812260  41.7653600 128.2194030
  64.2846680  41.1213960 126.8817780  62.3223260  37.9110280 140.1833620
  61.7919720  37.4201230 139.5556960  62.9911330  38.3394480 139.6491550
  66.6723480  40.9551340 124.6239740  67.1929140  40.2400360 124.2580890
  67.3191880  41.5937210 124.9240250  71.2201320  42.3779740 139.9474810
  71.6342340  42.5324820 140.7965230  70.2852320  42.5034960 140.1100590
  71.6923490  39.7175900 141.9513960  72.2744260  38.9628220 141.8634440
  71.8685260  40.2483340 141.1745440  62.8095560  34.8772650 140.2630910
  62.7152430  34.2593400 139.5381780  62.2292950  35.6038940 140.0360820
  65.5757000  33.4345890 137.2958300  65.1274300  33.4570150 136.4503850
  64.9422200  33.0364910 137.8928600  65.9816550  42.3300220 137.9170740
  66.4004660  43.1732950 137.7446980  65.0625180  42.4672260 137.6877520
  68.3180450  40.0616400 139.3008580  68.4376660  39.4657540 140.0403420
  69.1774450  40.0986090 138.8809880  70.6568350  40.6153590 137.8771090
  70.1303570  41.1396210 137.2736230  70.9999690  41.2480980 138.5080820
  63.0554740  38.0046960 124.3220800  62.8543800  37.1414320 124.6834140
  62.8846790  37.9180320 123.3842400  63.8323970  48.6353230 139.0328470
  63.2945060  49.3599290 138.7137170  64.0857930  48.1583570 138.2425810
  65.0849220  36.6037750 140.5584400  65.6748910  36.2953600 141.2462220
  64.2669460  36.1317500 140.7144300  69.9042650  36.2203560 140.7917420
  69.2158170  35.5585100 140.7267410  70.6248670  35.7741830 141.2365880
  70.5343050  32.8155190 126.8507680  70.8145340  31.9723090 127.2067100
  69.7608780  33.0478300 127.3646430  66.6886180  49.8704440 139.2915120
  66.6144880  50.7739580 139.5987490  65.7865020  49.5516340 139.2637190
  65.0722470  34.0482200 125.2954880  64.7244470  33.3706190 124.7157330
  65.2735240  33.5871710 126.1098270  67.2371510  49.0362950 126.9141480
  68.1322300  49.3747920 126.9360240  67.2689140  48.3142360 126.2865760
  58.0913470  47.1979030 132.5948740  58.4216480  46.3300090 132.3627380
  58.5204470  47.4037550 133.4253700  62.6875390  45.5288040 130.2550710
  62.3870930  45.4053010 131.1554620  62.5812880  44.6696630 129.8466440
  58.5803680  48.0649620 135.3330370  58.1434670  48.2450420 136.1654520
  59.1481360  48.8224240 135.1912090  74.2165860  47.5666620 139.6207680
  73.6167850  47.6259180 138.8771600  74.3459760  46.6271600 139.7504530
  75.4567310  45.3084440 124.9577390  74.6260270  45.3761090 125.4284620
  75.6339140  46.1988560 124.6544250  74.9123770  42.0531920 127.4611590
  75.6742680  42.6228570 127.5671280  74.9278140  41.4859120 128.2319900
  58.4128110  40.5769850 131.6919250  57.7576950  40.3081490 131.0478950
  59.2506060  40.4674330 131.2421230  75.9183740  42.9082020 132.3053520
  76.2892570  42.1249340 131.8989490  76.5585670  43.5971120 132.1270820
  72.9017500  44.2918600 137.7183840  72.0877340  44.7215760 137.9809630
  73.3091700  44.9037010 137.1052890  74.9642940  42.3466290 124.6184110
  75.2391780  43.2545170 124.4903330  74.7753680  42.2828820 125.5546100
  74.8608280  40.2835280 129.6113540  74.4851880  39.5163210 129.1794830
  74.1311400  40.6657980 130.0988470  59.4504040  40.9622420 136.2322590
  59.8177080  40.8749820 137.1118610  58.8814860  40.1988970 136.1329450
  74.2507900  39.4306800 139.2453060  74.0193990  39.2019550 138.3451010
  74.5112450  40.3506350 139.1997950  59.0020040  37.8731510 140.1381010
  58.1076090  37.8398270 140.4774720  59.5417590  38.0718300 140.9032260
  72.6895970  34.6563230 142.0232760  73.5666150  34.6646630 142.4066760
  72.7016810  33.9194070 141.4125110  57.6266190  37.7868780 127.6344580
  56.7230270  38.0498980 127.4596240  58.1106810  38.0579950 126.8544540
  74.1359240  38.5092770 132.9120780  74.6596720  38.0155420 132.2810950
  74.7218660  38.6443130 133.6568350  74.3148960  38.5932640 136.4340330
  73.3651670  38.5596180 136.5485320  74.4961970  39.5032750 136.1990100
  60.1693400  36.8434320 125.5438960  60.8785100  36.4217540 125.0586240
  59.4533340  36.9109550 124.9122310  73.6259210  37.7666120 128.8513190
  74.1218330  37.5336990 129.6362070  73.4275280  36.9277960 128.4350830
  59.5059750  32.1479840 134.4864230  60.1535940  31.5977220 134.0459390
  59.9261590  32.4022990 135.3080040  75.0546370  36.4027070 131.3850870
  74.9445650  36.2483110 132.3233140  75.8153960  35.8748010 131.1426280
  73.4012090  32.3421200 137.8433870  74.0384310  32.9555340 138.2093060
  73.5486980  32.3781860 136.8983100  59.2591750  32.3035510 137.2289550
  58.9106570  32.7599330 137.9947730  58.9279450  31.4092640 137.3111980
  60.8656120  45.4755110 141.3942740  60.8225750  45.1048020 142.2757200
  60.9967130  46.4132680 141.5344560  64.5662150  47.0314700 136.9952460
  64.3253510  47.2989260 136.1082980  65.5064790  47.2020430 137.0503320
  66.7716570  33.4947390 140.7508970  66.7105460  34.0869220 141.5004380
  67.7116950  33.3873350 140.6059230  69.4091130  33.1517450 140.3901260
  70.0231540  33.4696740 139.7282340  69.9540690  32.6666040 141.0097120
  75.8266310  49.0509080 137.7963100  75.3324590  49.4477950 137.0790230
  75.2179600  48.4258290 138.1900380  59.9312390  31.8311710 140.5040320
  60.4795380  31.6499760 139.7406430  59.9967700  31.0405820 141.0396630
  60.7044150  48.4217360 138.5140520  60.1104470  48.2902060 139.2530560
  60.6967990  47.5855500 138.0482620  70.1499170  31.7149590 136.7170550
  69.2759010  32.0484700 136.5143480  70.0409920  31.2422770 137.5422420
  71.0571150  33.9220460 138.1012270  70.7284510  33.1072220 137.7214000
  72.0053450  33.8790270 137.9777960  60.3356380  45.7875740 137.4648560
  59.6090440  45.1681030 137.3974510  60.3965530  46.1816350 136.5946640
  63.9401480  48.0020740 134.2497970  64.4566500  47.3908100 133.7246230
  64.5898860  48.5049520 134.7408980  66.6796980  48.8929230 135.0766950
  66.9674790  48.6383530 134.1999960  67.1920200  48.3406590 135.6672520
  67.8973990  32.6319430 135.6563460  67.1145780  33.1064930 135.9360220
  67.6036920  31.7274260 135.5476640  72.4495060  33.3342530 133.7012550
  72.8903150  33.2787630 132.8534150  72.1802650  34.2500540 133.7722730
  74.3133630  32.9657770 131.7121370  74.2522030  32.0218990 131.5652390
  75.0925660  33.0737860 132.2574830  58.6186380  49.1050130 130.6745320
  58.4508420  48.4720810 131.3727210  57.7520890  49.3109530 130.3239510
  59.2414400  32.9366910 128.1777180  59.9993760  33.0495790 127.6041210
  58.7791570  33.7736110 128.1320610  65.7828210  35.0506180 131.1679490
  64.9702720  34.6763070 130.8275370  66.2869850  34.2951260 131.4700680
  70.2853190  31.7148630 132.4062560  70.8882560  32.2868840 132.8811080
  69.5446180  32.2788070 132.1836460  73.4287790  32.1170190 127.6802840
  73.6238420  33.0153640 127.9470270  72.6417660  31.8857270 128.1735790
  60.2249080  47.7983360 128.1195460  59.6996700  48.1791390 127.4157420
  60.1493660  48.4234130 128.8405170  61.6139550  33.4630960 126.7179150
  62.1432310  32.6760760 126.5887100  62.2467870  34.1422150 126.9514680
  63.8077390  33.2006100 129.7724540  63.1780130  32.4993410 129.9394670
  63.2682530  33.9610230 129.5557700  66.7469340  49.8145330 142.4435150
  67.6736650  49.5789600 142.4871110  66.7319770  50.6417330 141.9621180
  63.9332950  32.4790080 142.2077030  63.6517220  32.9823680 141.4437850
  64.3152650  31.6811830 141.8419160  61.9856840  45.8630470 126.9991040
  61.3565720  46.3315570 127.5476870  62.1004670  45.0179690 127.4337230
  70.5348410  31.8943660 142.7857500  70.4213860  32.2138270 143.6809020
  71.3518150  32.2956170 142.4894780  73.3146900  49.0415190 142.2676190
  74.1072220  48.5464420 142.0602150  73.6080050  49.7205330 142.8751800
  69.4406560  39.9136130 113.1492240  69.3600610  38.9990740 112.8783950
  69.0270980  40.4103200 112.4431950  61.5890430  42.0034960 115.9077270
  60.7575310  41.7483670 116.3073780  62.1971410  42.0745730 116.6435190
  57.9615390  39.5642500 115.5759360  58.5331500  38.7964700 115.5763000
  57.9616930  39.8631260 114.6665970  68.0438760  37.1742720 115.2640600
  68.4203580  36.3014600 115.1514270  67.9458270  37.5101420 114.3731040
  71.8262880  34.6693160 112.1968940  72.6472500  34.1789730 112.2394420
  71.8596960  35.2590820 112.9500780  59.8226930  37.4687360 115.9710630
  60.5037040  37.7325730 116.5898030  59.5074980  36.6288230 116.3048640
  64.0151500  38.5154720 115.0583220  64.5229720  39.0135690 115.6988240
  64.5464740  37.7389920 114.8822580  76.1162430  36.6859910 118.7612570
  75.4114600  37.0741620 118.2427680  76.3820350  37.3810200 119.3633500
  63.5490450  42.7948460 117.5020140  63.2159830  43.4217380 118.1441210
  63.7257130  43.3210340 116.7221810  72.0624360  36.6093540 114.9696480
  71.3579930  36.8978430 115.5499590  72.4236520  37.4193650 114.6096040
  61.9802930  34.8663240 117.3317090  62.3219740  35.7105290 117.0370960
  61.0418740  35.0146980 117.4482430  68.0511580  40.4194340 110.3921800
  67.1240860  40.3531720 110.6210270  68.2036400  41.3574470 110.2777040
  63.6568220  40.9459080 113.1741530  63.2525220  40.2336330 112.6787430
  63.7431340  40.6012320 114.0629570  62.3696840  37.7202290 116.9540570
  62.9211430  37.8297630 116.1793820  62.8840350  38.0939890 117.6695800
  62.0439570  41.2421650 120.5645910  61.9047340  42.1144450 120.9333310
  61.1620930  40.8994460 120.4193850  68.3668950  46.1597520 111.8711040
  68.8064860  46.9021850 111.4566430  68.3055840  46.4024090 112.7950000
  73.8390710  32.4744260 106.2170840  73.5263370  32.5671090 107.1169910
  74.6003180  33.0525290 106.1668270  60.3572850  39.8404060 110.6748180
  60.2370450  40.5666150 110.0629450  60.0473740  39.0706970 110.1976090
  75.7934740  47.9670450 124.0695230  76.2694460  48.4453340 124.7484310
  76.4141900  47.8987940 123.3440730  59.2405850  44.7119390 112.8923000
  58.8333930  44.8533980 112.0376600  60.1318860  44.4279550 112.6894210
  75.1967990  45.1583300 121.2295240  75.3231050  44.9195180 120.3112420
  75.2389370  44.3267840 121.7017320  71.0339130  49.1466640 109.2274050
  70.8740270  48.8569580 110.1255880  70.8685840  48.3706770 108.6919280
  63.5127510  48.9265170 111.0045670  63.3369990  48.0100710 110.7913470
  62.6583250  49.2852460 111.2443470  58.0517740  44.0533370 119.0211280
  58.2148780  43.5838730 118.2030650  58.5170190  43.5456930 119.6860120
  62.6150730  38.3072700 111.7853100  62.3891650  38.0909870 112.6899720
  61.8343260  38.7401160 111.4399070  69.8448490  38.3136070 110.3843750
  69.2457380  39.0371870 110.2007370  70.3928100  38.2512850 109.6020200
  68.4513360  36.9499610 112.4147030  68.8442930  37.2671810 111.6015720
  68.8130210  36.0711490 112.5291550  57.4877530  33.5400410 114.6377230
  57.1990580  34.1103270 115.3502210  58.2323290  33.0604860 115.0008460
  61.3248270  36.0986050 113.8744510  60.9848320  36.5761280 114.6311560
  60.5625590  35.6451170 113.5145610  69.4994410  34.9939040 115.9220750
  69.5167150  35.4447690 116.7662600  69.2509990  34.0944680 116.1354190
  64.5487540  39.5272780 107.3040360  63.9804440  39.0791030 106.6776270
  65.2576540  39.8865560 106.7705510  72.9265160  32.4071220 121.7607130
  73.2510930  31.6760880 122.2865110  72.9621670  32.0884860 120.8588120
  59.6256720  43.4284800 121.1807090  59.2411510  42.7878470 121.7790050
  59.9368910  44.1320920 121.7501820  62.0935020  43.5230970 109.5766770
  61.3197280  42.9828590 109.4165490  62.8229650  43.0037580 109.2384530
  72.8523000  42.5196330 115.3693160  73.5722120  43.0151620 114.9789270
  72.6504820  41.8414220 114.7247030  71.0281330  38.2853940 107.8084710
  71.9160950  38.5971170 107.6336050  70.9986420  37.4126190 107.4165290
  62.1372420  43.1911350 113.2145580  62.6551090  42.3879610 113.1602470
  61.6856440  43.1290490 114.0562410  59.6216960  40.1572720 120.1271280
  59.2631900  40.8226570 120.7144620  59.3271520  39.3256270 120.4983900
  62.8230080  40.6156960 123.0110830  62.5230220  40.7614140 122.1138650
  63.5941320  40.0562250 122.9184220  73.2995600  39.5965780 107.2764570
  73.2159320  40.0280000 106.4261010  74.0189790  40.0564130 107.7091390
  74.3769740  42.0533300 120.3534540  73.6517930  42.6462080 120.1563930
  74.9045200  42.0456840 119.5547910  65.9932610  44.5391160 111.2588800
  66.6803740  45.0860370 111.6396390  65.2065030  45.0831890 111.2938410
  65.2959820  41.5437190 110.8714160  65.7522600  42.3542440 111.0974350
  64.9448030  41.2260330 111.7032650  58.4996260  49.3691360 107.3167510
  58.8593900  49.9680700 106.6624780  58.3588600  49.9151250 108.0902540
  58.4838120  47.6346220 121.7909910  58.5929240  46.6940960 121.6505300
  57.8318680  47.9000970 121.1423640  60.1171520  41.9737450 108.8787940
  59.5099470  42.7136350 108.8883240  60.5920870  42.0636810 108.0526140
  73.0566340  35.0945210 109.3632390  72.4279500  35.1990880 108.6490620
  72.5618260  35.3141990 110.1526270  69.0565800  34.0981820 112.2186060
  68.9333580  34.1167950 111.2695570  70.0050360  34.1460760 112.3384460
  66.1442590  49.3337120 111.4914040  66.3984090  49.2958510 110.5693410
  65.1955070  49.2070450 111.4842290  73.8573160  35.0095820 119.6211190
  73.3546760  35.7501220 119.9605000  74.6729820  35.3979820 119.3047980
  72.1495170  40.2529000 113.0672550  71.2085310  40.2679230 113.2420240
  72.4639240  39.4664960 113.5132850  62.1276810  41.9348600 106.6276510
  62.8940080  41.8229960 107.1901940  62.2051500  41.2386570 105.9753280
  61.6238280  49.5169060 114.4143940  62.3600760  48.9684520 114.6852510
  62.0079200  50.3825070 114.2749930  58.5083760  45.5842630 110.2885450
  57.5823540  45.8263770 110.2790860  58.9740190  46.4116890 110.1670200
  64.7340590  48.6899370 106.2369510  65.5269200  48.9788200 105.7851300
  64.2144940  48.2591540 105.5581990  69.4661190  44.8095000 123.5504930
  68.8599350  44.8326600 122.8100680  69.1615300  44.0778040 124.0872180
  70.8961560  48.5375290 122.1614340  71.8483310  48.4533310 122.1114580
  70.7489780  49.2017000 122.8348130  73.7870760  47.9169500 107.6606250
  73.5012270  47.5034640 106.8460430  73.5890310  48.8457210 107.5406770
  58.3494370  41.1888590 122.5465570  58.8533390  40.6095870 123.1181800
  57.6101790  41.4728820 123.0841940  72.5455660  44.3264910 122.6376110
  73.2865130  44.6640670 122.1343570  71.7828340  44.4956970 122.0845880
  60.3817450  39.3318180 123.4415640  60.4222790  39.0332050 124.3500870
  61.2362950  39.7325790 123.2823160  64.1595840  41.9313730 108.6019150
  64.5812260  41.7653600 109.4450540  64.2846680  41.1213960 108.1074290
  66.6723480  40.9551340 105.8496250  67.1929140  40.2400360 105.4837400
  67.3191880  41.5937210 106.1496760  65.9816550  42.3300220 119.1427250
  66.4004660  43.1732950 118.9703490  65.0625180  42.4672260 118.9134030
  70.5343050  32.8155190 108.0764190  70.8145340  31.9723090 108.4323610
  69.7608780  33.0478300 108.5902940  60.8767670  44.4090000 106.3684990
  61.3142540  44.9519670 107.0242570  61.3615400  43.5836950 106.3781330
  58.0913470  47.1979030 113.8205250  58.4216480  46.3300090 113.5883890
  58.5204470  47.4037550 114.6510210  62.6875390  45.5288040 111.4807220
  62.3870930  45.4053010 112.3811130  62.5812880  44.6696630 111.0722950
  58.5803680  48.0649620 116.5586880  58.1434670  48.2450420 117.3911030
  59.1481360  48.8224240 116.4168600  74.2165860  47.5666620 120.8464190
  73.6167850  47.6259180 120.1028110  74.3459760  46.6271600 120.9761040
  74.9123770  42.0531920 108.6868100  75.6742680  42.6228570 108.7927790
  74.9278140  41.4859120 109.4576410  58.4128110  40.5769850 112.9175760
  57.7576950  40.3081490 112.2735460  59.2506060  40.4674330 112.4677740
  75.9183740  42.9082020 113.5310030  76.2892570  42.1249340 113.1246000
  76.5585670  43.5971120 113.3527330  71.3618550  35.3711140 107.1394250
  71.7803430  35.1842120 106.2990910  71.0554610  34.5190190 107.4497180
  74.8608280  40.2835280 110.8370050  74.4851880  39.5163210 110.4051340
  74.1311400  40.6657980 111.3244980  59.4504040  40.9622420 117.4579100
  59.8177080  40.8749820 118.3375120  58.8814860  40.1988970 117.3585960
  59.0020040  37.8731510 121.3637520  58.1076090  37.8398270 121.7031230
  59.5417590  38.0718300 122.1288770  74.1359240  38.5092770 114.1377290
  74.6596720  38.0155420 113.5067460  74.7218660  38.6443130 114.8824860
  74.3148960  38.5932640 117.6596840  73.3651670  38.5596180 117.7741830
  74.4961970  39.5032750 117.4246610  73.6259210  37.7666120 110.0769700
  74.1218330  37.5336990 110.8618580  73.4275280  36.9277960 109.6607340
  59.5059750  32.1479840 115.7120740  60.1535940  31.5977220 115.2715900
  59.9261590  32.4022990 116.5336550  73.4012090  32.3421200 119.0690380
  74.0384310  32.9555340 119.4349570  73.5486980  32.3781860 118.1239610
  75.9436640  34.2334990 105.8513520  76.8685950  34.1016170 105.6431810
  75.9212430  34.3127810 106.8049970  76.0175130  35.0045650 108.4770230
  75.2226630  34.9390770 109.0063140  76.2218410  35.9396290 108.4655580
  64.5662150  47.0314700 118.2208970  64.3253510  47.2989260 117.3339490
  65.5064790  47.2020430 118.2759830  69.4091130  33.1517450 121.6157770
  70.0231540  33.4696740 120.9538850  69.9540690  32.6666040 122.2353630
  75.8266310  49.0509080 119.0219610  75.3324590  49.4477950 118.3046740
  75.2179600  48.4258290 119.4156890  60.7044150  48.4217360 119.7397030
  60.1104470  48.2902060 120.4787070  60.6967990  47.5855500 119.2739130
  70.1499170  31.7149590 117.9427060  69.2759010  32.0484700 117.7399990
  70.0409920  31.2422770 118.7678930  71.0571150  33.9220460 119.3268780
  70.7284510  33.1072220 118.9470510  72.0053450  33.8790270 119.2034470
  63.9401480  48.0020740 115.4754480  64.4566500  47.3908100 114.9502740
  64.5898860  48.5049520 115.9665490  72.4495060  33.3342530 114.9269060
  72.8903150  33.2787630 114.0790660  72.1802650  34.2500540 114.9979240
  74.3133630  32.9657770 112.9377880  74.2522030  32.0218990 112.7908900
  75.0925660  33.0737860 113.4831340  58.6186380  49.1050130 111.9001830
  58.4508420  48.4720810 112.5983720  57.7520890  49.3109530 111.5496020
  70.2853190  31.7148630 113.6319070  70.8882560  32.2868840 114.1067590
  69.5446180  32.2788070 113.4092970  73.4287790  32.1170190 108.9059350
  73.6238420  33.0153640 109.1726780  72.6417660  31.8857270 109.3992300
  60.2249080  47.7983360 109.3451970  59.6996700  48.1791390 108.6413930
  60.1493660  48.4234130 110.0661680  62.8242050  49.7465740 108.2201220
  63.5560870  49.4625020 107.6725110  63.0835720  49.5079020 109.1100600
  61.9856840  45.8630470 108.2247550  61.3565720  46.3315570 108.7733380
  62.1004670  45.0179690 108.6593740  70.5348410  31.8943660 124.0114010
  70.4213860  32.2138270 124.9065530  71.3518150  32.2956170 123.7151290
  73.3146900  49.0415190 123.4932700  74.1072220  48.5464420 123.2858660
  73.6080050  49.7205330 124.1008310  67.5724600  41.6915150  96.2558020
  66.7966700  41.2115590  96.5456590  68.2237530  41.0120800  96.0814180
  59.9982380  36.9636850  90.9176170  59.1099080  37.3052820  90.8156050
  60.2823570  36.7637170  90.0257000  59.2040260  34.9726860  98.5884800
  59.0243100  34.0752610  98.8687560  58.8020340  35.5198730  99.2631750
  62.1743770  35.5468350  91.9514550  62.2810520  36.4472080  92.2583310
  61.2636130  35.4986320  91.6609200  71.8262880  34.6693160  93.4225450
  72.6472500  34.1789730  93.4650930  71.8596960  35.2590820  94.1757290
  64.0151500  38.5154720  96.2839730  64.5229720  39.0135690  96.9244750
  64.5464740  37.7389920  96.1079090  76.1162430  36.6859910  99.9869080
  75.4114600  37.0741620  99.4684190  76.3820350  37.3810200 100.5890010
  62.2987600  33.1553280 100.5503150  62.3006040  33.6725670  99.7449050
  61.4691910  32.6783460 100.5273080  68.6858690  43.2672590  92.0493050
  68.0675960  43.7322040  91.4855770  69.1981940  43.9600070  92.4662560
  72.0624360  36.6093540  96.1952990  71.3579930  36.8978430  96.7756100
  72.4236520  37.4193650  95.8352550  61.9802930  34.8663240  98.5573600
  62.3219740  35.7105290  98.2627470  61.0418740  35.0146980  98.6738940
  75.1311280  36.0548330  96.5862200  74.1836190  36.0887310  96.7177630
  75.4561270  36.8687280  96.9711560  65.6630820  32.3545510  94.8818190
  65.9705800  31.7992400  94.1653690  64.7331520  32.4889970  94.6991180
  68.0380660  36.6911340  88.6145470  67.0984330  36.8525300  88.6997930
  68.3563920  37.4097020  88.0681460  74.5593420  41.3729860  98.5924500
  73.7312050  41.4422950  98.1174630  75.1543900  41.9584170  98.1240330
  71.5235430  38.1599180  99.5379370  71.1106610  38.9852890  99.7919360
  70.7911380  37.5744220  99.3455730  63.2168350  44.3708330 103.2145050
  62.3196880  44.5948300 103.4618450  63.2421220  44.4943270 102.2656450
  62.0439570  41.2421650 101.7902420  61.9047340  42.1144450 102.1589820
  61.1620930  40.8994460 101.6450360  68.3668950  46.1597520  93.0967550
  68.8064860  46.9021850  92.6822940  68.3055840  46.4024090  94.0206510
  63.8419920  47.1843350 103.9987570  63.8135350  47.5886300 103.1316000
  63.6784890  46.2553710 103.8359170  73.8390710  32.4744260  87.4427350
  73.5263370  32.5671090  88.3426420  74.6003180  33.0525290  87.3924780
  60.3572850  39.8404060  91.9004690  60.2370450  40.5666150  91.2885960
  60.0473740  39.0706970  91.4232600  71.0339130  49.1466640  90.4530560
  70.8740270  48.8569580  91.3512390  70.8685840  48.3706770  89.9175790
  70.7365260  46.6554200  89.0128560  70.0430420  46.6531490  88.3530840
  71.4788120  46.2313520  88.5822730  70.3015190  48.2816910  93.0877050
  70.7572140  47.5006290  93.4015670  70.6407710  48.9923730  93.6318230
  75.0492000  37.2115760 103.4201490  74.4336270  37.7195430 102.8916950
  74.7288420  36.3114090 103.3627430  58.0517740  44.0533370 100.2467790
  58.2148780  43.5838730  99.4287160  58.5170190  43.5456930 100.9116630
  62.8236510  33.1839130  95.2828360  62.3804660  33.9648670  94.9512880
  63.3821500  33.5069020  95.9899300  67.1106320  36.0507650 100.8863680
  66.6485690  36.2590670 101.6983620  66.7084430  35.2367000 100.5834350
  72.1110830  37.2716600 102.0160340  71.2604420  36.9722350 102.3369410
  71.9512620  37.5158610 101.1044160  69.2060540  38.7718350 104.1159130
  69.5313950  37.9382100 103.7761360  69.9940870  39.2946870 104.2637460
  65.9395330  32.8049830  90.1634190  65.3149510  32.8009700  90.8887500
  65.8525450  31.9380790  89.7670160  64.8612410  33.7286460  97.1417960
  65.1584740  34.6349290  97.0609980  65.4097970  33.2405240  96.5277530
  62.6150730  38.3072700  93.0109610  62.3891650  38.0909870  93.9156230
  61.8343260  38.7401160  92.6655580  65.0549940  39.2058280 103.6769880
  64.9593540  38.2653010 103.5270280  65.8981920  39.4273350 103.2817950
  68.4513360  36.9499610  93.6403540  68.8442930  37.2671810  92.8272230
  68.8130210  36.0711490  93.7548060  60.1860480  35.6171950 101.8303660
  59.7923870  36.4647160 102.0376440  59.4978880  34.9798320 102.0212300
  66.7605530  35.7006920 104.9000400  66.0703850  35.5079120 105.5346490
  67.5037830  35.9841560 105.4324700  57.4877530  33.5400410  95.8633740
  57.1990580  34.1103270  96.5758720  58.2323290  33.0604860  96.2264970
  57.6747760  37.4820530  87.0736460  57.5922430  38.4251290  87.2151450
  57.3230820  37.3395440  86.1948810  61.3248270  36.0986050  95.1001020
  60.9848320  36.5761280  95.8568070  60.5625590  35.6451170  94.7402120
  65.5366040  37.2171640  89.1313570  65.6578860  37.1758120  90.0799390
  65.1514550  38.0795790  88.9760300  69.4994410  34.9939040  97.1477260
  69.5167150  35.4447690  97.9919110  69.2509990  34.0944680  97.3610700
  64.5487540  39.5272780  88.5296870  63.9804440  39.0791030  87.9032780
  65.2576540  39.8865560  87.9962020  72.9265160  32.4071220 102.9863640
  73.2510930  31.6760880 103.5121620  72.9621670  32.0884860 102.0844630
  59.6256720  43.4284800 102.4063600  59.2411510  42.7878470 103.0046560
  59.9368910  44.1320920 102.9758330  58.6394350  35.0205030  94.0165690
  58.3541270  34.6560700  94.8544310  58.5773210  34.2885490  93.4028830
  68.3132940  33.9134290  90.7379060  67.4997550  33.4147460  90.6624370
  68.1194890  34.7532540  90.3215410  62.8230080  40.6156960 104.2367340
  62.5230220  40.7614140 103.3395160  63.5941320  40.0562250 104.1440730
  73.2995600  39.5965780  88.5021080  73.2159320  40.0280000  87.6517520
  74.0189790  40.0564130  88.9347900  74.3769740  42.0533300 101.5791050
  73.6517930  42.6462080 101.3820440  74.9045200  42.0456840 100.7804420
  58.1325010  40.1563980  87.9762390  59.0019860  40.4388780  88.2598310
  57.6415330  40.9699850  87.8611200  65.2959820  41.5437190  92.0970670
  65.7522600  42.3542440  92.3230860  64.9448030  41.2260330  92.9289160
  61.1971600  31.8874840  92.5693190  61.0686230  31.8792740  93.5178110
  60.3733620  32.2257930  92.2184200  72.7180230  45.3424500  87.7679560
  72.4917810  44.6254940  88.3604200  72.3276430  45.0936940  86.9301310
  58.4996260  49.3691360  88.5424020  58.8593900  49.9680700  87.8881290
  58.3588600  49.9151250  89.3159050  58.1965530  33.6465960 102.0299890
  57.4824050  33.8462880 102.6352500  58.6160570  32.8705530 102.4014690
  72.2996480  43.2596440  89.4293720  72.0118180  43.7209130  90.2171600
  73.0948650  42.7994210  89.6977940  58.4838120  47.6346220 103.0166420
  58.5929240  46.6940960 102.8761810  57.8318680  47.9000970 102.3680150
  60.1171520  41.9737450  90.1044450  59.5099470  42.7136350  90.1139750
  60.5920870  42.0636810  89.2782650  69.6904310  36.1388270  99.7801340
  70.0585130  35.3183480 100.1080910  68.8302510  36.1990160 100.1956990
  73.0566340  35.0945210  90.5888900  72.4279500  35.1990880  89.8747130
  72.5618260  35.3141990  91.3782780  65.0250370  37.3731160  92.0046780
  64.3166520  37.8417500  92.4460390  65.3094850  36.7153170  92.6391970
  69.0565800  34.0981820  93.4442570  68.9333580  34.1167950  92.4952080
  70.0050360  34.1460760  93.5640970  63.2285390  35.6816240  89.3797490
  64.0775920  36.1186390  89.3137680  62.8616660  35.9936500  90.2069550
  73.8573160  35.0095820 100.8467700  73.3546760  35.7501220 101.1861510
  74.6729820  35.3979820 100.5304490  62.1276810  41.9348600  87.8533020
  62.8940080  41.8229960  88.4158450  62.2051500  41.2386570  87.2009790
  60.8223570  39.3673670  88.5365910  60.9027160  38.4201180  88.6483310
  61.7143320  39.6980550  88.6426570  60.6296560  48.7015130 104.8286030
  61.4309290  49.0227180 105.2421430  60.1148380  48.3410710 105.5505940
  73.7870760  47.9169500  88.8862760  73.5012270  47.5034640  88.0716940
  73.5890310  48.8457210  88.7663280  58.3494370  41.1888590 103.7722080
  58.8533390  40.6095870 104.3438310  57.6101790  41.4728820 104.3098450
  65.4032310  42.5959580 103.3057600  64.6377980  43.1644580 103.2212270
  65.5848270  42.3035790 102.4125830  62.3223260  37.9110280 102.6346640
  61.7919720  37.4201230 102.0069980  62.9911330  38.3394480 102.1004570
  66.6723480  40.9551340  87.0752760  67.1929140  40.2400360  86.7093910
  67.3191880  41.5937210  87.3753270  65.5757000  33.4345890  99.7471320
  65.1274300  33.4570150  98.9016870  64.9422200  33.0364910 100.3441620
  65.9816550  42.3300220 100.3683760  66.4004660  43.1732950 100.1960000
  65.0625180  42.4672260 100.1390540  68.3180450  40.0616400 101.7521600
  68.4376660  39.4657540 102.4916440  69.1774450  40.0986090 101.3322900
  70.6568350  40.6153590 100.3284110  70.1303570  41.1396210  99.7249250
  70.9999690  41.2480980 100.9593840  63.0554740  38.0046960  86.7733820
  62.8543800  37.1414320  87.1347160  62.8846790  37.9180320  85.8355420
  69.9042650  36.2203560 103.2430440  69.2158170  35.5585100 103.1780430
  70.6248670  35.7741830 103.6878900  70.5343050  32.8155190  89.3020700
  70.8145340  31.9723090  89.6580120  69.7608780  33.0478300  89.8159450
  61.8537540  35.1047580  86.7611700  62.1563440  35.1115010  85.8530850
  62.5932130  34.7545440  87.2579360  66.6886180  49.8704440 101.7428140
  66.6144880  50.7739580 102.0500510  65.7865020  49.5516340 101.7150210
  65.0722470  34.0482200  87.7467900  64.7244470  33.3706190  87.1670350
  65.2735240  33.5871710  88.5611290  75.4567310  45.3084440  87.4090410
  74.6260270  45.3761090  87.8797640  75.6339140  46.1988560  87.1057270
  74.9123770  42.0531920  89.9124610  75.6742680  42.6228570  90.0184300
  74.9278140  41.4859120  90.6832920  74.9642940  42.3466290  87.0697130
  75.2391780  43.2545170  86.9416350  74.7753680  42.2828820  88.0059120
  71.3618550  35.3711140  88.3650760  71.7803430  35.1842120  87.5247420
  71.0554610  34.5190190  88.6753690  74.8608280  40.2835280  92.0626560
  74.4851880  39.5163210  91.6307850  74.1311400  40.6657980  92.5501490
  74.2507900  39.4306800 101.6966080  74.0193990  39.2019550 100.7964030
  74.5112450  40.3506350 101.6510970  59.0020040  37.8731510 102.5894030
  58.1076090  37.8398270 102.9287740  59.5417590  38.0718300 103.3545280
  72.6895970  34.6563230 104.4745780  73.5666150  34.6646630 104.8579780
  72.7016810  33.9194070 103.8638130  57.6266190  37.7868780  90.0857600
  56.7230270  38.0498980  89.9109260  58.1106810  38.0579950  89.3057560
  74.1359240  38.5092770  95.3633800  74.6596720  38.0155420  94.7323970
  74.7218660  38.6443130  96.1081370  74.3148960  38.5932640  98.8853350
  73.3651670  38.5596180  98.9998340  74.4961970  39.5032750  98.6503120
  60.1693400  36.8434320  87.9951980  60.8785100  36.4217540  87.5099260
  59.4533340  36.9109550  87.3635330  59.8167560  32.8973650  87.0354630
  60.5395690  33.4382590  87.3535850  60.0892080  32.6237070  86.1596170
  73.6259210  37.7666120  91.3026210  74.1218330  37.5336990  92.0875090
  73.4275280  36.9277960  90.8863850  59.5059750  32.1479840  96.9377250
  60.1535940  31.5977220  96.4972410  59.9261590  32.4022990  97.7593060
  75.0546370  36.4027070  93.8363890  74.9445650  36.2483110  94.7746160
  75.8153960  35.8748010  93.5939300  73.4012090  32.3421200 100.2946890
  74.0384310  32.9555340 100.6606080  73.5486980  32.3781860  99.3496120
  75.9436640  34.2334990  87.0770030  76.8685950  34.1016170  86.8688320
  75.9212430  34.3127810  88.0306480  76.0175130  35.0045650  89.7026740
  75.2226630  34.9390770  90.2319650  76.2218410  35.9396290  89.6912090
  59.2591750  32.3035510  99.6802570  58.9106570  32.7599330 100.4460750
  58.9279450  31.4092640  99.7625000  60.8656120  45.4755110 103.8455760
  60.8225750  45.1048020 104.7270220  60.9967130  46.4132680 103.9857580
  66.7716570  33.4947390 103.2021990  66.7105460  34.0869220 103.9517400
  67.7116950  33.3873350 103.0572250  69.4091130  33.1517450 102.8414280
  70.0231540  33.4696740 102.1795360  69.9540690  32.6666040 103.4610140
  59.9312390  31.8311710 102.9553340  60.4795380  31.6499760 102.1919450
  59.9967700  31.0405820 103.4909650  60.7044150  48.4217360 100.9653540
  60.1104470  48.2902060 101.7043580  60.6967990  47.5855500 100.4995640
  70.1499170  31.7149590  99.1683570  69.2759010  32.0484700  98.9656500
  70.0409920  31.2422770  99.9935440  71.0571150  33.9220460 100.5525290
  70.7284510  33.1072220 100.1727020  72.0053450  33.8790270 100.4290980
  60.3356380  45.7875740  99.9161580  59.6090440  45.1681030  99.8487530
  60.3965530  46.1816350  99.0459660  67.8973990  32.6319430  98.1076480
  67.1145780  33.1064930  98.3873240  67.6036920  31.7274260  97.9989660
  72.4495060  33.3342530  96.1525570  72.8903150  33.2787630  95.3047170
  72.1802650  34.2500540  96.2235750  74.3133630  32.9657770  94.1634390
  74.2522030  32.0218990  94.0165410  75.0925660  33.0737860  94.7087850
  59.2414400  32.9366910  90.6290200  59.9993760  33.0495790  90.0554230
  58.7791570  33.7736110  90.5833630  65.7828210  35.0506180  93.6192510
  64.9702720  34.6763070  93.2788390  66.2869850  34.2951260  93.9213700
  73.4287790  32.1170190  90.1315860  73.6238420  33.0153640  90.3983290
  72.6417660  31.8857270  90.6248810  61.6139550  33.4630960  89.1692170
  62.1432310  32.6760760  89.0400120  62.2467870  34.1422150  89.4027700
  63.8077390  33.2006100  92.2237560  63.1780130  32.4993410  92.3907690
  63.2682530  33.9610230  92.0070720  74.9814400  49.3570900  91.8922420
  75.1566590  48.6708640  91.2483340  74.2835970  49.8817950  91.4999090
  70.5348410  31.8943660 105.2370520  70.4213860  32.2138270 106.1322040
  71.3518150  32.2956170 104.9407800  67.5724600  41.6915150  77.4814530
  66.7966700  41.2115590  77.7713100  68.2237530  41.0120800  77.3070690
  61.5890430  42.0034960  78.3590290  60.7575310  41.7483670  78.7586800
  62.1971410  42.0745730  79.0948210  71.5932030  46.0975340  76.2613660
  71.1313560  45.3262580  76.5900830  72.4057580  46.1241410  76.7666110
  57.9615390  39.5642500  78.0272380  58.5331500  38.7964700  78.0276020
  57.9616930  39.8631260  77.1178990  67.0133590  44.3672340  77.4884690
  66.9441870  43.4262280  77.3273820  67.7753450  44.4573750  78.0607260
  64.0151500  38.5154720  77.5096240  64.5229720  39.0135690  78.1501260
  64.5464740  37.7389920  77.3335600  76.1162430  36.6859910  81.2125590
  75.4114600  37.0741620  80.6940700  76.3820350  37.3810200  81.8146520
  68.6858690  43.2672590  73.2749560  68.0675960  43.7322040  72.7112280
  69.1981940  43.9600070  73.6919070  63.5490450  42.7948460  79.9533160
  63.2159830  43.4217380  80.5954230  63.7257130  43.3210340  79.1734830
  62.7609550  44.7629260  81.7682340  63.3783550  45.4380340  81.4866790
  61.9002670  45.1717240  81.6769840  73.6787140  46.2268670  79.6836980
  72.9950660  46.8967780  79.6753650  74.2181430  46.4249320  78.9181840
  75.1311280  36.0548330  77.8118710  74.1836190  36.0887310  77.9434140
  75.4561270  36.8687280  78.1968070  70.6131320  42.9742640  79.7264770
  71.0300110  42.7602750  78.8918230  71.3371140  43.2315430  80.2973390
  68.0380660  36.6911340  69.8401980  67.0984330  36.8525300  69.9254440
  68.3563920  37.4097020  69.2937970  74.5593420  41.3729860  79.8181010
  73.7312050  41.4422950  79.3431140  75.1543900  41.9584170  79.3496840
  64.1249920  44.6326640  77.7893760  63.8278210  44.0272110  77.1101540
  65.0749740  44.6703950  77.6783120  62.3696840  37.7202290  79.4053590
  62.9211430  37.8297630  78.6306840  62.8840350  38.0939890  80.1208820
  72.2135530  48.2058510  81.4516860  71.7366090  49.0130700  81.2589470
  71.5297320  47.5536840  81.6043070  63.2168350  44.3708330  84.4401560
  62.3196880  44.5948300  84.6874960  63.2421220  44.4943270  83.4912960
  70.2573570  41.2201450  70.3542820  70.6966850  40.3823880  70.2080640
  70.9701990  41.8530850  70.4406960  62.0439570  41.2421650  83.0158930
  61.9047340  42.1144450  83.3846330  61.1620930  40.8994460  82.8706870
  68.3668950  46.1597520  74.3224060  68.8064860  46.9021850  73.9079450
  68.3055840  46.4024090  75.2463020  73.8390710  32.4744260  68.6683860
  73.5263370  32.5671090  69.5682930  74.6003180  33.0525290  68.6181290
  75.1967990  45.1583300  83.6808260  75.3231050  44.9195180  82.7625440
  75.2389370  44.3267840  84.1530340  69.0584730  48.8611300  82.2503070
  69.5729400  48.7719310  83.0525500  68.2153810  49.2071000  82.5430980
  69.2060540  38.7718350  85.3415640  69.5313950  37.9382100  85.0017870
  69.9940870  39.2946870  85.4893970  65.9395330  32.8049830  71.3890700
  65.3149510  32.8009700  72.1144010  65.8525450  31.9380790  70.9926670
  69.8448490  38.3136070  72.8356770  69.2457380  39.0371870  72.6520390
  70.3928100  38.2512850  72.0533220  65.0549940  39.2058280  84.9026390
  64.9593540  38.2653010  84.7526790  65.8981920  39.4273350  84.5074460
  60.1860480  35.6171950  83.0560170  59.7923870  36.4647160  83.2632950
  59.4978880  34.9798320  83.2468810  66.7605530  35.7006920  86.1256910
  66.0703850  35.5079120  86.7603000  67.5037830  35.9841560  86.6581210
  65.4745890  36.2159560  77.3663320  65.4781950  35.7749510  76.5167860
  66.3697010  36.5376890  77.4735140  65.5366040  37.2171640  70.3570080
  65.6578860  37.1758120  71.3055900  65.1514550  38.0795790  70.2016810
  64.5487540  39.5272780  69.7553380  63.9804440  39.0791030  69.1289290
  65.2576540  39.8865560  69.2218530  72.9265160  32.4071220  84.2120150
  73.2510930  31.6760880  84.7378130  72.9621670  32.0884860  83.3101140
  65.7753860  40.2761340  79.1128730  66.1423990  39.8019910  79.8590070
  65.5858920  41.1502910  79.4537070  63.5653230  39.3169980  81.4312940
  63.2610300  40.1961960  81.6563300  64.5199690  39.3769770  81.4670380
  62.0935020  43.5230970  72.0279790  61.3197280  42.9828590  71.8678510
  62.8229650  43.0037580  71.6897550  72.8523000  42.5196330  77.8206180
  73.5722120  43.0151620  77.4302290  72.6504820  41.8414220  77.1760050
  68.3132940  33.9134290  71.9635570  67.4997550  33.4147460  71.8880880
  68.1194890  34.7532540  71.5471920  71.0281330  38.2853940  70.2597730
  71.9160950  38.5971170  70.0849070  70.9986420  37.4126190  69.8678310
  62.1372420  43.1911350  75.6658600  62.6551090  42.3879610  75.6115490
  61.6856440  43.1290490  76.5075430  67.0241920  44.4577630  70.9385900
  67.3657620  45.2019860  70.4429220  66.1954630  44.7708750  71.3010730
  62.8230080  40.6156960  85.4623850  62.5230220  40.7614140  84.5651670
  63.5941320  40.0562250  85.3697240  68.1658530  45.4125960  83.4578980
  68.1803070  44.4806920  83.2397890  67.4583630  45.4985720  84.0968750
  73.2995600  39.5965780  69.7277590  73.2159320  40.0280000  68.8774030
  74.0189790  40.0564130  70.1604410  74.3769740  42.0533300  82.8047560
  73.6517930  42.6462080  82.6076950  74.9045200  42.0456840  82.0060930
  69.9069330  43.7793470  76.3031410  70.2593150  43.1821600  75.6432780
  69.0231660  43.4537700  76.4739660  65.9932610  44.5391160  73.7101820
  66.6803740  45.0860370  74.0909410  65.2065030  45.0831890  73.7451430
  67.5992430  47.0543530  80.5519480  68.2434650  47.2602910  81.2292900
  67.9621870  46.2931930  80.0990330  68.8724510  45.0575880  79.2696930
  69.5146740  44.3569040  79.3829100  69.3973860  45.8374320  79.0893820
  70.6462130  45.8570780  82.4732990  70.9818370  46.4437470  83.1510910
  69.7262470  45.7263490  82.7030780  58.1965530  33.6465960  83.2556400
  57.4824050  33.8462880  83.8609010  58.6160570  32.8705530  83.6271200
  64.5164880  46.7522560  70.5854200  64.5074980  47.4852250  69.9698710
  63.5963240  46.5054140  70.6781160  73.0566340  35.0945210  71.8145410
  72.4279500  35.1990880  71.1003640  72.5618260  35.3141990  72.6039290
  66.1442590  49.3337120  73.9427060  66.3984090  49.2958510  73.0206430
  65.1955070  49.2070450  73.9355310  72.1495170  40.2529000  75.5185570
  71.2085310  40.2679230  75.6933260  72.4639240  39.4664960  75.9645870
  62.1276810  41.9348600  69.0789530  62.8940080  41.8229960  69.6414960
  62.2051500  41.2386570  68.4266300  60.8223570  39.3673670  69.7622420
  60.9027160  38.4201180  69.8739820  61.7143320  39.6980550  69.8683080
  64.7340590  48.6899370  68.6882530  65.5269200  48.9788200  68.2364320
  64.2144940  48.2591540  68.0095010  69.4661190  44.8095000  86.0017950
  68.8599350  44.8326600  85.2613700  69.1615300  44.0778040  86.5385200
  70.8961560  48.5375290  84.6127360  71.8483310  48.4533310  84.5627600
  70.7489780  49.2017000  85.2861150  65.2517990  43.9102780  68.5524880
  65.1468630  43.2955130  69.2786260  65.0842210  43.3868670  67.7687890
  65.4032310  42.5959580  84.5314110  64.6377980  43.1644580  84.4468780
  65.5848270  42.3035790  83.6382340  68.4920720  42.9722810  69.1566870
  67.9430820  43.4192110  69.8009610  69.1139980  42.4672060  69.6804540
  72.5455660  44.3264910  85.0889130  73.2865130  44.6640670  84.5856590
  71.7828340  44.4956970  84.5358900  60.3817450  39.3318180  85.8928660
  60.4222790  39.0332050  86.8013890  61.2362950  39.7325790  85.7336180
  62.3223260  37.9110280  83.8603150  61.7919720  37.4201230  83.2326490
  62.9911330  38.3394480  83.3261080  66.6723480  40.9551340  68.3009270
  67.1929140  40.2400360  67.9350420  67.3191880  41.5937210  68.6009780
  62.8095560  34.8772650  83.9400440  62.7152430  34.2593400  83.2151310
  62.2292950  35.6038940  83.7130350  65.9816550  42.3300220  81.5940270
  66.4004660  43.1732950  81.4216510  65.0625180  42.4672260  81.3647050
  63.0554740  38.0046960  67.9990330  62.8543800  37.1414320  68.3603670
  62.8846790  37.9180320  67.0611930  63.8323970  48.6353230  82.7098000
  63.2945060  49.3599290  82.3906700  64.0857930  48.1583570  81.9195340
  65.0849220  36.6037750  84.2353930  65.6748910  36.2953600  84.9231750
  64.2669460  36.1317500  84.3913830  70.5343050  32.8155190  70.5277210
  70.8145340  31.9723090  70.8836630  69.7608780  33.0478300  71.0415960
  65.0722470  34.0482200  68.9724410  64.7244470  33.3706190  68.3926860
  65.2735240  33.5871710  69.7867800  58.4128110  40.5769850  75.3688780
  57.7576950  40.3081490  74.7248480  59.2506060  40.4674330  74.9190760
  72.9017500  44.2918600  81.3953370  72.0877340  44.7215760  81.6579160
  73.3091700  44.9037010  80.7822420  71.3618550  35.3711140  69.5907270
  71.7803430  35.1842120  68.7503930  71.0554610  34.5190190  69.9010200
  74.8608280  40.2835280  73.2883070  74.4851880  39.5163210  72.8564360
  74.1311400  40.6657980  73.7758000  72.6895970  34.6563230  85.7002290
  73.5666150  34.6646630  86.0836290  72.7016810  33.9194070  85.0894640
  74.1359240  38.5092770  76.5890310  74.6596720  38.0155420  75.9580480
  74.7218660  38.6443130  77.3337880  74.3148960  38.5932640  80.1109860
  73.3651670  38.5596180  80.2254850  74.4961970  39.5032750  79.8759630
  59.8167560  32.8973650  68.2611140  60.5395690  33.4382590  68.5792360
  60.0892080  32.6237070  67.3852680  73.6259210  37.7666120  72.5282720
  74.1218330  37.5336990  73.3131600  73.4275280  36.9277960  72.1120360
  75.0546370  36.4027070  75.0620400  74.9445650  36.2483110  76.0002670
  75.8153960  35.8748010  74.8195810  73.4012090  32.3421200  81.5203400
  74.0384310  32.9555340  81.8862590  73.5486980  32.3781860  80.5752630
  75.9436640  34.2334990  68.3026540  76.8685950  34.1016170  68.0944830
  75.9212430  34.3127810  69.2562990  76.0175130  35.0045650  70.9283250
  75.2226630  34.9390770  71.4576160  76.2218410  35.9396290  70.9168600
  59.2591750  32.3035510  80.9059080  58.9106570  32.7599330  81.6717260
  58.9279450  31.4092640  80.9881510  60.8656120  45.4755110  85.0712270
  60.8225750  45.1048020  85.9526730  60.9967130  46.4132680  85.2114090
  64.5662150  47.0314700  80.6721990  64.3253510  47.2989260  79.7852510
  65.5064790  47.2020430  80.7272850  66.7716570  33.4947390  84.4278500
  66.7105460  34.0869220  85.1773910  67.7116950  33.3873350  84.2828760
  69.4091130  33.1517450  84.0670790  70.0231540  33.4696740  83.4051870
  69.9540690  32.6666040  84.6866650  59.9312390  31.8311710  84.1809850
  60.4795380  31.6499760  83.4175960  59.9967700  31.0405820  84.7166160
  70.1499170  31.7149590  80.3940080  69.2759010  32.0484700  80.1913010
  70.0409920  31.2422770  81.2191950  66.6796980  48.8929230  78.7536480
  66.9674790  48.6383530  77.8769490  67.1920200  48.3406590  79.3442050
  74.3133630  32.9657770  75.3890900  74.2522030  32.0218990  75.2421920
  75.0925660  33.0737860  75.9344360  65.7828210  35.0506180  74.8449020
  64.9702720  34.6763070  74.5044900  66.2869850  34.2951260  75.1470210
  73.4287790  32.1170190  71.3572370  73.6238420  33.0153640  71.6239800
  72.6417660  31.8857270  71.8505320  61.6139550  33.4630960  70.3948680
  62.1432310  32.6760760  70.2656630  62.2467870  34.1422150  70.6284210
  63.9332950  32.4790080  85.8846560  63.6517220  32.9823680  85.1207380
  64.3152650  31.6811830  85.5188690  62.8242050  49.7465740  70.6714240
  63.5560870  49.4625020  70.1238130  63.0835720  49.5079020  71.5613620
  70.5348410  31.8943660  86.4627030  70.4213860  32.2138270  87.3578550
  71.3518150  32.2956170  86.1664310  73.3146900  49.0415190  85.9445720
  74.1072220  48.5464420  85.7371680  73.6080050  49.7205330  86.5521330
  69.4406560  39.9136130  56.8261770  69.3600610  38.9990740  56.5553480
  69.0270980  40.4103200  56.1201480  67.5724600  41.6915150  58.7071040
  66.7966700  41.2115590  58.9969610  68.2237530  41.0120800  58.5327200
  61.5691690  46.0375050  59.7804820  61.8719730  45.1472790  59.6015040
  62.3135280  46.5945270  59.5527070  67.0133590  44.3672340  58.7141200
  66.9441870  43.4262280  58.5530330  67.7753450  44.4573750  59.2863770
  68.0438760  37.1742720  58.9410130  68.4203580  36.3014600  58.8283800
  67.9458270  37.5101420  58.0500570  71.8262880  34.6693160  55.8738470
  72.6472500  34.1789730  55.9163950  71.8596960  35.2590820  56.6270310
  63.5490450  42.7948460  61.1789670  63.2159830  43.4217380  61.8210740
  63.7257130  43.3210340  60.3991340  72.0624360  36.6093540  58.6466010
  71.3579930  36.8978430  59.2269120  72.4236520  37.4193650  58.2865570
  62.7609550  44.7629260  62.9938850  63.3783550  45.4380340  62.7123300
  61.9002670  45.1717240  62.9026350  58.0541890  43.9529120  51.8745700
  57.6769870  44.4416220  51.1430600  58.3114960  44.6254400  52.5052230
  68.0511580  40.4194340  54.0691330  67.1240860  40.3531720  54.2979800
  68.2036400  41.3574470  53.9546570  64.1249920  44.6326640  59.0150270
  63.8278210  44.0272110  58.3358050  65.0749740  44.6703950  58.9039630
  63.2168350  44.3708330  65.6658070  62.3196880  44.5948300  65.9131470
  63.2421220  44.4943270  64.7169470  70.2573570  41.2201450  51.5799330
  70.6966850  40.3823880  51.4337150  70.9701990  41.8530850  51.6663470
  62.0439570  41.2421650  64.2415440  61.9047340  42.1144450  64.6102840
  61.1620930  40.8994460  64.0963380  63.8419920  47.1843350  66.4500590
  63.8135350  47.5886300  65.5829020  63.6784890  46.2553710  66.2872190
  73.8390710  32.4744260  49.8940370  73.5263370  32.5671090  50.7939440
  74.6003180  33.0525290  49.8437800  58.0517740  44.0533370  62.6980810
  58.2148780  43.5838730  61.8800180  58.5170190  43.5456930  63.3629650
  62.8236510  33.1839130  57.7341380  62.3804660  33.9648670  57.4025900
  63.3821500  33.5069020  58.4412320  69.2060540  38.7718350  66.5672150
  69.5313950  37.9382100  66.2274380  69.9940870  39.2946870  66.7150480
  65.9395330  32.8049830  52.6147210  65.3149510  32.8009700  53.3400520
  65.8525450  31.9380790  52.2183180  62.6150730  38.3072700  55.4622630
  62.3891650  38.0909870  56.3669250  61.8343260  38.7401160  55.1168600
  69.8448490  38.3136070  54.0613280  69.2457380  39.0371870  53.8776900
  70.3928100  38.2512850  53.2789730  65.0549940  39.2058280  66.1282900
  64.9593540  38.2653010  65.9783300  65.8981920  39.4273350  65.7330970
  68.4513360  36.9499610  56.0916560  68.8442930  37.2671810  55.2785250
  68.8130210  36.0711490  56.2061080  66.7605530  35.7006920  67.3513420
  66.0703850  35.5079120  67.9859510  67.5037830  35.9841560  67.8837720
  69.4994410  34.9939040  59.5990280  69.5167150  35.4447690  60.4432130
  69.2509990  34.0944680  59.8123720  64.5487540  39.5272780  50.9809890
  63.9804440  39.0791030  50.3545800  65.2576540  39.8865560  50.4475040
  72.9265160  32.4071220  65.4376660  73.2510930  31.6760880  65.9634640
  72.9621670  32.0884860  64.5357650  59.6256720  43.4284800  64.8576620
  59.2411510  42.7878470  65.4559580  59.9368910  44.1320920  65.4271350
  65.7753860  40.2761340  60.3385240  66.1423990  39.8019910  61.0846580
  65.5858920  41.1502910  60.6793580  63.5653230  39.3169980  62.6569450
  63.2610300  40.1961960  62.8819810  64.5199690  39.3769770  62.6926890
  62.0935020  43.5230970  53.2536300  61.3197280  42.9828590  53.0935020
  62.8229650  43.0037580  52.9154060  71.0281330  38.2853940  51.4854240
  71.9160950  38.5971170  51.3105580  70.9986420  37.4126190  51.0934820
  62.8230080  40.6156960  66.6880360  62.5230220  40.7614140  65.7908180
  63.5941320  40.0562250  66.5953750  65.9932610  44.5391160  54.9358330
  66.6803740  45.0860370  55.3165920  65.2065030  45.0831890  54.9707940
  58.1325010  40.1563980  50.4275410  59.0019860  40.4388780  50.7111330
  57.6415330  40.9699850  50.3124220  65.2959820  41.5437190  54.5483690
  65.7522600  42.3542440  54.7743880  64.9448030  41.2260330  55.3802180
  72.7180230  45.3424500  50.2192580  72.4917810  44.6254940  50.8117220
  72.3276430  45.0936940  49.3814330  58.4996260  49.3691360  50.9937040
  58.8593900  49.9680700  50.3394310  58.3588600  49.9151250  51.7672070
  60.1171520  41.9737450  52.5557470  59.5099470  42.7136350  52.5652770
  60.5920870  42.0636810  51.7295670  69.6904310  36.1388270  62.2314360
  70.0585130  35.3183480  62.5593930  68.8302510  36.1990160  62.6470010
  73.0566340  35.0945210  53.0401920  72.4279500  35.1990880  52.3260150
  72.5618260  35.3141990  53.8295800  65.0250370  37.3731160  54.4559800
  64.3166520  37.8417500  54.8973410  65.3094850  36.7153170  55.0904990
  69.0565800  34.0981820  55.8955590  68.9333580  34.1167950  54.9465100
  70.0050360  34.1460760  56.0153990  62.1276810  41.9348600  50.3046040
  62.8940080  41.8229960  50.8671470  62.2051500  41.2386570  49.6522810
  60.8223570  39.3673670  50.9878930  60.9027160  38.4201180  51.0996330
  61.7143320  39.6980550  51.0939590  61.6238280  49.5169060  58.0913470
  62.3600760  48.9684520  58.3622040  62.0079200  50.3825070  57.9519460
  58.5083760  45.5842630  53.9654980  57.5823540  45.8263770  53.9560390
  58.9740190  46.4116890  53.8439730  58.3494370  41.1888590  66.2235100
  58.8533390  40.6095870  66.7951330  57.6101790  41.4728820  66.7611470
  65.4032310  42.5959580  65.7570620  64.6377980  43.1644580  65.6725290
  65.5848270  42.3035790  64.8638850  68.4920720  42.9722810  50.3823380
  67.9430820  43.4192110  51.0266120  69.1139980  42.4672060  50.9061050
  64.1595840  41.9313730  52.2788680  64.5812260  41.7653600  53.1220070
  64.2846680  41.1213960  51.7843820  66.6723480  40.9551340  49.5265780
  67.1929140  40.2400360  49.1606930  67.3191880  41.5937210  49.8266290
  71.6923490  39.7175900  66.8540000  72.2744260  38.9628220  66.7660480
  71.8685260  40.2483340  66.0771480  65.9816550  42.3300220  62.8196780
  66.4004660  43.1732950  62.6473020  65.0625180  42.4672260  62.5903560
  69.9042650  36.2203560  65.6943460  69.2158170  35.5585100  65.6293450
  70.6248670  35.7741830  66.1391920  60.8767670  44.4090000  50.0454520
  61.3142540  44.9519670  50.7012100  61.3615400  43.5836950  50.0550860
  58.0913470  47.1979030  57.4974780  58.4216480  46.3300090  57.2653420
  58.5204470  47.4037550  58.3279740  75.4567310  45.3084440  49.8603430
  74.6260270  45.3761090  50.3310660  75.6339140  46.1988560  49.5570290
  71.3618550  35.3711140  50.8163780  71.7803430  35.1842120  49.9760440
  71.0554610  34.5190190  51.1266710  72.6895970  34.6563230  66.9258800
  73.5666150  34.6646630  67.3092800  72.7016810  33.9194070  66.3151150
  59.8167560  32.8973650  49.4867650  60.5395690  33.4382590  49.8048870
  60.0892080  32.6237070  48.6109190  73.6259210  37.7666120  53.7539230
  74.1218330  37.5336990  54.5388110  73.4275280  36.9277960  53.3376870
  59.5059750  32.1479840  59.3890270  60.1535940  31.5977220  58.9485430
  59.9261590  32.4022990  60.2106080  75.0546370  36.4027070  56.2876910
  74.9445650  36.2483110  57.2259180  75.8153960  35.8748010  56.0452320
  73.4012090  32.3421200  62.7459910  74.0384310  32.9555340  63.1119100
  73.5486980  32.3781860  61.8009140  75.9436640  34.2334990  49.5283050
  76.8685950  34.1016170  49.3201340  75.9212430  34.3127810  50.4819500
  76.0175130  35.0045650  52.1539760  75.2226630  34.9390770  52.6832670
  76.2218410  35.9396290  52.1425110  59.2591750  32.3035510  62.1315590
  58.9106570  32.7599330  62.8973770  58.9279450  31.4092640  62.2138020
  60.8656120  45.4755110  66.2968780  60.8225750  45.1048020  67.1783240
  60.9967130  46.4132680  66.4370600  69.4091130  33.1517450  65.2927300
  70.0231540  33.4696740  64.6308380  69.9540690  32.6666040  65.9123160
  59.9312390  31.8311710  65.4066360  60.4795380  31.6499760  64.6432470
  59.9967700  31.0405820  65.9422670  70.1499170  31.7149590  61.6196590
  69.2759010  32.0484700  61.4169520  70.0409920  31.2422770  62.4448460
  71.0571150  33.9220460  63.0038310  70.7284510  33.1072220  62.6240040
  72.0053450  33.8790270  62.8804000  60.3356380  45.7875740  62.3674600
  59.6090440  45.1681030  62.3000550  60.3965530  46.1816350  61.4972680
  72.4495060  33.3342530  58.6038590  72.8903150  33.2787630  57.7560190
  72.1802650  34.2500540  58.6748770  74.3133630  32.9657770  56.6147410
  74.2522030  32.0218990  56.4678430  75.0925660  33.0737860  57.1600870
  58.6186380  49.1050130  55.5771360  58.4508420  48.4720810  56.2753250
  57.7520890  49.3109530  55.2265550  65.7828210  35.0506180  56.0705530
  64.9702720  34.6763070  55.7301410  66.2869850  34.2951260  56.3726720
  70.2853190  31.7148630  57.3088600  70.8882560  32.2868840  57.7837120
  69.5446180  32.2788070  57.0862500  60.2249080  47.7983360  53.0221500
  59.6996700  48.1791390  52.3183460  60.1493660  48.4234130  53.7431210
  63.8077390  33.2006100  54.6750580  63.1780130  32.4993410  54.8420710
  63.2682530  33.9610230  54.4583740  63.9332950  32.4790080  67.1103070
  63.6517220  32.9823680  66.3463890  64.3152650  31.6811830  66.7445200
  70.5348410  31.8943660  67.6883540  70.4213860  32.2138270  68.5835060
  71.3518150  32.2956170  67.3920820  71.5932030  46.0975340  38.7126680
  71.1313560  45.3262580  39.0413850  72.4057580  46.1241410  39.2179130
  59.9982380  36.9636850  34.5945700  59.1099080  37.3052820  34.4925580
  60.2823570  36.7637170  33.7026530  57.9615390  39.5642500  40.4785400
  58.5331500  38.7964700  40.4789040  57.9616930  39.8631260  39.5692010
  67.8195340  48.3833350  38.3330670  67.2006780  48.8390850  37.7625110
  68.6747120  48.5384810  37.9320370  59.2040260  34.9726860  42.2654330
  59.0243100  34.0752610  42.5457090  58.8020340  35.5198730  42.9401280
  68.0438760  37.1742720  40.1666640  68.4203580  36.3014600  40.0540310
  67.9458270  37.5101420  39.2757080  62.1743770  35.5468350  35.6284080
  62.2810520  36.4472080  35.9352840  61.2636130  35.4986320  35.3378730
  59.8226930  37.4687360  40.8736670  60.5037040  37.7325730  41.4924070
  59.5074980  36.6288230  41.2074680  76.1162430  36.6859910  43.6638610
  75.4114600  37.0741620  43.1453720  76.3820350  37.3810200  44.2659540
  62.2987600  33.1553280  44.2272680  62.3006040  33.6725670  43.4218580
  61.4691910  32.6783460  44.2042610  68.6858690  43.2672590  35.7262580
  68.0675960  43.7322040  35.1625300  69.1981940  43.9600070  36.1432090
  72.0624360  36.6093540  39.8722520  71.3579930  36.8978430  40.4525630
  72.4236520  37.4193650  39.5122080  61.9802930  34.8663240  42.2343130
  62.3219740  35.7105290  41.9397000  61.0418740  35.0146980  42.3508470
  73.6787140  46.2268670  42.1350000  72.9950660  46.8967780  42.1266670
  74.2181430  46.4249320  41.3694860  65.6630820  32.3545510  38.5587720
  65.9705800  31.7992400  37.8423220  64.7331520  32.4889970  38.3760710
  71.2145880  48.0712800  40.8495180  71.2273040  47.6675090  39.9817440
  70.6621100  48.8460090  40.7456610  72.5091300  44.7929020  35.9385350
  72.3987630  43.8503350  36.0634770  72.5059550  45.1544660  36.8248110
  70.6131320  42.9742640  42.1777790  71.0300110  42.7602750  41.3431250
  71.3371140  43.2315430  42.7486410  68.0511580  40.4194340  35.2947840
  67.1240860  40.3531720  35.5236310  68.2036400  41.3574470  35.1803080
  72.0808870  41.9814640  35.7983090  71.4621290  41.6434190  35.1509390
  72.0633320  41.3374400  36.5062280  72.2135530  48.2058510  43.9029880
  71.7366090  49.0130700  43.7102490  71.5297320  47.5536840  44.0556090
  63.2168350  44.3708330  46.8914580  62.3196880  44.5948300  47.1387980
  63.2421220  44.4943270  45.9425980  62.0439570  41.2421650  45.4671950
  61.9047340  42.1144450  45.8359350  61.1620930  40.8994460  45.3219890
  68.3668950  46.1597520  36.7737080  68.8064860  46.9021850  36.3592470
  68.3055840  46.4024090  37.6976040  60.3572850  39.8404060  35.5774220
  60.2370450  40.5666150  34.9655490  60.0473740  39.0706970  35.1002130
  75.7934740  47.9670450  48.9721270  76.2694460  48.4453340  49.6510350
  76.4141900  47.8987940  48.2466770  69.0584730  48.8611300  44.7016090
  69.5729400  48.7719310  45.5038520  68.2153810  49.2071000  44.9944000
  71.0339130  49.1466640  34.1300090  70.8740270  48.8569580  35.0281920
  70.8685840  48.3706770  33.5945320  70.7365260  46.6554200  32.6898090
  70.0430420  46.6531490  32.0300370  71.4788120  46.2313520  32.2592260
  70.3015190  48.2816910  36.7646580  70.7572140  47.5006290  37.0785200
  70.6407710  48.9923730  37.3087760  58.0517740  44.0533370  43.9237320
  58.2148780  43.5838730  43.1056690  58.5170190  43.5456930  44.5886160
  62.8236510  33.1839130  38.9597890  62.3804660  33.9648670  38.6282410
  63.3821500  33.5069020  39.6668830  67.1106320  36.0507650  44.5633210
  66.6485690  36.2590670  45.3753150  66.7084430  35.2367000  44.2603880
  65.9395330  32.8049830  33.8403720  65.3149510  32.8009700  34.5657030
  65.8525450  31.9380790  33.4439690  64.8612410  33.7286460  40.8187490
  65.1584740  34.6349290  40.7379510  65.4097970  33.2405240  40.2047060
  65.0549940  39.2058280  47.3539410  64.9593540  38.2653010  47.2039810
  65.8981920  39.4273350  46.9587480  68.4513360  36.9499610  37.3173070
  68.8442930  37.2671810  36.5041760  68.8130210  36.0711490  37.4317590
  60.1860480  35.6171950  45.5073190  59.7923870  36.4647160  45.7145970
  59.4978880  34.9798320  45.6981830  57.4877530  33.5400410  39.5403270
  57.1990580  34.1103270  40.2528250  58.2323290  33.0604860  39.9034500
  57.6747760  37.4820530  30.7505990  57.5922430  38.4251290  30.8920980
  57.3230820  37.3395440  29.8718340  65.4745890  36.2159560  39.8176340
  65.4781950  35.7749510  38.9680880  66.3697010  36.5376890  39.9248160
  61.3248270  36.0986050  38.7770550  60.9848320  36.5761280  39.5337600
  60.5625590  35.6451170  38.4171650  65.5366040  37.2171640  32.8083100
  65.6578860  37.1758120  33.7568920  65.1514550  38.0795790  32.6529830
  64.5487540  39.5272780  32.2066400  63.9804440  39.0791030  31.5802310
  65.2576540  39.8865560  31.6731550  72.9265160  32.4071220  46.6633170
  73.2510930  31.6760880  47.1891150  72.9621670  32.0884860  45.7614160
  59.6256720  43.4284800  46.0833130  59.2411510  42.7878470  46.6816090
  59.9368910  44.1320920  46.6527860  58.6394350  35.0205030  37.6935220
  58.3541270  34.6560700  38.5313840  58.5773210  34.2885490  37.0798360
  62.0935020  43.5230970  34.4792810  61.3197280  42.9828590  34.3191530
  62.8229650  43.0037580  34.1410570  72.8523000  42.5196330  40.2719200
  73.5722120  43.0151620  39.8815310  72.6504820  41.8414220  39.6273070
  68.2341800  42.5905390  46.1588200  68.1679110  41.6701060  45.9045790
  67.6046940  42.6880830  46.8732840  67.0241920  44.4577630  33.3898920
  67.3657620  45.2019860  32.8942240  66.1954630  44.7708750  33.7523750
  59.6216960  40.1572720  45.0297320  59.2631900  40.8226570  45.6170660
  59.3271520  39.3256270  45.4009940  62.8230080  40.6156960  47.9136870
  62.5230220  40.7614140  47.0164690  63.5941320  40.0562250  47.8210260
  68.1658530  45.4125960  45.9092000  68.1803070  44.4806920  45.6910910
  67.4583630  45.4985720  46.5481770  74.3282850  46.4508040  34.9072740
  73.6859010  45.7963660  35.1816460  73.9413510  46.8563130  34.1313410
  69.9069330  43.7793470  38.7544430  70.2593150  43.1821600  38.0945800
  69.0231660  43.4537700  38.9252680  67.5992430  47.0543530  43.0032500
  68.2434650  47.2602910  43.6805920  67.9621870  46.2931930  42.5503350
  61.1971600  31.8874840  36.2462720  61.0686230  31.8792740  37.1947640
  60.3733620  32.2257930  35.8953730  68.8724510  45.0575880  41.7209950
  69.5146740  44.3569040  41.8342120  69.3973860  45.8374320  41.5406840
  70.6462130  45.8570780  44.9246010  70.9818370  46.4437470  45.6023930
  69.7262470  45.7263490  45.1543800  58.1965530  33.6465960  45.7069420
  57.4824050  33.8462880  46.3122030  58.6160570  32.8705530  46.0784220
  60.1171520  41.9737450  33.7813980  59.5099470  42.7136350  33.7909280
  60.5920870  42.0636810  32.9552180  69.6904310  36.1388270  43.4570870
  70.0585130  35.3183480  43.7850440  68.8302510  36.1990160  43.8726520
  67.5024480  46.8150800  31.6992410  67.6036460  46.6114790  30.7694390
  66.6026220  46.5609080  31.9040190  65.0250370  37.3731160  35.6816310
  64.3166520  37.8417500  36.1229920  65.3094850  36.7153170  36.3161500
  66.6506300  38.7927860  43.6808840  67.1491550  39.2673680  44.3460690
  66.7929250  37.8691380  43.8878870  66.1442590  49.3337120  36.3940080
  66.3984090  49.2958510  35.4719450  65.1955070  49.2070450  36.3868330
  63.2285390  35.6816240  33.0567020  64.0775920  36.1186390  32.9907210
  62.8616660  35.9936500  33.8839080  73.8573160  35.0095820  44.5237230
  73.3546760  35.7501220  44.8631040  74.6729820  35.3979820  44.2074020
  72.1495170  40.2529000  37.9698590  71.2085310  40.2679230  38.1446280
  72.4639240  39.4664960  38.4158890  62.1276810  41.9348600  31.5302550
  62.8940080  41.8229960  32.0927980  62.2051500  41.2386570  30.8779320
  60.8223570  39.3673670  32.2135440  60.9027160  38.4201180  32.3252840
  61.7143320  39.6980550  32.3196100  74.1520750  47.4237850  39.6452850
  74.2768170  48.2469020  40.1176660  75.0186310  47.2128580  39.2977000
  61.6238280  49.5169060  39.3169980  62.3600760  48.9684520  39.5878550
  62.0079200  50.3825070  39.1775970  60.6296560  48.7015130  48.5055560
  61.4309290  49.0227180  48.9190960  60.1148380  48.3410710  49.2275470
  64.7340590  48.6899370  31.1395550  65.5269200  48.9788200  30.6877340
  64.2144940  48.2591540  30.4608030  69.4661190  44.8095000  48.4530970
  68.8599350  44.8326600  47.7126720  69.1615300  44.0778040  48.9898220
  70.8961560  48.5375290  47.0640380  71.8483310  48.4533310  47.0140620
  70.7489780  49.2017000  47.7374170  73.7870760  47.9169500  32.5632290
  73.5012270  47.5034640  31.7486470  73.5890310  48.8457210  32.4432810
  58.3494370  41.1888590  47.4491610  58.8533390  40.6095870  48.0207840
  57.6101790  41.4728820  47.9867980  65.2517990  43.9102780  31.0037900
  65.1468630  43.2955130  31.7299280  65.0842210  43.3868670  30.2200910
  65.4032310  42.5959580  46.9827130  64.6377980  43.1644580  46.8981800
  65.5848270  42.3035790  46.0895360  68.4920720  42.9722810  31.6079890
  67.9430820  43.4192110  32.2522630  69.1139980  42.4672060  32.1317560
  60.3817450  39.3318180  48.3441680  60.4222790  39.0332050  49.2526910
  61.2362950  39.7325790  48.1849200  64.1595840  41.9313730  33.5045190
  64.5812260  41.7653600  34.3476580  64.2846680  41.1213960  33.0100330
  62.3223260  37.9110280  46.3116170  61.7919720  37.4201230  45.6839510
  62.9911330  38.3394480  45.7774100  66.6723480  40.9551340  30.7522290
  67.1929140  40.2400360  30.3863440  67.3191880  41.5937210  31.0522800
  62.8095560  34.8772650  46.3913460  62.7152430  34.2593400  45.6664330
  62.2292950  35.6038940  46.1643370  65.5757000  33.4345890  43.4240850
  65.1274300  33.4570150  42.5786400  64.9422200  33.0364910  44.0211150
  65.9816550  42.3300220  44.0453290  66.4004660  43.1732950  43.8729530
  65.0625180  42.4672260  43.8160070  63.0554740  38.0046960  30.4503350
  62.8543800  37.1414320  30.8116690  62.8846790  37.9180320  29.5124950
  63.8323970  48.6353230  45.1611020  63.2945060  49.3599290  44.8419720
  64.0857930  48.1583570  44.3708360  69.9042650  36.2203560  46.9199970
  69.2158170  35.5585100  46.8549960  70.6248670  35.7741830  47.3648430
  61.8537540  35.1047580  30.4381230  62.1563440  35.1115010  29.5300380
  62.5932130  34.7545440  30.9348890  66.6886180  49.8704440  45.4197670
  66.6144880  50.7739580  45.7270040  65.7865020  49.5516340  45.3919740
  65.0722470  34.0482200  31.4237430  64.7244470  33.3706190  30.8439880
  65.2735240  33.5871710  32.2380820  67.2371510  49.0362950  33.0424030
  68.1322300  49.3747920  33.0642790  67.2689140  48.3142360  32.4148310
  58.0913470  47.1979030  38.7231290  58.4216480  46.3300090  38.4909930
  58.5204470  47.4037550  39.5536250  58.5803680  48.0649620  41.4612920
  58.1434670  48.2450420  42.2937070  59.1481360  48.8224240  41.3194640
  74.2165860  47.5666620  45.7490230  73.6167850  47.6259180  45.0054150
  74.3459760  46.6271600  45.8787080  58.4128110  40.5769850  37.8201800
  57.7576950  40.3081490  37.1761500  59.2506060  40.4674330  37.3703780
  75.9183740  42.9082020  38.4336070  76.2892570  42.1249340  38.0272040
  76.5585670  43.5971120  38.2553370  74.8608280  40.2835280  35.7396090
  74.4851880  39.5163210  35.3077380  74.1311400  40.6657980  36.2271020
  72.6895970  34.6563230  48.1515310  73.5666150  34.6646630  48.5349310
  72.7016810  33.9194070  47.5407660  57.6266190  37.7868780  33.7627130
  56.7230270  38.0498980  33.5878790  58.1106810  38.0579950  32.9827090
  74.1359240  38.5092770  39.0403330  74.6596720  38.0155420  38.4093500
  74.7218660  38.6443130  39.7850900  60.1693400  36.8434320  31.6721510
  60.8785100  36.4217540  31.1868790  59.4533340  36.9109550  31.0404860
  59.8167560  32.8973650  30.7124160  60.5395690  33.4382590  31.0305380
  60.0892080  32.6237070  29.8365700  73.6259210  37.7666120  34.9795740
  74.1218330  37.5336990  35.7644620  73.4275280  36.9277960  34.5633380
  59.5059750  32.1479840  40.6146780  60.1535940  31.5977220  40.1741940
  59.9261590  32.4022990  41.4362590  75.0546370  36.4027070  37.5133420
  74.9445650  36.2483110  38.4515690  75.8153960  35.8748010  37.2708830
  75.9436640  34.2334990  30.7539560  76.8685950  34.1016170  30.5457850
  75.9212430  34.3127810  31.7076010  76.0175130  35.0045650  33.3796270
  75.2226630  34.9390770  33.9089180  76.2218410  35.9396290  33.3681620
  72.9593550  49.0437200  37.3734660  73.5552620  48.7221770  36.6969080
  73.2171700  48.5709020  38.1647930  59.2591750  32.3035510  43.3572100
  58.9106570  32.7599330  44.1230280  58.9279450  31.4092640  43.4394530
  60.8656120  45.4755110  47.5225290  60.8225750  45.1048020  48.4039750
  60.9967130  46.4132680  47.6627110  64.5662150  47.0314700  43.1235010
  64.3253510  47.2989260  42.2365530  65.5064790  47.2020430  43.1785870
  66.7716570  33.4947390  46.8791520  66.7105460  34.0869220  47.6286930
  67.7116950  33.3873350  46.7341780  69.4091130  33.1517450  46.5183810
  70.0231540  33.4696740  45.8564890  69.9540690  32.6666040  47.1379670
  75.8266310  49.0509080  43.9245650  75.3324590  49.4477950  43.2072780
  75.2179600  48.4258290  44.3182930  59.9312390  31.8311710  46.6322870
  60.4795380  31.6499760  45.8688980  59.9967700  31.0405820  47.1679180
  60.7044150  48.4217360  44.6423070  60.1104470  48.2902060  45.3813110
  60.6967990  47.5855500  44.1765170  71.0571150  33.9220460  44.2294820
  70.7284510  33.1072220  43.8496550  72.0053450  33.8790270  44.1060510
  73.5105760  49.6932500  41.2032390  73.0508730  50.4448310  40.8290410
  72.8818220  48.9738970  41.1447190  63.9401480  48.0020740  40.3780520
  64.4566500  47.3908100  39.8528780  64.5898860  48.5049520  40.8691530
  66.6796980  48.8929230  41.2049500  66.9674790  48.6383530  40.3282510
  67.1920200  48.3406590  41.7955070  59.2414400  32.9366910  34.3059730
  59.9993760  33.0495790  33.7323760  58.7791570  33.7736110  34.2603160
  65.7828210  35.0506180  37.2962040  64.9702720  34.6763070  36.9557920
  66.2869850  34.2951260  37.5983230  61.6139550  33.4630960  32.8461700
  62.1432310  32.6760760  32.7169650  62.2467870  34.1422150  33.0797230
  63.8077390  33.2006100  35.9007090  63.1780130  32.4993410  36.0677220
  63.2682530  33.9610230  35.6840250  74.9814400  49.3570900  35.5691950
  75.1566590  48.6708640  34.9252870  74.2835970  49.8817950  35.1768620
  63.9332950  32.4790080  48.3359580  63.6517220  32.9823680  47.5720400
  64.3152650  31.6811830  47.9701710  62.8242050  49.7465740  33.1227260
  63.5560870  49.4625020  32.5751150  63.0835720  49.5079020  34.0126640
  61.9856840  45.8630470  33.1273590  61.3565720  46.3315570  33.6759420
  62.1004670  45.0179690  33.5619780  73.3146900  49.0415190  48.3958740
  74.1072220  48.5464420  48.1884700  73.6080050  49.7205330  49.0034350
  69.4406560  39.9136130  19.2774790  69.3600610  38.9990740  19.0066500
  69.0270980  40.4103200  18.5714500  67.5724600  41.6915150  21.1584060
  66.7966700  41.2115590  21.4482630  68.2237530  41.0120800  20.9840220
  61.5890430  42.0034960  22.0359820  60.7575310  41.7483670  22.4356330
  62.1971410  42.0745730  22.7717740  71.5932030  46.0975340  19.9383190
  71.1313560  45.3262580  20.2670360  72.4057580  46.1241410  20.4435640
  61.5691690  46.0375050  22.2317840  61.8719730  45.1472790  22.0528060
  62.3135280  46.5945270  22.0040090  59.9982380  36.9636850  15.8202210
  59.1099080  37.3052820  15.7182090  60.2823570  36.7637170  14.9283040
  57.9615390  39.5642500  21.7041910  58.5331500  38.7964700  21.7045550
  57.9616930  39.8631260  20.7948520  67.8195340  48.3833350  19.5587180
  67.2006780  48.8390850  18.9881620  68.6747120  48.5384810  19.1576880
  67.0133590  44.3672340  21.1654220  66.9441870  43.4262280  21.0043350
  67.7753450  44.4573750  21.7376790  59.2040260  34.9726860  23.4910840
  59.0243100  34.0752610  23.7713600  58.8020340  35.5198730  24.1657790
  68.0438760  37.1742720  21.3923150  68.4203580  36.3014600  21.2796820
  67.9458270  37.5101420  20.5013590  62.1743770  35.5468350  16.8540590
  62.2810520  36.4472080  17.1609350  61.2636130  35.4986320  16.5635240
  71.8262880  34.6693160  18.3251490  72.6472500  34.1789730  18.3676970
  71.8596960  35.2590820  19.0783330  59.8226930  37.4687360  22.0993180
  60.5037040  37.7325730  22.7180580  59.5074980  36.6288230  22.4331190
  64.0151500  38.5154720  21.1865770  64.5229720  39.0135690  21.8270790
  64.5464740  37.7389920  21.0105130  76.1162430  36.6859910  24.8895120
  75.4114600  37.0741620  24.3710230  76.3820350  37.3810200  25.4916050
  62.2987600  33.1553280  25.4529190  62.3006040  33.6725670  24.6475090
  61.4691910  32.6783460  25.4299120  68.6858690  43.2672590  16.9519090
  68.0675960  43.7322040  16.3881810  69.1981940  43.9600070  17.3688600
  63.5490450  42.7948460  23.6302690  63.2159830  43.4217380  24.2723760
  63.7257130  43.3210340  22.8504360  72.0624360  36.6093540  21.0979030
  71.3579930  36.8978430  21.6782140  72.4236520  37.4193650  20.7378590
  61.9802930  34.8663240  23.4599640  62.3219740  35.7105290  23.1653510
  61.0418740  35.0146980  23.5764980  62.7609550  44.7629260  25.4451870
  63.3783550  45.4380340  25.1636320  61.9002670  45.1717240  25.3539370
  58.0541890  43.9529120  14.3258720  57.6769870  44.4416220  13.5943620
  58.3114960  44.6254400  14.9565250  73.6787140  46.2268670  23.3606510
  72.9950660  46.8967780  23.3523180  74.2181430  46.4249320  22.5951370
  75.1311280  36.0548330  21.4888240  74.1836190  36.0887310  21.6203670
  75.4561270  36.8687280  21.8737600  65.6630820  32.3545510  19.7844230
  65.9705800  31.7992400  19.0679730  64.7331520  32.4889970  19.6017220
  71.2145880  48.0712800  22.0751690  71.2273040  47.6675090  21.2073950
  70.6621100  48.8460090  21.9713120  72.5091300  44.7929020  17.1641860
  72.3987630  43.8503350  17.2891280  72.5059550  45.1544660  18.0504620
  70.6131320  42.9742640  23.4034300  71.0300110  42.7602750  22.5687760
  71.3371140  43.2315430  23.9742920  68.0511580  40.4194340  16.5204350
  67.1240860  40.3531720  16.7492820  68.2036400  41.3574470  16.4059590
  68.0380660  36.6911340  13.5171510  67.0984330  36.8525300  13.6023970
  68.3563920  37.4097020  12.9707500  72.0808870  41.9814640  17.0239600
  71.4621290  41.6434190  16.3765900  72.0633320  41.3374400  17.7318790
  71.5235430  38.1599180  24.4405410  71.1106610  38.9852890  24.6945400
  70.7911380  37.5744220  24.2481770  63.6568220  40.9459080  19.3024080
  63.2525220  40.2336330  18.8069980  63.7431340  40.6012320  20.1912120
  64.1249920  44.6326640  21.4663290  63.8278210  44.0272110  20.7871070
  65.0749740  44.6703950  21.3552650  62.3696840  37.7202290  23.0823120
  62.9211430  37.8297630  22.3076370  62.8840350  38.0939890  23.7978350
  72.2135530  48.2058510  25.1286390  71.7366090  49.0130700  24.9359000
  71.5297320  47.5536840  25.2812600  70.2573570  41.2201450  14.0312350
  70.6966850  40.3823880  13.8850170  70.9701990  41.8530850  14.1176490
  68.3668950  46.1597520  17.9993590  68.8064860  46.9021850  17.5848980
  68.3055840  46.4024090  18.9232550  63.8419920  47.1843350  28.9013610
  63.8135350  47.5886300  28.0342040  63.6784890  46.2553710  28.7385210
  73.8390710  32.4744260  12.3453390  73.5263370  32.5671090  13.2452460
  74.6003180  33.0525290  12.2950820  60.3572850  39.8404060  16.8030730
  60.2370450  40.5666150  16.1912000  60.0473740  39.0706970  16.3258640
  57.9958220  43.0119200  22.6099370  58.0738640  43.1467970  21.6655090
  58.6099900  42.3035090  22.8027490  59.2405850  44.7119390  19.0205550
  58.8333930  44.8533980  18.1659150  60.1318860  44.4279550  18.8176760
  69.0584730  48.8611300  25.9272600  69.5729400  48.7719310  26.7295030
  68.2153810  49.2071000  26.2200510  71.0339130  49.1466640  15.3556600
  70.8740270  48.8569580  16.2538430  70.8685840  48.3706770  14.8201830
  63.5127510  48.9265170  17.1328220  63.3369990  48.0100710  16.9196020
  62.6583250  49.2852460  17.3726020  70.7365260  46.6554200  13.9154600
  70.0430420  46.6531490  13.2556880  71.4788120  46.2313520  13.4848770
  70.3015190  48.2816910  17.9903090  70.7572140  47.5006290  18.3041710
  70.6407710  48.9923730  18.5344270  62.8236510  33.1839130  20.1854400
  62.3804660  33.9648670  19.8538920  63.3821500  33.5069020  20.8925340
  67.1106320  36.0507650  25.7889720  66.6485690  36.2590670  26.6009660
  66.7084430  35.2367000  25.4860390  72.1110830  37.2716600  26.9186380
  71.2604420  36.9722350  27.2395450  71.9512620  37.5158610  26.0070200
  69.2060540  38.7718350  29.0185170  69.5313950  37.9382100  28.6787400
  69.9940870  39.2946870  29.1663500  65.9395330  32.8049830  15.0660230
  65.3149510  32.8009700  15.7913540  65.8525450  31.9380790  14.6696200
  64.8612410  33.7286460  22.0444000  65.1584740  34.6349290  21.9636020
  65.4097970  33.2405240  21.4303570  62.6150730  38.3072700  17.9135650
  62.3891650  38.0909870  18.8182270  61.8343260  38.7401160  17.5681620
  69.8448490  38.3136070  16.5126300  69.2457380  39.0371870  16.3289920
  70.3928100  38.2512850  15.7302750  65.0549940  39.2058280  28.5795920
  64.9593540  38.2653010  28.4296320  65.8981920  39.4273350  28.1843990
  68.4513360  36.9499610  18.5429580  68.8442930  37.2671810  17.7298270
  68.8130210  36.0711490  18.6574100  60.1860480  35.6171950  26.7329700
  59.7923870  36.4647160  26.9402480  59.4978880  34.9798320  26.9238340
  66.7605530  35.7006920  29.8026440  66.0703850  35.5079120  30.4372530
  67.5037830  35.9841560  30.3350740  57.4877530  33.5400410  20.7659780
  57.1990580  34.1103270  21.4784760  58.2323290  33.0604860  21.1291010
  57.6747760  37.4820530  11.9762500  57.5922430  38.4251290  12.1177490
  57.3230820  37.3395440  11.0974850  69.0368500  39.5405360  22.6380360
  68.3049620  40.0492170  22.9870460  68.6392840  38.7235340  22.3369140
  65.4745890  36.2159560  21.0432850  65.4781950  35.7749510  20.1937390
  66.3697010  36.5376890  21.1504670  61.3248270  36.0986050  20.0027060
  60.9848320  36.5761280  20.7594110  60.5625590  35.6451170  19.6428160
  65.5366040  37.2171640  14.0339610  65.6578860  37.1758120  14.9825430
  65.1514550  38.0795790  13.8786340  69.4994410  34.9939040  22.0503300
  69.5167150  35.4447690  22.8945150  69.2509990  34.0944680  22.2636740
  64.5487540  39.5272780  13.4322910  63.9804440  39.0791030  12.8058820
  65.2576540  39.8865560  12.8988060  72.9265160  32.4071220  27.8889680
  73.2510930  31.6760880  28.4147660  72.9621670  32.0884860  26.9870670
  65.7753860  40.2761340  22.7898260  66.1423990  39.8019910  23.5359600
  65.5858920  41.1502910  23.1306600  58.6394350  35.0205030  18.9191730
  58.3541270  34.6560700  19.7570350  58.5773210  34.2885490  18.3054870
  63.5653230  39.3169980  25.1082470  63.2610300  40.1961960  25.3332830
  64.5199690  39.3769770  25.1439910  62.0935020  43.5230970  15.7049320
  61.3197280  42.9828590  15.5448040  62.8229650  43.0037580  15.3667080
  72.8523000  42.5196330  21.4975710  73.5722120  43.0151620  21.1071820
  72.6504820  41.8414220  20.8529580  68.3132940  33.9134290  15.6405100
  67.4997550  33.4147460  15.5650410  68.1194890  34.7532540  15.2241450
  68.2341800  42.5905390  27.3844710  68.1679110  41.6701060  27.1302300
  67.6046940  42.6880830  28.0989350  71.0281330  38.2853940  13.9367260
  71.9160950  38.5971170  13.7618600  70.9986420  37.4126190  13.5447840
  62.1372420  43.1911350  19.3428130  62.6551090  42.3879610  19.2885020
  61.6856440  43.1290490  20.1844960  67.0241920  44.4577630  14.6155430
  67.3657620  45.2019860  14.1198750  66.1954630  44.7708750  14.9780260
  62.8230080  40.6156960  29.1393380  62.5230220  40.7614140  28.2421200
  63.5941320  40.0562250  29.0466770  68.1658530  45.4125960  27.1348510
  68.1803070  44.4806920  26.9167420  67.4583630  45.4985720  27.7738280
  73.2995600  39.5965780  13.4047120  73.2159320  40.0280000  12.5543560
  74.0189790  40.0564130  13.8373940  74.3282850  46.4508040  16.1329250
  73.6859010  45.7963660  16.4072970  73.9413510  46.8563130  15.3569920
  69.9069330  43.7793470  19.9800940  70.2593150  43.1821600  19.3202310
  69.0231660  43.4537700  20.1509190  65.9932610  44.5391160  17.3871350
  66.6803740  45.0860370  17.7678940  65.2065030  45.0831890  17.4220960
  58.1325010  40.1563980  12.8788430  59.0019860  40.4388780  13.1624350
  57.6415330  40.9699850  12.7637240  65.2959820  41.5437190  16.9996710
  65.7522600  42.3542440  17.2256900  64.9448030  41.2260330  17.8315200
  67.5992430  47.0543530  24.2289010  68.2434650  47.2602910  24.9062430
  67.9621870  46.2931930  23.7759860  61.1971600  31.8874840  17.4719230
  61.0686230  31.8792740  18.4204150  60.3733620  32.2257930  17.1210240
  72.7180230  45.3424500  12.6705600  72.4917810  44.6254940  13.2630240
  72.3276430  45.0936940  11.8327350  70.6462130  45.8570780  26.1502520
  70.9818370  46.4437470  26.8280440  69.7262470  45.7263490  26.3800310
  58.4996260  49.3691360  13.4450060  58.8593900  49.9680700  12.7907330
  58.3588600  49.9151250  14.2185090  58.1965530  33.6465960  26.9325930
  57.4824050  33.8462880  27.5378540  58.6160570  32.8705530  27.3040730
  72.2996480  43.2596440  14.3319760  72.0118180  43.7209130  15.1197640
  73.0948650  42.7994210  14.6003980  66.4750710  45.9062110  29.3190580
  66.1547580  45.1871350  29.8636270  65.8009070  46.5817180  29.3926640
  64.5164880  46.7522560  14.2623730  64.5074980  47.4852250  13.6468240
  63.5963240  46.5054140  14.3550690  60.1171520  41.9737450  15.0070490
  59.5099470  42.7136350  15.0165790  60.5920870  42.0636810  14.1808690
  69.6904310  36.1388270  24.6827380  70.0585130  35.3183480  25.0106950
  68.8302510  36.1990160  25.0983030  73.0566340  35.0945210  15.4914940
  72.4279500  35.1990880  14.7773170  72.5618260  35.3141990  16.2808820
  67.5024480  46.8150800  12.9248920  67.6036460  46.6114790  11.9950900
  66.6026220  46.5609080  13.1296700  65.0250370  37.3731160  16.9072820
  64.3166520  37.8417500  17.3486430  65.3094850  36.7153170  17.5418010
  66.6506300  38.7927860  24.9065350  67.1491550  39.2673680  25.5717200
  66.7929250  37.8691380  25.1135380  69.0565800  34.0981820  18.3468610
  68.9333580  34.1167950  17.3978120  70.0050360  34.1460760  18.4667010
  66.1442590  49.3337120  17.6196590  66.3984090  49.2958510  16.6975960
  65.1955070  49.2070450  17.6124840  63.2285390  35.6816240  14.2823530
  64.0775920  36.1186390  14.2163720  62.8616660  35.9936500  15.1095590
  73.8573160  35.0095820  25.7493740  73.3546760  35.7501220  26.0887550
  74.6729820  35.3979820  25.4330530  72.1495170  40.2529000  19.1955100
  71.2085310  40.2679230  19.3702790  72.4639240  39.4664960  19.6415400
  62.1276810  41.9348600  12.7559060  62.8940080  41.8229960  13.3184490
  62.2051500  41.2386570  12.1035830  60.8223570  39.3673670  13.4391950
  60.9027160  38.4201180  13.5509350  61.7143320  39.6980550  13.5452610
  74.1520750  47.4237850  20.8709360  74.2768170  48.2469020  21.3433170
  75.0186310  47.2128580  20.5233510  58.5083760  45.5842630  16.4168000
  57.5823540  45.8263770  16.4073410  58.9740190  46.4116890  16.2952750
  60.6296560  48.7015130  29.7312070  61.4309290  49.0227180  30.1447470
  60.1148380  48.3410710  30.4531980  64.7340590  48.6899370  12.3652060
  65.5269200  48.9788200  11.9133850  64.2144940  48.2591540  11.6864540
  70.8961560  48.5375290  28.2896890  71.8483310  48.4533310  28.2397130
  70.7489780  49.2017000  28.9630680  73.7870760  47.9169500  13.7888800
  73.5012270  47.5034640  12.9742980  73.5890310  48.8457210  13.6689320
  65.2517990  43.9102780  12.2294410  65.1468630  43.2955130  12.9555790
  65.0842210  43.3868670  11.4457420  65.4032310  42.5959580  28.2083640
  64.6377980  43.1644580  28.1238310  65.5848270  42.3035790  27.3151870
  68.4920720  42.9722810  12.8336400  67.9430820  43.4192110  13.4779140
  69.1139980  42.4672060  13.3574070  60.3817450  39.3318180  29.5698190
  60.4222790  39.0332050  30.4783420  61.2362950  39.7325790  29.4105710
  64.1595840  41.9313730  14.7301700  64.5812260  41.7653600  15.5733090
  64.2846680  41.1213960  14.2356840  62.3223260  37.9110280  27.5372680
  61.7919720  37.4201230  26.9096020  62.9911330  38.3394480  27.0030610
  66.6723480  40.9551340  11.9778800  67.1929140  40.2400360  11.6119950
  67.3191880  41.5937210  12.2779310  62.8095560  34.8772650  27.6169970
  62.7152430  34.2593400  26.8920840  62.2292950  35.6038940  27.3899880
  65.5757000  33.4345890  24.6497360  65.1274300  33.4570150  23.8042910
  64.9422200  33.0364910  25.2467660  68.3180450  40.0616400  26.6547640
  68.4376660  39.4657540  27.3942480  69.1774450  40.0986090  26.2348940
  70.6568350  40.6153590  25.2310150  70.1303570  41.1396210  24.6275290
  70.9999690  41.2480980  25.8619880  63.0554740  38.0046960  11.6759860
  62.8543800  37.1414320  12.0373200  62.8846790  37.9180320  10.7381460
  63.8323970  48.6353230  26.3867530  63.2945060  49.3599290  26.0676230
  64.0857930  48.1583570  25.5964870  65.0849220  36.6037750  27.9123460
  65.6748910  36.2953600  28.6001280  64.2669460  36.1317500  28.0683360
  69.9042650  36.2203560  28.1456480  69.2158170  35.5585100  28.0806470
  70.6248670  35.7741830  28.5904940  70.5343050  32.8155190  14.2046740
  70.8145340  31.9723090  14.5606160  69.7608780  33.0478300  14.7185490
  61.8537540  35.1047580  11.6637740  62.1563440  35.1115010  10.7556890
  62.5932130  34.7545440  12.1605400  66.6886180  49.8704440  26.6454180
  66.6144880  50.7739580  26.9526550  65.7865020  49.5516340  26.6176250
  65.0722470  34.0482200  12.6493940  64.7244470  33.3706190  12.0696390
  65.2735240  33.5871710  13.4637330  67.2371510  49.0362950  14.2680540
  68.1322300  49.3747920  14.2899300  67.2689140  48.3142360  13.6404820
  60.8767670  44.4090000  12.4967540  61.3142540  44.9519670  13.1525120
  61.3615400  43.5836950  12.5063880  58.0913470  47.1979030  19.9487800
  58.4216480  46.3300090  19.7166440  58.5204470  47.4037550  20.7792760
  62.6875390  45.5288040  17.6089770  62.3870930  45.4053010  18.5093680
  62.5812880  44.6696630  17.2005500  75.4567310  45.3084440  12.3116450
  74.6260270  45.3761090  12.7823680  75.6339140  46.1988560  12.0083310
  74.9123770  42.0531920  14.8150650  75.6742680  42.6228570  14.9210340
  74.9278140  41.4859120  15.5858960  58.4128110  40.5769850  19.0458310
  57.7576950  40.3081490  18.4018010  59.2506060  40.4674330  18.5960290
  75.9183740  42.9082020  19.6592580  76.2892570  42.1249340  19.2528550
  76.5585670  43.5971120  19.4809880  72.9017500  44.2918600  25.0722900
  72.0877340  44.7215760  25.3348690  73.3091700  44.9037010  24.4591950
  74.9642940  42.3466290  11.9723170  75.2391780  43.2545170  11.8442390
  74.7753680  42.2828820  12.9085160  71.3618550  35.3711140  13.2676800
  71.7803430  35.1842120  12.4273460  71.0554610  34.5190190  13.5779730
  74.8608280  40.2835280  16.9652600  74.4851880  39.5163210  16.5333890
  74.1311400  40.6657980  17.4527530  59.4504040  40.9622420  23.5861650
  59.8177080  40.8749820  24.4657670  58.8814860  40.1988970  23.4868510
  59.0020040  37.8731510  27.4920070  58.1076090  37.8398270  27.8313780
  59.5417590  38.0718300  28.2571320  57.6266190  37.7868780  14.9883640
  56.7230270  38.0498980  14.8135300  58.1106810  38.0579950  14.2083600
  74.1359240  38.5092770  20.2659840  74.6596720  38.0155420  19.6350010
  74.7218660  38.6443130  21.0107410  60.1693400  36.8434320  12.8978020
  60.8785100  36.4217540  12.4125300  59.4533340  36.9109550  12.2661370
  59.8167560  32.8973650  11.9380670  60.5395690  33.4382590  12.2561890
  60.0892080  32.6237070  11.0622210  73.6259210  37.7666120  16.2052250
  74.1218330  37.5336990  16.9901130  73.4275280  36.9277960  15.7889890
  59.5059750  32.1479840  21.8403290  60.1535940  31.5977220  21.3998450
  59.9261590  32.4022990  22.6619100  75.0546370  36.4027070  18.7389930
  74.9445650  36.2483110  19.6772200  75.8153960  35.8748010  18.4965340
  73.4012090  32.3421200  25.1972930  74.0384310  32.9555340  25.5632120
  73.5486980  32.3781860  24.2522160  75.9436640  34.2334990  11.9796070
  76.8685950  34.1016170  11.7714360  75.9212430  34.3127810  12.9332520
  76.0175130  35.0045650  14.6052780  75.2226630  34.9390770  15.1345690
  76.2218410  35.9396290  14.5938130  72.9593550  49.0437200  18.5991170
  73.5552620  48.7221770  17.9225590  73.2171700  48.5709020  19.3904440
  59.2591750  32.3035510  24.5828610  58.9106570  32.7599330  25.3486790
  58.9279450  31.4092640  24.6651040  64.5662150  47.0314700  24.3491520
  64.3253510  47.2989260  23.4622040  65.5064790  47.2020430  24.4042380
  66.7716570  33.4947390  28.1048030  66.7105460  34.0869220  28.8543440
  67.7116950  33.3873350  27.9598290  59.9312390  31.8311710  27.8579380
  60.4795380  31.6499760  27.0945490  59.9967700  31.0405820  28.3935690
  70.1499170  31.7149590  24.0709610  69.2759010  32.0484700  23.8682540
  70.0409920  31.2422770  24.8961480  71.0571150  33.9220460  25.4551330
  70.7284510  33.1072220  25.0753060  72.0053450  33.8790270  25.3317020
  73.5105760  49.6932500  22.4288900  73.0508730  50.4448310  22.0546920
  72.8818220  48.9738970  22.3703700  63.9401480  48.0020740  21.6037030
  64.4566500  47.3908100  21.0785290  64.5898860  48.5049520  22.0948040
  66.6796980  48.8929230  22.4306010  66.9674790  48.6383530  21.5539020
  67.1920200  48.3406590  23.0211580  67.8973990  32.6319430  23.0102520
  67.1145780  33.1064930  23.2899280  67.6036920  31.7274260  22.9015700
  72.4495060  33.3342530  21.0551610  72.8903150  33.2787630  20.2073210
  72.1802650  34.2500540  21.1261790  74.3133630  32.9657770  19.0660430
  74.2522030  32.0218990  18.9191450  75.0925660  33.0737860  19.6113890
  58.6186380  49.1050130  18.0284380  58.4508420  48.4720810  18.7266270
  57.7520890  49.3109530  17.6778570  59.2414400  32.9366910  15.5316240
  59.9993760  33.0495790  14.9580270  58.7791570  33.7736110  15.4859670
  65.7828210  35.0506180  18.5218550  64.9702720  34.6763070  18.1814430
  66.2869850  34.2951260  18.8239740  70.2853190  31.7148630  19.7601620
  70.8882560  32.2868840  20.2350140  69.5446180  32.2788070  19.5375520
  73.4287790  32.1170190  15.0341900  73.6238420  33.0153640  15.3009330
  72.6417660  31.8857270  15.5274850  60.2249080  47.7983360  15.4734520
  59.6996700  48.1791390  14.7696480  60.1493660  48.4234130  16.1944230
  61.6139550  33.4630960  14.0718210  62.1432310  32.6760760  13.9426160
  62.2467870  34.1422150  14.3053740  63.8077390  33.2006100  17.1263600
  63.1780130  32.4993410  17.2933730  63.2682530  33.9610230  16.9096760
  66.7469340  49.8145330  29.7974210  67.6736650  49.5789600  29.8410170
  66.7319770  50.6417330  29.3160240  74.9814400  49.3570900  16.7948460
  75.1566590  48.6708640  16.1509380  74.2835970  49.8817950  16.4025130
  63.9332950  32.4790080  29.5616090  63.6517220  32.9823680  28.7976910
  64.3152650  31.6811830  29.1958220  62.8242050  49.7465740  14.3483770
  63.5560870  49.4625020  13.8007660  63.0835720  49.5079020  15.2383150
  61.9856840  45.8630470  14.3530100  61.3565720  46.3315570  14.9015930
  62.1004670  45.0179690  14.7876290  73.3146900  49.0415190  29.6215250
  74.1072220  48.5464420  29.4141210  73.6080050  49.7205330  30.2290860
  67.5724600  41.6915150   2.3840570  66.7966700  41.2115590   2.6739140
  68.2237530  41.0120800   2.2096730  61.5890430  42.0034960   3.2616330
  60.7575310  41.7483670   3.6612840  62.1971410  42.0745730   3.9974250
  61.5691690  46.0375050   3.4574350  61.8719730  45.1472790   3.2784570
  62.3135280  46.5945270   3.2296600  57.9615390  39.5642500   2.9298420
  58.5331500  38.7964700   2.9302060  57.9616930  39.8631260   2.0205030
  67.0133590  44.3672340   2.3910730  66.9441870  43.4262280   2.2299860
  67.7753450  44.4573750   2.9633300  59.2040260  34.9726860   4.7167350
  59.0243100  34.0752610   4.9970110  58.8020340  35.5198730   5.3914300
  68.0438760  37.1742720   2.6179660  68.4203580  36.3014600   2.5053330
  67.9458270  37.5101420   1.7270100  59.8226930  37.4687360   3.3249690
  60.5037040  37.7325730   3.9437090  59.5074980  36.6288230   3.6587700
  64.0151500  38.5154720   2.4122280  64.5229720  39.0135690   3.0527300
  64.5464740  37.7389920   2.2361640  76.1162430  36.6859910   6.1151630
  75.4114600  37.0741620   5.5966740  76.3820350  37.3810200   6.7172560
  62.2987600  33.1553280   6.6785700  62.3006040  33.6725670   5.8731600
  61.4691910  32.6783460   6.6555630  63.5490450  42.7948460   4.8559200
  63.2159830  43.4217380   5.4980270  63.7257130  43.3210340   4.0760870
  72.0624360  36.6093540   2.3235540  71.3579930  36.8978430   2.9038650
  72.4236520  37.4193650   1.9635100  61.9802930  34.8663240   4.6856150
  62.3219740  35.7105290   4.3910020  61.0418740  35.0146980   4.8021490
  62.7609550  44.7629260   6.6708380  63.3783550  45.4380340   6.3892830
  61.9002670  45.1717240   6.5795880  73.6787140  46.2268670   4.5863020
  72.9950660  46.8967780   4.5779690  74.2181430  46.4249320   3.8207880
  75.1311280  36.0548330   2.7144750  74.1836190  36.0887310   2.8460180
  75.4561270  36.8687280   3.0994110  71.2145880  48.0712800   3.3008200
  71.2273040  47.6675090   2.4330460  70.6621100  48.8460090   3.1969630
  70.6131320  42.9742640   4.6290810  71.0300110  42.7602750   3.7944270
  71.3371140  43.2315430   5.1999430  74.5593420  41.3729860   4.7207050
  73.7312050  41.4422950   4.2457180  75.1543900  41.9584170   4.2522880
  71.5235430  38.1599180   5.6661920  71.1106610  38.9852890   5.9201910
  70.7911380  37.5744220   5.4738280  64.1249920  44.6326640   2.6919800
  63.8278210  44.0272110   2.0127580  65.0749740  44.6703950   2.5809160
  62.3696840  37.7202290   4.3079630  62.9211430  37.8297630   3.5332880
  62.8840350  38.0939890   5.0234860  72.2135530  48.2058510   6.3542900
  71.7366090  49.0130700   6.1615510  71.5297320  47.5536840   6.5069110
  63.2168350  44.3708330   9.3427600  62.3196880  44.5948300   9.5901000
  63.2421220  44.4943270   8.3939000  62.0439570  41.2421650   7.9184970
  61.9047340  42.1144450   8.2872370  61.1620930  40.8994460   7.7732910
  63.8419920  47.1843350  10.1270120  63.8135350  47.5886300   9.2598550
  63.6784890  46.2553710   9.9641720  75.7934740  47.9670450  11.4234290
  76.2694460  48.4453340  12.1023370  76.4141900  47.8987940  10.6979790
  57.9958220  43.0119200   3.8355880  58.0738640  43.1467970   2.8911600
  58.6099900  42.3035090   4.0284000  75.1967990  45.1583300   8.5834300
  75.3231050  44.9195180   7.6651480  75.2389370  44.3267840   9.0556380
  69.0584730  48.8611300   7.1529110  69.5729400  48.7719310   7.9551540
  68.2153810  49.2071000   7.4457020  75.0492000  37.2115760   9.5484040
  74.4336270  37.7195430   9.0199500  74.7288420  36.3114090   9.4909980
  58.0517740  44.0533370   6.3750340  58.2148780  43.5838730   5.5569710
  58.5170190  43.5456930   7.0399180  67.1106320  36.0507650   7.0146230
  66.6485690  36.2590670   7.8266170  66.7084430  35.2367000   6.7116900
  72.1110830  37.2716600   8.1442890  71.2604420  36.9722350   8.4651960
  71.9512620  37.5158610   7.2326710  69.2060540  38.7718350  10.2441680
  69.5313950  37.9382100   9.9043910  69.9940870  39.2946870  10.3920010
  64.8612410  33.7286460   3.2700510  65.1584740  34.6349290   3.1892530
  65.4097970  33.2405240   2.6560080  65.0549940  39.2058280   9.8052430
  64.9593540  38.2653010   9.6552830  65.8981920  39.4273350   9.4100500
  60.1860480  35.6171950   7.9586210  59.7923870  36.4647160   8.1658990
  59.4978880  34.9798320   8.1494850  66.7605530  35.7006920  11.0282950
  66.0703850  35.5079120  11.6629040  67.5037830  35.9841560  11.5607250
  57.4877530  33.5400410   1.9916290  57.1990580  34.1103270   2.7041270
  58.2323290  33.0604860   2.3547520  69.0368500  39.5405360   3.8636870
  68.3049620  40.0492170   4.2126970  68.6392840  38.7235340   3.5625650
  65.4745890  36.2159560   2.2689360  65.4781950  35.7749510   1.4193900
  66.3697010  36.5376890   2.3761180  69.4994410  34.9939040   3.2759810
  69.5167150  35.4447690   4.1201660  69.2509990  34.0944680   3.4893250
  72.9265160  32.4071220   9.1146190  73.2510930  31.6760880   9.6404170
  72.9621670  32.0884860   8.2127180  59.6256720  43.4284800   8.5346150
  59.2411510  42.7878470   9.1329110  59.9368910  44.1320920   9.1040880
  65.7753860  40.2761340   4.0154770  66.1423990  39.8019910   4.7616110
  65.5858920  41.1502910   4.3563110  63.5653230  39.3169980   6.3338980
  63.2610300  40.1961960   6.5589340  64.5199690  39.3769770   6.3696420
  72.8523000  42.5196330   2.7232220  73.5722120  43.0151620   2.3328330
  72.6504820  41.8414220   2.0786090  68.2341800  42.5905390   8.6101220
  68.1679110  41.6701060   8.3558810  67.6046940  42.6880830   9.3245860
  59.6216960  40.1572720   7.4810340  59.2631900  40.8226570   8.0683680
  59.3271520  39.3256270   7.8522960  62.8230080  40.6156960  10.3649890
  62.5230220  40.7614140   9.4677710  63.5941320  40.0562250  10.2723280
  68.1658530  45.4125960   8.3605020  68.1803070  44.4806920   8.1423930
  67.4583630  45.4985720   8.9994790  74.3769740  42.0533300   7.7073600
  73.6517930  42.6462080   7.5102990  74.9045200  42.0456840   6.9086970
  67.5992430  47.0543530   5.4545520  68.2434650  47.2602910   6.1318940
  67.9621870  46.2931930   5.0016370  68.8724510  45.0575880   4.1722970
  69.5146740  44.3569040   4.2855140  69.3973860  45.8374320   3.9919860
  70.6462130  45.8570780   7.3759030  70.9818370  46.4437470   8.0536950
  69.7262470  45.7263490   7.6056820  58.1965530  33.6465960   8.1582440
  57.4824050  33.8462880   8.7635050  58.6160570  32.8705530   8.5297240
  58.4838120  47.6346220   9.1448970  58.5929240  46.6940960   9.0044360
  57.8318680  47.9000970   8.4962700  66.4750710  45.9062110  10.5447090
  66.1547580  45.1871350  11.0892780  65.8009070  46.5817180  10.6183150
  69.6904310  36.1388270   5.9083890  70.0585130  35.3183480   6.2363460
  68.8302510  36.1990160   6.3239540  66.6506300  38.7927860   6.1321860
  67.1491550  39.2673680   6.7973710  66.7929250  37.8691380   6.3391890
  73.8573160  35.0095820   6.9750250  73.3546760  35.7501220   7.3144060
  74.6729820  35.3979820   6.6587040  74.1520750  47.4237850   2.0965870
  74.2768170  48.2469020   2.5689680  75.0186310  47.2128580   1.7490020
  61.6238280  49.5169060   1.7683000  62.3600760  48.9684520   2.0391570
  62.0079200  50.3825070   1.6288990  60.6296560  48.7015130  10.9568580
  61.4309290  49.0227180  11.3703980  60.1148380  48.3410710  11.6788490
  69.4661190  44.8095000  10.9043990  68.8599350  44.8326600  10.1639740
  69.1615300  44.0778040  11.4411240  70.8961560  48.5375290   9.5153400
  71.8483310  48.4533310   9.4653640  70.7489780  49.2017000  10.1887190
  58.3494370  41.1888590   9.9004630  58.8533390  40.6095870  10.4720860
  57.6101790  41.4728820  10.4381000  65.4032310  42.5959580   9.4340150
  64.6377980  43.1644580   9.3494820  65.5848270  42.3035790   8.5408380
  72.5455660  44.3264910   9.9915170  73.2865130  44.6640670   9.4882630
  71.7828340  44.4956970   9.4384940  60.3817450  39.3318180  10.7954700
  60.4222790  39.0332050  11.7039930  61.2362950  39.7325790  10.6362220
  62.3223260  37.9110280   8.7629190  61.7919720  37.4201230   8.1352530
  62.9911330  38.3394480   8.2287120  71.2201320  42.3779740   8.5270380
  71.6342340  42.5324820   9.3760800  70.2852320  42.5034960   8.6896160
  71.6923490  39.7175900  10.5309530  72.2744260  38.9628220  10.4430010
  71.8685260  40.2483340   9.7541010  62.8095560  34.8772650   8.8426480
  62.7152430  34.2593400   8.1177350  62.2292950  35.6038940   8.6156390
  65.5757000  33.4345890   5.8753870  65.1274300  33.4570150   5.0299420
  64.9422200  33.0364910   6.4724170  65.9816550  42.3300220   6.4966310
  66.4004660  43.1732950   6.3242550  65.0625180  42.4672260   6.2673090
  68.3180450  40.0616400   7.8804150  68.4376660  39.4657540   8.6198990
  69.1774450  40.0986090   7.4605450  70.6568350  40.6153590   6.4566660
  70.1303570  41.1396210   5.8531800  70.9999690  41.2480980   7.0876390
  63.8323970  48.6353230   7.6124040  63.2945060  49.3599290   7.2932740
  64.0857930  48.1583570   6.8221380  65.0849220  36.6037750   9.1379970
  65.6748910  36.2953600   9.8257790  64.2669460  36.1317500   9.2939870
  69.9042650  36.2203560   9.3712990  69.2158170  35.5585100   9.3062980
  70.6248670  35.7741830   9.8161450  66.6886180  49.8704440   7.8710690
  66.6144880  50.7739580   8.1783060  65.7865020  49.5516340   7.8432760
  58.5803680  48.0649620   3.9125940  58.1434670  48.2450420   4.7450090
  59.1481360  48.8224240   3.7707660  74.2165860  47.5666620   8.2003250
  73.6167850  47.6259180   7.4567170  74.3459760  46.6271600   8.3300100
  72.9017500  44.2918600   6.2979410  72.0877340  44.7215760   6.5605200
  73.3091700  44.9037010   5.6848460  59.4504040  40.9622420   4.8118160
  59.8177080  40.8749820   5.6914180  58.8814860  40.1988970   4.7125020
  74.2507900  39.4306800   7.8248630  74.0193990  39.2019550   6.9246580
  74.5112450  40.3506350   7.7793520  59.0020040  37.8731510   8.7176580
  58.1076090  37.8398270   9.0570290  59.5417590  38.0718300   9.4827830
  72.6895970  34.6563230  10.6028330  73.5666150  34.6646630  10.9862330
  72.7016810  33.9194070   9.9920680  74.3148960  38.5932640   5.0135900
  73.3651670  38.5596180   5.1280890  74.4961970  39.5032750   4.7785670
  59.5059750  32.1479840   3.0659800  60.1535940  31.5977220   2.6254960
  59.9261590  32.4022990   3.8875610  73.4012090  32.3421200   6.4229440
  74.0384310  32.9555340   6.7888630  73.5486980  32.3781860   5.4778670
  59.2591750  32.3035510   5.8085120  58.9106570  32.7599330   6.5743300
  58.9279450  31.4092640   5.8907550  60.8656120  45.4755110   9.9738310
  60.8225750  45.1048020  10.8552770  60.9967130  46.4132680  10.1140130
  64.5662150  47.0314700   5.5748030  64.3253510  47.2989260   4.6878550
  65.5064790  47.2020430   5.6298890  66.7716570  33.4947390   9.3304540
  66.7105460  34.0869220  10.0799950  67.7116950  33.3873350   9.1854800
  69.4091130  33.1517450   8.9696830  70.0231540  33.4696740   8.3077910
  69.9540690  32.6666040   9.5892690  75.8266310  49.0509080   6.3758670
  75.3324590  49.4477950   5.6585800  75.2179600  48.4258290   6.7695950
  59.9312390  31.8311710   9.0835890  60.4795380  31.6499760   8.3202000
  59.9967700  31.0405820   9.6192200  60.7044150  48.4217360   7.0936090
  60.1104470  48.2902060   7.8326130  60.6967990  47.5855500   6.6278190
  70.1499170  31.7149590   5.2966120  69.2759010  32.0484700   5.0939050
  70.0409920  31.2422770   6.1217990  71.0571150  33.9220460   6.6807840
  70.7284510  33.1072220   6.3009570  72.0053450  33.8790270   6.5573530
  73.5105760  49.6932500   3.6545410  73.0508730  50.4448310   3.2803430
  72.8818220  48.9738970   3.5960210  60.3356380  45.7875740   6.0444130
  59.6090440  45.1681030   5.9770080  60.3965530  46.1816350   5.1742210
  63.9401480  48.0020740   2.8293540  64.4566500  47.3908100   2.3041800
  64.5898860  48.5049520   3.3204550  66.6796980  48.8929230   3.6562520
  66.9674790  48.6383530   2.7795530  67.1920200  48.3406590   4.2468090
  67.8973990  32.6319430   4.2359030  67.1145780  33.1064930   4.5155790
  67.6036920  31.7274260   4.1272210  72.4495060  33.3342530   2.2808120
  72.8903150  33.2787630   1.4329720  72.1802650  34.2500540   2.3518300
  66.7469340  49.8145330  11.0230720  67.6736650  49.5789600  11.0666680
  66.7319770  50.6417330  10.5416750  63.9332950  32.4790080  10.7872600
  63.6517220  32.9823680  10.0233420  64.3152650  31.6811830  10.4214730
  70.5348410  31.8943660  11.3653070  70.4213860  32.2138270  12.2604590
  71.3518150  32.2956170  11.0690350  73.3146900  49.0415190  10.8471760
  74.1072220  48.5464420  10.6397720  73.6080050  49.7205330  11.4547370
  69.4406560  21.1392640 150.6979220  69.3600610  20.2247250 150.4270930
  69.0270980  21.6359710 149.9918930  67.5724600  22.9171660 152.5788490
  66.7966700  22.4372100 152.8687060  68.2237530  22.2377310 152.4044650
  71.5932030  27.3231850 151.3587620  71.1313560  26.5519090 151.6874790
  72.4057580  27.3497920 151.8640070  59.9982380  18.1893360 147.2406640
  59.1099080  18.5309330 147.1386520  60.2823570  17.9893680 146.3487470
  57.9615390  20.7899010 153.1246340  58.5331500  20.0221210 153.1249980
  57.9616930  21.0887770 152.2152950  67.8195340  29.6089860 150.9791610
  67.2006780  30.0647360 150.4086050  68.6747120  29.7641320 150.5781310
  67.0133590  25.5928850 152.5858650  66.9441870  24.6518790 152.4247780
  67.7753450  25.6830260 153.1581220  68.0438760  18.3999230 152.8127580
  68.4203580  17.5271110 152.7001250  67.9458270  18.7357930 151.9218020
  62.1743770  16.7724860 148.2745020  62.2810520  17.6728590 148.5813780
  61.2636130  16.7242830 147.9839670  71.8262880  15.8949670 149.7455920
  72.6472500  15.4046240 149.7881400  71.8596960  16.4847330 150.4987760
  68.6858690  24.4929100 148.3723520  68.0675960  24.9578550 147.8086240
  69.1981940  25.1856580 148.7893030  72.0624360  17.8350050 152.5183460
  71.3579930  18.1234940 153.0986570  72.4236520  18.6450160 152.1583020
  58.0541890  25.1785630 145.7463150  57.6769870  25.6672730 145.0148050
  58.3114960  25.8510910 146.3769680  65.6630820  13.5802020 151.2048660
  65.9705800  13.0248910 150.4884160  64.7331520  13.7146480 151.0221650
  72.5091300  26.0185530 148.5846290  72.3987630  25.0759860 148.7095710
  72.5059550  26.3801170 149.4709050  68.0511580  21.6450850 147.9408780
  67.1240860  21.5788230 148.1697250  68.2036400  22.5830980 147.8264020
  68.0380660  17.9167850 144.9375940  67.0984330  18.0781810 145.0228400
  68.3563920  18.6353530 144.3911930  72.0808870  23.2071150 148.4444030
  71.4621290  22.8690700 147.7970330  72.0633320  22.5630910 149.1523220
  63.6568220  22.1715590 150.7228510  63.2525220  21.4592840 150.2274410
  63.7431340  21.8268830 151.6116550  64.1249920  25.8583150 152.8867720
  63.8278210  25.2528620 152.2075500  65.0749740  25.8960460 152.7757080
  70.2573570  22.4457960 145.4516780  70.6966850  21.6080390 145.3054600
  70.9701990  23.0787360 145.5380920  68.3668950  27.3854030 149.4198020
  68.8064860  28.1278360 149.0053410  68.3055840  27.6280600 150.3436980
  73.8390710  13.7000770 143.7657820  73.5263370  13.7927600 144.6656890
  74.6003180  14.2781800 143.7155250  60.3572850  21.0660570 148.2235160
  60.2370450  21.7922660 147.6116430  60.0473740  20.2963480 147.7463070
  59.2405850  25.9375900 150.4409980  58.8333930  26.0790490 149.5863580
  60.1318860  25.6536060 150.2381190  71.0339130  30.3723150 146.7761030
  70.8740270  30.0826090 147.6742860  70.8685840  29.5963280 146.2406260
  63.5127510  30.1521680 148.5532650  63.3369990  29.2357220 148.3400450
  62.6583250  30.5108970 148.7930450  70.7365260  27.8810710 145.3359030
  70.0430420  27.8788000 144.6761310  71.4788120  27.4570030 144.9053200
  70.3015190  29.5073420 149.4107520  70.7572140  28.7262800 149.7246140
  70.6407710  30.2180240 149.9548700  62.8236510  14.4095640 151.6058830
  62.3804660  15.1905180 151.2743350  63.3821500  14.7325530 152.3129770
  65.9395330  14.0306340 146.4864660  65.3149510  14.0266210 147.2117970
  65.8525450  13.1637300 146.0900630  62.6150730  19.5329210 149.3340080
  62.3891650  19.3166380 150.2386700  61.8343260  19.9657670 148.9886050
  69.8448490  19.5392580 147.9330730  69.2457380  20.2628380 147.7494350
  70.3928100  19.4769360 147.1507180  68.4513360  18.1756120 149.9634010
  68.8442930  18.4928320 149.1502700  68.8130210  17.2968000 150.0778530
  57.4877530  14.7656920 152.1864210  57.1990580  15.3359780 152.8989190
  58.2323290  14.2861370 152.5495440  57.6747760  18.7077040 143.3966930
  57.5922430  19.6507800 143.5381920  57.3230820  18.5651950 142.5179280
  65.4745890  17.4416070 152.4637280  65.4781950  17.0006020 151.6141820
  66.3697010  17.7633400 152.5709100  61.3248270  17.3242560 151.4231490
  60.9848320  17.8017790 152.1798540  60.5625590  16.8707680 151.0632590
  65.5366040  18.4428150 145.4544040  65.6578860  18.4014630 146.4029860
  65.1514550  19.3052300 145.2990770  64.5487540  20.7529290 144.8527340
  63.9804440  20.3047540 144.2263250  65.2576540  21.1122070 144.3192490
  58.6394350  16.2461540 150.3396160  58.3541270  15.8817210 151.1774780
  58.5773210  15.5142000 149.7259300  62.0935020  24.7487480 147.1253750
  61.3197280  24.2085100 146.9652470  62.8229650  24.2294090 146.7871510
  72.8523000  23.7452840 152.9180140  73.5722120  24.2408130 152.5276250
  72.6504820  23.0670730 152.2734010  68.3132940  15.1390800 147.0609530
  67.4997550  14.6403970 146.9854840  68.1194890  15.9789050 146.6445880
  71.0281330  19.5110450 145.3571690  71.9160950  19.8227680 145.1823030
  70.9986420  18.6382700 144.9652270  62.1372420  24.4167860 150.7632560
  62.6551090  23.6136120 150.7089450  61.6856440  24.3547000 151.6049390
  67.0241920  25.6834140 146.0359860  67.3657620  26.4276370 145.5403180
  66.1954630  25.9965260 146.3984690  73.2995600  20.8222290 144.8251550
  73.2159320  21.2536510 143.9747990  74.0189790  21.2820640 145.2578370
  74.3282850  27.6764550 147.5533680  73.6859010  27.0220170 147.8277400
  73.9413510  28.0819640 146.7774350  69.9069330  25.0049980 151.4005370
  70.2593150  24.4078110 150.7406740  69.0231660  24.6794210 151.5713620
  65.9932610  25.7647670 148.8075780  66.6803740  26.3116880 149.1883370
  65.2065030  26.3088400 148.8425390  58.1325010  21.3820490 144.2992860
  59.0019860  21.6645290 144.5828780  57.6415330  22.1956360 144.1841670
  65.2959820  22.7693700 148.4201140  65.7522600  23.5798950 148.6461330
  64.9448030  22.4516840 149.2519630  61.1971600  13.1131350 148.8923660
  61.0686230  13.1049250 149.8408580  60.3733620  13.4514440 148.5414670
  72.7180230  26.5681010 144.0910030  72.4917810  25.8511450 144.6834670
  72.3276430  26.3193450 143.2531780  58.4996260  30.5947870 144.8654490
  58.8593900  31.1937210 144.2111760  58.3588600  31.1407760 145.6389520
  72.2996480  24.4852950 145.7524190  72.0118180  24.9465640 146.5402070
  73.0948650  24.0250720 146.0208410  64.5164880  27.9779070 145.6828160
  64.5074980  28.7108760 145.0672670  63.5963240  27.7310650 145.7755120
  60.1171520  23.1993960 146.4274920  59.5099470  23.9392860 146.4370220
  60.5920870  23.2893320 145.6013120  73.0566340  16.3201720 146.9119370
  72.4279500  16.4247390 146.1977600  72.5618260  16.5398500 147.7013250
  67.5024480  28.0407310 144.3453350  67.6036460  27.8371300 143.4155330
  66.6026220  27.7865590 144.5501130  65.0250370  18.5987670 148.3277250
  64.3166520  19.0674010 148.7690860  65.3094850  17.9409680 148.9622440
  69.0565800  15.3238330 149.7673040  68.9333580  15.3424460 148.8182550
  70.0050360  15.3717270 149.8871440  66.1442590  30.5593630 149.0401020
  66.3984090  30.5215020 148.1180390  65.1955070  30.4326960 149.0329270
  63.2285390  16.9072750 145.7027960  64.0775920  17.3442900 145.6368150
  62.8616660  17.2193010 146.5300020  72.1495170  21.4785510 150.6159530
  71.2085310  21.4935740 150.7907220  72.4639240  20.6921470 151.0619830
  62.1276810  23.1605110 144.1763490  62.8940080  23.0486470 144.7388920
  62.2051500  22.4643080 143.5240260  60.8223570  20.5930180 144.8596380
  60.9027160  19.6457690 144.9713780  61.7143320  20.9237060 144.9657040
  74.1520750  28.6494360 152.2913790  74.2768170  29.4725530 152.7637600
  75.0186310  28.4385090 151.9437940  61.6238280  30.7425570 151.9630920
  62.3600760  30.1941030 152.2339490  62.0079200  31.6081580 151.8236910
  58.5083760  26.8099140 147.8372430  57.5823540  27.0520280 147.8277840
  58.9740190  27.6373400 147.7157180  64.7340590  29.9155880 143.7856490
  65.5269200  30.2044710 143.3338280  64.2144940  29.4848050 143.1068970
  73.7870760  29.1426010 145.2093230  73.5012270  28.7291150 144.3947410
  73.5890310  30.0713720 145.0893750  65.2517990  25.1359290 143.6498840
  65.1468630  24.5211640 144.3760220  65.0842210  24.6125180 142.8661850
  68.4920720  24.1979320 144.2540830  67.9430820  24.6448620 144.8983570
  69.1139980  23.6928570 144.7778500  64.1595840  23.1570240 146.1506130
  64.5812260  22.9910110 146.9937520  64.2846680  22.3470470 145.6561270
  66.6723480  22.1807850 143.3983230  67.1929140  21.4656870 143.0324380
  67.3191880  22.8193720 143.6983740  63.0554740  19.2303470 143.0964290
  62.8543800  18.3670830 143.4577630  62.8846790  19.1436830 142.1585890
  70.5343050  14.0411700 145.6251170  70.8145340  13.1979600 145.9810590
  69.7608780  14.2734810 146.1389920  61.8537540  16.3304090 143.0842170
  62.1563440  16.3371520 142.1761320  62.5932130  15.9801950 143.5809830
  65.0722470  15.2738710 144.0698370  64.7244470  14.5962700 143.4900820
  65.2735240  14.8128220 144.8841760  67.2371510  30.2619460 145.6884970
  68.1322300  30.6004430 145.7103730  67.2689140  29.5398870 145.0609250
  60.8767670  25.6346510 143.9171970  61.3142540  26.1776180 144.5729550
  61.3615400  24.8093460 143.9268310  58.0913470  28.4235540 151.3692230
  58.4216480  27.5556600 151.1370870  58.5204470  28.6294060 152.1997190
  62.6875390  26.7544550 149.0294200  62.3870930  26.6309520 149.9298110
  62.5812880  25.8953140 148.6209930  75.4567310  26.5340950 143.7320880
  74.6260270  26.6017600 144.2028110  75.6339140  27.4245070 143.4287740
  74.9123770  23.2788430 146.2355080  75.6742680  23.8485080 146.3414770
  74.9278140  22.7115630 147.0063390  58.4128110  21.8026360 150.4662740
  57.7576950  21.5338000 149.8222440  59.2506060  21.6930840 150.0164720
  75.9183740  24.1338530 151.0797010  76.2892570  23.3505850 150.6732980
  76.5585670  24.8227630 150.9014310  74.9642940  23.5722800 143.3927600
  75.2391780  24.4801680 143.2646820  74.7753680  23.5085330 144.3289590
  71.3618550  16.5967650 144.6881230  71.7803430  16.4098630 143.8477890
  71.0554610  15.7446700 144.9984160  74.8608280  21.5091790 148.3857030
  74.4851880  20.7419720 147.9538320  74.1311400  21.8914490 148.8731960
  57.6266190  19.0125290 146.4088070  56.7230270  19.2755490 146.2339730
  58.1106810  19.2836460 145.6288030  74.1359240  19.7349280 151.6864270
  74.6596720  19.2411930 151.0554440  74.7218660  19.8699640 152.4311840
  60.1693400  18.0690830 144.3182450  60.8785100  17.6474050 143.8329730
  59.4533340  18.1366060 143.6865800  59.8167560  14.1230160 143.3585100
  60.5395690  14.6639100 143.6766320  60.0892080  13.8493580 142.4826640
  73.6259210  18.9922630 147.6256680  74.1218330  18.7593500 148.4105560
  73.4275280  18.1534470 147.2094320  75.0546370  17.6283580 150.1594360
  74.9445650  17.4739620 151.0976630  75.8153960  17.1004520 149.9169770
  75.9436640  15.4591500 143.4000500  76.8685950  15.3272680 143.1918790
  75.9212430  15.5384320 144.3536950  76.0175130  16.2302160 146.0257210
  75.2226630  16.1647280 146.5550120  76.2218410  17.1652800 146.0142560
  72.9593550  30.2693710 150.0195600  73.5552620  29.9478280 149.3430020
  73.2171700  29.7965530 150.8108870  72.4495060  14.5599040 152.4756040
  72.8903150  14.5044140 151.6277640  72.1802650  15.4757050 152.5466220
  74.3133630  14.1914280 150.4864860  74.2522030  13.2475500 150.3395880
  75.0925660  14.2994370 151.0318320  58.6186380  30.3306640 149.4488810
  58.4508420  29.6977320 150.1470700  57.7520890  30.5366040 149.0983000
  59.2414400  14.1623420 146.9520670  59.9993760  14.2752300 146.3784700
  58.7791570  14.9992620 146.9064100  65.7828210  16.2762690 149.9422980
  64.9702720  15.9019580 149.6018860  66.2869850  15.5207770 150.2444170
  70.2853190  12.9405140 151.1806050  70.8882560  13.5125350 151.6554570
  69.5446180  13.5044580 150.9579950  73.4287790  13.3426700 146.4546330
  73.6238420  14.2410150 146.7213760  72.6417660  13.1113780 146.9479280
  60.2249080  29.0239870 146.8938950  59.6996700  29.4047900 146.1900910
  60.1493660  29.6490640 147.6148660  61.6139550  14.6887470 145.4922640
  62.1432310  13.9017270 145.3630590  62.2467870  15.3678660 145.7258170
  63.8077390  14.4262610 148.5468030  63.1780130  13.7249920 148.7138160
  63.2682530  15.1866740 148.3301190  74.9814400  30.5827410 148.2152890
  75.1566590  29.8965150 147.5713810  74.2835970  31.1074460 147.8229560
  62.8242050  30.9722250 145.7688200  63.5560870  30.6881530 145.2212090
  63.0835720  30.7335530 146.6587580  61.9856840  27.0886980 145.7734530
  61.3565720  27.5572080 146.3220360  62.1004670  26.2436200 146.2080720
  69.4406560  21.1392640 131.9235730  69.3600610  20.2247250 131.6527440
  69.0270980  21.6359710 131.2175440  67.5724600  22.9171660 133.8045000
  66.7966700  22.4372100 134.0943570  68.2237530  22.2377310 133.6301160
  61.5890430  23.2291470 134.6820760  60.7575310  22.9740180 135.0817270
  62.1971410  23.3002240 135.4178680  71.5932030  27.3231850 132.5844130
  71.1313560  26.5519090 132.9131300  72.4057580  27.3497920 133.0896580
  61.5691690  27.2631560 134.8778780  61.8719730  26.3729300 134.6989000
  62.3135280  27.8201780 134.6501030  59.9982380  18.1893360 128.4663150
  59.1099080  18.5309330 128.3643030  60.2823570  17.9893680 127.5743980
  57.9615390  20.7899010 134.3502850  58.5331500  20.0221210 134.3506490
  57.9616930  21.0887770 133.4409460  67.8195340  29.6089860 132.2048120
  67.2006780  30.0647360 131.6342560  68.6747120  29.7641320 131.8037820
  67.0133590  25.5928850 133.8115160  66.9441870  24.6518790 133.6504290
  67.7753450  25.6830260 134.3837730  59.2040260  16.1983370 136.1371780
  59.0243100  15.3009120 136.4174540  58.8020340  16.7455240 136.8118730
  68.0438760  18.3999230 134.0384090  68.4203580  17.5271110 133.9257760
  67.9458270  18.7357930 133.1474530  62.1743770  16.7724860 129.5001530
  62.2810520  17.6728590 129.8070290  61.2636130  16.7242830 129.2096180
  71.8262880  15.8949670 130.9712430  72.6472500  15.4046240 131.0137910
  71.8596960  16.4847330 131.7244270  59.8226930  18.6943870 134.7454120
  60.5037040  18.9582240 135.3641520  59.5074980  17.8544740 135.0792130
  64.0151500  19.7411230 133.8326710  64.5229720  20.2392200 134.4731730
  64.5464740  18.9646430 133.6566070  76.1162430  17.9116420 137.5356060
  75.4114600  18.2998130 137.0171170  76.3820350  18.6066710 138.1376990
  62.2987600  14.3809790 138.0990130  62.3006040  14.8982180 137.2936030
  61.4691910  13.9039970 138.0760060  68.6858690  24.4929100 129.5980030
  68.0675960  24.9578550 129.0342750  69.1981940  25.1856580 130.0149540
  63.5490450  24.0204970 136.2763630  63.2159830  24.6473890 136.9184700
  63.7257130  24.5466850 135.4965300  72.0624360  17.8350050 133.7439970
  71.3579930  18.1234940 134.3243080  72.4236520  18.6450160 133.3839530
  61.9802930  16.0919750 136.1060580  62.3219740  16.9361800 135.8114450
  61.0418740  16.2403490 136.2225920  62.7609550  25.9885770 138.0912810
  63.3783550  26.6636850 137.8097260  61.9002670  26.3973750 138.0000310
  58.0541890  25.1785630 126.9719660  57.6769870  25.6672730 126.2404560
  58.3114960  25.8510910 127.6026190  73.6787140  27.4525180 136.0067450
  72.9950660  28.1224290 135.9984120  74.2181430  27.6505830 135.2412310
  75.1311280  17.2804840 134.1349180  74.1836190  17.3143820 134.2664610
  75.4561270  18.0943790 134.5198540  65.6630820  13.5802020 132.4305170
  65.9705800  13.0248910 131.7140670  64.7331520  13.7146480 132.2478160
  71.2145880  29.2969310 134.7212630  71.2273040  28.8931600 133.8534890
  70.6621100  30.0716600 134.6174060  72.5091300  26.0185530 129.8102800
  72.3987630  25.0759860 129.9352220  72.5059550  26.3801170 130.6965560
  70.6131320  24.1999150 136.0495240  71.0300110  23.9859260 135.2148700
  71.3371140  24.4571940 136.6203860  68.0511580  21.6450850 129.1665290
  67.1240860  21.5788230 129.3953760  68.2036400  22.5830980 129.0520530
  68.0380660  17.9167850 126.1632450  67.0984330  18.0781810 126.2484910
  68.3563920  18.6353530 125.6168440  74.5593420  22.5986370 136.1411480
  73.7312050  22.6679460 135.6661610  75.1543900  23.1840680 135.6727310
  72.0808870  23.2071150 129.6700540  71.4621290  22.8690700 129.0226840
  72.0633320  22.5630910 130.3779730  71.5235430  19.3855690 137.0866350
  71.1106610  20.2109400 137.3406340  70.7911380  18.8000730 136.8942710
  63.6568220  22.1715590 131.9485020  63.2525220  21.4592840 131.4530920
  63.7431340  21.8268830 132.8373060  64.1249920  25.8583150 134.1124230
  63.8278210  25.2528620 133.4332010  65.0749740  25.8960460 134.0013590
  62.3696840  18.9458800 135.7284060  62.9211430  19.0554140 134.9537310
  62.8840350  19.3196400 136.4439290  72.2135530  29.4315020 137.7747330
  71.7366090  30.2387210 137.5819940  71.5297320  28.7793350 137.9273540
  63.2168350  25.5964840 140.7632030  62.3196880  25.8204810 141.0105430
  63.2421220  25.7199780 139.8143430  70.2573570  22.4457960 126.6773290
  70.6966850  21.6080390 126.5311110  70.9701990  23.0787360 126.7637430
  62.0439570  22.4678160 139.3389400  61.9047340  23.3400960 139.7076800
  61.1620930  22.1250970 139.1937340  68.3668950  27.3854030 130.6454530
  68.8064860  28.1278360 130.2309920  68.3055840  27.6280600 131.5693490
  63.8419920  28.4099860 141.5474550  63.8135350  28.8142810 140.6802980
  63.6784890  27.4810220 141.3846150  73.8390710  13.7000770 124.9914330
  73.5263370  13.7927600 125.8913400  74.6003180  14.2781800 124.9411760
  60.3572850  21.0660570 129.4491670  60.2370450  21.7922660 128.8372940
  60.0473740  20.2963480 128.9719580  75.7934740  29.1926960 142.8438720
  76.2694460  29.6709850 143.5227800  76.4141900  29.1244450 142.1184220
  57.9958220  24.2375710 135.2560310  58.0738640  24.3724480 134.3116030
  58.6099900  23.5291600 135.4488430  59.2405850  25.9375900 131.6666490
  58.8333930  26.0790490 130.8120090  60.1318860  25.6536060 131.4637700
  75.1967990  26.3839810 140.0038730  75.3231050  26.1451690 139.0855910
  75.2389370  25.5524350 140.4760810  69.0584730  30.0867810 138.5733540
  69.5729400  29.9975820 139.3755970  68.2153810  30.4327510 138.8661450
  71.0339130  30.3723150 128.0017540  70.8740270  30.0826090 128.8999370
  70.8685840  29.5963280 127.4662770  63.5127510  30.1521680 129.7789160
  63.3369990  29.2357220 129.5656960  62.6583250  30.5108970 130.0186960
  70.7365260  27.8810710 126.5615540  70.0430420  27.8788000 125.9017820
  71.4788120  27.4570030 126.1309710  70.3015190  29.5073420 130.6364030
  70.7572140  28.7262800 130.9502650  70.6407710  30.2180240 131.1805210
  75.0492000  18.4372270 140.9688470  74.4336270  18.9451940 140.4403930
  74.7288420  17.5370600 140.9114410  58.0517740  25.2789880 137.7954770
  58.2148780  24.8095240 136.9774140  58.5170190  24.7713440 138.4603610
  62.8236510  14.4095640 132.8315340  62.3804660  15.1905180 132.4999860
  63.3821500  14.7325530 133.5386280  67.1106320  17.2764160 138.4350660
  66.6485690  17.4847180 139.2470600  66.7084430  16.4623510 138.1321330
  72.1110830  18.4973110 139.5647320  71.2604420  18.1978860 139.8856390
  71.9512620  18.7415120 138.6531140  69.2060540  19.9974860 141.6646110
  69.5313950  19.1638610 141.3248340  69.9940870  20.5203380 141.8124440
  65.9395330  14.0306340 127.7121170  65.3149510  14.0266210 128.4374480
  65.8525450  13.1637300 127.3157140  64.8612410  14.9542970 134.6904940
  65.1584740  15.8605800 134.6096960  65.4097970  14.4661750 134.0764510
  62.6150730  19.5329210 130.5596590  62.3891650  19.3166380 131.4643210
  61.8343260  19.9657670 130.2142560  69.8448490  19.5392580 129.1587240
  69.2457380  20.2628380 128.9750860  70.3928100  19.4769360 128.3763690
  65.0549940  20.4314790 141.2256860  64.9593540  19.4909520 141.0757260
  65.8981920  20.6529860 140.8304930  68.4513360  18.1756120 131.1890520
  68.8442930  18.4928320 130.3759210  68.8130210  17.2968000 131.3035040
  60.1860480  16.8428460 139.3790640  59.7923870  17.6903670 139.5863420
  59.4978880  16.2054830 139.5699280  66.7605530  16.9263430 142.4487380
  66.0703850  16.7335630 143.0833470  67.5037830  17.2098070 142.9811680
  57.4877530  14.7656920 133.4120720  57.1990580  15.3359780 134.1245700
  58.2323290  14.2861370 133.7751950  57.6747760  18.7077040 124.6223440
  57.5922430  19.6507800 124.7638430  57.3230820  18.5651950 123.7435790
  69.0368500  20.7661870 135.2841300  68.3049620  21.2748680 135.6331400
  68.6392840  19.9491850 134.9830080  65.4745890  17.4416070 133.6893790
  65.4781950  17.0006020 132.8398330  66.3697010  17.7633400 133.7965610
  61.3248270  17.3242560 132.6488000  60.9848320  17.8017790 133.4055050
  60.5625590  16.8707680 132.2889100  65.5366040  18.4428150 126.6800550
  65.6578860  18.4014630 127.6286370  65.1514550  19.3052300 126.5247280
  69.4994410  16.2195550 134.6964240  69.5167150  16.6704200 135.5406090
  69.2509990  15.3201190 134.9097680  64.5487540  20.7529290 126.0783850
  63.9804440  20.3047540 125.4519760  65.2576540  21.1122070 125.5449000
  72.9265160  13.6327730 140.5350620  73.2510930  12.9017390 141.0608600
  72.9621670  13.3141370 139.6331610  59.6256720  24.6541310 139.9550580
  59.2411510  24.0134980 140.5533540  59.9368910  25.3577430 140.5245310
  65.7753860  21.5017850 135.4359200  66.1423990  21.0276420 136.1820540
  65.5858920  22.3759420 135.7767540  58.6394350  16.2461540 131.5652670
  58.3541270  15.8817210 132.4031290  58.5773210  15.5142000 130.9515810
  63.5653230  20.5426490 137.7543410  63.2610300  21.4218470 137.9793770
  64.5199690  20.6026280 137.7900850  62.0935020  24.7487480 128.3510260
  61.3197280  24.2085100 128.1908980  62.8229650  24.2294090 128.0128020
  72.8523000  23.7452840 134.1436650  73.5722120  24.2408130 133.7532760
  72.6504820  23.0670730 133.4990520  68.3132940  15.1390800 128.2866040
  67.4997550  14.6403970 128.2111350  68.1194890  15.9789050 127.8702390
  68.2341800  23.8161900 140.0305650  68.1679110  22.8957570 139.7763240
  67.6046940  23.9137340 140.7450290  71.0281330  19.5110450 126.5828200
  71.9160950  19.8227680 126.4079540  70.9986420  18.6382700 126.1908780
  62.1372420  24.4167860 131.9889070  62.6551090  23.6136120 131.9345960
  61.6856440  24.3547000 132.8305900  67.0241920  25.6834140 127.2616370
  67.3657620  26.4276370 126.7659690  66.1954630  25.9965260 127.6241200
  59.6216960  21.3829230 138.9014770  59.2631900  22.0483080 139.4888110
  59.3271520  20.5512780 139.2727390  62.8230080  21.8413470 141.7854320
  62.5230220  21.9870650 140.8882140  63.5941320  21.2818760 141.6927710
  68.1658530  26.6382470 139.7809450  68.1803070  25.7063430 139.5628360
  67.4583630  26.7242230 140.4199220  73.2995600  20.8222290 126.0508060
  73.2159320  21.2536510 125.2004500  74.0189790  21.2820640 126.4834880
  74.3769740  23.2789810 139.1278030  73.6517930  23.8718590 138.9307420
  74.9045200  23.2713350 138.3291400  74.3282850  27.6764550 128.7790190
  73.6859010  27.0220170 129.0533910  73.9413510  28.0819640 128.0030860
  69.9069330  25.0049980 132.6261880  70.2593150  24.4078110 131.9663250
  69.0231660  24.6794210 132.7970130  65.9932610  25.7647670 130.0332290
  66.6803740  26.3116880 130.4139880  65.2065030  26.3088400 130.0681900
  58.1325010  21.3820490 125.5249370  59.0019860  21.6645290 125.8085290
  57.6415330  22.1956360 125.4098180  65.2959820  22.7693700 129.6457650
  65.7522600  23.5798950 129.8717840  64.9448030  22.4516840 130.4776140
  67.5992430  28.2800040 136.8749950  68.2434650  28.4859420 137.5523370
  67.9621870  27.5188440 136.4220800  61.1971600  13.1131350 130.1180170
  61.0686230  13.1049250 131.0665090  60.3733620  13.4514440 129.7671180
  68.8724510  26.2832390 135.5927400  69.5146740  25.5825550 135.7059570
  69.3973860  27.0630830 135.4124290  72.7180230  26.5681010 125.3166540
  72.4917810  25.8511450 125.9091180  72.3276430  26.3193450 124.4788290
  70.6462130  27.0827290 138.7963460  70.9818370  27.6693980 139.4741380
  69.7262470  26.9520000 139.0261250  58.4996260  30.5947870 126.0911000
  58.8593900  31.1937210 125.4368270  58.3588600  31.1407760 126.8646030
  58.1965530  14.8722470 139.5786870  57.4824050  15.0719390 140.1839480
  58.6160570  14.0962040 139.9501670  72.2996480  24.4852950 126.9780700
  72.0118180  24.9465640 127.7658580  73.0948650  24.0250720 127.2464920
  58.4838120  28.8602730 140.5653400  58.5929240  27.9197470 140.4248790
  57.8318680  29.1257480 139.9167130  66.4750710  27.1318620 141.9651520
  66.1547580  26.4127860 142.5097210  65.8009070  27.8073690 142.0387580
  64.5164880  27.9779070 126.9084670  64.5074980  28.7108760 126.2929180
  63.5963240  27.7310650 127.0011630  60.1171520  23.1993960 127.6531430
  59.5099470  23.9392860 127.6626730  60.5920870  23.2893320 126.8269630
  69.6904310  17.3644780 137.3288320  70.0585130  16.5439990 137.6567890
  68.8302510  17.4246670 137.7443970  73.0566340  16.3201720 128.1375880
  72.4279500  16.4247390 127.4234110  72.5618260  16.5398500 128.9269760
  67.5024480  28.0407310 125.5709860  67.6036460  27.8371300 124.6411840
  66.6026220  27.7865590 125.7757640  65.0250370  18.5987670 129.5533760
  64.3166520  19.0674010 129.9947370  65.3094850  17.9409680 130.1878950
  66.6506300  20.0184370 137.5526290  67.1491550  20.4930190 138.2178140
  66.7929250  19.0947890 137.7596320  69.0565800  15.3238330 130.9929550
  68.9333580  15.3424460 130.0439060  70.0050360  15.3717270 131.1127950
  66.1442590  30.5593630 130.2657530  66.3984090  30.5215020 129.3436900
  65.1955070  30.4326960 130.2585780  63.2285390  16.9072750 126.9284470
  64.0775920  17.3442900 126.8624660  62.8616660  17.2193010 127.7556530
  73.8573160  16.2352330 138.3954680  73.3546760  16.9757730 138.7348490
  74.6729820  16.6236330 138.0791470  72.1495170  21.4785510 131.8416040
  71.2085310  21.4935740 132.0163730  72.4639240  20.6921470 132.2876340
  62.1276810  23.1605110 125.4020000  62.8940080  23.0486470 125.9645430
  62.2051500  22.4643080 124.7496770  60.8223570  20.5930180 126.0852890
  60.9027160  19.6457690 126.1970290  61.7143320  20.9237060 126.1913550
  74.1520750  28.6494360 133.5170300  74.2768170  29.4725530 133.9894110
  75.0186310  28.4385090 133.1694450  61.6238280  30.7425570 133.1887430
  62.3600760  30.1941030 133.4596000  62.0079200  31.6081580 133.0493420
  58.5083760  26.8099140 129.0628940  57.5823540  27.0520280 129.0534350
  58.9740190  27.6373400 128.9413690  60.6296560  29.9271640 142.3773010
  61.4309290  30.2483690 142.7908410  60.1148380  29.5667220 143.0992920
  64.7340590  29.9155880 125.0113000  65.5269200  30.2044710 124.5594790
  64.2144940  29.4848050 124.3325480  69.4661190  26.0351510 142.3248420
  68.8599350  26.0583110 141.5844170  69.1615300  25.3034550 142.8615670
  70.8961560  29.7631800 140.9357830  71.8483310  29.6789820 140.8858070
  70.7489780  30.4273510 141.6091620  73.7870760  29.1426010 126.4349740
  73.5012270  28.7291150 125.6203920  73.5890310  30.0713720 126.3150260
  58.3494370  22.4145100 141.3209060  58.8533390  21.8352380 141.8925290
  57.6101790  22.6985330 141.8585430  65.2517990  25.1359290 124.8755350
  65.1468630  24.5211640 125.6016730  65.0842210  24.6125180 124.0918360
  65.4032310  23.8216090 140.8544580  64.6377980  24.3901090 140.7699250
  65.5848270  23.5292300 139.9612810  68.4920720  24.1979320 125.4797340
  67.9430820  24.6448620 126.1240080  69.1139980  23.6928570 126.0035010
  72.5455660  25.5521420 141.4119600  73.2865130  25.8897180 140.9087060
  71.7828340  25.7213480 140.8589370  60.3817450  20.5574690 142.2159130
  60.4222790  20.2588560 143.1244360  61.2362950  20.9582300 142.0566650
  64.1595840  23.1570240 127.3762640  64.5812260  22.9910110 128.2194030
  64.2846680  22.3470470 126.8817780  62.3223260  19.1366790 140.1833620
  61.7919720  18.6457740 139.5556960  62.9911330  19.5650990 139.6491550
  66.6723480  22.1807850 124.6239740  67.1929140  21.4656870 124.2580890
  67.3191880  22.8193720 124.9240250  71.2201320  23.6036250 139.9474810
  71.6342340  23.7581330 140.7965230  70.2852320  23.7291470 140.1100590
  71.6923490  20.9432410 141.9513960  72.2744260  20.1884730 141.8634440
  71.8685260  21.4739850 141.1745440  62.8095560  16.1029160 140.2630910
  62.7152430  15.4849910 139.5381780  62.2292950  16.8295450 140.0360820
  65.5757000  14.6602400 137.2958300  65.1274300  14.6826660 136.4503850
  64.9422200  14.2621420 137.8928600  65.9816550  23.5556730 137.9170740
  66.4004660  24.3989460 137.7446980  65.0625180  23.6928770 137.6877520
  68.3180450  21.2872910 139.3008580  68.4376660  20.6914050 140.0403420
  69.1774450  21.3242600 138.8809880  70.6568350  21.8410100 137.8771090
  70.1303570  22.3652720 137.2736230  70.9999690  22.4737490 138.5080820
  63.0554740  19.2303470 124.3220800  62.8543800  18.3670830 124.6834140
  62.8846790  19.1436830 123.3842400  63.8323970  29.8609740 139.0328470
  63.2945060  30.5855800 138.7137170  64.0857930  29.3840080 138.2425810
  65.0849220  17.8294260 140.5584400  65.6748910  17.5210110 141.2462220
  64.2669460  17.3574010 140.7144300  69.9042650  17.4460070 140.7917420
  69.2158170  16.7841610 140.7267410  70.6248670  16.9998340 141.2365880
  70.5343050  14.0411700 126.8507680  70.8145340  13.1979600 127.2067100
  69.7608780  14.2734810 127.3646430  61.8537540  16.3304090 124.3098680
  62.1563440  16.3371520 123.4017830  62.5932130  15.9801950 124.8066340
  66.6886180  31.0960950 139.2915120  66.6144880  31.9996090 139.5987490
  65.7865020  30.7772850 139.2637190  65.0722470  15.2738710 125.2954880
  64.7244470  14.5962700 124.7157330  65.2735240  14.8128220 126.1098270
  67.2371510  30.2619460 126.9141480  68.1322300  30.6004430 126.9360240
  67.2689140  29.5398870 126.2865760  60.8767670  25.6346510 125.1428480
  61.3142540  26.1776180 125.7986060  61.3615400  24.8093460 125.1524820
  58.0913470  28.4235540 132.5948740  58.4216480  27.5556600 132.3627380
  58.5204470  28.6294060 133.4253700  62.6875390  26.7544550 130.2550710
  62.3870930  26.6309520 131.1554620  62.5812880  25.8953140 129.8466440
  58.5803680  29.2906130 135.3330370  58.1434670  29.4706930 136.1654520
  59.1481360  30.0480750 135.1912090  74.2165860  28.7923130 139.6207680
  73.6167850  28.8515690 138.8771600  74.3459760  27.8528110 139.7504530
  75.4567310  26.5340950 124.9577390  74.6260270  26.6017600 125.4284620
  75.6339140  27.4245070 124.6544250  74.9123770  23.2788430 127.4611590
  75.6742680  23.8485080 127.5671280  74.9278140  22.7115630 128.2319900
  58.4128110  21.8026360 131.6919250  57.7576950  21.5338000 131.0478950
  59.2506060  21.6930840 131.2421230  75.9183740  24.1338530 132.3053520
  76.2892570  23.3505850 131.8989490  76.5585670  24.8227630 132.1270820
  72.9017500  25.5175110 137.7183840  72.0877340  25.9472270 137.9809630
  73.3091700  26.1293520 137.1052890  74.9642940  23.5722800 124.6184110
  75.2391780  24.4801680 124.4903330  74.7753680  23.5085330 125.5546100
  71.3618550  16.5967650 125.9137740  71.7803430  16.4098630 125.0734400
  71.0554610  15.7446700 126.2240670  74.8608280  21.5091790 129.6113540
  74.4851880  20.7419720 129.1794830  74.1311400  21.8914490 130.0988470
  59.4504040  22.1878930 136.2322590  59.8177080  22.1006330 137.1118610
  58.8814860  21.4245480 136.1329450  74.2507900  20.6563310 139.2453060
  74.0193990  20.4276060 138.3451010  74.5112450  21.5762860 139.1997950
  59.0020040  19.0988020 140.1381010  58.1076090  19.0654780 140.4774720
  59.5417590  19.2974810 140.9032260  72.6895970  15.8819740 142.0232760
  73.5666150  15.8903140 142.4066760  72.7016810  15.1450580 141.4125110
  57.6266190  19.0125290 127.6344580  56.7230270  19.2755490 127.4596240
  58.1106810  19.2836460 126.8544540  74.1359240  19.7349280 132.9120780
  74.6596720  19.2411930 132.2810950  74.7218660  19.8699640 133.6568350
  74.3148960  19.8189150 136.4340330  73.3651670  19.7852690 136.5485320
  74.4961970  20.7289260 136.1990100  60.1693400  18.0690830 125.5438960
  60.8785100  17.6474050 125.0586240  59.4533340  18.1366060 124.9122310
  59.8167560  14.1230160 124.5841610  60.5395690  14.6639100 124.9022830
  60.0892080  13.8493580 123.7083150  73.6259210  18.9922630 128.8513190
  74.1218330  18.7593500 129.6362070  73.4275280  18.1534470 128.4350830
  59.5059750  13.3736350 134.4864230  60.1535940  12.8233730 134.0459390
  59.9261590  13.6279500 135.3080040  75.0546370  17.6283580 131.3850870
  74.9445650  17.4739620 132.3233140  75.8153960  17.1004520 131.1426280
  73.4012090  13.5677710 137.8433870  74.0384310  14.1811850 138.2093060
  73.5486980  13.6038370 136.8983100  75.9436640  15.4591500 124.6257010
  76.8685950  15.3272680 124.4175300  75.9212430  15.5384320 125.5793460
  76.0175130  16.2302160 127.2513720  75.2226630  16.1647280 127.7806630
  76.2218410  17.1652800 127.2399070  72.9593550  30.2693710 131.2452110
  73.5552620  29.9478280 130.5686530  73.2171700  29.7965530 132.0365380
  59.2591750  13.5292020 137.2289550  58.9106570  13.9855840 137.9947730
  58.9279450  12.6349150 137.3111980  60.8656120  26.7011620 141.3942740
  60.8225750  26.3304530 142.2757200  60.9967130  27.6389190 141.5344560
  64.5662150  28.2571210 136.9952460  64.3253510  28.5245770 136.1082980
  65.5064790  28.4276940 137.0503320  66.7716570  14.7203900 140.7508970
  66.7105460  15.3125730 141.5004380  67.7116950  14.6129860 140.6059230
  69.4091130  14.3773960 140.3901260  70.0231540  14.6953250 139.7282340
  69.9540690  13.8922550 141.0097120  75.8266310  30.2765590 137.7963100
  75.3324590  30.6734460 137.0790230  75.2179600  29.6514800 138.1900380
  59.9312390  13.0568220 140.5040320  60.4795380  12.8756270 139.7406430
  59.9967700  12.2662330 141.0396630  60.7044150  29.6473870 138.5140520
  60.1104470  29.5158570 139.2530560  60.6967990  28.8112010 138.0482620
  70.1499170  12.9406100 136.7170550  69.2759010  13.2741210 136.5143480
  70.0409920  12.4679280 137.5422420  71.0571150  15.1476970 138.1012270
  70.7284510  14.3328730 137.7214000  72.0053450  15.1046780 137.9777960
  73.5105760  30.9189010 135.0749840  73.0508730  31.6704820 134.7007860
  72.8818220  30.1995480 135.0164640  60.3356380  27.0132250 137.4648560
  59.6090440  26.3937540 137.3974510  60.3965530  27.4072860 136.5946640
  63.9401480  29.2277250 134.2497970  64.4566500  28.6164610 133.7246230
  64.5898860  29.7306030 134.7408980  66.6796980  30.1185740 135.0766950
  66.9674790  29.8640040 134.1999960  67.1920200  29.5663100 135.6672520
  67.8973990  13.8575940 135.6563460  67.1145780  14.3321440 135.9360220
  67.6036920  12.9530770 135.5476640  72.4495060  14.5599040 133.7012550
  72.8903150  14.5044140 132.8534150  72.1802650  15.4757050 133.7722730
  74.3133630  14.1914280 131.7121370  74.2522030  13.2475500 131.5652390
  75.0925660  14.2994370 132.2574830  58.6186380  30.3306640 130.6745320
  58.4508420  29.6977320 131.3727210  57.7520890  30.5366040 130.3239510
  59.2414400  14.1623420 128.1777180  59.9993760  14.2752300 127.6041210
  58.7791570  14.9992620 128.1320610  65.7828210  16.2762690 131.1679490
  64.9702720  15.9019580 130.8275370  66.2869850  15.5207770 131.4700680
  70.2853190  12.9405140 132.4062560  70.8882560  13.5125350 132.8811080
  69.5446180  13.5044580 132.1836460  73.4287790  13.3426700 127.6802840
  73.6238420  14.2410150 127.9470270  72.6417660  13.1113780 128.1735790
  60.2249080  29.0239870 128.1195460  59.6996700  29.4047900 127.4157420
  60.1493660  29.6490640 128.8405170  61.6139550  14.6887470 126.7179150
  62.1432310  13.9017270 126.5887100  62.2467870  15.3678660 126.9514680
  63.8077390  14.4262610 129.7724540  63.1780130  13.7249920 129.9394670
  63.2682530  15.1866740 129.5557700  66.7469340  31.0401840 142.4435150
  67.6736650  30.8046110 142.4871110  66.7319770  31.8673840 141.9621180
  74.9814400  30.5827410 129.4409400  75.1566590  29.8965150 128.7970320
  74.2835970  31.1074460 129.0486070  63.9332950  13.7046590 142.2077030
  63.6517220  14.2080190 141.4437850  64.3152650  12.9068340 141.8419160
  62.8242050  30.9722250 126.9944710  63.5560870  30.6881530 126.4468600
  63.0835720  30.7335530 127.8844090  61.9856840  27.0886980 126.9991040
  61.3565720  27.5572080 127.5476870  62.1004670  26.2436200 127.4337230
  70.5348410  13.1200170 142.7857500  70.4213860  13.4394780 143.6809020
  71.3518150  13.5212680 142.4894780  73.3146900  30.2671700 142.2676190
  74.1072220  29.7720930 142.0602150  73.6080050  30.9461840 142.8751800
  69.4406560  21.1392640 113.1492240  69.3600610  20.2247250 112.8783950
  69.0270980  21.6359710 112.4431950  67.5724600  22.9171660 115.0301510
  66.7966700  22.4372100 115.3200080  68.2237530  22.2377310 114.8557670
  61.5890430  23.2291470 115.9077270  60.7575310  22.9740180 116.3073780
  62.1971410  23.3002240 116.6435190  71.5932030  27.3231850 113.8100640
  71.1313560  26.5519090 114.1387810  72.4057580  27.3497920 114.3153090
  61.5691690  27.2631560 116.1035290  61.8719730  26.3729300 115.9245510
  62.3135280  27.8201780 115.8757540  59.9982380  18.1893360 109.6919660
  59.1099080  18.5309330 109.5899540  60.2823570  17.9893680 108.8000490
  57.9615390  20.7899010 115.5759360  58.5331500  20.0221210 115.5763000
  57.9616930  21.0887770 114.6665970  67.8195340  29.6089860 113.4304630
  67.2006780  30.0647360 112.8599070  68.6747120  29.7641320 113.0294330
  67.0133590  25.5928850 115.0371670  66.9441870  24.6518790 114.8760800
  67.7753450  25.6830260 115.6094240  59.2040260  16.1983370 117.3628290
  59.0243100  15.3009120 117.6431050  58.8020340  16.7455240 118.0375240
  68.0438760  18.3999230 115.2640600  68.4203580  17.5271110 115.1514270
  67.9458270  18.7357930 114.3731040  62.1743770  16.7724860 110.7258040
  62.2810520  17.6728590 111.0326800  61.2636130  16.7242830 110.4352690
  71.8262880  15.8949670 112.1968940  72.6472500  15.4046240 112.2394420
  71.8596960  16.4847330 112.9500780  59.8226930  18.6943870 115.9710630
  60.5037040  18.9582240 116.5898030  59.5074980  17.8544740 116.3048640
  64.0151500  19.7411230 115.0583220  64.5229720  20.2392200 115.6988240
  64.5464740  18.9646430 114.8822580  76.1162430  17.9116420 118.7612570
  75.4114600  18.2998130 118.2427680  76.3820350  18.6066710 119.3633500
  62.2987600  14.3809790 119.3246640  62.3006040  14.8982180 118.5192540
  61.4691910  13.9039970 119.3016570  68.6858690  24.4929100 110.8236540
  68.0675960  24.9578550 110.2599260  69.1981940  25.1856580 111.2406050
  63.5490450  24.0204970 117.5020140  63.2159830  24.6473890 118.1441210
  63.7257130  24.5466850 116.7221810  72.0624360  17.8350050 114.9696480
  71.3579930  18.1234940 115.5499590  72.4236520  18.6450160 114.6096040
  61.9802930  16.0919750 117.3317090  62.3219740  16.9361800 117.0370960
  61.0418740  16.2403490 117.4482430  62.7609550  25.9885770 119.3169320
  63.3783550  26.6636850 119.0353770  61.9002670  26.3973750 119.2256820
  58.0541890  25.1785630 108.1976170  57.6769870  25.6672730 107.4661070
  58.3114960  25.8510910 108.8282700  73.6787140  27.4525180 117.2323960
  72.9950660  28.1224290 117.2240630  74.2181430  27.6505830 116.4668820
  75.1311280  17.2804840 115.3605690  74.1836190  17.3143820 115.4921120
  75.4561270  18.0943790 115.7455050  65.6630820  13.5802020 113.6561680
  65.9705800  13.0248910 112.9397180  64.7331520  13.7146480 113.4734670
  71.2145880  29.2969310 115.9469140  71.2273040  28.8931600 115.0791400
  70.6621100  30.0716600 115.8430570  72.5091300  26.0185530 111.0359310
  72.3987630  25.0759860 111.1608730  72.5059550  26.3801170 111.9222070
  70.6131320  24.1999150 117.2751750  71.0300110  23.9859260 116.4405210
  71.3371140  24.4571940 117.8460370  68.0511580  21.6450850 110.3921800
  67.1240860  21.5788230 110.6210270  68.2036400  22.5830980 110.2777040
  68.0380660  17.9167850 107.3888960  67.0984330  18.0781810 107.4741420
  68.3563920  18.6353530 106.8424950  74.5593420  22.5986370 117.3667990
  73.7312050  22.6679460 116.8918120  75.1543900  23.1840680 116.8983820
  72.0808870  23.2071150 110.8957050  71.4621290  22.8690700 110.2483350
  72.0633320  22.5630910 111.6036240  71.5235430  19.3855690 118.3122860
  71.1106610  20.2109400 118.5662850  70.7911380  18.8000730 118.1199220
  63.6568220  22.1715590 113.1741530  63.2525220  21.4592840 112.6787430
  63.7431340  21.8268830 114.0629570  64.1249920  25.8583150 115.3380740
  63.8278210  25.2528620 114.6588520  65.0749740  25.8960460 115.2270100
  62.3696840  18.9458800 116.9540570  62.9211430  19.0554140 116.1793820
  62.8840350  19.3196400 117.6695800  72.2135530  29.4315020 119.0003840
  71.7366090  30.2387210 118.8076450  71.5297320  28.7793350 119.1530050
  63.2168350  25.5964840 121.9888540  62.3196880  25.8204810 122.2361940
  63.2421220  25.7199780 121.0399940  70.2573570  22.4457960 107.9029800
  70.6966850  21.6080390 107.7567620  70.9701990  23.0787360 107.9893940
  62.0439570  22.4678160 120.5645910  61.9047340  23.3400960 120.9333310
  61.1620930  22.1250970 120.4193850  68.3668950  27.3854030 111.8711040
  68.8064860  28.1278360 111.4566430  68.3055840  27.6280600 112.7950000
  63.8419920  28.4099860 122.7731060  63.8135350  28.8142810 121.9059490
  63.6784890  27.4810220 122.6102660  73.8390710  13.7000770 106.2170840
  73.5263370  13.7927600 107.1169910  74.6003180  14.2781800 106.1668270
  60.3572850  21.0660570 110.6748180  60.2370450  21.7922660 110.0629450
  60.0473740  20.2963480 110.1976090  75.7934740  29.1926960 124.0695230
  76.2694460  29.6709850 124.7484310  76.4141900  29.1244450 123.3440730
  57.9958220  24.2375710 116.4816820  58.0738640  24.3724480 115.5372540
  58.6099900  23.5291600 116.6744940  59.2405850  25.9375900 112.8923000
  58.8333930  26.0790490 112.0376600  60.1318860  25.6536060 112.6894210
  75.1967990  26.3839810 121.2295240  75.3231050  26.1451690 120.3112420
  75.2389370  25.5524350 121.7017320  69.0584730  30.0867810 119.7990050
  69.5729400  29.9975820 120.6012480  68.2153810  30.4327510 120.0917960
  71.0339130  30.3723150 109.2274050  70.8740270  30.0826090 110.1255880
  70.8685840  29.5963280 108.6919280  70.3015190  29.5073420 111.8620540
  70.7572140  28.7262800 112.1759160  70.6407710  30.2180240 112.4061720
  75.0492000  18.4372270 122.1944980  74.4336270  18.9451940 121.6660440
  74.7288420  17.5370600 122.1370920  58.0517740  25.2789880 119.0211280
  58.2148780  24.8095240 118.2030650  58.5170190  24.7713440 119.6860120
  62.8236510  14.4095640 114.0571850  62.3804660  15.1905180 113.7256370
  63.3821500  14.7325530 114.7642790  67.1106320  17.2764160 119.6607170
  66.6485690  17.4847180 120.4727110  66.7084430  16.4623510 119.3577840
  72.1110830  18.4973110 120.7903830  71.2604420  18.1978860 121.1112900
  71.9512620  18.7415120 119.8787650  69.2060540  19.9974860 122.8902620
  69.5313950  19.1638610 122.5504850  69.9940870  20.5203380 123.0380950
  65.9395330  14.0306340 108.9377680  65.3149510  14.0266210 109.6630990
  65.8525450  13.1637300 108.5413650  64.8612410  14.9542970 115.9161450
  65.1584740  15.8605800 115.8353470  65.4097970  14.4661750 115.3021020
  62.6150730  19.5329210 111.7853100  62.3891650  19.3166380 112.6899720
  61.8343260  19.9657670 111.4399070  69.8448490  19.5392580 110.3843750
  69.2457380  20.2628380 110.2007370  70.3928100  19.4769360 109.6020200
  65.0549940  20.4314790 122.4513370  64.9593540  19.4909520 122.3013770
  65.8981920  20.6529860 122.0561440  68.4513360  18.1756120 112.4147030
  68.8442930  18.4928320 111.6015720  68.8130210  17.2968000 112.5291550
  60.1860480  16.8428460 120.6047150  59.7923870  17.6903670 120.8119930
  59.4978880  16.2054830 120.7955790  66.7605530  16.9263430 123.6743890
  66.0703850  16.7335630 124.3089980  67.5037830  17.2098070 124.2068190
  57.4877530  14.7656920 114.6377230  57.1990580  15.3359780 115.3502210
  58.2323290  14.2861370 115.0008460  57.6747760  18.7077040 105.8479950
  57.5922430  19.6507800 105.9894940  57.3230820  18.5651950 104.9692300
  69.0368500  20.7661870 116.5097810  68.3049620  21.2748680 116.8587910
  68.6392840  19.9491850 116.2086590  65.4745890  17.4416070 114.9150300
  65.4781950  17.0006020 114.0654840  66.3697010  17.7633400 115.0222120
  61.3248270  17.3242560 113.8744510  60.9848320  17.8017790 114.6311560
  60.5625590  16.8707680 113.5145610  65.5366040  18.4428150 107.9057060
  65.6578860  18.4014630 108.8542880  65.1514550  19.3052300 107.7503790
  69.4994410  16.2195550 115.9220750  69.5167150  16.6704200 116.7662600
  69.2509990  15.3201190 116.1354190  64.5487540  20.7529290 107.3040360
  63.9804440  20.3047540 106.6776270  65.2576540  21.1122070 106.7705510
  72.9265160  13.6327730 121.7607130  73.2510930  12.9017390 122.2865110
  72.9621670  13.3141370 120.8588120  59.6256720  24.6541310 121.1807090
  59.2411510  24.0134980 121.7790050  59.9368910  25.3577430 121.7501820
  65.7753860  21.5017850 116.6615710  66.1423990  21.0276420 117.4077050
  65.5858920  22.3759420 117.0024050  58.6394350  16.2461540 112.7909180
  58.3541270  15.8817210 113.6287800  58.5773210  15.5142000 112.1772320
  63.5653230  20.5426490 118.9799920  63.2610300  21.4218470 119.2050280
  64.5199690  20.6026280 119.0157360  62.0935020  24.7487480 109.5766770
  61.3197280  24.2085100 109.4165490  62.8229650  24.2294090 109.2384530
  72.8523000  23.7452840 115.3693160  73.5722120  24.2408130 114.9789270
  72.6504820  23.0670730 114.7247030  68.3132940  15.1390800 109.5122550
  67.4997550  14.6403970 109.4367860  68.1194890  15.9789050 109.0958900
  68.2341800  23.8161900 121.2562160  68.1679110  22.8957570 121.0019750
  67.6046940  23.9137340 121.9706800  71.0281330  19.5110450 107.8084710
  71.9160950  19.8227680 107.6336050  70.9986420  18.6382700 107.4165290
  62.1372420  24.4167860 113.2145580  62.6551090  23.6136120 113.1602470
  61.6856440  24.3547000 114.0562410  67.0241920  25.6834140 108.4872880
  67.3657620  26.4276370 107.9916200  66.1954630  25.9965260 108.8497710
  59.6216960  21.3829230 120.1271280  59.2631900  22.0483080 120.7144620
  59.3271520  20.5512780 120.4983900  62.8230080  21.8413470 123.0110830
  62.5230220  21.9870650 122.1138650  63.5941320  21.2818760 122.9184220
  68.1658530  26.6382470 121.0065960  68.1803070  25.7063430 120.7884870
  67.4583630  26.7242230 121.6455730  74.3769740  23.2789810 120.3534540
  73.6517930  23.8718590 120.1563930  74.9045200  23.2713350 119.5547910
  74.3282850  27.6764550 110.0046700  73.6859010  27.0220170 110.2790420
  73.9413510  28.0819640 109.2287370  69.9069330  25.0049980 113.8518390
  70.2593150  24.4078110 113.1919760  69.0231660  24.6794210 114.0226640
  65.9932610  25.7647670 111.2588800  66.6803740  26.3116880 111.6396390
  65.2065030  26.3088400 111.2938410  58.1325010  21.3820490 106.7505880
  59.0019860  21.6645290 107.0341800  57.6415330  22.1956360 106.6354690
  65.2959820  22.7693700 110.8714160  65.7522600  23.5798950 111.0974350
  64.9448030  22.4516840 111.7032650  67.5992430  28.2800040 118.1006460
  68.2434650  28.4859420 118.7779880  67.9621870  27.5188440 117.6477310
  61.1971600  13.1131350 111.3436680  61.0686230  13.1049250 112.2921600
  60.3733620  13.4514440 110.9927690  68.8724510  26.2832390 116.8183910
  69.5146740  25.5825550 116.9316080  69.3973860  27.0630830 116.6380800
  70.6462130  27.0827290 120.0219970  70.9818370  27.6693980 120.6997890
  69.7262470  26.9520000 120.2517760  58.1965530  14.8722470 120.8043380
  57.4824050  15.0719390 121.4095990  58.6160570  14.0962040 121.1758180
  72.2996480  24.4852950 108.2037210  72.0118180  24.9465640 108.9915090
  73.0948650  24.0250720 108.4721430  58.4838120  28.8602730 121.7909910
  58.5929240  27.9197470 121.6505300  57.8318680  29.1257480 121.1423640
  66.4750710  27.1318620 123.1908030  66.1547580  26.4127860 123.7353720
  65.8009070  27.8073690 123.2644090  64.5164880  27.9779070 108.1341180
  64.5074980  28.7108760 107.5185690  63.5963240  27.7310650 108.2268140
  60.1171520  23.1993960 108.8787940  59.5099470  23.9392860 108.8883240
  60.5920870  23.2893320 108.0526140  69.6904310  17.3644780 118.5544830
  70.0585130  16.5439990 118.8824400  68.8302510  17.4246670 118.9700480
  73.0566340  16.3201720 109.3632390  72.4279500  16.4247390 108.6490620
  72.5618260  16.5398500 110.1526270  65.0250370  18.5987670 110.7790270
  64.3166520  19.0674010 111.2203880  65.3094850  17.9409680 111.4135460
  66.6506300  20.0184370 118.7782800  67.1491550  20.4930190 119.4434650
  66.7929250  19.0947890 118.9852830  69.0565800  15.3238330 112.2186060
  68.9333580  15.3424460 111.2695570  70.0050360  15.3717270 112.3384460
  63.2285390  16.9072750 108.1540980  64.0775920  17.3442900 108.0881170
  62.8616660  17.2193010 108.9813040  73.8573160  16.2352330 119.6211190
  73.3546760  16.9757730 119.9605000  74.6729820  16.6236330 119.3047980
  72.1495170  21.4785510 113.0672550  71.2085310  21.4935740 113.2420240
  72.4639240  20.6921470 113.5132850  62.1276810  23.1605110 106.6276510
  62.8940080  23.0486470 107.1901940  62.2051500  22.4643080 105.9753280
  60.8223570  20.5930180 107.3109400  60.9027160  19.6457690 107.4226800
  61.7143320  20.9237060 107.4170060  74.1520750  28.6494360 114.7426810
  74.2768170  29.4725530 115.2150620  75.0186310  28.4385090 114.3950960
  58.5083760  26.8099140 110.2885450  57.5823540  27.0520280 110.2790860
  58.9740190  27.6373400 110.1670200  60.6296560  29.9271640 123.6029520
  61.4309290  30.2483690 124.0164920  60.1148380  29.5667220 124.3249430
  69.4661190  26.0351510 123.5504930  68.8599350  26.0583110 122.8100680
  69.1615300  25.3034550 124.0872180  70.8961560  29.7631800 122.1614340
  71.8483310  29.6789820 122.1114580  70.7489780  30.4273510 122.8348130
  73.7870760  29.1426010 107.6606250  73.5012270  28.7291150 106.8460430
  73.5890310  30.0713720 107.5406770  58.3494370  22.4145100 122.5465570
  58.8533390  21.8352380 123.1181800  57.6101790  22.6985330 123.0841940
  65.4032310  23.8216090 122.0801090  64.6377980  24.3901090 121.9955760
  65.5848270  23.5292300 121.1869320  68.4920720  24.1979320 106.7053850
  67.9430820  24.6448620 107.3496590  69.1139980  23.6928570 107.2291520
  72.5455660  25.5521420 122.6376110  73.2865130  25.8897180 122.1343570
  71.7828340  25.7213480 122.0845880  60.3817450  20.5574690 123.4415640
  60.4222790  20.2588560 124.3500870  61.2362950  20.9582300 123.2823160
  64.1595840  23.1570240 108.6019150  64.5812260  22.9910110 109.4450540
  64.2846680  22.3470470 108.1074290  62.3223260  19.1366790 121.4090130
  61.7919720  18.6457740 120.7813470  62.9911330  19.5650990 120.8748060
  66.6723480  22.1807850 105.8496250  67.1929140  21.4656870 105.4837400
  67.3191880  22.8193720 106.1496760  71.2201320  23.6036250 121.1731320
  71.6342340  23.7581330 122.0221740  70.2852320  23.7291470 121.3357100
  71.6923490  20.9432410 123.1770470  72.2744260  20.1884730 123.0890950
  71.8685260  21.4739850 122.4001950  62.8095560  16.1029160 121.4887420
  62.7152430  15.4849910 120.7638290  62.2292950  16.8295450 121.2617330
  65.5757000  14.6602400 118.5214810  65.1274300  14.6826660 117.6760360
  64.9422200  14.2621420 119.1185110  65.9816550  23.5556730 119.1427250
  66.4004660  24.3989460 118.9703490  65.0625180  23.6928770 118.9134030
  68.3180450  21.2872910 120.5265090  68.4376660  20.6914050 121.2659930
  69.1774450  21.3242600 120.1066390  70.6568350  21.8410100 119.1027600
  70.1303570  22.3652720 118.4992740  70.9999690  22.4737490 119.7337330
  63.0554740  19.2303470 105.5477310  62.8543800  18.3670830 105.9090650
  62.8846790  19.1436830 104.6098910  65.0849220  17.8294260 121.7840910
  65.6748910  17.5210110 122.4718730  64.2669460  17.3574010 121.9400810
  69.9042650  17.4460070 122.0173930  69.2158170  16.7841610 121.9523920
  70.6248670  16.9998340 122.4622390  70.5343050  14.0411700 108.0764190
  70.8145340  13.1979600 108.4323610  69.7608780  14.2734810 108.5902940
  61.8537540  16.3304090 105.5355190  62.1563440  16.3371520 104.6274340
  62.5932130  15.9801950 106.0322850  66.6886180  31.0960950 120.5171630
  66.6144880  31.9996090 120.8244000  65.7865020  30.7772850 120.4893700
  65.0722470  15.2738710 106.5211390  64.7244470  14.5962700 105.9413840
  65.2735240  14.8128220 107.3354780  67.2371510  30.2619460 108.1397990
  68.1322300  30.6004430 108.1616750  67.2689140  29.5398870 107.5122270
  60.8767670  25.6346510 106.3684990  61.3142540  26.1776180 107.0242570
  61.3615400  24.8093460 106.3781330  58.0913470  28.4235540 113.8205250
  58.4216480  27.5556600 113.5883890  58.5204470  28.6294060 114.6510210
  62.6875390  26.7544550 111.4807220  62.3870930  26.6309520 112.3811130
  62.5812880  25.8953140 111.0722950  58.5803680  29.2906130 116.5586880
  58.1434670  29.4706930 117.3911030  59.1481360  30.0480750 116.4168600
  74.2165860  28.7923130 120.8464190  73.6167850  28.8515690 120.1028110
  74.3459760  27.8528110 120.9761040  75.4567310  26.5340950 106.1833900
  74.6260270  26.6017600 106.6541130  75.6339140  27.4245070 105.8800760
  58.4128110  21.8026360 112.9175760  57.7576950  21.5338000 112.2735460
  59.2506060  21.6930840 112.4677740  75.9183740  24.1338530 113.5310030
  76.2892570  23.3505850 113.1246000  76.5585670  24.8227630 113.3527330
  72.9017500  25.5175110 118.9440350  72.0877340  25.9472270 119.2066140
  73.3091700  26.1293520 118.3309400  71.3618550  16.5967650 107.1394250
  71.7803430  16.4098630 106.2990910  71.0554610  15.7446700 107.4497180
  59.4504040  22.1878930 117.4579100  59.8177080  22.1006330 118.3375120
  58.8814860  21.4245480 117.3585960  74.2507900  20.6563310 120.4709570
  74.0193990  20.4276060 119.5707520  74.5112450  21.5762860 120.4254460
  59.0020040  19.0988020 121.3637520  58.1076090  19.0654780 121.7031230
  59.5417590  19.2974810 122.1288770  72.6895970  15.8819740 123.2489270
  73.5666150  15.8903140 123.6323270  72.7016810  15.1450580 122.6381620
  57.6266190  19.0125290 108.8601090  56.7230270  19.2755490 108.6852750
  58.1106810  19.2836460 108.0801050  74.1359240  19.7349280 114.1377290
  74.6596720  19.2411930 113.5067460  74.7218660  19.8699640 114.8824860
  74.3148960  19.8189150 117.6596840  73.3651670  19.7852690 117.7741830
  74.4961970  20.7289260 117.4246610  60.1693400  18.0690830 106.7695470
  60.8785100  17.6474050 106.2842750  59.4533340  18.1366060 106.1378820
  59.8167560  14.1230160 105.8098120  60.5395690  14.6639100 106.1279340
  60.0892080  13.8493580 104.9339660  73.6259210  18.9922630 110.0769700
  74.1218330  18.7593500 110.8618580  73.4275280  18.1534470 109.6607340
  59.5059750  13.3736350 115.7120740  60.1535940  12.8233730 115.2715900
  59.9261590  13.6279500 116.5336550  75.0546370  17.6283580 112.6107380
  74.9445650  17.4739620 113.5489650  75.8153960  17.1004520 112.3682790
  73.4012090  13.5677710 119.0690380  74.0384310  14.1811850 119.4349570
  73.5486980  13.6038370 118.1239610  75.9436640  15.4591500 105.8513520
  76.8685950  15.3272680 105.6431810  75.9212430  15.5384320 106.8049970
  76.0175130  16.2302160 108.4770230  75.2226630  16.1647280 109.0063140
  76.2218410  17.1652800 108.4655580  72.9593550  30.2693710 112.4708620
  73.5552620  29.9478280 111.7943040  73.2171700  29.7965530 113.2621890
  59.2591750  13.5292020 118.4546060  58.9106570  13.9855840 119.2204240
  58.9279450  12.6349150 118.5368490  60.8656120  26.7011620 122.6199250
  60.8225750  26.3304530 123.5013710  60.9967130  27.6389190 122.7601070
  64.5662150  28.2571210 118.2208970  64.3253510  28.5245770 117.3339490
  65.5064790  28.4276940 118.2759830  66.7716570  14.7203900 121.9765480
  66.7105460  15.3125730 122.7260890  67.7116950  14.6129860 121.8315740
  69.4091130  14.3773960 121.6157770  70.0231540  14.6953250 120.9538850
  69.9540690  13.8922550 122.2353630  75.8266310  30.2765590 119.0219610
  75.3324590  30.6734460 118.3046740  75.2179600  29.6514800 119.4156890
  59.9312390  13.0568220 121.7296830  60.4795380  12.8756270 120.9662940
  59.9967700  12.2662330 122.2653140  70.1499170  12.9406100 117.9427060
  69.2759010  13.2741210 117.7399990  70.0409920  12.4679280 118.7678930
  71.0571150  15.1476970 119.3268780  70.7284510  14.3328730 118.9470510
  72.0053450  15.1046780 119.2034470  73.5105760  30.9189010 116.3006350
  73.0508730  31.6704820 115.9264370  72.8818220  30.1995480 116.2421150
  60.3356380  27.0132250 118.6905070  59.6090440  26.3937540 118.6231020
  60.3965530  27.4072860 117.8203150  66.6796980  30.1185740 116.3023460
  66.9674790  29.8640040 115.4256470  67.1920200  29.5663100 116.8929030
  67.8973990  13.8575940 116.8819970  67.1145780  14.3321440 117.1616730
  67.6036920  12.9530770 116.7733150  72.4495060  14.5599040 114.9269060
  72.8903150  14.5044140 114.0790660  72.1802650  15.4757050 114.9979240
  74.3133630  14.1914280 112.9377880  74.2522030  13.2475500 112.7908900
  75.0925660  14.2994370 113.4831340  59.2414400  14.1623420 109.4033690
  59.9993760  14.2752300 108.8297720  58.7791570  14.9992620 109.3577120
  65.7828210  16.2762690 112.3936000  64.9702720  15.9019580 112.0531880
  66.2869850  15.5207770 112.6957190  70.2853190  12.9405140 113.6319070
  70.8882560  13.5125350 114.1067590  69.5446180  13.5044580 113.4092970
  73.4287790  13.3426700 108.9059350  73.6238420  14.2410150 109.1726780
  72.6417660  13.1113780 109.3992300  61.6139550  14.6887470 107.9435660
  62.1432310  13.9017270 107.8143610  62.2467870  15.3678660 108.1771190
  63.8077390  14.4262610 110.9981050  63.1780130  13.7249920 111.1651180
  63.2682530  15.1866740 110.7814210  66.7469340  31.0401840 123.6691660
  67.6736650  30.8046110 123.7127620  66.7319770  31.8673840 123.1877690
  74.9814400  30.5827410 110.6665910  75.1566590  29.8965150 110.0226830
  74.2835970  31.1074460 110.2742580  63.9332950  13.7046590 123.4333540
  63.6517220  14.2080190 122.6694360  64.3152650  12.9068340 123.0675670
  70.5348410  13.1200170 124.0114010  70.4213860  13.4394780 124.9065530
  71.3518150  13.5212680 123.7151290  73.3146900  30.2671700 123.4932700
  74.1072220  29.7720930 123.2858660  73.6080050  30.9461840 124.1008310
  69.4406560  21.1392640  94.3748750  69.3600610  20.2247250  94.1040460
  69.0270980  21.6359710  93.6688460  61.5890430  23.2291470  97.1333780
  60.7575310  22.9740180  97.5330290  62.1971410  23.3002240  97.8691700
  61.5691690  27.2631560  97.3291800  61.8719730  26.3729300  97.1502020
  62.3135280  27.8201780  97.1014050  59.9982380  18.1893360  90.9176170
  59.1099080  18.5309330  90.8156050  60.2823570  17.9893680  90.0257000
  57.9615390  20.7899010  96.8015870  58.5331500  20.0221210  96.8019510
  57.9616930  21.0887770  95.8922480  59.2040260  16.1983370  98.5884800
  59.0243100  15.3009120  98.8687560  58.8020340  16.7455240  99.2631750
  62.1743770  16.7724860  91.9514550  62.2810520  17.6728590  92.2583310
  61.2636130  16.7242830  91.6609200  71.8262880  15.8949670  93.4225450
  72.6472500  15.4046240  93.4650930  71.8596960  16.4847330  94.1757290
  59.8226930  18.6943870  97.1967140  60.5037040  18.9582240  97.8154540
  59.5074980  17.8544740  97.5305150  76.1162430  17.9116420  99.9869080
  75.4114600  18.2998130  99.4684190  76.3820350  18.6066710 100.5890010
  62.2987600  14.3809790 100.5503150  62.3006040  14.8982180  99.7449050
  61.4691910  13.9039970 100.5273080  63.5490450  24.0204970  98.7276650
  63.2159830  24.6473890  99.3697720  63.7257130  24.5466850  97.9478320
  72.0624360  17.8350050  96.1952990  71.3579930  18.1234940  96.7756100
  72.4236520  18.6450160  95.8352550  61.9802930  16.0919750  98.5573600
  62.3219740  16.9361800  98.2627470  61.0418740  16.2403490  98.6738940
  75.1311280  17.2804840  96.5862200  74.1836190  17.3143820  96.7177630
  75.4561270  18.0943790  96.9711560  65.6630820  13.5802020  94.8818190
  65.9705800  13.0248910  94.1653690  64.7331520  13.7146480  94.6991180
  68.0380660  17.9167850  88.6145470  67.0984330  18.0781810  88.6997930
  68.3563920  18.6353530  88.0681460  74.5593420  22.5986370  98.5924500
  73.7312050  22.6679460  98.1174630  75.1543900  23.1840680  98.1240330
  71.5235430  19.3855690  99.5379370  71.1106610  20.2109400  99.7919360
  70.7911380  18.8000730  99.3455730  63.6568220  22.1715590  94.3998040
  63.2525220  21.4592840  93.9043940  63.7431340  21.8268830  95.2886080
  64.1249920  25.8583150  96.5637250  63.8278210  25.2528620  95.8845030
  65.0749740  25.8960460  96.4526610  62.3696840  18.9458800  98.1797080
  62.9211430  19.0554140  97.4050330  62.8840350  19.3196400  98.8952310
  72.2135530  29.4315020 100.2260350  71.7366090  30.2387210 100.0332960
  71.5297320  28.7793350 100.3786560  62.0439570  22.4678160 101.7902420
  61.9047340  23.3400960 102.1589820  61.1620930  22.1250970 101.6450360
  73.8390710  13.7000770  87.4427350  73.5263370  13.7927600  88.3426420
  74.6003180  14.2781800  87.3924780  60.3572850  21.0660570  91.9004690
  60.2370450  21.7922660  91.2885960  60.0473740  20.2963480  91.4232600
  75.7934740  29.1926960 105.2951740  76.2694460  29.6709850 105.9740820
  76.4141900  29.1244450 104.5697240  57.9958220  24.2375710  97.7073330
  58.0738640  24.3724480  96.7629050  58.6099900  23.5291600  97.9001450
  71.0339130  30.3723150  90.4530560  70.8740270  30.0826090  91.3512390
  70.8685840  29.5963280  89.9175790  70.3015190  29.5073420  93.0877050
  70.7572140  28.7262800  93.4015670  70.6407710  30.2180240  93.6318230
  75.0492000  18.4372270 103.4201490  74.4336270  18.9451940 102.8916950
  74.7288420  17.5370600 103.3627430  58.0517740  25.2789880 100.2467790
  58.2148780  24.8095240  99.4287160  58.5170190  24.7713440 100.9116630
  62.8236510  14.4095640  95.2828360  62.3804660  15.1905180  94.9512880
  63.3821500  14.7325530  95.9899300  67.1106320  17.2764160 100.8863680
  66.6485690  17.4847180 101.6983620  66.7084430  16.4623510 100.5834350
  72.1110830  18.4973110 102.0160340  71.2604420  18.1978860 102.3369410
  71.9512620  18.7415120 101.1044160  69.2060540  19.9974860 104.1159130
  69.5313950  19.1638610 103.7761360  69.9940870  20.5203380 104.2637460
  65.9395330  14.0306340  90.1634190  65.3149510  14.0266210  90.8887500
  65.8525450  13.1637300  89.7670160  64.8612410  14.9542970  97.1417960
  65.1584740  15.8605800  97.0609980  65.4097970  14.4661750  96.5277530
  62.6150730  19.5329210  93.0109610  62.3891650  19.3166380  93.9156230
  61.8343260  19.9657670  92.6655580  69.8448490  19.5392580  91.6100260
  69.2457380  20.2628380  91.4263880  70.3928100  19.4769360  90.8276710
  65.0549940  20.4314790 103.6769880  64.9593540  19.4909520 103.5270280
  65.8981920  20.6529860 103.2817950  68.4513360  18.1756120  93.6403540
  68.8442930  18.4928320  92.8272230  68.8130210  17.2968000  93.7548060
  60.1860480  16.8428460 101.8303660  59.7923870  17.6903670 102.0376440
  59.4978880  16.2054830 102.0212300  66.7605530  16.9263430 104.9000400
  66.0703850  16.7335630 105.5346490  67.5037830  17.2098070 105.4324700
  57.4877530  14.7656920  95.8633740  57.1990580  15.3359780  96.5758720
  58.2323290  14.2861370  96.2264970  69.0368500  20.7661870  97.7354320
  68.3049620  21.2748680  98.0844420  68.6392840  19.9491850  97.4343100
  61.3248270  17.3242560  95.1001020  60.9848320  17.8017790  95.8568070
  60.5625590  16.8707680  94.7402120  69.4994410  16.2195550  97.1477260
  69.5167150  16.6704200  97.9919110  69.2509990  15.3201190  97.3610700
  72.9265160  13.6327730 102.9863640  73.2510930  12.9017390 103.5121620
  72.9621670  13.3141370 102.0844630  58.6394350  16.2461540  94.0165690
  58.3541270  15.8817210  94.8544310  58.5773210  15.5142000  93.4028830
  63.5653230  20.5426490 100.2056430  63.2610300  21.4218470 100.4306790
  64.5199690  20.6026280 100.2413870  68.3132940  15.1390800  90.7379060
  67.4997550  14.6403970  90.6624370  68.1194890  15.9789050  90.3215410
  71.0281330  19.5110450  89.0341220  71.9160950  19.8227680  88.8592560
  70.9986420  18.6382700  88.6421800  62.1372420  24.4167860  94.4402090
  62.6551090  23.6136120  94.3858980  61.6856440  24.3547000  95.2818920
  59.6216960  21.3829230 101.3527790  59.2631900  22.0483080 101.9401130
  59.3271520  20.5512780 101.7240410  62.8230080  21.8413470 104.2367340
  62.5230220  21.9870650 103.3395160  63.5941320  21.2818760 104.1440730
  74.3769740  23.2789810 101.5791050  73.6517930  23.8718590 101.3820440
  74.9045200  23.2713350 100.7804420  74.3282850  27.6764550  91.2303210
  73.6859010  27.0220170  91.5046930  73.9413510  28.0819640  90.4543880
  58.1325010  21.3820490  87.9762390  59.0019860  21.6645290  88.2598310
  57.6415330  22.1956360  87.8611200  61.1971600  13.1131350  92.5693190
  61.0686230  13.1049250  93.5178110  60.3733620  13.4514440  92.2184200
  58.4996260  30.5947870  88.5424020  58.8593900  31.1937210  87.8881290
  58.3588600  31.1407760  89.3159050  58.1965530  14.8722470 102.0299890
  57.4824050  15.0719390 102.6352500  58.6160570  14.0962040 102.4014690
  58.4838120  28.8602730 103.0166420  58.5929240  27.9197470 102.8761810
  57.8318680  29.1257480 102.3680150  69.6904310  17.3644780  99.7801340
  70.0585130  16.5439990 100.1080910  68.8302510  17.4246670 100.1956990
  73.0566340  16.3201720  90.5888900  72.4279500  16.4247390  89.8747130
  72.5618260  16.5398500  91.3782780  65.0250370  18.5987670  92.0046780
  64.3166520  19.0674010  92.4460390  65.3094850  17.9409680  92.6391970
  69.0565800  15.3238330  93.4442570  68.9333580  15.3424460  92.4952080
  70.0050360  15.3717270  93.5640970  66.1442590  30.5593630  92.7170550
  66.3984090  30.5215020  91.7949920  65.1955070  30.4326960  92.7098800
  63.2285390  16.9072750  89.3797490  64.0775920  17.3442900  89.3137680
  62.8616660  17.2193010  90.2069550  73.8573160  16.2352330 100.8467700
  73.3546760  16.9757730 101.1861510  74.6729820  16.6236330 100.5304490
  72.1495170  21.4785510  94.2929060  71.2085310  21.4935740  94.4676750
  72.4639240  20.6921470  94.7389360  74.1520750  28.6494360  95.9683320
  74.2768170  29.4725530  96.4407130  75.0186310  28.4385090  95.6207470
  61.6238280  30.7425570  95.6400450  62.3600760  30.1941030  95.9109020
  62.0079200  31.6081580  95.5006440  64.7340590  29.9155880  87.4626020
  65.5269200  30.2044710  87.0107810  64.2144940  29.4848050  86.7838500
  58.3494370  22.4145100 103.7722080  58.8533390  21.8352380 104.3438310
  57.6101790  22.6985330 104.3098450  60.3817450  20.5574690 104.6672150
  60.4222790  20.2588560 105.5757380  61.2362950  20.9582300 104.5079670
  62.3223260  19.1366790 102.6346640  61.7919720  18.6457740 102.0069980
  62.9911330  19.5650990 102.1004570  71.2201320  23.6036250 102.3987830
  71.6342340  23.7581330 103.2478250  70.2852320  23.7291470 102.5613610
  71.6923490  20.9432410 104.4026980  72.2744260  20.1884730 104.3147460
  71.8685260  21.4739850 103.6258460  62.8095560  16.1029160 102.7143930
  62.7152430  15.4849910 101.9894800  62.2292950  16.8295450 102.4873840
  65.5757000  14.6602400  99.7471320  65.1274300  14.6826660  98.9016870
  64.9422200  14.2621420 100.3441620  68.3180450  21.2872910 101.7521600
  68.4376660  20.6914050 102.4916440  69.1774450  21.3242600 101.3322900
  70.6568350  21.8410100 100.3284110  70.1303570  22.3652720  99.7249250
  70.9999690  22.4737490 100.9593840  65.0849220  17.8294260 103.0097420
  65.6748910  17.5210110 103.6975240  64.2669460  17.3574010 103.1657320
  69.9042650  17.4460070 103.2430440  69.2158170  16.7841610 103.1780430
  70.6248670  16.9998340 103.6878900  70.5343050  14.0411700  89.3020700
  70.8145340  13.1979600  89.6580120  69.7608780  14.2734810  89.8159450
  61.8537540  16.3304090  86.7611700  62.1563440  16.3371520  85.8530850
  62.5932130  15.9801950  87.2579360  65.0722470  15.2738710  87.7467900
  64.7244470  14.5962700  87.1670350  65.2735240  14.8128220  88.5611290
  67.2371510  30.2619460  89.3654500  68.1322300  30.6004430  89.3873260
  67.2689140  29.5398870  88.7378780  62.6875390  26.7544550  92.7063730
  62.3870930  26.6309520  93.6067640  62.5812880  25.8953140  92.2979460
  58.5803680  29.2906130  97.7843390  58.1434670  29.4706930  98.6167540
  59.1481360  30.0480750  97.6425110  58.4128110  21.8026360  94.1432270
  57.7576950  21.5338000  93.4991970  59.2506060  21.6930840  93.6934250
  75.9183740  24.1338530  94.7566540  76.2892570  23.3505850  94.3502510
  76.5585670  24.8227630  94.5783840  72.9017500  25.5175110 100.1696860
  72.0877340  25.9472270 100.4322650  73.3091700  26.1293520  99.5565910
  71.3618550  16.5967650  88.3650760  71.7803430  16.4098630  87.5247420
  71.0554610  15.7446700  88.6753690  74.8608280  21.5091790  92.0626560
  74.4851880  20.7419720  91.6307850  74.1311400  21.8914490  92.5501490
  59.4504040  22.1878930  98.6835610  59.8177080  22.1006330  99.5631630
  58.8814860  21.4245480  98.5842470  74.2507900  20.6563310 101.6966080
  74.0193990  20.4276060 100.7964030  74.5112450  21.5762860 101.6510970
  59.0020040  19.0988020 102.5894030  58.1076090  19.0654780 102.9287740
  59.5417590  19.2974810 103.3545280  72.6895970  15.8819740 104.4745780
  73.5666150  15.8903140 104.8579780  72.7016810  15.1450580 103.8638130
  57.6266190  19.0125290  90.0857600  56.7230270  19.2755490  89.9109260
  58.1106810  19.2836460  89.3057560  74.1359240  19.7349280  95.3633800
  74.6596720  19.2411930  94.7323970  74.7218660  19.8699640  96.1081370
  74.3148960  19.8189150  98.8853350  73.3651670  19.7852690  98.9998340
  74.4961970  20.7289260  98.6503120  60.1693400  18.0690830  87.9951980
  60.8785100  17.6474050  87.5099260  59.4533340  18.1366060  87.3635330
  59.8167560  14.1230160  87.0354630  60.5395690  14.6639100  87.3535850
  60.0892080  13.8493580  86.1596170  73.6259210  18.9922630  91.3026210
  74.1218330  18.7593500  92.0875090  73.4275280  18.1534470  90.8863850
  59.5059750  13.3736350  96.9377250  60.1535940  12.8233730  96.4972410
  59.9261590  13.6279500  97.7593060  75.0546370  17.6283580  93.8363890
  74.9445650  17.4739620  94.7746160  75.8153960  17.1004520  93.5939300
  73.4012090  13.5677710 100.2946890  74.0384310  14.1811850 100.6606080
  73.5486980  13.6038370  99.3496120  75.9436640  15.4591500  87.0770030
  76.8685950  15.3272680  86.8688320  75.9212430  15.5384320  88.0306480
  72.9593550  30.2693710  93.6965130  73.5552620  29.9478280  93.0199550
  73.2171700  29.7965530  94.4878400  59.2591750  13.5292020  99.6802570
  58.9106570  13.9855840 100.4460750  58.9279450  12.6349150  99.7625000
  66.7716570  14.7203900 103.2021990  66.7105460  15.3125730 103.9517400
  67.7116950  14.6129860 103.0572250  69.4091130  14.3773960 102.8414280
  70.0231540  14.6953250 102.1795360  69.9540690  13.8922550 103.4610140
  75.8266310  30.2765590 100.2476120  75.3324590  30.6734460  99.5303250
  75.2179600  29.6514800 100.6413400  59.9312390  13.0568220 102.9553340
  60.4795380  12.8756270 102.1919450  59.9967700  12.2662330 103.4909650
  70.1499170  12.9406100  99.1683570  69.2759010  13.2741210  98.9656500
  70.0409920  12.4679280  99.9935440  71.0571150  15.1476970 100.5525290
  70.7284510  14.3328730 100.1727020  72.0053450  15.1046780 100.4290980
  73.5105760  30.9189010  97.5262860  73.0508730  31.6704820  97.1520880
  72.8818220  30.1995480  97.4677660  63.9401480  29.2277250  96.7010990
  64.4566500  28.6164610  96.1759250  64.5898860  29.7306030  97.1922000
  67.8973990  13.8575940  98.1076480  67.1145780  14.3321440  98.3873240
  67.6036920  12.9530770  97.9989660  72.4495060  14.5599040  96.1525570
  72.8903150  14.5044140  95.3047170  72.1802650  15.4757050  96.2235750
  74.3133630  14.1914280  94.1634390  74.2522030  13.2475500  94.0165410
  75.0925660  14.2994370  94.7087850  59.2414400  14.1623420  90.6290200
  59.9993760  14.2752300  90.0554230  58.7791570  14.9992620  90.5833630
  65.7828210  16.2762690  93.6192510  64.9702720  15.9019580  93.2788390
  66.2869850  15.5207770  93.9213700  70.2853190  12.9405140  94.8575580
  70.8882560  13.5125350  95.3324100  69.5446180  13.5044580  94.6349480
  73.4287790  13.3426700  90.1315860  73.6238420  14.2410150  90.3983290
  72.6417660  13.1113780  90.6248810  60.2249080  29.0239870  90.5708480
  59.6996700  29.4047900  89.8670440  60.1493660  29.6490640  91.2918190
  61.6139550  14.6887470  89.1692170  62.1432310  13.9017270  89.0400120
  62.2467870  15.3678660  89.4027700  63.8077390  14.4262610  92.2237560
  63.1780130  13.7249920  92.3907690  63.2682530  15.1866740  92.0070720
  74.9814400  30.5827410  91.8922420  75.1566590  29.8965150  91.2483340
  74.2835970  31.1074460  91.4999090  63.9332950  13.7046590 104.6590050
  63.6517220  14.2080190 103.8950870  64.3152650  12.9068340 104.2932180
  70.5348410  13.1200170 105.2370520  70.4213860  13.4394780 106.1322040
  71.3518150  13.5212680 104.9407800  73.3146900  30.2671700 104.7189210
  74.1072220  29.7720930 104.5115170  73.6080050  30.9461840 105.3264820
  69.4406560  21.1392640  75.6005260  69.3600610  20.2247250  75.3296970
  69.0270980  21.6359710  74.8944970  57.9615390  20.7899010  78.0272380
  58.5331500  20.0221210  78.0276020  57.9616930  21.0887770  77.1178990
  59.2040260  16.1983370  79.8141310  59.0243100  15.3009120  80.0944070
  58.8020340  16.7455240  80.4888260  71.8262880  15.8949670  74.6481960
  72.6472500  15.4046240  74.6907440  71.8596960  16.4847330  75.4013800
  59.8226930  18.6943870  78.4223650  60.5037040  18.9582240  79.0411050
  59.5074980  17.8544740  78.7561660  64.0151500  19.7411230  77.5096240
  64.5229720  20.2392200  78.1501260  64.5464740  18.9646430  77.3335600
  62.2987600  14.3809790  81.7759660  62.3006040  14.8982180  80.9705560
  61.4691910  13.9039970  81.7529590  63.5490450  24.0204970  79.9533160
  63.2159830  24.6473890  80.5954230  63.7257130  24.5466850  79.1734830
  61.9802930  16.0919750  79.7830110  62.3219740  16.9361800  79.4883980
  61.0418740  16.2403490  79.8995450  62.7609550  25.9885770  81.7682340
  63.3783550  26.6636850  81.4866790  61.9002670  26.3973750  81.6769840
  58.0541890  25.1785630  70.6489190  57.6769870  25.6672730  69.9174090
  58.3114960  25.8510910  71.2795720  72.5091300  26.0185530  73.4872330
  72.3987630  25.0759860  73.6121750  72.5059550  26.3801170  74.3735090
  68.0380660  17.9167850  69.8401980  67.0984330  18.0781810  69.9254440
  68.3563920  18.6353530  69.2937970  72.0808870  23.2071150  73.3470070
  71.4621290  22.8690700  72.6996370  72.0633320  22.5630910  74.0549260
  62.3696840  18.9458800  79.4053590  62.9211430  19.0554140  78.6306840
  62.8840350  19.3196400  80.1208820  70.2573570  22.4457960  70.3542820
  70.6966850  21.6080390  70.2080640  70.9701990  23.0787360  70.4406960
  62.0439570  22.4678160  83.0158930  61.9047340  23.3400960  83.3846330
  61.1620930  22.1250970  82.8706870  63.8419920  28.4099860  85.2244080
  63.8135350  28.8142810  84.3572510  63.6784890  27.4810220  85.0615680
  60.3572850  21.0660570  73.1261200  60.2370450  21.7922660  72.5142470
  60.0473740  20.2963480  72.6489110  69.0584730  30.0867810  82.2503070
  69.5729400  29.9975820  83.0525500  68.2153810  30.4327510  82.5430980
  70.7365260  27.8810710  70.2385070  70.0430420  27.8788000  69.5787350
  71.4788120  27.4570030  69.8079240  62.6150730  19.5329210  74.2366120
  62.3891650  19.3166380  75.1412740  61.8343260  19.9657670  73.8912090
  69.8448490  19.5392580  72.8356770  69.2457380  20.2628380  72.6520390
  70.3928100  19.4769360  72.0533220  68.4513360  18.1756120  74.8660050
  68.8442930  18.4928320  74.0528740  68.8130210  17.2968000  74.9804570
  60.1860480  16.8428460  83.0560170  59.7923870  17.6903670  83.2632950
  59.4978880  16.2054830  83.2468810  57.4877530  14.7656920  77.0890250
  57.1990580  15.3359780  77.8015230  58.2323290  14.2861370  77.4521480
  57.6747760  18.7077040  68.2992970  57.5922430  19.6507800  68.4407960
  57.3230820  18.5651950  67.4205320  65.5366040  18.4428150  70.3570080
  65.6578860  18.4014630  71.3055900  65.1514550  19.3052300  70.2016810
  69.4994410  16.2195550  78.3733770  69.5167150  16.6704200  79.2175620
  69.2509990  15.3201190  78.5867210  64.5487540  20.7529290  69.7553380
  63.9804440  20.3047540  69.1289290  65.2576540  21.1122070  69.2218530
  65.7753860  21.5017850  79.1128730  66.1423990  21.0276420  79.8590070
  65.5858920  22.3759420  79.4537070  63.5653230  20.5426490  81.4312940
  63.2610300  21.4218470  81.6563300  64.5199690  20.6026280  81.4670380
  68.3132940  15.1390800  71.9635570  67.4997550  14.6403970  71.8880880
  68.1194890  15.9789050  71.5471920  71.0281330  19.5110450  70.2597730
  71.9160950  19.8227680  70.0849070  70.9986420  18.6382700  69.8678310
  67.0241920  25.6834140  70.9385900  67.3657620  26.4276370  70.4429220
  66.1954630  25.9965260  71.3010730  59.6216960  21.3829230  82.5784300
  59.2631900  22.0483080  83.1657640  59.3271520  20.5512780  82.9496920
  74.3282850  27.6764550  72.4559720  73.6859010  27.0220170  72.7303440
  73.9413510  28.0819640  71.6800390  58.1325010  21.3820490  69.2018900
  59.0019860  21.6645290  69.4854820  57.6415330  22.1956360  69.0867710
  58.4996260  30.5947870  69.7680530  58.8593900  31.1937210  69.1137800
  58.3588600  31.1407760  70.5415560  58.1965530  14.8722470  83.2556400
  57.4824050  15.0719390  83.8609010  58.6160570  14.0962040  83.6271200
  58.4838120  28.8602730  84.2422930  58.5929240  27.9197470  84.1018320
  57.8318680  29.1257480  83.5936660  73.0566340  16.3201720  71.8145410
  72.4279500  16.4247390  71.1003640  72.5618260  16.5398500  72.6039290
  67.5024480  28.0407310  69.2479390  67.6036460  27.8371300  68.3181370
  66.6026220  27.7865590  69.4527170  65.0250370  18.5987670  73.2303290
  64.3166520  19.0674010  73.6716900  65.3094850  17.9409680  73.8648480
  69.0565800  15.3238330  74.6699080  68.9333580  15.3424460  73.7208590
  70.0050360  15.3717270  74.7897480  72.1495170  21.4785510  75.5185570
  71.2085310  21.4935740  75.6933260  72.4639240  20.6921470  75.9645870
  60.8223570  20.5930180  69.7622420  60.9027160  19.6457690  69.8739820
  61.7143320  20.9237060  69.8683080  58.5083760  26.8099140  72.7398470
  57.5823540  27.0520280  72.7303880  58.9740190  27.6373400  72.6183220
  60.6296560  29.9271640  86.0542540  61.4309290  30.2483690  86.4677940
  60.1148380  29.5667220  86.7762450  73.7870760  29.1426010  70.1119270
  73.5012270  28.7291150  69.2973450  73.5890310  30.0713720  69.9919790
  60.3817450  20.5574690  85.8928660  60.4222790  20.2588560  86.8013890
  61.2362950  20.9582300  85.7336180  62.3223260  19.1366790  83.8603150
  61.7919720  18.6457740  83.2326490  62.9911330  19.5650990  83.3261080
  66.6723480  22.1807850  68.3009270  67.1929140  21.4656870  67.9350420
  67.3191880  22.8193720  68.6009780  62.8095560  16.1029160  83.9400440
  62.7152430  15.4849910  83.2151310  62.2292950  16.8295450  83.7130350
  65.5757000  14.6602400  80.9727830  65.1274300  14.6826660  80.1273380
  64.9422200  14.2621420  81.5698130  63.0554740  19.2303470  67.9990330
  62.8543800  18.3670830  68.3603670  62.8846790  19.1436830  67.0611930
  70.5343050  14.0411700  70.5277210  70.8145340  13.1979600  70.8836630
  69.7608780  14.2734810  71.0415960  66.6886180  31.0960950  82.9684650
  66.6144880  31.9996090  83.2757020  65.7865020  30.7772850  82.9406720
  58.0913470  28.4235540  76.2718270  58.4216480  27.5556600  76.0396910
  58.5204470  28.6294060  77.1023230  58.5803680  29.2906130  79.0099900
  58.1434670  29.4706930  79.8424050  59.1481360  30.0480750  78.8681620
  75.4567310  26.5340950  68.6346920  74.6260270  26.6017600  69.1054150
  75.6339140  27.4245070  68.3313780  58.4128110  21.8026360  75.3688780
  57.7576950  21.5338000  74.7248480  59.2506060  21.6930840  74.9190760
  75.9183740  24.1338530  75.9823050  76.2892570  23.3505850  75.5759020
  76.5585670  24.8227630  75.8040350  71.3618550  16.5967650  69.5907270
  71.7803430  16.4098630  68.7503930  71.0554610  15.7446700  69.9010200
  74.8608280  21.5091790  73.2883070  74.4851880  20.7419720  72.8564360
  74.1311400  21.8914490  73.7758000  59.4504040  22.1878930  79.9092120
  59.8177080  22.1006330  80.7888140  58.8814860  21.4245480  79.8098980
  59.0020040  19.0988020  83.8150540  58.1076090  19.0654780  84.1544250
  59.5417590  19.2974810  84.5801790  72.6895970  15.8819740  85.7002290
  73.5666150  15.8903140  86.0836290  72.7016810  15.1450580  85.0894640
  57.6266190  19.0125290  71.3114110  56.7230270  19.2755490  71.1365770
  58.1106810  19.2836460  70.5314070  60.1693400  18.0690830  69.2208490
  60.8785100  17.6474050  68.7355770  59.4533340  18.1366060  68.5891840
  59.8167560  14.1230160  68.2611140  60.5395690  14.6639100  68.5792360
  60.0892080  13.8493580  67.3852680  73.6259210  18.9922630  72.5282720
  74.1218330  18.7593500  73.3131600  73.4275280  18.1534470  72.1120360
  59.5059750  13.3736350  78.1633760  60.1535940  12.8233730  77.7228920
  59.9261590  13.6279500  78.9849570  59.2591750  13.5292020  80.9059080
  58.9106570  13.9855840  81.6717260  58.9279450  12.6349150  80.9881510
  60.8656120  26.7011620  85.0712270  60.8225750  26.3304530  85.9526730
  60.9967130  27.6389190  85.2114090  66.7716570  14.7203900  84.4278500
  66.7105460  15.3125730  85.1773910  67.7116950  14.6129860  84.2828760
  69.4091130  14.3773960  84.0670790  70.0231540  14.6953250  83.4051870
  69.9540690  13.8922550  84.6866650  75.8266310  30.2765590  81.4732630
  75.3324590  30.6734460  80.7559760  75.2179600  29.6514800  81.8669910
  59.9312390  13.0568220  84.1809850  60.4795380  12.8756270  83.4175960
  59.9967700  12.2662330  84.7166160  60.7044150  29.6473870  82.1910050
  60.1104470  29.5158570  82.9300090  60.6967990  28.8112010  81.7252150
  70.1499170  12.9406100  80.3940080  69.2759010  13.2741210  80.1913010
  70.0409920  12.4679280  81.2191950  60.3356380  27.0132250  81.1418090
  59.6090440  26.3937540  81.0744040  60.3965530  27.4072860  80.2716170
  67.8973990  13.8575940  79.3332990  67.1145780  14.3321440  79.6129750
  67.6036920  12.9530770  79.2246170  72.4495060  14.5599040  77.3782080
  72.8903150  14.5044140  76.5303680  72.1802650  15.4757050  77.4492260
  58.6186380  30.3306640  74.3514850  58.4508420  29.6977320  75.0496740
  57.7520890  30.5366040  74.0009040  70.2853190  12.9405140  76.0832090
  70.8882560  13.5125350  76.5580610  69.5446180  13.5044580  75.8605990
  73.4287790  13.3426700  71.3572370  73.6238420  14.2410150  71.6239800
  72.6417660  13.1113780  71.8505320  66.7469340  31.0401840  86.1204680
  67.6736650  30.8046110  86.1640640  66.7319770  31.8673840  85.6390710
  74.9814400  30.5827410  73.1178930  75.1566590  29.8965150  72.4739850
  74.2835970  31.1074460  72.7255600  63.9332950  13.7046590  85.8846560
  63.6517220  14.2080190  85.1207380  64.3152650  12.9068340  85.5188690
  70.5348410  13.1200170  86.4627030  70.4213860  13.4394780  87.3578550
  71.3518150  13.5212680  86.1664310  71.5932030  27.3231850  57.4870170
  71.1313560  26.5519090  57.8157340  72.4057580  27.3497920  57.9922620
  59.9982380  18.1893360  53.3689190  59.1099080  18.5309330  53.2669070
  60.2823570  17.9893680  52.4770020  57.9615390  20.7899010  59.2528890
  58.5331500  20.0221210  59.2532530  57.9616930  21.0887770  58.3435500
  59.2040260  16.1983370  61.0397820  59.0243100  15.3009120  61.3200580
  58.8020340  16.7455240  61.7144770  62.1743770  16.7724860  54.4027570
  62.2810520  17.6728590  54.7096330  61.2636130  16.7242830  54.1122220
  71.8262880  15.8949670  55.8738470  72.6472500  15.4046240  55.9163950
  71.8596960  16.4847330  56.6270310  59.8226930  18.6943870  59.6480160
  60.5037040  18.9582240  60.2667560  59.5074980  17.8544740  59.9818170
  64.0151500  19.7411230  58.7352750  64.5229720  20.2392200  59.3757770
  64.5464740  18.9646430  58.5592110  76.1162430  17.9116420  62.4382100
  75.4114600  18.2998130  61.9197210  76.3820350  18.6066710  63.0403030
  62.2987600  14.3809790  63.0016170  62.3006040  14.8982180  62.1962070
  61.4691910  13.9039970  62.9786100  61.9802930  16.0919750  61.0086620
  62.3219740  16.9361800  60.7140490  61.0418740  16.2403490  61.1251960
  73.6787140  27.4525180  60.9093490  72.9950660  28.1224290  60.9010160
  74.2181430  27.6505830  60.1438350  65.6630820  13.5802020  57.3331210
  65.9705800  13.0248910  56.6166710  64.7331520  13.7146480  57.1504200
  71.2145880  29.2969310  59.6238670  71.2273040  28.8931600  58.7560930
  70.6621100  30.0716600  59.5200100  70.6131320  24.1999150  60.9521280
  71.0300110  23.9859260  60.1174740  71.3371140  24.4571940  61.5229900
  68.0380660  17.9167850  51.0658490  67.0984330  18.0781810  51.1510950
  68.3563920  18.6353530  50.5194480  74.5593420  22.5986370  61.0437520
  73.7312050  22.6679460  60.5687650  75.1543900  23.1840680  60.5753350
  71.5235430  19.3855690  61.9892390  71.1106610  20.2109400  62.2432380
  70.7911380  18.8000730  61.7968750  63.6568220  22.1715590  56.8511060
  63.2525220  21.4592840  56.3556960  63.7431340  21.8268830  57.7399100
  62.3696840  18.9458800  60.6310100  62.9211430  19.0554140  59.8563350
  62.8840350  19.3196400  61.3465330  70.2573570  22.4457960  51.5799330
  70.6966850  21.6080390  51.4337150  70.9701990  23.0787360  51.6663470
  73.8390710  13.7000770  49.8940370  73.5263370  13.7927600  50.7939440
  74.6003180  14.2781800  49.8437800  60.3572850  21.0660570  54.3517710
  60.2370450  21.7922660  53.7398980  60.0473740  20.2963480  53.8745620
  75.7934740  29.1926960  67.7464760  76.2694460  29.6709850  68.4253840
  76.4141900  29.1244450  67.0210260  75.1967990  26.3839810  64.9064770
  75.3231050  26.1451690  63.9881950  75.2389370  25.5524350  65.3786850
  75.0492000  18.4372270  65.8714510  74.4336270  18.9451940  65.3429970
  74.7288420  17.5370600  65.8140450  62.8236510  14.4095640  57.7341380
  62.3804660  15.1905180  57.4025900  63.3821500  14.7325530  58.4412320
  67.1106320  17.2764160  63.3376700  66.6485690  17.4847180  64.1496640
  66.7084430  16.4623510  63.0347370  72.1110830  18.4973110  64.4673360
  71.2604420  18.1978860  64.7882430  71.9512620  18.7415120  63.5557180
  69.2060540  19.9974860  66.5672150  69.5313950  19.1638610  66.2274380
  69.9940870  20.5203380  66.7150480  65.9395330  14.0306340  52.6147210
  65.3149510  14.0266210  53.3400520  65.8525450  13.1637300  52.2183180
  64.8612410  14.9542970  59.5930980  65.1584740  15.8605800  59.5123000
  65.4097970  14.4661750  58.9790550  62.6150730  19.5329210  55.4622630
  62.3891650  19.3166380  56.3669250  61.8343260  19.9657670  55.1168600
  65.0549940  20.4314790  66.1282900  64.9593540  19.4909520  65.9783300
  65.8981920  20.6529860  65.7330970  60.1860480  16.8428460  64.2816680
  59.7923870  17.6903670  64.4889460  59.4978880  16.2054830  64.4725320
  66.7605530  16.9263430  67.3513420  66.0703850  16.7335630  67.9859510
  67.5037830  17.2098070  67.8837720  57.4877530  14.7656920  58.3146760
  57.1990580  15.3359780  59.0271740  58.2323290  14.2861370  58.6777990
  57.6747760  18.7077040  49.5249480  57.5922430  19.6507800  49.6664470
  57.3230820  18.5651950  48.6461830  65.4745890  17.4416070  58.5919830
  65.4781950  17.0006020  57.7424370  66.3697010  17.7633400  58.6991650
  61.3248270  17.3242560  57.5514040  60.9848320  17.8017790  58.3081090
  60.5625590  16.8707680  57.1915140  65.5366040  18.4428150  51.5826590
  65.6578860  18.4014630  52.5312410  65.1514550  19.3052300  51.4273320
  69.4994410  16.2195550  59.5990280  69.5167150  16.6704200  60.4432130
  69.2509990  15.3201190  59.8123720  64.5487540  20.7529290  50.9809890
  63.9804440  20.3047540  50.3545800  65.2576540  21.1122070  50.4475040
  72.9265160  13.6327730  65.4376660  73.2510930  12.9017390  65.9634640
  72.9621670  13.3141370  64.5357650  59.6256720  24.6541310  64.8576620
  59.2411510  24.0134980  65.4559580  59.9368910  25.3577430  65.4271350
  58.6394350  16.2461540  56.4678710  58.3541270  15.8817210  57.3057330
  58.5773210  15.5142000  55.8541850  72.8523000  23.7452840  59.0462690
  73.5722120  24.2408130  58.6558800  72.6504820  23.0670730  58.4016560
  68.3132940  15.1390800  53.1892080  67.4997550  14.6403970  53.1137390
  68.1194890  15.9789050  52.7728430  71.0281330  19.5110450  51.4854240
  71.9160950  19.8227680  51.3105580  70.9986420  18.6382700  51.0934820
  59.6216960  21.3829230  63.8040810  59.2631900  22.0483080  64.3914150
  59.3271520  20.5512780  64.1753430  62.8230080  21.8413470  66.6880360
  62.5230220  21.9870650  65.7908180  63.5941320  21.2818760  66.5953750
  73.2995600  20.8222290  50.9534100  73.2159320  21.2536510  50.1030540
  74.0189790  21.2820640  51.3860920  74.3769740  23.2789810  64.0304070
  73.6517930  23.8718590  63.8333460  74.9045200  23.2713350  63.2317440
  58.1325010  21.3820490  50.4275410  59.0019860  21.6645290  50.7111330
  57.6415330  22.1956360  50.3124220  61.1971600  13.1131350  55.0206210
  61.0686230  13.1049250  55.9691130  60.3733620  13.4514440  54.6697220
  68.8724510  26.2832390  60.4953440  69.5146740  25.5825550  60.6085610
  69.3973860  27.0630830  60.3150330  72.7180230  26.5681010  50.2192580
  72.4917810  25.8511450  50.8117220  72.3276430  26.3193450  49.3814330
  58.1965530  14.8722470  64.4812910  57.4824050  15.0719390  65.0865520
  58.6160570  14.0962040  64.8527710  58.4838120  28.8602730  65.4679440
  58.5929240  27.9197470  65.3274830  57.8318680  29.1257480  64.8193170
  69.6904310  17.3644780  62.2314360  70.0585130  16.5439990  62.5593930
  68.8302510  17.4246670  62.6470010  73.0566340  16.3201720  53.0401920
  72.4279500  16.4247390  52.3260150  72.5618260  16.5398500  53.8295800
  65.0250370  18.5987670  54.4559800  64.3166520  19.0674010  54.8973410
  65.3094850  17.9409680  55.0904990  69.0565800  15.3238330  55.8955590
  68.9333580  15.3424460  54.9465100  70.0050360  15.3717270  56.0153990
  63.2285390  16.9072750  51.8310510  64.0775920  17.3442900  51.7650700
  62.8616660  17.2193010  52.6582570  73.8573160  16.2352330  63.2980720
  73.3546760  16.9757730  63.6374530  74.6729820  16.6236330  62.9817510
  62.1276810  23.1605110  50.3046040  62.8940080  23.0486470  50.8671470
  62.2051500  22.4643080  49.6522810  60.8223570  20.5930180  50.9878930
  60.9027160  19.6457690  51.0996330  61.7143320  20.9237060  51.0939590
  74.1520750  28.6494360  58.4196340  74.2768170  29.4725530  58.8920150
  75.0186310  28.4385090  58.0720490  64.7340590  29.9155880  49.9139040
  65.5269200  30.2044710  49.4620830  64.2144940  29.4848050  49.2351520
  58.3494370  22.4145100  66.2235100  58.8533390  21.8352380  66.7951330
  57.6101790  22.6985330  66.7611470  65.2517990  25.1359290  49.7781390
  65.1468630  24.5211640  50.5042770  65.0842210  24.6125180  48.9944400
  65.4032310  23.8216090  65.7570620  64.6377980  24.3901090  65.6725290
  65.5848270  23.5292300  64.8638850  68.4920720  24.1979320  50.3823380
  67.9430820  24.6448620  51.0266120  69.1139980  23.6928570  50.9061050
  60.3817450  20.5574690  67.1185170  60.4222790  20.2588560  68.0270400
  61.2362950  20.9582300  66.9592690  62.3223260  19.1366790  65.0859660
  61.7919720  18.6457740  64.4583000  62.9911330  19.5650990  64.5517590
  66.6723480  22.1807850  49.5265780  67.1929140  21.4656870  49.1606930
  67.3191880  22.8193720  49.8266290  71.6923490  20.9432410  66.8540000
  72.2744260  20.1884730  66.7660480  71.8685260  21.4739850  66.0771480
  62.8095560  16.1029160  65.1656950  62.7152430  15.4849910  64.4407820
  62.2292950  16.8295450  64.9386860  65.5757000  14.6602400  62.1984340
  65.1274300  14.6826660  61.3529890  64.9422200  14.2621420  62.7954640
  68.3180450  21.2872910  64.2034620  68.4376660  20.6914050  64.9429460
  69.1774450  21.3242600  63.7835920  70.6568350  21.8410100  62.7797130
  70.1303570  22.3652720  62.1762270  70.9999690  22.4737490  63.4106860
  63.0554740  19.2303470  49.2246840  62.8543800  18.3670830  49.5860180
  62.8846790  19.1436830  48.2868440  63.8323970  29.8609740  63.9354510
  63.2945060  30.5855800  63.6163210  64.0857930  29.3840080  63.1451850
  65.0849220  17.8294260  65.4610440  65.6748910  17.5210110  66.1488260
  64.2669460  17.3574010  65.6170340  69.9042650  17.4460070  65.6943460
  69.2158170  16.7841610  65.6293450  70.6248670  16.9998340  66.1391920
  70.5343050  14.0411700  51.7533720  70.8145340  13.1979600  52.1093140
  69.7608780  14.2734810  52.2672470  61.8537540  16.3304090  49.2124720
  62.1563440  16.3371520  48.3043870  62.5932130  15.9801950  49.7092380
  65.0722470  15.2738710  50.1980920  64.7244470  14.5962700  49.6183370
  65.2735240  14.8128220  51.0124310  74.2165860  28.7923130  64.5233720
  73.6167850  28.8515690  63.7797640  74.3459760  27.8528110  64.6530570
  75.4567310  26.5340950  49.8603430  74.6260270  26.6017600  50.3310660
  75.6339140  27.4245070  49.5570290  58.4128110  21.8026360  56.5945290
  57.7576950  21.5338000  55.9504990  59.2506060  21.6930840  56.1447270
  74.9642940  23.5722800  49.5210150  75.2391780  24.4801680  49.3929370
  74.7753680  23.5085330  50.4572140  71.3618550  16.5967650  50.8163780
  71.7803430  16.4098630  49.9760440  71.0554610  15.7446700  51.1266710
  74.2507900  20.6563310  64.1479100  74.0193990  20.4276060  63.2477050
  74.5112450  21.5762860  64.1023990  59.0020040  19.0988020  65.0407050
  58.1076090  19.0654780  65.3800760  59.5417590  19.2974810  65.8058300
  72.6895970  15.8819740  66.9258800  73.5666150  15.8903140  67.3092800
  72.7016810  15.1450580  66.3151150  57.6266190  19.0125290  52.5370620
  56.7230270  19.2755490  52.3622280  58.1106810  19.2836460  51.7570580
  60.1693400  18.0690830  50.4465000  60.8785100  17.6474050  49.9612280
  59.4533340  18.1366060  49.8148350  59.8167560  14.1230160  49.4867650
  60.5395690  14.6639100  49.8048870  60.0892080  13.8493580  48.6109190
  59.5059750  13.3736350  59.3890270  60.1535940  12.8233730  58.9485430
  59.9261590  13.6279500  60.2106080  73.4012090  13.5677710  62.7459910
  74.0384310  14.1811850  63.1119100  73.5486980  13.6038370  61.8009140
  75.9436640  15.4591500  49.5283050  76.8685950  15.3272680  49.3201340
  75.9212430  15.5384320  50.4819500  76.0175130  16.2302160  52.1539760
  75.2226630  16.1647280  52.6832670  76.2218410  17.1652800  52.1425110
  72.9593550  30.2693710  56.1478150  73.5552620  29.9478280  55.4712570
  73.2171700  29.7965530  56.9391420  59.2591750  13.5292020  62.1315590
  58.9106570  13.9855840  62.8973770  58.9279450  12.6349150  62.2138020
  64.5662150  28.2571210  61.8978500  64.3253510  28.5245770  61.0109020
  65.5064790  28.4276940  61.9529360  66.7716570  14.7203900  65.6535010
  66.7105460  15.3125730  66.4030420  67.7116950  14.6129860  65.5085270
  69.4091130  14.3773960  65.2927300  70.0231540  14.6953250  64.6308380
  69.9540690  13.8922550  65.9123160  75.8266310  30.2765590  62.6989140
  75.3324590  30.6734460  61.9816270  75.2179600  29.6514800  63.0926420
  59.9312390  13.0568220  65.4066360  60.4795380  12.8756270  64.6432470
  59.9967700  12.2662330  65.9422670  60.7044150  29.6473870  63.4166560
  60.1104470  29.5158570  64.1556600  60.6967990  28.8112010  62.9508660
  70.1499170  12.9406100  61.6196590  69.2759010  13.2741210  61.4169520
  70.0409920  12.4679280  62.4448460  71.0571150  15.1476970  63.0038310
  70.7284510  14.3328730  62.6240040  72.0053450  15.1046780  62.8804000
  73.5105760  30.9189010  59.9775880  73.0508730  31.6704820  59.6033900
  72.8818220  30.1995480  59.9190680  67.8973990  13.8575940  60.5589500
  67.1145780  14.3321440  60.8386260  67.6036920  12.9530770  60.4502680
  72.4495060  14.5599040  58.6038590  72.8903150  14.5044140  57.7560190
  72.1802650  15.4757050  58.6748770  74.3133630  14.1914280  56.6147410
  74.2522030  13.2475500  56.4678430  75.0925660  14.2994370  57.1600870
  59.2414400  14.1623420  53.0803220  59.9993760  14.2752300  52.5067250
  58.7791570  14.9992620  53.0346650  65.7828210  16.2762690  56.0705530
  64.9702720  15.9019580  55.7301410  66.2869850  15.5207770  56.3726720
  70.2853190  12.9405140  57.3088600  70.8882560  13.5125350  57.7837120
  69.5446180  13.5044580  57.0862500  73.4287790  13.3426700  52.5828880
  73.6238420  14.2410150  52.8496310  72.6417660  13.1113780  53.0761830
  61.6139550  14.6887470  51.6205190  62.1432310  13.9017270  51.4913140
  62.2467870  15.3678660  51.8540720  63.8077390  14.4262610  54.6750580
  63.1780130  13.7249920  54.8420710  63.2682530  15.1866740  54.4583740
  63.9332950  13.7046590  67.1103070  63.6517220  14.2080190  66.3463890
  64.3152650  12.9068340  66.7445200  70.5348410  13.1200170  67.6883540
  70.4213860  13.4394780  68.5835060  71.3518150  13.5212680  67.3920820
  73.3146900  30.2671700  67.1702230  74.1072220  29.7720930  66.9628190
  73.6080050  30.9461840  67.7777840  69.4406560  21.1392640  38.0518280
  69.3600610  20.2247250  37.7809990  69.0270980  21.6359710  37.3457990
  67.5724600  22.9171660  39.9327550  66.7966700  22.4372100  40.2226120
  68.2237530  22.2377310  39.7583710  61.5890430  23.2291470  40.8103310
  60.7575310  22.9740180  41.2099820  62.1971410  23.3002240  41.5461230
  61.5691690  27.2631560  41.0061330  61.8719730  26.3729300  40.8271550
  62.3135280  27.8201780  40.7783580  59.9982380  18.1893360  34.5945700
  59.1099080  18.5309330  34.4925580  60.2823570  17.9893680  33.7026530
  57.9615390  20.7899010  40.4785400  58.5331500  20.0221210  40.4789040
  57.9616930  21.0887770  39.5692010  67.8195340  29.6089860  38.3330670
  67.2006780  30.0647360  37.7625110  68.6747120  29.7641320  37.9320370
  67.0133590  25.5928850  39.9397710  66.9441870  24.6518790  39.7786840
  67.7753450  25.6830260  40.5120280  59.2040260  16.1983370  42.2654330
  59.0243100  15.3009120  42.5457090  58.8020340  16.7455240  42.9401280
  68.0438760  18.3999230  40.1666640  68.4203580  17.5271110  40.0540310
  67.9458270  18.7357930  39.2757080  62.1743770  16.7724860  35.6284080
  62.2810520  17.6728590  35.9352840  61.2636130  16.7242830  35.3378730
  71.8262880  15.8949670  37.0994980  72.6472500  15.4046240  37.1420460
  71.8596960  16.4847330  37.8526820  59.8226930  18.6943870  40.8736670
  60.5037040  18.9582240  41.4924070  59.5074980  17.8544740  41.2074680
  64.0151500  19.7411230  39.9609260  64.5229720  20.2392200  40.6014280
  64.5464740  18.9646430  39.7848620  76.1162430  17.9116420  43.6638610
  75.4114600  18.2998130  43.1453720  76.3820350  18.6066710  44.2659540
  62.2987600  14.3809790  44.2272680  62.3006040  14.8982180  43.4218580
  61.4691910  13.9039970  44.2042610  68.6858690  24.4929100  35.7262580
  68.0675960  24.9578550  35.1625300  69.1981940  25.1856580  36.1432090
  63.5490450  24.0204970  42.4046180  63.2159830  24.6473890  43.0467250
  63.7257130  24.5466850  41.6247850  72.0624360  17.8350050  39.8722520
  71.3579930  18.1234940  40.4525630  72.4236520  18.6450160  39.5122080
  61.9802930  16.0919750  42.2343130  62.3219740  16.9361800  41.9397000
  61.0418740  16.2403490  42.3508470  62.7609550  25.9885770  44.2195360
  63.3783550  26.6636850  43.9379810  61.9002670  26.3973750  44.1282860
  58.0541890  25.1785630  33.1002210  57.6769870  25.6672730  32.3687110
  58.3114960  25.8510910  33.7308740  75.1311280  17.2804840  40.2631730
  74.1836190  17.3143820  40.3947160  75.4561270  18.0943790  40.6481090
  65.6630820  13.5802020  38.5587720  65.9705800  13.0248910  37.8423220
  64.7331520  13.7146480  38.3760710  72.5091300  26.0185530  35.9385350
  72.3987630  25.0759860  36.0634770  72.5059550  26.3801170  36.8248110
  70.6131320  24.1999150  42.1777790  71.0300110  23.9859260  41.3431250
  71.3371140  24.4571940  42.7486410  68.0511580  21.6450850  35.2947840
  67.1240860  21.5788230  35.5236310  68.2036400  22.5830980  35.1803080
  68.0380660  17.9167850  32.2915000  67.0984330  18.0781810  32.3767460
  68.3563920  18.6353530  31.7450990  72.0808870  23.2071150  35.7983090
  71.4621290  22.8690700  35.1509390  72.0633320  22.5630910  36.5062280
  71.5235430  19.3855690  43.2148900  71.1106610  20.2109400  43.4688890
  70.7911380  18.8000730  43.0225260  63.6568220  22.1715590  38.0767570
  63.2525220  21.4592840  37.5813470  63.7431340  21.8268830  38.9655610
  64.1249920  25.8583150  40.2406780  63.8278210  25.2528620  39.5614560
  65.0749740  25.8960460  40.1296140  62.3696840  18.9458800  41.8566610
  62.9211430  19.0554140  41.0819860  62.8840350  19.3196400  42.5721840
  63.2168350  25.5964840  46.8914580  62.3196880  25.8204810  47.1387980
  63.2421220  25.7199780  45.9425980  70.2573570  22.4457960  32.8055840
  70.6966850  21.6080390  32.6593660  70.9701990  23.0787360  32.8919980
  62.0439570  22.4678160  45.4671950  61.9047340  23.3400960  45.8359350
  61.1620930  22.1250970  45.3219890  68.3668950  27.3854030  36.7737080
  68.8064860  28.1278360  36.3592470  68.3055840  27.6280600  37.6976040
  63.8419920  28.4099860  47.6757100  63.8135350  28.8142810  46.8085530
  63.6784890  27.4810220  47.5128700  73.8390710  13.7000770  31.1196880
  73.5263370  13.7927600  32.0195950  74.6003180  14.2781800  31.0694310
  60.3572850  21.0660570  35.5774220  60.2370450  21.7922660  34.9655490
  60.0473740  20.2963480  35.1002130  75.7934740  29.1926960  48.9721270
  76.2694460  29.6709850  49.6510350  76.4141900  29.1244450  48.2466770
  57.9958220  24.2375710  41.3842860  58.0738640  24.3724480  40.4398580
  58.6099900  23.5291600  41.5770980  59.2405850  25.9375900  37.7949040
  58.8333930  26.0790490  36.9402640  60.1318860  25.6536060  37.5920250
  69.0584730  30.0867810  44.7016090  69.5729400  29.9975820  45.5038520
  68.2153810  30.4327510  44.9944000  63.5127510  30.1521680  35.9071710
  63.3369990  29.2357220  35.6939510  62.6583250  30.5108970  36.1469510
  70.7365260  27.8810710  32.6898090  70.0430420  27.8788000  32.0300370
  71.4788120  27.4570030  32.2592260  70.3015190  29.5073420  36.7646580
  70.7572140  28.7262800  37.0785200  70.6407710  30.2180240  37.3087760
  75.0492000  18.4372270  47.0971020  74.4336270  18.9451940  46.5686480
  74.7288420  17.5370600  47.0396960  58.0517740  25.2789880  43.9237320
  58.2148780  24.8095240  43.1056690  58.5170190  24.7713440  44.5886160
  62.8236510  14.4095640  38.9597890  62.3804660  15.1905180  38.6282410
  63.3821500  14.7325530  39.6668830  67.1106320  17.2764160  44.5633210
  66.6485690  17.4847180  45.3753150  66.7084430  16.4623510  44.2603880
  72.1110830  18.4973110  45.6929870  71.2604420  18.1978860  46.0138940
  71.9512620  18.7415120  44.7813690  69.2060540  19.9974860  47.7928660
  69.5313950  19.1638610  47.4530890  69.9940870  20.5203380  47.9406990
  65.9395330  14.0306340  33.8403720  65.3149510  14.0266210  34.5657030
  65.8525450  13.1637300  33.4439690  64.8612410  14.9542970  40.8187490
  65.1584740  15.8605800  40.7379510  65.4097970  14.4661750  40.2047060
  62.6150730  19.5329210  36.6879140  62.3891650  19.3166380  37.5925760
  61.8343260  19.9657670  36.3425110  69.8448490  19.5392580  35.2869790
  69.2457380  20.2628380  35.1033410  70.3928100  19.4769360  34.5046240
  65.0549940  20.4314790  47.3539410  64.9593540  19.4909520  47.2039810
  65.8981920  20.6529860  46.9587480  68.4513360  18.1756120  37.3173070
  68.8442930  18.4928320  36.5041760  68.8130210  17.2968000  37.4317590
  60.1860480  16.8428460  45.5073190  59.7923870  17.6903670  45.7145970
  59.4978880  16.2054830  45.6981830  66.7605530  16.9263430  48.5769930
  66.0703850  16.7335630  49.2116020  67.5037830  17.2098070  49.1094230
  57.4877530  14.7656920  39.5403270  57.1990580  15.3359780  40.2528250
  58.2323290  14.2861370  39.9034500  57.6747760  18.7077040  30.7505990
  57.5922430  19.6507800  30.8920980  57.3230820  18.5651950  29.8718340
  69.0368500  20.7661870  41.4123850  68.3049620  21.2748680  41.7613950
  68.6392840  19.9491850  41.1112630  65.4745890  17.4416070  39.8176340
  65.4781950  17.0006020  38.9680880  66.3697010  17.7633400  39.9248160
  61.3248270  17.3242560  38.7770550  60.9848320  17.8017790  39.5337600
  60.5625590  16.8707680  38.4171650  65.5366040  18.4428150  32.8083100
  65.6578860  18.4014630  33.7568920  65.1514550  19.3052300  32.6529830
  69.4994410  16.2195550  40.8246790  69.5167150  16.6704200  41.6688640
  69.2509990  15.3201190  41.0380230  64.5487540  20.7529290  32.2066400
  63.9804440  20.3047540  31.5802310  65.2576540  21.1122070  31.6731550
  72.9265160  13.6327730  46.6633170  73.2510930  12.9017390  47.1891150
  72.9621670  13.3141370  45.7614160  59.6256720  24.6541310  46.0833130
  59.2411510  24.0134980  46.6816090  59.9368910  25.3577430  46.6527860
  65.7753860  21.5017850  41.5641750  66.1423990  21.0276420  42.3103090
  65.5858920  22.3759420  41.9050090  58.6394350  16.2461540  37.6935220
  58.3541270  15.8817210  38.5313840  58.5773210  15.5142000  37.0798360
  63.5653230  20.5426490  43.8825960  63.2610300  21.4218470  44.1076320
  64.5199690  20.6026280  43.9183400  62.0935020  24.7487480  34.4792810
  61.3197280  24.2085100  34.3191530  62.8229650  24.2294090  34.1410570
  72.8523000  23.7452840  40.2719200  73.5722120  24.2408130  39.8815310
  72.6504820  23.0670730  39.6273070  68.3132940  15.1390800  34.4148590
  67.4997550  14.6403970  34.3393900  68.1194890  15.9789050  33.9984940
  68.2341800  23.8161900  46.1588200  68.1679110  22.8957570  45.9045790
  67.6046940  23.9137340  46.8732840  71.0281330  19.5110450  32.7110750
  71.9160950  19.8227680  32.5362090  70.9986420  18.6382700  32.3191330
  62.1372420  24.4167860  38.1171620  62.6551090  23.6136120  38.0628510
  61.6856440  24.3547000  38.9588450  67.0241920  25.6834140  33.3898920
  67.3657620  26.4276370  32.8942240  66.1954630  25.9965260  33.7523750
  59.6216960  21.3829230  45.0297320  59.2631900  22.0483080  45.6170660
  59.3271520  20.5512780  45.4009940  62.8230080  21.8413470  47.9136870
  62.5230220  21.9870650  47.0164690  63.5941320  21.2818760  47.8210260
  68.1658530  26.6382470  45.9092000  68.1803070  25.7063430  45.6910910
  67.4583630  26.7242230  46.5481770  73.2995600  20.8222290  32.1790610
  73.2159320  21.2536510  31.3287050  74.0189790  21.2820640  32.6117430
  74.3282850  27.6764550  34.9072740  73.6859010  27.0220170  35.1816460
  73.9413510  28.0819640  34.1313410  69.9069330  25.0049980  38.7544430
  70.2593150  24.4078110  38.0945800  69.0231660  24.6794210  38.9252680
  65.9932610  25.7647670  36.1614840  66.6803740  26.3116880  36.5422430
  65.2065030  26.3088400  36.1964450  58.1325010  21.3820490  31.6531920
  59.0019860  21.6645290  31.9367840  57.6415330  22.1956360  31.5380730
  65.2959820  22.7693700  35.7740200  65.7522600  23.5798950  36.0000390
  64.9448030  22.4516840  36.6058690  67.5992430  28.2800040  43.0032500
  68.2434650  28.4859420  43.6805920  67.9621870  27.5188440  42.5503350
  61.1971600  13.1131350  36.2462720  61.0686230  13.1049250  37.1947640
  60.3733620  13.4514440  35.8953730  68.8724510  26.2832390  41.7209950
  69.5146740  25.5825550  41.8342120  69.3973860  27.0630830  41.5406840
  72.7180230  26.5681010  31.4449090  72.4917810  25.8511450  32.0373730
  72.3276430  26.3193450  30.6070840  70.6462130  27.0827290  44.9246010
  70.9818370  27.6693980  45.6023930  69.7262470  26.9520000  45.1543800
  58.4996260  30.5947870  32.2193550  58.8593900  31.1937210  31.5650820
  58.3588600  31.1407760  32.9928580  58.1965530  14.8722470  45.7069420
  57.4824050  15.0719390  46.3122030  58.6160570  14.0962040  46.0784220
  72.2996480  24.4852950  33.1063250  72.0118180  24.9465640  33.8941130
  73.0948650  24.0250720  33.3747470  58.4838120  28.8602730  46.6935950
  58.5929240  27.9197470  46.5531340  57.8318680  29.1257480  46.0449680
  66.4750710  27.1318620  48.0934070  66.1547580  26.4127860  48.6379760
  65.8009070  27.8073690  48.1670130  64.5164880  27.9779070  33.0367220
  64.5074980  28.7108760  32.4211730  63.5963240  27.7310650  33.1294180
  60.1171520  23.1993960  33.7813980  59.5099470  23.9392860  33.7909280
  60.5920870  23.2893320  32.9552180  69.6904310  17.3644780  43.4570870
  70.0585130  16.5439990  43.7850440  68.8302510  17.4246670  43.8726520
  73.0566340  16.3201720  34.2658430  72.4279500  16.4247390  33.5516660
  72.5618260  16.5398500  35.0552310  67.5024480  28.0407310  31.6992410
  67.6036460  27.8371300  30.7694390  66.6026220  27.7865590  31.9040190
  65.0250370  18.5987670  35.6816310  64.3166520  19.0674010  36.1229920
  65.3094850  17.9409680  36.3161500  66.6506300  20.0184370  43.6808840
  67.1491550  20.4930190  44.3460690  66.7929250  19.0947890  43.8878870
  69.0565800  15.3238330  37.1212100  68.9333580  15.3424460  36.1721610
  70.0050360  15.3717270  37.2410500  66.1442590  30.5593630  36.3940080
  66.3984090  30.5215020  35.4719450  65.1955070  30.4326960  36.3868330
  63.2285390  16.9072750  33.0567020  64.0775920  17.3442900  32.9907210
  62.8616660  17.2193010  33.8839080  73.8573160  16.2352330  44.5237230
  73.3546760  16.9757730  44.8631040  74.6729820  16.6236330  44.2074020
  72.1495170  21.4785510  37.9698590  71.2085310  21.4935740  38.1446280
  72.4639240  20.6921470  38.4158890  62.1276810  23.1605110  31.5302550
  62.8940080  23.0486470  32.0927980  62.2051500  22.4643080  30.8779320
  60.8223570  20.5930180  32.2135440  60.9027160  19.6457690  32.3252840
  61.7143320  20.9237060  32.3196100  61.6238280  30.7425570  39.3169980
  62.3600760  30.1941030  39.5878550  62.0079200  31.6081580  39.1775970
  58.5083760  26.8099140  35.1911490  57.5823540  27.0520280  35.1816900
  58.9740190  27.6373400  35.0696240  60.6296560  29.9271640  48.5055560
  61.4309290  30.2483690  48.9190960  60.1148380  29.5667220  49.2275470
  64.7340590  29.9155880  31.1395550  65.5269200  30.2044710  30.6877340
  64.2144940  29.4848050  30.4608030  69.4661190  26.0351510  48.4530970
  68.8599350  26.0583110  47.7126720  69.1615300  25.3034550  48.9898220
  70.8961560  29.7631800  47.0640380  71.8483310  29.6789820  47.0140620
  70.7489780  30.4273510  47.7374170  73.7870760  29.1426010  32.5632290
  73.5012270  28.7291150  31.7486470  73.5890310  30.0713720  32.4432810
  58.3494370  22.4145100  47.4491610  58.8533390  21.8352380  48.0207840
  57.6101790  22.6985330  47.9867980  65.2517990  25.1359290  31.0037900
  65.1468630  24.5211640  31.7299280  65.0842210  24.6125180  30.2200910
  65.4032310  23.8216090  46.9827130  64.6377980  24.3901090  46.8981800
  65.5848270  23.5292300  46.0895360  68.4920720  24.1979320  31.6079890
  67.9430820  24.6448620  32.2522630  69.1139980  23.6928570  32.1317560
  72.5455660  25.5521420  47.5402150  73.2865130  25.8897180  47.0369610
  71.7828340  25.7213480  46.9871920  60.3817450  20.5574690  48.3441680
  60.4222790  20.2588560  49.2526910  61.2362950  20.9582300  48.1849200
  64.1595840  23.1570240  33.5045190  64.5812260  22.9910110  34.3476580
  64.2846680  22.3470470  33.0100330  62.3223260  19.1366790  46.3116170
  61.7919720  18.6457740  45.6839510  62.9911330  19.5650990  45.7774100
  66.6723480  22.1807850  30.7522290  67.1929140  21.4656870  30.3863440
  67.3191880  22.8193720  31.0522800  71.2201320  23.6036250  46.0757360
  71.6342340  23.7581330  46.9247780  70.2852320  23.7291470  46.2383140
  71.6923490  20.9432410  48.0796510  72.2744260  20.1884730  47.9916990
  71.8685260  21.4739850  47.3027990  62.8095560  16.1029160  46.3913460
  62.7152430  15.4849910  45.6664330  62.2292950  16.8295450  46.1643370
  65.5757000  14.6602400  43.4240850  65.1274300  14.6826660  42.5786400
  64.9422200  14.2621420  44.0211150  65.9816550  23.5556730  44.0453290
  66.4004660  24.3989460  43.8729530  65.0625180  23.6928770  43.8160070
  68.3180450  21.2872910  45.4291130  68.4376660  20.6914050  46.1685970
  69.1774450  21.3242600  45.0092430  70.6568350  21.8410100  44.0053640
  70.1303570  22.3652720  43.4018780  70.9999690  22.4737490  44.6363370
  63.0554740  19.2303470  30.4503350  62.8543800  18.3670830  30.8116690
  62.8846790  19.1436830  29.5124950  63.8323970  29.8609740  45.1611020
  63.2945060  30.5855800  44.8419720  64.0857930  29.3840080  44.3708360
  65.0849220  17.8294260  46.6866950  65.6748910  17.5210110  47.3744770
  64.2669460  17.3574010  46.8426850  69.9042650  17.4460070  46.9199970
  69.2158170  16.7841610  46.8549960  70.6248670  16.9998340  47.3648430
  70.5343050  14.0411700  32.9790230  70.8145340  13.1979600  33.3349650
  69.7608780  14.2734810  33.4928980  61.8537540  16.3304090  30.4381230
  62.1563440  16.3371520  29.5300380  62.5932130  15.9801950  30.9348890
  66.6886180  31.0960950  45.4197670  66.6144880  31.9996090  45.7270040
  65.7865020  30.7772850  45.3919740  65.0722470  15.2738710  31.4237430
  64.7244470  14.5962700  30.8439880  65.2735240  14.8128220  32.2380820
  67.2371510  30.2619460  33.0424030  68.1322300  30.6004430  33.0642790
  67.2689140  29.5398870  32.4148310  60.8767670  25.6346510  31.2711030
  61.3142540  26.1776180  31.9268610  61.3615400  24.8093460  31.2807370
  58.0913470  28.4235540  38.7231290  58.4216480  27.5556600  38.4909930
  58.5204470  28.6294060  39.5536250  62.6875390  26.7544550  36.3833260
  62.3870930  26.6309520  37.2837170  62.5812880  25.8953140  35.9748990
  58.5803680  29.2906130  41.4612920  58.1434670  29.4706930  42.2937070
  59.1481360  30.0480750  41.3194640  75.4567310  26.5340950  31.0859940
  74.6260270  26.6017600  31.5567170  75.6339140  27.4245070  30.7826800
  74.9123770  23.2788430  33.5894140  75.6742680  23.8485080  33.6953830
  74.9278140  22.7115630  34.3602450  58.4128110  21.8026360  37.8201800
  57.7576950  21.5338000  37.1761500  59.2506060  21.6930840  37.3703780
  75.9183740  24.1338530  38.4336070  76.2892570  23.3505850  38.0272040
  76.5585670  24.8227630  38.2553370  74.9642940  23.5722800  30.7466660
  75.2391780  24.4801680  30.6185880  74.7753680  23.5085330  31.6828650
  71.3618550  16.5967650  32.0420290  71.7803430  16.4098630  31.2016950
  71.0554610  15.7446700  32.3523220  74.8608280  21.5091790  35.7396090
  74.4851880  20.7419720  35.3077380  74.1311400  21.8914490  36.2271020
  59.4504040  22.1878930  42.3605140  59.8177080  22.1006330  43.2401160
  58.8814860  21.4245480  42.2612000  74.2507900  20.6563310  45.3735610
  74.0193990  20.4276060  44.4733560  74.5112450  21.5762860  45.3280500
  59.0020040  19.0988020  46.2663560  58.1076090  19.0654780  46.6057270
  59.5417590  19.2974810  47.0314810  72.6895970  15.8819740  48.1515310
  73.5666150  15.8903140  48.5349310  72.7016810  15.1450580  47.5407660
  57.6266190  19.0125290  33.7627130  56.7230270  19.2755490  33.5878790
  58.1106810  19.2836460  32.9827090  74.1359240  19.7349280  39.0403330
  74.6596720  19.2411930  38.4093500  74.7218660  19.8699640  39.7850900
  74.3148960  19.8189150  42.5622880  73.3651670  19.7852690  42.6767870
  74.4961970  20.7289260  42.3272650  60.1693400  18.0690830  31.6721510
  60.8785100  17.6474050  31.1868790  59.4533340  18.1366060  31.0404860
  59.8167560  14.1230160  30.7124160  60.5395690  14.6639100  31.0305380
  60.0892080  13.8493580  29.8365700  73.6259210  18.9922630  34.9795740
  74.1218330  18.7593500  35.7644620  73.4275280  18.1534470  34.5633380
  59.5059750  13.3736350  40.6146780  60.1535940  12.8233730  40.1741940
  59.9261590  13.6279500  41.4362590  75.0546370  17.6283580  37.5133420
  74.9445650  17.4739620  38.4515690  75.8153960  17.1004520  37.2708830
  73.4012090  13.5677710  43.9716420  74.0384310  14.1811850  44.3375610
  73.5486980  13.6038370  43.0265650  75.9436640  15.4591500  30.7539560
  76.8685950  15.3272680  30.5457850  75.9212430  15.5384320  31.7076010
  76.0175130  16.2302160  33.3796270  75.2226630  16.1647280  33.9089180
  76.2218410  17.1652800  33.3681620  59.2591750  13.5292020  43.3572100
  58.9106570  13.9855840  44.1230280  58.9279450  12.6349150  43.4394530
  60.8656120  26.7011620  47.5225290  60.8225750  26.3304530  48.4039750
  60.9967130  27.6389190  47.6627110  64.5662150  28.2571210  43.1235010
  64.3253510  28.5245770  42.2365530  65.5064790  28.4276940  43.1785870
  66.7716570  14.7203900  46.8791520  66.7105460  15.3125730  47.6286930
  67.7116950  14.6129860  46.7341780  69.4091130  14.3773960  46.5183810
  70.0231540  14.6953250  45.8564890  69.9540690  13.8922550  47.1379670
  59.9312390  13.0568220  46.6322870  60.4795380  12.8756270  45.8688980
  59.9967700  12.2662330  47.1679180  60.7044150  29.6473870  44.6423070
  60.1104470  29.5158570  45.3813110  60.6967990  28.8112010  44.1765170
  70.1499170  12.9406100  42.8453100  69.2759010  13.2741210  42.6426030
  70.0409920  12.4679280  43.6704970  71.0571150  15.1476970  44.2294820
  70.7284510  14.3328730  43.8496550  72.0053450  15.1046780  44.1060510
  60.3356380  27.0132250  43.5931110  59.6090440  26.3937540  43.5257060
  60.3965530  27.4072860  42.7229190  63.9401480  29.2277250  40.3780520
  64.4566500  28.6164610  39.8528780  64.5898860  29.7306030  40.8691530
  66.6796980  30.1185740  41.2049500  66.9674790  29.8640040  40.3282510
  67.1920200  29.5663100  41.7955070  67.8973990  13.8575940  41.7846010
  67.1145780  14.3321440  42.0642770  67.6036920  12.9530770  41.6759190
  72.4495060  14.5599040  39.8295100  72.8903150  14.5044140  38.9816700
  72.1802650  15.4757050  39.9005280  74.3133630  14.1914280  37.8403920
  74.2522030  13.2475500  37.6934940  75.0925660  14.2994370  38.3857380
  58.6186380  30.3306640  36.8027870  58.4508420  29.6977320  37.5009760
  57.7520890  30.5366040  36.4522060  59.2414400  14.1623420  34.3059730
  59.9993760  14.2752300  33.7323760  58.7791570  14.9992620  34.2603160
  65.7828210  16.2762690  37.2962040  64.9702720  15.9019580  36.9557920
  66.2869850  15.5207770  37.5983230  70.2853190  12.9405140  38.5345110
  70.8882560  13.5125350  39.0093630  69.5446180  13.5044580  38.3119010
  73.4287790  13.3426700  33.8085390  73.6238420  14.2410150  34.0752820
  72.6417660  13.1113780  34.3018340  60.2249080  29.0239870  34.2478010
  59.6996700  29.4047900  33.5439970  60.1493660  29.6490640  34.9687720
  61.6139550  14.6887470  32.8461700  62.1432310  13.9017270  32.7169650
  62.2467870  15.3678660  33.0797230  63.8077390  14.4262610  35.9007090
  63.1780130  13.7249920  36.0677220  63.2682530  15.1866740  35.6840250
  66.7469340  31.0401840  48.5717700  67.6736650  30.8046110  48.6153660
  66.7319770  31.8673840  48.0903730  74.9814400  30.5827410  35.5691950
  75.1566590  29.8965150  34.9252870  74.2835970  31.1074460  35.1768620
  63.9332950  13.7046590  48.3359580  63.6517220  14.2080190  47.5720400
  64.3152650  12.9068340  47.9701710  62.8242050  30.9722250  33.1227260
  63.5560870  30.6881530  32.5751150  63.0835720  30.7335530  34.0126640
  61.9856840  27.0886980  33.1273590  61.3565720  27.5572080  33.6759420
  62.1004670  26.2436200  33.5619780  70.5348410  13.1200170  48.9140050
  70.4213860  13.4394780  49.8091570  71.3518150  13.5212680  48.6177330
  73.3146900  30.2671700  48.3958740  74.1072220  29.7720930  48.1884700
  73.6080050  30.9461840  49.0034350  69.4406560  21.1392640  19.2774790
  69.3600610  20.2247250  19.0066500  69.0270980  21.6359710  18.5714500
  67.5724600  22.9171660  21.1584060  66.7966700  22.4372100  21.4482630
  68.2237530  22.2377310  20.9840220  61.5890430  23.2291470  22.0359820
  60.7575310  22.9740180  22.4356330  62.1971410  23.3002240  22.7717740
  71.5932030  27.3231850  19.9383190  71.1313560  26.5519090  20.2670360
  72.4057580  27.3497920  20.4435640  61.5691690  27.2631560  22.2317840
  61.8719730  26.3729300  22.0528060  62.3135280  27.8201780  22.0040090
  59.9982380  18.1893360  15.8202210  59.1099080  18.5309330  15.7182090
  60.2823570  17.9893680  14.9283040  57.9615390  20.7899010  21.7041910
  58.5331500  20.0221210  21.7045550  57.9616930  21.0887770  20.7948520
  67.8195340  29.6089860  19.5587180  67.2006780  30.0647360  18.9881620
  68.6747120  29.7641320  19.1576880  67.0133590  25.5928850  21.1654220
  66.9441870  24.6518790  21.0043350  67.7753450  25.6830260  21.7376790
  59.2040260  16.1983370  23.4910840  59.0243100  15.3009120  23.7713600
  58.8020340  16.7455240  24.1657790  68.0438760  18.3999230  21.3923150
  68.4203580  17.5271110  21.2796820  67.9458270  18.7357930  20.5013590
  62.1743770  16.7724860  16.8540590  62.2810520  17.6728590  17.1609350
  61.2636130  16.7242830  16.5635240  71.8262880  15.8949670  18.3251490
  72.6472500  15.4046240  18.3676970  71.8596960  16.4847330  19.0783330
  59.8226930  18.6943870  22.0993180  60.5037040  18.9582240  22.7180580
  59.5074980  17.8544740  22.4331190  64.0151500  19.7411230  21.1865770
  64.5229720  20.2392200  21.8270790  64.5464740  18.9646430  21.0105130
  76.1162430  17.9116420  24.8895120  75.4114600  18.2998130  24.3710230
  76.3820350  18.6066710  25.4916050  62.2987600  14.3809790  25.4529190
  62.3006040  14.8982180  24.6475090  61.4691910  13.9039970  25.4299120
  68.6858690  24.4929100  16.9519090  68.0675960  24.9578550  16.3881810
  69.1981940  25.1856580  17.3688600  63.5490450  24.0204970  23.6302690
  63.2159830  24.6473890  24.2723760  63.7257130  24.5466850  22.8504360
  72.0624360  17.8350050  21.0979030  71.3579930  18.1234940  21.6782140
  72.4236520  18.6450160  20.7378590  61.9802930  16.0919750  23.4599640
  62.3219740  16.9361800  23.1653510  61.0418740  16.2403490  23.5764980
  62.7609550  25.9885770  25.4451870  63.3783550  26.6636850  25.1636320
  61.9002670  26.3973750  25.3539370  58.0541890  25.1785630  14.3258720
  57.6769870  25.6672730  13.5943620  58.3114960  25.8510910  14.9565250
  73.6787140  27.4525180  23.3606510  72.9950660  28.1224290  23.3523180
  74.2181430  27.6505830  22.5951370  75.1311280  17.2804840  21.4888240
  74.1836190  17.3143820  21.6203670  75.4561270  18.0943790  21.8737600
  65.6630820  13.5802020  19.7844230  65.9705800  13.0248910  19.0679730
  64.7331520  13.7146480  19.6017220  71.2145880  29.2969310  22.0751690
  71.2273040  28.8931600  21.2073950  70.6621100  30.0716600  21.9713120
  72.5091300  26.0185530  17.1641860  72.3987630  25.0759860  17.2891280
  72.5059550  26.3801170  18.0504620  70.6131320  24.1999150  23.4034300
  71.0300110  23.9859260  22.5687760  71.3371140  24.4571940  23.9742920
  68.0511580  21.6450850  16.5204350  67.1240860  21.5788230  16.7492820
  68.2036400  22.5830980  16.4059590  68.0380660  17.9167850  13.5171510
  67.0984330  18.0781810  13.6023970  68.3563920  18.6353530  12.9707500
  74.5593420  22.5986370  23.4950540  73.7312050  22.6679460  23.0200670
  75.1543900  23.1840680  23.0266370  72.0808870  23.2071150  17.0239600
  71.4621290  22.8690700  16.3765900  72.0633320  22.5630910  17.7318790
  71.5235430  19.3855690  24.4405410  71.1106610  20.2109400  24.6945400
  70.7911380  18.8000730  24.2481770  63.6568220  22.1715590  19.3024080
  63.2525220  21.4592840  18.8069980  63.7431340  21.8268830  20.1912120
  64.1249920  25.8583150  21.4663290  63.8278210  25.2528620  20.7871070
  65.0749740  25.8960460  21.3552650  62.3696840  18.9458800  23.0823120
  62.9211430  19.0554140  22.3076370  62.8840350  19.3196400  23.7978350
  72.2135530  29.4315020  25.1286390  71.7366090  30.2387210  24.9359000
  71.5297320  28.7793350  25.2812600  63.2168350  25.5964840  28.1171090
  62.3196880  25.8204810  28.3644490  63.2421220  25.7199780  27.1682490
  70.2573570  22.4457960  14.0312350  70.6966850  21.6080390  13.8850170
  70.9701990  23.0787360  14.1176490  62.0439570  22.4678160  26.6928460
  61.9047340  23.3400960  27.0615860  61.1620930  22.1250970  26.5476400
  68.3668950  27.3854030  17.9993590  68.8064860  28.1278360  17.5848980
  68.3055840  27.6280600  18.9232550  63.8419920  28.4099860  28.9013610
  63.8135350  28.8142810  28.0342040  63.6784890  27.4810220  28.7385210
  73.8390710  13.7000770  12.3453390  73.5263370  13.7927600  13.2452460
  74.6003180  14.2781800  12.2950820  60.3572850  21.0660570  16.8030730
  60.2370450  21.7922660  16.1912000  60.0473740  20.2963480  16.3258640
  75.7934740  29.1926960  30.1977780  76.2694460  29.6709850  30.8766860
  76.4141900  29.1244450  29.4723280  57.9958220  24.2375710  22.6099370
  58.0738640  24.3724480  21.6655090  58.6099900  23.5291600  22.8027490
  59.2405850  25.9375900  19.0205550  58.8333930  26.0790490  18.1659150
  60.1318860  25.6536060  18.8176760  75.1967990  26.3839810  27.3577790
  75.3231050  26.1451690  26.4394970  75.2389370  25.5524350  27.8299870
  69.0584730  30.0867810  25.9272600  69.5729400  29.9975820  26.7295030
  68.2153810  30.4327510  26.2200510  71.0339130  30.3723150  15.3556600
  70.8740270  30.0826090  16.2538430  70.8685840  29.5963280  14.8201830
  63.5127510  30.1521680  17.1328220  63.3369990  29.2357220  16.9196020
  62.6583250  30.5108970  17.3726020  70.7365260  27.8810710  13.9154600
  70.0430420  27.8788000  13.2556880  71.4788120  27.4570030  13.4848770
  70.3015190  29.5073420  17.9903090  70.7572140  28.7262800  18.3041710
  70.6407710  30.2180240  18.5344270  75.0492000  18.4372270  28.3227530
  74.4336270  18.9451940  27.7942990  74.7288420  17.5370600  28.2653470
  58.0517740  25.2789880  25.1493830  58.2148780  24.8095240  24.3313200
  58.5170190  24.7713440  25.8142670  62.8236510  14.4095640  20.1854400
  62.3804660  15.1905180  19.8538920  63.3821500  14.7325530  20.8925340
  67.1106320  17.2764160  25.7889720  66.6485690  17.4847180  26.6009660
  66.7084430  16.4623510  25.4860390  72.1110830  18.4973110  26.9186380
  71.2604420  18.1978860  27.2395450  71.9512620  18.7415120  26.0070200
  69.2060540  19.9974860  29.0185170  69.5313950  19.1638610  28.6787400
  69.9940870  20.5203380  29.1663500  65.9395330  14.0306340  15.0660230
  65.3149510  14.0266210  15.7913540  65.8525450  13.1637300  14.6696200
  64.8612410  14.9542970  22.0444000  65.1584740  15.8605800  21.9636020
  65.4097970  14.4661750  21.4303570  62.6150730  19.5329210  17.9135650
  62.3891650  19.3166380  18.8182270  61.8343260  19.9657670  17.5681620
  69.8448490  19.5392580  16.5126300  69.2457380  20.2628380  16.3289920
  70.3928100  19.4769360  15.7302750  65.0549940  20.4314790  28.5795920
  64.9593540  19.4909520  28.4296320  65.8981920  20.6529860  28.1843990
  68.4513360  18.1756120  18.5429580  68.8442930  18.4928320  17.7298270
  68.8130210  17.2968000  18.6574100  60.1860480  16.8428460  26.7329700
  59.7923870  17.6903670  26.9402480  59.4978880  16.2054830  26.9238340
  66.7605530  16.9263430  29.8026440  66.0703850  16.7335630  30.4372530
  67.5037830  17.2098070  30.3350740  57.4877530  14.7656920  20.7659780
  57.1990580  15.3359780  21.4784760  58.2323290  14.2861370  21.1291010
  57.6747760  18.7077040  11.9762500  57.5922430  19.6507800  12.1177490
  57.3230820  18.5651950  11.0974850  69.0368500  20.7661870  22.6380360
  68.3049620  21.2748680  22.9870460  68.6392840  19.9491850  22.3369140
  65.4745890  17.4416070  21.0432850  65.4781950  17.0006020  20.1937390
  66.3697010  17.7633400  21.1504670  61.3248270  17.3242560  20.0027060
  60.9848320  17.8017790  20.7594110  60.5625590  16.8707680  19.6428160
  65.5366040  18.4428150  14.0339610  65.6578860  18.4014630  14.9825430
  65.1514550  19.3052300  13.8786340  69.4994410  16.2195550  22.0503300
  69.5167150  16.6704200  22.8945150  69.2509990  15.3201190  22.2636740
  64.5487540  20.7529290  13.4322910  63.9804440  20.3047540  12.8058820
  65.2576540  21.1122070  12.8988060  72.9265160  13.6327730  27.8889680
  73.2510930  12.9017390  28.4147660  72.9621670  13.3141370  26.9870670
  59.6256720  24.6541310  27.3089640  59.2411510  24.0134980  27.9072600
  59.9368910  25.3577430  27.8784370  65.7753860  21.5017850  22.7898260
  66.1423990  21.0276420  23.5359600  65.5858920  22.3759420  23.1306600
  58.6394350  16.2461540  18.9191730  58.3541270  15.8817210  19.7570350
  58.5773210  15.5142000  18.3054870  63.5653230  20.5426490  25.1082470
  63.2610300  21.4218470  25.3332830  64.5199690  20.6026280  25.1439910
  62.0935020  24.7487480  15.7049320  61.3197280  24.2085100  15.5448040
  62.8229650  24.2294090  15.3667080  72.8523000  23.7452840  21.4975710
  73.5722120  24.2408130  21.1071820  72.6504820  23.0670730  20.8529580
  68.3132940  15.1390800  15.6405100  67.4997550  14.6403970  15.5650410
  68.1194890  15.9789050  15.2241450  68.2341800  23.8161900  27.3844710
  68.1679110  22.8957570  27.1302300  67.6046940  23.9137340  28.0989350
  71.0281330  19.5110450  13.9367260  71.9160950  19.8227680  13.7618600
  70.9986420  18.6382700  13.5447840  62.1372420  24.4167860  19.3428130
  62.6551090  23.6136120  19.2885020  61.6856440  24.3547000  20.1844960
  67.0241920  25.6834140  14.6155430  67.3657620  26.4276370  14.1198750
  66.1954630  25.9965260  14.9780260  59.6216960  21.3829230  26.2553830
  59.2631900  22.0483080  26.8427170  59.3271520  20.5512780  26.6266450
  62.8230080  21.8413470  29.1393380  62.5230220  21.9870650  28.2421200
  63.5941320  21.2818760  29.0466770  68.1658530  26.6382470  27.1348510
  68.1803070  25.7063430  26.9167420  67.4583630  26.7242230  27.7738280
  73.2995600  20.8222290  13.4047120  73.2159320  21.2536510  12.5543560
  74.0189790  21.2820640  13.8373940  74.3769740  23.2789810  26.4817090
  73.6517930  23.8718590  26.2846480  74.9045200  23.2713350  25.6830460
  74.3282850  27.6764550  16.1329250  73.6859010  27.0220170  16.4072970
  73.9413510  28.0819640  15.3569920  69.9069330  25.0049980  19.9800940
  70.2593150  24.4078110  19.3202310  69.0231660  24.6794210  20.1509190
  65.9932610  25.7647670  17.3871350  66.6803740  26.3116880  17.7678940
  65.2065030  26.3088400  17.4220960  58.1325010  21.3820490  12.8788430
  59.0019860  21.6645290  13.1624350  57.6415330  22.1956360  12.7637240
  65.2959820  22.7693700  16.9996710  65.7522600  23.5798950  17.2256900
  64.9448030  22.4516840  17.8315200  67.5992430  28.2800040  24.2289010
  68.2434650  28.4859420  24.9062430  67.9621870  27.5188440  23.7759860
  61.1971600  13.1131350  17.4719230  61.0686230  13.1049250  18.4204150
  60.3733620  13.4514440  17.1210240  68.8724510  26.2832390  22.9466460
  69.5146740  25.5825550  23.0598630  69.3973860  27.0630830  22.7663350
  72.7180230  26.5681010  12.6705600  72.4917810  25.8511450  13.2630240
  72.3276430  26.3193450  11.8327350  70.6462130  27.0827290  26.1502520
  70.9818370  27.6693980  26.8280440  69.7262470  26.9520000  26.3800310
  58.4996260  30.5947870  13.4450060  58.8593900  31.1937210  12.7907330
  58.3588600  31.1407760  14.2185090  58.1965530  14.8722470  26.9325930
  57.4824050  15.0719390  27.5378540  58.6160570  14.0962040  27.3040730
  72.2996480  24.4852950  14.3319760  72.0118180  24.9465640  15.1197640
  73.0948650  24.0250720  14.6003980  58.4838120  28.8602730  27.9192460
  58.5929240  27.9197470  27.7787850  57.8318680  29.1257480  27.2706190
  66.4750710  27.1318620  29.3190580  66.1547580  26.4127860  29.8636270
  65.8009070  27.8073690  29.3926640  64.5164880  27.9779070  14.2623730
  64.5074980  28.7108760  13.6468240  63.5963240  27.7310650  14.3550690
  60.1171520  23.1993960  15.0070490  59.5099470  23.9392860  15.0165790
  60.5920870  23.2893320  14.1808690  69.6904310  17.3644780  24.6827380
  70.0585130  16.5439990  25.0106950  68.8302510  17.4246670  25.0983030
  73.0566340  16.3201720  15.4914940  72.4279500  16.4247390  14.7773170
  72.5618260  16.5398500  16.2808820  67.5024480  28.0407310  12.9248920
  67.6036460  27.8371300  11.9950900  66.6026220  27.7865590  13.1296700
  65.0250370  18.5987670  16.9072820  64.3166520  19.0674010  17.3486430
  65.3094850  17.9409680  17.5418010  66.6506300  20.0184370  24.9065350
  67.1491550  20.4930190  25.5717200  66.7929250  19.0947890  25.1135380
  69.0565800  15.3238330  18.3468610  68.9333580  15.3424460  17.3978120
  70.0050360  15.3717270  18.4667010  66.1442590  30.5593630  17.6196590
  66.3984090  30.5215020  16.6975960  65.1955070  30.4326960  17.6124840
  63.2285390  16.9072750  14.2823530  64.0775920  17.3442900  14.2163720
  62.8616660  17.2193010  15.1095590  73.8573160  16.2352330  25.7493740
  73.3546760  16.9757730  26.0887550  74.6729820  16.6236330  25.4330530
  72.1495170  21.4785510  19.1955100  71.2085310  21.4935740  19.3702790
  72.4639240  20.6921470  19.6415400  62.1276810  23.1605110  12.7559060
  62.8940080  23.0486470  13.3184490  62.2051500  22.4643080  12.1035830
  60.8223570  20.5930180  13.4391950  60.9027160  19.6457690  13.5509350
  61.7143320  20.9237060  13.5452610  74.1520750  28.6494360  20.8709360
  74.2768170  29.4725530  21.3433170  75.0186310  28.4385090  20.5233510
  61.6238280  30.7425570  20.5426490  62.3600760  30.1941030  20.8135060
  62.0079200  31.6081580  20.4032480  58.5083760  26.8099140  16.4168000
  57.5823540  27.0520280  16.4073410  58.9740190  27.6373400  16.2952750
  60.6296560  29.9271640  29.7312070  61.4309290  30.2483690  30.1447470
  60.1148380  29.5667220  30.4531980  64.7340590  29.9155880  12.3652060
  65.5269200  30.2044710  11.9133850  64.2144940  29.4848050  11.6864540
  69.4661190  26.0351510  29.6787480  68.8599350  26.0583110  28.9383230
  69.1615300  25.3034550  30.2154730  70.8961560  29.7631800  28.2896890
  71.8483310  29.6789820  28.2397130  70.7489780  30.4273510  28.9630680
  73.7870760  29.1426010  13.7888800  73.5012270  28.7291150  12.9742980
  73.5890310  30.0713720  13.6689320  58.3494370  22.4145100  28.6748120
  58.8533390  21.8352380  29.2464350  57.6101790  22.6985330  29.2124490
  65.2517990  25.1359290  12.2294410  65.1468630  24.5211640  12.9555790
  65.0842210  24.6125180  11.4457420  65.4032310  23.8216090  28.2083640
  64.6377980  24.3901090  28.1238310  65.5848270  23.5292300  27.3151870
  68.4920720  24.1979320  12.8336400  67.9430820  24.6448620  13.4779140
  69.1139980  23.6928570  13.3574070  72.5455660  25.5521420  28.7658660
  73.2865130  25.8897180  28.2626120  71.7828340  25.7213480  28.2128430
  60.3817450  20.5574690  29.5698190  60.4222790  20.2588560  30.4783420
  61.2362950  20.9582300  29.4105710  64.1595840  23.1570240  14.7301700
  64.5812260  22.9910110  15.5733090  64.2846680  22.3470470  14.2356840
  62.3223260  19.1366790  27.5372680  61.7919720  18.6457740  26.9096020
  62.9911330  19.5650990  27.0030610  66.6723480  22.1807850  11.9778800
  67.1929140  21.4656870  11.6119950  67.3191880  22.8193720  12.2779310
  71.2201320  23.6036250  27.3013870  71.6342340  23.7581330  28.1504290
  70.2852320  23.7291470  27.4639650  71.6923490  20.9432410  29.3053020
  72.2744260  20.1884730  29.2173500  71.8685260  21.4739850  28.5284500
  62.8095560  16.1029160  27.6169970  62.7152430  15.4849910  26.8920840
  62.2292950  16.8295450  27.3899880  65.5757000  14.6602400  24.6497360
  65.1274300  14.6826660  23.8042910  64.9422200  14.2621420  25.2467660
  65.9816550  23.5556730  25.2709800  66.4004660  24.3989460  25.0986040
  65.0625180  23.6928770  25.0416580  68.3180450  21.2872910  26.6547640
  68.4376660  20.6914050  27.3942480  69.1774450  21.3242600  26.2348940
  70.6568350  21.8410100  25.2310150  70.1303570  22.3652720  24.6275290
  70.9999690  22.4737490  25.8619880  63.0554740  19.2303470  11.6759860
  62.8543800  18.3670830  12.0373200  62.8846790  19.1436830  10.7381460
  63.8323970  29.8609740  26.3867530  63.2945060  30.5855800  26.0676230
  64.0857930  29.3840080  25.5964870  65.0849220  17.8294260  27.9123460
  65.6748910  17.5210110  28.6001280  64.2669460  17.3574010  28.0683360
  69.9042650  17.4460070  28.1456480  69.2158170  16.7841610  28.0806470
  70.6248670  16.9998340  28.5904940  70.5343050  14.0411700  14.2046740
  70.8145340  13.1979600  14.5606160  69.7608780  14.2734810  14.7185490
  61.8537540  16.3304090  11.6637740  62.1563440  16.3371520  10.7556890
  62.5932130  15.9801950  12.1605400  66.6886180  31.0960950  26.6454180
  66.6144880  31.9996090  26.9526550  65.7865020  30.7772850  26.6176250
  65.0722470  15.2738710  12.6493940  64.7244470  14.5962700  12.0696390
  65.2735240  14.8128220  13.4637330  67.2371510  30.2619460  14.2680540
  68.1322300  30.6004430  14.2899300  67.2689140  29.5398870  13.6404820
  60.8767670  25.6346510  12.4967540  61.3142540  26.1776180  13.1525120
  61.3615400  24.8093460  12.5063880  58.0913470  28.4235540  19.9487800
  58.4216480  27.5556600  19.7166440  58.5204470  28.6294060  20.7792760
  62.6875390  26.7544550  17.6089770  62.3870930  26.6309520  18.5093680
  62.5812880  25.8953140  17.2005500  58.5803680  29.2906130  22.6869430
  58.1434670  29.4706930  23.5193580  59.1481360  30.0480750  22.5451150
  74.2165860  28.7923130  26.9746740  73.6167850  28.8515690  26.2310660
  74.3459760  27.8528110  27.1043590  75.4567310  26.5340950  12.3116450
  74.6260270  26.6017600  12.7823680  75.6339140  27.4245070  12.0083310
  74.9123770  23.2788430  14.8150650  75.6742680  23.8485080  14.9210340
  74.9278140  22.7115630  15.5858960  58.4128110  21.8026360  19.0458310
  57.7576950  21.5338000  18.4018010  59.2506060  21.6930840  18.5960290
  75.9183740  24.1338530  19.6592580  76.2892570  23.3505850  19.2528550
  76.5585670  24.8227630  19.4809880  72.9017500  25.5175110  25.0722900
  72.0877340  25.9472270  25.3348690  73.3091700  26.1293520  24.4591950
  74.9642940  23.5722800  11.9723170  75.2391780  24.4801680  11.8442390
  74.7753680  23.5085330  12.9085160  71.3618550  16.5967650  13.2676800
  71.7803430  16.4098630  12.4273460  71.0554610  15.7446700  13.5779730
  74.8608280  21.5091790  16.9652600  74.4851880  20.7419720  16.5333890
  74.1311400  21.8914490  17.4527530  59.4504040  22.1878930  23.5861650
  59.8177080  22.1006330  24.4657670  58.8814860  21.4245480  23.4868510
  74.2507900  20.6563310  26.5992120  74.0193990  20.4276060  25.6990070
  74.5112450  21.5762860  26.5537010  59.0020040  19.0988020  27.4920070
  58.1076090  19.0654780  27.8313780  59.5417590  19.2974810  28.2571320
  72.6895970  15.8819740  29.3771820  73.5666150  15.8903140  29.7605820
  72.7016810  15.1450580  28.7664170  57.6266190  19.0125290  14.9883640
  56.7230270  19.2755490  14.8135300  58.1106810  19.2836460  14.2083600
  74.1359240  19.7349280  20.2659840  74.6596720  19.2411930  19.6350010
  74.7218660  19.8699640  21.0107410  74.3148960  19.8189150  23.7879390
  73.3651670  19.7852690  23.9024380  74.4961970  20.7289260  23.5529160
  60.1693400  18.0690830  12.8978020  60.8785100  17.6474050  12.4125300
  59.4533340  18.1366060  12.2661370  59.8167560  14.1230160  11.9380670
  60.5395690  14.6639100  12.2561890  60.0892080  13.8493580  11.0622210
  73.6259210  18.9922630  16.2052250  74.1218330  18.7593500  16.9901130
  73.4275280  18.1534470  15.7889890  59.5059750  13.3736350  21.8403290
  60.1535940  12.8233730  21.3998450  59.9261590  13.6279500  22.6619100
  75.0546370  17.6283580  18.7389930  74.9445650  17.4739620  19.6772200
  75.8153960  17.1004520  18.4965340  73.4012090  13.5677710  25.1972930
  74.0384310  14.1811850  25.5632120  73.5486980  13.6038370  24.2522160
  75.9436640  15.4591500  11.9796070  76.8685950  15.3272680  11.7714360
  75.9212430  15.5384320  12.9332520  76.0175130  16.2302160  14.6052780
  75.2226630  16.1647280  15.1345690  76.2218410  17.1652800  14.5938130
  72.9593550  30.2693710  18.5991170  73.5552620  29.9478280  17.9225590
  73.2171700  29.7965530  19.3904440  59.2591750  13.5292020  24.5828610
  58.9106570  13.9855840  25.3486790  58.9279450  12.6349150  24.6651040
  60.8656120  26.7011620  28.7481800  60.8225750  26.3304530  29.6296260
  60.9967130  27.6389190  28.8883620  64.5662150  28.2571210  24.3491520
  64.3253510  28.5245770  23.4622040  65.5064790  28.4276940  24.4042380
  66.7716570  14.7203900  28.1048030  66.7105460  15.3125730  28.8543440
  67.7116950  14.6129860  27.9598290  69.4091130  14.3773960  27.7440320
  70.0231540  14.6953250  27.0821400  69.9540690  13.8922550  28.3636180
  75.8266310  30.2765590  25.1502160  75.3324590  30.6734460  24.4329290
  75.2179600  29.6514800  25.5439440  59.9312390  13.0568220  27.8579380
  60.4795380  12.8756270  27.0945490  59.9967700  12.2662330  28.3935690
  60.7044150  29.6473870  25.8679580  60.1104470  29.5158570  26.6069620
  60.6967990  28.8112010  25.4021680  70.1499170  12.9406100  24.0709610
  69.2759010  13.2741210  23.8682540  70.0409920  12.4679280  24.8961480
  71.0571150  15.1476970  25.4551330  70.7284510  14.3328730  25.0753060
  72.0053450  15.1046780  25.3317020  73.5105760  30.9189010  22.4288900
  73.0508730  31.6704820  22.0546920  72.8818220  30.1995480  22.3703700
  60.3356380  27.0132250  24.8187620  59.6090440  26.3937540  24.7513570
  60.3965530  27.4072860  23.9485700  63.9401480  29.2277250  21.6037030
  64.4566500  28.6164610  21.0785290  64.5898860  29.7306030  22.0948040
  66.6796980  30.1185740  22.4306010  66.9674790  29.8640040  21.5539020
  67.1920200  29.5663100  23.0211580  67.8973990  13.8575940  23.0102520
  67.1145780  14.3321440  23.2899280  67.6036920  12.9530770  22.9015700
  72.4495060  14.5599040  21.0551610  72.8903150  14.5044140  20.2073210
  72.1802650  15.4757050  21.1261790  74.3133630  14.1914280  19.0660430
  74.2522030  13.2475500  18.9191450  75.0925660  14.2994370  19.6113890
  58.6186380  30.3306640  18.0284380  58.4508420  29.6977320  18.7266270
  57.7520890  30.5366040  17.6778570  59.2414400  14.1623420  15.5316240
  59.9993760  14.2752300  14.9580270  58.7791570  14.9992620  15.4859670
  65.7828210  16.2762690  18.5218550  64.9702720  15.9019580  18.1814430
  66.2869850  15.5207770  18.8239740  70.2853190  12.9405140  19.7601620
  70.8882560  13.5125350  20.2350140  69.5446180  13.5044580  19.5375520
  73.4287790  13.3426700  15.0341900  73.6238420  14.2410150  15.3009330
  72.6417660  13.1113780  15.5274850  60.2249080  29.0239870  15.4734520
  59.6996700  29.4047900  14.7696480  60.1493660  29.6490640  16.1944230
  61.6139550  14.6887470  14.0718210  62.1432310  13.9017270  13.9426160
  62.2467870  15.3678660  14.3053740  63.8077390  14.4262610  17.1263600
  63.1780130  13.7249920  17.2933730  63.2682530  15.1866740  16.9096760
  66.7469340  31.0401840  29.7974210  67.6736650  30.8046110  29.8410170
  66.7319770  31.8673840  29.3160240  74.9814400  30.5827410  16.7948460
  75.1566590  29.8965150  16.1509380  74.2835970  31.1074460  16.4025130
  63.9332950  13.7046590  29.5616090  63.6517220  14.2080190  28.7976910
  64.3152650  12.9068340  29.1958220  62.8242050  30.9722250  14.3483770
  63.5560870  30.6881530  13.8007660  63.0835720  30.7335530  15.2383150
  61.9856840  27.0886980  14.3530100  61.3565720  27.5572080  14.9015930
  62.1004670  26.2436200  14.7876290  70.5348410  13.1200170  30.1396560
  70.4213860  13.4394780  31.0348080  71.3518150  13.5212680  29.8433840
  73.3146900  30.2671700  29.6215250  74.1072220  29.7720930  29.4141210
  73.6080050  30.9461840  30.2290860  67.5724600  22.9171660   2.3840570
  66.7966700  22.4372100   2.6739140  68.2237530  22.2377310   2.2096730
  61.5890430  23.2291470   3.2616330  60.7575310  22.9740180   3.6612840
  62.1971410  23.3002240   3.9974250  61.5691690  27.2631560   3.4574350
  61.8719730  26.3729300   3.2784570  62.3135280  27.8201780   3.2296600
  57.9615390  20.7899010   2.9298420  58.5331500  20.0221210   2.9302060
  57.9616930  21.0887770   2.0205030  67.0133590  25.5928850   2.3910730
  66.9441870  24.6518790   2.2299860  67.7753450  25.6830260   2.9633300
  59.2040260  16.1983370   4.7167350  59.0243100  15.3009120   4.9970110
  58.8020340  16.7455240   5.3914300  68.0438760  18.3999230   2.6179660
  68.4203580  17.5271110   2.5053330  67.9458270  18.7357930   1.7270100
  59.8226930  18.6943870   3.3249690  60.5037040  18.9582240   3.9437090
  59.5074980  17.8544740   3.6587700  64.0151500  19.7411230   2.4122280
  64.5229720  20.2392200   3.0527300  64.5464740  18.9646430   2.2361640
  76.1162430  17.9116420   6.1151630  75.4114600  18.2998130   5.5966740
  76.3820350  18.6066710   6.7172560  62.2987600  14.3809790   6.6785700
  62.3006040  14.8982180   5.8731600  61.4691910  13.9039970   6.6555630
  63.5490450  24.0204970   4.8559200  63.2159830  24.6473890   5.4980270
  63.7257130  24.5466850   4.0760870  72.0624360  17.8350050   2.3235540
  71.3579930  18.1234940   2.9038650  72.4236520  18.6450160   1.9635100
  61.9802930  16.0919750   4.6856150  62.3219740  16.9361800   4.3910020
  61.0418740  16.2403490   4.8021490  62.7609550  25.9885770   6.6708380
  63.3783550  26.6636850   6.3892830  61.9002670  26.3973750   6.5795880
  73.6787140  27.4525180   4.5863020  72.9950660  28.1224290   4.5779690
  74.2181430  27.6505830   3.8207880  75.1311280  17.2804840   2.7144750
  74.1836190  17.3143820   2.8460180  75.4561270  18.0943790   3.0994110
  71.2145880  29.2969310   3.3008200  71.2273040  28.8931600   2.4330460
  70.6621100  30.0716600   3.1969630  70.6131320  24.1999150   4.6290810
  71.0300110  23.9859260   3.7944270  71.3371140  24.4571940   5.1999430
  74.5593420  22.5986370   4.7207050  73.7312050  22.6679460   4.2457180
  75.1543900  23.1840680   4.2522880  71.5235430  19.3855690   5.6661920
  71.1106610  20.2109400   5.9201910  70.7911380  18.8000730   5.4738280
  64.1249920  25.8583150   2.6919800  63.8278210  25.2528620   2.0127580
  65.0749740  25.8960460   2.5809160  62.3696840  18.9458800   4.3079630
  62.9211430  19.0554140   3.5332880  62.8840350  19.3196400   5.0234860
  72.2135530  29.4315020   6.3542900  71.7366090  30.2387210   6.1615510
  71.5297320  28.7793350   6.5069110  63.2168350  25.5964840   9.3427600
  62.3196880  25.8204810   9.5901000  63.2421220  25.7199780   8.3939000
  62.0439570  22.4678160   7.9184970  61.9047340  23.3400960   8.2872370
  61.1620930  22.1250970   7.7732910  63.8419920  28.4099860  10.1270120
  63.8135350  28.8142810   9.2598550  63.6784890  27.4810220   9.9641720
  75.7934740  29.1926960  11.4234290  76.2694460  29.6709850  12.1023370
  76.4141900  29.1244450  10.6979790  57.9958220  24.2375710   3.8355880
  58.0738640  24.3724480   2.8911600  58.6099900  23.5291600   4.0284000
  75.1967990  26.3839810   8.5834300  75.3231050  26.1451690   7.6651480
  75.2389370  25.5524350   9.0556380  69.0584730  30.0867810   7.1529110
  69.5729400  29.9975820   7.9551540  68.2153810  30.4327510   7.4457020
  75.0492000  18.4372270   9.5484040  74.4336270  18.9451940   9.0199500
  74.7288420  17.5370600   9.4909980  58.0517740  25.2789880   6.3750340
  58.2148780  24.8095240   5.5569710  58.5170190  24.7713440   7.0399180
  67.1106320  17.2764160   7.0146230  66.6485690  17.4847180   7.8266170
  66.7084430  16.4623510   6.7116900  72.1110830  18.4973110   8.1442890
  71.2604420  18.1978860   8.4651960  71.9512620  18.7415120   7.2326710
  69.2060540  19.9974860  10.2441680  69.5313950  19.1638610   9.9043910
  69.9940870  20.5203380  10.3920010  64.8612410  14.9542970   3.2700510
  65.1584740  15.8605800   3.1892530  65.4097970  14.4661750   2.6560080
  65.0549940  20.4314790   9.8052430  64.9593540  19.4909520   9.6552830
  65.8981920  20.6529860   9.4100500  60.1860480  16.8428460   7.9586210
  59.7923870  17.6903670   8.1658990  59.4978880  16.2054830   8.1494850
  66.7605530  16.9263430  11.0282950  66.0703850  16.7335630  11.6629040
  67.5037830  17.2098070  11.5607250  57.4877530  14.7656920   1.9916290
  57.1990580  15.3359780   2.7041270  58.2323290  14.2861370   2.3547520
  69.0368500  20.7661870   3.8636870  68.3049620  21.2748680   4.2126970
  68.6392840  19.9491850   3.5625650  65.4745890  17.4416070   2.2689360
  65.4781950  17.0006020   1.4193900  66.3697010  17.7633400   2.3761180
  69.4994410  16.2195550   3.2759810  69.5167150  16.6704200   4.1201660
  69.2509990  15.3201190   3.4893250  72.9265160  13.6327730   9.1146190
  73.2510930  12.9017390   9.6404170  72.9621670  13.3141370   8.2127180
  59.6256720  24.6541310   8.5346150  59.2411510  24.0134980   9.1329110
  59.9368910  25.3577430   9.1040880  65.7753860  21.5017850   4.0154770
  66.1423990  21.0276420   4.7616110  65.5858920  22.3759420   4.3563110
  63.5653230  20.5426490   6.3338980  63.2610300  21.4218470   6.5589340
  64.5199690  20.6026280   6.3696420  72.8523000  23.7452840   2.7232220
  73.5722120  24.2408130   2.3328330  72.6504820  23.0670730   2.0786090
  68.2341800  23.8161900   8.6101220  68.1679110  22.8957570   8.3558810
  67.6046940  23.9137340   9.3245860  59.6216960  21.3829230   7.4810340
  59.2631900  22.0483080   8.0683680  59.3271520  20.5512780   7.8522960
  62.8230080  21.8413470  10.3649890  62.5230220  21.9870650   9.4677710
  63.5941320  21.2818760  10.2723280  68.1658530  26.6382470   8.3605020
  68.1803070  25.7063430   8.1423930  67.4583630  26.7242230   8.9994790
  74.3769740  23.2789810   7.7073600  73.6517930  23.8718590   7.5102990
  74.9045200  23.2713350   6.9086970  67.5992430  28.2800040   5.4545520
  68.2434650  28.4859420   6.1318940  67.9621870  27.5188440   5.0016370
  68.8724510  26.2832390   4.1722970  69.5146740  25.5825550   4.2855140
  69.3973860  27.0630830   3.9919860  70.6462130  27.0827290   7.3759030
  70.9818370  27.6693980   8.0536950  69.7262470  26.9520000   7.6056820
  58.1965530  14.8722470   8.1582440  57.4824050  15.0719390   8.7635050
  58.6160570  14.0962040   8.5297240  58.4838120  28.8602730   9.1448970
  58.5929240  27.9197470   9.0044360  57.8318680  29.1257480   8.4962700
  66.4750710  27.1318620  10.5447090  66.1547580  26.4127860  11.0892780
  65.8009070  27.8073690  10.6183150  69.6904310  17.3644780   5.9083890
  70.0585130  16.5439990   6.2363460  68.8302510  17.4246670   6.3239540
  66.6506300  20.0184370   6.1321860  67.1491550  20.4930190   6.7973710
  66.7929250  19.0947890   6.3391890  73.8573160  16.2352330   6.9750250
  73.3546760  16.9757730   7.3144060  74.6729820  16.6236330   6.6587040
  74.1520750  28.6494360   2.0965870  74.2768170  29.4725530   2.5689680
  75.0186310  28.4385090   1.7490020  61.6238280  30.7425570   1.7683000
  62.3600760  30.1941030   2.0391570  62.0079200  31.6081580   1.6288990
  60.6296560  29.9271640  10.9568580  61.4309290  30.2483690  11.3703980
  60.1148380  29.5667220  11.6788490  69.4661190  26.0351510  10.9043990
  68.8599350  26.0583110  10.1639740  69.1615300  25.3034550  11.4411240
  70.8961560  29.7631800   9.5153400  71.8483310  29.6789820   9.4653640
  70.7489780  30.4273510  10.1887190  58.3494370  22.4145100   9.9004630
  58.8533390  21.8352380  10.4720860  57.6101790  22.6985330  10.4381000
  65.4032310  23.8216090   9.4340150  64.6377980  24.3901090   9.3494820
  65.5848270  23.5292300   8.5408380  72.5455660  25.5521420   9.9915170
  73.2865130  25.8897180   9.4882630  71.7828340  25.7213480   9.4384940
  60.3817450  20.5574690  10.7954700  60.4222790  20.2588560  11.7039930
  61.2362950  20.9582300  10.6362220  62.3223260  19.1366790   8.7629190
  61.7919720  18.6457740   8.1352530  62.9911330  19.5650990   8.2287120
  71.2201320  23.6036250   8.5270380  71.6342340  23.7581330   9.3760800
  70.2852320  23.7291470   8.6896160  71.6923490  20.9432410  10.5309530
  72.2744260  20.1884730  10.4430010  71.8685260  21.4739850   9.7541010
  62.8095560  16.1029160   8.8426480  62.7152430  15.4849910   8.1177350
  62.2292950  16.8295450   8.6156390  65.5757000  14.6602400   5.8753870
  65.1274300  14.6826660   5.0299420  64.9422200  14.2621420   6.4724170
  65.9816550  23.5556730   6.4966310  66.4004660  24.3989460   6.3242550
  65.0625180  23.6928770   6.2673090  68.3180450  21.2872910   7.8804150
  68.4376660  20.6914050   8.6198990  69.1774450  21.3242600   7.4605450
  70.6568350  21.8410100   6.4566660  70.1303570  22.3652720   5.8531800
  70.9999690  22.4737490   7.0876390  63.8323970  29.8609740   7.6124040
  63.2945060  30.5855800   7.2932740  64.0857930  29.3840080   6.8221380
  65.0849220  17.8294260   9.1379970  65.6748910  17.5210110   9.8257790
  64.2669460  17.3574010   9.2939870  69.9042650  17.4460070   9.3712990
  69.2158170  16.7841610   9.3062980  70.6248670  16.9998340   9.8161450
  66.6886180  31.0960950   7.8710690  66.6144880  31.9996090   8.1783060
  65.7865020  30.7772850   7.8432760  58.5803680  29.2906130   3.9125940
  58.1434670  29.4706930   4.7450090  59.1481360  30.0480750   3.7707660
  74.2165860  28.7923130   8.2003250  73.6167850  28.8515690   7.4567170
  74.3459760  27.8528110   8.3300100  72.9017500  25.5175110   6.2979410
  72.0877340  25.9472270   6.5605200  73.3091700  26.1293520   5.6848460
  59.4504040  22.1878930   4.8118160  59.8177080  22.1006330   5.6914180
  58.8814860  21.4245480   4.7125020  74.2507900  20.6563310   7.8248630
  74.0193990  20.4276060   6.9246580  74.5112450  21.5762860   7.7793520
  59.0020040  19.0988020   8.7176580  58.1076090  19.0654780   9.0570290
  59.5417590  19.2974810   9.4827830  72.6895970  15.8819740  10.6028330
  73.5666150  15.8903140  10.9862330  72.7016810  15.1450580   9.9920680
  74.3148960  19.8189150   5.0135900  73.3651670  19.7852690   5.1280890
  74.4961970  20.7289260   4.7785670  59.5059750  13.3736350   3.0659800
  60.1535940  12.8233730   2.6254960  59.9261590  13.6279500   3.8875610
  73.4012090  13.5677710   6.4229440  74.0384310  14.1811850   6.7888630
  73.5486980  13.6038370   5.4778670  59.2591750  13.5292020   5.8085120
  58.9106570  13.9855840   6.5743300  58.9279450  12.6349150   5.8907550
  60.8656120  26.7011620   9.9738310  60.8225750  26.3304530  10.8552770
  60.9967130  27.6389190  10.1140130  64.5662150  28.2571210   5.5748030
  64.3253510  28.5245770   4.6878550  65.5064790  28.4276940   5.6298890
  66.7716570  14.7203900   9.3304540  66.7105460  15.3125730  10.0799950
  67.7116950  14.6129860   9.1854800  69.4091130  14.3773960   8.9696830
  70.0231540  14.6953250   8.3077910  69.9540690  13.8922550   9.5892690
  75.8266310  30.2765590   6.3758670  75.3324590  30.6734460   5.6585800
  75.2179600  29.6514800   6.7695950  59.9312390  13.0568220   9.0835890
  60.4795380  12.8756270   8.3202000  59.9967700  12.2662330   9.6192200
  60.7044150  29.6473870   7.0936090  60.1104470  29.5158570   7.8326130
  60.6967990  28.8112010   6.6278190  70.1499170  12.9406100   5.2966120
  69.2759010  13.2741210   5.0939050  70.0409920  12.4679280   6.1217990
  71.0571150  15.1476970   6.6807840  70.7284510  14.3328730   6.3009570
  72.0053450  15.1046780   6.5573530  73.5105760  30.9189010   3.6545410
  73.0508730  31.6704820   3.2803430  72.8818220  30.1995480   3.5960210
  60.3356380  27.0132250   6.0444130  59.6090440  26.3937540   5.9770080
  60.3965530  27.4072860   5.1742210  63.9401480  29.2277250   2.8293540
  64.4566500  28.6164610   2.3041800  64.5898860  29.7306030   3.3204550
  66.6796980  30.1185740   3.6562520  66.9674790  29.8640040   2.7795530
  67.1920200  29.5663100   4.2468090  67.8973990  13.8575940   4.2359030
  67.1145780  14.3321440   4.5155790  67.6036920  12.9530770   4.1272210
  72.4495060  14.5599040   2.2808120  72.8903150  14.5044140   1.4329720
  72.1802650  15.4757050   2.3518300  66.7469340  31.0401840  11.0230720
  67.6736650  30.8046110  11.0666680  66.7319770  31.8673840  10.5416750
  63.9332950  13.7046590  10.7872600  63.6517220  14.2080190  10.0233420
  64.3152650  12.9068340  10.4214730  70.5348410  13.1200170  11.3653070
  70.4213860  13.4394780  12.2604590  71.3518150  13.5212680  11.0690350
  73.3146900  30.2671700  10.8471760  74.1072220  29.7720930  10.6397720
  73.6080050  30.9461840  11.4547370  69.4406560   2.3649150 150.6979220
  69.3600610   1.4503760 150.4270930  69.0270980   2.8616220 149.9918930
  67.5724600   4.1428170 152.5788490  66.7966700   3.6628610 152.8687060
  68.2237530   3.4633820 152.4044650  71.5932030   8.5488360 151.3587620
  71.1313560   7.7775600 151.6874790  72.4057580   8.5754430 151.8640070
  67.8195340  10.8346370 150.9791610  67.2006780  11.2903870 150.4086050
  68.6747120  10.9897830 150.5781310  67.0133590   6.8185360 152.5858650
  66.9441870   5.8775300 152.4247780  67.7753450   6.9086770 153.1581220
  68.6858690   5.7185610 148.3723520  68.0675960   6.1835060 147.8086240
  69.1981940   6.4113090 148.7893030  58.0541890   6.4042140 145.7463150
  57.6769870   6.8929240 145.0148050  58.3114960   7.0767420 146.3769680
  72.5091300   7.2442040 148.5846290  72.3987630   6.3016370 148.7095710
  72.5059550   7.6057680 149.4709050  68.0511580   2.8707360 147.9408780
  67.1240860   2.8044740 148.1697250  68.2036400   3.8087490 147.8264020
  72.0808870   4.4327660 148.4444030  71.4621290   4.0947210 147.7970330
  72.0633320   3.7887420 149.1523220  63.6568220   3.3972100 150.7228510
  63.2525220   2.6849350 150.2274410  63.7431340   3.0525340 151.6116550
  64.1249920   7.0839660 152.8867720  63.8278210   6.4785130 152.2075500
  65.0749740   7.1216970 152.7757080  70.2573570   3.6714470 145.4516780
  70.6966850   2.8336900 145.3054600  70.9701990   4.3043870 145.5380920
  68.3668950   8.6110540 149.4198020  68.8064860   9.3534870 149.0053410
  68.3055840   8.8537110 150.3436980  60.3572850   2.2917080 148.2235160
  60.2370450   3.0179170 147.6116430  60.0473740   1.5219990 147.7463070
  59.2405850   7.1632410 150.4409980  58.8333930   7.3047000 149.5863580
  60.1318860   6.8792570 150.2381190  71.0339130  11.5979660 146.7761030
  70.8740270  11.3082600 147.6742860  70.8685840  10.8219790 146.2406260
  63.5127510  11.3778190 148.5532650  63.3369990  10.4613730 148.3400450
  62.6583250  11.7365480 148.7930450  70.7365260   9.1067220 145.3359030
  70.0430420   9.1044510 144.6761310  71.4788120   8.6826540 144.9053200
  70.3015190  10.7329930 149.4107520  70.7572140   9.9519310 149.7246140
  70.6407710  11.4436750 149.9548700  64.5487540   1.9785800 144.8527340
  63.9804440   1.5304050 144.2263250  65.2576540   2.3378580 144.3192490
  62.0935020   5.9743990 147.1253750  61.3197280   5.4341610 146.9652470
  62.8229650   5.4550600 146.7871510  72.8523000   4.9709350 152.9180140
  73.5722120   5.4664640 152.5276250  72.6504820   4.2927240 152.2734010
  62.1372420   5.6424370 150.7632560  62.6551090   4.8392630 150.7089450
  61.6856440   5.5803510 151.6049390  67.0241920   6.9090650 146.0359860
  67.3657620   7.6532880 145.5403180  66.1954630   7.2221770 146.3984690
  73.2995600   2.0478800 144.8251550  73.2159320   2.4793020 143.9747990
  74.0189790   2.5077150 145.2578370  74.3282850   8.9021060 147.5533680
  73.6859010   8.2476680 147.8277400  73.9413510   9.3076150 146.7774350
  69.9069330   6.2306490 151.4005370  70.2593150   5.6334620 150.7406740
  69.0231660   5.9050720 151.5713620  65.9932610   6.9904180 148.8075780
  66.6803740   7.5373390 149.1883370  65.2065030   7.5344910 148.8425390
  58.1325010   2.6077000 144.2992860  59.0019860   2.8901800 144.5828780
  57.6415330   3.4212870 144.1841670  65.2959820   3.9950210 148.4201140
  65.7522600   4.8055460 148.6461330  64.9448030   3.6773350 149.2519630
  72.7180230   7.7937520 144.0910030  72.4917810   7.0767960 144.6834670
  72.3276430   7.5449960 143.2531780  58.4996260  11.8204380 144.8654490
  58.8593900  12.4193720 144.2111760  58.3588600  12.3664270 145.6389520
  72.2996480   5.7109460 145.7524190  72.0118180   6.1722150 146.5402070
  73.0948650   5.2507230 146.0208410  64.5164880   9.2035580 145.6828160
  64.5074980   9.9365270 145.0672670  63.5963240   8.9567160 145.7755120
  60.1171520   4.4250470 146.4274920  59.5099470   5.1649370 146.4370220
  60.5920870   4.5149830 145.6013120  67.5024480   9.2663820 144.3453350
  67.6036460   9.0627810 143.4155330  66.6026220   9.0122100 144.5501130
  66.1442590  11.7850140 149.0401020  66.3984090  11.7471530 148.1180390
  65.1955070  11.6583470 149.0329270  72.1495170   2.7042020 150.6159530
  71.2085310   2.7192250 150.7907220  72.4639240   1.9177980 151.0619830
  62.1276810   4.3861620 144.1763490  62.8940080   4.2742980 144.7388920
  62.2051500   3.6899590 143.5240260  74.1520750   9.8750870 152.2913790
  74.2768170  10.6982040 152.7637600  75.0186310   9.6641600 151.9437940
  61.6238280  11.9682080 151.9630920  62.3600760  11.4197540 152.2339490
  62.0079200  12.8338090 151.8236910  58.5083760   8.0355650 147.8372430
  57.5823540   8.2776790 147.8277840  58.9740190   8.8629910 147.7157180
  64.7340590  11.1412390 143.7856490  65.5269200  11.4301220 143.3338280
  64.2144940  10.7104560 143.1068970  73.7870760  10.3682520 145.2093230
  73.5012270   9.9547660 144.3947410  73.5890310  11.2970230 145.0893750
  65.2517990   6.3615800 143.6498840  65.1468630   5.7468150 144.3760220
  65.0842210   5.8381690 142.8661850  68.4920720   5.4235830 144.2540830
  67.9430820   5.8705130 144.8983570  69.1139980   4.9185080 144.7778500
  64.1595840   4.3826750 146.1506130  64.5812260   4.2166620 146.9937520
  64.2846680   3.5726980 145.6561270  66.6723480   3.4064360 143.3983230
  67.1929140   2.6913380 143.0324380  67.3191880   4.0450230 143.6983740
  67.2371510  11.4875970 145.6884970  68.1322300  11.8260940 145.7103730
  67.2689140  10.7655380 145.0609250  60.8767670   6.8603020 143.9171970
  61.3142540   7.4032690 144.5729550  61.3615400   6.0349970 143.9268310
  58.0913470   9.6492050 151.3692230  58.4216480   8.7813110 151.1370870
  58.5204470   9.8550570 152.1997190  62.6875390   7.9801060 149.0294200
  62.3870930   7.8566030 149.9298110  62.5812880   7.1209650 148.6209930
  75.4567310   7.7597460 143.7320880  74.6260270   7.8274110 144.2028110
  75.6339140   8.6501580 143.4287740  74.9123770   4.5044940 146.2355080
  75.6742680   5.0741590 146.3414770  74.9278140   3.9372140 147.0063390
  58.4128110   3.0282870 150.4662740  57.7576950   2.7594510 149.8222440
  59.2506060   2.9187350 150.0164720  75.9183740   5.3595040 151.0797010
  76.2892570   4.5762360 150.6732980  76.5585670   6.0484140 150.9014310
  74.9642940   4.7979310 143.3927600  75.2391780   5.7058190 143.2646820
  74.7753680   4.7341840 144.3289590  74.8608280   2.7348300 148.3857030
  74.4851880   1.9676230 147.9538320  74.1311400   3.1171000 148.8731960
  72.9593550  11.4950220 150.0195600  73.5552620  11.1734790 149.3430020
  73.2171700  11.0222040 150.8108870  58.6186380  11.5563150 149.4488810
  58.4508420  10.9233830 150.1470700  57.7520890  11.7622550 149.0983000
  60.2249080  10.2496380 146.8938950  59.6996700  10.6304410 146.1900910
  60.1493660  10.8747150 147.6148660  74.9814400  11.8083920 148.2152890
  75.1566590  11.1221660 147.5713810  74.2835970  12.3330970 147.8229560
  62.8242050  12.1978760 145.7688200  63.5560870  11.9138040 145.2212090
  63.0835720  11.9592040 146.6587580  61.9856840   8.3143490 145.7734530
  61.3565720   8.7828590 146.3220360  62.1004670   7.4692710 146.2080720
  69.4406560   2.3649150 131.9235730  69.3600610   1.4503760 131.6527440
  69.0270980   2.8616220 131.2175440  67.5724600   4.1428170 133.8045000
  66.7966700   3.6628610 134.0943570  68.2237530   3.4633820 133.6301160
  61.5890430   4.4547980 134.6820760  60.7575310   4.1996690 135.0817270
  62.1971410   4.5258750 135.4178680  71.5932030   8.5488360 132.5844130
  71.1313560   7.7775600 132.9131300  72.4057580   8.5754430 133.0896580
  61.5691690   8.4888070 134.8778780  61.8719730   7.5985810 134.6989000
  62.3135280   9.0458290 134.6501030  67.8195340  10.8346370 132.2048120
  67.2006780  11.2903870 131.6342560  68.6747120  10.9897830 131.8037820
  67.0133590   6.8185360 133.8115160  66.9441870   5.8775300 133.6504290
  67.7753450   6.9086770 134.3837730  68.6858690   5.7185610 129.5980030
  68.0675960   6.1835060 129.0342750  69.1981940   6.4113090 130.0149540
  63.5490450   5.2461480 136.2763630  63.2159830   5.8730400 136.9184700
  63.7257130   5.7723360 135.4965300  62.7609550   7.2142280 138.0912810
  63.3783550   7.8893360 137.8097260  61.9002670   7.6230260 138.0000310
  58.0541890   6.4042140 126.9719660  57.6769870   6.8929240 126.2404560
  58.3114960   7.0767420 127.6026190  73.6787140   8.6781690 136.0067450
  72.9950660   9.3480800 135.9984120  74.2181430   8.8762340 135.2412310
  71.2145880  10.5225820 134.7212630  71.2273040  10.1188110 133.8534890
  70.6621100  11.2973110 134.6174060  72.5091300   7.2442040 129.8102800
  72.3987630   6.3016370 129.9352220  72.5059550   7.6057680 130.6965560
  70.6131320   5.4255660 136.0495240  71.0300110   5.2115770 135.2148700
  71.3371140   5.6828450 136.6203860  68.0511580   2.8707360 129.1665290
  67.1240860   2.8044740 129.3953760  68.2036400   3.8087490 129.0520530
  74.5593420   3.8242880 136.1411480  73.7312050   3.8935970 135.6661610
  75.1543900   4.4097190 135.6727310  72.0808870   4.4327660 129.6700540
  71.4621290   4.0947210 129.0226840  72.0633320   3.7887420 130.3779730
  63.6568220   3.3972100 131.9485020  63.2525220   2.6849350 131.4530920
  63.7431340   3.0525340 132.8373060  64.1249920   7.0839660 134.1124230
  63.8278210   6.4785130 133.4332010  65.0749740   7.1216970 134.0013590
  72.2135530  10.6571530 137.7747330  71.7366090  11.4643720 137.5819940
  71.5297320  10.0049860 137.9273540  63.2168350   6.8221350 140.7632030
  62.3196880   7.0461320 141.0105430  63.2421220   6.9456290 139.8143430
  70.2573570   3.6714470 126.6773290  70.6966850   2.8336900 126.5311110
  70.9701990   4.3043870 126.7637430  62.0439570   3.6934670 139.3389400
  61.9047340   4.5657470 139.7076800  61.1620930   3.3507480 139.1937340
  68.3668950   8.6110540 130.6454530  68.8064860   9.3534870 130.2309920
  68.3055840   8.8537110 131.5693490  63.8419920   9.6356370 141.5474550
  63.8135350  10.0399320 140.6802980  63.6784890   8.7066730 141.3846150
  60.3572850   2.2917080 129.4491670  60.2370450   3.0179170 128.8372940
  60.0473740   1.5219990 128.9719580  75.7934740  10.4183470 142.8438720
  76.2694460  10.8966360 143.5227800  76.4141900  10.3500960 142.1184220
  57.9958220   5.4632220 135.2560310  58.0738640   5.5980990 134.3116030
  58.6099900   4.7548110 135.4488430  59.2405850   7.1632410 131.6666490
  58.8333930   7.3047000 130.8120090  60.1318860   6.8792570 131.4637700
  75.1967990   7.6096320 140.0038730  75.3231050   7.3708200 139.0855910
  75.2389370   6.7780860 140.4760810  69.0584730  11.3124320 138.5733540
  69.5729400  11.2232330 139.3755970  68.2153810  11.6584020 138.8661450
  71.0339130  11.5979660 128.0017540  70.8740270  11.3082600 128.8999370
  70.8685840  10.8219790 127.4662770  63.5127510  11.3778190 129.7789160
  63.3369990  10.4613730 129.5656960  62.6583250  11.7365480 130.0186960
  70.7365260   9.1067220 126.5615540  70.0430420   9.1044510 125.9017820
  71.4788120   8.6826540 126.1309710  70.3015190  10.7329930 130.6364030
  70.7572140   9.9519310 130.9502650  70.6407710  11.4436750 131.1805210
  58.0517740   6.5046390 137.7954770  58.2148780   6.0351750 136.9774140
  58.5170190   5.9969950 138.4603610  64.5487540   1.9785800 126.0783850
  63.9804440   1.5304050 125.4519760  65.2576540   2.3378580 125.5449000
  59.6256720   5.8797820 139.9550580  59.2411510   5.2391490 140.5533540
  59.9368910   6.5833940 140.5245310  65.7753860   2.7274360 135.4359200
  66.1423990   2.2532930 136.1820540  65.5858920   3.6015930 135.7767540
  63.5653230   1.7683000 137.7543410  63.2610300   2.6474980 137.9793770
  64.5199690   1.8282790 137.7900850  62.0935020   5.9743990 128.3510260
  61.3197280   5.4341610 128.1908980  62.8229650   5.4550600 128.0128020
  72.8523000   4.9709350 134.1436650  73.5722120   5.4664640 133.7532760
  72.6504820   4.2927240 133.4990520  68.2341800   5.0418410 140.0305650
  68.1679110   4.1214080 139.7763240  67.6046940   5.1393850 140.7450290
  62.1372420   5.6424370 131.9889070  62.6551090   4.8392630 131.9345960
  61.6856440   5.5803510 132.8305900  67.0241920   6.9090650 127.2616370
  67.3657620   7.6532880 126.7659690  66.1954630   7.2221770 127.6241200
  59.6216960   2.6085740 138.9014770  59.2631900   3.2739590 139.4888110
  59.3271520   1.7769290 139.2727390  62.8230080   3.0669980 141.7854320
  62.5230220   3.2127160 140.8882140  63.5941320   2.5075270 141.6927710
  68.1658530   7.8638980 139.7809450  68.1803070   6.9319940 139.5628360
  67.4583630   7.9498740 140.4199220  73.2995600   2.0478800 126.0508060
  73.2159320   2.4793020 125.2004500  74.0189790   2.5077150 126.4834880
  74.3769740   4.5046320 139.1278030  73.6517930   5.0975100 138.9307420
  74.9045200   4.4969860 138.3291400  74.3282850   8.9021060 128.7790190
  73.6859010   8.2476680 129.0533910  73.9413510   9.3076150 128.0030860
  69.9069330   6.2306490 132.6261880  70.2593150   5.6334620 131.9663250
  69.0231660   5.9050720 132.7970130  65.9932610   6.9904180 130.0332290
  66.6803740   7.5373390 130.4139880  65.2065030   7.5344910 130.0681900
  58.1325010   2.6077000 125.5249370  59.0019860   2.8901800 125.8085290
  57.6415330   3.4212870 125.4098180  65.2959820   3.9950210 129.6457650
  65.7522600   4.8055460 129.8717840  64.9448030   3.6773350 130.4776140
  67.5992430   9.5056550 136.8749950  68.2434650   9.7115930 137.5523370
  67.9621870   8.7444950 136.4220800  68.8724510   7.5088900 135.5927400
  69.5146740   6.8082060 135.7059570  69.3973860   8.2887340 135.4124290
  72.7180230   7.7937520 125.3166540  72.4917810   7.0767960 125.9091180
  72.3276430   7.5449960 124.4788290  70.6462130   8.3083800 138.7963460
  70.9818370   8.8950490 139.4741380  69.7262470   8.1776510 139.0261250
  58.4996260  11.8204380 126.0911000  58.8593900  12.4193720 125.4368270
  58.3588600  12.3664270 126.8646030  72.2996480   5.7109460 126.9780700
  72.0118180   6.1722150 127.7658580  73.0948650   5.2507230 127.2464920
  58.4838120  10.0859240 140.5653400  58.5929240   9.1453980 140.4248790
  57.8318680  10.3513990 139.9167130  66.4750710   8.3575130 141.9651520
  66.1547580   7.6384370 142.5097210  65.8009070   9.0330200 142.0387580
  64.5164880   9.2035580 126.9084670  64.5074980   9.9365270 126.2929180
  63.5963240   8.9567160 127.0011630  60.1171520   4.4250470 127.6531430
  59.5099470   5.1649370 127.6626730  60.5920870   4.5149830 126.8269630
  67.5024480   9.2663820 125.5709860  67.6036460   9.0627810 124.6411840
  66.6026220   9.0122100 125.7757640  66.1442590  11.7850140 130.2657530
  66.3984090  11.7471530 129.3436900  65.1955070  11.6583470 130.2585780
  72.1495170   2.7042020 131.8416040  71.2085310   2.7192250 132.0163730
  72.4639240   1.9177980 132.2876340  62.1276810   4.3861620 125.4020000
  62.8940080   4.2742980 125.9645430  62.2051500   3.6899590 124.7496770
  74.1520750   9.8750870 133.5170300  74.2768170  10.6982040 133.9894110
  75.0186310   9.6641600 133.1694450  61.6238280  11.9682080 133.1887430
  62.3600760  11.4197540 133.4596000  62.0079200  12.8338090 133.0493420
  58.5083760   8.0355650 129.0628940  57.5823540   8.2776790 129.0534350
  58.9740190   8.8629910 128.9413690  60.6296560  11.1528150 142.3773010
  61.4309290  11.4740200 142.7908410  60.1148380  10.7923730 143.0992920
  64.7340590  11.1412390 125.0113000  65.5269200  11.4301220 124.5594790
  64.2144940  10.7104560 124.3325480  69.4661190   7.2608020 142.3248420
  68.8599350   7.2839620 141.5844170  69.1615300   6.5291060 142.8615670
  70.8961560  10.9888310 140.9357830  71.8483310  10.9046330 140.8858070
  70.7489780  11.6530020 141.6091620  73.7870760  10.3682520 126.4349740
  73.5012270   9.9547660 125.6203920  73.5890310  11.2970230 126.3150260
  58.3494370   3.6401610 141.3209060  58.8533390   3.0608890 141.8925290
  57.6101790   3.9241840 141.8585430  65.2517990   6.3615800 124.8755350
  65.1468630   5.7468150 125.6016730  65.0842210   5.8381690 124.0918360
  65.4032310   5.0472600 140.8544580  64.6377980   5.6157600 140.7699250
  65.5848270   4.7548810 139.9612810  68.4920720   5.4235830 125.4797340
  67.9430820   5.8705130 126.1240080  69.1139980   4.9185080 126.0035010
  72.5455660   6.7777930 141.4119600  73.2865130   7.1153690 140.9087060
  71.7828340   6.9469990 140.8589370  60.3817450   1.7831200 142.2159130
  60.4222790   1.4845070 143.1244360  61.2362950   2.1838810 142.0566650
  64.1595840   4.3826750 127.3762640  64.5812260   4.2166620 128.2194030
  64.2846680   3.5726980 126.8817780  66.6723480   3.4064360 124.6239740
  67.1929140   2.6913380 124.2580890  67.3191880   4.0450230 124.9240250
  71.2201320   4.8292760 139.9474810  71.6342340   4.9837840 140.7965230
  70.2852320   4.9547980 140.1100590  71.6923490   2.1688920 141.9513960
  72.2744260   1.4141240 141.8634440  71.8685260   2.6996360 141.1745440
  65.9816550   4.7813240 137.9170740  66.4004660   5.6245970 137.7446980
  65.0625180   4.9185280 137.6877520  68.3180450   2.5129420 139.3008580
  68.4376660   1.9170560 140.0403420  69.1774450   2.5499110 138.8809880
  70.6568350   3.0666610 137.8771090  70.1303570   3.5909230 137.2736230
  70.9999690   3.6994000 138.5080820  63.8323970  11.0866250 139.0328470
  63.2945060  11.8112310 138.7137170  64.0857930  10.6096590 138.2425810
  66.6886180  12.3217460 139.2915120  66.6144880  13.2252600 139.5987490
  65.7865020  12.0029360 139.2637190  67.2371510  11.4875970 126.9141480
  68.1322300  11.8260940 126.9360240  67.2689140  10.7655380 126.2865760
  60.8767670   6.8603020 125.1428480  61.3142540   7.4032690 125.7986060
  61.3615400   6.0349970 125.1524820  58.0913470   9.6492050 132.5948740
  58.4216480   8.7813110 132.3627380  58.5204470   9.8550570 133.4253700
  62.6875390   7.9801060 130.2550710  62.3870930   7.8566030 131.1554620
  62.5812880   7.1209650 129.8466440  58.5803680  10.5162640 135.3330370
  58.1434670  10.6963440 136.1654520  59.1481360  11.2737260 135.1912090
  74.2165860  10.0179640 139.6207680  73.6167850  10.0772200 138.8771600
  74.3459760   9.0784620 139.7504530  75.4567310   7.7597460 124.9577390
  74.6260270   7.8274110 125.4284620  75.6339140   8.6501580 124.6544250
  74.9123770   4.5044940 127.4611590  75.6742680   5.0741590 127.5671280
  74.9278140   3.9372140 128.2319900  58.4128110   3.0282870 131.6919250
  57.7576950   2.7594510 131.0478950  59.2506060   2.9187350 131.2421230
  75.9183740   5.3595040 132.3053520  76.2892570   4.5762360 131.8989490
  76.5585670   6.0484140 132.1270820  72.9017500   6.7431620 137.7183840
  72.0877340   7.1728780 137.9809630  73.3091700   7.3550030 137.1052890
  74.9642940   4.7979310 124.6184110  75.2391780   5.7058190 124.4903330
  74.7753680   4.7341840 125.5546100  74.8608280   2.7348300 129.6113540
  74.4851880   1.9676230 129.1794830  74.1311400   3.1171000 130.0988470
  59.4504040   3.4135440 136.2322590  59.8177080   3.3262840 137.1118610
  58.8814860   2.6501990 136.1329450  74.2507900   1.8819820 139.2453060
  74.0193990   1.6532570 138.3451010  74.5112450   2.8019370 139.1997950
  72.9593550  11.4950220 131.2452110  73.5552620  11.1734790 130.5686530
  73.2171700  11.0222040 132.0365380  60.8656120   7.9268130 141.3942740
  60.8225750   7.5561040 142.2757200  60.9967130   8.8645700 141.5344560
  64.5662150   9.4827720 136.9952460  64.3253510   9.7502280 136.1082980
  65.5064790   9.6533450 137.0503320  75.8266310  11.5022100 137.7963100
  75.3324590  11.8990970 137.0790230  75.2179600  10.8771310 138.1900380
  60.7044150  10.8730380 138.5140520  60.1104470  10.7415080 139.2530560
  60.6967990  10.0368520 138.0482620  73.5105760  12.1445520 135.0749840
  73.0508730  12.8961330 134.7007860  72.8818220  11.4251990 135.0164640
  60.3356380   8.2388760 137.4648560  59.6090440   7.6194050 137.3974510
  60.3965530   8.6329370 136.5946640  63.9401480  10.4533760 134.2497970
  64.4566500   9.8421120 133.7246230  64.5898860  10.9562540 134.7408980
  66.6796980  11.3442250 135.0766950  66.9674790  11.0896550 134.1999960
  67.1920200  10.7919610 135.6672520  58.6186380  11.5563150 130.6745320
  58.4508420  10.9233830 131.3727210  57.7520890  11.7622550 130.3239510
  60.2249080  10.2496380 128.1195460  59.6996700  10.6304410 127.4157420
  60.1493660  10.8747150 128.8405170  66.7469340  12.2658350 142.4435150
  67.6736650  12.0302620 142.4871110  66.7319770  13.0930350 141.9621180
  74.9814400  11.8083920 129.4409400  75.1566590  11.1221660 128.7970320
  74.2835970  12.3330970 129.0486070  62.8242050  12.1978760 126.9944710
  63.5560870  11.9138040 126.4468600  63.0835720  11.9592040 127.8844090
  61.9856840   8.3143490 126.9991040  61.3565720   8.7828590 127.5476870
  62.1004670   7.4692710 127.4337230  73.3146900  11.4928210 142.2676190
  74.1072220  10.9977440 142.0602150  73.6080050  12.1718350 142.8751800
  69.4406560   2.3649150 113.1492240  69.3600610   1.4503760 112.8783950
  69.0270980   2.8616220 112.4431950  67.5724600   4.1428170 115.0301510
  66.7966700   3.6628610 115.3200080  68.2237530   3.4633820 114.8557670
  61.5890430   4.4547980 115.9077270  60.7575310   4.1996690 116.3073780
  62.1971410   4.5258750 116.6435190  71.5932030   8.5488360 113.8100640
  71.1313560   7.7775600 114.1387810  72.4057580   8.5754430 114.3153090
  61.5691690   8.4888070 116.1035290  61.8719730   7.5985810 115.9245510
  62.3135280   9.0458290 115.8757540  67.8195340  10.8346370 113.4304630
  67.2006780  11.2903870 112.8599070  68.6747120  10.9897830 113.0294330
  67.0133590   6.8185360 115.0371670  66.9441870   5.8775300 114.8760800
  67.7753450   6.9086770 115.6094240  68.6858690   5.7185610 110.8236540
  68.0675960   6.1835060 110.2599260  69.1981940   6.4113090 111.2406050
  63.5490450   5.2461480 117.5020140  63.2159830   5.8730400 118.1441210
  63.7257130   5.7723360 116.7221810  62.7609550   7.2142280 119.3169320
  63.3783550   7.8893360 119.0353770  61.9002670   7.6230260 119.2256820
  58.0541890   6.4042140 108.1976170  57.6769870   6.8929240 107.4661070
  58.3114960   7.0767420 108.8282700  73.6787140   8.6781690 117.2323960
  72.9950660   9.3480800 117.2240630  74.2181430   8.8762340 116.4668820
  71.2145880  10.5225820 115.9469140  71.2273040  10.1188110 115.0791400
  70.6621100  11.2973110 115.8430570  72.5091300   7.2442040 111.0359310
  72.3987630   6.3016370 111.1608730  72.5059550   7.6057680 111.9222070
  70.6131320   5.4255660 117.2751750  71.0300110   5.2115770 116.4405210
  71.3371140   5.6828450 117.8460370  68.0511580   2.8707360 110.3921800
  67.1240860   2.8044740 110.6210270  68.2036400   3.8087490 110.2777040
  74.5593420   3.8242880 117.3667990  73.7312050   3.8935970 116.8918120
  75.1543900   4.4097190 116.8983820  72.0808870   4.4327660 110.8957050
  71.4621290   4.0947210 110.2483350  72.0633320   3.7887420 111.6036240
  63.6568220   3.3972100 113.1741530  63.2525220   2.6849350 112.6787430
  63.7431340   3.0525340 114.0629570  64.1249920   7.0839660 115.3380740
  63.8278210   6.4785130 114.6588520  65.0749740   7.1216970 115.2270100
  72.2135530  10.6571530 119.0003840  71.7366090  11.4643720 118.8076450
  71.5297320  10.0049860 119.1530050  63.2168350   6.8221350 121.9888540
  62.3196880   7.0461320 122.2361940  63.2421220   6.9456290 121.0399940
  70.2573570   3.6714470 107.9029800  70.6966850   2.8336900 107.7567620
  70.9701990   4.3043870 107.9893940  62.0439570   3.6934670 120.5645910
  61.9047340   4.5657470 120.9333310  61.1620930   3.3507480 120.4193850
  68.3668950   8.6110540 111.8711040  68.8064860   9.3534870 111.4566430
  68.3055840   8.8537110 112.7950000  63.8419920   9.6356370 122.7731060
  63.8135350  10.0399320 121.9059490  63.6784890   8.7066730 122.6102660
  60.3572850   2.2917080 110.6748180  60.2370450   3.0179170 110.0629450
  60.0473740   1.5219990 110.1976090  75.7934740  10.4183470 124.0695230
  76.2694460  10.8966360 124.7484310  76.4141900  10.3500960 123.3440730
  57.9958220   5.4632220 116.4816820  58.0738640   5.5980990 115.5372540
  58.6099900   4.7548110 116.6744940  59.2405850   7.1632410 112.8923000
  58.8333930   7.3047000 112.0376600  60.1318860   6.8792570 112.6894210
  75.1967990   7.6096320 121.2295240  75.3231050   7.3708200 120.3112420
  75.2389370   6.7780860 121.7017320  69.0584730  11.3124320 119.7990050
  69.5729400  11.2232330 120.6012480  68.2153810  11.6584020 120.0917960
  71.0339130  11.5979660 109.2274050  70.8740270  11.3082600 110.1255880
  70.8685840  10.8219790 108.6919280  63.5127510  11.3778190 111.0045670
  63.3369990  10.4613730 110.7913470  62.6583250  11.7365480 111.2443470
  70.7365260   9.1067220 107.7872050  70.0430420   9.1044510 107.1274330
  71.4788120   8.6826540 107.3566220  70.3015190  10.7329930 111.8620540
  70.7572140   9.9519310 112.1759160  70.6407710  11.4436750 112.4061720
  58.0517740   6.5046390 119.0211280  58.2148780   6.0351750 118.2030650
  58.5170190   5.9969950 119.6860120  64.5487540   1.9785800 107.3040360
  63.9804440   1.5304050 106.6776270  65.2576540   2.3378580 106.7705510
  59.6256720   5.8797820 121.1807090  59.2411510   5.2391490 121.7790050
  59.9368910   6.5833940 121.7501820  65.7753860   2.7274360 116.6615710
  66.1423990   2.2532930 117.4077050  65.5858920   3.6015930 117.0024050
  63.5653230   1.7683000 118.9799920  63.2610300   2.6474980 119.2050280
  64.5199690   1.8282790 119.0157360  62.0935020   5.9743990 109.5766770
  61.3197280   5.4341610 109.4165490  62.8229650   5.4550600 109.2384530
  72.8523000   4.9709350 115.3693160  73.5722120   5.4664640 114.9789270
  72.6504820   4.2927240 114.7247030  68.2341800   5.0418410 121.2562160
  68.1679110   4.1214080 121.0019750  67.6046940   5.1393850 121.9706800
  62.1372420   5.6424370 113.2145580  62.6551090   4.8392630 113.1602470
  61.6856440   5.5803510 114.0562410  67.0241920   6.9090650 108.4872880
  67.3657620   7.6532880 107.9916200  66.1954630   7.2221770 108.8497710
  59.6216960   2.6085740 120.1271280  59.2631900   3.2739590 120.7144620
  59.3271520   1.7769290 120.4983900  62.8230080   3.0669980 123.0110830
  62.5230220   3.2127160 122.1138650  63.5941320   2.5075270 122.9184220
  68.1658530   7.8638980 121.0065960  68.1803070   6.9319940 120.7884870
  67.4583630   7.9498740 121.6455730  73.2995600   2.0478800 107.2764570
  73.2159320   2.4793020 106.4261010  74.0189790   2.5077150 107.7091390
  74.3769740   4.5046320 120.3534540  73.6517930   5.0975100 120.1563930
  74.9045200   4.4969860 119.5547910  74.3282850   8.9021060 110.0046700
  73.6859010   8.2476680 110.2790420  73.9413510   9.3076150 109.2287370
  69.9069330   6.2306490 113.8518390  70.2593150   5.6334620 113.1919760
  69.0231660   5.9050720 114.0226640  65.9932610   6.9904180 111.2588800
  66.6803740   7.5373390 111.6396390  65.2065030   7.5344910 111.2938410
  58.1325010   2.6077000 106.7505880  59.0019860   2.8901800 107.0341800
  57.6415330   3.4212870 106.6354690  65.2959820   3.9950210 110.8714160
  65.7522600   4.8055460 111.0974350  64.9448030   3.6773350 111.7032650
  67.5992430   9.5056550 118.1006460  68.2434650   9.7115930 118.7779880
  67.9621870   8.7444950 117.6477310  68.8724510   7.5088900 116.8183910
  69.5146740   6.8082060 116.9316080  69.3973860   8.2887340 116.6380800
  72.7180230   7.7937520 106.5423050  72.4917810   7.0767960 107.1347690
  72.3276430   7.5449960 105.7044800  70.6462130   8.3083800 120.0219970
  70.9818370   8.8950490 120.6997890  69.7262470   8.1776510 120.2517760
  58.4996260  11.8204380 107.3167510  58.8593900  12.4193720 106.6624780
  58.3588600  12.3664270 108.0902540  72.2996480   5.7109460 108.2037210
  72.0118180   6.1722150 108.9915090  73.0948650   5.2507230 108.4721430
  58.4838120  10.0859240 121.7909910  58.5929240   9.1453980 121.6505300
  57.8318680  10.3513990 121.1423640  66.4750710   8.3575130 123.1908030
  66.1547580   7.6384370 123.7353720  65.8009070   9.0330200 123.2644090
  64.5164880   9.2035580 108.1341180  64.5074980   9.9365270 107.5185690
  63.5963240   8.9567160 108.2268140  60.1171520   4.4250470 108.8787940
  59.5099470   5.1649370 108.8883240  60.5920870   4.5149830 108.0526140
  67.5024480   9.2663820 106.7966370  67.6036460   9.0627810 105.8668350
  66.6026220   9.0122100 107.0014150  66.1442590  11.7850140 111.4914040
  66.3984090  11.7471530 110.5693410  65.1955070  11.6583470 111.4842290
  72.1495170   2.7042020 113.0672550  71.2085310   2.7192250 113.2420240
  72.4639240   1.9177980 113.5132850  62.1276810   4.3861620 106.6276510
  62.8940080   4.2742980 107.1901940  62.2051500   3.6899590 105.9753280
  74.1520750   9.8750870 114.7426810  74.2768170  10.6982040 115.2150620
  75.0186310   9.6641600 114.3950960  61.6238280  11.9682080 114.4143940
  62.3600760  11.4197540 114.6852510  62.0079200  12.8338090 114.2749930
  58.5083760   8.0355650 110.2885450  57.5823540   8.2776790 110.2790860
  58.9740190   8.8629910 110.1670200  60.6296560  11.1528150 123.6029520
  61.4309290  11.4740200 124.0164920  60.1148380  10.7923730 124.3249430
  64.7340590  11.1412390 106.2369510  65.5269200  11.4301220 105.7851300
  64.2144940  10.7104560 105.5581990  69.4661190   7.2608020 123.5504930
  68.8599350   7.2839620 122.8100680  69.1615300   6.5291060 124.0872180
  70.8961560  10.9888310 122.1614340  71.8483310  10.9046330 122.1114580
  70.7489780  11.6530020 122.8348130  73.7870760  10.3682520 107.6606250
  73.5012270   9.9547660 106.8460430  73.5890310  11.2970230 107.5406770
  58.3494370   3.6401610 122.5465570  58.8533390   3.0608890 123.1181800
  57.6101790   3.9241840 123.0841940  65.2517990   6.3615800 106.1011860
  65.1468630   5.7468150 106.8273240  65.0842210   5.8381690 105.3174870
  65.4032310   5.0472600 122.0801090  64.6377980   5.6157600 121.9955760
  65.5848270   4.7548810 121.1869320  68.4920720   5.4235830 106.7053850
  67.9430820   5.8705130 107.3496590  69.1139980   4.9185080 107.2291520
  72.5455660   6.7777930 122.6376110  73.2865130   7.1153690 122.1343570
  71.7828340   6.9469990 122.0845880  60.3817450   1.7831200 123.4415640
  60.4222790   1.4845070 124.3500870  61.2362950   2.1838810 123.2823160
  64.1595840   4.3826750 108.6019150  64.5812260   4.2166620 109.4450540
  64.2846680   3.5726980 108.1074290  66.6723480   3.4064360 105.8496250
  67.1929140   2.6913380 105.4837400  67.3191880   4.0450230 106.1496760
  71.2201320   4.8292760 121.1731320  71.6342340   4.9837840 122.0221740
  70.2852320   4.9547980 121.3357100  71.6923490   2.1688920 123.1770470
  72.2744260   1.4141240 123.0890950  71.8685260   2.6996360 122.4001950
  65.9816550   4.7813240 119.1427250  66.4004660   5.6245970 118.9703490
  65.0625180   4.9185280 118.9134030  68.3180450   2.5129420 120.5265090
  68.4376660   1.9170560 121.2659930  69.1774450   2.5499110 120.1066390
  70.6568350   3.0666610 119.1027600  70.1303570   3.5909230 118.4992740
  70.9999690   3.6994000 119.7337330  63.8323970  11.0866250 120.2584980
  63.2945060  11.8112310 119.9393680  64.0857930  10.6096590 119.4682320
  66.6886180  12.3217460 120.5171630  66.6144880  13.2252600 120.8244000
  65.7865020  12.0029360 120.4893700  67.2371510  11.4875970 108.1397990
  68.1322300  11.8260940 108.1616750  67.2689140  10.7655380 107.5122270
  60.8767670   6.8603020 106.3684990  61.3142540   7.4032690 107.0242570
  61.3615400   6.0349970 106.3781330  58.0913470   9.6492050 113.8205250
  58.4216480   8.7813110 113.5883890  58.5204470   9.8550570 114.6510210
  62.6875390   7.9801060 111.4807220  62.3870930   7.8566030 112.3811130
  62.5812880   7.1209650 111.0722950  58.5803680  10.5162640 116.5586880
  58.1434670  10.6963440 117.3911030  59.1481360  11.2737260 116.4168600
  74.2165860  10.0179640 120.8464190  73.6167850  10.0772200 120.1028110
  74.3459760   9.0784620 120.9761040  75.4567310   7.7597460 106.1833900
  74.6260270   7.8274110 106.6541130  75.6339140   8.6501580 105.8800760
  74.9123770   4.5044940 108.6868100  75.6742680   5.0741590 108.7927790
  74.9278140   3.9372140 109.4576410  58.4128110   3.0282870 112.9175760
  57.7576950   2.7594510 112.2735460  59.2506060   2.9187350 112.4677740
  75.9183740   5.3595040 113.5310030  76.2892570   4.5762360 113.1246000
  76.5585670   6.0484140 113.3527330  72.9017500   6.7431620 118.9440350
  72.0877340   7.1728780 119.2066140  73.3091700   7.3550030 118.3309400
  74.9642940   4.7979310 105.8440620  75.2391780   5.7058190 105.7159840
  74.7753680   4.7341840 106.7802610  74.8608280   2.7348300 110.8370050
  74.4851880   1.9676230 110.4051340  74.1311400   3.1171000 111.3244980
  59.4504040   3.4135440 117.4579100  59.8177080   3.3262840 118.3375120
  58.8814860   2.6501990 117.3585960  74.2507900   1.8819820 120.4709570
  74.0193990   1.6532570 119.5707520  74.5112450   2.8019370 120.4254460
  72.9593550  11.4950220 112.4708620  73.5552620  11.1734790 111.7943040
  73.2171700  11.0222040 113.2621890  60.8656120   7.9268130 122.6199250
  60.8225750   7.5561040 123.5013710  60.9967130   8.8645700 122.7601070
  64.5662150   9.4827720 118.2208970  64.3253510   9.7502280 117.3339490
  65.5064790   9.6533450 118.2759830  75.8266310  11.5022100 119.0219610
  75.3324590  11.8990970 118.3046740  75.2179600  10.8771310 119.4156890
  60.7044150  10.8730380 119.7397030  60.1104470  10.7415080 120.4787070
  60.6967990  10.0368520 119.2739130  73.5105760  12.1445520 116.3006350
  73.0508730  12.8961330 115.9264370  72.8818220  11.4251990 116.2421150
  60.3356380   8.2388760 118.6905070  59.6090440   7.6194050 118.6231020
  60.3965530   8.6329370 117.8203150  63.9401480  10.4533760 115.4754480
  64.4566500   9.8421120 114.9502740  64.5898860  10.9562540 115.9665490
  66.6796980  11.3442250 116.3023460  66.9674790  11.0896550 115.4256470
  67.1920200  10.7919610 116.8929030  58.6186380  11.5563150 111.9001830
  58.4508420  10.9233830 112.5983720  57.7520890  11.7622550 111.5496020
  60.2249080  10.2496380 109.3451970  59.6996700  10.6304410 108.6413930
  60.1493660  10.8747150 110.0661680  66.7469340  12.2658350 123.6691660
  67.6736650  12.0302620 123.7127620  66.7319770  13.0930350 123.1877690
  74.9814400  11.8083920 110.6665910  75.1566590  11.1221660 110.0226830
  74.2835970  12.3330970 110.2742580  62.8242050  12.1978760 108.2201220
  63.5560870  11.9138040 107.6725110  63.0835720  11.9592040 109.1100600
  61.9856840   8.3143490 108.2247550  61.3565720   8.7828590 108.7733380
  62.1004670   7.4692710 108.6593740  73.3146900  11.4928210 123.4932700
  74.1072220  10.9977440 123.2858660  73.6080050  12.1718350 124.1008310
  69.4406560   2.3649150  94.3748750  69.3600610   1.4503760  94.1040460
  69.0270980   2.8616220  93.6688460  67.5724600   4.1428170  96.2558020
  66.7966700   3.6628610  96.5456590  68.2237530   3.4633820  96.0814180
  61.5890430   4.4547980  97.1333780  60.7575310   4.1996690  97.5330290
  62.1971410   4.5258750  97.8691700  71.5932030   8.5488360  95.0357150
  71.1313560   7.7775600  95.3644320  72.4057580   8.5754430  95.5409600
  61.5691690   8.4888070  97.3291800  61.8719730   7.5985810  97.1502020
  62.3135280   9.0458290  97.1014050  67.8195340  10.8346370  94.6561140
  67.2006780  11.2903870  94.0855580  68.6747120  10.9897830  94.2550840
  67.0133590   6.8185360  96.2628180  66.9441870   5.8775300  96.1017310
  67.7753450   6.9086770  96.8350750  68.6858690   5.7185610  92.0493050
  68.0675960   6.1835060  91.4855770  69.1981940   6.4113090  92.4662560
  63.5490450   5.2461480  98.7276650  63.2159830   5.8730400  99.3697720
  63.7257130   5.7723360  97.9478320  62.7609550   7.2142280 100.5425830
  63.3783550   7.8893360 100.2610280  61.9002670   7.6230260 100.4513330
  58.0541890   6.4042140  89.4232680  57.6769870   6.8929240  88.6917580
  58.3114960   7.0767420  90.0539210  73.6787140   8.6781690  98.4580470
  72.9950660   9.3480800  98.4497140  74.2181430   8.8762340  97.6925330
  71.2145880  10.5225820  97.1725650  71.2273040  10.1188110  96.3047910
  70.6621100  11.2973110  97.0687080  72.5091300   7.2442040  92.2615820
  72.3987630   6.3016370  92.3865240  72.5059550   7.6057680  93.1478580
  70.6131320   5.4255660  98.5008260  71.0300110   5.2115770  97.6661720
  71.3371140   5.6828450  99.0716880  68.0511580   2.8707360  91.6178310
  67.1240860   2.8044740  91.8466780  68.2036400   3.8087490  91.5033550
  74.5593420   3.8242880  98.5924500  73.7312050   3.8935970  98.1174630
  75.1543900   4.4097190  98.1240330  72.0808870   4.4327660  92.1213560
  71.4621290   4.0947210  91.4739860  72.0633320   3.7887420  92.8292750
  63.6568220   3.3972100  94.3998040  63.2525220   2.6849350  93.9043940
  63.7431340   3.0525340  95.2886080  64.1249920   7.0839660  96.5637250
  63.8278210   6.4785130  95.8845030  65.0749740   7.1216970  96.4526610
  72.2135530  10.6571530 100.2260350  71.7366090  11.4643720 100.0332960
  71.5297320  10.0049860 100.3786560  63.2168350   6.8221350 103.2145050
  62.3196880   7.0461320 103.4618450  63.2421220   6.9456290 102.2656450
  70.2573570   3.6714470  89.1286310  70.6966850   2.8336900  88.9824130
  70.9701990   4.3043870  89.2150450  62.0439570   3.6934670 101.7902420
  61.9047340   4.5657470 102.1589820  61.1620930   3.3507480 101.6450360
  68.3668950   8.6110540  93.0967550  68.8064860   9.3534870  92.6822940
  68.3055840   8.8537110  94.0206510  63.8419920   9.6356370 103.9987570
  63.8135350  10.0399320 103.1316000  63.6784890   8.7066730 103.8359170
  60.3572850   2.2917080  91.9004690  60.2370450   3.0179170  91.2885960
  60.0473740   1.5219990  91.4232600  75.7934740  10.4183470 105.2951740
  76.2694460  10.8966360 105.9740820  76.4141900  10.3500960 104.5697240
  57.9958220   5.4632220  97.7073330  58.0738640   5.5980990  96.7629050
  58.6099900   4.7548110  97.9001450  59.2405850   7.1632410  94.1179510
  58.8333930   7.3047000  93.2633110  60.1318860   6.8792570  93.9150720
  75.1967990   7.6096320 102.4551750  75.3231050   7.3708200 101.5368930
  75.2389370   6.7780860 102.9273830  69.0584730  11.3124320 101.0246560
  69.5729400  11.2232330 101.8268990  68.2153810  11.6584020 101.3174470
  71.0339130  11.5979660  90.4530560  70.8740270  11.3082600  91.3512390
  70.8685840  10.8219790  89.9175790  63.5127510  11.3778190  92.2302180
  63.3369990  10.4613730  92.0169980  62.6583250  11.7365480  92.4699980
  70.7365260   9.1067220  89.0128560  70.0430420   9.1044510  88.3530840
  71.4788120   8.6826540  88.5822730  70.3015190  10.7329930  93.0877050
  70.7572140   9.9519310  93.4015670  70.6407710  11.4436750  93.6318230
  58.0517740   6.5046390 100.2467790  58.2148780   6.0351750  99.4287160
  58.5170190   5.9969950 100.9116630  64.5487540   1.9785800  88.5296870
  63.9804440   1.5304050  87.9032780  65.2576540   2.3378580  87.9962020
  59.6256720   5.8797820 102.4063600  59.2411510   5.2391490 103.0046560
  59.9368910   6.5833940 102.9758330  65.7753860   2.7274360  97.8872220
  66.1423990   2.2532930  98.6333560  65.5858920   3.6015930  98.2280560
  63.5653230   1.7683000 100.2056430  63.2610300   2.6474980 100.4306790
  64.5199690   1.8282790 100.2413870  62.0935020   5.9743990  90.8023280
  61.3197280   5.4341610  90.6422000  62.8229650   5.4550600  90.4641040
  72.8523000   4.9709350  96.5949670  73.5722120   5.4664640  96.2045780
  72.6504820   4.2927240  95.9503540  68.2341800   5.0418410 102.4818670
  68.1679110   4.1214080 102.2276260  67.6046940   5.1393850 103.1963310
  62.1372420   5.6424370  94.4402090  62.6551090   4.8392630  94.3858980
  61.6856440   5.5803510  95.2818920  67.0241920   6.9090650  89.7129390
  67.3657620   7.6532880  89.2172710  66.1954630   7.2221770  90.0754220
  59.6216960   2.6085740 101.3527790  59.2631900   3.2739590 101.9401130
  59.3271520   1.7769290 101.7240410  62.8230080   3.0669980 104.2367340
  62.5230220   3.2127160 103.3395160  63.5941320   2.5075270 104.1440730
  68.1658530   7.8638980 102.2322470  68.1803070   6.9319940 102.0141380
  67.4583630   7.9498740 102.8712240  73.2995600   2.0478800  88.5021080
  73.2159320   2.4793020  87.6517520  74.0189790   2.5077150  88.9347900
  74.3769740   4.5046320 101.5791050  73.6517930   5.0975100 101.3820440
  74.9045200   4.4969860 100.7804420  74.3282850   8.9021060  91.2303210
  73.6859010   8.2476680  91.5046930  73.9413510   9.3076150  90.4543880
  69.9069330   6.2306490  95.0774900  70.2593150   5.6334620  94.4176270
  69.0231660   5.9050720  95.2483150  65.9932610   6.9904180  92.4845310
  66.6803740   7.5373390  92.8652900  65.2065030   7.5344910  92.5194920
  58.1325010   2.6077000  87.9762390  59.0019860   2.8901800  88.2598310
  57.6415330   3.4212870  87.8611200  65.2959820   3.9950210  92.0970670
  65.7522600   4.8055460  92.3230860  64.9448030   3.6773350  92.9289160
  67.5992430   9.5056550  99.3262970  68.2434650   9.7115930 100.0036390
  67.9621870   8.7444950  98.8733820  68.8724510   7.5088900  98.0440420
  69.5146740   6.8082060  98.1572590  69.3973860   8.2887340  97.8637310
  72.7180230   7.7937520  87.7679560  72.4917810   7.0767960  88.3604200
  72.3276430   7.5449960  86.9301310  70.6462130   8.3083800 101.2476480
  70.9818370   8.8950490 101.9254400  69.7262470   8.1776510 101.4774270
  58.4996260  11.8204380  88.5424020  58.8593900  12.4193720  87.8881290
  58.3588600  12.3664270  89.3159050  72.2996480   5.7109460  89.4293720
  72.0118180   6.1722150  90.2171600  73.0948650   5.2507230  89.6977940
  58.4838120  10.0859240 103.0166420  58.5929240   9.1453980 102.8761810
  57.8318680  10.3513990 102.3680150  66.4750710   8.3575130 104.4164540
  66.1547580   7.6384370 104.9610230  65.8009070   9.0330200 104.4900600
  64.5164880   9.2035580  89.3597690  64.5074980   9.9365270  88.7442200
  63.5963240   8.9567160  89.4524650  60.1171520   4.4250470  90.1044450
  59.5099470   5.1649370  90.1139750  60.5920870   4.5149830  89.2782650
  67.5024480   9.2663820  88.0222880  67.6036460   9.0627810  87.0924860
  66.6026220   9.0122100  88.2270660  66.1442590  11.7850140  92.7170550
  66.3984090  11.7471530  91.7949920  65.1955070  11.6583470  92.7098800
  72.1495170   2.7042020  94.2929060  71.2085310   2.7192250  94.4676750
  72.4639240   1.9177980  94.7389360  62.1276810   4.3861620  87.8533020
  62.8940080   4.2742980  88.4158450  62.2051500   3.6899590  87.2009790
  74.1520750   9.8750870  95.9683320  74.2768170  10.6982040  96.4407130
  75.0186310   9.6641600  95.6207470  61.6238280  11.9682080  95.6400450
  62.3600760  11.4197540  95.9109020  62.0079200  12.8338090  95.5006440
  58.5083760   8.0355650  91.5141960  57.5823540   8.2776790  91.5047370
  58.9740190   8.8629910  91.3926710  60.6296560  11.1528150 104.8286030
  61.4309290  11.4740200 105.2421430  60.1148380  10.7923730 105.5505940
  64.7340590  11.1412390  87.4626020  65.5269200  11.4301220  87.0107810
  64.2144940  10.7104560  86.7838500  69.4661190   7.2608020 104.7761440
  68.8599350   7.2839620 104.0357190  69.1615300   6.5291060 105.3128690
  70.8961560  10.9888310 103.3870850  71.8483310  10.9046330 103.3371090
  70.7489780  11.6530020 104.0604640  73.7870760  10.3682520  88.8862760
  73.5012270   9.9547660  88.0716940  73.5890310  11.2970230  88.7663280
  58.3494370   3.6401610 103.7722080  58.8533390   3.0608890 104.3438310
  57.6101790   3.9241840 104.3098450  65.2517990   6.3615800  87.3268370
  65.1468630   5.7468150  88.0529750  65.0842210   5.8381690  86.5431380
  65.4032310   5.0472600 103.3057600  64.6377980   5.6157600 103.2212270
  65.5848270   4.7548810 102.4125830  68.4920720   5.4235830  87.9310360
  67.9430820   5.8705130  88.5753100  69.1139980   4.9185080  88.4548030
  72.5455660   6.7777930 103.8632620  73.2865130   7.1153690 103.3600080
  71.7828340   6.9469990 103.3102390  60.3817450   1.7831200 104.6672150
  60.4222790   1.4845070 105.5757380  61.2362950   2.1838810 104.5079670
  64.1595840   4.3826750  89.8275660  64.5812260   4.2166620  90.6707050
  64.2846680   3.5726980  89.3330800  66.6723480   3.4064360  87.0752760
  67.1929140   2.6913380  86.7093910  67.3191880   4.0450230  87.3753270
  71.2201320   4.8292760 102.3987830  71.6342340   4.9837840 103.2478250
  70.2852320   4.9547980 102.5613610  71.6923490   2.1688920 104.4026980
  72.2744260   1.4141240 104.3147460  71.8685260   2.6996360 103.6258460
  65.9816550   4.7813240 100.3683760  66.4004660   5.6245970 100.1960000
  65.0625180   4.9185280 100.1390540  68.3180450   2.5129420 101.7521600
  68.4376660   1.9170560 102.4916440  69.1774450   2.5499110 101.3322900
  70.6568350   3.0666610 100.3284110  70.1303570   3.5909230  99.7249250
  70.9999690   3.6994000 100.9593840  63.8323970  11.0866250 101.4841490
  63.2945060  11.8112310 101.1650190  64.0857930  10.6096590 100.6938830
  66.6886180  12.3217460 101.7428140  66.6144880  13.2252600 102.0500510
  65.7865020  12.0029360 101.7150210  67.2371510  11.4875970  89.3654500
  68.1322300  11.8260940  89.3873260  67.2689140  10.7655380  88.7378780
  60.8767670   6.8603020  87.5941500  61.3142540   7.4032690  88.2499080
  61.3615400   6.0349970  87.6037840  58.0913470   9.6492050  95.0461760
  58.4216480   8.7813110  94.8140400  58.5204470   9.8550570  95.8766720
  62.6875390   7.9801060  92.7063730  62.3870930   7.8566030  93.6067640
  62.5812880   7.1209650  92.2979460  58.5803680  10.5162640  97.7843390
  58.1434670  10.6963440  98.6167540  59.1481360  11.2737260  97.6425110
  74.2165860  10.0179640 102.0720700  73.6167850  10.0772200 101.3284620
  74.3459760   9.0784620 102.2017550  75.4567310   7.7597460  87.4090410
  74.6260270   7.8274110  87.8797640  75.6339140   8.6501580  87.1057270
  74.9123770   4.5044940  89.9124610  75.6742680   5.0741590  90.0184300
  74.9278140   3.9372140  90.6832920  58.4128110   3.0282870  94.1432270
  57.7576950   2.7594510  93.4991970  59.2506060   2.9187350  93.6934250
  75.9183740   5.3595040  94.7566540  76.2892570   4.5762360  94.3502510
  76.5585670   6.0484140  94.5783840  72.9017500   6.7431620 100.1696860
  72.0877340   7.1728780 100.4322650  73.3091700   7.3550030  99.5565910
  74.9642940   4.7979310  87.0697130  75.2391780   5.7058190  86.9416350
  74.7753680   4.7341840  88.0059120  74.8608280   2.7348300  92.0626560
  74.4851880   1.9676230  91.6307850  74.1311400   3.1171000  92.5501490
  59.4504040   3.4135440  98.6835610  59.8177080   3.3262840  99.5631630
  58.8814860   2.6501990  98.5842470  74.2507900   1.8819820 101.6966080
  74.0193990   1.6532570 100.7964030  74.5112450   2.8019370 101.6510970
  72.9593550  11.4950220  93.6965130  73.5552620  11.1734790  93.0199550
  73.2171700  11.0222040  94.4878400  60.8656120   7.9268130 103.8455760
  60.8225750   7.5561040 104.7270220  60.9967130   8.8645700 103.9857580
  64.5662150   9.4827720  99.4465480  64.3253510   9.7502280  98.5596000
  65.5064790   9.6533450  99.5016340  75.8266310  11.5022100 100.2476120
  75.3324590  11.8990970  99.5303250  75.2179600  10.8771310 100.6413400
  60.7044150  10.8730380 100.9653540  60.1104470  10.7415080 101.7043580
  60.6967990  10.0368520 100.4995640  73.5105760  12.1445520  97.5262860
  73.0508730  12.8961330  97.1520880  72.8818220  11.4251990  97.4677660
  60.3356380   8.2388760  99.9161580  59.6090440   7.6194050  99.8487530
  60.3965530   8.6329370  99.0459660  63.9401480  10.4533760  96.7010990
  64.4566500   9.8421120  96.1759250  64.5898860  10.9562540  97.1922000
  66.6796980  11.3442250  97.5279970  66.9674790  11.0896550  96.6512980
  67.1920200  10.7919610  98.1185540  58.6186380  11.5563150  93.1258340
  58.4508420  10.9233830  93.8240230  57.7520890  11.7622550  92.7752530
  60.2249080  10.2496380  90.5708480  59.6996700  10.6304410  89.8670440
  60.1493660  10.8747150  91.2918190  66.7469340  12.2658350 104.8948170
  67.6736650  12.0302620 104.9384130  66.7319770  13.0930350 104.4134200
  74.9814400  11.8083920  91.8922420  75.1566590  11.1221660  91.2483340
  74.2835970  12.3330970  91.4999090  62.8242050  12.1978760  89.4457730
  63.5560870  11.9138040  88.8981620  63.0835720  11.9592040  90.3357110
  61.9856840   8.3143490  89.4504060  61.3565720   8.7828590  89.9989890
  62.1004670   7.4692710  89.8850250  73.3146900  11.4928210 104.7189210
  74.1072220  10.9977440 104.5115170  73.6080050  12.1718350 105.3264820
  69.4406560   2.3649150  75.6005260  69.3600610   1.4503760  75.3296970
  69.0270980   2.8616220  74.8944970  67.5724600   4.1428170  77.4814530
  66.7966700   3.6628610  77.7713100  68.2237530   3.4633820  77.3070690
  61.5890430   4.4547980  78.3590290  60.7575310   4.1996690  78.7586800
  62.1971410   4.5258750  79.0948210  71.5932030   8.5488360  76.2613660
  71.1313560   7.7775600  76.5900830  72.4057580   8.5754430  76.7666110
  61.5691690   8.4888070  78.5548310  61.8719730   7.5985810  78.3758530
  62.3135280   9.0458290  78.3270560  67.8195340  10.8346370  75.8817650
  67.2006780  11.2903870  75.3112090  68.6747120  10.9897830  75.4807350
  67.0133590   6.8185360  77.4884690  66.9441870   5.8775300  77.3273820
  67.7753450   6.9086770  78.0607260  68.6858690   5.7185610  73.2749560
  68.0675960   6.1835060  72.7112280  69.1981940   6.4113090  73.6919070
  63.5490450   5.2461480  79.9533160  63.2159830   5.8730400  80.5954230
  63.7257130   5.7723360  79.1734830  62.7609550   7.2142280  81.7682340
  63.3783550   7.8893360  81.4866790  61.9002670   7.6230260  81.6769840
  58.0541890   6.4042140  70.6489190  57.6769870   6.8929240  69.9174090
  58.3114960   7.0767420  71.2795720  73.6787140   8.6781690  79.6836980
  72.9950660   9.3480800  79.6753650  74.2181430   8.8762340  78.9181840
  71.2145880  10.5225820  78.3982160  71.2273040  10.1188110  77.5304420
  70.6621100  11.2973110  78.2943590  72.5091300   7.2442040  73.4872330
  72.3987630   6.3016370  73.6121750  72.5059550   7.6057680  74.3735090
  70.6131320   5.4255660  79.7264770  71.0300110   5.2115770  78.8918230
  71.3371140   5.6828450  80.2973390  68.0511580   2.8707360  72.8434820
  67.1240860   2.8044740  73.0723290  68.2036400   3.8087490  72.7290060
  74.5593420   3.8242880  79.8181010  73.7312050   3.8935970  79.3431140
  75.1543900   4.4097190  79.3496840  72.0808870   4.4327660  73.3470070
  71.4621290   4.0947210  72.6996370  72.0633320   3.7887420  74.0549260
  63.6568220   3.3972100  75.6254550  63.2525220   2.6849350  75.1300450
  63.7431340   3.0525340  76.5142590  64.1249920   7.0839660  77.7893760
  63.8278210   6.4785130  77.1101540  65.0749740   7.1216970  77.6783120
  72.2135530  10.6571530  81.4516860  71.7366090  11.4643720  81.2589470
  71.5297320  10.0049860  81.6043070  63.2168350   6.8221350  84.4401560
  62.3196880   7.0461320  84.6874960  63.2421220   6.9456290  83.4912960
  70.2573570   3.6714470  70.3542820  70.6966850   2.8336900  70.2080640
  70.9701990   4.3043870  70.4406960  62.0439570   3.6934670  83.0158930
  61.9047340   4.5657470  83.3846330  61.1620930   3.3507480  82.8706870
  68.3668950   8.6110540  74.3224060  68.8064860   9.3534870  73.9079450
  68.3055840   8.8537110  75.2463020  63.8419920   9.6356370  85.2244080
  63.8135350  10.0399320  84.3572510  63.6784890   8.7066730  85.0615680
  60.3572850   2.2917080  73.1261200  60.2370450   3.0179170  72.5142470
  60.0473740   1.5219990  72.6489110  75.7934740  10.4183470  86.5208250
  76.2694460  10.8966360  87.1997330  76.4141900  10.3500960  85.7953750
  57.9958220   5.4632220  78.9329840  58.0738640   5.5980990  77.9885560
  58.6099900   4.7548110  79.1257960  59.2405850   7.1632410  75.3436020
  58.8333930   7.3047000  74.4889620  60.1318860   6.8792570  75.1407230
  75.1967990   7.6096320  83.6808260  75.3231050   7.3708200  82.7625440
  75.2389370   6.7780860  84.1530340  69.0584730  11.3124320  82.2503070
  69.5729400  11.2232330  83.0525500  68.2153810  11.6584020  82.5430980
  71.0339130  11.5979660  71.6787070  70.8740270  11.3082600  72.5768900
  70.8685840  10.8219790  71.1432300  63.5127510  11.3778190  73.4558690
  63.3369990  10.4613730  73.2426490  62.6583250  11.7365480  73.6956490
  70.7365260   9.1067220  70.2385070  70.0430420   9.1044510  69.5787350
  71.4788120   8.6826540  69.8079240  70.3015190  10.7329930  74.3133560
  70.7572140   9.9519310  74.6272180  70.6407710  11.4436750  74.8574740
  58.0517740   6.5046390  81.4724300  58.2148780   6.0351750  80.6543670
  58.5170190   5.9969950  82.1373140  64.5487540   1.9785800  69.7553380
  63.9804440   1.5304050  69.1289290  65.2576540   2.3378580  69.2218530
  59.6256720   5.8797820  83.6320110  59.2411510   5.2391490  84.2303070
  59.9368910   6.5833940  84.2014840  65.7753860   2.7274360  79.1128730
  66.1423990   2.2532930  79.8590070  65.5858920   3.6015930  79.4537070
  63.5653230   1.7683000  81.4312940  63.2610300   2.6474980  81.6563300
  64.5199690   1.8282790  81.4670380  62.0935020   5.9743990  72.0279790
  61.3197280   5.4341610  71.8678510  62.8229650   5.4550600  71.6897550
  72.8523000   4.9709350  77.8206180  73.5722120   5.4664640  77.4302290
  72.6504820   4.2927240  77.1760050  68.2341800   5.0418410  83.7075180
  68.1679110   4.1214080  83.4532770  67.6046940   5.1393850  84.4219820
  62.1372420   5.6424370  75.6658600  62.6551090   4.8392630  75.6115490
  61.6856440   5.5803510  76.5075430  67.0241920   6.9090650  70.9385900
  67.3657620   7.6532880  70.4429220  66.1954630   7.2221770  71.3010730
  59.6216960   2.6085740  82.5784300  59.2631900   3.2739590  83.1657640
  59.3271520   1.7769290  82.9496920  62.8230080   3.0669980  85.4623850
  62.5230220   3.2127160  84.5651670  63.5941320   2.5075270  85.3697240
  68.1658530   7.8638980  83.4578980  68.1803070   6.9319940  83.2397890
  67.4583630   7.9498740  84.0968750  73.2995600   2.0478800  69.7277590
  73.2159320   2.4793020  68.8774030  74.0189790   2.5077150  70.1604410
  74.3769740   4.5046320  82.8047560  73.6517930   5.0975100  82.6076950
  74.9045200   4.4969860  82.0060930  74.3282850   8.9021060  72.4559720
  73.6859010   8.2476680  72.7303440  73.9413510   9.3076150  71.6800390
  69.9069330   6.2306490  76.3031410  70.2593150   5.6334620  75.6432780
  69.0231660   5.9050720  76.4739660  65.9932610   6.9904180  73.7101820
  66.6803740   7.5373390  74.0909410  65.2065030   7.5344910  73.7451430
  58.1325010   2.6077000  69.2018900  59.0019860   2.8901800  69.4854820
  57.6415330   3.4212870  69.0867710  65.2959820   3.9950210  73.3227180
  65.7522600   4.8055460  73.5487370  64.9448030   3.6773350  74.1545670
  67.5992430   9.5056550  80.5519480  68.2434650   9.7115930  81.2292900
  67.9621870   8.7444950  80.0990330  68.8724510   7.5088900  79.2696930
  69.5146740   6.8082060  79.3829100  69.3973860   8.2887340  79.0893820
  72.7180230   7.7937520  68.9936070  72.4917810   7.0767960  69.5860710
  72.3276430   7.5449960  68.1557820  70.6462130   8.3083800  82.4732990
  70.9818370   8.8950490  83.1510910  69.7262470   8.1776510  82.7030780
  58.4996260  11.8204380  69.7680530  58.8593900  12.4193720  69.1137800
  58.3588600  12.3664270  70.5415560  72.2996480   5.7109460  70.6550230
  72.0118180   6.1722150  71.4428110  73.0948650   5.2507230  70.9234450
  58.4838120  10.0859240  84.2422930  58.5929240   9.1453980  84.1018320
  57.8318680  10.3513990  83.5936660  66.4750710   8.3575130  85.6421050
  66.1547580   7.6384370  86.1866740  65.8009070   9.0330200  85.7157110
  64.5164880   9.2035580  70.5854200  64.5074980   9.9365270  69.9698710
  63.5963240   8.9567160  70.6781160  60.1171520   4.4250470  71.3300960
  59.5099470   5.1649370  71.3396260  60.5920870   4.5149830  70.5039160
  67.5024480   9.2663820  69.2479390  67.6036460   9.0627810  68.3181370
  66.6026220   9.0122100  69.4527170  66.1442590  11.7850140  73.9427060
  66.3984090  11.7471530  73.0206430  65.1955070  11.6583470  73.9355310
  72.1495170   2.7042020  75.5185570  71.2085310   2.7192250  75.6933260
  72.4639240   1.9177980  75.9645870  62.1276810   4.3861620  69.0789530
  62.8940080   4.2742980  69.6414960  62.2051500   3.6899590  68.4266300
  74.1520750   9.8750870  77.1939830  74.2768170  10.6982040  77.6663640
  75.0186310   9.6641600  76.8463980  61.6238280  11.9682080  76.8656960
  62.3600760  11.4197540  77.1365530  62.0079200  12.8338090  76.7262950
  58.5083760   8.0355650  72.7398470  57.5823540   8.2776790  72.7303880
  58.9740190   8.8629910  72.6183220  60.6296560  11.1528150  86.0542540
  61.4309290  11.4740200  86.4677940  60.1148380  10.7923730  86.7762450
  64.7340590  11.1412390  68.6882530  65.5269200  11.4301220  68.2364320
  64.2144940  10.7104560  68.0095010  69.4661190   7.2608020  86.0017950
  68.8599350   7.2839620  85.2613700  69.1615300   6.5291060  86.5385200
  70.8961560  10.9888310  84.6127360  71.8483310  10.9046330  84.5627600
  70.7489780  11.6530020  85.2861150  73.7870760  10.3682520  70.1119270
  73.5012270   9.9547660  69.2973450  73.5890310  11.2970230  69.9919790
  58.3494370   3.6401610  84.9978590  58.8533390   3.0608890  85.5694820
  57.6101790   3.9241840  85.5354960  65.2517990   6.3615800  68.5524880
  65.1468630   5.7468150  69.2786260  65.0842210   5.8381690  67.7687890
  65.4032310   5.0472600  84.5314110  64.6377980   5.6157600  84.4468780
  65.5848270   4.7548810  83.6382340  68.4920720   5.4235830  69.1566870
  67.9430820   5.8705130  69.8009610  69.1139980   4.9185080  69.6804540
  72.5455660   6.7777930  85.0889130  73.2865130   7.1153690  84.5856590
  71.7828340   6.9469990  84.5358900  60.3817450   1.7831200  85.8928660
  60.4222790   1.4845070  86.8013890  61.2362950   2.1838810  85.7336180
  64.1595840   4.3826750  71.0532170  64.5812260   4.2166620  71.8963560
  64.2846680   3.5726980  70.5587310  66.6723480   3.4064360  68.3009270
  67.1929140   2.6913380  67.9350420  67.3191880   4.0450230  68.6009780
  71.2201320   4.8292760  83.6244340  71.6342340   4.9837840  84.4734760
  70.2852320   4.9547980  83.7870120  71.6923490   2.1688920  85.6283490
  72.2744260   1.4141240  85.5403970  71.8685260   2.6996360  84.8514970
  65.9816550   4.7813240  81.5940270  66.4004660   5.6245970  81.4216510
  65.0625180   4.9185280  81.3647050  68.3180450   2.5129420  82.9778110
  68.4376660   1.9170560  83.7172950  69.1774450   2.5499110  82.5579410
  70.6568350   3.0666610  81.5540620  70.1303570   3.5909230  80.9505760
  70.9999690   3.6994000  82.1850350  63.8323970  11.0866250  82.7098000
  63.2945060  11.8112310  82.3906700  64.0857930  10.6096590  81.9195340
  66.6886180  12.3217460  82.9684650  66.6144880  13.2252600  83.2757020
  65.7865020  12.0029360  82.9406720  67.2371510  11.4875970  70.5911010
  68.1322300  11.8260940  70.6129770  67.2689140  10.7655380  69.9635290
  60.8767670   6.8603020  68.8198010  61.3142540   7.4032690  69.4755590
  61.3615400   6.0349970  68.8294350  58.0913470   9.6492050  76.2718270
  58.4216480   8.7813110  76.0396910  58.5204470   9.8550570  77.1023230
  62.6875390   7.9801060  73.9320240  62.3870930   7.8566030  74.8324150
  62.5812880   7.1209650  73.5235970  58.5803680  10.5162640  79.0099900
  58.1434670  10.6963440  79.8424050  59.1481360  11.2737260  78.8681620
  74.2165860  10.0179640  83.2977210  73.6167850  10.0772200  82.5541130
  74.3459760   9.0784620  83.4274060  75.4567310   7.7597460  68.6346920
  74.6260270   7.8274110  69.1054150  75.6339140   8.6501580  68.3313780
  74.9123770   4.5044940  71.1381120  75.6742680   5.0741590  71.2440810
  74.9278140   3.9372140  71.9089430  58.4128110   3.0282870  75.3688780
  57.7576950   2.7594510  74.7248480  59.2506060   2.9187350  74.9190760
  75.9183740   5.3595040  75.9823050  76.2892570   4.5762360  75.5759020
  76.5585670   6.0484140  75.8040350  72.9017500   6.7431620  81.3953370
  72.0877340   7.1728780  81.6579160  73.3091700   7.3550030  80.7822420
  74.9642940   4.7979310  68.2953640  75.2391780   5.7058190  68.1672860
  74.7753680   4.7341840  69.2315630  74.8608280   2.7348300  73.2883070
  74.4851880   1.9676230  72.8564360  74.1311400   3.1171000  73.7758000
  59.4504040   3.4135440  79.9092120  59.8177080   3.3262840  80.7888140
  58.8814860   2.6501990  79.8098980  74.2507900   1.8819820  82.9222590
  74.0193990   1.6532570  82.0220540  74.5112450   2.8019370  82.8767480
  72.9593550  11.4950220  74.9221640  73.5552620  11.1734790  74.2456060
  73.2171700  11.0222040  75.7134910  60.8656120   7.9268130  85.0712270
  60.8225750   7.5561040  85.9526730  60.9967130   8.8645700  85.2114090
  64.5662150   9.4827720  80.6721990  64.3253510   9.7502280  79.7852510
  65.5064790   9.6533450  80.7272850  60.7044150  10.8730380  82.1910050
  60.1104470  10.7415080  82.9300090  60.6967990  10.0368520  81.7252150
  73.5105760  12.1445520  78.7519370  73.0508730  12.8961330  78.3777390
  72.8818220  11.4251990  78.6934170  60.3356380   8.2388760  81.1418090
  59.6090440   7.6194050  81.0744040  60.3965530   8.6329370  80.2716170
  63.9401480  10.4533760  77.9267500  64.4566500   9.8421120  77.4015760
  64.5898860  10.9562540  78.4178510  66.6796980  11.3442250  78.7536480
  66.9674790  11.0896550  77.8769490  67.1920200  10.7919610  79.3442050
  58.6186380  11.5563150  74.3514850  58.4508420  10.9233830  75.0496740
  57.7520890  11.7622550  74.0009040  60.2249080  10.2496380  71.7964990
  59.6996700  10.6304410  71.0926950  60.1493660  10.8747150  72.5174700
  66.7469340  12.2658350  86.1204680  67.6736650  12.0302620  86.1640640
  66.7319770  13.0930350  85.6390710  74.9814400  11.8083920  73.1178930
  75.1566590  11.1221660  72.4739850  74.2835970  12.3330970  72.7255600
  61.9856840   8.3143490  70.6760570  61.3565720   8.7828590  71.2246400
  62.1004670   7.4692710  71.1106760  73.3146900  11.4928210  85.9445720
  74.1072220  10.9977440  85.7371680  73.6080050  12.1718350  86.5521330
  69.4406560   2.3649150  56.8261770  69.3600610   1.4503760  56.5553480
  69.0270980   2.8616220  56.1201480  67.5724600   4.1428170  58.7071040
  66.7966700   3.6628610  58.9969610  68.2237530   3.4633820  58.5327200
  61.5890430   4.4547980  59.5846800  60.7575310   4.1996690  59.9843310
  62.1971410   4.5258750  60.3204720  71.5932030   8.5488360  57.4870170
  71.1313560   7.7775600  57.8157340  72.4057580   8.5754430  57.9922620
  61.5691690   8.4888070  59.7804820  61.8719730   7.5985810  59.6015040
  62.3135280   9.0458290  59.5527070  67.8195340  10.8346370  57.1074160
  67.2006780  11.2903870  56.5368600  68.6747120  10.9897830  56.7063860
  67.0133590   6.8185360  58.7141200  66.9441870   5.8775300  58.5530330
  67.7753450   6.9086770  59.2863770  68.6858690   5.7185610  54.5006070
  68.0675960   6.1835060  53.9368790  69.1981940   6.4113090  54.9175580
  63.5490450   5.2461480  61.1789670  63.2159830   5.8730400  61.8210740
  63.7257130   5.7723360  60.3991340  62.7609550   7.2142280  62.9938850
  63.3783550   7.8893360  62.7123300  61.9002670   7.6230260  62.9026350
  58.0541890   6.4042140  51.8745700  57.6769870   6.8929240  51.1430600
  58.3114960   7.0767420  52.5052230  73.6787140   8.6781690  60.9093490
  72.9950660   9.3480800  60.9010160  74.2181430   8.8762340  60.1438350
  71.2145880  10.5225820  59.6238670  71.2273040  10.1188110  58.7560930
  70.6621100  11.2973110  59.5200100  72.5091300   7.2442040  54.7128840
  72.3987630   6.3016370  54.8378260  72.5059550   7.6057680  55.5991600
  70.6131320   5.4255660  60.9521280  71.0300110   5.2115770  60.1174740
  71.3371140   5.6828450  61.5229900  68.0511580   2.8707360  54.0691330
  67.1240860   2.8044740  54.2979800  68.2036400   3.8087490  53.9546570
  74.5593420   3.8242880  61.0437520  73.7312050   3.8935970  60.5687650
  75.1543900   4.4097190  60.5753350  72.0808870   4.4327660  54.5726580
  71.4621290   4.0947210  53.9252880  72.0633320   3.7887420  55.2805770
  63.6568220   3.3972100  56.8511060  63.2525220   2.6849350  56.3556960
  63.7431340   3.0525340  57.7399100  64.1249920   7.0839660  59.0150270
  63.8278210   6.4785130  58.3358050  65.0749740   7.1216970  58.9039630
  72.2135530  10.6571530  62.6773370  71.7366090  11.4643720  62.4845980
  71.5297320  10.0049860  62.8299580  63.2168350   6.8221350  65.6658070
  62.3196880   7.0461320  65.9131470  63.2421220   6.9456290  64.7169470
  70.2573570   3.6714470  51.5799330  70.6966850   2.8336900  51.4337150
  70.9701990   4.3043870  51.6663470  62.0439570   3.6934670  64.2415440
  61.9047340   4.5657470  64.6102840  61.1620930   3.3507480  64.0963380
  68.3668950   8.6110540  55.5480570  68.8064860   9.3534870  55.1335960
  68.3055840   8.8537110  56.4719530  63.8419920   9.6356370  66.4500590
  63.8135350  10.0399320  65.5829020  63.6784890   8.7066730  66.2872190
  60.3572850   2.2917080  54.3517710  60.2370450   3.0179170  53.7398980
  60.0473740   1.5219990  53.8745620  75.7934740  10.4183470  67.7464760
  76.2694460  10.8966360  68.4253840  76.4141900  10.3500960  67.0210260
  57.9958220   5.4632220  60.1586350  58.0738640   5.5980990  59.2142070
  58.6099900   4.7548110  60.3514470  59.2405850   7.1632410  56.5692530
  58.8333930   7.3047000  55.7146130  60.1318860   6.8792570  56.3663740
  75.1967990   7.6096320  64.9064770  75.3231050   7.3708200  63.9881950
  75.2389370   6.7780860  65.3786850  69.0584730  11.3124320  63.4759580
  69.5729400  11.2232330  64.2782010  68.2153810  11.6584020  63.7687490
  71.0339130  11.5979660  52.9043580  70.8740270  11.3082600  53.8025410
  70.8685840  10.8219790  52.3688810  63.5127510  11.3778190  54.6815200
  63.3369990  10.4613730  54.4683000  62.6583250  11.7365480  54.9213000
  70.7365260   9.1067220  51.4641580  70.0430420   9.1044510  50.8043860
  71.4788120   8.6826540  51.0335750  70.3015190  10.7329930  55.5390070
  70.7572140   9.9519310  55.8528690  70.6407710  11.4436750  56.0831250
  58.0517740   6.5046390  62.6980810  58.2148780   6.0351750  61.8800180
  58.5170190   5.9969950  63.3629650  64.5487540   1.9785800  50.9809890
  63.9804440   1.5304050  50.3545800  65.2576540   2.3378580  50.4475040
  59.6256720   5.8797820  64.8576620  59.2411510   5.2391490  65.4559580
  59.9368910   6.5833940  65.4271350  65.7753860   2.7274360  60.3385240
  66.1423990   2.2532930  61.0846580  65.5858920   3.6015930  60.6793580
  63.5653230   1.7683000  62.6569450  63.2610300   2.6474980  62.8819810
  64.5199690   1.8282790  62.6926890  62.0935020   5.9743990  53.2536300
  61.3197280   5.4341610  53.0935020  62.8229650   5.4550600  52.9154060
  72.8523000   4.9709350  59.0462690  73.5722120   5.4664640  58.6558800
  72.6504820   4.2927240  58.4016560  68.2341800   5.0418410  64.9331690
  68.1679110   4.1214080  64.6789280  67.6046940   5.1393850  65.6476330
  62.1372420   5.6424370  56.8915110  62.6551090   4.8392630  56.8372000
  61.6856440   5.5803510  57.7331940  67.0241920   6.9090650  52.1642410
  67.3657620   7.6532880  51.6685730  66.1954630   7.2221770  52.5267240
  59.6216960   2.6085740  63.8040810  59.2631900   3.2739590  64.3914150
  59.3271520   1.7769290  64.1753430  62.8230080   3.0669980  66.6880360
  62.5230220   3.2127160  65.7908180  63.5941320   2.5075270  66.5953750
  68.1658530   7.8638980  64.6835490  68.1803070   6.9319940  64.4654400
  67.4583630   7.9498740  65.3225260  73.2995600   2.0478800  50.9534100
  73.2159320   2.4793020  50.1030540  74.0189790   2.5077150  51.3860920
  74.3769740   4.5046320  64.0304070  73.6517930   5.0975100  63.8333460
  74.9045200   4.4969860  63.2317440  74.3282850   8.9021060  53.6816230
  73.6859010   8.2476680  53.9559950  73.9413510   9.3076150  52.9056900
  69.9069330   6.2306490  57.5287920  70.2593150   5.6334620  56.8689290
  69.0231660   5.9050720  57.6996170  65.9932610   6.9904180  54.9358330
  66.6803740   7.5373390  55.3165920  65.2065030   7.5344910  54.9707940
  58.1325010   2.6077000  50.4275410  59.0019860   2.8901800  50.7111330
  57.6415330   3.4212870  50.3124220  65.2959820   3.9950210  54.5483690
  65.7522600   4.8055460  54.7743880  64.9448030   3.6773350  55.3802180
  67.5992430   9.5056550  61.7775990  68.2434650   9.7115930  62.4549410
  67.9621870   8.7444950  61.3246840  68.8724510   7.5088900  60.4953440
  69.5146740   6.8082060  60.6085610  69.3973860   8.2887340  60.3150330
  72.7180230   7.7937520  50.2192580  72.4917810   7.0767960  50.8117220
  72.3276430   7.5449960  49.3814330  70.6462130   8.3083800  63.6989500
  70.9818370   8.8950490  64.3767420  69.7262470   8.1776510  63.9287290
  58.4996260  11.8204380  50.9937040  58.8593900  12.4193720  50.3394310
  58.3588600  12.3664270  51.7672070  72.2996480   5.7109460  51.8806740
  72.0118180   6.1722150  52.6684620  73.0948650   5.2507230  52.1490960
  58.4838120  10.0859240  65.4679440  58.5929240   9.1453980  65.3274830
  57.8318680  10.3513990  64.8193170  66.4750710   8.3575130  66.8677560
  66.1547580   7.6384370  67.4123250  65.8009070   9.0330200  66.9413620
  64.5164880   9.2035580  51.8110710  64.5074980   9.9365270  51.1955220
  63.5963240   8.9567160  51.9037670  60.1171520   4.4250470  52.5557470
  59.5099470   5.1649370  52.5652770  60.5920870   4.5149830  51.7295670
  67.5024480   9.2663820  50.4735900  67.6036460   9.0627810  49.5437880
  66.6026220   9.0122100  50.6783680  66.1442590  11.7850140  55.1683570
  66.3984090  11.7471530  54.2462940  65.1955070  11.6583470  55.1611820
  72.1495170   2.7042020  56.7442080  71.2085310   2.7192250  56.9189770
  72.4639240   1.9177980  57.1902380  62.1276810   4.3861620  50.3046040
  62.8940080   4.2742980  50.8671470  62.2051500   3.6899590  49.6522810
  74.1520750   9.8750870  58.4196340  74.2768170  10.6982040  58.8920150
  75.0186310   9.6641600  58.0720490  61.6238280  11.9682080  58.0913470
  62.3600760  11.4197540  58.3622040  62.0079200  12.8338090  57.9519460
  58.5083760   8.0355650  53.9654980  57.5823540   8.2776790  53.9560390
  58.9740190   8.8629910  53.8439730  60.6296560  11.1528150  67.2799050
  61.4309290  11.4740200  67.6934450  60.1148380  10.7923730  68.0018960
  64.7340590  11.1412390  49.9139040  65.5269200  11.4301220  49.4620830
  64.2144940  10.7104560  49.2351520  69.4661190   7.2608020  67.2274460
  68.8599350   7.2839620  66.4870210  69.1615300   6.5291060  67.7641710
  70.8961560  10.9888310  65.8383870  71.8483310  10.9046330  65.7884110
  70.7489780  11.6530020  66.5117660  73.7870760  10.3682520  51.3375780
  73.5012270   9.9547660  50.5229960  73.5890310  11.2970230  51.2176300
  58.3494370   3.6401610  66.2235100  58.8533390   3.0608890  66.7951330
  57.6101790   3.9241840  66.7611470  65.2517990   6.3615800  49.7781390
  65.1468630   5.7468150  50.5042770  65.0842210   5.8381690  48.9944400
  65.4032310   5.0472600  65.7570620  64.6377980   5.6157600  65.6725290
  65.5848270   4.7548810  64.8638850  68.4920720   5.4235830  50.3823380
  67.9430820   5.8705130  51.0266120  69.1139980   4.9185080  50.9061050
  72.5455660   6.7777930  66.3145640  73.2865130   7.1153690  65.8113100
  71.7828340   6.9469990  65.7615410  60.3817450   1.7831200  67.1185170
  60.4222790   1.4845070  68.0270400  61.2362950   2.1838810  66.9592690
  64.1595840   4.3826750  52.2788680  64.5812260   4.2166620  53.1220070
  64.2846680   3.5726980  51.7843820  66.6723480   3.4064360  49.5265780
  67.1929140   2.6913380  49.1606930  67.3191880   4.0450230  49.8266290
  71.2201320   4.8292760  64.8500850  71.6342340   4.9837840  65.6991270
  70.2852320   4.9547980  65.0126630  71.6923490   2.1688920  66.8540000
  72.2744260   1.4141240  66.7660480  71.8685260   2.6996360  66.0771480
  65.9816550   4.7813240  62.8196780  66.4004660   5.6245970  62.6473020
  65.0625180   4.9185280  62.5903560  68.3180450   2.5129420  64.2034620
  68.4376660   1.9170560  64.9429460  69.1774450   2.5499110  63.7835920
  70.6568350   3.0666610  62.7797130  70.1303570   3.5909230  62.1762270
  70.9999690   3.6994000  63.4106860  63.8323970  11.0866250  63.9354510
  63.2945060  11.8112310  63.6163210  64.0857930  10.6096590  63.1451850
  66.6886180  12.3217460  64.1941160  66.6144880  13.2252600  64.5013530
  65.7865020  12.0029360  64.1663230  67.2371510  11.4875970  51.8167520
  68.1322300  11.8260940  51.8386280  67.2689140  10.7655380  51.1891800
  60.8767670   6.8603020  50.0454520  61.3142540   7.4032690  50.7012100
  61.3615400   6.0349970  50.0550860  58.0913470   9.6492050  57.4974780
  58.4216480   8.7813110  57.2653420  58.5204470   9.8550570  58.3279740
  62.6875390   7.9801060  55.1576750  62.3870930   7.8566030  56.0580660
  62.5812880   7.1209650  54.7492480  58.5803680  10.5162640  60.2356410
  58.1434670  10.6963440  61.0680560  59.1481360  11.2737260  60.0938130
  74.2165860  10.0179640  64.5233720  73.6167850  10.0772200  63.7797640
  74.3459760   9.0784620  64.6530570  75.4567310   7.7597460  49.8603430
  74.6260270   7.8274110  50.3310660  75.6339140   8.6501580  49.5570290
  74.9123770   4.5044940  52.3637630  75.6742680   5.0741590  52.4697320
  74.9278140   3.9372140  53.1345940  58.4128110   3.0282870  56.5945290
  57.7576950   2.7594510  55.9504990  59.2506060   2.9187350  56.1447270
  75.9183740   5.3595040  57.2079560  76.2892570   4.5762360  56.8015530
  76.5585670   6.0484140  57.0296860  72.9017500   6.7431620  62.6209880
  72.0877340   7.1728780  62.8835670  73.3091700   7.3550030  62.0078930
  74.9642940   4.7979310  49.5210150  75.2391780   5.7058190  49.3929370
  74.7753680   4.7341840  50.4572140  74.8608280   2.7348300  54.5139580
  74.4851880   1.9676230  54.0820870  74.1311400   3.1171000  55.0014510
  59.4504040   3.4135440  61.1348630  59.8177080   3.3262840  62.0144650
  58.8814860   2.6501990  61.0355490  74.2507900   1.8819820  64.1479100
  74.0193990   1.6532570  63.2477050  74.5112450   2.8019370  64.1023990
  72.9593550  11.4950220  56.1478150  73.5552620  11.1734790  55.4712570
  73.2171700  11.0222040  56.9391420  60.8656120   7.9268130  66.2968780
  60.8225750   7.5561040  67.1783240  60.9967130   8.8645700  66.4370600
  64.5662150   9.4827720  61.8978500  64.3253510   9.7502280  61.0109020
  65.5064790   9.6533450  61.9529360  75.8266310  11.5022100  62.6989140
  75.3324590  11.8990970  61.9816270  75.2179600  10.8771310  63.0926420
  60.7044150  10.8730380  63.4166560  60.1104470  10.7415080  64.1556600
  60.6967990  10.0368520  62.9508660  73.5105760  12.1445520  59.9775880
  73.0508730  12.8961330  59.6033900  72.8818220  11.4251990  59.9190680
  60.3356380   8.2388760  62.3674600  59.6090440   7.6194050  62.3000550
  60.3965530   8.6329370  61.4972680  63.9401480  10.4533760  59.1524010
  64.4566500   9.8421120  58.6272270  64.5898860  10.9562540  59.6435020
  66.6796980  11.3442250  59.9792990  66.9674790  11.0896550  59.1026000
  67.1920200  10.7919610  60.5698560  58.6186380  11.5563150  55.5771360
  58.4508420  10.9233830  56.2753250  57.7520890  11.7622550  55.2265550
  60.2249080  10.2496380  53.0221500  59.6996700  10.6304410  52.3183460
  60.1493660  10.8747150  53.7431210  66.7469340  12.2658350  67.3461190
  67.6736650  12.0302620  67.3897150  66.7319770  13.0930350  66.8647220
  74.9814400  11.8083920  54.3435440  75.1566590  11.1221660  53.6996360
  74.2835970  12.3330970  53.9512110  62.8242050  12.1978760  51.8970750
  63.5560870  11.9138040  51.3494640  63.0835720  11.9592040  52.7870130
  61.9856840   8.3143490  51.9017080  61.3565720   8.7828590  52.4502910
  62.1004670   7.4692710  52.3363270  73.3146900  11.4928210  67.1702230
  74.1072220  10.9977440  66.9628190  73.6080050  12.1718350  67.7777840
  69.4406560   2.3649150  38.0518280  69.3600610   1.4503760  37.7809990
  69.0270980   2.8616220  37.3457990  67.5724600   4.1428170  39.9327550
  66.7966700   3.6628610  40.2226120  68.2237530   3.4633820  39.7583710
  61.5890430   4.4547980  40.8103310  60.7575310   4.1996690  41.2099820
  62.1971410   4.5258750  41.5461230  71.5932030   8.5488360  38.7126680
  71.1313560   7.7775600  39.0413850  72.4057580   8.5754430  39.2179130
  61.5691690   8.4888070  41.0061330  61.8719730   7.5985810  40.8271550
  62.3135280   9.0458290  40.7783580  67.8195340  10.8346370  38.3330670
  67.2006780  11.2903870  37.7625110  68.6747120  10.9897830  37.9320370
  67.0133590   6.8185360  39.9397710  66.9441870   5.8775300  39.7786840
  67.7753450   6.9086770  40.5120280  68.6858690   5.7185610  35.7262580
  68.0675960   6.1835060  35.1625300  69.1981940   6.4113090  36.1432090
  63.5490450   5.2461480  42.4046180  63.2159830   5.8730400  43.0467250
  63.7257130   5.7723360  41.6247850  62.7609550   7.2142280  44.2195360
  63.3783550   7.8893360  43.9379810  61.9002670   7.6230260  44.1282860
  58.0541890   6.4042140  33.1002210  57.6769870   6.8929240  32.3687110
  58.3114960   7.0767420  33.7308740  73.6787140   8.6781690  42.1350000
  72.9950660   9.3480800  42.1266670  74.2181430   8.8762340  41.3694860
  71.2145880  10.5225820  40.8495180  71.2273040  10.1188110  39.9817440
  70.6621100  11.2973110  40.7456610  72.5091300   7.2442040  35.9385350
  72.3987630   6.3016370  36.0634770  72.5059550   7.6057680  36.8248110
  70.6131320   5.4255660  42.1777790  71.0300110   5.2115770  41.3431250
  71.3371140   5.6828450  42.7486410  68.0511580   2.8707360  35.2947840
  67.1240860   2.8044740  35.5236310  68.2036400   3.8087490  35.1803080
  74.5593420   3.8242880  42.2694030  73.7312050   3.8935970  41.7944160
  75.1543900   4.4097190  41.8009860  72.0808870   4.4327660  35.7983090
  71.4621290   4.0947210  35.1509390  72.0633320   3.7887420  36.5062280
  63.6568220   3.3972100  38.0767570  63.2525220   2.6849350  37.5813470
  63.7431340   3.0525340  38.9655610  64.1249920   7.0839660  40.2406780
  63.8278210   6.4785130  39.5614560  65.0749740   7.1216970  40.1296140
  72.2135530  10.6571530  43.9029880  71.7366090  11.4643720  43.7102490
  71.5297320  10.0049860  44.0556090  63.2168350   6.8221350  46.8914580
  62.3196880   7.0461320  47.1387980  63.2421220   6.9456290  45.9425980
  70.2573570   3.6714470  32.8055840  70.6966850   2.8336900  32.6593660
  70.9701990   4.3043870  32.8919980  62.0439570   3.6934670  45.4671950
  61.9047340   4.5657470  45.8359350  61.1620930   3.3507480  45.3219890
  68.3668950   8.6110540  36.7737080  68.8064860   9.3534870  36.3592470
  68.3055840   8.8537110  37.6976040  63.8419920   9.6356370  47.6757100
  63.8135350  10.0399320  46.8085530  63.6784890   8.7066730  47.5128700
  60.3572850   2.2917080  35.5774220  60.2370450   3.0179170  34.9655490
  60.0473740   1.5219990  35.1002130  75.7934740  10.4183470  48.9721270
  76.2694460  10.8966360  49.6510350  76.4141900  10.3500960  48.2466770
  57.9958220   5.4632220  41.3842860  58.0738640   5.5980990  40.4398580
  58.6099900   4.7548110  41.5770980  59.2405850   7.1632410  37.7949040
  58.8333930   7.3047000  36.9402640  60.1318860   6.8792570  37.5920250
  75.1967990   7.6096320  46.1321280  75.3231050   7.3708200  45.2138460
  75.2389370   6.7780860  46.6043360  69.0584730  11.3124320  44.7016090
  69.5729400  11.2232330  45.5038520  68.2153810  11.6584020  44.9944000
  71.0339130  11.5979660  34.1300090  70.8740270  11.3082600  35.0281920
  70.8685840  10.8219790  33.5945320  63.5127510  11.3778190  35.9071710
  63.3369990  10.4613730  35.6939510  62.6583250  11.7365480  36.1469510
  70.7365260   9.1067220  32.6898090  70.0430420   9.1044510  32.0300370
  71.4788120   8.6826540  32.2592260  70.3015190  10.7329930  36.7646580
  70.7572140   9.9519310  37.0785200  70.6407710  11.4436750  37.3087760
  58.0517740   6.5046390  43.9237320  58.2148780   6.0351750  43.1056690
  58.5170190   5.9969950  44.5886160  64.5487540   1.9785800  32.2066400
  63.9804440   1.5304050  31.5802310  65.2576540   2.3378580  31.6731550
  59.6256720   5.8797820  46.0833130  59.2411510   5.2391490  46.6816090
  59.9368910   6.5833940  46.6527860  65.7753860   2.7274360  41.5641750
  66.1423990   2.2532930  42.3103090  65.5858920   3.6015930  41.9050090
  63.5653230   1.7683000  43.8825960  63.2610300   2.6474980  44.1076320
  64.5199690   1.8282790  43.9183400  62.0935020   5.9743990  34.4792810
  61.3197280   5.4341610  34.3191530  62.8229650   5.4550600  34.1410570
  72.8523000   4.9709350  40.2719200  73.5722120   5.4664640  39.8815310
  72.6504820   4.2927240  39.6273070  68.2341800   5.0418410  46.1588200
  68.1679110   4.1214080  45.9045790  67.6046940   5.1393850  46.8732840
  62.1372420   5.6424370  38.1171620  62.6551090   4.8392630  38.0628510
  61.6856440   5.5803510  38.9588450  67.0241920   6.9090650  33.3898920
  67.3657620   7.6532880  32.8942240  66.1954630   7.2221770  33.7523750
  59.6216960   2.6085740  45.0297320  59.2631900   3.2739590  45.6170660
  59.3271520   1.7769290  45.4009940  62.8230080   3.0669980  47.9136870
  62.5230220   3.2127160  47.0164690  63.5941320   2.5075270  47.8210260
  68.1658530   7.8638980  45.9092000  68.1803070   6.9319940  45.6910910
  67.4583630   7.9498740  46.5481770  73.2995600   2.0478800  32.1790610
  73.2159320   2.4793020  31.3287050  74.0189790   2.5077150  32.6117430
  74.3769740   4.5046320  45.2560580  73.6517930   5.0975100  45.0589970
  74.9045200   4.4969860  44.4573950  74.3282850   8.9021060  34.9072740
  73.6859010   8.2476680  35.1816460  73.9413510   9.3076150  34.1313410
  69.9069330   6.2306490  38.7544430  70.2593150   5.6334620  38.0945800
  69.0231660   5.9050720  38.9252680  65.9932610   6.9904180  36.1614840
  66.6803740   7.5373390  36.5422430  65.2065030   7.5344910  36.1964450
  58.1325010   2.6077000  31.6531920  59.0019860   2.8901800  31.9367840
  57.6415330   3.4212870  31.5380730  65.2959820   3.9950210  35.7740200
  65.7522600   4.8055460  36.0000390  64.9448030   3.6773350  36.6058690
  67.5992430   9.5056550  43.0032500  68.2434650   9.7115930  43.6805920
  67.9621870   8.7444950  42.5503350  68.8724510   7.5088900  41.7209950
  69.5146740   6.8082060  41.8342120  69.3973860   8.2887340  41.5406840
  72.7180230   7.7937520  31.4449090  72.4917810   7.0767960  32.0373730
  72.3276430   7.5449960  30.6070840  70.6462130   8.3083800  44.9246010
  70.9818370   8.8950490  45.6023930  69.7262470   8.1776510  45.1543800
  58.4996260  11.8204380  32.2193550  58.8593900  12.4193720  31.5650820
  58.3588600  12.3664270  32.9928580  72.2996480   5.7109460  33.1063250
  72.0118180   6.1722150  33.8941130  73.0948650   5.2507230  33.3747470
  58.4838120  10.0859240  46.6935950  58.5929240   9.1453980  46.5531340
  57.8318680  10.3513990  46.0449680  66.4750710   8.3575130  48.0934070
  66.1547580   7.6384370  48.6379760  65.8009070   9.0330200  48.1670130
  64.5164880   9.2035580  33.0367220  64.5074980   9.9365270  32.4211730
  63.5963240   8.9567160  33.1294180  60.1171520   4.4250470  33.7813980
  59.5099470   5.1649370  33.7909280  60.5920870   4.5149830  32.9552180
  67.5024480   9.2663820  31.6992410  67.6036460   9.0627810  30.7694390
  66.6026220   9.0122100  31.9040190  66.1442590  11.7850140  36.3940080
  66.3984090  11.7471530  35.4719450  65.1955070  11.6583470  36.3868330
  72.1495170   2.7042020  37.9698590  71.2085310   2.7192250  38.1446280
  72.4639240   1.9177980  38.4158890  62.1276810   4.3861620  31.5302550
  62.8940080   4.2742980  32.0927980  62.2051500   3.6899590  30.8779320
  74.1520750   9.8750870  39.6452850  74.2768170  10.6982040  40.1176660
  75.0186310   9.6641600  39.2977000  61.6238280  11.9682080  39.3169980
  62.3600760  11.4197540  39.5878550  62.0079200  12.8338090  39.1775970
  58.5083760   8.0355650  35.1911490  57.5823540   8.2776790  35.1816900
  58.9740190   8.8629910  35.0696240  60.6296560  11.1528150  48.5055560
  61.4309290  11.4740200  48.9190960  60.1148380  10.7923730  49.2275470
  64.7340590  11.1412390  31.1395550  65.5269200  11.4301220  30.6877340
  64.2144940  10.7104560  30.4608030  69.4661190   7.2608020  48.4530970
  68.8599350   7.2839620  47.7126720  69.1615300   6.5291060  48.9898220
  70.8961560  10.9888310  47.0640380  71.8483310  10.9046330  47.0140620
  70.7489780  11.6530020  47.7374170  73.7870760  10.3682520  32.5632290
  73.5012270   9.9547660  31.7486470  73.5890310  11.2970230  32.4432810
  58.3494370   3.6401610  47.4491610  58.8533390   3.0608890  48.0207840
  57.6101790   3.9241840  47.9867980  65.2517990   6.3615800  31.0037900
  65.1468630   5.7468150  31.7299280  65.0842210   5.8381690  30.2200910
  65.4032310   5.0472600  46.9827130  64.6377980   5.6157600  46.8981800
  65.5848270   4.7548810  46.0895360  68.4920720   5.4235830  31.6079890
  67.9430820   5.8705130  32.2522630  69.1139980   4.9185080  32.1317560
  72.5455660   6.7777930  47.5402150  73.2865130   7.1153690  47.0369610
  71.7828340   6.9469990  46.9871920  60.3817450   1.7831200  48.3441680
  60.4222790   1.4845070  49.2526910  61.2362950   2.1838810  48.1849200
  64.1595840   4.3826750  33.5045190  64.5812260   4.2166620  34.3476580
  64.2846680   3.5726980  33.0100330  66.6723480   3.4064360  30.7522290
  67.1929140   2.6913380  30.3863440  67.3191880   4.0450230  31.0522800
  71.2201320   4.8292760  46.0757360  71.6342340   4.9837840  46.9247780
  70.2852320   4.9547980  46.2383140  71.6923490   2.1688920  48.0796510
  72.2744260   1.4141240  47.9916990  71.8685260   2.6996360  47.3027990
  65.9816550   4.7813240  44.0453290  66.4004660   5.6245970  43.8729530
  65.0625180   4.9185280  43.8160070  68.3180450   2.5129420  45.4291130
  68.4376660   1.9170560  46.1685970  69.1774450   2.5499110  45.0092430
  70.6568350   3.0666610  44.0053640  70.1303570   3.5909230  43.4018780
  70.9999690   3.6994000  44.6363370  63.8323970  11.0866250  45.1611020
  63.2945060  11.8112310  44.8419720  64.0857930  10.6096590  44.3708360
  66.6886180  12.3217460  45.4197670  66.6144880  13.2252600  45.7270040
  65.7865020  12.0029360  45.3919740  67.2371510  11.4875970  33.0424030
  68.1322300  11.8260940  33.0642790  67.2689140  10.7655380  32.4148310
  60.8767670   6.8603020  31.2711030  61.3142540   7.4032690  31.9268610
  61.3615400   6.0349970  31.2807370  58.0913470   9.6492050  38.7231290
  58.4216480   8.7813110  38.4909930  58.5204470   9.8550570  39.5536250
  62.6875390   7.9801060  36.3833260  62.3870930   7.8566030  37.2837170
  62.5812880   7.1209650  35.9748990  58.5803680  10.5162640  41.4612920
  58.1434670  10.6963440  42.2937070  59.1481360  11.2737260  41.3194640
  74.2165860  10.0179640  45.7490230  73.6167850  10.0772200  45.0054150
  74.3459760   9.0784620  45.8787080  75.4567310   7.7597460  31.0859940
  74.6260270   7.8274110  31.5567170  75.6339140   8.6501580  30.7826800
  74.9123770   4.5044940  33.5894140  75.6742680   5.0741590  33.6953830
  74.9278140   3.9372140  34.3602450  58.4128110   3.0282870  37.8201800
  57.7576950   2.7594510  37.1761500  59.2506060   2.9187350  37.3703780
  75.9183740   5.3595040  38.4336070  76.2892570   4.5762360  38.0272040
  76.5585670   6.0484140  38.2553370  72.9017500   6.7431620  43.8466390
  72.0877340   7.1728780  44.1092180  73.3091700   7.3550030  43.2335440
  74.9642940   4.7979310  30.7466660  75.2391780   5.7058190  30.6185880
  74.7753680   4.7341840  31.6828650  74.8608280   2.7348300  35.7396090
  74.4851880   1.9676230  35.3077380  74.1311400   3.1171000  36.2271020
  59.4504040   3.4135440  42.3605140  59.8177080   3.3262840  43.2401160
  58.8814860   2.6501990  42.2612000  74.2507900   1.8819820  45.3735610
  74.0193990   1.6532570  44.4733560  74.5112450   2.8019370  45.3280500
  72.9593550  11.4950220  37.3734660  73.5552620  11.1734790  36.6969080
  73.2171700  11.0222040  38.1647930  60.8656120   7.9268130  47.5225290
  60.8225750   7.5561040  48.4039750  60.9967130   8.8645700  47.6627110
  64.5662150   9.4827720  43.1235010  64.3253510   9.7502280  42.2365530
  65.5064790   9.6533450  43.1785870  75.8266310  11.5022100  43.9245650
  75.3324590  11.8990970  43.2072780  75.2179600  10.8771310  44.3182930
  60.7044150  10.8730380  44.6423070  60.1104470  10.7415080  45.3813110
  60.6967990  10.0368520  44.1765170  73.5105760  12.1445520  41.2032390
  73.0508730  12.8961330  40.8290410  72.8818220  11.4251990  41.1447190
  60.3356380   8.2388760  43.5931110  59.6090440   7.6194050  43.5257060
  60.3965530   8.6329370  42.7229190  63.9401480  10.4533760  40.3780520
  64.4566500   9.8421120  39.8528780  64.5898860  10.9562540  40.8691530
  66.6796980  11.3442250  41.2049500  66.9674790  11.0896550  40.3282510
  67.1920200  10.7919610  41.7955070  58.6186380  11.5563150  36.8027870
  58.4508420  10.9233830  37.5009760  57.7520890  11.7622550  36.4522060
  60.2249080  10.2496380  34.2478010  59.6996700  10.6304410  33.5439970
  60.1493660  10.8747150  34.9687720  66.7469340  12.2658350  48.5717700
  67.6736650  12.0302620  48.6153660  66.7319770  13.0930350  48.0903730
  74.9814400  11.8083920  35.5691950  75.1566590  11.1221660  34.9252870
  74.2835970  12.3330970  35.1768620  62.8242050  12.1978760  33.1227260
  63.5560870  11.9138040  32.5751150  63.0835720  11.9592040  34.0126640
  61.9856840   8.3143490  33.1273590  61.3565720   8.7828590  33.6759420
  62.1004670   7.4692710  33.5619780  73.3146900  11.4928210  48.3958740
  74.1072220  10.9977440  48.1884700  73.6080050  12.1718350  49.0034350
  69.4406560   2.3649150  19.2774790  69.3600610   1.4503760  19.0066500
  69.0270980   2.8616220  18.5714500  67.5724600   4.1428170  21.1584060
  66.7966700   3.6628610  21.4482630  68.2237530   3.4633820  20.9840220
  61.5890430   4.4547980  22.0359820  60.7575310   4.1996690  22.4356330
  62.1971410   4.5258750  22.7717740  71.5932030   8.5488360  19.9383190
  71.1313560   7.7775600  20.2670360  72.4057580   8.5754430  20.4435640
  61.5691690   8.4888070  22.2317840  61.8719730   7.5985810  22.0528060
  62.3135280   9.0458290  22.0040090  67.8195340  10.8346370  19.5587180
  67.2006780  11.2903870  18.9881620  68.6747120  10.9897830  19.1576880
  67.0133590   6.8185360  21.1654220  66.9441870   5.8775300  21.0043350
  67.7753450   6.9086770  21.7376790  68.6858690   5.7185610  16.9519090
  68.0675960   6.1835060  16.3881810  69.1981940   6.4113090  17.3688600
  63.5490450   5.2461480  23.6302690  63.2159830   5.8730400  24.2723760
  63.7257130   5.7723360  22.8504360  62.7609550   7.2142280  25.4451870
  63.3783550   7.8893360  25.1636320  61.9002670   7.6230260  25.3539370
  58.0541890   6.4042140  14.3258720  57.6769870   6.8929240  13.5943620
  58.3114960   7.0767420  14.9565250  73.6787140   8.6781690  23.3606510
  72.9950660   9.3480800  23.3523180  74.2181430   8.8762340  22.5951370
  71.2145880  10.5225820  22.0751690  71.2273040  10.1188110  21.2073950
  70.6621100  11.2973110  21.9713120  72.5091300   7.2442040  17.1641860
  72.3987630   6.3016370  17.2891280  72.5059550   7.6057680  18.0504620
  70.6131320   5.4255660  23.4034300  71.0300110   5.2115770  22.5687760
  71.3371140   5.6828450  23.9742920  68.0511580   2.8707360  16.5204350
  67.1240860   2.8044740  16.7492820  68.2036400   3.8087490  16.4059590
  74.5593420   3.8242880  23.4950540  73.7312050   3.8935970  23.0200670
  75.1543900   4.4097190  23.0266370  72.0808870   4.4327660  17.0239600
  71.4621290   4.0947210  16.3765900  72.0633320   3.7887420  17.7318790
  63.6568220   3.3972100  19.3024080  63.2525220   2.6849350  18.8069980
  63.7431340   3.0525340  20.1912120  64.1249920   7.0839660  21.4663290
  63.8278210   6.4785130  20.7871070  65.0749740   7.1216970  21.3552650
  72.2135530  10.6571530  25.1286390  71.7366090  11.4643720  24.9359000
  71.5297320  10.0049860  25.2812600  63.2168350   6.8221350  28.1171090
  62.3196880   7.0461320  28.3644490  63.2421220   6.9456290  27.1682490
  70.2573570   3.6714470  14.0312350  70.6966850   2.8336900  13.8850170
  70.9701990   4.3043870  14.1176490  62.0439570   3.6934670  26.6928460
  61.9047340   4.5657470  27.0615860  61.1620930   3.3507480  26.5476400
  68.3668950   8.6110540  17.9993590  68.8064860   9.3534870  17.5848980
  68.3055840   8.8537110  18.9232550  63.8419920   9.6356370  28.9013610
  63.8135350  10.0399320  28.0342040  63.6784890   8.7066730  28.7385210
  60.3572850   2.2917080  16.8030730  60.2370450   3.0179170  16.1912000
  60.0473740   1.5219990  16.3258640  75.7934740  10.4183470  30.1977780
  76.2694460  10.8966360  30.8766860  76.4141900  10.3500960  29.4723280
  57.9958220   5.4632220  22.6099370  58.0738640   5.5980990  21.6655090
  58.6099900   4.7548110  22.8027490  59.2405850   7.1632410  19.0205550
  58.8333930   7.3047000  18.1659150  60.1318860   6.8792570  18.8176760
  75.1967990   7.6096320  27.3577790  75.3231050   7.3708200  26.4394970
  75.2389370   6.7780860  27.8299870  69.0584730  11.3124320  25.9272600
  69.5729400  11.2232330  26.7295030  68.2153810  11.6584020  26.2200510
  71.0339130  11.5979660  15.3556600  70.8740270  11.3082600  16.2538430
  70.8685840  10.8219790  14.8201830  63.5127510  11.3778190  17.1328220
  63.3369990  10.4613730  16.9196020  62.6583250  11.7365480  17.3726020
  70.7365260   9.1067220  13.9154600  70.0430420   9.1044510  13.2556880
  71.4788120   8.6826540  13.4848770  70.3015190  10.7329930  17.9903090
  70.7572140   9.9519310  18.3041710  70.6407710  11.4436750  18.5344270
  58.0517740   6.5046390  25.1493830  58.2148780   6.0351750  24.3313200
  58.5170190   5.9969950  25.8142670  64.5487540   1.9785800  13.4322910
  63.9804440   1.5304050  12.8058820  65.2576540   2.3378580  12.8988060
  59.6256720   5.8797820  27.3089640  59.2411510   5.2391490  27.9072600
  59.9368910   6.5833940  27.8784370  65.7753860   2.7274360  22.7898260
  66.1423990   2.2532930  23.5359600  65.5858920   3.6015930  23.1306600
  63.5653230   1.7683000  25.1082470  63.2610300   2.6474980  25.3332830
  64.5199690   1.8282790  25.1439910  62.0935020   5.9743990  15.7049320
  61.3197280   5.4341610  15.5448040  62.8229650   5.4550600  15.3667080
  72.8523000   4.9709350  21.4975710  73.5722120   5.4664640  21.1071820
  72.6504820   4.2927240  20.8529580  68.2341800   5.0418410  27.3844710
  68.1679110   4.1214080  27.1302300  67.6046940   5.1393850  28.0989350
  62.1372420   5.6424370  19.3428130  62.6551090   4.8392630  19.2885020
  61.6856440   5.5803510  20.1844960  67.0241920   6.9090650  14.6155430
  67.3657620   7.6532880  14.1198750  66.1954630   7.2221770  14.9780260
  59.6216960   2.6085740  26.2553830  59.2631900   3.2739590  26.8427170
  59.3271520   1.7769290  26.6266450  62.8230080   3.0669980  29.1393380
  62.5230220   3.2127160  28.2421200  63.5941320   2.5075270  29.0466770
  68.1658530   7.8638980  27.1348510  68.1803070   6.9319940  26.9167420
  67.4583630   7.9498740  27.7738280  73.2995600   2.0478800  13.4047120
  73.2159320   2.4793020  12.5543560  74.0189790   2.5077150  13.8373940
  74.3769740   4.5046320  26.4817090  73.6517930   5.0975100  26.2846480
  74.9045200   4.4969860  25.6830460  74.3282850   8.9021060  16.1329250
  73.6859010   8.2476680  16.4072970  73.9413510   9.3076150  15.3569920
  69.9069330   6.2306490  19.9800940  70.2593150   5.6334620  19.3202310
  69.0231660   5.9050720  20.1509190  65.9932610   6.9904180  17.3871350
  66.6803740   7.5373390  17.7678940  65.2065030   7.5344910  17.4220960
  58.1325010   2.6077000  12.8788430  59.0019860   2.8901800  13.1624350
  57.6415330   3.4212870  12.7637240  65.2959820   3.9950210  16.9996710
  65.7522600   4.8055460  17.2256900  64.9448030   3.6773350  17.8315200
  67.5992430   9.5056550  24.2289010  68.2434650   9.7115930  24.9062430
  67.9621870   8.7444950  23.7759860  68.8724510   7.5088900  22.9466460
  69.5146740   6.8082060  23.0598630  69.3973860   8.2887340  22.7663350
  72.7180230   7.7937520  12.6705600  72.4917810   7.0767960  13.2630240
  72.3276430   7.5449960  11.8327350  70.6462130   8.3083800  26.1502520
  70.9818370   8.8950490  26.8280440  69.7262470   8.1776510  26.3800310
  58.4996260  11.8204380  13.4450060  58.8593900  12.4193720  12.7907330
  58.3588600  12.3664270  14.2185090  72.2996480   5.7109460  14.3319760
  72.0118180   6.1722150  15.1197640  73.0948650   5.2507230  14.6003980
  58.4838120  10.0859240  27.9192460  58.5929240   9.1453980  27.7787850
  57.8318680  10.3513990  27.2706190  66.4750710   8.3575130  29.3190580
  66.1547580   7.6384370  29.8636270  65.8009070   9.0330200  29.3926640
  64.5164880   9.2035580  14.2623730  64.5074980   9.9365270  13.6468240
  63.5963240   8.9567160  14.3550690  60.1171520   4.4250470  15.0070490
  59.5099470   5.1649370  15.0165790  60.5920870   4.5149830  14.1808690
  67.5024480   9.2663820  12.9248920  67.6036460   9.0627810  11.9950900
  66.6026220   9.0122100  13.1296700  66.1442590  11.7850140  17.6196590
  66.3984090  11.7471530  16.6975960  65.1955070  11.6583470  17.6124840
  72.1495170   2.7042020  19.1955100  71.2085310   2.7192250  19.3702790
  72.4639240   1.9177980  19.6415400  62.1276810   4.3861620  12.7559060
  62.8940080   4.2742980  13.3184490  62.2051500   3.6899590  12.1035830
  74.1520750   9.8750870  20.8709360  74.2768170  10.6982040  21.3433170
  75.0186310   9.6641600  20.5233510  61.6238280  11.9682080  20.5426490
  62.3600760  11.4197540  20.8135060  62.0079200  12.8338090  20.4032480
  58.5083760   8.0355650  16.4168000  57.5823540   8.2776790  16.4073410
  58.9740190   8.8629910  16.2952750  60.6296560  11.1528150  29.7312070
  61.4309290  11.4740200  30.1447470  60.1148380  10.7923730  30.4531980
  64.7340590  11.1412390  12.3652060  65.5269200  11.4301220  11.9133850
  64.2144940  10.7104560  11.6864540  69.4661190   7.2608020  29.6787480
  68.8599350   7.2839620  28.9383230  69.1615300   6.5291060  30.2154730
  70.8961560  10.9888310  28.2896890  71.8483310  10.9046330  28.2397130
  70.7489780  11.6530020  28.9630680  73.7870760  10.3682520  13.7888800
  73.5012270   9.9547660  12.9742980  73.5890310  11.2970230  13.6689320
  58.3494370   3.6401610  28.6748120  58.8533390   3.0608890  29.2464350
  57.6101790   3.9241840  29.2124490  65.2517990   6.3615800  12.2294410
  65.1468630   5.7468150  12.9555790  65.0842210   5.8381690  11.4457420
  65.4032310   5.0472600  28.2083640  64.6377980   5.6157600  28.1238310
  65.5848270   4.7548810  27.3151870  68.4920720   5.4235830  12.8336400
  67.9430820   5.8705130  13.4779140  69.1139980   4.9185080  13.3574070
  72.5455660   6.7777930  28.7658660  73.2865130   7.1153690  28.2626120
  71.7828340   6.9469990  28.2128430  60.3817450   1.7831200  29.5698190
  60.4222790   1.4845070  30.4783420  61.2362950   2.1838810  29.4105710
  64.1595840   4.3826750  14.7301700  64.5812260   4.2166620  15.5733090
  64.2846680   3.5726980  14.2356840  66.6723480   3.4064360  11.9778800
  67.1929140   2.6913380  11.6119950  67.3191880   4.0450230  12.2779310
  71.2201320   4.8292760  27.3013870  71.6342340   4.9837840  28.1504290
  70.2852320   4.9547980  27.4639650  71.6923490   2.1688920  29.3053020
  72.2744260   1.4141240  29.2173500  71.8685260   2.6996360  28.5284500
  65.9816550   4.7813240  25.2709800  66.4004660   5.6245970  25.0986040
  65.0625180   4.9185280  25.0416580  68.3180450   2.5129420  26.6547640
  68.4376660   1.9170560  27.3942480  69.1774450   2.5499110  26.2348940
  70.6568350   3.0666610  25.2310150  70.1303570   3.5909230  24.6275290
  70.9999690   3.6994000  25.8619880  63.8323970  11.0866250  26.3867530
  63.2945060  11.8112310  26.0676230  64.0857930  10.6096590  25.5964870
  66.6886180  12.3217460  26.6454180  66.6144880  13.2252600  26.9526550
  65.7865020  12.0029360  26.6176250  67.2371510  11.4875970  14.2680540
  68.1322300  11.8260940  14.2899300  67.2689140  10.7655380  13.6404820
  60.8767670   6.8603020  12.4967540  61.3142540   7.4032690  13.1525120
  61.3615400   6.0349970  12.5063880  58.0913470   9.6492050  19.9487800
  58.4216480   8.7813110  19.7166440  58.5204470   9.8550570  20.7792760
  62.6875390   7.9801060  17.6089770  62.3870930   7.8566030  18.5093680
  62.5812880   7.1209650  17.2005500  58.5803680  10.5162640  22.6869430
  58.1434670  10.6963440  23.5193580  59.1481360  11.2737260  22.5451150
  74.2165860  10.0179640  26.9746740  73.6167850  10.0772200  26.2310660
  74.3459760   9.0784620  27.1043590  75.4567310   7.7597460  12.3116450
  74.6260270   7.8274110  12.7823680  75.6339140   8.6501580  12.0083310
  74.9123770   4.5044940  14.8150650  75.6742680   5.0741590  14.9210340
  74.9278140   3.9372140  15.5858960  58.4128110   3.0282870  19.0458310
  57.7576950   2.7594510  18.4018010  59.2506060   2.9187350  18.5960290
  75.9183740   5.3595040  19.6592580  76.2892570   4.5762360  19.2528550
  76.5585670   6.0484140  19.4809880  72.9017500   6.7431620  25.0722900
  72.0877340   7.1728780  25.3348690  73.3091700   7.3550030  24.4591950
  74.9642940   4.7979310  11.9723170  75.2391780   5.7058190  11.8442390
  74.7753680   4.7341840  12.9085160  74.8608280   2.7348300  16.9652600
  74.4851880   1.9676230  16.5333890  74.1311400   3.1171000  17.4527530
  59.4504040   3.4135440  23.5861650  59.8177080   3.3262840  24.4657670
  58.8814860   2.6501990  23.4868510  74.2507900   1.8819820  26.5992120
  74.0193990   1.6532570  25.6990070  74.5112450   2.8019370  26.5537010
  72.9593550  11.4950220  18.5991170  73.5552620  11.1734790  17.9225590
  73.2171700  11.0222040  19.3904440  60.8656120   7.9268130  28.7481800
  60.8225750   7.5561040  29.6296260  60.9967130   8.8645700  28.8883620
  64.5662150   9.4827720  24.3491520  64.3253510   9.7502280  23.4622040
  65.5064790   9.6533450  24.4042380  75.8266310  11.5022100  25.1502160
  75.3324590  11.8990970  24.4329290  75.2179600  10.8771310  25.5439440
  60.7044150  10.8730380  25.8679580  60.1104470  10.7415080  26.6069620
  60.6967990  10.0368520  25.4021680  73.5105760  12.1445520  22.4288900
  73.0508730  12.8961330  22.0546920  72.8818220  11.4251990  22.3703700
  60.3356380   8.2388760  24.8187620  59.6090440   7.6194050  24.7513570
  60.3965530   8.6329370  23.9485700  63.9401480  10.4533760  21.6037030
  64.4566500   9.8421120  21.0785290  64.5898860  10.9562540  22.0948040
  66.6796980  11.3442250  22.4306010  66.9674790  11.0896550  21.5539020
  67.1920200  10.7919610  23.0211580  58.6186380  11.5563150  18.0284380
  58.4508420  10.9233830  18.7266270  57.7520890  11.7622550  17.6778570
  60.2249080  10.2496380  15.4734520  59.6996700  10.6304410  14.7696480
  60.1493660  10.8747150  16.1944230  66.7469340  12.2658350  29.7974210
  67.6736650  12.0302620  29.8410170  66.7319770  13.0930350  29.3160240
  74.9814400  11.8083920  16.7948460  75.1566590  11.1221660  16.1509380
  74.2835970  12.3330970  16.4025130  62.8242050  12.1978760  14.3483770
  63.5560870  11.9138040  13.8007660  63.0835720  11.9592040  15.2383150
  61.9856840   8.3143490  14.3530100  61.3565720   8.7828590  14.9015930
  62.1004670   7.4692710  14.7876290  73.3146900  11.4928210  29.6215250
  74.1072220  10.9977440  29.4141210  73.6080050  12.1718350  30.2290860
  67.5724600   4.1428170   2.3840570  66.7966700   3.6628610   2.6739140
  68.2237530   3.4633820   2.2096730  61.5890430   4.4547980   3.2616330
  60.7575310   4.1996690   3.6612840  62.1971410   4.5258750   3.9974250
  61.5691690   8.4888070   3.4574350  61.8719730   7.5985810   3.2784570
  62.3135280   9.0458290   3.2296600  67.0133590   6.8185360   2.3910730
  66.9441870   5.8775300   2.2299860  67.7753450   6.9086770   2.9633300
  63.5490450   5.2461480   4.8559200  63.2159830   5.8730400   5.4980270
  63.7257130   5.7723360   4.0760870  62.7609550   7.2142280   6.6708380
  63.3783550   7.8893360   6.3892830  61.9002670   7.6230260   6.5795880
  73.6787140   8.6781690   4.5863020  72.9950660   9.3480800   4.5779690
  74.2181430   8.8762340   3.8207880  71.2145880  10.5225820   3.3008200
  71.2273040  10.1188110   2.4330460  70.6621100  11.2973110   3.1969630
  70.6131320   5.4255660   4.6290810  71.0300110   5.2115770   3.7944270
  71.3371140   5.6828450   5.1999430  74.5593420   3.8242880   4.7207050
  73.7312050   3.8935970   4.2457180  75.1543900   4.4097190   4.2522880
  64.1249920   7.0839660   2.6919800  63.8278210   6.4785130   2.0127580
  65.0749740   7.1216970   2.5809160  72.2135530  10.6571530   6.3542900
  71.7366090  11.4643720   6.1615510  71.5297320  10.0049860   6.5069110
  63.2168350   6.8221350   9.3427600  62.3196880   7.0461320   9.5901000
  63.2421220   6.9456290   8.3939000  62.0439570   3.6934670   7.9184970
  61.9047340   4.5657470   8.2872370  61.1620930   3.3507480   7.7732910
  63.8419920   9.6356370  10.1270120  63.8135350  10.0399320   9.2598550
  63.6784890   8.7066730   9.9641720  75.7934740  10.4183470  11.4234290
  76.2694460  10.8966360  12.1023370  76.4141900  10.3500960  10.6979790
  57.9958220   5.4632220   3.8355880  58.0738640   5.5980990   2.8911600
  58.6099900   4.7548110   4.0284000  75.1967990   7.6096320   8.5834300
  75.3231050   7.3708200   7.6651480  75.2389370   6.7780860   9.0556380
  69.0584730  11.3124320   7.1529110  69.5729400  11.2232330   7.9551540
  68.2153810  11.6584020   7.4457020  58.0517740   6.5046390   6.3750340
  58.2148780   6.0351750   5.5569710  58.5170190   5.9969950   7.0399180
  59.6256720   5.8797820   8.5346150  59.2411510   5.2391490   9.1329110
  59.9368910   6.5833940   9.1040880  65.7753860   2.7274360   4.0154770
  66.1423990   2.2532930   4.7616110  65.5858920   3.6015930   4.3563110
  63.5653230   1.7683000   6.3338980  63.2610300   2.6474980   6.5589340
  64.5199690   1.8282790   6.3696420  72.8523000   4.9709350   2.7232220
  73.5722120   5.4664640   2.3328330  72.6504820   4.2927240   2.0786090
  68.2341800   5.0418410   8.6101220  68.1679110   4.1214080   8.3558810
  67.6046940   5.1393850   9.3245860  59.6216960   2.6085740   7.4810340
  59.2631900   3.2739590   8.0683680  59.3271520   1.7769290   7.8522960
  62.8230080   3.0669980  10.3649890  62.5230220   3.2127160   9.4677710
  63.5941320   2.5075270  10.2723280  68.1658530   7.8638980   8.3605020
  68.1803070   6.9319940   8.1423930  67.4583630   7.9498740   8.9994790
  74.3769740   4.5046320   7.7073600  73.6517930   5.0975100   7.5102990
  74.9045200   4.4969860   6.9086970  67.5992430   9.5056550   5.4545520
  68.2434650   9.7115930   6.1318940  67.9621870   8.7444950   5.0016370
  68.8724510   7.5088900   4.1722970  69.5146740   6.8082060   4.2855140
  69.3973860   8.2887340   3.9919860  70.6462130   8.3083800   7.3759030
  70.9818370   8.8950490   8.0536950  69.7262470   8.1776510   7.6056820
  58.4838120  10.0859240   9.1448970  58.5929240   9.1453980   9.0044360
  57.8318680  10.3513990   8.4962700  66.4750710   8.3575130  10.5447090
  66.1547580   7.6384370  11.0892780  65.8009070   9.0330200  10.6183150
  74.1520750   9.8750870   2.0965870  74.2768170  10.6982040   2.5689680
  75.0186310   9.6641600   1.7490020  61.6238280  11.9682080   1.7683000
  62.3600760  11.4197540   2.0391570  62.0079200  12.8338090   1.6288990
  60.6296560  11.1528150  10.9568580  61.4309290  11.4740200  11.3703980
  60.1148380  10.7923730  11.6788490  69.4661190   7.2608020  10.9043990
  68.8599350   7.2839620  10.1639740  69.1615300   6.5291060  11.4411240
  70.8961560  10.9888310   9.5153400  71.8483310  10.9046330   9.4653640
  70.7489780  11.6530020  10.1887190  58.3494370   3.6401610   9.9004630
  58.8533390   3.0608890  10.4720860  57.6101790   3.9241840  10.4381000
  65.4032310   5.0472600   9.4340150  64.6377980   5.6157600   9.3494820
  65.5848270   4.7548810   8.5408380  72.5455660   6.7777930   9.9915170
  73.2865130   7.1153690   9.4882630  71.7828340   6.9469990   9.4384940
  60.3817450   1.7831200  10.7954700  60.4222790   1.4845070  11.7039930
  61.2362950   2.1838810  10.6362220  71.2201320   4.8292760   8.5270380
  71.6342340   4.9837840   9.3760800  70.2852320   4.9547980   8.6896160
  71.6923490   2.1688920  10.5309530  72.2744260   1.4141240  10.4430010
  71.8685260   2.6996360   9.7541010  65.9816550   4.7813240   6.4966310
  66.4004660   5.6245970   6.3242550  65.0625180   4.9185280   6.2673090
  68.3180450   2.5129420   7.8804150  68.4376660   1.9170560   8.6198990
  69.1774450   2.5499110   7.4605450  70.6568350   3.0666610   6.4566660
  70.1303570   3.5909230   5.8531800  70.9999690   3.6994000   7.0876390
  63.8323970  11.0866250   7.6124040  63.2945060  11.8112310   7.2932740
  64.0857930  10.6096590   6.8221380  66.6886180  12.3217460   7.8710690
  66.6144880  13.2252600   8.1783060  65.7865020  12.0029360   7.8432760
  58.5803680  10.5162640   3.9125940  58.1434670  10.6963440   4.7450090
  59.1481360  11.2737260   3.7707660  74.2165860  10.0179640   8.2003250
  73.6167850  10.0772200   7.4567170  74.3459760   9.0784620   8.3300100
  72.9017500   6.7431620   6.2979410  72.0877340   7.1728780   6.5605200
  73.3091700   7.3550030   5.6848460  59.4504040   3.4135440   4.8118160
  59.8177080   3.3262840   5.6914180  58.8814860   2.6501990   4.7125020
  74.2507900   1.8819820   7.8248630  74.0193990   1.6532570   6.9246580
  74.5112450   2.8019370   7.7793520  60.8656120   7.9268130   9.9738310
  60.8225750   7.5561040  10.8552770  60.9967130   8.8645700  10.1140130
  64.5662150   9.4827720   5.5748030  64.3253510   9.7502280   4.6878550
  65.5064790   9.6533450   5.6298890  75.8266310  11.5022100   6.3758670
  75.3324590  11.8990970   5.6585800  75.2179600  10.8771310   6.7695950
  60.7044150  10.8730380   7.0936090  60.1104470  10.7415080   7.8326130
  60.6967990  10.0368520   6.6278190  73.5105760  12.1445520   3.6545410
  73.0508730  12.8961330   3.2803430  72.8818220  11.4251990   3.5960210
  60.3356380   8.2388760   6.0444130  59.6090440   7.6194050   5.9770080
  60.3965530   8.6329370   5.1742210  63.9401480  10.4533760   2.8293540
  64.4566500   9.8421120   2.3041800  64.5898860  10.9562540   3.3204550
  66.6796980  11.3442250   3.6562520  66.9674790  11.0896550   2.7795530
  67.1920200  10.7919610   4.2468090  66.7469340  12.2658350  11.0230720
  67.6736650  12.0302620  11.0666680  66.7319770  13.0930350  10.5416750
  73.3146900  11.4928210  10.8471760  74.1072220  10.9977440  10.6397720
  73.6080050  12.1718350  11.4547370  50.6663070 152.5597070 150.6979220
  50.5857120 151.6451680 150.4270930  50.2527490 153.0564140 149.9918930
  48.7981110 154.3376090 152.5788490  48.0223210 153.8576530 152.8687060
  49.4494040 153.6581740 152.4044650  41.2238890 149.6097790 147.2406640
  40.3355590 149.9513760 147.1386520  41.5080080 149.4098110 146.3487470
  39.1871900 152.2103440 153.1246340  39.7588010 151.4425640 153.1249980
  39.1873440 152.5092200 152.2152950  49.2695270 149.8203660 152.8127580
  49.6460090 148.9475540 152.7001250  49.1714780 150.1562360 151.9218020
  43.4000280 148.1929290 148.2745020  43.5067030 149.0933020 148.5813780
  42.4892640 148.1447260 147.9839670  53.0519390 147.3154100 149.7455920
  53.8729010 146.8250670 149.7881400  53.0853470 147.9051760 150.4987760
  53.2880870 149.2554480 152.5183460  52.5836440 149.5439370 153.0986570
  53.6493030 150.0654590 152.1583020  46.8887330 145.0006450 151.2048660
  47.1962310 144.4453340 150.4884160  45.9588030 145.1350910 151.0221650
  49.2768090 153.0655280 147.9408780  48.3497370 152.9992660 148.1697250
  49.4292910 154.0035410 147.8264020  49.2637170 149.3372280 144.9375940
  48.3240840 149.4986240 145.0228400  49.5820430 150.0557960 144.3911930
  53.3065380 154.6275580 148.4444030  52.6877800 154.2895130 147.7970330
  53.2889830 153.9835340 149.1523220  44.8824730 153.5920020 150.7228510
  44.4781730 152.8797270 150.2274410  44.9687850 153.2473260 151.6116550
  51.4830080 153.8662390 145.4516780  51.9223360 153.0284820 145.3054600
  52.1958500 154.4991790 145.5380920  55.0647220 145.1205200 143.7657820
  54.7519880 145.2132030 144.6656890  55.8259690 145.6986230 143.7155250
  41.5829360 152.4865000 148.2235160  41.4626960 153.2127090 147.6116430
  41.2730250 151.7167910 147.7463070  44.0493020 145.8300070 151.6058830
  43.6061170 146.6109610 151.2743350  44.6078010 146.1529960 152.3129770
  47.1651840 145.4510770 146.4864660  46.5406020 145.4470640 147.2117970
  47.0781960 144.5841730 146.0900630  43.8407240 150.9533640 149.3340080
  43.6148160 150.7370810 150.2386700  43.0599770 151.3862100 148.9886050
  51.0705000 150.9597010 147.9330730  50.4713890 151.6832810 147.7494350
  51.6184610 150.8973790 147.1507180  49.6769870 149.5960550 149.9634010
  50.0699440 149.9132750 149.1502700  50.0386720 148.7172430 150.0778530
  38.7134040 146.1861350 152.1864210  38.4247090 146.7564210 152.8989190
  39.4579800 145.7065800 152.5495440  38.9004270 150.1281470 143.3966930
  38.8178940 151.0712230 143.5381920  38.5487330 149.9856380 142.5179280
  46.7002400 148.8620500 152.4637280  46.7038460 148.4210450 151.6141820
  47.5953520 149.1837830 152.5709100  42.5504780 148.7446990 151.4231490
  42.2104830 149.2222220 152.1798540  41.7882100 148.2912110 151.0632590
  46.7622550 149.8632580 145.4544040  46.8835370 149.8219060 146.4029860
  46.3771060 150.7256730 145.2990770  45.7744050 152.1733720 144.8527340
  45.2060950 151.7251970 144.2263250  46.4833050 152.5326500 144.3192490
  39.8650860 147.6665970 150.3396160  39.5797780 147.3021640 151.1774780
  39.8029720 146.9346430 149.7259300  49.5389450 146.5595230 147.0609530
  48.7254060 146.0608400 146.9854840  49.3451400 147.3993480 146.6445880
  52.2537840 150.9314880 145.3571690  53.1417460 151.2432110 145.1823030
  52.2242930 150.0587130 144.9652270  54.5252110 152.2426720 144.8251550
  54.4415830 152.6740940 143.9747990  55.2446300 152.7025070 145.2578370
  39.3581520 152.8024920 144.2992860  40.2276370 153.0849720 144.5828780
  38.8671840 153.6160790 144.1841670  46.5216330 154.1898130 148.4201140
  46.9779110 155.0003380 148.6461330  46.1704540 153.8721270 149.2519630
  42.4228110 144.5335780 148.8923660  42.2942740 144.5253680 149.8408580
  41.5990130 144.8718870 148.5414670  54.2822850 147.7406150 146.9119370
  53.6536010 147.8451820 146.1977600  53.7874770 147.9602930 147.7013250
  46.2506880 150.0192100 148.3277250  45.5423030 150.4878440 148.7690860
  46.5351360 149.3614110 148.9622440  50.2822310 146.7442760 149.7673040
  50.1590090 146.7628890 148.8182550  51.2306870 146.7921700 149.8871440
  44.4541900 148.3277180 145.7027960  45.3032430 148.7647330 145.6368150
  44.0873170 148.6397440 146.5300020  53.3751680 152.8989940 150.6159530
  52.4341820 152.9140170 150.7907220  53.6895750 152.1125900 151.0619830
  43.3533320 154.5809540 144.1763490  44.1196590 154.4690900 144.7388920
  43.4308010 153.8847510 143.5240260  42.0480080 152.0134610 144.8596380
  42.1283670 151.0662120 144.9713780  42.9399830 152.3441490 144.9657040
  45.3852350 154.5774670 146.1506130  45.8068770 154.4114540 146.9937520
  45.5103190 153.7674900 145.6561270  47.8979990 153.6012280 143.3983230
  48.4185650 152.8861300 143.0324380  48.5448390 154.2398150 143.6983740
  44.2811250 150.6507900 143.0964290  44.0800310 149.7875260 143.4577630
  44.1103300 150.5641260 142.1585890  51.7599560 145.4616130 145.6251170
  52.0401850 144.6184030 145.9810590  50.9865290 145.6939240 146.1389920
  43.0794050 147.7508520 143.0842170  43.3819950 147.7575950 142.1761320
  43.8188640 147.4006380 143.5809830  46.2978980 146.6943140 144.0698370
  45.9500980 146.0167130 143.4900820  46.4991750 146.2332650 144.8841760
  39.6384620 153.2230790 150.4662740  38.9833460 152.9542430 149.8222440
  40.4762570 153.1135270 150.0164720  52.5875060 148.0172080 144.6881230
  53.0059940 147.8303060 143.8477890  52.2811120 147.1651130 144.9984160
  56.0864790 152.9296220 148.3857030  55.7108390 152.1624150 147.9538320
  55.3567910 153.3118920 148.8731960  38.8522700 150.4329720 146.4088070
  37.9486780 150.6959920 146.2339730  39.3363320 150.7040890 145.6288030
  55.3615750 151.1553710 151.6864270  55.8853230 150.6616360 151.0554440
  55.9475170 151.2904070 152.4311840  41.3949910 149.4895260 144.3182450
  42.1041610 149.0678480 143.8329730  40.6789850 149.5570490 143.6865800
  41.0424070 145.5434590 143.3585100  41.7652200 146.0843530 143.6766320
  41.3148590 145.2698010 142.4826640  54.8515720 150.4127060 147.6256680
  55.3474840 150.1797930 148.4105560  54.6531790 149.5738900 147.2094320
  56.2802880 149.0488010 150.1594360  56.1702160 148.8944050 151.0976630
  57.0410470 148.5208950 149.9169770  57.1693150 146.8795930 143.4000500
  58.0942460 146.7477110 143.1918790  57.1468940 146.9588750 144.3536950
  57.2431640 147.6506590 146.0257210  56.4483140 147.5851710 146.5550120
  57.4474920 148.5857230 146.0142560  53.6751570 145.9803470 152.4756040
  54.1159660 145.9248570 151.6277640  53.4059160 146.8961480 152.5466220
  55.5390140 145.6118710 150.4864860  55.4778540 144.6679930 150.3395880
  56.3182170 145.7198800 151.0318320  40.4670910 145.5827850 146.9520670
  41.2250270 145.6956730 146.3784700  40.0048080 146.4197050 146.9064100
  47.0084720 147.6967120 149.9422980  46.1959230 147.3224010 149.6018860
  47.5126360 146.9412200 150.2444170  51.5109700 144.3609570 151.1806050
  52.1139070 144.9329780 151.6554570  50.7702690 144.9249010 150.9579950
  54.6544300 144.7631130 146.4546330  54.8494930 145.6614580 146.7213760
  53.8674170 144.5318210 146.9479280  42.8396060 146.1091900 145.4922640
  43.3688820 145.3221700 145.3630590  43.4724380 146.7883090 145.7258170
  45.0333900 145.8467040 148.5468030  44.4036640 145.1454350 148.7138160
  44.4939040 146.6071170 148.3301190  50.6663070 152.5597070 131.9235730
  50.5857120 151.6451680 131.6527440  50.2527490 153.0564140 131.2175440
  48.7981110 154.3376090 133.8045000  48.0223210 153.8576530 134.0943570
  49.4494040 153.6581740 133.6301160  42.8146940 154.6495900 134.6820760
  41.9831820 154.3944610 135.0817270  43.4227920 154.7206670 135.4178680
  41.2238890 149.6097790 128.4663150  40.3355590 149.9513760 128.3643030
  41.5080080 149.4098110 127.5743980  39.1871900 152.2103440 134.3502850
  39.7588010 151.4425640 134.3506490  39.1873440 152.5092200 133.4409460
  40.4296770 147.6187800 136.1371780  40.2499610 146.7213550 136.4174540
  40.0276850 148.1659670 136.8118730  49.2695270 149.8203660 134.0384090
  49.6460090 148.9475540 133.9257760  49.1714780 150.1562360 133.1474530
  43.4000280 148.1929290 129.5001530  43.5067030 149.0933020 129.8070290
  42.4892640 148.1447260 129.2096180  53.0519390 147.3154100 130.9712430
  53.8729010 146.8250670 131.0137910  53.0853470 147.9051760 131.7244270
  41.0483440 150.1148300 134.7454120  41.7293550 150.3786670 135.3641520
  40.7331490 149.2749170 135.0792130  45.2408010 151.1615660 133.8326710
  45.7486230 151.6596630 134.4731730  45.7721250 150.3850860 133.6566070
  57.3418940 149.3320850 137.5356060  56.6371110 149.7202560 137.0171170
  57.6076860 150.0271140 138.1376990  43.5244110 145.8014220 138.0990130
  43.5262550 146.3186610 137.2936030  42.6948420 145.3244400 138.0760060
  53.2880870 149.2554480 133.7439970  52.5836440 149.5439370 134.3243080
  53.6493030 150.0654590 133.3839530  43.2059440 147.5124180 136.1060580
  43.5476250 148.3566230 135.8114450  42.2675250 147.6607920 136.2225920
  56.3567790 148.7009270 134.1349180  55.4092700 148.7348250 134.2664610
  56.6817780 149.5148220 134.5198540  46.8887330 145.0006450 132.4305170
  47.1962310 144.4453340 131.7140670  45.9588030 145.1350910 132.2478160
  49.2768090 153.0655280 129.1665290  48.3497370 152.9992660 129.3953760
  49.4292910 154.0035410 129.0520530  49.2637170 149.3372280 126.1632450
  48.3240840 149.4986240 126.2484910  49.5820430 150.0557960 125.6168440
  55.7849930 154.0190800 136.1411480  54.9568560 154.0883890 135.6661610
  56.3800410 154.6045110 135.6727310  53.3065380 154.6275580 129.6700540
  52.6877800 154.2895130 129.0226840  53.2889830 153.9835340 130.3779730
  52.7491940 150.8060120 137.0866350  52.3363120 151.6313830 137.3406340
  52.0167890 150.2205160 136.8942710  44.8824730 153.5920020 131.9485020
  44.4781730 152.8797270 131.4530920  44.9687850 153.2473260 132.8373060
  43.5953350 150.3663230 135.7284060  44.1467940 150.4758570 134.9537310
  44.1096860 150.7400830 136.4439290  51.4830080 153.8662390 126.6773290
  51.9223360 153.0284820 126.5311110  52.1958500 154.4991790 126.7637430
  43.2696080 153.8882590 139.3389400  43.1303850 154.7605390 139.7076800
  42.3877440 153.5455400 139.1937340  55.0647220 145.1205200 124.9914330
  54.7519880 145.2132030 125.8913400  55.8259690 145.6986230 124.9411760
  41.5829360 152.4865000 129.4491670  41.4626960 153.2127090 128.8372940
  41.2730250 151.7167910 128.9719580  56.2748510 149.8576700 140.9688470
  55.6592780 150.3656370 140.4403930  55.9544930 148.9575030 140.9114410
  44.0493020 145.8300070 132.8315340  43.6061170 146.6109610 132.4999860
  44.6078010 146.1529960 133.5386280  48.3362830 148.6968590 138.4350660
  47.8742200 148.9051610 139.2470600  47.9340940 147.8827940 138.1321330
  53.3367340 149.9177540 139.5647320  52.4860930 149.6183290 139.8856390
  53.1769130 150.1619550 138.6531140  50.4317050 151.4179290 141.6646110
  50.7570460 150.5843040 141.3248340  51.2197380 151.9407810 141.8124440
  47.1651840 145.4510770 127.7121170  46.5406020 145.4470640 128.4374480
  47.0781960 144.5841730 127.3157140  46.0868920 146.3747400 134.6904940
  46.3841250 147.2810230 134.6096960  46.6354480 145.8866180 134.0764510
  43.8407240 150.9533640 130.5596590  43.6148160 150.7370810 131.4643210
  43.0599770 151.3862100 130.2142560  51.0705000 150.9597010 129.1587240
  50.4713890 151.6832810 128.9750860  51.6184610 150.8973790 128.3763690
  46.2806450 151.8519220 141.2256860  46.1850050 150.9113950 141.0757260
  47.1238430 152.0734290 140.8304930  49.6769870 149.5960550 131.1890520
  50.0699440 149.9132750 130.3759210  50.0386720 148.7172430 131.3035040
  41.4116990 148.2632890 139.3790640  41.0180380 149.1108100 139.5863420
  40.7235390 147.6259260 139.5699280  47.9862040 148.3467860 142.4487380
  47.2960360 148.1540060 143.0833470  48.7294340 148.6302500 142.9811680
  38.7134040 146.1861350 133.4120720  38.4247090 146.7564210 134.1245700
  39.4579800 145.7065800 133.7751950  38.9004270 150.1281470 124.6223440
  38.8178940 151.0712230 124.7638430  38.5487330 149.9856380 123.7435790
  50.2625010 152.1866300 135.2841300  49.5306130 152.6953110 135.6331400
  49.8649350 151.3696280 134.9830080  46.7002400 148.8620500 133.6893790
  46.7038460 148.4210450 132.8398330  47.5953520 149.1837830 133.7965610
  42.5504780 148.7446990 132.6488000  42.2104830 149.2222220 133.4055050
  41.7882100 148.2912110 132.2889100  46.7622550 149.8632580 126.6800550
  46.8835370 149.8219060 127.6286370  46.3771060 150.7256730 126.5247280
  50.7250920 147.6399980 134.6964240  50.7423660 148.0908630 135.5406090
  50.4766500 146.7405620 134.9097680  45.7744050 152.1733720 126.0783850
  45.2060950 151.7251970 125.4519760  46.4833050 152.5326500 125.5449000
  54.1521670 145.0532160 140.5350620  54.4767440 144.3221820 141.0608600
  54.1878180 144.7345800 139.6331610  47.0010370 152.9222280 135.4359200
  47.3680500 152.4480850 136.1820540  46.8115430 153.7963850 135.7767540
  39.8650860 147.6665970 131.5652670  39.5797780 147.3021640 132.4031290
  39.8029720 146.9346430 130.9515810  44.7909740 151.9630920 137.7543410
  44.4866810 152.8422900 137.9793770  45.7456200 152.0230710 137.7900850
  49.5389450 146.5595230 128.2866040  48.7254060 146.0608400 128.2111350
  49.3451400 147.3993480 127.8702390  52.2537840 150.9314880 126.5828200
  53.1417460 151.2432110 126.4079540  52.2242930 150.0587130 126.1908780
  40.8473470 152.8033660 138.9014770  40.4888410 153.4687510 139.4888110
  40.5528030 151.9717210 139.2727390  44.0486590 153.2617900 141.7854320
  43.7486730 153.4075080 140.8882140  44.8197830 152.7023190 141.6927710
  54.5252110 152.2426720 126.0508060  54.4415830 152.6740940 125.2004500
  55.2446300 152.7025070 126.4834880  39.3581520 152.8024920 125.5249370
  40.2276370 153.0849720 125.8085290  38.8671840 153.6160790 125.4098180
  46.5216330 154.1898130 129.6457650  46.9779110 155.0003380 129.8717840
  46.1704540 153.8721270 130.4776140  42.4228110 144.5335780 130.1180170
  42.2942740 144.5253680 131.0665090  41.5990130 144.8718870 129.7671180
  39.4222040 146.2926900 139.5786870  38.7080560 146.4923820 140.1839480
  39.8417080 145.5166470 139.9501670  50.9160820 148.7849210 137.3288320
  51.2841640 147.9644420 137.6567890  50.0559020 148.8451100 137.7443970
  54.2822850 147.7406150 128.1375880  53.6536010 147.8451820 127.4234110
  53.7874770 147.9602930 128.9269760  46.2506880 150.0192100 129.5533760
  45.5423030 150.4878440 129.9947370  46.5351360 149.3614110 130.1878950
  47.8762810 151.4388800 137.5526290  48.3748060 151.9134620 138.2178140
  48.0185760 150.5152320 137.7596320  50.2822310 146.7442760 130.9929550
  50.1590090 146.7628890 130.0439060  51.2306870 146.7921700 131.1127950
  44.4541900 148.3277180 126.9284470  45.3032430 148.7647330 126.8624660
  44.0873170 148.6397440 127.7556530  55.0829670 147.6556760 138.3954680
  54.5803270 148.3962160 138.7348490  55.8986330 148.0440760 138.0791470
  53.3751680 152.8989940 131.8416040  52.4341820 152.9140170 132.0163730
  53.6895750 152.1125900 132.2876340  43.3533320 154.5809540 125.4020000
  44.1196590 154.4690900 125.9645430  43.4308010 153.8847510 124.7496770
  42.0480080 152.0134610 126.0852890  42.1283670 151.0662120 126.1970290
  42.9399830 152.3441490 126.1913550  39.5750880 153.8349530 141.3209060
  40.0789900 153.2556810 141.8925290  38.8358300 154.1189760 141.8585430
  41.6073960 151.9779120 142.2159130  41.6479300 151.6792990 143.1244360
  42.4619460 152.3786730 142.0566650  45.3852350 154.5774670 127.3762640
  45.8068770 154.4114540 128.2194030  45.5103190 153.7674900 126.8817780
  43.5479770 150.5571220 140.1833620  43.0176230 150.0662170 139.5556960
  44.2167840 150.9855420 139.6491550  47.8979990 153.6012280 124.6239740
  48.4185650 152.8861300 124.2580890  48.5448390 154.2398150 124.9240250
  52.9180000 152.3636840 141.9513960  53.5000770 151.6089160 141.8634440
  53.0941770 152.8944280 141.1745440  44.0352070 147.5233590 140.2630910
  43.9408940 146.9054340 139.5381780  43.4549460 148.2499880 140.0360820
  46.8013510 146.0806830 137.2958300  46.3530810 146.1031090 136.4503850
  46.1678710 145.6825850 137.8928600  49.5436960 152.7077340 139.3008580
  49.6633170 152.1118480 140.0403420  50.4030960 152.7447030 138.8809880
  51.8824860 153.2614530 137.8771090  51.3560080 153.7857150 137.2736230
  52.2256200 153.8941920 138.5080820  44.2811250 150.6507900 124.3220800
  44.0800310 149.7875260 124.6834140  44.1103300 150.5641260 123.3842400
  46.3105730 149.2498690 140.5584400  46.9005420 148.9414540 141.2462220
  45.4925970 148.7778440 140.7144300  51.1299160 148.8664500 140.7917420
  50.4414680 148.2046040 140.7267410  51.8505180 148.4202770 141.2365880
  51.7599560 145.4616130 126.8507680  52.0401850 144.6184030 127.2067100
  50.9865290 145.6939240 127.3646430  43.0794050 147.7508520 124.3098680
  43.3819950 147.7575950 123.4017830  43.8188640 147.4006380 124.8066340
  46.2978980 146.6943140 125.2954880  45.9500980 146.0167130 124.7157330
  46.4991750 146.2332650 126.1098270  39.6384620 153.2230790 131.6919250
  38.9833460 152.9542430 131.0478950  40.4762570 153.1135270 131.2421230
  52.5875060 148.0172080 125.9137740  53.0059940 147.8303060 125.0734400
  52.2811120 147.1651130 126.2240670  56.0864790 152.9296220 129.6113540
  55.7108390 152.1624150 129.1794830  55.3567910 153.3118920 130.0988470
  40.6760550 153.6083360 136.2322590  41.0433590 153.5210760 137.1118610
  40.1071370 152.8449910 136.1329450  55.4764410 152.0767740 139.2453060
  55.2450500 151.8480490 138.3451010  55.7368960 152.9967290 139.1997950
  40.2276550 150.5192450 140.1381010  39.3332600 150.4859210 140.4774720
  40.7674100 150.7179240 140.9032260  53.9152480 147.3024170 142.0232760
  54.7922660 147.3107570 142.4066760  53.9273320 146.5655010 141.4125110
  38.8522700 150.4329720 127.6344580  37.9486780 150.6959920 127.4596240
  39.3363320 150.7040890 126.8544540  55.3615750 151.1553710 132.9120780
  55.8853230 150.6616360 132.2810950  55.9475170 151.2904070 133.6568350
  55.5405470 151.2393580 136.4340330  54.5908180 151.2057120 136.5485320
  55.7218480 152.1493690 136.1990100  41.3949910 149.4895260 125.5438960
  42.1041610 149.0678480 125.0586240  40.6789850 149.5570490 124.9122310
  41.0424070 145.5434590 124.5841610  41.7652200 146.0843530 124.9022830
  41.3148590 145.2698010 123.7083150  54.8515720 150.4127060 128.8513190
  55.3474840 150.1797930 129.6362070  54.6531790 149.5738900 128.4350830
  40.7316260 144.7940780 134.4864230  41.3792450 144.2438160 134.0459390
  41.1518100 145.0483930 135.3080040  56.2802880 149.0488010 131.3850870
  56.1702160 148.8944050 132.3233140  57.0410470 148.5208950 131.1426280
  54.6268600 144.9882140 137.8433870  55.2640820 145.6016280 138.2093060
  54.7743490 145.0242800 136.8983100  57.1693150 146.8795930 124.6257010
  58.0942460 146.7477110 124.4175300  57.1468940 146.9588750 125.5793460
  57.2431640 147.6506590 127.2513720  56.4483140 147.5851710 127.7806630
  57.4474920 148.5857230 127.2399070  40.4848260 144.9496450 137.2289550
  40.1363080 145.4060270 137.9947730  40.1535960 144.0553580 137.3111980
  47.9973080 146.1408330 140.7508970  47.9361970 146.7330160 141.5004380
  48.9373460 146.0334290 140.6059230  50.6347640 145.7978390 140.3901260
  51.2488050 146.1157680 139.7282340  51.1797200 145.3126980 141.0097120
  41.1568900 144.4772650 140.5040320  41.7051890 144.2960700 139.7406430
  41.2224210 143.6866760 141.0396630  51.3755680 144.3610530 136.7170550
  50.5015520 144.6945640 136.5143480  51.2666430 143.8883710 137.5422420
  52.2827660 146.5681400 138.1012270  51.9541020 145.7533160 137.7214000
  53.2309960 146.5251210 137.9777960  49.1230500 145.2780370 135.6563460
  48.3402290 145.7525870 135.9360220  48.8293430 144.3735200 135.5476640
  53.6751570 145.9803470 133.7012550  54.1159660 145.9248570 132.8534150
  53.4059160 146.8961480 133.7722730  55.5390140 145.6118710 131.7121370
  55.4778540 144.6679930 131.5652390  56.3182170 145.7198800 132.2574830
  40.4670910 145.5827850 128.1777180  41.2250270 145.6956730 127.6041210
  40.0048080 146.4197050 128.1320610  47.0084720 147.6967120 131.1679490
  46.1959230 147.3224010 130.8275370  47.5126360 146.9412200 131.4700680
  51.5109700 144.3609570 132.4062560  52.1139070 144.9329780 132.8811080
  50.7702690 144.9249010 132.1836460  54.6544300 144.7631130 127.6802840
  54.8494930 145.6614580 127.9470270  53.8674170 144.5318210 128.1735790
  42.8396060 146.1091900 126.7179150  43.3688820 145.3221700 126.5887100
  43.4724380 146.7883090 126.9514680  45.0333900 145.8467040 129.7724540
  44.4036640 145.1454350 129.9394670  44.4939040 146.6071170 129.5557700
  45.1589460 145.1251020 142.2077030  44.8773730 145.6284620 141.4437850
  45.5409160 144.3272770 141.8419160  51.7604920 144.5404600 142.7857500
  51.6470370 144.8599210 143.6809020  52.5774660 144.9417110 142.4894780
  50.6663070 152.5597070 113.1492240  50.5857120 151.6451680 112.8783950
  50.2527490 153.0564140 112.4431950  48.7981110 154.3376090 115.0301510
  48.0223210 153.8576530 115.3200080  49.4494040 153.6581740 114.8557670
  42.8146940 154.6495900 115.9077270  41.9831820 154.3944610 116.3073780
  43.4227920 154.7206670 116.6435190  41.2238890 149.6097790 109.6919660
  40.3355590 149.9513760 109.5899540  41.5080080 149.4098110 108.8000490
  39.1871900 152.2103440 115.5759360  39.7588010 151.4425640 115.5763000
  39.1873440 152.5092200 114.6665970  40.4296770 147.6187800 117.3628290
  40.2499610 146.7213550 117.6431050  40.0276850 148.1659670 118.0375240
  49.2695270 149.8203660 115.2640600  49.6460090 148.9475540 115.1514270
  49.1714780 150.1562360 114.3731040  43.4000280 148.1929290 110.7258040
  43.5067030 149.0933020 111.0326800  42.4892640 148.1447260 110.4352690
  53.0519390 147.3154100 112.1968940  53.8729010 146.8250670 112.2394420
  53.0853470 147.9051760 112.9500780  41.0483440 150.1148300 115.9710630
  41.7293550 150.3786670 116.5898030  40.7331490 149.2749170 116.3048640
  45.2408010 151.1615660 115.0583220  45.7486230 151.6596630 115.6988240
  45.7721250 150.3850860 114.8822580  57.3418940 149.3320850 118.7612570
  56.6371110 149.7202560 118.2427680  57.6076860 150.0271140 119.3633500
  43.5244110 145.8014220 119.3246640  43.5262550 146.3186610 118.5192540
  42.6948420 145.3244400 119.3016570  53.2880870 149.2554480 114.9696480
  52.5836440 149.5439370 115.5499590  53.6493030 150.0654590 114.6096040
  43.2059440 147.5124180 117.3317090  43.5476250 148.3566230 117.0370960
  42.2675250 147.6607920 117.4482430  56.3567790 148.7009270 115.3605690
  55.4092700 148.7348250 115.4921120  56.6817780 149.5148220 115.7455050
  46.8887330 145.0006450 113.6561680  47.1962310 144.4453340 112.9397180
  45.9588030 145.1350910 113.4734670  49.2768090 153.0655280 110.3921800
  48.3497370 152.9992660 110.6210270  49.4292910 154.0035410 110.2777040
  49.2637170 149.3372280 107.3888960  48.3240840 149.4986240 107.4741420
  49.5820430 150.0557960 106.8424950  55.7849930 154.0190800 117.3667990
  54.9568560 154.0883890 116.8918120  56.3800410 154.6045110 116.8983820
  53.3065380 154.6275580 110.8957050  52.6877800 154.2895130 110.2483350
  53.2889830 153.9835340 111.6036240  52.7491940 150.8060120 118.3122860
  52.3363120 151.6313830 118.5662850  52.0167890 150.2205160 118.1199220
  44.8824730 153.5920020 113.1741530  44.4781730 152.8797270 112.6787430
  44.9687850 153.2473260 114.0629570  43.5953350 150.3663230 116.9540570
  44.1467940 150.4758570 116.1793820  44.1096860 150.7400830 117.6695800
  51.4830080 153.8662390 107.9029800  51.9223360 153.0284820 107.7567620
  52.1958500 154.4991790 107.9893940  43.2696080 153.8882590 120.5645910
  43.1303850 154.7605390 120.9333310  42.3877440 153.5455400 120.4193850
  55.0647220 145.1205200 106.2170840  54.7519880 145.2132030 107.1169910
  55.8259690 145.6986230 106.1668270  41.5829360 152.4865000 110.6748180
  41.4626960 153.2127090 110.0629450  41.2730250 151.7167910 110.1976090
  56.2748510 149.8576700 122.1944980  55.6592780 150.3656370 121.6660440
  55.9544930 148.9575030 122.1370920  44.0493020 145.8300070 114.0571850
  43.6061170 146.6109610 113.7256370  44.6078010 146.1529960 114.7642790
  48.3362830 148.6968590 119.6607170  47.8742200 148.9051610 120.4727110
  47.9340940 147.8827940 119.3577840  53.3367340 149.9177540 120.7903830
  52.4860930 149.6183290 121.1112900  53.1769130 150.1619550 119.8787650
  50.4317050 151.4179290 122.8902620  50.7570460 150.5843040 122.5504850
  51.2197380 151.9407810 123.0380950  47.1651840 145.4510770 108.9377680
  46.5406020 145.4470640 109.6630990  47.0781960 144.5841730 108.5413650
  46.0868920 146.3747400 115.9161450  46.3841250 147.2810230 115.8353470
  46.6354480 145.8866180 115.3021020  43.8407240 150.9533640 111.7853100
  43.6148160 150.7370810 112.6899720  43.0599770 151.3862100 111.4399070
  51.0705000 150.9597010 110.3843750  50.4713890 151.6832810 110.2007370
  51.6184610 150.8973790 109.6020200  46.2806450 151.8519220 122.4513370
  46.1850050 150.9113950 122.3013770  47.1238430 152.0734290 122.0561440
  49.6769870 149.5960550 112.4147030  50.0699440 149.9132750 111.6015720
  50.0386720 148.7172430 112.5291550  41.4116990 148.2632890 120.6047150
  41.0180380 149.1108100 120.8119930  40.7235390 147.6259260 120.7955790
  47.9862040 148.3467860 123.6743890  47.2960360 148.1540060 124.3089980
  48.7294340 148.6302500 124.2068190  38.7134040 146.1861350 114.6377230
  38.4247090 146.7564210 115.3502210  39.4579800 145.7065800 115.0008460
  38.9004270 150.1281470 105.8479950  38.8178940 151.0712230 105.9894940
  38.5487330 149.9856380 104.9692300  50.2625010 152.1866300 116.5097810
  49.5306130 152.6953110 116.8587910  49.8649350 151.3696280 116.2086590
  46.7002400 148.8620500 114.9150300  46.7038460 148.4210450 114.0654840
  47.5953520 149.1837830 115.0222120  42.5504780 148.7446990 113.8744510
  42.2104830 149.2222220 114.6311560  41.7882100 148.2912110 113.5145610
  46.7622550 149.8632580 107.9057060  46.8835370 149.8219060 108.8542880
  46.3771060 150.7256730 107.7503790  50.7250920 147.6399980 115.9220750
  50.7423660 148.0908630 116.7662600  50.4766500 146.7405620 116.1354190
  45.7744050 152.1733720 107.3040360  45.2060950 151.7251970 106.6776270
  46.4833050 152.5326500 106.7705510  54.1521670 145.0532160 121.7607130
  54.4767440 144.3221820 122.2865110  54.1878180 144.7345800 120.8588120
  47.0010370 152.9222280 116.6615710  47.3680500 152.4480850 117.4077050
  46.8115430 153.7963850 117.0024050  39.8650860 147.6665970 112.7909180
  39.5797780 147.3021640 113.6287800  39.8029720 146.9346430 112.1772320
  44.7909740 151.9630920 118.9799920  44.4866810 152.8422900 119.2050280
  45.7456200 152.0230710 119.0157360  49.5389450 146.5595230 109.5122550
  48.7254060 146.0608400 109.4367860  49.3451400 147.3993480 109.0958900
  52.2537840 150.9314880 107.8084710  53.1417460 151.2432110 107.6336050
  52.2242930 150.0587130 107.4165290  40.8473470 152.8033660 120.1271280
  40.4888410 153.4687510 120.7144620  40.5528030 151.9717210 120.4983900
  44.0486590 153.2617900 123.0110830  43.7486730 153.4075080 122.1138650
  44.8197830 152.7023190 122.9184220  54.5252110 152.2426720 107.2764570
  54.4415830 152.6740940 106.4261010  55.2446300 152.7025070 107.7091390
  39.3581520 152.8024920 106.7505880  40.2276370 153.0849720 107.0341800
  38.8671840 153.6160790 106.6354690  46.5216330 154.1898130 110.8714160
  46.9779110 155.0003380 111.0974350  46.1704540 153.8721270 111.7032650
  42.4228110 144.5335780 111.3436680  42.2942740 144.5253680 112.2921600
  41.5990130 144.8718870 110.9927690  39.4222040 146.2926900 120.8043380
  38.7080560 146.4923820 121.4095990  39.8417080 145.5166470 121.1758180
  50.9160820 148.7849210 118.5544830  51.2841640 147.9644420 118.8824400
  50.0559020 148.8451100 118.9700480  54.2822850 147.7406150 109.3632390
  53.6536010 147.8451820 108.6490620  53.7874770 147.9602930 110.1526270
  46.2506880 150.0192100 110.7790270  45.5423030 150.4878440 111.2203880
  46.5351360 149.3614110 111.4135460  47.8762810 151.4388800 118.7782800
  48.3748060 151.9134620 119.4434650  48.0185760 150.5152320 118.9852830
  50.2822310 146.7442760 112.2186060  50.1590090 146.7628890 111.2695570
  51.2306870 146.7921700 112.3384460  44.4541900 148.3277180 108.1540980
  45.3032430 148.7647330 108.0881170  44.0873170 148.6397440 108.9813040
  55.0829670 147.6556760 119.6211190  54.5803270 148.3962160 119.9605000
  55.8986330 148.0440760 119.3047980  53.3751680 152.8989940 113.0672550
  52.4341820 152.9140170 113.2420240  53.6895750 152.1125900 113.5132850
  43.3533320 154.5809540 106.6276510  44.1196590 154.4690900 107.1901940
  43.4308010 153.8847510 105.9753280  42.0480080 152.0134610 107.3109400
  42.1283670 151.0662120 107.4226800  42.9399830 152.3441490 107.4170060
  39.5750880 153.8349530 122.5465570  40.0789900 153.2556810 123.1181800
  38.8358300 154.1189760 123.0841940  41.6073960 151.9779120 123.4415640
  41.6479300 151.6792990 124.3500870  42.4619460 152.3786730 123.2823160
  45.3852350 154.5774670 108.6019150  45.8068770 154.4114540 109.4450540
  45.5103190 153.7674900 108.1074290  43.5479770 150.5571220 121.4090130
  43.0176230 150.0662170 120.7813470  44.2167840 150.9855420 120.8748060
  47.8979990 153.6012280 105.8496250  48.4185650 152.8861300 105.4837400
  48.5448390 154.2398150 106.1496760  52.9180000 152.3636840 123.1770470
  53.5000770 151.6089160 123.0890950  53.0941770 152.8944280 122.4001950
  44.0352070 147.5233590 121.4887420  43.9408940 146.9054340 120.7638290
  43.4549460 148.2499880 121.2617330  46.8013510 146.0806830 118.5214810
  46.3530810 146.1031090 117.6760360  46.1678710 145.6825850 119.1185110
  49.5436960 152.7077340 120.5265090  49.6633170 152.1118480 121.2659930
  50.4030960 152.7447030 120.1066390  51.8824860 153.2614530 119.1027600
  51.3560080 153.7857150 118.4992740  52.2256200 153.8941920 119.7337330
  44.2811250 150.6507900 105.5477310  44.0800310 149.7875260 105.9090650
  44.1103300 150.5641260 104.6098910  46.3105730 149.2498690 121.7840910
  46.9005420 148.9414540 122.4718730  45.4925970 148.7778440 121.9400810
  51.1299160 148.8664500 122.0173930  50.4414680 148.2046040 121.9523920
  51.8505180 148.4202770 122.4622390  51.7599560 145.4616130 108.0764190
  52.0401850 144.6184030 108.4323610  50.9865290 145.6939240 108.5902940
  43.0794050 147.7508520 105.5355190  43.3819950 147.7575950 104.6274340
  43.8188640 147.4006380 106.0322850  46.2978980 146.6943140 106.5211390
  45.9500980 146.0167130 105.9413840  46.4991750 146.2332650 107.3354780
  39.6384620 153.2230790 112.9175760  38.9833460 152.9542430 112.2735460
  40.4762570 153.1135270 112.4677740  52.5875060 148.0172080 107.1394250
  53.0059940 147.8303060 106.2990910  52.2811120 147.1651130 107.4497180
  56.0864790 152.9296220 110.8370050  55.7108390 152.1624150 110.4051340
  55.3567910 153.3118920 111.3244980  40.6760550 153.6083360 117.4579100
  41.0433590 153.5210760 118.3375120  40.1071370 152.8449910 117.3585960
  55.4764410 152.0767740 120.4709570  55.2450500 151.8480490 119.5707520
  55.7368960 152.9967290 120.4254460  40.2276550 150.5192450 121.3637520
  39.3332600 150.4859210 121.7031230  40.7674100 150.7179240 122.1288770
  53.9152480 147.3024170 123.2489270  54.7922660 147.3107570 123.6323270
  53.9273320 146.5655010 122.6381620  38.8522700 150.4329720 108.8601090
  37.9486780 150.6959920 108.6852750  39.3363320 150.7040890 108.0801050
  55.3615750 151.1553710 114.1377290  55.8853230 150.6616360 113.5067460
  55.9475170 151.2904070 114.8824860  55.5405470 151.2393580 117.6596840
  54.5908180 151.2057120 117.7741830  55.7218480 152.1493690 117.4246610
  41.3949910 149.4895260 106.7695470  42.1041610 149.0678480 106.2842750
  40.6789850 149.5570490 106.1378820  41.0424070 145.5434590 105.8098120
  41.7652200 146.0843530 106.1279340  41.3148590 145.2698010 104.9339660
  54.8515720 150.4127060 110.0769700  55.3474840 150.1797930 110.8618580
  54.6531790 149.5738900 109.6607340  40.7316260 144.7940780 115.7120740
  41.3792450 144.2438160 115.2715900  41.1518100 145.0483930 116.5336550
  56.2802880 149.0488010 112.6107380  56.1702160 148.8944050 113.5489650
  57.0410470 148.5208950 112.3682790  54.6268600 144.9882140 119.0690380
  55.2640820 145.6016280 119.4349570  54.7743490 145.0242800 118.1239610
  57.1693150 146.8795930 105.8513520  58.0942460 146.7477110 105.6431810
  57.1468940 146.9588750 106.8049970  57.2431640 147.6506590 108.4770230
  56.4483140 147.5851710 109.0063140  57.4474920 148.5857230 108.4655580
  40.4848260 144.9496450 118.4546060  40.1363080 145.4060270 119.2204240
  40.1535960 144.0553580 118.5368490  47.9973080 146.1408330 121.9765480
  47.9361970 146.7330160 122.7260890  48.9373460 146.0334290 121.8315740
  50.6347640 145.7978390 121.6157770  51.2488050 146.1157680 120.9538850
  51.1797200 145.3126980 122.2353630  41.1568900 144.4772650 121.7296830
  41.7051890 144.2960700 120.9662940  41.2224210 143.6866760 122.2653140
  51.3755680 144.3610530 117.9427060  50.5015520 144.6945640 117.7399990
  51.2666430 143.8883710 118.7678930  52.2827660 146.5681400 119.3268780
  51.9541020 145.7533160 118.9470510  53.2309960 146.5251210 119.2034470
  49.1230500 145.2780370 116.8819970  48.3402290 145.7525870 117.1616730
  48.8293430 144.3735200 116.7733150  53.6751570 145.9803470 114.9269060
  54.1159660 145.9248570 114.0790660  53.4059160 146.8961480 114.9979240
  55.5390140 145.6118710 112.9377880  55.4778540 144.6679930 112.7908900
  56.3182170 145.7198800 113.4831340  40.4670910 145.5827850 109.4033690
  41.2250270 145.6956730 108.8297720  40.0048080 146.4197050 109.3577120
  47.0084720 147.6967120 112.3936000  46.1959230 147.3224010 112.0531880
  47.5126360 146.9412200 112.6957190  51.5109700 144.3609570 113.6319070
  52.1139070 144.9329780 114.1067590  50.7702690 144.9249010 113.4092970
  54.6544300 144.7631130 108.9059350  54.8494930 145.6614580 109.1726780
  53.8674170 144.5318210 109.3992300  42.8396060 146.1091900 107.9435660
  43.3688820 145.3221700 107.8143610  43.4724380 146.7883090 108.1771190
  45.0333900 145.8467040 110.9981050  44.4036640 145.1454350 111.1651180
  44.4939040 146.6071170 110.7814210  45.1589460 145.1251020 123.4333540
  44.8773730 145.6284620 122.6694360  45.5409160 144.3272770 123.0675670
  51.7604920 144.5404600 124.0114010  51.6470370 144.8599210 124.9065530
  52.5774660 144.9417110 123.7151290  50.6663070 152.5597070  94.3748750
  50.5857120 151.6451680  94.1040460  50.2527490 153.0564140  93.6688460
  48.7981110 154.3376090  96.2558020  48.0223210 153.8576530  96.5456590
  49.4494040 153.6581740  96.0814180  42.8146940 154.6495900  97.1333780
  41.9831820 154.3944610  97.5330290  43.4227920 154.7206670  97.8691700
  41.2238890 149.6097790  90.9176170  40.3355590 149.9513760  90.8156050
  41.5080080 149.4098110  90.0257000  39.1871900 152.2103440  96.8015870
  39.7588010 151.4425640  96.8019510  39.1873440 152.5092200  95.8922480
  40.4296770 147.6187800  98.5884800  40.2499610 146.7213550  98.8687560
  40.0276850 148.1659670  99.2631750  49.2695270 149.8203660  96.4897110
  49.6460090 148.9475540  96.3770780  49.1714780 150.1562360  95.5987550
  43.4000280 148.1929290  91.9514550  43.5067030 149.0933020  92.2583310
  42.4892640 148.1447260  91.6609200  53.0519390 147.3154100  93.4225450
  53.8729010 146.8250670  93.4650930  53.0853470 147.9051760  94.1757290
  41.0483440 150.1148300  97.1967140  41.7293550 150.3786670  97.8154540
  40.7331490 149.2749170  97.5305150  45.2408010 151.1615660  96.2839730
  45.7486230 151.6596630  96.9244750  45.7721250 150.3850860  96.1079090
  57.3418940 149.3320850  99.9869080  56.6371110 149.7202560  99.4684190
  57.6076860 150.0271140 100.5890010  43.5244110 145.8014220 100.5503150
  43.5262550 146.3186610  99.7449050  42.6948420 145.3244400 100.5273080
  53.2880870 149.2554480  96.1952990  52.5836440 149.5439370  96.7756100
  53.6493030 150.0654590  95.8352550  43.2059440 147.5124180  98.5573600
  43.5476250 148.3566230  98.2627470  42.2675250 147.6607920  98.6738940
  56.3567790 148.7009270  96.5862200  55.4092700 148.7348250  96.7177630
  56.6817780 149.5148220  96.9711560  46.8887330 145.0006450  94.8818190
  47.1962310 144.4453340  94.1653690  45.9588030 145.1350910  94.6991180
  49.2768090 153.0655280  91.6178310  48.3497370 152.9992660  91.8466780
  49.4292910 154.0035410  91.5033550  49.2637170 149.3372280  88.6145470
  48.3240840 149.4986240  88.6997930  49.5820430 150.0557960  88.0681460
  55.7849930 154.0190800  98.5924500  54.9568560 154.0883890  98.1174630
  56.3800410 154.6045110  98.1240330  53.3065380 154.6275580  92.1213560
  52.6877800 154.2895130  91.4739860  53.2889830 153.9835340  92.8292750
  52.7491940 150.8060120  99.5379370  52.3363120 151.6313830  99.7919360
  52.0167890 150.2205160  99.3455730  44.8824730 153.5920020  94.3998040
  44.4781730 152.8797270  93.9043940  44.9687850 153.2473260  95.2886080
  43.5953350 150.3663230  98.1797080  44.1467940 150.4758570  97.4050330
  44.1096860 150.7400830  98.8952310  51.4830080 153.8662390  89.1286310
  51.9223360 153.0284820  88.9824130  52.1958500 154.4991790  89.2150450
  43.2696080 153.8882590 101.7902420  43.1303850 154.7605390 102.1589820
  42.3877440 153.5455400 101.6450360  55.0647220 145.1205200  87.4427350
  54.7519880 145.2132030  88.3426420  55.8259690 145.6986230  87.3924780
  41.5829360 152.4865000  91.9004690  41.4626960 153.2127090  91.2885960
  41.2730250 151.7167910  91.4232600  56.2748510 149.8576700 103.4201490
  55.6592780 150.3656370 102.8916950  55.9544930 148.9575030 103.3627430
  44.0493020 145.8300070  95.2828360  43.6061170 146.6109610  94.9512880
  44.6078010 146.1529960  95.9899300  48.3362830 148.6968590 100.8863680
  47.8742200 148.9051610 101.6983620  47.9340940 147.8827940 100.5834350
  53.3367340 149.9177540 102.0160340  52.4860930 149.6183290 102.3369410
  53.1769130 150.1619550 101.1044160  50.4317050 151.4179290 104.1159130
  50.7570460 150.5843040 103.7761360  51.2197380 151.9407810 104.2637460
  47.1651840 145.4510770  90.1634190  46.5406020 145.4470640  90.8887500
  47.0781960 144.5841730  89.7670160  46.0868920 146.3747400  97.1417960
  46.3841250 147.2810230  97.0609980  46.6354480 145.8866180  96.5277530
  43.8407240 150.9533640  93.0109610  43.6148160 150.7370810  93.9156230
  43.0599770 151.3862100  92.6655580  51.0705000 150.9597010  91.6100260
  50.4713890 151.6832810  91.4263880  51.6184610 150.8973790  90.8276710
  46.2806450 151.8519220 103.6769880  46.1850050 150.9113950 103.5270280
  47.1238430 152.0734290 103.2817950  49.6769870 149.5960550  93.6403540
  50.0699440 149.9132750  92.8272230  50.0386720 148.7172430  93.7548060
  41.4116990 148.2632890 101.8303660  41.0180380 149.1108100 102.0376440
  40.7235390 147.6259260 102.0212300  47.9862040 148.3467860 104.9000400
  47.2960360 148.1540060 105.5346490  48.7294340 148.6302500 105.4324700
  38.7134040 146.1861350  95.8633740  38.4247090 146.7564210  96.5758720
  39.4579800 145.7065800  96.2264970  38.9004270 150.1281470  87.0736460
  38.8178940 151.0712230  87.2151450  38.5487330 149.9856380  86.1948810
  50.2625010 152.1866300  97.7354320  49.5306130 152.6953110  98.0844420
  49.8649350 151.3696280  97.4343100  46.7002400 148.8620500  96.1406810
  46.7038460 148.4210450  95.2911350  47.5953520 149.1837830  96.2478630
  42.5504780 148.7446990  95.1001020  42.2104830 149.2222220  95.8568070
  41.7882100 148.2912110  94.7402120  46.7622550 149.8632580  89.1313570
  46.8835370 149.8219060  90.0799390  46.3771060 150.7256730  88.9760300
  50.7250920 147.6399980  97.1477260  50.7423660 148.0908630  97.9919110
  50.4766500 146.7405620  97.3610700  45.7744050 152.1733720  88.5296870
  45.2060950 151.7251970  87.9032780  46.4833050 152.5326500  87.9962020
  54.1521670 145.0532160 102.9863640  54.4767440 144.3221820 103.5121620
  54.1878180 144.7345800 102.0844630  47.0010370 152.9222280  97.8872220
  47.3680500 152.4480850  98.6333560  46.8115430 153.7963850  98.2280560
  39.8650860 147.6665970  94.0165690  39.5797780 147.3021640  94.8544310
  39.8029720 146.9346430  93.4028830  44.7909740 151.9630920 100.2056430
  44.4866810 152.8422900 100.4306790  45.7456200 152.0230710 100.2413870
  49.5389450 146.5595230  90.7379060  48.7254060 146.0608400  90.6624370
  49.3451400 147.3993480  90.3215410  52.2537840 150.9314880  89.0341220
  53.1417460 151.2432110  88.8592560  52.2242930 150.0587130  88.6421800
  40.8473470 152.8033660 101.3527790  40.4888410 153.4687510 101.9401130
  40.5528030 151.9717210 101.7240410  44.0486590 153.2617900 104.2367340
  43.7486730 153.4075080 103.3395160  44.8197830 152.7023190 104.1440730
  54.5252110 152.2426720  88.5021080  54.4415830 152.6740940  87.6517520
  55.2446300 152.7025070  88.9347900  39.3581520 152.8024920  87.9762390
  40.2276370 153.0849720  88.2598310  38.8671840 153.6160790  87.8611200
  46.5216330 154.1898130  92.0970670  46.9779110 155.0003380  92.3230860
  46.1704540 153.8721270  92.9289160  42.4228110 144.5335780  92.5693190
  42.2942740 144.5253680  93.5178110  41.5990130 144.8718870  92.2184200
  39.4222040 146.2926900 102.0299890  38.7080560 146.4923820 102.6352500
  39.8417080 145.5166470 102.4014690  50.9160820 148.7849210  99.7801340
  51.2841640 147.9644420 100.1080910  50.0559020 148.8451100 100.1956990
  54.2822850 147.7406150  90.5888900  53.6536010 147.8451820  89.8747130
  53.7874770 147.9602930  91.3782780  46.2506880 150.0192100  92.0046780
  45.5423030 150.4878440  92.4460390  46.5351360 149.3614110  92.6391970
  47.8762810 151.4388800 100.0039310  48.3748060 151.9134620 100.6691160
  48.0185760 150.5152320 100.2109340  50.2822310 146.7442760  93.4442570
  50.1590090 146.7628890  92.4952080  51.2306870 146.7921700  93.5640970
  44.4541900 148.3277180  89.3797490  45.3032430 148.7647330  89.3137680
  44.0873170 148.6397440  90.2069550  55.0829670 147.6556760 100.8467700
  54.5803270 148.3962160 101.1861510  55.8986330 148.0440760 100.5304490
  53.3751680 152.8989940  94.2929060  52.4341820 152.9140170  94.4676750
  53.6895750 152.1125900  94.7389360  43.3533320 154.5809540  87.8533020
  44.1196590 154.4690900  88.4158450  43.4308010 153.8847510  87.2009790
  42.0480080 152.0134610  88.5365910  42.1283670 151.0662120  88.6483310
  42.9399830 152.3441490  88.6426570  39.5750880 153.8349530 103.7722080
  40.0789900 153.2556810 104.3438310  38.8358300 154.1189760 104.3098450
  41.6073960 151.9779120 104.6672150  41.6479300 151.6792990 105.5757380
  42.4619460 152.3786730 104.5079670  45.3852350 154.5774670  89.8275660
  45.8068770 154.4114540  90.6707050  45.5103190 153.7674900  89.3330800
  43.5479770 150.5571220 102.6346640  43.0176230 150.0662170 102.0069980
  44.2167840 150.9855420 102.1004570  47.8979990 153.6012280  87.0752760
  48.4185650 152.8861300  86.7093910  48.5448390 154.2398150  87.3753270
  52.9180000 152.3636840 104.4026980  53.5000770 151.6089160 104.3147460
  53.0941770 152.8944280 103.6258460  44.0352070 147.5233590 102.7143930
  43.9408940 146.9054340 101.9894800  43.4549460 148.2499880 102.4873840
  46.8013510 146.0806830  99.7471320  46.3530810 146.1031090  98.9016870
  46.1678710 145.6825850 100.3441620  49.5436960 152.7077340 101.7521600
  49.6633170 152.1118480 102.4916440  50.4030960 152.7447030 101.3322900
  51.8824860 153.2614530 100.3284110  51.3560080 153.7857150  99.7249250
  52.2256200 153.8941920 100.9593840  44.2811250 150.6507900  86.7733820
  44.0800310 149.7875260  87.1347160  44.1103300 150.5641260  85.8355420
  46.3105730 149.2498690 103.0097420  46.9005420 148.9414540 103.6975240
  45.4925970 148.7778440 103.1657320  51.1299160 148.8664500 103.2430440
  50.4414680 148.2046040 103.1780430  51.8505180 148.4202770 103.6878900
  51.7599560 145.4616130  89.3020700  52.0401850 144.6184030  89.6580120
  50.9865290 145.6939240  89.8159450  43.0794050 147.7508520  86.7611700
  43.3819950 147.7575950  85.8530850  43.8188640 147.4006380  87.2579360
  46.2978980 146.6943140  87.7467900  45.9500980 146.0167130  87.1670350
  46.4991750 146.2332650  88.5611290  39.6384620 153.2230790  94.1432270
  38.9833460 152.9542430  93.4991970  40.4762570 153.1135270  93.6934250
  52.5875060 148.0172080  88.3650760  53.0059940 147.8303060  87.5247420
  52.2811120 147.1651130  88.6753690  56.0864790 152.9296220  92.0626560
  55.7108390 152.1624150  91.6307850  55.3567910 153.3118920  92.5501490
  40.6760550 153.6083360  98.6835610  41.0433590 153.5210760  99.5631630
  40.1071370 152.8449910  98.5842470  55.4764410 152.0767740 101.6966080
  55.2450500 151.8480490 100.7964030  55.7368960 152.9967290 101.6510970
  40.2276550 150.5192450 102.5894030  39.3332600 150.4859210 102.9287740
  40.7674100 150.7179240 103.3545280  53.9152480 147.3024170 104.4745780
  54.7922660 147.3107570 104.8579780  53.9273320 146.5655010 103.8638130
  38.8522700 150.4329720  90.0857600  37.9486780 150.6959920  89.9109260
  39.3363320 150.7040890  89.3057560  55.3615750 151.1553710  95.3633800
  55.8853230 150.6616360  94.7323970  55.9475170 151.2904070  96.1081370
  55.5405470 151.2393580  98.8853350  54.5908180 151.2057120  98.9998340
  55.7218480 152.1493690  98.6503120  41.3949910 149.4895260  87.9951980
  42.1041610 149.0678480  87.5099260  40.6789850 149.5570490  87.3635330
  41.0424070 145.5434590  87.0354630  41.7652200 146.0843530  87.3535850
  41.3148590 145.2698010  86.1596170  54.8515720 150.4127060  91.3026210
  55.3474840 150.1797930  92.0875090  54.6531790 149.5738900  90.8863850
  40.7316260 144.7940780  96.9377250  41.3792450 144.2438160  96.4972410
  41.1518100 145.0483930  97.7593060  56.2802880 149.0488010  93.8363890
  56.1702160 148.8944050  94.7746160  57.0410470 148.5208950  93.5939300
  54.6268600 144.9882140 100.2946890  55.2640820 145.6016280 100.6606080
  54.7743490 145.0242800  99.3496120  57.1693150 146.8795930  87.0770030
  58.0942460 146.7477110  86.8688320  57.1468940 146.9588750  88.0306480
  57.2431640 147.6506590  89.7026740  56.4483140 147.5851710  90.2319650
  57.4474920 148.5857230  89.6912090  40.4848260 144.9496450  99.6802570
  40.1363080 145.4060270 100.4460750  40.1535960 144.0553580  99.7625000
  47.9973080 146.1408330 103.2021990  47.9361970 146.7330160 103.9517400
  48.9373460 146.0334290 103.0572250  50.6347640 145.7978390 102.8414280
  51.2488050 146.1157680 102.1795360  51.1797200 145.3126980 103.4610140
  41.1568900 144.4772650 102.9553340  41.7051890 144.2960700 102.1919450
  41.2224210 143.6866760 103.4909650  51.3755680 144.3610530  99.1683570
  50.5015520 144.6945640  98.9656500  51.2666430 143.8883710  99.9935440
  52.2827660 146.5681400 100.5525290  51.9541020 145.7533160 100.1727020
  53.2309960 146.5251210 100.4290980  49.1230500 145.2780370  98.1076480
  48.3402290 145.7525870  98.3873240  48.8293430 144.3735200  97.9989660
  53.6751570 145.9803470  96.1525570  54.1159660 145.9248570  95.3047170
  53.4059160 146.8961480  96.2235750  55.5390140 145.6118710  94.1634390
  55.4778540 144.6679930  94.0165410  56.3182170 145.7198800  94.7087850
  40.4670910 145.5827850  90.6290200  41.2250270 145.6956730  90.0554230
  40.0048080 146.4197050  90.5833630  47.0084720 147.6967120  93.6192510
  46.1959230 147.3224010  93.2788390  47.5126360 146.9412200  93.9213700
  51.5109700 144.3609570  94.8575580  52.1139070 144.9329780  95.3324100
  50.7702690 144.9249010  94.6349480  54.6544300 144.7631130  90.1315860
  54.8494930 145.6614580  90.3983290  53.8674170 144.5318210  90.6248810
  42.8396060 146.1091900  89.1692170  43.3688820 145.3221700  89.0400120
  43.4724380 146.7883090  89.4027700  45.0333900 145.8467040  92.2237560
  44.4036640 145.1454350  92.3907690  44.4939040 146.6071170  92.0070720
  45.1589460 145.1251020 104.6590050  44.8773730 145.6284620 103.8950870
  45.5409160 144.3272770 104.2932180  51.7604920 144.5404600 105.2370520
  51.6470370 144.8599210 106.1322040  52.5774660 144.9417110 104.9407800
  50.6663070 152.5597070  75.6005260  50.5857120 151.6451680  75.3296970
  50.2527490 153.0564140  74.8944970  48.7981110 154.3376090  77.4814530
  48.0223210 153.8576530  77.7713100  49.4494040 153.6581740  77.3070690
  42.8146940 154.6495900  78.3590290  41.9831820 154.3944610  78.7586800
  43.4227920 154.7206670  79.0948210  41.2238890 149.6097790  72.1432680
  40.3355590 149.9513760  72.0412560  41.5080080 149.4098110  71.2513510
  39.1871900 152.2103440  78.0272380  39.7588010 151.4425640  78.0276020
  39.1873440 152.5092200  77.1178990  40.4296770 147.6187800  79.8141310
  40.2499610 146.7213550  80.0944070  40.0276850 148.1659670  80.4888260
  49.2695270 149.8203660  77.7153620  49.6460090 148.9475540  77.6027290
  49.1714780 150.1562360  76.8244060  43.4000280 148.1929290  73.1771060
  43.5067030 149.0933020  73.4839820  42.4892640 148.1447260  72.8865710
  53.0519390 147.3154100  74.6481960  53.8729010 146.8250670  74.6907440
  53.0853470 147.9051760  75.4013800  41.0483440 150.1148300  78.4223650
  41.7293550 150.3786670  79.0411050  40.7331490 149.2749170  78.7561660
  45.2408010 151.1615660  77.5096240  45.7486230 151.6596630  78.1501260
  45.7721250 150.3850860  77.3335600  57.3418940 149.3320850  81.2125590
  56.6371110 149.7202560  80.6940700  57.6076860 150.0271140  81.8146520
  43.5244110 145.8014220  81.7759660  43.5262550 146.3186610  80.9705560
  42.6948420 145.3244400  81.7529590  53.2880870 149.2554480  77.4209500
  52.5836440 149.5439370  78.0012610  53.6493030 150.0654590  77.0609060
  43.2059440 147.5124180  79.7830110  43.5476250 148.3566230  79.4883980
  42.2675250 147.6607920  79.8995450  56.3567790 148.7009270  77.8118710
  55.4092700 148.7348250  77.9434140  56.6817780 149.5148220  78.1968070
  46.8887330 145.0006450  76.1074700  47.1962310 144.4453340  75.3910200
  45.9588030 145.1350910  75.9247690  49.2768090 153.0655280  72.8434820
  48.3497370 152.9992660  73.0723290  49.4292910 154.0035410  72.7290060
  49.2637170 149.3372280  69.8401980  48.3240840 149.4986240  69.9254440
  49.5820430 150.0557960  69.2937970  55.7849930 154.0190800  79.8181010
  54.9568560 154.0883890  79.3431140  56.3800410 154.6045110  79.3496840
  53.3065380 154.6275580  73.3470070  52.6877800 154.2895130  72.6996370
  53.2889830 153.9835340  74.0549260  52.7491940 150.8060120  80.7635880
  52.3363120 151.6313830  81.0175870  52.0167890 150.2205160  80.5712240
  44.8824730 153.5920020  75.6254550  44.4781730 152.8797270  75.1300450
  44.9687850 153.2473260  76.5142590  43.5953350 150.3663230  79.4053590
  44.1467940 150.4758570  78.6306840  44.1096860 150.7400830  80.1208820
  51.4830080 153.8662390  70.3542820  51.9223360 153.0284820  70.2080640
  52.1958500 154.4991790  70.4406960  43.2696080 153.8882590  83.0158930
  43.1303850 154.7605390  83.3846330  42.3877440 153.5455400  82.8706870
  55.0647220 145.1205200  68.6683860  54.7519880 145.2132030  69.5682930
  55.8259690 145.6986230  68.6181290  41.5829360 152.4865000  73.1261200
  41.4626960 153.2127090  72.5142470  41.2730250 151.7167910  72.6489110
  56.2748510 149.8576700  84.6458000  55.6592780 150.3656370  84.1173460
  55.9544930 148.9575030  84.5883940  44.0493020 145.8300070  76.5084870
  43.6061170 146.6109610  76.1769390  44.6078010 146.1529960  77.2155810
  48.3362830 148.6968590  82.1120190  47.8742200 148.9051610  82.9240130
  47.9340940 147.8827940  81.8090860  53.3367340 149.9177540  83.2416850
  52.4860930 149.6183290  83.5625920  53.1769130 150.1619550  82.3300670
  50.4317050 151.4179290  85.3415640  50.7570460 150.5843040  85.0017870
  51.2197380 151.9407810  85.4893970  47.1651840 145.4510770  71.3890700
  46.5406020 145.4470640  72.1144010  47.0781960 144.5841730  70.9926670
  46.0868920 146.3747400  78.3674470  46.3841250 147.2810230  78.2866490
  46.6354480 145.8866180  77.7534040  43.8407240 150.9533640  74.2366120
  43.6148160 150.7370810  75.1412740  43.0599770 151.3862100  73.8912090
  51.0705000 150.9597010  72.8356770  50.4713890 151.6832810  72.6520390
  51.6184610 150.8973790  72.0533220  46.2806450 151.8519220  84.9026390
  46.1850050 150.9113950  84.7526790  47.1238430 152.0734290  84.5074460
  49.6769870 149.5960550  74.8660050  50.0699440 149.9132750  74.0528740
  50.0386720 148.7172430  74.9804570  41.4116990 148.2632890  83.0560170
  41.0180380 149.1108100  83.2632950  40.7235390 147.6259260  83.2468810
  47.9862040 148.3467860  86.1256910  47.2960360 148.1540060  86.7603000
  48.7294340 148.6302500  86.6581210  38.7134040 146.1861350  77.0890250
  38.4247090 146.7564210  77.8015230  39.4579800 145.7065800  77.4521480
  38.9004270 150.1281470  68.2992970  38.8178940 151.0712230  68.4407960
  38.5487330 149.9856380  67.4205320  50.2625010 152.1866300  78.9610830
  49.5306130 152.6953110  79.3100930  49.8649350 151.3696280  78.6599610
  46.7002400 148.8620500  77.3663320  46.7038460 148.4210450  76.5167860
  47.5953520 149.1837830  77.4735140  42.5504780 148.7446990  76.3257530
  42.2104830 149.2222220  77.0824580  41.7882100 148.2912110  75.9658630
  46.7622550 149.8632580  70.3570080  46.8835370 149.8219060  71.3055900
  46.3771060 150.7256730  70.2016810  50.7250920 147.6399980  78.3733770
  50.7423660 148.0908630  79.2175620  50.4766500 146.7405620  78.5867210
  45.7744050 152.1733720  69.7553380  45.2060950 151.7251970  69.1289290
  46.4833050 152.5326500  69.2218530  54.1521670 145.0532160  84.2120150
  54.4767440 144.3221820  84.7378130  54.1878180 144.7345800  83.3101140
  47.0010370 152.9222280  79.1128730  47.3680500 152.4480850  79.8590070
  46.8115430 153.7963850  79.4537070  39.8650860 147.6665970  75.2422200
  39.5797780 147.3021640  76.0800820  39.8029720 146.9346430  74.6285340
  44.7909740 151.9630920  81.4312940  44.4866810 152.8422900  81.6563300
  45.7456200 152.0230710  81.4670380  49.5389450 146.5595230  71.9635570
  48.7254060 146.0608400  71.8880880  49.3451400 147.3993480  71.5471920
  52.2537840 150.9314880  70.2597730  53.1417460 151.2432110  70.0849070
  52.2242930 150.0587130  69.8678310  40.8473470 152.8033660  82.5784300
  40.4888410 153.4687510  83.1657640  40.5528030 151.9717210  82.9496920
  44.0486590 153.2617900  85.4623850  43.7486730 153.4075080  84.5651670
  44.8197830 152.7023190  85.3697240  54.5252110 152.2426720  69.7277590
  54.4415830 152.6740940  68.8774030  55.2446300 152.7025070  70.1604410
  39.3581520 152.8024920  69.2018900  40.2276370 153.0849720  69.4854820
  38.8671840 153.6160790  69.0867710  46.5216330 154.1898130  73.3227180
  46.9779110 155.0003380  73.5487370  46.1704540 153.8721270  74.1545670
  42.4228110 144.5335780  73.7949700  42.2942740 144.5253680  74.7434620
  41.5990130 144.8718870  73.4440710  39.4222040 146.2926900  83.2556400
  38.7080560 146.4923820  83.8609010  39.8417080 145.5166470  83.6271200
  50.9160820 148.7849210  81.0057850  51.2841640 147.9644420  81.3337420
  50.0559020 148.8451100  81.4213500  54.2822850 147.7406150  71.8145410
  53.6536010 147.8451820  71.1003640  53.7874770 147.9602930  72.6039290
  46.2506880 150.0192100  73.2303290  45.5423030 150.4878440  73.6716900
  46.5351360 149.3614110  73.8648480  47.8762810 151.4388800  81.2295820
  48.3748060 151.9134620  81.8947670  48.0185760 150.5152320  81.4365850
  50.2822310 146.7442760  74.6699080  50.1590090 146.7628890  73.7208590
  51.2306870 146.7921700  74.7897480  44.4541900 148.3277180  70.6054000
  45.3032430 148.7647330  70.5394190  44.0873170 148.6397440  71.4326060
  55.0829670 147.6556760  82.0724210  54.5803270 148.3962160  82.4118020
  55.8986330 148.0440760  81.7561000  53.3751680 152.8989940  75.5185570
  52.4341820 152.9140170  75.6933260  53.6895750 152.1125900  75.9645870
  43.3533320 154.5809540  69.0789530  44.1196590 154.4690900  69.6414960
  43.4308010 153.8847510  68.4266300  42.0480080 152.0134610  69.7622420
  42.1283670 151.0662120  69.8739820  42.9399830 152.3441490  69.8683080
  39.5750880 153.8349530  84.9978590  40.0789900 153.2556810  85.5694820
  38.8358300 154.1189760  85.5354960  41.6073960 151.9779120  85.8928660
  41.6479300 151.6792990  86.8013890  42.4619460 152.3786730  85.7336180
  45.3852350 154.5774670  71.0532170  45.8068770 154.4114540  71.8963560
  45.5103190 153.7674900  70.5587310  43.5479770 150.5571220  83.8603150
  43.0176230 150.0662170  83.2326490  44.2167840 150.9855420  83.3261080
  47.8979990 153.6012280  68.3009270  48.4185650 152.8861300  67.9350420
  48.5448390 154.2398150  68.6009780  52.9180000 152.3636840  85.6283490
  53.5000770 151.6089160  85.5403970  53.0941770 152.8944280  84.8514970
  44.0352070 147.5233590  83.9400440  43.9408940 146.9054340  83.2151310
  43.4549460 148.2499880  83.7130350  46.8013510 146.0806830  80.9727830
  46.3530810 146.1031090  80.1273380  46.1678710 145.6825850  81.5698130
  49.5436960 152.7077340  82.9778110  49.6633170 152.1118480  83.7172950
  50.4030960 152.7447030  82.5579410  51.8824860 153.2614530  81.5540620
  51.3560080 153.7857150  80.9505760  52.2256200 153.8941920  82.1850350
  44.2811250 150.6507900  67.9990330  44.0800310 149.7875260  68.3603670
  44.1103300 150.5641260  67.0611930  46.3105730 149.2498690  84.2353930
  46.9005420 148.9414540  84.9231750  45.4925970 148.7778440  84.3913830
  51.1299160 148.8664500  84.4686950  50.4414680 148.2046040  84.4036940
  51.8505180 148.4202770  84.9135410  51.7599560 145.4616130  70.5277210
  52.0401850 144.6184030  70.8836630  50.9865290 145.6939240  71.0415960
  43.0794050 147.7508520  67.9868210  43.3819950 147.7575950  67.0787360
  43.8188640 147.4006380  68.4835870  46.2978980 146.6943140  68.9724410
  45.9500980 146.0167130  68.3926860  46.4991750 146.2332650  69.7867800
  39.6384620 153.2230790  75.3688780  38.9833460 152.9542430  74.7248480
  40.4762570 153.1135270  74.9190760  52.5875060 148.0172080  69.5907270
  53.0059940 147.8303060  68.7503930  52.2811120 147.1651130  69.9010200
  56.0864790 152.9296220  73.2883070  55.7108390 152.1624150  72.8564360
  55.3567910 153.3118920  73.7758000  40.6760550 153.6083360  79.9092120
  41.0433590 153.5210760  80.7888140  40.1071370 152.8449910  79.8098980
  55.4764410 152.0767740  82.9222590  55.2450500 151.8480490  82.0220540
  55.7368960 152.9967290  82.8767480  40.2276550 150.5192450  83.8150540
  39.3332600 150.4859210  84.1544250  40.7674100 150.7179240  84.5801790
  53.9152480 147.3024170  85.7002290  54.7922660 147.3107570  86.0836290
  53.9273320 146.5655010  85.0894640  38.8522700 150.4329720  71.3114110
  37.9486780 150.6959920  71.1365770  39.3363320 150.7040890  70.5314070
  55.3615750 151.1553710  76.5890310  55.8853230 150.6616360  75.9580480
  55.9475170 151.2904070  77.3337880  55.5405470 151.2393580  80.1109860
  54.5908180 151.2057120  80.2254850  55.7218480 152.1493690  79.8759630
  41.3949910 149.4895260  69.2208490  42.1041610 149.0678480  68.7355770
  40.6789850 149.5570490  68.5891840  41.0424070 145.5434590  68.2611140
  41.7652200 146.0843530  68.5792360  41.3148590 145.2698010  67.3852680
  54.8515720 150.4127060  72.5282720  55.3474840 150.1797930  73.3131600
  54.6531790 149.5738900  72.1120360  40.7316260 144.7940780  78.1633760
  41.3792450 144.2438160  77.7228920  41.1518100 145.0483930  78.9849570
  56.2802880 149.0488010  75.0620400  56.1702160 148.8944050  76.0002670
  57.0410470 148.5208950  74.8195810  54.6268600 144.9882140  81.5203400
  55.2640820 145.6016280  81.8862590  54.7743490 145.0242800  80.5752630
  57.1693150 146.8795930  68.3026540  58.0942460 146.7477110  68.0944830
  57.1468940 146.9588750  69.2562990  57.2431640 147.6506590  70.9283250
  56.4483140 147.5851710  71.4576160  57.4474920 148.5857230  70.9168600
  40.4848260 144.9496450  80.9059080  40.1363080 145.4060270  81.6717260
  40.1535960 144.0553580  80.9881510  47.9973080 146.1408330  84.4278500
  47.9361970 146.7330160  85.1773910  48.9373460 146.0334290  84.2828760
  50.6347640 145.7978390  84.0670790  51.2488050 146.1157680  83.4051870
  51.1797200 145.3126980  84.6866650  41.1568900 144.4772650  84.1809850
  41.7051890 144.2960700  83.4175960  41.2224210 143.6866760  84.7166160
  51.3755680 144.3610530  80.3940080  50.5015520 144.6945640  80.1913010
  51.2666430 143.8883710  81.2191950  52.2827660 146.5681400  81.7781800
  51.9541020 145.7533160  81.3983530  53.2309960 146.5251210  81.6547490
  49.1230500 145.2780370  79.3332990  48.3402290 145.7525870  79.6129750
  48.8293430 144.3735200  79.2246170  53.6751570 145.9803470  77.3782080
  54.1159660 145.9248570  76.5303680  53.4059160 146.8961480  77.4492260
  55.5390140 145.6118710  75.3890900  55.4778540 144.6679930  75.2421920
  56.3182170 145.7198800  75.9344360  40.4670910 145.5827850  71.8546710
  41.2250270 145.6956730  71.2810740  40.0048080 146.4197050  71.8090140
  47.0084720 147.6967120  74.8449020  46.1959230 147.3224010  74.5044900
  47.5126360 146.9412200  75.1470210  51.5109700 144.3609570  76.0832090
  52.1139070 144.9329780  76.5580610  50.7702690 144.9249010  75.8605990
  54.6544300 144.7631130  71.3572370  54.8494930 145.6614580  71.6239800
  53.8674170 144.5318210  71.8505320  42.8396060 146.1091900  70.3948680
  43.3688820 145.3221700  70.2656630  43.4724380 146.7883090  70.6284210
  45.0333900 145.8467040  73.4494070  44.4036640 145.1454350  73.6164200
  44.4939040 146.6071170  73.2327230  45.1589460 145.1251020  85.8846560
  44.8773730 145.6284620  85.1207380  45.5409160 144.3272770  85.5188690
  51.7604920 144.5404600  86.4627030  51.6470370 144.8599210  87.3578550
  52.5774660 144.9417110  86.1664310  50.6663070 152.5597070  56.8261770
  50.5857120 151.6451680  56.5553480  50.2527490 153.0564140  56.1201480
  48.7981110 154.3376090  58.7071040  48.0223210 153.8576530  58.9969610
  49.4494040 153.6581740  58.5327200  42.8146940 154.6495900  59.5846800
  41.9831820 154.3944610  59.9843310  43.4227920 154.7206670  60.3204720
  41.2238890 149.6097790  53.3689190  40.3355590 149.9513760  53.2669070
  41.5080080 149.4098110  52.4770020  39.1871900 152.2103440  59.2528890
  39.7588010 151.4425640  59.2532530  39.1873440 152.5092200  58.3435500
  40.4296770 147.6187800  61.0397820  40.2499610 146.7213550  61.3200580
  40.0276850 148.1659670  61.7144770  49.2695270 149.8203660  58.9410130
  49.6460090 148.9475540  58.8283800  49.1714780 150.1562360  58.0500570
  43.4000280 148.1929290  54.4027570  43.5067030 149.0933020  54.7096330
  42.4892640 148.1447260  54.1122220  53.0519390 147.3154100  55.8738470
  53.8729010 146.8250670  55.9163950  53.0853470 147.9051760  56.6270310
  41.0483440 150.1148300  59.6480160  41.7293550 150.3786670  60.2667560
  40.7331490 149.2749170  59.9818170  45.2408010 151.1615660  58.7352750
  45.7486230 151.6596630  59.3757770  45.7721250 150.3850860  58.5592110
  57.3418940 149.3320850  62.4382100  56.6371110 149.7202560  61.9197210
  57.6076860 150.0271140  63.0403030  43.5244110 145.8014220  63.0016170
  43.5262550 146.3186610  62.1962070  42.6948420 145.3244400  62.9786100
  53.2880870 149.2554480  58.6466010  52.5836440 149.5439370  59.2269120
  53.6493030 150.0654590  58.2865570  43.2059440 147.5124180  61.0086620
  43.5476250 148.3566230  60.7140490  42.2675250 147.6607920  61.1251960
  56.3567790 148.7009270  59.0375220  55.4092700 148.7348250  59.1690650
  56.6817780 149.5148220  59.4224580  46.8887330 145.0006450  57.3331210
  47.1962310 144.4453340  56.6166710  45.9588030 145.1350910  57.1504200
  49.2768090 153.0655280  54.0691330  48.3497370 152.9992660  54.2979800
  49.4292910 154.0035410  53.9546570  49.2637170 149.3372280  51.0658490
  48.3240840 149.4986240  51.1510950  49.5820430 150.0557960  50.5194480
  55.7849930 154.0190800  61.0437520  54.9568560 154.0883890  60.5687650
  56.3800410 154.6045110  60.5753350  53.3065380 154.6275580  54.5726580
  52.6877800 154.2895130  53.9252880  53.2889830 153.9835340  55.2805770
  52.7491940 150.8060120  61.9892390  52.3363120 151.6313830  62.2432380
  52.0167890 150.2205160  61.7968750  44.8824730 153.5920020  56.8511060
  44.4781730 152.8797270  56.3556960  44.9687850 153.2473260  57.7399100
  43.5953350 150.3663230  60.6310100  44.1467940 150.4758570  59.8563350
  44.1096860 150.7400830  61.3465330  51.4830080 153.8662390  51.5799330
  51.9223360 153.0284820  51.4337150  52.1958500 154.4991790  51.6663470
  43.2696080 153.8882590  64.2415440  43.1303850 154.7605390  64.6102840
  42.3877440 153.5455400  64.0963380  55.0647220 145.1205200  49.8940370
  54.7519880 145.2132030  50.7939440  55.8259690 145.6986230  49.8437800
  41.5829360 152.4865000  54.3517710  41.4626960 153.2127090  53.7398980
  41.2730250 151.7167910  53.8745620  56.2748510 149.8576700  65.8714510
  55.6592780 150.3656370  65.3429970  55.9544930 148.9575030  65.8140450
  44.0493020 145.8300070  57.7341380  43.6061170 146.6109610  57.4025900
  44.6078010 146.1529960  58.4412320  48.3362830 148.6968590  63.3376700
  47.8742200 148.9051610  64.1496640  47.9340940 147.8827940  63.0347370
  53.3367340 149.9177540  64.4673360  52.4860930 149.6183290  64.7882430
  53.1769130 150.1619550  63.5557180  50.4317050 151.4179290  66.5672150
  50.7570460 150.5843040  66.2274380  51.2197380 151.9407810  66.7150480
  47.1651840 145.4510770  52.6147210  46.5406020 145.4470640  53.3400520
  47.0781960 144.5841730  52.2183180  46.0868920 146.3747400  59.5930980
  46.3841250 147.2810230  59.5123000  46.6354480 145.8866180  58.9790550
  43.8407240 150.9533640  55.4622630  43.6148160 150.7370810  56.3669250
  43.0599770 151.3862100  55.1168600  51.0705000 150.9597010  54.0613280
  50.4713890 151.6832810  53.8776900  51.6184610 150.8973790  53.2789730
  46.2806450 151.8519220  66.1282900  46.1850050 150.9113950  65.9783300
  47.1238430 152.0734290  65.7330970  49.6769870 149.5960550  56.0916560
  50.0699440 149.9132750  55.2785250  50.0386720 148.7172430  56.2061080
  41.4116990 148.2632890  64.2816680  41.0180380 149.1108100  64.4889460
  40.7235390 147.6259260  64.4725320  47.9862040 148.3467860  67.3513420
  47.2960360 148.1540060  67.9859510  48.7294340 148.6302500  67.8837720
  38.7134040 146.1861350  58.3146760  38.4247090 146.7564210  59.0271740
  39.4579800 145.7065800  58.6777990  38.9004270 150.1281470  49.5249480
  38.8178940 151.0712230  49.6664470  38.5487330 149.9856380  48.6461830
  50.2625010 152.1866300  60.1867340  49.5306130 152.6953110  60.5357440
  49.8649350 151.3696280  59.8856120  46.7002400 148.8620500  58.5919830
  46.7038460 148.4210450  57.7424370  47.5953520 149.1837830  58.6991650
  42.5504780 148.7446990  57.5514040  42.2104830 149.2222220  58.3081090
  41.7882100 148.2912110  57.1915140  46.7622550 149.8632580  51.5826590
  46.8835370 149.8219060  52.5312410  46.3771060 150.7256730  51.4273320
  50.7250920 147.6399980  59.5990280  50.7423660 148.0908630  60.4432130
  50.4766500 146.7405620  59.8123720  45.7744050 152.1733720  50.9809890
  45.2060950 151.7251970  50.3545800  46.4833050 152.5326500  50.4475040
  54.1521670 145.0532160  65.4376660  54.4767440 144.3221820  65.9634640
  54.1878180 144.7345800  64.5357650  47.0010370 152.9222280  60.3385240
  47.3680500 152.4480850  61.0846580  46.8115430 153.7963850  60.6793580
  39.8650860 147.6665970  56.4678710  39.5797780 147.3021640  57.3057330
  39.8029720 146.9346430  55.8541850  44.7909740 151.9630920  62.6569450
  44.4866810 152.8422900  62.8819810  45.7456200 152.0230710  62.6926890
  49.5389450 146.5595230  53.1892080  48.7254060 146.0608400  53.1137390
  49.3451400 147.3993480  52.7728430  52.2537840 150.9314880  51.4854240
  53.1417460 151.2432110  51.3105580  52.2242930 150.0587130  51.0934820
  40.8473470 152.8033660  63.8040810  40.4888410 153.4687510  64.3914150
  40.5528030 151.9717210  64.1753430  44.0486590 153.2617900  66.6880360
  43.7486730 153.4075080  65.7908180  44.8197830 152.7023190  66.5953750
  54.5252110 152.2426720  50.9534100  54.4415830 152.6740940  50.1030540
  55.2446300 152.7025070  51.3860920  39.3581520 152.8024920  50.4275410
  40.2276370 153.0849720  50.7111330  38.8671840 153.6160790  50.3124220
  46.5216330 154.1898130  54.5483690  46.9779110 155.0003380  54.7743880
  46.1704540 153.8721270  55.3802180  42.4228110 144.5335780  55.0206210
  42.2942740 144.5253680  55.9691130  41.5990130 144.8718870  54.6697220
  39.4222040 146.2926900  64.4812910  38.7080560 146.4923820  65.0865520
  39.8417080 145.5166470  64.8527710  50.9160820 148.7849210  62.2314360
  51.2841640 147.9644420  62.5593930  50.0559020 148.8451100  62.6470010
  54.2822850 147.7406150  53.0401920  53.6536010 147.8451820  52.3260150
  53.7874770 147.9602930  53.8295800  46.2506880 150.0192100  54.4559800
  45.5423030 150.4878440  54.8973410  46.5351360 149.3614110  55.0904990
  47.8762810 151.4388800  62.4552330  48.3748060 151.9134620  63.1204180
  48.0185760 150.5152320  62.6622360  50.2822310 146.7442760  55.8955590
  50.1590090 146.7628890  54.9465100  51.2306870 146.7921700  56.0153990
  44.4541900 148.3277180  51.8310510  45.3032430 148.7647330  51.7650700
  44.0873170 148.6397440  52.6582570  55.0829670 147.6556760  63.2980720
  54.5803270 148.3962160  63.6374530  55.8986330 148.0440760  62.9817510
  53.3751680 152.8989940  56.7442080  52.4341820 152.9140170  56.9189770
  53.6895750 152.1125900  57.1902380  43.3533320 154.5809540  50.3046040
  44.1196590 154.4690900  50.8671470  43.4308010 153.8847510  49.6522810
  42.0480080 152.0134610  50.9878930  42.1283670 151.0662120  51.0996330
  42.9399830 152.3441490  51.0939590  39.5750880 153.8349530  66.2235100
  40.0789900 153.2556810  66.7951330  38.8358300 154.1189760  66.7611470
  41.6073960 151.9779120  67.1185170  41.6479300 151.6792990  68.0270400
  42.4619460 152.3786730  66.9592690  45.3852350 154.5774670  52.2788680
  45.8068770 154.4114540  53.1220070  45.5103190 153.7674900  51.7843820
  43.5479770 150.5571220  65.0859660  43.0176230 150.0662170  64.4583000
  44.2167840 150.9855420  64.5517590  47.8979990 153.6012280  49.5265780
  48.4185650 152.8861300  49.1606930  48.5448390 154.2398150  49.8266290
  52.9180000 152.3636840  66.8540000  53.5000770 151.6089160  66.7660480
  53.0941770 152.8944280  66.0771480  44.0352070 147.5233590  65.1656950
  43.9408940 146.9054340  64.4407820  43.4549460 148.2499880  64.9386860
  46.8013510 146.0806830  62.1984340  46.3530810 146.1031090  61.3529890
  46.1678710 145.6825850  62.7954640  49.5436960 152.7077340  64.2034620
  49.6633170 152.1118480  64.9429460  50.4030960 152.7447030  63.7835920
  51.8824860 153.2614530  62.7797130  51.3560080 153.7857150  62.1762270
  52.2256200 153.8941920  63.4106860  44.2811250 150.6507900  49.2246840
  44.0800310 149.7875260  49.5860180  44.1103300 150.5641260  48.2868440
  46.3105730 149.2498690  65.4610440  46.9005420 148.9414540  66.1488260
  45.4925970 148.7778440  65.6170340  51.1299160 148.8664500  65.6943460
  50.4414680 148.2046040  65.6293450  51.8505180 148.4202770  66.1391920
  51.7599560 145.4616130  51.7533720  52.0401850 144.6184030  52.1093140
  50.9865290 145.6939240  52.2672470  43.0794050 147.7508520  49.2124720
  43.3819950 147.7575950  48.3043870  43.8188640 147.4006380  49.7092380
  46.2978980 146.6943140  50.1980920  45.9500980 146.0167130  49.6183370
  46.4991750 146.2332650  51.0124310  39.6384620 153.2230790  56.5945290
  38.9833460 152.9542430  55.9504990  40.4762570 153.1135270  56.1447270
  52.5875060 148.0172080  50.8163780  53.0059940 147.8303060  49.9760440
  52.2811120 147.1651130  51.1266710  56.0864790 152.9296220  54.5139580
  55.7108390 152.1624150  54.0820870  55.3567910 153.3118920  55.0014510
  40.6760550 153.6083360  61.1348630  41.0433590 153.5210760  62.0144650
  40.1071370 152.8449910  61.0355490  55.4764410 152.0767740  64.1479100
  55.2450500 151.8480490  63.2477050  55.7368960 152.9967290  64.1023990
  40.2276550 150.5192450  65.0407050  39.3332600 150.4859210  65.3800760
  40.7674100 150.7179240  65.8058300  53.9152480 147.3024170  66.9258800
  54.7922660 147.3107570  67.3092800  53.9273320 146.5655010  66.3151150
  38.8522700 150.4329720  52.5370620  37.9486780 150.6959920  52.3622280
  39.3363320 150.7040890  51.7570580  55.3615750 151.1553710  57.8146820
  55.8853230 150.6616360  57.1836990  55.9475170 151.2904070  58.5594390
  55.5405470 151.2393580  61.3366370  54.5908180 151.2057120  61.4511360
  55.7218480 152.1493690  61.1016140  41.3949910 149.4895260  50.4465000
  42.1041610 149.0678480  49.9612280  40.6789850 149.5570490  49.8148350
  41.0424070 145.5434590  49.4867650  41.7652200 146.0843530  49.8048870
  41.3148590 145.2698010  48.6109190  54.8515720 150.4127060  53.7539230
  55.3474840 150.1797930  54.5388110  54.6531790 149.5738900  53.3376870
  40.7316260 144.7940780  59.3890270  41.3792450 144.2438160  58.9485430
  41.1518100 145.0483930  60.2106080  56.2802880 149.0488010  56.2876910
  56.1702160 148.8944050  57.2259180  57.0410470 148.5208950  56.0452320
  54.6268600 144.9882140  62.7459910  55.2640820 145.6016280  63.1119100
  54.7743490 145.0242800  61.8009140  57.1693150 146.8795930  49.5283050
  58.0942460 146.7477110  49.3201340  57.1468940 146.9588750  50.4819500
  57.2431640 147.6506590  52.1539760  56.4483140 147.5851710  52.6832670
  57.4474920 148.5857230  52.1425110  40.4848260 144.9496450  62.1315590
  40.1363080 145.4060270  62.8973770  40.1535960 144.0553580  62.2138020
  47.9973080 146.1408330  65.6535010  47.9361970 146.7330160  66.4030420
  48.9373460 146.0334290  65.5085270  50.6347640 145.7978390  65.2927300
  51.2488050 146.1157680  64.6308380  51.1797200 145.3126980  65.9123160
  41.1568900 144.4772650  65.4066360  41.7051890 144.2960700  64.6432470
  41.2224210 143.6866760  65.9422670  51.3755680 144.3610530  61.6196590
  50.5015520 144.6945640  61.4169520  51.2666430 143.8883710  62.4448460
  52.2827660 146.5681400  63.0038310  51.9541020 145.7533160  62.6240040
  53.2309960 146.5251210  62.8804000  49.1230500 145.2780370  60.5589500
  48.3402290 145.7525870  60.8386260  48.8293430 144.3735200  60.4502680
  53.6751570 145.9803470  58.6038590  54.1159660 145.9248570  57.7560190
  53.4059160 146.8961480  58.6748770  55.5390140 145.6118710  56.6147410
  55.4778540 144.6679930  56.4678430  56.3182170 145.7198800  57.1600870
  40.4670910 145.5827850  53.0803220  41.2250270 145.6956730  52.5067250
  40.0048080 146.4197050  53.0346650  47.0084720 147.6967120  56.0705530
  46.1959230 147.3224010  55.7301410  47.5126360 146.9412200  56.3726720
  51.5109700 144.3609570  57.3088600  52.1139070 144.9329780  57.7837120
  50.7702690 144.9249010  57.0862500  54.6544300 144.7631130  52.5828880
  54.8494930 145.6614580  52.8496310  53.8674170 144.5318210  53.0761830
  42.8396060 146.1091900  51.6205190  43.3688820 145.3221700  51.4913140
  43.4724380 146.7883090  51.8540720  45.0333900 145.8467040  54.6750580
  44.4036640 145.1454350  54.8420710  44.4939040 146.6071170  54.4583740
  45.1589460 145.1251020  67.1103070  44.8773730 145.6284620  66.3463890
  45.5409160 144.3272770  66.7445200  51.7604920 144.5404600  67.6883540
  51.6470370 144.8599210  68.5835060  52.5774660 144.9417110  67.3920820
  50.6663070 152.5597070  38.0518280  50.5857120 151.6451680  37.7809990
  50.2527490 153.0564140  37.3457990  48.7981110 154.3376090  39.9327550
  48.0223210 153.8576530  40.2226120  49.4494040 153.6581740  39.7583710
  42.8146940 154.6495900  40.8103310  41.9831820 154.3944610  41.2099820
  43.4227920 154.7206670  41.5461230  41.2238890 149.6097790  34.5945700
  40.3355590 149.9513760  34.4925580  41.5080080 149.4098110  33.7026530
  39.1871900 152.2103440  40.4785400  39.7588010 151.4425640  40.4789040
  39.1873440 152.5092200  39.5692010  40.4296770 147.6187800  42.2654330
  40.2499610 146.7213550  42.5457090  40.0276850 148.1659670  42.9401280
  49.2695270 149.8203660  40.1666640  49.6460090 148.9475540  40.0540310
  49.1714780 150.1562360  39.2757080  43.4000280 148.1929290  35.6284080
  43.5067030 149.0933020  35.9352840  42.4892640 148.1447260  35.3378730
  53.0519390 147.3154100  37.0994980  53.8729010 146.8250670  37.1420460
  53.0853470 147.9051760  37.8526820  41.0483440 150.1148300  40.8736670
  41.7293550 150.3786670  41.4924070  40.7331490 149.2749170  41.2074680
  45.2408010 151.1615660  39.9609260  45.7486230 151.6596630  40.6014280
  45.7721250 150.3850860  39.7848620  57.3418940 149.3320850  43.6638610
  56.6371110 149.7202560  43.1453720  57.6076860 150.0271140  44.2659540
  43.5244110 145.8014220  44.2272680  43.5262550 146.3186610  43.4218580
  42.6948420 145.3244400  44.2042610  53.2880870 149.2554480  39.8722520
  52.5836440 149.5439370  40.4525630  53.6493030 150.0654590  39.5122080
  43.2059440 147.5124180  42.2343130  43.5476250 148.3566230  41.9397000
  42.2675250 147.6607920  42.3508470  56.3567790 148.7009270  40.2631730
  55.4092700 148.7348250  40.3947160  56.6817780 149.5148220  40.6481090
  46.8887330 145.0006450  38.5587720  47.1962310 144.4453340  37.8423220
  45.9588030 145.1350910  38.3760710  49.2768090 153.0655280  35.2947840
  48.3497370 152.9992660  35.5236310  49.4292910 154.0035410  35.1803080
  49.2637170 149.3372280  32.2915000  48.3240840 149.4986240  32.3767460
  49.5820430 150.0557960  31.7450990  55.7849930 154.0190800  42.2694030
  54.9568560 154.0883890  41.7944160  56.3800410 154.6045110  41.8009860
  53.3065380 154.6275580  35.7983090  52.6877800 154.2895130  35.1509390
  53.2889830 153.9835340  36.5062280  52.7491940 150.8060120  43.2148900
  52.3363120 151.6313830  43.4688890  52.0167890 150.2205160  43.0225260
  44.8824730 153.5920020  38.0767570  44.4781730 152.8797270  37.5813470
  44.9687850 153.2473260  38.9655610  43.5953350 150.3663230  41.8566610
  44.1467940 150.4758570  41.0819860  44.1096860 150.7400830  42.5721840
  51.4830080 153.8662390  32.8055840  51.9223360 153.0284820  32.6593660
  52.1958500 154.4991790  32.8919980  43.2696080 153.8882590  45.4671950
  43.1303850 154.7605390  45.8359350  42.3877440 153.5455400  45.3219890
  55.0647220 145.1205200  31.1196880  54.7519880 145.2132030  32.0195950
  55.8259690 145.6986230  31.0694310  41.5829360 152.4865000  35.5774220
  41.4626960 153.2127090  34.9655490  41.2730250 151.7167910  35.1002130
  56.2748510 149.8576700  47.0971020  55.6592780 150.3656370  46.5686480
  55.9544930 148.9575030  47.0396960  44.0493020 145.8300070  38.9597890
  43.6061170 146.6109610  38.6282410  44.6078010 146.1529960  39.6668830
  48.3362830 148.6968590  44.5633210  47.8742200 148.9051610  45.3753150
  47.9340940 147.8827940  44.2603880  53.3367340 149.9177540  45.6929870
  52.4860930 149.6183290  46.0138940  53.1769130 150.1619550  44.7813690
  50.4317050 151.4179290  47.7928660  50.7570460 150.5843040  47.4530890
  51.2197380 151.9407810  47.9406990  47.1651840 145.4510770  33.8403720
  46.5406020 145.4470640  34.5657030  47.0781960 144.5841730  33.4439690
  46.0868920 146.3747400  40.8187490  46.3841250 147.2810230  40.7379510
  46.6354480 145.8866180  40.2047060  43.8407240 150.9533640  36.6879140
  43.6148160 150.7370810  37.5925760  43.0599770 151.3862100  36.3425110
  51.0705000 150.9597010  35.2869790  50.4713890 151.6832810  35.1033410
  51.6184610 150.8973790  34.5046240  46.2806450 151.8519220  47.3539410
  46.1850050 150.9113950  47.2039810  47.1238430 152.0734290  46.9587480
  49.6769870 149.5960550  37.3173070  50.0699440 149.9132750  36.5041760
  50.0386720 148.7172430  37.4317590  41.4116990 148.2632890  45.5073190
  41.0180380 149.1108100  45.7145970  40.7235390 147.6259260  45.6981830
  47.9862040 148.3467860  48.5769930  47.2960360 148.1540060  49.2116020
  48.7294340 148.6302500  49.1094230  38.7134040 146.1861350  39.5403270
  38.4247090 146.7564210  40.2528250  39.4579800 145.7065800  39.9034500
  38.9004270 150.1281470  30.7505990  38.8178940 151.0712230  30.8920980
  38.5487330 149.9856380  29.8718340  50.2625010 152.1866300  41.4123850
  49.5306130 152.6953110  41.7613950  49.8649350 151.3696280  41.1112630
  46.7002400 148.8620500  39.8176340  46.7038460 148.4210450  38.9680880
  47.5953520 149.1837830  39.9248160  42.5504780 148.7446990  38.7770550
  42.2104830 149.2222220  39.5337600  41.7882100 148.2912110  38.4171650
  46.7622550 149.8632580  32.8083100  46.8835370 149.8219060  33.7568920
  46.3771060 150.7256730  32.6529830  50.7250920 147.6399980  40.8246790
  50.7423660 148.0908630  41.6688640  50.4766500 146.7405620  41.0380230
  45.7744050 152.1733720  32.2066400  45.2060950 151.7251970  31.5802310
  46.4833050 152.5326500  31.6731550  54.1521670 145.0532160  46.6633170
  54.4767440 144.3221820  47.1891150  54.1878180 144.7345800  45.7614160
  47.0010370 152.9222280  41.5641750  47.3680500 152.4480850  42.3103090
  46.8115430 153.7963850  41.9050090  39.8650860 147.6665970  37.6935220
  39.5797780 147.3021640  38.5313840  39.8029720 146.9346430  37.0798360
  44.7909740 151.9630920  43.8825960  44.4866810 152.8422900  44.1076320
  45.7456200 152.0230710  43.9183400  49.5389450 146.5595230  34.4148590
  48.7254060 146.0608400  34.3393900  49.3451400 147.3993480  33.9984940
  52.2537840 150.9314880  32.7110750  53.1417460 151.2432110  32.5362090
  52.2242930 150.0587130  32.3191330  40.8473470 152.8033660  45.0297320
  40.4888410 153.4687510  45.6170660  40.5528030 151.9717210  45.4009940
  44.0486590 153.2617900  47.9136870  43.7486730 153.4075080  47.0164690
  44.8197830 152.7023190  47.8210260  54.5252110 152.2426720  32.1790610
  54.4415830 152.6740940  31.3287050  55.2446300 152.7025070  32.6117430
  39.3581520 152.8024920  31.6531920  40.2276370 153.0849720  31.9367840
  38.8671840 153.6160790  31.5380730  46.5216330 154.1898130  35.7740200
  46.9779110 155.0003380  36.0000390  46.1704540 153.8721270  36.6058690
  42.4228110 144.5335780  36.2462720  42.2942740 144.5253680  37.1947640
  41.5990130 144.8718870  35.8953730  39.4222040 146.2926900  45.7069420
  38.7080560 146.4923820  46.3122030  39.8417080 145.5166470  46.0784220
  50.9160820 148.7849210  43.4570870  51.2841640 147.9644420  43.7850440
  50.0559020 148.8451100  43.8726520  54.2822850 147.7406150  34.2658430
  53.6536010 147.8451820  33.5516660  53.7874770 147.9602930  35.0552310
  46.2506880 150.0192100  35.6816310  45.5423030 150.4878440  36.1229920
  46.5351360 149.3614110  36.3161500  47.8762810 151.4388800  43.6808840
  48.3748060 151.9134620  44.3460690  48.0185760 150.5152320  43.8878870
  50.2822310 146.7442760  37.1212100  50.1590090 146.7628890  36.1721610
  51.2306870 146.7921700  37.2410500  44.4541900 148.3277180  33.0567020
  45.3032430 148.7647330  32.9907210  44.0873170 148.6397440  33.8839080
  55.0829670 147.6556760  44.5237230  54.5803270 148.3962160  44.8631040
  55.8986330 148.0440760  44.2074020  53.3751680 152.8989940  37.9698590
  52.4341820 152.9140170  38.1446280  53.6895750 152.1125900  38.4158890
  43.3533320 154.5809540  31.5302550  44.1196590 154.4690900  32.0927980
  43.4308010 153.8847510  30.8779320  42.0480080 152.0134610  32.2135440
  42.1283670 151.0662120  32.3252840  42.9399830 152.3441490  32.3196100
  39.5750880 153.8349530  47.4491610  40.0789900 153.2556810  48.0207840
  38.8358300 154.1189760  47.9867980  41.6073960 151.9779120  48.3441680
  41.6479300 151.6792990  49.2526910  42.4619460 152.3786730  48.1849200
  45.3852350 154.5774670  33.5045190  45.8068770 154.4114540  34.3476580
  45.5103190 153.7674900  33.0100330  43.5479770 150.5571220  46.3116170
  43.0176230 150.0662170  45.6839510  44.2167840 150.9855420  45.7774100
  47.8979990 153.6012280  30.7522290  48.4185650 152.8861300  30.3863440
  48.5448390 154.2398150  31.0522800  52.9180000 152.3636840  48.0796510
  53.5000770 151.6089160  47.9916990  53.0941770 152.8944280  47.3027990
  44.0352070 147.5233590  46.3913460  43.9408940 146.9054340  45.6664330
  43.4549460 148.2499880  46.1643370  46.8013510 146.0806830  43.4240850
  46.3530810 146.1031090  42.5786400  46.1678710 145.6825850  44.0211150
  49.5436960 152.7077340  45.4291130  49.6633170 152.1118480  46.1685970
  50.4030960 152.7447030  45.0092430  51.8824860 153.2614530  44.0053640
  51.3560080 153.7857150  43.4018780  52.2256200 153.8941920  44.6363370
  44.2811250 150.6507900  30.4503350  44.0800310 149.7875260  30.8116690
  44.1103300 150.5641260  29.5124950  46.3105730 149.2498690  46.6866950
  46.9005420 148.9414540  47.3744770  45.4925970 148.7778440  46.8426850
  51.1299160 148.8664500  46.9199970  50.4414680 148.2046040  46.8549960
  51.8505180 148.4202770  47.3648430  51.7599560 145.4616130  32.9790230
  52.0401850 144.6184030  33.3349650  50.9865290 145.6939240  33.4928980
  43.0794050 147.7508520  30.4381230  43.3819950 147.7575950  29.5300380
  43.8188640 147.4006380  30.9348890  46.2978980 146.6943140  31.4237430
  45.9500980 146.0167130  30.8439880  46.4991750 146.2332650  32.2380820
  39.6384620 153.2230790  37.8201800  38.9833460 152.9542430  37.1761500
  40.4762570 153.1135270  37.3703780  52.5875060 148.0172080  32.0420290
  53.0059940 147.8303060  31.2016950  52.2811120 147.1651130  32.3523220
  56.0864790 152.9296220  35.7396090  55.7108390 152.1624150  35.3077380
  55.3567910 153.3118920  36.2271020  40.6760550 153.6083360  42.3605140
  41.0433590 153.5210760  43.2401160  40.1071370 152.8449910  42.2612000
  55.4764410 152.0767740  45.3735610  55.2450500 151.8480490  44.4733560
  55.7368960 152.9967290  45.3280500  40.2276550 150.5192450  46.2663560
  39.3332600 150.4859210  46.6057270  40.7674100 150.7179240  47.0314810
  53.9152480 147.3024170  48.1515310  54.7922660 147.3107570  48.5349310
  53.9273320 146.5655010  47.5407660  38.8522700 150.4329720  33.7627130
  37.9486780 150.6959920  33.5878790  39.3363320 150.7040890  32.9827090
  55.3615750 151.1553710  39.0403330  55.8853230 150.6616360  38.4093500
  55.9475170 151.2904070  39.7850900  55.5405470 151.2393580  42.5622880
  54.5908180 151.2057120  42.6767870  55.7218480 152.1493690  42.3272650
  41.3949910 149.4895260  31.6721510  42.1041610 149.0678480  31.1868790
  40.6789850 149.5570490  31.0404860  41.0424070 145.5434590  30.7124160
  41.7652200 146.0843530  31.0305380  41.3148590 145.2698010  29.8365700
  54.8515720 150.4127060  34.9795740  55.3474840 150.1797930  35.7644620
  54.6531790 149.5738900  34.5633380  40.7316260 144.7940780  40.6146780
  41.3792450 144.2438160  40.1741940  41.1518100 145.0483930  41.4362590
  56.2802880 149.0488010  37.5133420  56.1702160 148.8944050  38.4515690
  57.0410470 148.5208950  37.2708830  54.6268600 144.9882140  43.9716420
  55.2640820 145.6016280  44.3375610  54.7743490 145.0242800  43.0265650
  57.1693150 146.8795930  30.7539560  58.0942460 146.7477110  30.5457850
  57.1468940 146.9588750  31.7076010  57.2431640 147.6506590  33.3796270
  56.4483140 147.5851710  33.9089180  57.4474920 148.5857230  33.3681620
  40.4848260 144.9496450  43.3572100  40.1363080 145.4060270  44.1230280
  40.1535960 144.0553580  43.4394530  47.9973080 146.1408330  46.8791520
  47.9361970 146.7330160  47.6286930  48.9373460 146.0334290  46.7341780
  50.6347640 145.7978390  46.5183810  51.2488050 146.1157680  45.8564890
  51.1797200 145.3126980  47.1379670  41.1568900 144.4772650  46.6322870
  41.7051890 144.2960700  45.8688980  41.2224210 143.6866760  47.1679180
  51.3755680 144.3610530  42.8453100  50.5015520 144.6945640  42.6426030
  51.2666430 143.8883710  43.6704970  52.2827660 146.5681400  44.2294820
  51.9541020 145.7533160  43.8496550  53.2309960 146.5251210  44.1060510
  49.1230500 145.2780370  41.7846010  48.3402290 145.7525870  42.0642770
  48.8293430 144.3735200  41.6759190  53.6751570 145.9803470  39.8295100
  54.1159660 145.9248570  38.9816700  53.4059160 146.8961480  39.9005280
  55.5390140 145.6118710  37.8403920  55.4778540 144.6679930  37.6934940
  56.3182170 145.7198800  38.3857380  40.4670910 145.5827850  34.3059730
  41.2250270 145.6956730  33.7323760  40.0048080 146.4197050  34.2603160
  47.0084720 147.6967120  37.2962040  46.1959230 147.3224010  36.9557920
  47.5126360 146.9412200  37.5983230  51.5109700 144.3609570  38.5345110
  52.1139070 144.9329780  39.0093630  50.7702690 144.9249010  38.3119010
  54.6544300 144.7631130  33.8085390  54.8494930 145.6614580  34.0752820
  53.8674170 144.5318210  34.3018340  42.8396060 146.1091900  32.8461700
  43.3688820 145.3221700  32.7169650  43.4724380 146.7883090  33.0797230
  45.0333900 145.8467040  35.9007090  44.4036640 145.1454350  36.0677220
  44.4939040 146.6071170  35.6840250  45.1589460 145.1251020  48.3359580
  44.8773730 145.6284620  47.5720400  45.5409160 144.3272770  47.9701710
  51.7604920 144.5404600  48.9140050  51.6470370 144.8599210  49.8091570
  52.5774660 144.9417110  48.6177330  50.6663070 152.5597070  19.2774790
  50.5857120 151.6451680  19.0066500  50.2527490 153.0564140  18.5714500
  48.7981110 154.3376090  21.1584060  48.0223210 153.8576530  21.4482630
  49.4494040 153.6581740  20.9840220  42.8146940 154.6495900  22.0359820
  41.9831820 154.3944610  22.4356330  43.4227920 154.7206670  22.7717740
  41.2238890 149.6097790  15.8202210  40.3355590 149.9513760  15.7182090
  41.5080080 149.4098110  14.9283040  39.1871900 152.2103440  21.7041910
  39.7588010 151.4425640  21.7045550  39.1873440 152.5092200  20.7948520
  40.4296770 147.6187800  23.4910840  40.2499610 146.7213550  23.7713600
  40.0276850 148.1659670  24.1657790  49.2695270 149.8203660  21.3923150
  49.6460090 148.9475540  21.2796820  49.1714780 150.1562360  20.5013590
  43.4000280 148.1929290  16.8540590  43.5067030 149.0933020  17.1609350
  42.4892640 148.1447260  16.5635240  53.0519390 147.3154100  18.3251490
  53.8729010 146.8250670  18.3676970  53.0853470 147.9051760  19.0783330
  41.0483440 150.1148300  22.0993180  41.7293550 150.3786670  22.7180580
  40.7331490 149.2749170  22.4331190  45.2408010 151.1615660  21.1865770
  45.7486230 151.6596630  21.8270790  45.7721250 150.3850860  21.0105130
  57.3418940 149.3320850  24.8895120  56.6371110 149.7202560  24.3710230
  57.6076860 150.0271140  25.4916050  43.5244110 145.8014220  25.4529190
  43.5262550 146.3186610  24.6475090  42.6948420 145.3244400  25.4299120
  53.2880870 149.2554480  21.0979030  52.5836440 149.5439370  21.6782140
  53.6493030 150.0654590  20.7378590  43.2059440 147.5124180  23.4599640
  43.5476250 148.3566230  23.1653510  42.2675250 147.6607920  23.5764980
  56.3567790 148.7009270  21.4888240  55.4092700 148.7348250  21.6203670
  56.6817780 149.5148220  21.8737600  46.8887330 145.0006450  19.7844230
  47.1962310 144.4453340  19.0679730  45.9588030 145.1350910  19.6017220
  49.2768090 153.0655280  16.5204350  48.3497370 152.9992660  16.7492820
  49.4292910 154.0035410  16.4059590  49.2637170 149.3372280  13.5171510
  48.3240840 149.4986240  13.6023970  49.5820430 150.0557960  12.9707500
  55.7849930 154.0190800  23.4950540  54.9568560 154.0883890  23.0200670
  56.3800410 154.6045110  23.0266370  53.3065380 154.6275580  17.0239600
  52.6877800 154.2895130  16.3765900  53.2889830 153.9835340  17.7318790
  52.7491940 150.8060120  24.4405410  52.3363120 151.6313830  24.6945400
  52.0167890 150.2205160  24.2481770  44.8824730 153.5920020  19.3024080
  44.4781730 152.8797270  18.8069980  44.9687850 153.2473260  20.1912120
  43.5953350 150.3663230  23.0823120  44.1467940 150.4758570  22.3076370
  44.1096860 150.7400830  23.7978350  51.4830080 153.8662390  14.0312350
  51.9223360 153.0284820  13.8850170  52.1958500 154.4991790  14.1176490
  43.2696080 153.8882590  26.6928460  43.1303850 154.7605390  27.0615860
  42.3877440 153.5455400  26.5476400  55.0647220 145.1205200  12.3453390
  54.7519880 145.2132030  13.2452460  55.8259690 145.6986230  12.2950820
  41.5829360 152.4865000  16.8030730  41.4626960 153.2127090  16.1912000
  41.2730250 151.7167910  16.3258640  56.2748510 149.8576700  28.3227530
  55.6592780 150.3656370  27.7942990  55.9544930 148.9575030  28.2653470
  44.0493020 145.8300070  20.1854400  43.6061170 146.6109610  19.8538920
  44.6078010 146.1529960  20.8925340  48.3362830 148.6968590  25.7889720
  47.8742200 148.9051610  26.6009660  47.9340940 147.8827940  25.4860390
  53.3367340 149.9177540  26.9186380  52.4860930 149.6183290  27.2395450
  53.1769130 150.1619550  26.0070200  50.4317050 151.4179290  29.0185170
  50.7570460 150.5843040  28.6787400  51.2197380 151.9407810  29.1663500
  47.1651840 145.4510770  15.0660230  46.5406020 145.4470640  15.7913540
  47.0781960 144.5841730  14.6696200  46.0868920 146.3747400  22.0444000
  46.3841250 147.2810230  21.9636020  46.6354480 145.8866180  21.4303570
  43.8407240 150.9533640  17.9135650  43.6148160 150.7370810  18.8182270
  43.0599770 151.3862100  17.5681620  51.0705000 150.9597010  16.5126300
  50.4713890 151.6832810  16.3289920  51.6184610 150.8973790  15.7302750
  46.2806450 151.8519220  28.5795920  46.1850050 150.9113950  28.4296320
  47.1238430 152.0734290  28.1843990  49.6769870 149.5960550  18.5429580
  50.0699440 149.9132750  17.7298270  50.0386720 148.7172430  18.6574100
  41.4116990 148.2632890  26.7329700  41.0180380 149.1108100  26.9402480
  40.7235390 147.6259260  26.9238340  47.9862040 148.3467860  29.8026440
  47.2960360 148.1540060  30.4372530  48.7294340 148.6302500  30.3350740
  38.7134040 146.1861350  20.7659780  38.4247090 146.7564210  21.4784760
  39.4579800 145.7065800  21.1291010  38.9004270 150.1281470  11.9762500
  38.8178940 151.0712230  12.1177490  38.5487330 149.9856380  11.0974850
  50.2625010 152.1866300  22.6380360  49.5306130 152.6953110  22.9870460
  49.8649350 151.3696280  22.3369140  46.7002400 148.8620500  21.0432850
  46.7038460 148.4210450  20.1937390  47.5953520 149.1837830  21.1504670
  42.5504780 148.7446990  20.0027060  42.2104830 149.2222220  20.7594110
  41.7882100 148.2912110  19.6428160  46.7622550 149.8632580  14.0339610
  46.8835370 149.8219060  14.9825430  46.3771060 150.7256730  13.8786340
  50.7250920 147.6399980  22.0503300  50.7423660 148.0908630  22.8945150
  50.4766500 146.7405620  22.2636740  45.7744050 152.1733720  13.4322910
  45.2060950 151.7251970  12.8058820  46.4833050 152.5326500  12.8988060
  54.1521670 145.0532160  27.8889680  54.4767440 144.3221820  28.4147660
  54.1878180 144.7345800  26.9870670  47.0010370 152.9222280  22.7898260
  47.3680500 152.4480850  23.5359600  46.8115430 153.7963850  23.1306600
  39.8650860 147.6665970  18.9191730  39.5797780 147.3021640  19.7570350
  39.8029720 146.9346430  18.3054870  44.7909740 151.9630920  25.1082470
  44.4866810 152.8422900  25.3332830  45.7456200 152.0230710  25.1439910
  49.5389450 146.5595230  15.6405100  48.7254060 146.0608400  15.5650410
  49.3451400 147.3993480  15.2241450  52.2537840 150.9314880  13.9367260
  53.1417460 151.2432110  13.7618600  52.2242930 150.0587130  13.5447840
  40.8473470 152.8033660  26.2553830  40.4888410 153.4687510  26.8427170
  40.5528030 151.9717210  26.6266450  44.0486590 153.2617900  29.1393380
  43.7486730 153.4075080  28.2421200  44.8197830 152.7023190  29.0466770
  54.5252110 152.2426720  13.4047120  54.4415830 152.6740940  12.5543560
  55.2446300 152.7025070  13.8373940  39.3581520 152.8024920  12.8788430
  40.2276370 153.0849720  13.1624350  38.8671840 153.6160790  12.7637240
  46.5216330 154.1898130  16.9996710  46.9779110 155.0003380  17.2256900
  46.1704540 153.8721270  17.8315200  42.4228110 144.5335780  17.4719230
  42.2942740 144.5253680  18.4204150  41.5990130 144.8718870  17.1210240
  39.4222040 146.2926900  26.9325930  38.7080560 146.4923820  27.5378540
  39.8417080 145.5166470  27.3040730  50.9160820 148.7849210  24.6827380
  51.2841640 147.9644420  25.0106950  50.0559020 148.8451100  25.0983030
  54.2822850 147.7406150  15.4914940  53.6536010 147.8451820  14.7773170
  53.7874770 147.9602930  16.2808820  46.2506880 150.0192100  16.9072820
  45.5423030 150.4878440  17.3486430  46.5351360 149.3614110  17.5418010
  47.8762810 151.4388800  24.9065350  48.3748060 151.9134620  25.5717200
  48.0185760 150.5152320  25.1135380  50.2822310 146.7442760  18.3468610
  50.1590090 146.7628890  17.3978120  51.2306870 146.7921700  18.4667010
  44.4541900 148.3277180  14.2823530  45.3032430 148.7647330  14.2163720
  44.0873170 148.6397440  15.1095590  55.0829670 147.6556760  25.7493740
  54.5803270 148.3962160  26.0887550  55.8986330 148.0440760  25.4330530
  53.3751680 152.8989940  19.1955100  52.4341820 152.9140170  19.3702790
  53.6895750 152.1125900  19.6415400  43.3533320 154.5809540  12.7559060
  44.1196590 154.4690900  13.3184490  43.4308010 153.8847510  12.1035830
  42.0480080 152.0134610  13.4391950  42.1283670 151.0662120  13.5509350
  42.9399830 152.3441490  13.5452610  39.5750880 153.8349530  28.6748120
  40.0789900 153.2556810  29.2464350  38.8358300 154.1189760  29.2124490
  41.6073960 151.9779120  29.5698190  41.6479300 151.6792990  30.4783420
  42.4619460 152.3786730  29.4105710  45.3852350 154.5774670  14.7301700
  45.8068770 154.4114540  15.5733090  45.5103190 153.7674900  14.2356840
  43.5479770 150.5571220  27.5372680  43.0176230 150.0662170  26.9096020
  44.2167840 150.9855420  27.0030610  47.8979990 153.6012280  11.9778800
  48.4185650 152.8861300  11.6119950  48.5448390 154.2398150  12.2779310
  52.9180000 152.3636840  29.3053020  53.5000770 151.6089160  29.2173500
  53.0941770 152.8944280  28.5284500  44.0352070 147.5233590  27.6169970
  43.9408940 146.9054340  26.8920840  43.4549460 148.2499880  27.3899880
  46.8013510 146.0806830  24.6497360  46.3530810 146.1031090  23.8042910
  46.1678710 145.6825850  25.2467660  49.5436960 152.7077340  26.6547640
  49.6633170 152.1118480  27.3942480  50.4030960 152.7447030  26.2348940
  51.8824860 153.2614530  25.2310150  51.3560080 153.7857150  24.6275290
  52.2256200 153.8941920  25.8619880  44.2811250 150.6507900  11.6759860
  44.0800310 149.7875260  12.0373200  44.1103300 150.5641260  10.7381460
  46.3105730 149.2498690  27.9123460  46.9005420 148.9414540  28.6001280
  45.4925970 148.7778440  28.0683360  51.1299160 148.8664500  28.1456480
  50.4414680 148.2046040  28.0806470  51.8505180 148.4202770  28.5904940
  51.7599560 145.4616130  14.2046740  52.0401850 144.6184030  14.5606160
  50.9865290 145.6939240  14.7185490  43.0794050 147.7508520  11.6637740
  43.3819950 147.7575950  10.7556890  43.8188640 147.4006380  12.1605400
  46.2978980 146.6943140  12.6493940  45.9500980 146.0167130  12.0696390
  46.4991750 146.2332650  13.4637330  39.6384620 153.2230790  19.0458310
  38.9833460 152.9542430  18.4018010  40.4762570 153.1135270  18.5960290
  52.5875060 148.0172080  13.2676800  53.0059940 147.8303060  12.4273460
  52.2811120 147.1651130  13.5779730  56.0864790 152.9296220  16.9652600
  55.7108390 152.1624150  16.5333890  55.3567910 153.3118920  17.4527530
  40.6760550 153.6083360  23.5861650  41.0433590 153.5210760  24.4657670
  40.1071370 152.8449910  23.4868510  55.4764410 152.0767740  26.5992120
  55.2450500 151.8480490  25.6990070  55.7368960 152.9967290  26.5537010
  40.2276550 150.5192450  27.4920070  39.3332600 150.4859210  27.8313780
  40.7674100 150.7179240  28.2571320  53.9152480 147.3024170  29.3771820
  54.7922660 147.3107570  29.7605820  53.9273320 146.5655010  28.7664170
  38.8522700 150.4329720  14.9883640  37.9486780 150.6959920  14.8135300
  39.3363320 150.7040890  14.2083600  55.3615750 151.1553710  20.2659840
  55.8853230 150.6616360  19.6350010  55.9475170 151.2904070  21.0107410
  55.5405470 151.2393580  23.7879390  54.5908180 151.2057120  23.9024380
  55.7218480 152.1493690  23.5529160  41.3949910 149.4895260  12.8978020
  42.1041610 149.0678480  12.4125300  40.6789850 149.5570490  12.2661370
  41.0424070 145.5434590  11.9380670  41.7652200 146.0843530  12.2561890
  41.3148590 145.2698010  11.0622210  54.8515720 150.4127060  16.2052250
  55.3474840 150.1797930  16.9901130  54.6531790 149.5738900  15.7889890
  40.7316260 144.7940780  21.8403290  41.3792450 144.2438160  21.3998450
  41.1518100 145.0483930  22.6619100  56.2802880 149.0488010  18.7389930
  56.1702160 148.8944050  19.6772200  57.0410470 148.5208950  18.4965340
  54.6268600 144.9882140  25.1972930  55.2640820 145.6016280  25.5632120
  54.7743490 145.0242800  24.2522160  57.1693150 146.8795930  11.9796070
  58.0942460 146.7477110  11.7714360  57.1468940 146.9588750  12.9332520
  57.2431640 147.6506590  14.6052780  56.4483140 147.5851710  15.1345690
  57.4474920 148.5857230  14.5938130  40.4848260 144.9496450  24.5828610
  40.1363080 145.4060270  25.3486790  40.1535960 144.0553580  24.6651040
  47.9973080 146.1408330  28.1048030  47.9361970 146.7330160  28.8543440
  48.9373460 146.0334290  27.9598290  50.6347640 145.7978390  27.7440320
  51.2488050 146.1157680  27.0821400  51.1797200 145.3126980  28.3636180
  41.1568900 144.4772650  27.8579380  41.7051890 144.2960700  27.0945490
  41.2224210 143.6866760  28.3935690  51.3755680 144.3610530  24.0709610
  50.5015520 144.6945640  23.8682540  51.2666430 143.8883710  24.8961480
  52.2827660 146.5681400  25.4551330  51.9541020 145.7533160  25.0753060
  53.2309960 146.5251210  25.3317020  49.1230500 145.2780370  23.0102520
  48.3402290 145.7525870  23.2899280  48.8293430 144.3735200  22.9015700
  53.6751570 145.9803470  21.0551610  54.1159660 145.9248570  20.2073210
  53.4059160 146.8961480  21.1261790  55.5390140 145.6118710  19.0660430
  55.4778540 144.6679930  18.9191450  56.3182170 145.7198800  19.6113890
  40.4670910 145.5827850  15.5316240  41.2250270 145.6956730  14.9580270
  40.0048080 146.4197050  15.4859670  47.0084720 147.6967120  18.5218550
  46.1959230 147.3224010  18.1814430  47.5126360 146.9412200  18.8239740
  51.5109700 144.3609570  19.7601620  52.1139070 144.9329780  20.2350140
  50.7702690 144.9249010  19.5375520  54.6544300 144.7631130  15.0341900
  54.8494930 145.6614580  15.3009330  53.8674170 144.5318210  15.5274850
  42.8396060 146.1091900  14.0718210  43.3688820 145.3221700  13.9426160
  43.4724380 146.7883090  14.3053740  45.0333900 145.8467040  17.1263600
  44.4036640 145.1454350  17.2933730  44.4939040 146.6071170  16.9096760
  45.1589460 145.1251020  29.5616090  44.8773730 145.6284620  28.7976910
  45.5409160 144.3272770  29.1958220  51.7604920 144.5404600  30.1396560
  51.6470370 144.8599210  31.0348080  52.5774660 144.9417110  29.8433840
  48.7981110 154.3376090   2.3840570  48.0223210 153.8576530   2.6739140
  49.4494040 153.6581740   2.2096730  42.8146940 154.6495900   3.2616330
  41.9831820 154.3944610   3.6612840  43.4227920 154.7206670   3.9974250
  39.1871900 152.2103440   2.9298420  39.7588010 151.4425640   2.9302060
  39.1873440 152.5092200   2.0205030  40.4296770 147.6187800   4.7167350
  40.2499610 146.7213550   4.9970110  40.0276850 148.1659670   5.3914300
  49.2695270 149.8203660   2.6179660  49.6460090 148.9475540   2.5053330
  49.1714780 150.1562360   1.7270100  41.0483440 150.1148300   3.3249690
  41.7293550 150.3786670   3.9437090  40.7331490 149.2749170   3.6587700
  45.2408010 151.1615660   2.4122280  45.7486230 151.6596630   3.0527300
  45.7721250 150.3850860   2.2361640  57.3418940 149.3320850   6.1151630
  56.6371110 149.7202560   5.5966740  57.6076860 150.0271140   6.7172560
  43.5244110 145.8014220   6.6785700  43.5262550 146.3186610   5.8731600
  42.6948420 145.3244400   6.6555630  53.2880870 149.2554480   2.3235540
  52.5836440 149.5439370   2.9038650  53.6493030 150.0654590   1.9635100
  43.2059440 147.5124180   4.6856150  43.5476250 148.3566230   4.3910020
  42.2675250 147.6607920   4.8021490  56.3567790 148.7009270   2.7144750
  55.4092700 148.7348250   2.8460180  56.6817780 149.5148220   3.0994110
  55.7849930 154.0190800   4.7207050  54.9568560 154.0883890   4.2457180
  56.3800410 154.6045110   4.2522880  52.7491940 150.8060120   5.6661920
  52.3363120 151.6313830   5.9201910  52.0167890 150.2205160   5.4738280
  43.5953350 150.3663230   4.3079630  44.1467940 150.4758570   3.5332880
  44.1096860 150.7400830   5.0234860  43.2696080 153.8882590   7.9184970
  43.1303850 154.7605390   8.2872370  42.3877440 153.5455400   7.7732910
  56.2748510 149.8576700   9.5484040  55.6592780 150.3656370   9.0199500
  55.9544930 148.9575030   9.4909980  48.3362830 148.6968590   7.0146230
  47.8742200 148.9051610   7.8266170  47.9340940 147.8827940   6.7116900
  53.3367340 149.9177540   8.1442890  52.4860930 149.6183290   8.4651960
  53.1769130 150.1619550   7.2326710  50.4317050 151.4179290  10.2441680
  50.7570460 150.5843040   9.9043910  51.2197380 151.9407810  10.3920010
  46.0868920 146.3747400   3.2700510  46.3841250 147.2810230   3.1892530
  46.6354480 145.8866180   2.6560080  46.2806450 151.8519220   9.8052430
  46.1850050 150.9113950   9.6552830  47.1238430 152.0734290   9.4100500
  41.4116990 148.2632890   7.9586210  41.0180380 149.1108100   8.1658990
  40.7235390 147.6259260   8.1494850  47.9862040 148.3467860  11.0282950
  47.2960360 148.1540060  11.6629040  48.7294340 148.6302500  11.5607250
  38.7134040 146.1861350   1.9916290  38.4247090 146.7564210   2.7041270
  39.4579800 145.7065800   2.3547520  50.2625010 152.1866300   3.8636870
  49.5306130 152.6953110   4.2126970  49.8649350 151.3696280   3.5625650
  46.7002400 148.8620500   2.2689360  46.7038460 148.4210450   1.4193900
  47.5953520 149.1837830   2.3761180  50.7250920 147.6399980   3.2759810
  50.7423660 148.0908630   4.1201660  50.4766500 146.7405620   3.4893250
  54.1521670 145.0532160   9.1146190  54.4767440 144.3221820   9.6404170
  54.1878180 144.7345800   8.2127180  47.0010370 152.9222280   4.0154770
  47.3680500 152.4480850   4.7616110  46.8115430 153.7963850   4.3563110
  44.7909740 151.9630920   6.3338980  44.4866810 152.8422900   6.5589340
  45.7456200 152.0230710   6.3696420  40.8473470 152.8033660   7.4810340
  40.4888410 153.4687510   8.0683680  40.5528030 151.9717210   7.8522960
  44.0486590 153.2617900  10.3649890  43.7486730 153.4075080   9.4677710
  44.8197830 152.7023190  10.2723280  39.4222040 146.2926900   8.1582440
  38.7080560 146.4923820   8.7635050  39.8417080 145.5166470   8.5297240
  50.9160820 148.7849210   5.9083890  51.2841640 147.9644420   6.2363460
  50.0559020 148.8451100   6.3239540  47.8762810 151.4388800   6.1321860
  48.3748060 151.9134620   6.7973710  48.0185760 150.5152320   6.3391890
  55.0829670 147.6556760   6.9750250  54.5803270 148.3962160   7.3144060
  55.8986330 148.0440760   6.6587040  39.5750880 153.8349530   9.9004630
  40.0789900 153.2556810  10.4720860  38.8358300 154.1189760  10.4381000
  41.6073960 151.9779120  10.7954700  41.6479300 151.6792990  11.7039930
  42.4619460 152.3786730  10.6362220  43.5479770 150.5571220   8.7629190
  43.0176230 150.0662170   8.1352530  44.2167840 150.9855420   8.2287120
  52.9180000 152.3636840  10.5309530  53.5000770 151.6089160  10.4430010
  53.0941770 152.8944280   9.7541010  44.0352070 147.5233590   8.8426480
  43.9408940 146.9054340   8.1177350  43.4549460 148.2499880   8.6156390
  46.8013510 146.0806830   5.8753870  46.3530810 146.1031090   5.0299420
  46.1678710 145.6825850   6.4724170  49.5436960 152.7077340   7.8804150
  49.6633170 152.1118480   8.6198990  50.4030960 152.7447030   7.4605450
  51.8824860 153.2614530   6.4566660  51.3560080 153.7857150   5.8531800
  52.2256200 153.8941920   7.0876390  46.3105730 149.2498690   9.1379970
  46.9005420 148.9414540   9.8257790  45.4925970 148.7778440   9.2939870
  51.1299160 148.8664500   9.3712990  50.4414680 148.2046040   9.3062980
  51.8505180 148.4202770   9.8161450  40.6760550 153.6083360   4.8118160
  41.0433590 153.5210760   5.6914180  40.1071370 152.8449910   4.7125020
  55.4764410 152.0767740   7.8248630  55.2450500 151.8480490   6.9246580
  55.7368960 152.9967290   7.7793520  40.2276550 150.5192450   8.7176580
  39.3332600 150.4859210   9.0570290  40.7674100 150.7179240   9.4827830
  53.9152480 147.3024170  10.6028330  54.7922660 147.3107570  10.9862330
  53.9273320 146.5655010   9.9920680  55.5405470 151.2393580   5.0135900
  54.5908180 151.2057120   5.1280890  55.7218480 152.1493690   4.7785670
  40.7316260 144.7940780   3.0659800  41.3792450 144.2438160   2.6254960
  41.1518100 145.0483930   3.8875610  54.6268600 144.9882140   6.4229440
  55.2640820 145.6016280   6.7888630  54.7743490 145.0242800   5.4778670
  40.4848260 144.9496450   5.8085120  40.1363080 145.4060270   6.5743300
  40.1535960 144.0553580   5.8907550  47.9973080 146.1408330   9.3304540
  47.9361970 146.7330160  10.0799950  48.9373460 146.0334290   9.1854800
  50.6347640 145.7978390   8.9696830  51.2488050 146.1157680   8.3077910
  51.1797200 145.3126980   9.5892690  41.1568900 144.4772650   9.0835890
  41.7051890 144.2960700   8.3202000  41.2224210 143.6866760   9.6192200
  51.3755680 144.3610530   5.2966120  50.5015520 144.6945640   5.0939050
  51.2666430 143.8883710   6.1217990  52.2827660 146.5681400   6.6807840
  51.9541020 145.7533160   6.3009570  53.2309960 146.5251210   6.5573530
  49.1230500 145.2780370   4.2359030  48.3402290 145.7525870   4.5155790
  48.8293430 144.3735200   4.1272210  53.6751570 145.9803470   2.2808120
  54.1159660 145.9248570   1.4329720  53.4059160 146.8961480   2.3518300
  45.1589460 145.1251020  10.7872600  44.8773730 145.6284620  10.0233420
  45.5409160 144.3272770  10.4214730  51.7604920 144.5404600  11.3653070
  51.6470370 144.8599210  12.2604590  52.5774660 144.9417110  11.0690350
  50.6663070 133.7853580 150.6979220  50.5857120 132.8708190 150.4270930
  50.2527490 134.2820650 149.9918930  48.7981110 135.5632600 152.5788490
  48.0223210 135.0833040 152.8687060  49.4494040 134.8838250 152.4044650
  52.8188540 139.9692790 151.3587620  52.3570070 139.1980030 151.6874790
  53.6314090 139.9958860 151.8640070  41.2238890 130.8354300 147.2406640
  40.3355590 131.1770270 147.1386520  41.5080080 130.6354620 146.3487470
  39.1871900 133.4359950 153.1246340  39.7588010 132.6682150 153.1249980
  39.1873440 133.7348710 152.2152950  49.0451850 142.2550800 150.9791610
  48.4263290 142.7108300 150.4086050  49.9003630 142.4102260 150.5781310
  48.2390100 138.2389790 152.5858650  48.1698380 137.2979730 152.4247780
  49.0009960 138.3291200 153.1581220  49.2695270 131.0460170 152.8127580
  49.6460090 130.1732050 152.7001250  49.1714780 131.3818870 151.9218020
  43.4000280 129.4185800 148.2745020  43.5067030 130.3189530 148.5813780
  42.4892640 129.3703770 147.9839670  53.0519390 128.5410610 149.7455920
  53.8729010 128.0507180 149.7881400  53.0853470 129.1308270 150.4987760
  49.9115200 137.1390040 148.3723520  49.2932470 137.6039490 147.8086240
  50.4238450 137.8317520 148.7893030  53.2880870 130.4810990 152.5183460
  52.5836440 130.7695880 153.0986570  53.6493030 131.2911100 152.1583020
  39.2798400 137.8246570 145.7463150  38.9026380 138.3133670 145.0148050
  39.5371470 138.4971850 146.3769680  46.8887330 126.2262960 151.2048660
  47.1962310 125.6709850 150.4884160  45.9588030 126.3607420 151.0221650
  53.7347810 138.6646470 148.5846290  53.6244140 137.7220800 148.7095710
  53.7316060 139.0262110 149.4709050  49.2768090 134.2911790 147.9408780
  48.3497370 134.2249170 148.1697250  49.4292910 135.2291920 147.8264020
  49.2637170 130.5628790 144.9375940  48.3240840 130.7242750 145.0228400
  49.5820430 131.2814470 144.3911930  53.3065380 135.8532090 148.4444030
  52.6877800 135.5151640 147.7970330  53.2889830 135.2091850 149.1523220
  44.8824730 134.8176530 150.7228510  44.4781730 134.1053780 150.2274410
  44.9687850 134.4729770 151.6116550  45.3506430 138.5044090 152.8867720
  45.0534720 137.8989560 152.2075500  46.3006250 138.5421400 152.7757080
  51.4830080 135.0918900 145.4516780  51.9223360 134.2541330 145.3054600
  52.1958500 135.7248300 145.5380920  49.5925460 140.0314970 149.4198020
  50.0321370 140.7739300 149.0053410  49.5312350 140.2741540 150.3436980
  55.0647220 126.3461710 143.7657820  54.7519880 126.4388540 144.6656890
  55.8259690 126.9242740 143.7155250  41.5829360 133.7121510 148.2235160
  41.4626960 134.4383600 147.6116430  41.2730250 132.9424420 147.7463070
  40.4662360 138.5836840 150.4409980  40.0590440 138.7251430 149.5863580
  41.3575370 138.2997000 150.2381190  52.2595640 143.0184090 146.7761030
  52.0996780 142.7287030 147.6742860  52.0942350 142.2424220 146.2406260
  44.7384020 142.7982620 148.5532650  44.5626500 141.8818160 148.3400450
  43.8839760 143.1569910 148.7930450  51.9621770 140.5271650 145.3359030
  51.2686930 140.5248940 144.6761310  52.7044630 140.1030970 144.9053200
  51.5271700 142.1534360 149.4107520  51.9828650 141.3723740 149.7246140
  51.8664220 142.8641180 149.9548700  44.0493020 127.0556580 151.6058830
  43.6061170 127.8366120 151.2743350  44.6078010 127.3786470 152.3129770
  47.1651840 126.6767280 146.4864660  46.5406020 126.6727150 147.2117970
  47.0781960 125.8098240 146.0900630  43.8407240 132.1790150 149.3340080
  43.6148160 131.9627320 150.2386700  43.0599770 132.6118610 148.9886050
  51.0705000 132.1853520 147.9330730  50.4713890 132.9089320 147.7494350
  51.6184610 132.1230300 147.1507180  49.6769870 130.8217060 149.9634010
  50.0699440 131.1389260 149.1502700  50.0386720 129.9428940 150.0778530
  38.7134040 127.4117860 152.1864210  38.4247090 127.9820720 152.8989190
  39.4579800 126.9322310 152.5495440  38.9004270 131.3537980 143.3966930
  38.8178940 132.2968740 143.5381920  38.5487330 131.2112890 142.5179280
  46.7002400 130.0877010 152.4637280  46.7038460 129.6466960 151.6141820
  47.5953520 130.4094340 152.5709100  42.5504780 129.9703500 151.4231490
  42.2104830 130.4478730 152.1798540  41.7882100 129.5168620 151.0632590
  46.7622550 131.0889090 145.4544040  46.8835370 131.0475570 146.4029860
  46.3771060 131.9513240 145.2990770  45.7744050 133.3990230 144.8527340
  45.2060950 132.9508480 144.2263250  46.4833050 133.7583010 144.3192490
  39.8650860 128.8922480 150.3396160  39.5797780 128.5278150 151.1774780
  39.8029720 128.1602940 149.7259300  43.3191530 137.3948420 147.1253750
  42.5453790 136.8546040 146.9652470  44.0486160 136.8755030 146.7871510
  54.0779510 136.3913780 152.9180140  54.7978630 136.8869070 152.5276250
  53.8761330 135.7131670 152.2734010  49.5389450 127.7851740 147.0609530
  48.7254060 127.2864910 146.9854840  49.3451400 128.6249990 146.6445880
  52.2537840 132.1571390 145.3571690  53.1417460 132.4688620 145.1823030
  52.2242930 131.2843640 144.9652270  43.3628930 137.0628800 150.7632560
  43.8807600 136.2597060 150.7089450  42.9112950 137.0007940 151.6049390
  48.2498430 138.3295080 146.0359860  48.5914130 139.0737310 145.5403180
  47.4211140 138.6426200 146.3984690  54.5252110 133.4683230 144.8251550
  54.4415830 133.8997450 143.9747990  55.2446300 133.9281580 145.2578370
  55.5539360 140.3225490 147.5533680  54.9115520 139.6681110 147.8277400
  55.1670020 140.7280580 146.7774350  51.1325840 137.6510920 151.4005370
  51.4849660 137.0539050 150.7406740  50.2488170 137.3255150 151.5713620
  47.2189120 138.4108610 148.8075780  47.9060250 138.9577820 149.1883370
  46.4321540 138.9549340 148.8425390  39.3581520 134.0281430 144.2992860
  40.2276370 134.3106230 144.5828780  38.8671840 134.8417300 144.1841670
  46.5216330 135.4154640 148.4201140  46.9779110 136.2259890 148.6461330
  46.1704540 135.0977780 149.2519630  42.4228110 125.7592290 148.8923660
  42.2942740 125.7510190 149.8408580  41.5990130 126.0975380 148.5414670
  53.9436740 139.2141950 144.0910030  53.7174320 138.4972390 144.6834670
  53.5532940 138.9654390 143.2531780  39.7252770 143.2408810 144.8654490
  40.0850410 143.8398150 144.2111760  39.5845110 143.7868700 145.6389520
  53.5252990 137.1313890 145.7524190  53.2374690 137.5926580 146.5402070
  54.3205160 136.6711660 146.0208410  45.7421390 140.6240010 145.6828160
  45.7331490 141.3569700 145.0672670  44.8219750 140.3771590 145.7755120
  41.3428030 135.8454900 146.4274920  40.7355980 136.5853800 146.4370220
  41.8177380 135.9354260 145.6013120  54.2822850 128.9662660 146.9119370
  53.6536010 129.0708330 146.1977600  53.7874770 129.1859440 147.7013250
  48.7280990 140.6868250 144.3453350  48.8292970 140.4832240 143.4155330
  47.8282730 140.4326530 144.5501130  46.2506880 131.2448610 148.3277250
  45.5423030 131.7134950 148.7690860  46.5351360 130.5870620 148.9622440
  50.2822310 127.9699270 149.7673040  50.1590090 127.9885400 148.8182550
  51.2306870 128.0178210 149.8871440  47.3699100 143.2054570 149.0401020
  47.6240600 143.1675960 148.1180390  46.4211580 143.0787900 149.0329270
  44.4541900 129.5533690 145.7027960  45.3032430 129.9903840 145.6368150
  44.0873170 129.8653950 146.5300020  53.3751680 134.1246450 150.6159530
  52.4341820 134.1396680 150.7907220  53.6895750 133.3382410 151.0619830
  43.3533320 135.8066050 144.1763490  44.1196590 135.6947410 144.7388920
  43.4308010 135.1104020 143.5240260  42.0480080 133.2391120 144.8596380
  42.1283670 132.2918630 144.9713780  42.9399830 133.5698000 144.9657040
  55.3777260 141.2955300 152.2913790  55.5024680 142.1186470 152.7637600
  56.2442820 141.0846030 151.9437940  42.8494790 143.3886510 151.9630920
  43.5857270 142.8401970 152.2339490  43.2335710 144.2542520 151.8236910
  39.7340270 139.4560080 147.8372430  38.8080050 139.6981220 147.8277840
  40.1996700 140.2834340 147.7157180  45.9597100 142.5616820 143.7856490
  46.7525710 142.8505650 143.3338280  45.4401450 142.1308990 143.1068970
  55.0127270 141.7886950 145.2093230  54.7268780 141.3752090 144.3947410
  54.8146820 142.7174660 145.0893750  46.4774500 137.7820230 143.6498840
  46.3725140 137.1672580 144.3760220  46.3098720 137.2586120 142.8661850
  49.7177230 136.8440260 144.2540830  49.1687330 137.2909560 144.8983570
  50.3396490 136.3389510 144.7778500  45.3852350 135.8031180 146.1506130
  45.8068770 135.6371050 146.9937520  45.5103190 134.9931410 145.6561270
  47.8979990 134.8268790 143.3983230  48.4185650 134.1117810 143.0324380
  48.5448390 135.4654660 143.6983740  44.2811250 131.8764410 143.0964290
  44.0800310 131.0131770 143.4577630  44.1103300 131.7897770 142.1585890
  51.7599560 126.6872640 145.6251170  52.0401850 125.8440540 145.9810590
  50.9865290 126.9195750 146.1389920  43.0794050 128.9765030 143.0842170
  43.3819950 128.9832460 142.1761320  43.8188640 128.6262890 143.5809830
  46.2978980 127.9199650 144.0698370  45.9500980 127.2423640 143.4900820
  46.4991750 127.4589160 144.8841760  48.4628020 142.9080400 145.6884970
  49.3578810 143.2465370 145.7103730  48.4945650 142.1859810 145.0609250
  42.1024180 138.2807450 143.9171970  42.5399050 138.8237120 144.5729550
  42.5871910 137.4554400 143.9268310  39.3169980 141.0696480 151.3692230
  39.6472990 140.2017540 151.1370870  39.7460980 141.2755000 152.1997190
  43.9131900 139.4005490 149.0294200  43.6127440 139.2770460 149.9298110
  43.8069390 138.5414080 148.6209930  56.6823820 139.1801890 143.7320880
  55.8516780 139.2478540 144.2028110  56.8595650 140.0706010 143.4287740
  56.1380280 135.9249370 146.2355080  56.8999190 136.4946020 146.3414770
  56.1534650 135.3576570 147.0063390  39.6384620 134.4487300 150.4662740
  38.9833460 134.1798940 149.8222440  40.4762570 134.3391780 150.0164720
  57.1440250 136.7799470 151.0797010  57.5149080 135.9966790 150.6732980
  57.7842180 137.4688570 150.9014310  56.1899450 136.2183740 143.3927600
  56.4648290 137.1262620 143.2646820  56.0010190 136.1546270 144.3289590
  52.5875060 129.2428590 144.6881230  53.0059940 129.0559570 143.8477890
  52.2811120 128.3907640 144.9984160  56.0864790 134.1552730 148.3857030
  55.7108390 133.3880660 147.9538320  55.3567910 134.5375430 148.8731960
  38.8522700 131.6586230 146.4088070  37.9486780 131.9216430 146.2339730
  39.3363320 131.9297400 145.6288030  55.3615750 132.3810220 151.6864270
  55.8853230 131.8872870 151.0554440  55.9475170 132.5160580 152.4311840
  41.3949910 130.7151770 144.3182450  42.1041610 130.2934990 143.8329730
  40.6789850 130.7827000 143.6865800  41.0424070 126.7691100 143.3585100
  41.7652200 127.3100040 143.6766320  41.3148590 126.4954520 142.4826640
  54.8515720 131.6383570 147.6256680  55.3474840 131.4054440 148.4105560
  54.6531790 130.7995410 147.2094320  56.2802880 130.2744520 150.1594360
  56.1702160 130.1200560 151.0976630  57.0410470 129.7465460 149.9169770
  57.1693150 128.1052440 143.4000500  58.0942460 127.9733620 143.1918790
  57.1468940 128.1845260 144.3536950  57.2431640 128.8763100 146.0257210
  56.4483140 128.8108220 146.5550120  57.4474920 129.8113740 146.0142560
  54.1850060 142.9154650 150.0195600  54.7809130 142.5939220 149.3430020
  54.4428210 142.4426470 150.8108870  53.6751570 127.2059980 152.4756040
  54.1159660 127.1505080 151.6277640  53.4059160 128.1217990 152.5466220
  55.5390140 126.8375220 150.4864860  55.4778540 125.8936440 150.3395880
  56.3182170 126.9455310 151.0318320  39.8442890 142.9767580 149.4488810
  39.6764930 142.3438260 150.1470700  38.9777400 143.1826980 149.0983000
  40.4670910 126.8084360 146.9520670  41.2250270 126.9213240 146.3784700
  40.0048080 127.6453560 146.9064100  47.0084720 128.9223630 149.9422980
  46.1959230 128.5480520 149.6018860  47.5126360 128.1668710 150.2444170
  51.5109700 125.5866080 151.1806050  52.1139070 126.1586290 151.6554570
  50.7702690 126.1505520 150.9579950  54.6544300 125.9887640 146.4546330
  54.8494930 126.8871090 146.7213760  53.8674170 125.7574720 146.9479280
  41.4505590 141.6700810 146.8938950  40.9253210 142.0508840 146.1900910
  41.3750170 142.2951580 147.6148660  42.8396060 127.3348410 145.4922640
  43.3688820 126.5478210 145.3630590  43.4724380 128.0139600 145.7258170
  45.0333900 127.0723550 148.5468030  44.4036640 126.3710860 148.7138160
  44.4939040 127.8327680 148.3301190  56.2070910 143.2288350 148.2152890
  56.3823100 142.5426090 147.5713810  55.5092480 143.7535400 147.8229560
  44.0498560 143.6183190 145.7688200  44.7817380 143.3342470 145.2212090
  44.3092230 143.3796470 146.6587580  43.2113350 139.7347920 145.7734530
  42.5822230 140.2033020 146.3220360  43.3261180 138.8897140 146.2080720
  50.6663070 133.7853580 131.9235730  50.5857120 132.8708190 131.6527440
  50.2527490 134.2820650 131.2175440  48.7981110 135.5632600 133.8045000
  48.0223210 135.0833040 134.0943570  49.4494040 134.8838250 133.6301160
  42.8146940 135.8752410 134.6820760  41.9831820 135.6201120 135.0817270
  43.4227920 135.9463180 135.4178680  52.8188540 139.9692790 132.5844130
  52.3570070 139.1980030 132.9131300  53.6314090 139.9958860 133.0896580
  42.7948200 139.9092500 134.8778780  43.0976240 139.0190240 134.6989000
  43.5391790 140.4662720 134.6501030  41.2238890 130.8354300 128.4663150
  40.3355590 131.1770270 128.3643030  41.5080080 130.6354620 127.5743980
  39.1871900 133.4359950 134.3502850  39.7588010 132.6682150 134.3506490
  39.1873440 133.7348710 133.4409460  49.0451850 142.2550800 132.2048120
  48.4263290 142.7108300 131.6342560  49.9003630 142.4102260 131.8037820
  48.2390100 138.2389790 133.8115160  48.1698380 137.2979730 133.6504290
  49.0009960 138.3291200 134.3837730  40.4296770 128.8444310 136.1371780
  40.2499610 127.9470060 136.4174540  40.0276850 129.3916180 136.8118730
  49.2695270 131.0460170 134.0384090  49.6460090 130.1732050 133.9257760
  49.1714780 131.3818870 133.1474530  43.4000280 129.4185800 129.5001530
  43.5067030 130.3189530 129.8070290  42.4892640 129.3703770 129.2096180
  53.0519390 128.5410610 130.9712430  53.8729010 128.0507180 131.0137910
  53.0853470 129.1308270 131.7244270  41.0483440 131.3404810 134.7454120
  41.7293550 131.6043180 135.3641520  40.7331490 130.5005680 135.0792130
  45.2408010 132.3872170 133.8326710  45.7486230 132.8853140 134.4731730
  45.7721250 131.6107370 133.6566070  57.3418940 130.5577360 137.5356060
  56.6371110 130.9459070 137.0171170  57.6076860 131.2527650 138.1376990
  43.5244110 127.0270730 138.0990130  43.5262550 127.5443120 137.2936030
  42.6948420 126.5500910 138.0760060  49.9115200 137.1390040 129.5980030
  49.2932470 137.6039490 129.0342750  50.4238450 137.8317520 130.0149540
  44.7746960 136.6665910 136.2763630  44.4416340 137.2934830 136.9184700
  44.9513640 137.1927790 135.4965300  53.2880870 130.4810990 133.7439970
  52.5836440 130.7695880 134.3243080  53.6493030 131.2911100 133.3839530
  43.2059440 128.7380690 136.1060580  43.5476250 129.5822740 135.8114450
  42.2675250 128.8864430 136.2225920  43.9866060 138.6346710 138.0912810
  44.6040060 139.3097790 137.8097260  43.1259180 139.0434690 138.0000310
  39.2798400 137.8246570 126.9719660  38.9026380 138.3133670 126.2404560
  39.5371470 138.4971850 127.6026190  54.9043650 140.0986120 136.0067450
  54.2207170 140.7685230 135.9984120  55.4437940 140.2966770 135.2412310
  56.3567790 129.9265780 134.1349180  55.4092700 129.9604760 134.2664610
  56.6817780 130.7404730 134.5198540  46.8887330 126.2262960 132.4305170
  47.1962310 125.6709850 131.7140670  45.9588030 126.3607420 132.2478160
  52.4402390 141.9430250 134.7212630  52.4529550 141.5392540 133.8534890
  51.8877610 142.7177540 134.6174060  53.7347810 138.6646470 129.8102800
  53.6244140 137.7220800 129.9352220  53.7316060 139.0262110 130.6965560
  51.8387830 136.8460090 136.0495240  52.2556620 136.6320200 135.2148700
  52.5627650 137.1032880 136.6203860  49.2768090 134.2911790 129.1665290
  48.3497370 134.2249170 129.3953760  49.4292910 135.2291920 129.0520530
  49.2637170 130.5628790 126.1632450  48.3240840 130.7242750 126.2484910
  49.5820430 131.2814470 125.6168440  55.7849930 135.2447310 136.1411480
  54.9568560 135.3140400 135.6661610  56.3800410 135.8301620 135.6727310
  53.3065380 135.8532090 129.6700540  52.6877800 135.5151640 129.0226840
  53.2889830 135.2091850 130.3779730  52.7491940 132.0316630 137.0866350
  52.3363120 132.8570340 137.3406340  52.0167890 131.4461670 136.8942710
  44.8824730 134.8176530 131.9485020  44.4781730 134.1053780 131.4530920
  44.9687850 134.4729770 132.8373060  45.3506430 138.5044090 134.1124230
  45.0534720 137.8989560 133.4332010  46.3006250 138.5421400 134.0013590
  43.5953350 131.5919740 135.7284060  44.1467940 131.7015080 134.9537310
  44.1096860 131.9657340 136.4439290  53.4392040 142.0775960 137.7747330
  52.9622600 142.8848150 137.5819940  52.7553830 141.4254290 137.9273540
  44.4424860 138.2425780 140.7632030  43.5453390 138.4665750 141.0105430
  44.4677730 138.3660720 139.8143430  51.4830080 135.0918900 126.6773290
  51.9223360 134.2541330 126.5311110  52.1958500 135.7248300 126.7637430
  43.2696080 135.1139100 139.3389400  43.1303850 135.9861900 139.7076800
  42.3877440 134.7711910 139.1937340  49.5925460 140.0314970 130.6454530
  50.0321370 140.7739300 130.2309920  49.5312350 140.2741540 131.5693490
  45.0676430 141.0560800 141.5474550  45.0391860 141.4603750 140.6802980
  44.9041400 140.1271160 141.3846150  55.0647220 126.3461710 124.9914330
  54.7519880 126.4388540 125.8913400  55.8259690 126.9242740 124.9411760
  41.5829360 133.7121510 129.4491670  41.4626960 134.4383600 128.8372940
  41.2730250 132.9424420 128.9719580  57.0191250 141.8387900 142.8438720
  57.4950970 142.3170790 143.5227800  57.6398410 141.7705390 142.1184220
  39.2214730 136.8836650 135.2560310  39.2995150 137.0185420 134.3116030
  39.8356410 136.1752540 135.4488430  40.4662360 138.5836840 131.6666490
  40.0590440 138.7251430 130.8120090  41.3575370 138.2997000 131.4637700
  56.4224500 139.0300750 140.0038730  56.5487560 138.7912630 139.0855910
  56.4645880 138.1985290 140.4760810  50.2841240 142.7328750 138.5733540
  50.7985910 142.6436760 139.3755970  49.4410320 143.0788450 138.8661450
  52.2595640 143.0184090 128.0017540  52.0996780 142.7287030 128.8999370
  52.0942350 142.2424220 127.4662770  44.7384020 142.7982620 129.7789160
  44.5626500 141.8818160 129.5656960  43.8839760 143.1569910 130.0186960
  51.9621770 140.5271650 126.5615540  51.2686930 140.5248940 125.9017820
  52.7044630 140.1030970 126.1309710  51.5271700 142.1534360 130.6364030
  51.9828650 141.3723740 130.9502650  51.8664220 142.8641180 131.1805210
  56.2748510 131.0833210 140.9688470  55.6592780 131.5912880 140.4403930
  55.9544930 130.1831540 140.9114410  39.2774250 137.9250820 137.7954770
  39.4405290 137.4556180 136.9774140  39.7426700 137.4174380 138.4603610
  44.0493020 127.0556580 132.8315340  43.6061170 127.8366120 132.4999860
  44.6078010 127.3786470 133.5386280  48.3362830 129.9225100 138.4350660
  47.8742200 130.1308120 139.2470600  47.9340940 129.1084450 138.1321330
  53.3367340 131.1434050 139.5647320  52.4860930 130.8439800 139.8856390
  53.1769130 131.3876060 138.6531140  50.4317050 132.6435800 141.6646110
  50.7570460 131.8099550 141.3248340  51.2197380 133.1664320 141.8124440
  47.1651840 126.6767280 127.7121170  46.5406020 126.6727150 128.4374480
  47.0781960 125.8098240 127.3157140  46.0868920 127.6003910 134.6904940
  46.3841250 128.5066740 134.6096960  46.6354480 127.1122690 134.0764510
  43.8407240 132.1790150 130.5596590  43.6148160 131.9627320 131.4643210
  43.0599770 132.6118610 130.2142560  51.0705000 132.1853520 129.1587240
  50.4713890 132.9089320 128.9750860  51.6184610 132.1230300 128.3763690
  46.2806450 133.0775730 141.2256860  46.1850050 132.1370460 141.0757260
  47.1238430 133.2990800 140.8304930  49.6769870 130.8217060 131.1890520
  50.0699440 131.1389260 130.3759210  50.0386720 129.9428940 131.3035040
  41.4116990 129.4889400 139.3790640  41.0180380 130.3364610 139.5863420
  40.7235390 128.8515770 139.5699280  47.9862040 129.5724370 142.4487380
  47.2960360 129.3796570 143.0833470  48.7294340 129.8559010 142.9811680
  38.7134040 127.4117860 133.4120720  38.4247090 127.9820720 134.1245700
  39.4579800 126.9322310 133.7751950  38.9004270 131.3537980 124.6223440
  38.8178940 132.2968740 124.7638430  38.5487330 131.2112890 123.7435790
  50.2625010 133.4122810 135.2841300  49.5306130 133.9209620 135.6331400
  49.8649350 132.5952790 134.9830080  46.7002400 130.0877010 133.6893790
  46.7038460 129.6466960 132.8398330  47.5953520 130.4094340 133.7965610
  42.5504780 129.9703500 132.6488000  42.2104830 130.4478730 133.4055050
  41.7882100 129.5168620 132.2889100  46.7622550 131.0889090 126.6800550
  46.8835370 131.0475570 127.6286370  46.3771060 131.9513240 126.5247280
  50.7250920 128.8656490 134.6964240  50.7423660 129.3165140 135.5406090
  50.4766500 127.9662130 134.9097680  45.7744050 133.3990230 126.0783850
  45.2060950 132.9508480 125.4519760  46.4833050 133.7583010 125.5449000
  54.1521670 126.2788670 140.5350620  54.4767440 125.5478330 141.0608600
  54.1878180 125.9602310 139.6331610  40.8513230 137.3002250 139.9550580
  40.4668020 136.6595920 140.5533540  41.1625420 138.0038370 140.5245310
  47.0010370 134.1478790 135.4359200  47.3680500 133.6737360 136.1820540
  46.8115430 135.0220360 135.7767540  39.8650860 128.8922480 131.5652670
  39.5797780 128.5278150 132.4031290  39.8029720 128.1602940 130.9515810
  44.7909740 133.1887430 137.7543410  44.4866810 134.0679410 137.9793770
  45.7456200 133.2487220 137.7900850  43.3191530 137.3948420 128.3510260
  42.5453790 136.8546040 128.1908980  44.0486160 136.8755030 128.0128020
  54.0779510 136.3913780 134.1436650  54.7978630 136.8869070 133.7532760
  53.8761330 135.7131670 133.4990520  49.5389450 127.7851740 128.2866040
  48.7254060 127.2864910 128.2111350  49.3451400 128.6249990 127.8702390
  49.4598310 136.4622840 140.0305650  49.3935620 135.5418510 139.7763240
  48.8303450 136.5598280 140.7450290  52.2537840 132.1571390 126.5828200
  53.1417460 132.4688620 126.4079540  52.2242930 131.2843640 126.1908780
  43.3628930 137.0628800 131.9889070  43.8807600 136.2597060 131.9345960
  42.9112950 137.0007940 132.8305900  48.2498430 138.3295080 127.2616370
  48.5914130 139.0737310 126.7659690  47.4211140 138.6426200 127.6241200
  40.8473470 134.0290170 138.9014770  40.4888410 134.6944020 139.4888110
  40.5528030 133.1973720 139.2727390  44.0486590 134.4874410 141.7854320
  43.7486730 134.6331590 140.8882140  44.8197830 133.9279700 141.6927710
  49.3915040 139.2843410 139.7809450  49.4059580 138.3524370 139.5628360
  48.6840140 139.3703170 140.4199220  54.5252110 133.4683230 126.0508060
  54.4415830 133.8997450 125.2004500  55.2446300 133.9281580 126.4834880
  55.6026250 135.9250750 139.1278030  54.8774440 136.5179530 138.9307420
  56.1301710 135.9174290 138.3291400  55.5539360 140.3225490 128.7790190
  54.9115520 139.6681110 129.0533910  55.1670020 140.7280580 128.0030860
  51.1325840 137.6510920 132.6261880  51.4849660 137.0539050 131.9663250
  50.2488170 137.3255150 132.7970130  47.2189120 138.4108610 130.0332290
  47.9060250 138.9577820 130.4139880  46.4321540 138.9549340 130.0681900
  39.3581520 134.0281430 125.5249370  40.2276370 134.3106230 125.8085290
  38.8671840 134.8417300 125.4098180  46.5216330 135.4154640 129.6457650
  46.9779110 136.2259890 129.8717840  46.1704540 135.0977780 130.4776140
  48.8248940 140.9260980 136.8749950  49.4691160 141.1320360 137.5523370
  49.1878380 140.1649380 136.4220800  42.4228110 125.7592290 130.1180170
  42.2942740 125.7510190 131.0665090  41.5990130 126.0975380 129.7671180
  50.0981020 138.9293330 135.5927400  50.7403250 138.2286490 135.7059570
  50.6230370 139.7091770 135.4124290  53.9436740 139.2141950 125.3166540
  53.7174320 138.4972390 125.9091180  53.5532940 138.9654390 124.4788290
  51.8718640 139.7288230 138.7963460  52.2074880 140.3154920 139.4741380
  50.9518980 139.5980940 139.0261250  39.7252770 143.2408810 126.0911000
  40.0850410 143.8398150 125.4368270  39.5845110 143.7868700 126.8646030
  39.4222040 127.5183410 139.5786870  38.7080560 127.7180330 140.1839480
  39.8417080 126.7422980 139.9501670  53.5252990 137.1313890 126.9780700
  53.2374690 137.5926580 127.7658580  54.3205160 136.6711660 127.2464920
  39.7094630 141.5063670 140.5653400  39.8185750 140.5658410 140.4248790
  39.0575190 141.7718420 139.9167130  47.7007220 139.7779560 141.9651520
  47.3804090 139.0588800 142.5097210  47.0265580 140.4534630 142.0387580
  45.7421390 140.6240010 126.9084670  45.7331490 141.3569700 126.2929180
  44.8219750 140.3771590 127.0011630  41.3428030 135.8454900 127.6531430
  40.7355980 136.5853800 127.6626730  41.8177380 135.9354260 126.8269630
  50.9160820 130.0105720 137.3288320  51.2841640 129.1900930 137.6567890
  50.0559020 130.0707610 137.7443970  54.2822850 128.9662660 128.1375880
  53.6536010 129.0708330 127.4234110  53.7874770 129.1859440 128.9269760
  48.7280990 140.6868250 125.5709860  48.8292970 140.4832240 124.6411840
  47.8282730 140.4326530 125.7757640  46.2506880 131.2448610 129.5533760
  45.5423030 131.7134950 129.9947370  46.5351360 130.5870620 130.1878950
  47.8762810 132.6645310 137.5526290  48.3748060 133.1391130 138.2178140
  48.0185760 131.7408830 137.7596320  50.2822310 127.9699270 130.9929550
  50.1590090 127.9885400 130.0439060  51.2306870 128.0178210 131.1127950
  47.3699100 143.2054570 130.2657530  47.6240600 143.1675960 129.3436900
  46.4211580 143.0787900 130.2585780  44.4541900 129.5533690 126.9284470
  45.3032430 129.9903840 126.8624660  44.0873170 129.8653950 127.7556530
  55.0829670 128.8813270 138.3954680  54.5803270 129.6218670 138.7348490
  55.8986330 129.2697270 138.0791470  53.3751680 134.1246450 131.8416040
  52.4341820 134.1396680 132.0163730  53.6895750 133.3382410 132.2876340
  43.3533320 135.8066050 125.4020000  44.1196590 135.6947410 125.9645430
  43.4308010 135.1104020 124.7496770  42.0480080 133.2391120 126.0852890
  42.1283670 132.2918630 126.1970290  42.9399830 133.5698000 126.1913550
  55.3777260 141.2955300 133.5170300  55.5024680 142.1186470 133.9894110
  56.2442820 141.0846030 133.1694450  42.8494790 143.3886510 133.1887430
  43.5857270 142.8401970 133.4596000  43.2335710 144.2542520 133.0493420
  39.7340270 139.4560080 129.0628940  38.8080050 139.6981220 129.0534350
  40.1996700 140.2834340 128.9413690  41.8553070 142.5732580 142.3773010
  42.6565800 142.8944630 142.7908410  41.3404890 142.2128160 143.0992920
  45.9597100 142.5616820 125.0113000  46.7525710 142.8505650 124.5594790
  45.4401450 142.1308990 124.3325480  50.6917700 138.6812450 142.3248420
  50.0855860 138.7044050 141.5844170  50.3871810 137.9495490 142.8615670
  52.1218070 142.4092740 140.9357830  53.0739820 142.3250760 140.8858070
  51.9746290 143.0734450 141.6091620  55.0127270 141.7886950 126.4349740
  54.7268780 141.3752090 125.6203920  54.8146820 142.7174660 126.3150260
  39.5750880 135.0606040 141.3209060  40.0789900 134.4813320 141.8925290
  38.8358300 135.3446270 141.8585430  46.4774500 137.7820230 124.8755350
  46.3725140 137.1672580 125.6016730  46.3098720 137.2586120 124.0918360
  46.6288820 136.4677030 140.8544580  45.8634490 137.0362030 140.7699250
  46.8104780 136.1753240 139.9612810  49.7177230 136.8440260 125.4797340
  49.1687330 137.2909560 126.1240080  50.3396490 136.3389510 126.0035010
  53.7712170 138.1982360 141.4119600  54.5121640 138.5358120 140.9087060
  53.0084850 138.3674420 140.8589370  41.6073960 133.2035630 142.2159130
  41.6479300 132.9049500 143.1244360  42.4619460 133.6043240 142.0566650
  45.3852350 135.8031180 127.3762640  45.8068770 135.6371050 128.2194030
  45.5103190 134.9931410 126.8817780  43.5479770 131.7827730 140.1833620
  43.0176230 131.2918680 139.5556960  44.2167840 132.2111930 139.6491550
  47.8979990 134.8268790 124.6239740  48.4185650 134.1117810 124.2580890
  48.5448390 135.4654660 124.9240250  52.4457830 136.2497190 139.9474810
  52.8598850 136.4042270 140.7965230  51.5108830 136.3752410 140.1100590
  52.9180000 133.5893350 141.9513960  53.5000770 132.8345670 141.8634440
  53.0941770 134.1200790 141.1745440  44.0352070 128.7490100 140.2630910
  43.9408940 128.1310850 139.5381780  43.4549460 129.4756390 140.0360820
  46.8013510 127.3063340 137.2958300  46.3530810 127.3287600 136.4503850
  46.1678710 126.9082360 137.8928600  47.2073060 136.2017670 137.9170740
  47.6261170 137.0450400 137.7446980  46.2881690 136.3389710 137.6877520
  49.5436960 133.9333850 139.3008580  49.6633170 133.3374990 140.0403420
  50.4030960 133.9703540 138.8809880  51.8824860 134.4871040 137.8771090
  51.3560080 135.0113660 137.2736230  52.2256200 135.1198430 138.5080820
  44.2811250 131.8764410 124.3220800  44.0800310 131.0131770 124.6834140
  44.1103300 131.7897770 123.3842400  45.0580480 142.5070680 139.0328470
  44.5201570 143.2316740 138.7137170  45.3114440 142.0301020 138.2425810
  46.3105730 130.4755200 140.5584400  46.9005420 130.1671050 141.2462220
  45.4925970 130.0034950 140.7144300  51.1299160 130.0921010 140.7917420
  50.4414680 129.4302550 140.7267410  51.8505180 129.6459280 141.2365880
  51.7599560 126.6872640 126.8507680  52.0401850 125.8440540 127.2067100
  50.9865290 126.9195750 127.3646430  43.0794050 128.9765030 124.3098680
  43.3819950 128.9832460 123.4017830  43.8188640 128.6262890 124.8066340
  47.9142690 143.7421890 139.2915120  47.8401390 144.6457030 139.5987490
  47.0121530 143.4233790 139.2637190  46.2978980 127.9199650 125.2954880
  45.9500980 127.2423640 124.7157330  46.4991750 127.4589160 126.1098270
  48.4628020 142.9080400 126.9141480  49.3578810 143.2465370 126.9360240
  48.4945650 142.1859810 126.2865760  42.1024180 138.2807450 125.1428480
  42.5399050 138.8237120 125.7986060  42.5871910 137.4554400 125.1524820
  39.3169980 141.0696480 132.5948740  39.6472990 140.2017540 132.3627380
  39.7460980 141.2755000 133.4253700  43.9131900 139.4005490 130.2550710
  43.6127440 139.2770460 131.1554620  43.8069390 138.5414080 129.8466440
  39.8060190 141.9367070 135.3330370  39.3691180 142.1167870 136.1654520
  40.3737870 142.6941690 135.1912090  55.4422370 141.4384070 139.6207680
  54.8424360 141.4976630 138.8771600  55.5716270 140.4989050 139.7504530
  56.6823820 139.1801890 124.9577390  55.8516780 139.2478540 125.4284620
  56.8595650 140.0706010 124.6544250  56.1380280 135.9249370 127.4611590
  56.8999190 136.4946020 127.5671280  56.1534650 135.3576570 128.2319900
  39.6384620 134.4487300 131.6919250  38.9833460 134.1798940 131.0478950
  40.4762570 134.3391780 131.2421230  57.1440250 136.7799470 132.3053520
  57.5149080 135.9966790 131.8989490  57.7842180 137.4688570 132.1270820
  54.1274010 138.1636050 137.7183840  53.3133850 138.5933210 137.9809630
  54.5348210 138.7754460 137.1052890  56.1899450 136.2183740 124.6184110
  56.4648290 137.1262620 124.4903330  56.0010190 136.1546270 125.5546100
  52.5875060 129.2428590 125.9137740  53.0059940 129.0559570 125.0734400
  52.2811120 128.3907640 126.2240670  56.0864790 134.1552730 129.6113540
  55.7108390 133.3880660 129.1794830  55.3567910 134.5375430 130.0988470
  40.6760550 134.8339870 136.2322590  41.0433590 134.7467270 137.1118610
  40.1071370 134.0706420 136.1329450  55.4764410 133.3024250 139.2453060
  55.2450500 133.0737000 138.3451010  55.7368960 134.2223800 139.1997950
  40.2276550 131.7448960 140.1381010  39.3332600 131.7115720 140.4774720
  40.7674100 131.9435750 140.9032260  53.9152480 128.5280680 142.0232760
  54.7922660 128.5364080 142.4066760  53.9273320 127.7911520 141.4125110
  38.8522700 131.6586230 127.6344580  37.9486780 131.9216430 127.4596240
  39.3363320 131.9297400 126.8544540  55.3615750 132.3810220 132.9120780
  55.8853230 131.8872870 132.2810950  55.9475170 132.5160580 133.6568350
  55.5405470 132.4650090 136.4340330  54.5908180 132.4313630 136.5485320
  55.7218480 133.3750200 136.1990100  41.3949910 130.7151770 125.5438960
  42.1041610 130.2934990 125.0586240  40.6789850 130.7827000 124.9122310
  41.0424070 126.7691100 124.5841610  41.7652200 127.3100040 124.9022830
  41.3148590 126.4954520 123.7083150  54.8515720 131.6383570 128.8513190
  55.3474840 131.4054440 129.6362070  54.6531790 130.7995410 128.4350830
  40.7316260 126.0197290 134.4864230  41.3792450 125.4694670 134.0459390
  41.1518100 126.2740440 135.3080040  56.2802880 130.2744520 131.3850870
  56.1702160 130.1200560 132.3233140  57.0410470 129.7465460 131.1426280
  54.6268600 126.2138650 137.8433870  55.2640820 126.8272790 138.2093060
  54.7743490 126.2499310 136.8983100  57.1693150 128.1052440 124.6257010
  58.0942460 127.9733620 124.4175300  57.1468940 128.1845260 125.5793460
  57.2431640 128.8763100 127.2513720  56.4483140 128.8108220 127.7806630
  57.4474920 129.8113740 127.2399070  54.1850060 142.9154650 131.2452110
  54.7809130 142.5939220 130.5686530  54.4428210 142.4426470 132.0365380
  40.4848260 126.1752960 137.2289550  40.1363080 126.6316780 137.9947730
  40.1535960 125.2810090 137.3111980  42.0912630 139.3472560 141.3942740
  42.0482260 138.9765470 142.2757200  42.2223640 140.2850130 141.5344560
  45.7918660 140.9032150 136.9952460  45.5510020 141.1706710 136.1082980
  46.7321300 141.0737880 137.0503320  47.9973080 127.3664840 140.7508970
  47.9361970 127.9586670 141.5004380  48.9373460 127.2590800 140.6059230
  50.6347640 127.0234900 140.3901260  51.2488050 127.3414190 139.7282340
  51.1797200 126.5383490 141.0097120  57.0522820 142.9226530 137.7963100
  56.5581100 143.3195400 137.0790230  56.4436110 142.2975740 138.1900380
  41.1568900 125.7029160 140.5040320  41.7051890 125.5217210 139.7406430
  41.2224210 124.9123270 141.0396630  41.9300660 142.2934810 138.5140520
  41.3360980 142.1619510 139.2530560  41.9224500 141.4572950 138.0482620
  51.3755680 125.5867040 136.7170550  50.5015520 125.9202150 136.5143480
  51.2666430 125.1140220 137.5422420  52.2827660 127.7937910 138.1012270
  51.9541020 126.9789670 137.7214000  53.2309960 127.7507720 137.9777960
  54.7362270 143.5649950 135.0749840  54.2765240 144.3165760 134.7007860
  54.1074730 142.8456420 135.0164640  41.5612890 139.6593190 137.4648560
  40.8346950 139.0398480 137.3974510  41.6222040 140.0533800 136.5946640
  45.1657990 141.8738190 134.2497970  45.6823010 141.2625550 133.7246230
  45.8155370 142.3766970 134.7408980  47.9053490 142.7646680 135.0766950
  48.1931300 142.5100980 134.1999960  48.4176710 142.2124040 135.6672520
  49.1230500 126.5036880 135.6563460  48.3402290 126.9782380 135.9360220
  48.8293430 125.5991710 135.5476640  53.6751570 127.2059980 133.7012550
  54.1159660 127.1505080 132.8534150  53.4059160 128.1217990 133.7722730
  55.5390140 126.8375220 131.7121370  55.4778540 125.8936440 131.5652390
  56.3182170 126.9455310 132.2574830  39.8442890 142.9767580 130.6745320
  39.6764930 142.3438260 131.3727210  38.9777400 143.1826980 130.3239510
  40.4670910 126.8084360 128.1777180  41.2250270 126.9213240 127.6041210
  40.0048080 127.6453560 128.1320610  47.0084720 128.9223630 131.1679490
  46.1959230 128.5480520 130.8275370  47.5126360 128.1668710 131.4700680
  51.5109700 125.5866080 132.4062560  52.1139070 126.1586290 132.8811080
  50.7702690 126.1505520 132.1836460  54.6544300 125.9887640 127.6802840
  54.8494930 126.8871090 127.9470270  53.8674170 125.7574720 128.1735790
  41.4505590 141.6700810 128.1195460  40.9253210 142.0508840 127.4157420
  41.3750170 142.2951580 128.8405170  42.8396060 127.3348410 126.7179150
  43.3688820 126.5478210 126.5887100  43.4724380 128.0139600 126.9514680
  45.0333900 127.0723550 129.7724540  44.4036640 126.3710860 129.9394670
  44.4939040 127.8327680 129.5557700  47.9725850 143.6862780 142.4435150
  48.8993160 143.4507050 142.4871110  47.9576280 144.5134780 141.9621180
  56.2070910 143.2288350 129.4409400  56.3823100 142.5426090 128.7970320
  55.5092480 143.7535400 129.0486070  45.1589460 126.3507530 142.2077030
  44.8773730 126.8541130 141.4437850  45.5409160 125.5529280 141.8419160
  44.0498560 143.6183190 126.9944710  44.7817380 143.3342470 126.4468600
  44.3092230 143.3796470 127.8844090  43.2113350 139.7347920 126.9991040
  42.5822230 140.2033020 127.5476870  43.3261180 138.8897140 127.4337230
  51.7604920 125.7661110 142.7857500  51.6470370 126.0855720 143.6809020
  52.5774660 126.1673620 142.4894780  54.5403410 142.9132640 142.2676190
  55.3328730 142.4181870 142.0602150  54.8336560 143.5922780 142.8751800
  50.6663070 133.7853580 113.1492240  50.5857120 132.8708190 112.8783950
  50.2527490 134.2820650 112.4431950  48.7981110 135.5632600 115.0301510
  48.0223210 135.0833040 115.3200080  49.4494040 134.8838250 114.8557670
  42.8146940 135.8752410 115.9077270  41.9831820 135.6201120 116.3073780
  43.4227920 135.9463180 116.6435190  52.8188540 139.9692790 113.8100640
  52.3570070 139.1980030 114.1387810  53.6314090 139.9958860 114.3153090
  42.7948200 139.9092500 116.1035290  43.0976240 139.0190240 115.9245510
  43.5391790 140.4662720 115.8757540  41.2238890 130.8354300 109.6919660
  40.3355590 131.1770270 109.5899540  41.5080080 130.6354620 108.8000490
  39.1871900 133.4359950 115.5759360  39.7588010 132.6682150 115.5763000
  39.1873440 133.7348710 114.6665970  49.0451850 142.2550800 113.4304630
  48.4263290 142.7108300 112.8599070  49.9003630 142.4102260 113.0294330
  48.2390100 138.2389790 115.0371670  48.1698380 137.2979730 114.8760800
  49.0009960 138.3291200 115.6094240  40.4296770 128.8444310 117.3628290
  40.2499610 127.9470060 117.6431050  40.0276850 129.3916180 118.0375240
  49.2695270 131.0460170 115.2640600  49.6460090 130.1732050 115.1514270
  49.1714780 131.3818870 114.3731040  43.4000280 129.4185800 110.7258040
  43.5067030 130.3189530 111.0326800  42.4892640 129.3703770 110.4352690
  53.0519390 128.5410610 112.1968940  53.8729010 128.0507180 112.2394420
  53.0853470 129.1308270 112.9500780  41.0483440 131.3404810 115.9710630
  41.7293550 131.6043180 116.5898030  40.7331490 130.5005680 116.3048640
  45.2408010 132.3872170 115.0583220  45.7486230 132.8853140 115.6988240
  45.7721250 131.6107370 114.8822580  57.3418940 130.5577360 118.7612570
  56.6371110 130.9459070 118.2427680  57.6076860 131.2527650 119.3633500
  43.5244110 127.0270730 119.3246640  43.5262550 127.5443120 118.5192540
  42.6948420 126.5500910 119.3016570  49.9115200 137.1390040 110.8236540
  49.2932470 137.6039490 110.2599260  50.4238450 137.8317520 111.2406050
  44.7746960 136.6665910 117.5020140  44.4416340 137.2934830 118.1441210
  44.9513640 137.1927790 116.7221810  53.2880870 130.4810990 114.9696480
  52.5836440 130.7695880 115.5499590  53.6493030 131.2911100 114.6096040
  43.2059440 128.7380690 117.3317090  43.5476250 129.5822740 117.0370960
  42.2675250 128.8864430 117.4482430  43.9866060 138.6346710 119.3169320
  44.6040060 139.3097790 119.0353770  43.1259180 139.0434690 119.2256820
  39.2798400 137.8246570 108.1976170  38.9026380 138.3133670 107.4661070
  39.5371470 138.4971850 108.8282700  54.9043650 140.0986120 117.2323960
  54.2207170 140.7685230 117.2240630  55.4437940 140.2966770 116.4668820
  56.3567790 129.9265780 115.3605690  55.4092700 129.9604760 115.4921120
  56.6817780 130.7404730 115.7455050  46.8887330 126.2262960 113.6561680
  47.1962310 125.6709850 112.9397180  45.9588030 126.3607420 113.4734670
  52.4402390 141.9430250 115.9469140  52.4529550 141.5392540 115.0791400
  51.8877610 142.7177540 115.8430570  53.7347810 138.6646470 111.0359310
  53.6244140 137.7220800 111.1608730  53.7316060 139.0262110 111.9222070
  51.8387830 136.8460090 117.2751750  52.2556620 136.6320200 116.4405210
  52.5627650 137.1032880 117.8460370  49.2768090 134.2911790 110.3921800
  48.3497370 134.2249170 110.6210270  49.4292910 135.2291920 110.2777040
  49.2637170 130.5628790 107.3888960  48.3240840 130.7242750 107.4741420
  49.5820430 131.2814470 106.8424950  55.7849930 135.2447310 117.3667990
  54.9568560 135.3140400 116.8918120  56.3800410 135.8301620 116.8983820
  53.3065380 135.8532090 110.8957050  52.6877800 135.5151640 110.2483350
  53.2889830 135.2091850 111.6036240  52.7491940 132.0316630 118.3122860
  52.3363120 132.8570340 118.5662850  52.0167890 131.4461670 118.1199220
  44.8824730 134.8176530 113.1741530  44.4781730 134.1053780 112.6787430
  44.9687850 134.4729770 114.0629570  45.3506430 138.5044090 115.3380740
  45.0534720 137.8989560 114.6588520  46.3006250 138.5421400 115.2270100
  43.5953350 131.5919740 116.9540570  44.1467940 131.7015080 116.1793820
  44.1096860 131.9657340 117.6695800  53.4392040 142.0775960 119.0003840
  52.9622600 142.8848150 118.8076450  52.7553830 141.4254290 119.1530050
  44.4424860 138.2425780 121.9888540  43.5453390 138.4665750 122.2361940
  44.4677730 138.3660720 121.0399940  51.4830080 135.0918900 107.9029800
  51.9223360 134.2541330 107.7567620  52.1958500 135.7248300 107.9893940
  43.2696080 135.1139100 120.5645910  43.1303850 135.9861900 120.9333310
  42.3877440 134.7711910 120.4193850  49.5925460 140.0314970 111.8711040
  50.0321370 140.7739300 111.4566430  49.5312350 140.2741540 112.7950000
  45.0676430 141.0560800 122.7731060  45.0391860 141.4603750 121.9059490
  44.9041400 140.1271160 122.6102660  55.0647220 126.3461710 106.2170840
  54.7519880 126.4388540 107.1169910  55.8259690 126.9242740 106.1668270
  41.5829360 133.7121510 110.6748180  41.4626960 134.4383600 110.0629450
  41.2730250 132.9424420 110.1976090  57.0191250 141.8387900 124.0695230
  57.4950970 142.3170790 124.7484310  57.6398410 141.7705390 123.3440730
  39.2214730 136.8836650 116.4816820  39.2995150 137.0185420 115.5372540
  39.8356410 136.1752540 116.6744940  40.4662360 138.5836840 112.8923000
  40.0590440 138.7251430 112.0376600  41.3575370 138.2997000 112.6894210
  56.4224500 139.0300750 121.2295240  56.5487560 138.7912630 120.3112420
  56.4645880 138.1985290 121.7017320  50.2841240 142.7328750 119.7990050
  50.7985910 142.6436760 120.6012480  49.4410320 143.0788450 120.0917960
  52.2595640 143.0184090 109.2274050  52.0996780 142.7287030 110.1255880
  52.0942350 142.2424220 108.6919280  44.7384020 142.7982620 111.0045670
  44.5626500 141.8818160 110.7913470  43.8839760 143.1569910 111.2443470
  51.9621770 140.5271650 107.7872050  51.2686930 140.5248940 107.1274330
  52.7044630 140.1030970 107.3566220  51.5271700 142.1534360 111.8620540
  51.9828650 141.3723740 112.1759160  51.8664220 142.8641180 112.4061720
  56.2748510 131.0833210 122.1944980  55.6592780 131.5912880 121.6660440
  55.9544930 130.1831540 122.1370920  39.2774250 137.9250820 119.0211280
  39.4405290 137.4556180 118.2030650  39.7426700 137.4174380 119.6860120
  44.0493020 127.0556580 114.0571850  43.6061170 127.8366120 113.7256370
  44.6078010 127.3786470 114.7642790  48.3362830 129.9225100 119.6607170
  47.8742200 130.1308120 120.4727110  47.9340940 129.1084450 119.3577840
  53.3367340 131.1434050 120.7903830  52.4860930 130.8439800 121.1112900
  53.1769130 131.3876060 119.8787650  50.4317050 132.6435800 122.8902620
  50.7570460 131.8099550 122.5504850  51.2197380 133.1664320 123.0380950
  47.1651840 126.6767280 108.9377680  46.5406020 126.6727150 109.6630990
  47.0781960 125.8098240 108.5413650  46.0868920 127.6003910 115.9161450
  46.3841250 128.5066740 115.8353470  46.6354480 127.1122690 115.3021020
  43.8407240 132.1790150 111.7853100  43.6148160 131.9627320 112.6899720
  43.0599770 132.6118610 111.4399070  51.0705000 132.1853520 110.3843750
  50.4713890 132.9089320 110.2007370  51.6184610 132.1230300 109.6020200
  46.2806450 133.0775730 122.4513370  46.1850050 132.1370460 122.3013770
  47.1238430 133.2990800 122.0561440  49.6769870 130.8217060 112.4147030
  50.0699440 131.1389260 111.6015720  50.0386720 129.9428940 112.5291550
  41.4116990 129.4889400 120.6047150  41.0180380 130.3364610 120.8119930
  40.7235390 128.8515770 120.7955790  47.9862040 129.5724370 123.6743890
  47.2960360 129.3796570 124.3089980  48.7294340 129.8559010 124.2068190
  38.7134040 127.4117860 114.6377230  38.4247090 127.9820720 115.3502210
  39.4579800 126.9322310 115.0008460  38.9004270 131.3537980 105.8479950
  38.8178940 132.2968740 105.9894940  38.5487330 131.2112890 104.9692300
  50.2625010 133.4122810 116.5097810  49.5306130 133.9209620 116.8587910
  49.8649350 132.5952790 116.2086590  46.7002400 130.0877010 114.9150300
  46.7038460 129.6466960 114.0654840  47.5953520 130.4094340 115.0222120
  42.5504780 129.9703500 113.8744510  42.2104830 130.4478730 114.6311560
  41.7882100 129.5168620 113.5145610  46.7622550 131.0889090 107.9057060
  46.8835370 131.0475570 108.8542880  46.3771060 131.9513240 107.7503790
  50.7250920 128.8656490 115.9220750  50.7423660 129.3165140 116.7662600
  50.4766500 127.9662130 116.1354190  45.7744050 133.3990230 107.3040360
  45.2060950 132.9508480 106.6776270  46.4833050 133.7583010 106.7705510
  54.1521670 126.2788670 121.7607130  54.4767440 125.5478330 122.2865110
  54.1878180 125.9602310 120.8588120  40.8513230 137.3002250 121.1807090
  40.4668020 136.6595920 121.7790050  41.1625420 138.0038370 121.7501820
  47.0010370 134.1478790 116.6615710  47.3680500 133.6737360 117.4077050
  46.8115430 135.0220360 117.0024050  39.8650860 128.8922480 112.7909180
  39.5797780 128.5278150 113.6287800  39.8029720 128.1602940 112.1772320
  44.7909740 133.1887430 118.9799920  44.4866810 134.0679410 119.2050280
  45.7456200 133.2487220 119.0157360  43.3191530 137.3948420 109.5766770
  42.5453790 136.8546040 109.4165490  44.0486160 136.8755030 109.2384530
  54.0779510 136.3913780 115.3693160  54.7978630 136.8869070 114.9789270
  53.8761330 135.7131670 114.7247030  49.5389450 127.7851740 109.5122550
  48.7254060 127.2864910 109.4367860  49.3451400 128.6249990 109.0958900
  49.4598310 136.4622840 121.2562160  49.3935620 135.5418510 121.0019750
  48.8303450 136.5598280 121.9706800  52.2537840 132.1571390 107.8084710
  53.1417460 132.4688620 107.6336050  52.2242930 131.2843640 107.4165290
  43.3628930 137.0628800 113.2145580  43.8807600 136.2597060 113.1602470
  42.9112950 137.0007940 114.0562410  48.2498430 138.3295080 108.4872880
  48.5914130 139.0737310 107.9916200  47.4211140 138.6426200 108.8497710
  40.8473470 134.0290170 120.1271280  40.4888410 134.6944020 120.7144620
  40.5528030 133.1973720 120.4983900  44.0486590 134.4874410 123.0110830
  43.7486730 134.6331590 122.1138650  44.8197830 133.9279700 122.9184220
  49.3915040 139.2843410 121.0065960  49.4059580 138.3524370 120.7884870
  48.6840140 139.3703170 121.6455730  54.5252110 133.4683230 107.2764570
  54.4415830 133.8997450 106.4261010  55.2446300 133.9281580 107.7091390
  55.6026250 135.9250750 120.3534540  54.8774440 136.5179530 120.1563930
  56.1301710 135.9174290 119.5547910  55.5539360 140.3225490 110.0046700
  54.9115520 139.6681110 110.2790420  55.1670020 140.7280580 109.2287370
  51.1325840 137.6510920 113.8518390  51.4849660 137.0539050 113.1919760
  50.2488170 137.3255150 114.0226640  47.2189120 138.4108610 111.2588800
  47.9060250 138.9577820 111.6396390  46.4321540 138.9549340 111.2938410
  39.3581520 134.0281430 106.7505880  40.2276370 134.3106230 107.0341800
  38.8671840 134.8417300 106.6354690  46.5216330 135.4154640 110.8714160
  46.9779110 136.2259890 111.0974350  46.1704540 135.0977780 111.7032650
  48.8248940 140.9260980 118.1006460  49.4691160 141.1320360 118.7779880
  49.1878380 140.1649380 117.6477310  42.4228110 125.7592290 111.3436680
  42.2942740 125.7510190 112.2921600  41.5990130 126.0975380 110.9927690
  50.0981020 138.9293330 116.8183910  50.7403250 138.2286490 116.9316080
  50.6230370 139.7091770 116.6380800  53.9436740 139.2141950 106.5423050
  53.7174320 138.4972390 107.1347690  53.5532940 138.9654390 105.7044800
  51.8718640 139.7288230 120.0219970  52.2074880 140.3154920 120.6997890
  50.9518980 139.5980940 120.2517760  39.7252770 143.2408810 107.3167510
  40.0850410 143.8398150 106.6624780  39.5845110 143.7868700 108.0902540
  39.4222040 127.5183410 120.8043380  38.7080560 127.7180330 121.4095990
  39.8417080 126.7422980 121.1758180  53.5252990 137.1313890 108.2037210
  53.2374690 137.5926580 108.9915090  54.3205160 136.6711660 108.4721430
  39.7094630 141.5063670 121.7909910  39.8185750 140.5658410 121.6505300
  39.0575190 141.7718420 121.1423640  47.7007220 139.7779560 123.1908030
  47.3804090 139.0588800 123.7353720  47.0265580 140.4534630 123.2644090
  45.7421390 140.6240010 108.1341180  45.7331490 141.3569700 107.5185690
  44.8219750 140.3771590 108.2268140  41.3428030 135.8454900 108.8787940
  40.7355980 136.5853800 108.8883240  41.8177380 135.9354260 108.0526140
  50.9160820 130.0105720 118.5544830  51.2841640 129.1900930 118.8824400
  50.0559020 130.0707610 118.9700480  54.2822850 128.9662660 109.3632390
  53.6536010 129.0708330 108.6490620  53.7874770 129.1859440 110.1526270
  48.7280990 140.6868250 106.7966370  48.8292970 140.4832240 105.8668350
  47.8282730 140.4326530 107.0014150  46.2506880 131.2448610 110.7790270
  45.5423030 131.7134950 111.2203880  46.5351360 130.5870620 111.4135460
  47.8762810 132.6645310 118.7782800  48.3748060 133.1391130 119.4434650
  48.0185760 131.7408830 118.9852830  50.2822310 127.9699270 112.2186060
  50.1590090 127.9885400 111.2695570  51.2306870 128.0178210 112.3384460
  47.3699100 143.2054570 111.4914040  47.6240600 143.1675960 110.5693410
  46.4211580 143.0787900 111.4842290  44.4541900 129.5533690 108.1540980
  45.3032430 129.9903840 108.0881170  44.0873170 129.8653950 108.9813040
  55.0829670 128.8813270 119.6211190  54.5803270 129.6218670 119.9605000
  55.8986330 129.2697270 119.3047980  53.3751680 134.1246450 113.0672550
  52.4341820 134.1396680 113.2420240  53.6895750 133.3382410 113.5132850
  43.3533320 135.8066050 106.6276510  44.1196590 135.6947410 107.1901940
  43.4308010 135.1104020 105.9753280  42.0480080 133.2391120 107.3109400
  42.1283670 132.2918630 107.4226800  42.9399830 133.5698000 107.4170060
  55.3777260 141.2955300 114.7426810  55.5024680 142.1186470 115.2150620
  56.2442820 141.0846030 114.3950960  42.8494790 143.3886510 114.4143940
  43.5857270 142.8401970 114.6852510  43.2335710 144.2542520 114.2749930
  39.7340270 139.4560080 110.2885450  38.8080050 139.6981220 110.2790860
  40.1996700 140.2834340 110.1670200  41.8553070 142.5732580 123.6029520
  42.6565800 142.8944630 124.0164920  41.3404890 142.2128160 124.3249430
  45.9597100 142.5616820 106.2369510  46.7525710 142.8505650 105.7851300
  45.4401450 142.1308990 105.5581990  50.6917700 138.6812450 123.5504930
  50.0855860 138.7044050 122.8100680  50.3871810 137.9495490 124.0872180
  52.1218070 142.4092740 122.1614340  53.0739820 142.3250760 122.1114580
  51.9746290 143.0734450 122.8348130  55.0127270 141.7886950 107.6606250
  54.7268780 141.3752090 106.8460430  54.8146820 142.7174660 107.5406770
  39.5750880 135.0606040 122.5465570  40.0789900 134.4813320 123.1181800
  38.8358300 135.3446270 123.0841940  46.4774500 137.7820230 106.1011860
  46.3725140 137.1672580 106.8273240  46.3098720 137.2586120 105.3174870
  46.6288820 136.4677030 122.0801090  45.8634490 137.0362030 121.9955760
  46.8104780 136.1753240 121.1869320  49.7177230 136.8440260 106.7053850
  49.1687330 137.2909560 107.3496590  50.3396490 136.3389510 107.2291520
  53.7712170 138.1982360 122.6376110  54.5121640 138.5358120 122.1343570
  53.0084850 138.3674420 122.0845880  41.6073960 133.2035630 123.4415640
  41.6479300 132.9049500 124.3500870  42.4619460 133.6043240 123.2823160
  45.3852350 135.8031180 108.6019150  45.8068770 135.6371050 109.4450540
  45.5103190 134.9931410 108.1074290  43.5479770 131.7827730 121.4090130
  43.0176230 131.2918680 120.7813470  44.2167840 132.2111930 120.8748060
  47.8979990 134.8268790 105.8496250  48.4185650 134.1117810 105.4837400
  48.5448390 135.4654660 106.1496760  52.4457830 136.2497190 121.1731320
  52.8598850 136.4042270 122.0221740  51.5108830 136.3752410 121.3357100
  52.9180000 133.5893350 123.1770470  53.5000770 132.8345670 123.0890950
  53.0941770 134.1200790 122.4001950  44.0352070 128.7490100 121.4887420
  43.9408940 128.1310850 120.7638290  43.4549460 129.4756390 121.2617330
  46.8013510 127.3063340 118.5214810  46.3530810 127.3287600 117.6760360
  46.1678710 126.9082360 119.1185110  47.2073060 136.2017670 119.1427250
  47.6261170 137.0450400 118.9703490  46.2881690 136.3389710 118.9134030
  49.5436960 133.9333850 120.5265090  49.6633170 133.3374990 121.2659930
  50.4030960 133.9703540 120.1066390  51.8824860 134.4871040 119.1027600
  51.3560080 135.0113660 118.4992740  52.2256200 135.1198430 119.7337330
  44.2811250 131.8764410 105.5477310  44.0800310 131.0131770 105.9090650
  44.1103300 131.7897770 104.6098910  45.0580480 142.5070680 120.2584980
  44.5201570 143.2316740 119.9393680  45.3114440 142.0301020 119.4682320
  46.3105730 130.4755200 121.7840910  46.9005420 130.1671050 122.4718730
  45.4925970 130.0034950 121.9400810  51.1299160 130.0921010 122.0173930
  50.4414680 129.4302550 121.9523920  51.8505180 129.6459280 122.4622390
  47.9142690 143.7421890 120.5171630  47.8401390 144.6457030 120.8244000
  47.0121530 143.4233790 120.4893700  46.2978980 127.9199650 106.5211390
  45.9500980 127.2423640 105.9413840  46.4991750 127.4589160 107.3354780
  48.4628020 142.9080400 108.1397990  49.3578810 143.2465370 108.1616750
  48.4945650 142.1859810 107.5122270  42.1024180 138.2807450 106.3684990
  42.5399050 138.8237120 107.0242570  42.5871910 137.4554400 106.3781330
  39.3169980 141.0696480 113.8205250  39.6472990 140.2017540 113.5883890
  39.7460980 141.2755000 114.6510210  43.9131900 139.4005490 111.4807220
  43.6127440 139.2770460 112.3811130  43.8069390 138.5414080 111.0722950
  39.8060190 141.9367070 116.5586880  39.3691180 142.1167870 117.3911030
  40.3737870 142.6941690 116.4168600  55.4422370 141.4384070 120.8464190
  54.8424360 141.4976630 120.1028110  55.5716270 140.4989050 120.9761040
  56.6823820 139.1801890 106.1833900  55.8516780 139.2478540 106.6541130
  56.8595650 140.0706010 105.8800760  56.1380280 135.9249370 108.6868100
  56.8999190 136.4946020 108.7927790  56.1534650 135.3576570 109.4576410
  39.6384620 134.4487300 112.9175760  38.9833460 134.1798940 112.2735460
  40.4762570 134.3391780 112.4677740  57.1440250 136.7799470 113.5310030
  57.5149080 135.9966790 113.1246000  57.7842180 137.4688570 113.3527330
  54.1274010 138.1636050 118.9440350  53.3133850 138.5933210 119.2066140
  54.5348210 138.7754460 118.3309400  56.1899450 136.2183740 105.8440620
  56.4648290 137.1262620 105.7159840  56.0010190 136.1546270 106.7802610
  52.5875060 129.2428590 107.1394250  53.0059940 129.0559570 106.2990910
  52.2811120 128.3907640 107.4497180  56.0864790 134.1552730 110.8370050
  55.7108390 133.3880660 110.4051340  55.3567910 134.5375430 111.3244980
  40.6760550 134.8339870 117.4579100  41.0433590 134.7467270 118.3375120
  40.1071370 134.0706420 117.3585960  55.4764410 133.3024250 120.4709570
  55.2450500 133.0737000 119.5707520  55.7368960 134.2223800 120.4254460
  40.2276550 131.7448960 121.3637520  39.3332600 131.7115720 121.7031230
  40.7674100 131.9435750 122.1288770  53.9152480 128.5280680 123.2489270
  54.7922660 128.5364080 123.6323270  53.9273320 127.7911520 122.6381620
  38.8522700 131.6586230 108.8601090  37.9486780 131.9216430 108.6852750
  39.3363320 131.9297400 108.0801050  55.3615750 132.3810220 114.1377290
  55.8853230 131.8872870 113.5067460  55.9475170 132.5160580 114.8824860
  55.5405470 132.4650090 117.6596840  54.5908180 132.4313630 117.7741830
  55.7218480 133.3750200 117.4246610  41.3949910 130.7151770 106.7695470
  42.1041610 130.2934990 106.2842750  40.6789850 130.7827000 106.1378820
  54.8515720 131.6383570 110.0769700  55.3474840 131.4054440 110.8618580
  54.6531790 130.7995410 109.6607340  40.7316260 126.0197290 115.7120740
  41.3792450 125.4694670 115.2715900  41.1518100 126.2740440 116.5336550
  56.2802880 130.2744520 112.6107380  56.1702160 130.1200560 113.5489650
  57.0410470 129.7465460 112.3682790  54.6268600 126.2138650 119.0690380
  55.2640820 126.8272790 119.4349570  54.7743490 126.2499310 118.1239610
  57.1693150 128.1052440 105.8513520  58.0942460 127.9733620 105.6431810
  57.1468940 128.1845260 106.8049970  57.2431640 128.8763100 108.4770230
  56.4483140 128.8108220 109.0063140  57.4474920 129.8113740 108.4655580
  54.1850060 142.9154650 112.4708620  54.7809130 142.5939220 111.7943040
  54.4428210 142.4426470 113.2621890  40.4848260 126.1752960 118.4546060
  40.1363080 126.6316780 119.2204240  40.1535960 125.2810090 118.5368490
  42.0912630 139.3472560 122.6199250  42.0482260 138.9765470 123.5013710
  42.2223640 140.2850130 122.7601070  45.7918660 140.9032150 118.2208970
  45.5510020 141.1706710 117.3339490  46.7321300 141.0737880 118.2759830
  47.9973080 127.3664840 121.9765480  47.9361970 127.9586670 122.7260890
  48.9373460 127.2590800 121.8315740  50.6347640 127.0234900 121.6157770
  51.2488050 127.3414190 120.9538850  51.1797200 126.5383490 122.2353630
  57.0522820 142.9226530 119.0219610  56.5581100 143.3195400 118.3046740
  56.4436110 142.2975740 119.4156890  41.1568900 125.7029160 121.7296830
  41.7051890 125.5217210 120.9662940  41.2224210 124.9123270 122.2653140
  41.9300660 142.2934810 119.7397030  41.3360980 142.1619510 120.4787070
  41.9224500 141.4572950 119.2739130  51.3755680 125.5867040 117.9427060
  50.5015520 125.9202150 117.7399990  51.2666430 125.1140220 118.7678930
  52.2827660 127.7937910 119.3268780  51.9541020 126.9789670 118.9470510
  53.2309960 127.7507720 119.2034470  54.7362270 143.5649950 116.3006350
  54.2765240 144.3165760 115.9264370  54.1074730 142.8456420 116.2421150
  41.5612890 139.6593190 118.6905070  40.8346950 139.0398480 118.6231020
  41.6222040 140.0533800 117.8203150  45.1657990 141.8738190 115.4754480
  45.6823010 141.2625550 114.9502740  45.8155370 142.3766970 115.9665490
  47.9053490 142.7646680 116.3023460  48.1931300 142.5100980 115.4256470
  48.4176710 142.2124040 116.8929030  49.1230500 126.5036880 116.8819970
  48.3402290 126.9782380 117.1616730  48.8293430 125.5991710 116.7733150
  53.6751570 127.2059980 114.9269060  54.1159660 127.1505080 114.0790660
  53.4059160 128.1217990 114.9979240  55.5390140 126.8375220 112.9377880
  55.4778540 125.8936440 112.7908900  56.3182170 126.9455310 113.4831340
  39.8442890 142.9767580 111.9001830  39.6764930 142.3438260 112.5983720
  38.9777400 143.1826980 111.5496020  40.4670910 126.8084360 109.4033690
  41.2250270 126.9213240 108.8297720  40.0048080 127.6453560 109.3577120
  47.0084720 128.9223630 112.3936000  46.1959230 128.5480520 112.0531880
  47.5126360 128.1668710 112.6957190  51.5109700 125.5866080 113.6319070
  52.1139070 126.1586290 114.1067590  50.7702690 126.1505520 113.4092970
  54.6544300 125.9887640 108.9059350  54.8494930 126.8871090 109.1726780
  53.8674170 125.7574720 109.3992300  41.4505590 141.6700810 109.3451970
  40.9253210 142.0508840 108.6413930  41.3750170 142.2951580 110.0661680
  42.8396060 127.3348410 107.9435660  43.3688820 126.5478210 107.8143610
  43.4724380 128.0139600 108.1771190  45.0333900 127.0723550 110.9981050
  44.4036640 126.3710860 111.1651180  44.4939040 127.8327680 110.7814210
  47.9725850 143.6862780 123.6691660  48.8993160 143.4507050 123.7127620
  47.9576280 144.5134780 123.1877690  56.2070910 143.2288350 110.6665910
  56.3823100 142.5426090 110.0226830  55.5092480 143.7535400 110.2742580
  45.1589460 126.3507530 123.4333540  44.8773730 126.8541130 122.6694360
  45.5409160 125.5529280 123.0675670  44.0498560 143.6183190 108.2201220
  44.7817380 143.3342470 107.6725110  44.3092230 143.3796470 109.1100600
  43.2113350 139.7347920 108.2247550  42.5822230 140.2033020 108.7733380
  43.3261180 138.8897140 108.6593740  51.7604920 125.7661110 124.0114010
  51.6470370 126.0855720 124.9065530  52.5774660 126.1673620 123.7151290
  54.5403410 142.9132640 123.4932700  55.3328730 142.4181870 123.2858660
  54.8336560 143.5922780 124.1008310  48.7981110 135.5632600  96.2558020
  48.0223210 135.0833040  96.5456590  49.4494040 134.8838250  96.0814180
  42.8146940 135.8752410  97.1333780  41.9831820 135.6201120  97.5330290
  43.4227920 135.9463180  97.8691700  52.8188540 139.9692790  95.0357150
  52.3570070 139.1980030  95.3644320  53.6314090 139.9958860  95.5409600
  42.7948200 139.9092500  97.3291800  43.0976240 139.0190240  97.1502020
  43.5391790 140.4662720  97.1014050  41.2238890 130.8354300  90.9176170
  40.3355590 131.1770270  90.8156050  41.5080080 130.6354620  90.0257000
  39.1871900 133.4359950  96.8015870  39.7588010 132.6682150  96.8019510
  39.1873440 133.7348710  95.8922480  49.0451850 142.2550800  94.6561140
  48.4263290 142.7108300  94.0855580  49.9003630 142.4102260  94.2550840
  48.2390100 138.2389790  96.2628180  48.1698380 137.2979730  96.1017310
  49.0009960 138.3291200  96.8350750  43.4000280 129.4185800  91.9514550
  43.5067030 130.3189530  92.2583310  42.4892640 129.3703770  91.6609200
  41.0483440 131.3404810  97.1967140  41.7293550 131.6043180  97.8154540
  40.7331490 130.5005680  97.5305150  45.2408010 132.3872170  96.2839730
  45.7486230 132.8853140  96.9244750  45.7721250 131.6107370  96.1079090
  49.9115200 137.1390040  92.0493050  49.2932470 137.6039490  91.4855770
  50.4238450 137.8317520  92.4662560  44.7746960 136.6665910  98.7276650
  44.4416340 137.2934830  99.3697720  44.9513640 137.1927790  97.9478320
  53.2880870 130.4810990  96.1952990  52.5836440 130.7695880  96.7756100
  53.6493030 131.2911100  95.8352550  43.9866060 138.6346710 100.5425830
  44.6040060 139.3097790 100.2610280  43.1259180 139.0434690 100.4513330
  39.2798400 137.8246570  89.4232680  38.9026380 138.3133670  88.6917580
  39.5371470 138.4971850  90.0539210  54.9043650 140.0986120  98.4580470
  54.2207170 140.7685230  98.4497140  55.4437940 140.2966770  97.6925330
  56.3567790 129.9265780  96.5862200  55.4092700 129.9604760  96.7177630
  56.6817780 130.7404730  96.9711560  52.4402390 141.9430250  97.1725650
  52.4529550 141.5392540  96.3047910  51.8877610 142.7177540  97.0687080
  51.8387830 136.8460090  98.5008260  52.2556620 136.6320200  97.6661720
  52.5627650 137.1032880  99.0716880  44.8824730 134.8176530  94.3998040
  44.4781730 134.1053780  93.9043940  44.9687850 134.4729770  95.2886080
  45.3506430 138.5044090  96.5637250  45.0534720 137.8989560  95.8845030
  46.3006250 138.5421400  96.4526610  43.5953350 131.5919740  98.1797080
  44.1467940 131.7015080  97.4050330  44.1096860 131.9657340  98.8952310
  53.4392040 142.0775960 100.2260350  52.9622600 142.8848150 100.0332960
  52.7553830 141.4254290 100.3786560  44.4424860 138.2425780 103.2145050
  43.5453390 138.4665750 103.4618450  44.4677730 138.3660720 102.2656450
  43.2696080 135.1139100 101.7902420  43.1303850 135.9861900 102.1589820
  42.3877440 134.7711910 101.6450360  49.5925460 140.0314970  93.0967550
  50.0321370 140.7739300  92.6822940  49.5312350 140.2741540  94.0206510
  45.0676430 141.0560800 103.9987570  45.0391860 141.4603750 103.1316000
  44.9041400 140.1271160 103.8359170  41.5829360 133.7121510  91.9004690
  41.4626960 134.4383600  91.2885960  41.2730250 132.9424420  91.4232600
  57.0191250 141.8387900 105.2951740  57.4950970 142.3170790 105.9740820
  57.6398410 141.7705390 104.5697240  39.2214730 136.8836650  97.7073330
  39.2995150 137.0185420  96.7629050  39.8356410 136.1752540  97.9001450
  40.4662360 138.5836840  94.1179510  40.0590440 138.7251430  93.2633110
  41.3575370 138.2997000  93.9150720  50.2841240 142.7328750 101.0246560
  50.7985910 142.6436760 101.8268990  49.4410320 143.0788450 101.3174470
  52.2595640 143.0184090  90.4530560  52.0996780 142.7287030  91.3512390
  52.0942350 142.2424220  89.9175790  44.7384020 142.7982620  92.2302180
  44.5626500 141.8818160  92.0169980  43.8839760 143.1569910  92.4699980
  51.9621770 140.5271650  89.0128560  51.2686930 140.5248940  88.3530840
  52.7044630 140.1030970  88.5822730  51.5271700 142.1534360  93.0877050
  51.9828650 141.3723740  93.4015670  51.8664220 142.8641180  93.6318230
  39.2774250 137.9250820 100.2467790  39.4405290 137.4556180  99.4287160
  39.7426700 137.4174380 100.9116630  44.0493020 127.0556580  95.2828360
  43.6061170 127.8366120  94.9512880  44.6078010 127.3786470  95.9899300
  50.4317050 132.6435800 104.1159130  50.7570460 131.8099550 103.7761360
  51.2197380 133.1664320 104.2637460  47.1651840 126.6767280  90.1634190
  46.5406020 126.6727150  90.8887500  47.0781960 125.8098240  89.7670160
  46.0868920 127.6003910  97.1417960  46.3841250 128.5066740  97.0609980
  46.6354480 127.1122690  96.5277530  43.8407240 132.1790150  93.0109610
  43.6148160 131.9627320  93.9156230  43.0599770 132.6118610  92.6655580
  46.2806450 133.0775730 103.6769880  46.1850050 132.1370460 103.5270280
  47.1238430 133.2990800 103.2817950  49.6769870 130.8217060  93.6403540
  50.0699440 131.1389260  92.8272230  50.0386720 129.9428940  93.7548060
  47.9862040 129.5724370 104.9000400  47.2960360 129.3796570 105.5346490
  48.7294340 129.8559010 105.4324700  38.9004270 131.3537980  87.0736460
  38.8178940 132.2968740  87.2151450  38.5487330 131.2112890  86.1948810
  42.5504780 129.9703500  95.1001020  42.2104830 130.4478730  95.8568070
  41.7882100 129.5168620  94.7402120  46.7622550 131.0889090  89.1313570
  46.8835370 131.0475570  90.0799390  46.3771060 131.9513240  88.9760300
  54.1521670 126.2788670 102.9863640  54.4767440 125.5478330 103.5121620
  54.1878180 125.9602310 102.0844630  40.8513230 137.3002250 102.4063600
  40.4668020 136.6595920 103.0046560  41.1625420 138.0038370 102.9758330
  47.0010370 134.1478790  97.8872220  47.3680500 133.6737360  98.6333560
  46.8115430 135.0220360  98.2280560  39.8650860 128.8922480  94.0165690
  39.5797780 128.5278150  94.8544310  39.8029720 128.1602940  93.4028830
  44.7909740 133.1887430 100.2056430  44.4866810 134.0679410 100.4306790
  45.7456200 133.2487220 100.2413870  43.3191530 137.3948420  90.8023280
  42.5453790 136.8546040  90.6422000  44.0486160 136.8755030  90.4641040
  54.0779510 136.3913780  96.5949670  54.7978630 136.8869070  96.2045780
  53.8761330 135.7131670  95.9503540  49.5389450 127.7851740  90.7379060
  48.7254060 127.2864910  90.6624370  49.3451400 128.6249990  90.3215410
  49.4598310 136.4622840 102.4818670  49.3935620 135.5418510 102.2276260
  48.8303450 136.5598280 103.1963310  43.3628930 137.0628800  94.4402090
  43.8807600 136.2597060  94.3858980  42.9112950 137.0007940  95.2818920
  48.2498430 138.3295080  89.7129390  48.5914130 139.0737310  89.2172710
  47.4211140 138.6426200  90.0754220  40.8473470 134.0290170 101.3527790
  40.4888410 134.6944020 101.9401130  40.5528030 133.1973720 101.7240410
  44.0486590 134.4874410 104.2367340  43.7486730 134.6331590 103.3395160
  44.8197830 133.9279700 104.1440730  49.3915040 139.2843410 102.2322470
  49.4059580 138.3524370 102.0141380  48.6840140 139.3703170 102.8712240
  55.5539360 140.3225490  91.2303210  54.9115520 139.6681110  91.5046930
  55.1670020 140.7280580  90.4543880  51.1325840 137.6510920  95.0774900
  51.4849660 137.0539050  94.4176270  50.2488170 137.3255150  95.2483150
  47.2189120 138.4108610  92.4845310  47.9060250 138.9577820  92.8652900
  46.4321540 138.9549340  92.5194920  39.3581520 134.0281430  87.9762390
  40.2276370 134.3106230  88.2598310  38.8671840 134.8417300  87.8611200
  46.5216330 135.4154640  92.0970670  46.9779110 136.2259890  92.3230860
  46.1704540 135.0977780  92.9289160  48.8248940 140.9260980  99.3262970
  49.4691160 141.1320360 100.0036390  49.1878380 140.1649380  98.8733820
  42.4228110 125.7592290  92.5693190  42.2942740 125.7510190  93.5178110
  41.5990130 126.0975380  92.2184200  50.0981020 138.9293330  98.0440420
  50.7403250 138.2286490  98.1572590  50.6230370 139.7091770  97.8637310
  53.9436740 139.2141950  87.7679560  53.7174320 138.4972390  88.3604200
  53.5532940 138.9654390  86.9301310  51.8718640 139.7288230 101.2476480
  52.2074880 140.3154920 101.9254400  50.9518980 139.5980940 101.4774270
  39.7252770 143.2408810  88.5424020  40.0850410 143.8398150  87.8881290
  39.5845110 143.7868700  89.3159050  39.7094630 141.5063670 103.0166420
  39.8185750 140.5658410 102.8761810  39.0575190 141.7718420 102.3680150
  47.7007220 139.7779560 104.4164540  47.3804090 139.0588800 104.9610230
  47.0265580 140.4534630 104.4900600  45.7421390 140.6240010  89.3597690
  45.7331490 141.3569700  88.7442200  44.8219750 140.3771590  89.4524650
  41.3428030 135.8454900  90.1044450  40.7355980 136.5853800  90.1139750
  41.8177380 135.9354260  89.2782650  48.7280990 140.6868250  88.0222880
  48.8292970 140.4832240  87.0924860  47.8282730 140.4326530  88.2270660
  46.2506880 131.2448610  92.0046780  45.5423030 131.7134950  92.4460390
  46.5351360 130.5870620  92.6391970  50.2822310 127.9699270  93.4442570
  50.1590090 127.9885400  92.4952080  51.2306870 128.0178210  93.5640970
  47.3699100 143.2054570  92.7170550  47.6240600 143.1675960  91.7949920
  46.4211580 143.0787900  92.7098800  44.4541900 129.5533690  89.3797490
  45.3032430 129.9903840  89.3137680  44.0873170 129.8653950  90.2069550
  55.0829670 128.8813270 100.8467700  54.5803270 129.6218670 101.1861510
  55.8986330 129.2697270 100.5304490  55.3777260 141.2955300  95.9683320
  55.5024680 142.1186470  96.4407130  56.2442820 141.0846030  95.6207470
  42.8494790 143.3886510  95.6400450  43.5857270 142.8401970  95.9109020
  43.2335710 144.2542520  95.5006440  39.7340270 139.4560080  91.5141960
  38.8080050 139.6981220  91.5047370  40.1996700 140.2834340  91.3926710
  41.8553070 142.5732580 104.8286030  42.6565800 142.8944630 105.2421430
  41.3404890 142.2128160 105.5505940  45.9597100 142.5616820  87.4626020
  46.7525710 142.8505650  87.0107810  45.4401450 142.1308990  86.7838500
  50.6917700 138.6812450 104.7761440  50.0855860 138.7044050 104.0357190
  50.3871810 137.9495490 105.3128690  52.1218070 142.4092740 103.3870850
  53.0739820 142.3250760 103.3371090  51.9746290 143.0734450 104.0604640
  55.0127270 141.7886950  88.8862760  54.7268780 141.3752090  88.0716940
  54.8146820 142.7174660  88.7663280  39.5750880 135.0606040 103.7722080
  40.0789900 134.4813320 104.3438310  38.8358300 135.3446270 104.3098450
  46.4774500 137.7820230  87.3268370  46.3725140 137.1672580  88.0529750
  46.3098720 137.2586120  86.5431380  46.6288820 136.4677030 103.3057600
  45.8634490 137.0362030 103.2212270  46.8104780 136.1753240 102.4125830
  53.7712170 138.1982360 103.8632620  54.5121640 138.5358120 103.3600080
  53.0084850 138.3674420 103.3102390  41.6073960 133.2035630 104.6672150
  41.6479300 132.9049500 105.5757380  42.4619460 133.6043240 104.5079670
  45.3852350 135.8031180  89.8275660  45.8068770 135.6371050  90.6707050
  45.5103190 134.9931410  89.3330800  43.5479770 131.7827730 102.6346640
  43.0176230 131.2918680 102.0069980  44.2167840 132.2111930 102.1004570
  52.9180000 133.5893350 104.4026980  53.5000770 132.8345670 104.3147460
  53.0941770 134.1200790 103.6258460  47.2073060 136.2017670 100.3683760
  47.6261170 137.0450400 100.1960000  46.2881690 136.3389710 100.1390540
  49.5436960 133.9333850 101.7521600  49.6633170 133.3374990 102.4916440
  50.4030960 133.9703540 101.3322900  45.0580480 142.5070680 101.4841490
  44.5201570 143.2316740 101.1650190  45.3114440 142.0301020 100.6938830
  46.3105730 130.4755200 103.0097420  46.9005420 130.1671050 103.6975240
  45.4925970 130.0034950 103.1657320  47.9142690 143.7421890 101.7428140
  47.8401390 144.6457030 102.0500510  47.0121530 143.4233790 101.7150210
  46.2978980 127.9199650  87.7467900  45.9500980 127.2423640  87.1670350
  46.4991750 127.4589160  88.5611290  48.4628020 142.9080400  89.3654500
  49.3578810 143.2465370  89.3873260  48.4945650 142.1859810  88.7378780
  42.1024180 138.2807450  87.5941500  42.5399050 138.8237120  88.2499080
  42.5871910 137.4554400  87.6037840  39.3169980 141.0696480  95.0461760
  39.6472990 140.2017540  94.8140400  39.7460980 141.2755000  95.8766720
  43.9131900 139.4005490  92.7063730  43.6127440 139.2770460  93.6067640
  43.8069390 138.5414080  92.2979460  39.8060190 141.9367070  97.7843390
  39.3691180 142.1167870  98.6167540  40.3737870 142.6941690  97.6425110
  55.4422370 141.4384070 102.0720700  54.8424360 141.4976630 101.3284620
  55.5716270 140.4989050 102.2017550  56.6823820 139.1801890  87.4090410
  55.8516780 139.2478540  87.8797640  56.8595650 140.0706010  87.1057270
  39.6384620 134.4487300  94.1432270  38.9833460 134.1798940  93.4991970
  40.4762570 134.3391780  93.6934250  40.6760550 134.8339870  98.6835610
  41.0433590 134.7467270  99.5631630  40.1071370 134.0706420  98.5842470
  40.2276550 131.7448960 102.5894030  39.3332600 131.7115720 102.9287740
  40.7674100 131.9435750 103.3545280  53.9152480 128.5280680 104.4745780
  54.7922660 128.5364080 104.8579780  53.9273320 127.7911520 103.8638130
  38.8522700 131.6586230  90.0857600  37.9486780 131.9216430  89.9109260
  39.3363320 131.9297400  89.3057560  55.3615750 132.3810220  95.3633800
  55.8853230 131.8872870  94.7323970  55.9475170 132.5160580  96.1081370
  41.0424070 126.7691100  87.0354630  41.7652200 127.3100040  87.3535850
  41.3148590 126.4954520  86.1596170  56.2802880 130.2744520  93.8363890
  56.1702160 130.1200560  94.7746160  57.0410470 129.7465460  93.5939300
  54.6268600 126.2138650 100.2946890  55.2640820 126.8272790 100.6606080
  54.7743490 126.2499310  99.3496120  54.1850060 142.9154650  93.6965130
  54.7809130 142.5939220  93.0199550  54.4428210 142.4426470  94.4878400
  42.0912630 139.3472560 103.8455760  42.0482260 138.9765470 104.7270220
  42.2223640 140.2850130 103.9857580  45.7918660 140.9032150  99.4465480
  45.5510020 141.1706710  98.5596000  46.7321300 141.0737880  99.5016340
  57.0522820 142.9226530 100.2476120  56.5581100 143.3195400  99.5303250
  56.4436110 142.2975740 100.6413400  41.9300660 142.2934810 100.9653540
  41.3360980 142.1619510 101.7043580  41.9224500 141.4572950 100.4995640
  54.7362270 143.5649950  97.5262860  54.2765240 144.3165760  97.1520880
  54.1074730 142.8456420  97.4677660  41.5612890 139.6593190  99.9161580
  40.8346950 139.0398480  99.8487530  41.6222040 140.0533800  99.0459660
  45.1657990 141.8738190  96.7010990  45.6823010 141.2625550  96.1759250
  45.8155370 142.3766970  97.1922000  47.9053490 142.7646680  97.5279970
  48.1931300 142.5100980  96.6512980  48.4176710 142.2124040  98.1185540
  39.8442890 142.9767580  93.1258340  39.6764930 142.3438260  93.8240230
  38.9777400 143.1826980  92.7752530  40.4670910 126.8084360  90.6290200
  41.2250270 126.9213240  90.0554230  40.0048080 127.6453560  90.5833630
  47.0084720 128.9223630  93.6192510  46.1959230 128.5480520  93.2788390
  47.5126360 128.1668710  93.9213700  41.4505590 141.6700810  90.5708480
  40.9253210 142.0508840  89.8670440  41.3750170 142.2951580  91.2918190
  42.8396060 127.3348410  89.1692170  43.3688820 126.5478210  89.0400120
  43.4724380 128.0139600  89.4027700  45.0333900 127.0723550  92.2237560
  44.4036640 126.3710860  92.3907690  44.4939040 127.8327680  92.0070720
  47.9725850 143.6862780 104.8948170  48.8993160 143.4507050 104.9384130
  47.9576280 144.5134780 104.4134200  56.2070910 143.2288350  91.8922420
  56.3823100 142.5426090  91.2483340  55.5092480 143.7535400  91.4999090
  45.1589460 126.3507530 104.6590050  44.8773730 126.8541130 103.8950870
  45.5409160 125.5529280 104.2932180  44.0498560 143.6183190  89.4457730
  44.7817380 143.3342470  88.8981620  44.3092230 143.3796470  90.3357110
  43.2113350 139.7347920  89.4504060  42.5822230 140.2033020  89.9989890
  43.3261180 138.8897140  89.8850250  54.5403410 142.9132640 104.7189210
  55.3328730 142.4181870 104.5115170  54.8336560 143.5922780 105.3264820
  48.7981110 135.5632600  77.4814530  48.0223210 135.0833040  77.7713100
  49.4494040 134.8838250  77.3070690  42.8146940 135.8752410  78.3590290
  41.9831820 135.6201120  78.7586800  43.4227920 135.9463180  79.0948210
  52.8188540 139.9692790  76.2613660  52.3570070 139.1980030  76.5900830
  53.6314090 139.9958860  76.7666110  42.7948200 139.9092500  78.5548310
  43.0976240 139.0190240  78.3758530  43.5391790 140.4662720  78.3270560
  41.2238890 130.8354300  72.1432680  40.3355590 131.1770270  72.0412560
  41.5080080 130.6354620  71.2513510  39.1871900 133.4359950  78.0272380
  39.7588010 132.6682150  78.0276020  39.1873440 133.7348710  77.1178990
  49.0451850 142.2550800  75.8817650  48.4263290 142.7108300  75.3112090
  49.9003630 142.4102260  75.4807350  48.2390100 138.2389790  77.4884690
  48.1698380 137.2979730  77.3273820  49.0009960 138.3291200  78.0607260
  40.4296770 128.8444310  79.8141310  40.2499610 127.9470060  80.0944070
  40.0276850 129.3916180  80.4888260  49.2695270 131.0460170  77.7153620
  49.6460090 130.1732050  77.6027290  49.1714780 131.3818870  76.8244060
  43.4000280 129.4185800  73.1771060  43.5067030 130.3189530  73.4839820
  42.4892640 129.3703770  72.8865710  53.0519390 128.5410610  74.6481960
  53.8729010 128.0507180  74.6907440  53.0853470 129.1308270  75.4013800
  41.0483440 131.3404810  78.4223650  41.7293550 131.6043180  79.0411050
  40.7331490 130.5005680  78.7561660  45.2408010 132.3872170  77.5096240
  45.7486230 132.8853140  78.1501260  45.7721250 131.6107370  77.3335600
  49.9115200 137.1390040  73.2749560  49.2932470 137.6039490  72.7112280
  50.4238450 137.8317520  73.6919070  39.2798400 137.8246570  70.6489190
  38.9026380 138.3133670  69.9174090  39.5371470 138.4971850  71.2795720
  54.9043650 140.0986120  79.6836980  54.2207170 140.7685230  79.6753650
  55.4437940 140.2966770  78.9181840  52.4402390 141.9430250  78.3982160
  52.4529550 141.5392540  77.5304420  51.8877610 142.7177540  78.2943590
  51.8387830 136.8460090  79.7264770  52.2556620 136.6320200  78.8918230
  52.5627650 137.1032880  80.2973390  49.2768090 134.2911790  72.8434820
  48.3497370 134.2249170  73.0723290  49.4292910 135.2291920  72.7290060
  49.2637170 130.5628790  69.8401980  48.3240840 130.7242750  69.9254440
  49.5820430 131.2814470  69.2937970  44.8824730 134.8176530  75.6254550
  44.4781730 134.1053780  75.1300450  44.9687850 134.4729770  76.5142590
  45.3506430 138.5044090  77.7893760  45.0534720 137.8989560  77.1101540
  46.3006250 138.5421400  77.6783120  43.5953350 131.5919740  79.4053590
  44.1467940 131.7015080  78.6306840  44.1096860 131.9657340  80.1208820
  53.4392040 142.0775960  81.4516860  52.9622600 142.8848150  81.2589470
  52.7553830 141.4254290  81.6043070  44.4424860 138.2425780  84.4401560
  43.5453390 138.4665750  84.6874960  44.4677730 138.3660720  83.4912960
  51.4830080 135.0918900  70.3542820  51.9223360 134.2541330  70.2080640
  52.1958500 135.7248300  70.4406960  49.5925460 140.0314970  74.3224060
  50.0321370 140.7739300  73.9079450  49.5312350 140.2741540  75.2463020
  45.0676430 141.0560800  85.2244080  45.0391860 141.4603750  84.3572510
  44.9041400 140.1271160  85.0615680  55.0647220 126.3461710  68.6683860
  54.7519880 126.4388540  69.5682930  55.8259690 126.9242740  68.6181290
  41.5829360 133.7121510  73.1261200  41.4626960 134.4383600  72.5142470
  41.2730250 132.9424420  72.6489110  57.0191250 141.8387900  86.5208250
  57.4950970 142.3170790  87.1997330  57.6398410 141.7705390  85.7953750
  39.2214730 136.8836650  78.9329840  39.2995150 137.0185420  77.9885560
  39.8356410 136.1752540  79.1257960  40.4662360 138.5836840  75.3436020
  40.0590440 138.7251430  74.4889620  41.3575370 138.2997000  75.1407230
  56.4224500 139.0300750  83.6808260  56.5487560 138.7912630  82.7625440
  56.4645880 138.1985290  84.1530340  50.2841240 142.7328750  82.2503070
  50.7985910 142.6436760  83.0525500  49.4410320 143.0788450  82.5430980
  52.2595640 143.0184090  71.6787070  52.0996780 142.7287030  72.5768900
  52.0942350 142.2424220  71.1432300  44.7384020 142.7982620  73.4558690
  44.5626500 141.8818160  73.2426490  43.8839760 143.1569910  73.6956490
  51.9621770 140.5271650  70.2385070  51.2686930 140.5248940  69.5787350
  52.7044630 140.1030970  69.8079240  51.5271700 142.1534360  74.3133560
  51.9828650 141.3723740  74.6272180  51.8664220 142.8641180  74.8574740
  39.2774250 137.9250820  81.4724300  39.4405290 137.4556180  80.6543670
  39.7426700 137.4174380  82.1373140  47.1651840 126.6767280  71.3890700
  46.5406020 126.6727150  72.1144010  47.0781960 125.8098240  70.9926670
  43.8407240 132.1790150  74.2366120  43.6148160 131.9627320  75.1412740
  43.0599770 132.6118610  73.8912090  51.0705000 132.1853520  72.8356770
  50.4713890 132.9089320  72.6520390  51.6184610 132.1230300  72.0533220
  49.6769870 130.8217060  74.8660050  50.0699440 131.1389260  74.0528740
  50.0386720 129.9428940  74.9804570  41.4116990 129.4889400  83.0560170
  41.0180380 130.3364610  83.2632950  40.7235390 128.8515770  83.2468810
  38.7134040 127.4117860  77.0890250  38.4247090 127.9820720  77.8015230
  39.4579800 126.9322310  77.4521480  38.9004270 131.3537980  68.2992970
  38.8178940 132.2968740  68.4407960  38.5487330 131.2112890  67.4205320
  46.7002400 130.0877010  77.3663320  46.7038460 129.6466960  76.5167860
  47.5953520 130.4094340  77.4735140  42.5504780 129.9703500  76.3257530
  42.2104830 130.4478730  77.0824580  41.7882100 129.5168620  75.9658630
  46.7622550 131.0889090  70.3570080  46.8835370 131.0475570  71.3055900
  46.3771060 131.9513240  70.2016810  45.7744050 133.3990230  69.7553380
  45.2060950 132.9508480  69.1289290  46.4833050 133.7583010  69.2218530
  54.1521670 126.2788670  84.2120150  54.4767440 125.5478330  84.7378130
  54.1878180 125.9602310  83.3101140  40.8513230 137.3002250  83.6320110
  40.4668020 136.6595920  84.2303070  41.1625420 138.0038370  84.2014840
  39.8650860 128.8922480  75.2422200  39.5797780 128.5278150  76.0800820
  39.8029720 128.1602940  74.6285340  43.3191530 137.3948420  72.0279790
  42.5453790 136.8546040  71.8678510  44.0486160 136.8755030  71.6897550
  49.5389450 127.7851740  71.9635570  48.7254060 127.2864910  71.8880880
  49.3451400 128.6249990  71.5471920  52.2537840 132.1571390  70.2597730
  53.1417460 132.4688620  70.0849070  52.2242930 131.2843640  69.8678310
  43.3628930 137.0628800  75.6658600  43.8807600 136.2597060  75.6115490
  42.9112950 137.0007940  76.5075430  48.2498430 138.3295080  70.9385900
  48.5914130 139.0737310  70.4429220  47.4211140 138.6426200  71.3010730
  40.8473470 134.0290170  82.5784300  40.4888410 134.6944020  83.1657640
  40.5528030 133.1973720  82.9496920  49.3915040 139.2843410  83.4578980
  49.4059580 138.3524370  83.2397890  48.6840140 139.3703170  84.0968750
  51.1325840 137.6510920  76.3031410  51.4849660 137.0539050  75.6432780
  50.2488170 137.3255150  76.4739660  47.2189120 138.4108610  73.7101820
  47.9060250 138.9577820  74.0909410  46.4321540 138.9549340  73.7451430
  39.3581520 134.0281430  69.2018900  40.2276370 134.3106230  69.4854820
  38.8671840 134.8417300  69.0867710  46.5216330 135.4154640  73.3227180
  46.9779110 136.2259890  73.5487370  46.1704540 135.0977780  74.1545670
  48.8248940 140.9260980  80.5519480  49.4691160 141.1320360  81.2292900
  49.1878380 140.1649380  80.0990330  50.0981020 138.9293330  79.2696930
  50.7403250 138.2286490  79.3829100  50.6230370 139.7091770  79.0893820
  51.8718640 139.7288230  82.4732990  52.2074880 140.3154920  83.1510910
  50.9518980 139.5980940  82.7030780  39.7252770 143.2408810  69.7680530
  40.0850410 143.8398150  69.1137800  39.5845110 143.7868700  70.5415560
  39.4222040 127.5183410  83.2556400  38.7080560 127.7180330  83.8609010
  39.8417080 126.7422980  83.6271200  39.7094630 141.5063670  84.2422930
  39.8185750 140.5658410  84.1018320  39.0575190 141.7718420  83.5936660
  47.7007220 139.7779560  85.6421050  47.3804090 139.0588800  86.1866740
  47.0265580 140.4534630  85.7157110  45.7421390 140.6240010  70.5854200
  45.7331490 141.3569700  69.9698710  44.8219750 140.3771590  70.6781160
  41.3428030 135.8454900  71.3300960  40.7355980 136.5853800  71.3396260
  41.8177380 135.9354260  70.5039160  54.2822850 128.9662660  71.8145410
  53.6536010 129.0708330  71.1003640  53.7874770 129.1859440  72.6039290
  48.7280990 140.6868250  69.2479390  48.8292970 140.4832240  68.3181370
  47.8282730 140.4326530  69.4527170  46.2506880 131.2448610  73.2303290
  45.5423030 131.7134950  73.6716900  46.5351360 130.5870620  73.8648480
  50.2822310 127.9699270  74.6699080  50.1590090 127.9885400  73.7208590
  51.2306870 128.0178210  74.7897480  47.3699100 143.2054570  73.9427060
  47.6240600 143.1675960  73.0206430  46.4211580 143.0787900  73.9355310
  44.4541900 129.5533690  70.6054000  45.3032430 129.9903840  70.5394190
  44.0873170 129.8653950  71.4326060  43.3533320 135.8066050  69.0789530
  44.1196590 135.6947410  69.6414960  43.4308010 135.1104020  68.4266300
  42.0480080 133.2391120  69.7622420  42.1283670 132.2918630  69.8739820
  42.9399830 133.5698000  69.8683080  55.3777260 141.2955300  77.1939830
  55.5024680 142.1186470  77.6663640  56.2442820 141.0846030  76.8463980
  42.8494790 143.3886510  76.8656960  43.5857270 142.8401970  77.1365530
  43.2335710 144.2542520  76.7262950  39.7340270 139.4560080  72.7398470
  38.8080050 139.6981220  72.7303880  40.1996700 140.2834340  72.6183220
  41.8553070 142.5732580  86.0542540  42.6565800 142.8944630  86.4677940
  41.3404890 142.2128160  86.7762450  45.9597100 142.5616820  68.6882530
  46.7525710 142.8505650  68.2364320  45.4401450 142.1308990  68.0095010
  50.6917700 138.6812450  86.0017950  50.0855860 138.7044050  85.2613700
  50.3871810 137.9495490  86.5385200  52.1218070 142.4092740  84.6127360
  53.0739820 142.3250760  84.5627600  51.9746290 143.0734450  85.2861150
  46.4774500 137.7820230  68.5524880  46.3725140 137.1672580  69.2786260
  46.3098720 137.2586120  67.7687890  49.7177230 136.8440260  69.1566870
  49.1687330 137.2909560  69.8009610  50.3396490 136.3389510  69.6804540
  53.7712170 138.1982360  85.0889130  54.5121640 138.5358120  84.5856590
  53.0084850 138.3674420  84.5358900  45.3852350 135.8031180  71.0532170
  45.8068770 135.6371050  71.8963560  45.5103190 134.9931410  70.5587310
  47.8979990 134.8268790  68.3009270  48.4185650 134.1117810  67.9350420
  48.5448390 135.4654660  68.6009780  44.2811250 131.8764410  67.9990330
  44.0800310 131.0131770  68.3603670  44.1103300 131.7897770  67.0611930
  45.0580480 142.5070680  82.7098000  44.5201570 143.2316740  82.3906700
  45.3114440 142.0301020  81.9195340  51.1299160 130.0921010  84.4686950
  50.4414680 129.4302550  84.4036940  51.8505180 129.6459280  84.9135410
  51.7599560 126.6872640  70.5277210  52.0401850 125.8440540  70.8836630
  50.9865290 126.9195750  71.0415960  47.9142690 143.7421890  82.9684650
  47.8401390 144.6457030  83.2757020  47.0121530 143.4233790  82.9406720
  46.2978980 127.9199650  68.9724410  45.9500980 127.2423640  68.3926860
  46.4991750 127.4589160  69.7867800  48.4628020 142.9080400  70.5911010
  49.3578810 143.2465370  70.6129770  48.4945650 142.1859810  69.9635290
  42.1024180 138.2807450  68.8198010  42.5399050 138.8237120  69.4755590
  42.5871910 137.4554400  68.8294350  39.3169980 141.0696480  76.2718270
  39.6472990 140.2017540  76.0396910  39.7460980 141.2755000  77.1023230
  43.9131900 139.4005490  73.9320240  43.6127440 139.2770460  74.8324150
  43.8069390 138.5414080  73.5235970  39.8060190 141.9367070  79.0099900
  39.3691180 142.1167870  79.8424050  40.3737870 142.6941690  78.8681620
  55.4422370 141.4384070  83.2977210  54.8424360 141.4976630  82.5541130
  55.5716270 140.4989050  83.4274060  39.6384620 134.4487300  75.3688780
  38.9833460 134.1798940  74.7248480  40.4762570 134.3391780  74.9190760
  54.1274010 138.1636050  81.3953370  53.3133850 138.5933210  81.6579160
  54.5348210 138.7754460  80.7822420  52.5875060 129.2428590  69.5907270
  53.0059940 129.0559570  68.7503930  52.2811120 128.3907640  69.9010200
  40.6760550 134.8339870  79.9092120  41.0433590 134.7467270  80.7888140
  40.1071370 134.0706420  79.8098980  38.8522700 131.6586230  71.3114110
  37.9486780 131.9216430  71.1365770  39.3363320 131.9297400  70.5314070
  41.3949910 130.7151770  69.2208490  42.1041610 130.2934990  68.7355770
  40.6789850 130.7827000  68.5891840  54.8515720 131.6383570  72.5282720
  55.3474840 131.4054440  73.3131600  54.6531790 130.7995410  72.1120360
  56.2802880 130.2744520  75.0620400  56.1702160 130.1200560  76.0002670
  57.0410470 129.7465460  74.8195810  54.6268600 126.2138650  81.5203400
  55.2640820 126.8272790  81.8862590  54.7743490 126.2499310  80.5752630
  57.1693150 128.1052440  68.3026540  58.0942460 127.9733620  68.0944830
  57.1468940 128.1845260  69.2562990  57.2431640 128.8763100  70.9283250
  56.4483140 128.8108220  71.4576160  57.4474920 129.8113740  70.9168600
  54.1850060 142.9154650  74.9221640  54.7809130 142.5939220  74.2456060
  54.4428210 142.4426470  75.7134910  42.0912630 139.3472560  85.0712270
  42.0482260 138.9765470  85.9526730  42.2223640 140.2850130  85.2114090
  45.7918660 140.9032150  80.6721990  45.5510020 141.1706710  79.7852510
  46.7321300 141.0737880  80.7272850  47.9973080 127.3664840  84.4278500
  47.9361970 127.9586670  85.1773910  48.9373460 127.2590800  84.2828760
  50.6347640 127.0234900  84.0670790  51.2488050 127.3414190  83.4051870
  51.1797200 126.5383490  84.6866650  57.0522820 142.9226530  81.4732630
  56.5581100 143.3195400  80.7559760  56.4436110 142.2975740  81.8669910
  41.1568900 125.7029160  84.1809850  41.7051890 125.5217210  83.4175960
  41.2224210 124.9123270  84.7166160  41.9300660 142.2934810  82.1910050
  41.3360980 142.1619510  82.9300090  41.9224500 141.4572950  81.7252150
  54.7362270 143.5649950  78.7519370  54.2765240 144.3165760  78.3777390
  54.1074730 142.8456420  78.6934170  41.5612890 139.6593190  81.1418090
  40.8346950 139.0398480  81.0744040  41.6222040 140.0533800  80.2716170
  45.1657990 141.8738190  77.9267500  45.6823010 141.2625550  77.4015760
  45.8155370 142.3766970  78.4178510  47.9053490 142.7646680  78.7536480
  48.1931300 142.5100980  77.8769490  48.4176710 142.2124040  79.3442050
  55.5390140 126.8375220  75.3890900  55.4778540 125.8936440  75.2421920
  56.3182170 126.9455310  75.9344360  39.8442890 142.9767580  74.3514850
  39.6764930 142.3438260  75.0496740  38.9777400 143.1826980  74.0009040
  40.4670910 126.8084360  71.8546710  41.2250270 126.9213240  71.2810740
  40.0048080 127.6453560  71.8090140  47.0084720 128.9223630  74.8449020
  46.1959230 128.5480520  74.5044900  47.5126360 128.1668710  75.1470210
  54.6544300 125.9887640  71.3572370  54.8494930 126.8871090  71.6239800
  53.8674170 125.7574720  71.8505320  41.4505590 141.6700810  71.7964990
  40.9253210 142.0508840  71.0926950  41.3750170 142.2951580  72.5174700
  42.8396060 127.3348410  70.3948680  43.3688820 126.5478210  70.2656630
  43.4724380 128.0139600  70.6284210  45.0333900 127.0723550  73.4494070
  44.4036640 126.3710860  73.6164200  44.4939040 127.8327680  73.2327230
  47.9725850 143.6862780  86.1204680  48.8993160 143.4507050  86.1640640
  47.9576280 144.5134780  85.6390710  44.0498560 143.6183190  70.6714240
  44.7817380 143.3342470  70.1238130  44.3092230 143.3796470  71.5613620
  43.2113350 139.7347920  70.6760570  42.5822230 140.2033020  71.2246400
  43.3261180 138.8897140  71.1106760  54.5403410 142.9132640  85.9445720
  55.3328730 142.4181870  85.7371680  54.8336560 143.5922780  86.5521330
  50.6663070 133.7853580  56.8261770  50.5857120 132.8708190  56.5553480
  50.2527490 134.2820650  56.1201480  48.7981110 135.5632600  58.7071040
  48.0223210 135.0833040  58.9969610  49.4494040 134.8838250  58.5327200
  42.8146940 135.8752410  59.5846800  41.9831820 135.6201120  59.9843310
  43.4227920 135.9463180  60.3204720  52.8188540 139.9692790  57.4870170
  52.3570070 139.1980030  57.8157340  53.6314090 139.9958860  57.9922620
  42.7948200 139.9092500  59.7804820  43.0976240 139.0190240  59.6015040
  43.5391790 140.4662720  59.5527070  41.2238890 130.8354300  53.3689190
  40.3355590 131.1770270  53.2669070  41.5080080 130.6354620  52.4770020
  39.1871900 133.4359950  59.2528890  39.7588010 132.6682150  59.2532530
  39.1873440 133.7348710  58.3435500  49.0451850 142.2550800  57.1074160
  48.4263290 142.7108300  56.5368600  49.9003630 142.4102260  56.7063860
  48.2390100 138.2389790  58.7141200  48.1698380 137.2979730  58.5530330
  49.0009960 138.3291200  59.2863770  40.4296770 128.8444310  61.0397820
  40.2499610 127.9470060  61.3200580  40.0276850 129.3916180  61.7144770
  43.4000280 129.4185800  54.4027570  43.5067030 130.3189530  54.7096330
  42.4892640 129.3703770  54.1122220  53.0519390 128.5410610  55.8738470
  53.8729010 128.0507180  55.9163950  53.0853470 129.1308270  56.6270310
  41.0483440 131.3404810  59.6480160  41.7293550 131.6043180  60.2667560
  40.7331490 130.5005680  59.9818170  57.3418940 130.5577360  62.4382100
  56.6371110 130.9459070  61.9197210  57.6076860 131.2527650  63.0403030
  43.5244110 127.0270730  63.0016170  43.5262550 127.5443120  62.1962070
  42.6948420 126.5500910  62.9786100  49.9115200 137.1390040  54.5006070
  49.2932470 137.6039490  53.9368790  50.4238450 137.8317520  54.9175580
  44.7746960 136.6665910  61.1789670  44.4416340 137.2934830  61.8210740
  44.9513640 137.1927790  60.3991340  43.2059440 128.7380690  61.0086620
  43.5476250 129.5822740  60.7140490  42.2675250 128.8864430  61.1251960
  43.9866060 138.6346710  62.9938850  44.6040060 139.3097790  62.7123300
  43.1259180 139.0434690  62.9026350  39.2798400 137.8246570  51.8745700
  38.9026380 138.3133670  51.1430600  39.5371470 138.4971850  52.5052230
  54.9043650 140.0986120  60.9093490  54.2207170 140.7685230  60.9010160
  55.4437940 140.2966770  60.1438350  56.3567790 129.9265780  59.0375220
  55.4092700 129.9604760  59.1690650  56.6817780 130.7404730  59.4224580
  52.4402390 141.9430250  59.6238670  52.4529550 141.5392540  58.7560930
  51.8877610 142.7177540  59.5200100  53.7347810 138.6646470  54.7128840
  53.6244140 137.7220800  54.8378260  53.7316060 139.0262110  55.5991600
  51.8387830 136.8460090  60.9521280  52.2556620 136.6320200  60.1174740
  52.5627650 137.1032880  61.5229900  49.2768090 134.2911790  54.0691330
  48.3497370 134.2249170  54.2979800  49.4292910 135.2291920  53.9546570
  49.2637170 130.5628790  51.0658490  48.3240840 130.7242750  51.1510950
  49.5820430 131.2814470  50.5194480  55.7849930 135.2447310  61.0437520
  54.9568560 135.3140400  60.5687650  56.3800410 135.8301620  60.5753350
  53.3065380 135.8532090  54.5726580  52.6877800 135.5151640  53.9252880
  53.2889830 135.2091850  55.2805770  52.7491940 132.0316630  61.9892390
  52.3363120 132.8570340  62.2432380  52.0167890 131.4461670  61.7968750
  44.8824730 134.8176530  56.8511060  44.4781730 134.1053780  56.3556960
  44.9687850 134.4729770  57.7399100  45.3506430 138.5044090  59.0150270
  45.0534720 137.8989560  58.3358050  46.3006250 138.5421400  58.9039630
  53.4392040 142.0775960  62.6773370  52.9622600 142.8848150  62.4845980
  52.7553830 141.4254290  62.8299580  44.4424860 138.2425780  65.6658070
  43.5453390 138.4665750  65.9131470  44.4677730 138.3660720  64.7169470
  51.4830080 135.0918900  51.5799330  51.9223360 134.2541330  51.4337150
  52.1958500 135.7248300  51.6663470  49.5925460 140.0314970  55.5480570
  50.0321370 140.7739300  55.1335960  49.5312350 140.2741540  56.4719530
  45.0676430 141.0560800  66.4500590  45.0391860 141.4603750  65.5829020
  44.9041400 140.1271160  66.2872190  41.5829360 133.7121510  54.3517710
  41.4626960 134.4383600  53.7398980  41.2730250 132.9424420  53.8745620
  57.0191250 141.8387900  67.7464760  57.4950970 142.3170790  68.4253840
  57.6398410 141.7705390  67.0210260  39.2214730 136.8836650  60.1586350
  39.2995150 137.0185420  59.2142070  39.8356410 136.1752540  60.3514470
  40.4662360 138.5836840  56.5692530  40.0590440 138.7251430  55.7146130
  41.3575370 138.2997000  56.3663740  50.2841240 142.7328750  63.4759580
  50.7985910 142.6436760  64.2782010  49.4410320 143.0788450  63.7687490
  52.2595640 143.0184090  52.9043580  52.0996780 142.7287030  53.8025410
  52.0942350 142.2424220  52.3688810  44.7384020 142.7982620  54.6815200
  44.5626500 141.8818160  54.4683000  43.8839760 143.1569910  54.9213000
  51.9621770 140.5271650  51.4641580  51.2686930 140.5248940  50.8043860
  52.7044630 140.1030970  51.0335750  51.5271700 142.1534360  55.5390070
  51.9828650 141.3723740  55.8528690  51.8664220 142.8641180  56.0831250
  56.2748510 131.0833210  65.8714510  55.6592780 131.5912880  65.3429970
  55.9544930 130.1831540  65.8140450  39.2774250 137.9250820  62.6980810
  39.4405290 137.4556180  61.8800180  39.7426700 137.4174380  63.3629650
  53.3367340 131.1434050  64.4673360  52.4860930 130.8439800  64.7882430
  53.1769130 131.3876060  63.5557180  50.4317050 132.6435800  66.5672150
  50.7570460 131.8099550  66.2274380  51.2197380 133.1664320  66.7150480
  47.1651840 126.6767280  52.6147210  46.5406020 126.6727150  53.3400520
  47.0781960 125.8098240  52.2183180  46.0868920 127.6003910  59.5930980
  46.3841250 128.5066740  59.5123000  46.6354480 127.1122690  58.9790550
  43.8407240 132.1790150  55.4622630  43.6148160 131.9627320  56.3669250
  43.0599770 132.6118610  55.1168600  51.0705000 132.1853520  54.0613280
  50.4713890 132.9089320  53.8776900  51.6184610 132.1230300  53.2789730
  49.6769870 130.8217060  56.0916560  50.0699440 131.1389260  55.2785250
  50.0386720 129.9428940  56.2061080  41.4116990 129.4889400  64.2816680
  41.0180380 130.3364610  64.4889460  40.7235390 128.8515770  64.4725320
  47.9862040 129.5724370  67.3513420  47.2960360 129.3796570  67.9859510
  48.7294340 129.8559010  67.8837720  38.9004270 131.3537980  49.5249480
  38.8178940 132.2968740  49.6664470  38.5487330 131.2112890  48.6461830
  42.5504780 129.9703500  57.5514040  42.2104830 130.4478730  58.3081090
  41.7882100 129.5168620  57.1915140  46.7622550 131.0889090  51.5826590
  46.8835370 131.0475570  52.5312410  46.3771060 131.9513240  51.4273320
  50.7250920 128.8656490  59.5990280  50.7423660 129.3165140  60.4432130
  50.4766500 127.9662130  59.8123720  45.7744050 133.3990230  50.9809890
  45.2060950 132.9508480  50.3545800  46.4833050 133.7583010  50.4475040
  54.1521670 126.2788670  65.4376660  54.4767440 125.5478330  65.9634640
  54.1878180 125.9602310  64.5357650  40.8513230 137.3002250  64.8576620
  40.4668020 136.6595920  65.4559580  41.1625420 138.0038370  65.4271350
  39.8650860 128.8922480  56.4678710  39.5797780 128.5278150  57.3057330
  39.8029720 128.1602940  55.8541850  43.3191530 137.3948420  53.2536300
  42.5453790 136.8546040  53.0935020  44.0486160 136.8755030  52.9154060
  54.0779510 136.3913780  59.0462690  54.7978630 136.8869070  58.6558800
  53.8761330 135.7131670  58.4016560  49.5389450 127.7851740  53.1892080
  48.7254060 127.2864910  53.1137390  49.3451400 128.6249990  52.7728430
  49.4598310 136.4622840  64.9331690  49.3935620 135.5418510  64.6789280
  48.8303450 136.5598280  65.6476330  43.3628930 137.0628800  56.8915110
  43.8807600 136.2597060  56.8372000  42.9112950 137.0007940  57.7331940
  48.2498430 138.3295080  52.1642410  48.5914130 139.0737310  51.6685730
  47.4211140 138.6426200  52.5267240  40.8473470 134.0290170  63.8040810
  40.4888410 134.6944020  64.3914150  40.5528030 133.1973720  64.1753430
  44.0486590 134.4874410  66.6880360  43.7486730 134.6331590  65.7908180
  44.8197830 133.9279700  66.5953750  49.3915040 139.2843410  64.6835490
  49.4059580 138.3524370  64.4654400  48.6840140 139.3703170  65.3225260
  54.5252110 133.4683230  50.9534100  54.4415830 133.8997450  50.1030540
  55.2446300 133.9281580  51.3860920  55.6026250 135.9250750  64.0304070
  54.8774440 136.5179530  63.8333460  56.1301710 135.9174290  63.2317440
  55.5539360 140.3225490  53.6816230  54.9115520 139.6681110  53.9559950
  55.1670020 140.7280580  52.9056900  51.1325840 137.6510920  57.5287920
  51.4849660 137.0539050  56.8689290  50.2488170 137.3255150  57.6996170
  47.2189120 138.4108610  54.9358330  47.9060250 138.9577820  55.3165920
  46.4321540 138.9549340  54.9707940  39.3581520 134.0281430  50.4275410
  40.2276370 134.3106230  50.7111330  38.8671840 134.8417300  50.3124220
  46.5216330 135.4154640  54.5483690  46.9779110 136.2259890  54.7743880
  46.1704540 135.0977780  55.3802180  48.8248940 140.9260980  61.7775990
  49.4691160 141.1320360  62.4549410  49.1878380 140.1649380  61.3246840
  42.4228110 125.7592290  55.0206210  42.2942740 125.7510190  55.9691130
  41.5990130 126.0975380  54.6697220  50.0981020 138.9293330  60.4953440
  50.7403250 138.2286490  60.6085610  50.6230370 139.7091770  60.3150330
  53.9436740 139.2141950  50.2192580  53.7174320 138.4972390  50.8117220
  53.5532940 138.9654390  49.3814330  51.8718640 139.7288230  63.6989500
  52.2074880 140.3154920  64.3767420  50.9518980 139.5980940  63.9287290
  39.7252770 143.2408810  50.9937040  40.0850410 143.8398150  50.3394310
  39.5845110 143.7868700  51.7672070  39.4222040 127.5183410  64.4812910
  38.7080560 127.7180330  65.0865520  39.8417080 126.7422980  64.8527710
  53.5252990 137.1313890  51.8806740  53.2374690 137.5926580  52.6684620
  54.3205160 136.6711660  52.1490960  39.7094630 141.5063670  65.4679440
  39.8185750 140.5658410  65.3274830  39.0575190 141.7718420  64.8193170
  47.7007220 139.7779560  66.8677560  47.3804090 139.0588800  67.4123250
  47.0265580 140.4534630  66.9413620  45.7421390 140.6240010  51.8110710
  45.7331490 141.3569700  51.1955220  44.8219750 140.3771590  51.9037670
  41.3428030 135.8454900  52.5557470  40.7355980 136.5853800  52.5652770
  41.8177380 135.9354260  51.7295670  50.9160820 130.0105720  62.2314360
  51.2841640 129.1900930  62.5593930  50.0559020 130.0707610  62.6470010
  48.7280990 140.6868250  50.4735900  48.8292970 140.4832240  49.5437880
  47.8282730 140.4326530  50.6783680  46.2506880 131.2448610  54.4559800
  45.5423030 131.7134950  54.8973410  46.5351360 130.5870620  55.0904990
  50.2822310 127.9699270  55.8955590  50.1590090 127.9885400  54.9465100
  51.2306870 128.0178210  56.0153990  47.3699100 143.2054570  55.1683570
  47.6240600 143.1675960  54.2462940  46.4211580 143.0787900  55.1611820
  44.4541900 129.5533690  51.8310510  45.3032430 129.9903840  51.7650700
  44.0873170 129.8653950  52.6582570  55.0829670 128.8813270  63.2980720
  54.5803270 129.6218670  63.6374530  55.8986330 129.2697270  62.9817510
  43.3533320 135.8066050  50.3046040  44.1196590 135.6947410  50.8671470
  43.4308010 135.1104020  49.6522810  42.0480080 133.2391120  50.9878930
  42.1283670 132.2918630  51.0996330  42.9399830 133.5698000  51.0939590
  55.3777260 141.2955300  58.4196340  55.5024680 142.1186470  58.8920150
  56.2442820 141.0846030  58.0720490  42.8494790 143.3886510  58.0913470
  43.5857270 142.8401970  58.3622040  43.2335710 144.2542520  57.9519460
  39.7340270 139.4560080  53.9654980  38.8080050 139.6981220  53.9560390
  40.1996700 140.2834340  53.8439730  41.8553070 142.5732580  67.2799050
  42.6565800 142.8944630  67.6934450  41.3404890 142.2128160  68.0018960
  45.9597100 142.5616820  49.9139040  46.7525710 142.8505650  49.4620830
  45.4401450 142.1308990  49.2351520  50.6917700 138.6812450  67.2274460
  50.0855860 138.7044050  66.4870210  50.3871810 137.9495490  67.7641710
  52.1218070 142.4092740  65.8383870  53.0739820 142.3250760  65.7884110
  51.9746290 143.0734450  66.5117660  55.0127270 141.7886950  51.3375780
  54.7268780 141.3752090  50.5229960  54.8146820 142.7174660  51.2176300
  39.5750880 135.0606040  66.2235100  40.0789900 134.4813320  66.7951330
  38.8358300 135.3446270  66.7611470  46.4774500 137.7820230  49.7781390
  46.3725140 137.1672580  50.5042770  46.3098720 137.2586120  48.9944400
  46.6288820 136.4677030  65.7570620  45.8634490 137.0362030  65.6725290
  46.8104780 136.1753240  64.8638850  49.7177230 136.8440260  50.3823380
  49.1687330 137.2909560  51.0266120  50.3396490 136.3389510  50.9061050
  41.6073960 133.2035630  67.1185170  41.6479300 132.9049500  68.0270400
  42.4619460 133.6043240  66.9592690  45.3852350 135.8031180  52.2788680
  45.8068770 135.6371050  53.1220070  45.5103190 134.9931410  51.7843820
  47.8979990 134.8268790  49.5265780  48.4185650 134.1117810  49.1606930
  48.5448390 135.4654660  49.8266290  52.4457830 136.2497190  64.8500850
  52.8598850 136.4042270  65.6991270  51.5108830 136.3752410  65.0126630
  52.9180000 133.5893350  66.8540000  53.5000770 132.8345670  66.7660480
  53.0941770 134.1200790  66.0771480  46.8013510 127.3063340  62.1984340
  46.3530810 127.3287600  61.3529890  46.1678710 126.9082360  62.7954640
  47.2073060 136.2017670  62.8196780  47.6261170 137.0450400  62.6473020
  46.2881690 136.3389710  62.5903560  49.5436960 133.9333850  64.2034620
  49.6633170 133.3374990  64.9429460  50.4030960 133.9703540  63.7835920
  51.8824860 134.4871040  62.7797130  51.3560080 135.0113660  62.1762270
  52.2256200 135.1198430  63.4106860  44.2811250 131.8764410  49.2246840
  44.0800310 131.0131770  49.5860180  44.1103300 131.7897770  48.2868440
  45.0580480 142.5070680  63.9354510  44.5201570 143.2316740  63.6163210
  45.3114440 142.0301020  63.1451850  51.1299160 130.0921010  65.6943460
  50.4414680 129.4302550  65.6293450  51.8505180 129.6459280  66.1391920
  43.0794050 128.9765030  49.2124720  43.3819950 128.9832460  48.3043870
  43.8188640 128.6262890  49.7092380  47.9142690 143.7421890  64.1941160
  47.8401390 144.6457030  64.5013530  47.0121530 143.4233790  64.1663230
  46.2978980 127.9199650  50.1980920  45.9500980 127.2423640  49.6183370
  46.4991750 127.4589160  51.0124310  48.4628020 142.9080400  51.8167520
  49.3578810 143.2465370  51.8386280  48.4945650 142.1859810  51.1891800
  42.1024180 138.2807450  50.0454520  42.5399050 138.8237120  50.7012100
  42.5871910 137.4554400  50.0550860  39.3169980 141.0696480  57.4974780
  39.6472990 140.2017540  57.2653420  39.7460980 141.2755000  58.3279740
  43.9131900 139.4005490  55.1576750  43.6127440 139.2770460  56.0580660
  43.8069390 138.5414080  54.7492480  39.8060190 141.9367070  60.2356410
  39.3691180 142.1167870  61.0680560  40.3737870 142.6941690  60.0938130
  55.4422370 141.4384070  64.5233720  54.8424360 141.4976630  63.7797640
  55.5716270 140.4989050  64.6530570  56.6823820 139.1801890  49.8603430
  55.8516780 139.2478540  50.3310660  56.8595650 140.0706010  49.5570290
  56.1380280 135.9249370  52.3637630  56.8999190 136.4946020  52.4697320
  56.1534650 135.3576570  53.1345940  39.6384620 134.4487300  56.5945290
  38.9833460 134.1798940  55.9504990  40.4762570 134.3391780  56.1447270
  57.1440250 136.7799470  57.2079560  57.5149080 135.9966790  56.8015530
  57.7842180 137.4688570  57.0296860  54.1274010 138.1636050  62.6209880
  53.3133850 138.5933210  62.8835670  54.5348210 138.7754460  62.0078930
  56.1899450 136.2183740  49.5210150  56.4648290 137.1262620  49.3929370
  56.0010190 136.1546270  50.4572140  56.0864790 134.1552730  54.5139580
  55.7108390 133.3880660  54.0820870  55.3567910 134.5375430  55.0014510
  40.6760550 134.8339870  61.1348630  41.0433590 134.7467270  62.0144650
  40.1071370 134.0706420  61.0355490  55.4764410 133.3024250  64.1479100
  55.2450500 133.0737000  63.2477050  55.7368960 134.2223800  64.1023990
  40.2276550 131.7448960  65.0407050  39.3332600 131.7115720  65.3800760
  40.7674100 131.9435750  65.8058300  53.9152480 128.5280680  66.9258800
  54.7922660 128.5364080  67.3092800  53.9273320 127.7911520  66.3151150
  38.8522700 131.6586230  52.5370620  37.9486780 131.9216430  52.3622280
  39.3363320 131.9297400  51.7570580  55.5405470 132.4650090  61.3366370
  54.5908180 132.4313630  61.4511360  55.7218480 133.3750200  61.1016140
  41.3949910 130.7151770  50.4465000  42.1041610 130.2934990  49.9612280
  40.6789850 130.7827000  49.8148350  41.0424070 126.7691100  49.4867650
  41.7652200 127.3100040  49.8048870  41.3148590 126.4954520  48.6109190
  54.6268600 126.2138650  62.7459910  55.2640820 126.8272790  63.1119100
  54.7743490 126.2499310  61.8009140  54.1850060 142.9154650  56.1478150
  54.7809130 142.5939220  55.4712570  54.4428210 142.4426470  56.9391420
  40.4848260 126.1752960  62.1315590  40.1363080 126.6316780  62.8973770
  40.1535960 125.2810090  62.2138020  42.0912630 139.3472560  66.2968780
  42.0482260 138.9765470  67.1783240  42.2223640 140.2850130  66.4370600
  45.7918660 140.9032150  61.8978500  45.5510020 141.1706710  61.0109020
  46.7321300 141.0737880  61.9529360  47.9973080 127.3664840  65.6535010
  47.9361970 127.9586670  66.4030420  48.9373460 127.2590800  65.5085270
  50.6347640 127.0234900  65.2927300  51.2488050 127.3414190  64.6308380
  51.1797200 126.5383490  65.9123160  57.0522820 142.9226530  62.6989140
  56.5581100 143.3195400  61.9816270  56.4436110 142.2975740  63.0926420
  41.9300660 142.2934810  63.4166560  41.3360980 142.1619510  64.1556600
  41.9224500 141.4572950  62.9508660  51.3755680 125.5867040  61.6196590
  50.5015520 125.9202150  61.4169520  51.2666430 125.1140220  62.4448460
  52.2827660 127.7937910  63.0038310  51.9541020 126.9789670  62.6240040
  53.2309960 127.7507720  62.8804000  54.7362270 143.5649950  59.9775880
  54.2765240 144.3165760  59.6033900  54.1074730 142.8456420  59.9190680
  41.5612890 139.6593190  62.3674600  40.8346950 139.0398480  62.3000550
  41.6222040 140.0533800  61.4972680  45.1657990 141.8738190  59.1524010
  45.6823010 141.2625550  58.6272270  45.8155370 142.3766970  59.6435020
  47.9053490 142.7646680  59.9792990  48.1931300 142.5100980  59.1026000
  48.4176710 142.2124040  60.5698560  49.1230500 126.5036880  60.5589500
  48.3402290 126.9782380  60.8386260  48.8293430 125.5991710  60.4502680
  53.6751570 127.2059980  58.6038590  54.1159660 127.1505080  57.7560190
  53.4059160 128.1217990  58.6748770  55.5390140 126.8375220  56.6147410
  55.4778540 125.8936440  56.4678430  56.3182170 126.9455310  57.1600870
  39.8442890 142.9767580  55.5771360  39.6764930 142.3438260  56.2753250
  38.9777400 143.1826980  55.2265550  40.4670910 126.8084360  53.0803220
  41.2250270 126.9213240  52.5067250  40.0048080 127.6453560  53.0346650
  51.5109700 125.5866080  57.3088600  52.1139070 126.1586290  57.7837120
  50.7702690 126.1505520  57.0862500  54.6544300 125.9887640  52.5828880
  54.8494930 126.8871090  52.8496310  53.8674170 125.7574720  53.0761830
  41.4505590 141.6700810  53.0221500  40.9253210 142.0508840  52.3183460
  41.3750170 142.2951580  53.7431210  42.8396060 127.3348410  51.6205190
  43.3688820 126.5478210  51.4913140  43.4724380 128.0139600  51.8540720
  47.9725850 143.6862780  67.3461190  48.8993160 143.4507050  67.3897150
  47.9576280 144.5134780  66.8647220  56.2070910 143.2288350  54.3435440
  56.3823100 142.5426090  53.6996360  55.5092480 143.7535400  53.9512110
  44.0498560 143.6183190  51.8970750  44.7817380 143.3342470  51.3494640
  44.3092230 143.3796470  52.7870130  43.2113350 139.7347920  51.9017080
  42.5822230 140.2033020  52.4502910  43.3261180 138.8897140  52.3363270
  51.7604920 125.7661110  67.6883540  51.6470370 126.0855720  68.5835060
  52.5774660 126.1673620  67.3920820  54.5403410 142.9132640  67.1702230
  55.3328730 142.4181870  66.9628190  54.8336560 143.5922780  67.7777840
  50.6663070 133.7853580  38.0518280  50.5857120 132.8708190  37.7809990
  50.2527490 134.2820650  37.3457990  48.7981110 135.5632600  39.9327550
  48.0223210 135.0833040  40.2226120  49.4494040 134.8838250  39.7583710
  42.8146940 135.8752410  40.8103310  41.9831820 135.6201120  41.2099820
  43.4227920 135.9463180  41.5461230  52.8188540 139.9692790  38.7126680
  52.3570070 139.1980030  39.0413850  53.6314090 139.9958860  39.2179130
  42.7948200 139.9092500  41.0061330  43.0976240 139.0190240  40.8271550
  43.5391790 140.4662720  40.7783580  41.2238890 130.8354300  34.5945700
  40.3355590 131.1770270  34.4925580  41.5080080 130.6354620  33.7026530
  39.1871900 133.4359950  40.4785400  39.7588010 132.6682150  40.4789040
  39.1873440 133.7348710  39.5692010  49.0451850 142.2550800  38.3330670
  48.4263290 142.7108300  37.7625110  49.9003630 142.4102260  37.9320370
  48.2390100 138.2389790  39.9397710  48.1698380 137.2979730  39.7786840
  49.0009960 138.3291200  40.5120280  40.4296770 128.8444310  42.2654330
  40.2499610 127.9470060  42.5457090  40.0276850 129.3916180  42.9401280
  49.2695270 131.0460170  40.1666640  49.6460090 130.1732050  40.0540310
  49.1714780 131.3818870  39.2757080  43.4000280 129.4185800  35.6284080
  43.5067030 130.3189530  35.9352840  42.4892640 129.3703770  35.3378730
  53.0519390 128.5410610  37.0994980  53.8729010 128.0507180  37.1420460
  53.0853470 129.1308270  37.8526820  41.0483440 131.3404810  40.8736670
  41.7293550 131.6043180  41.4924070  40.7331490 130.5005680  41.2074680
  45.2408010 132.3872170  39.9609260  45.7486230 132.8853140  40.6014280
  45.7721250 131.6107370  39.7848620  43.5244110 127.0270730  44.2272680
  43.5262550 127.5443120  43.4218580  42.6948420 126.5500910  44.2042610
  49.9115200 137.1390040  35.7262580  49.2932470 137.6039490  35.1625300
  50.4238450 137.8317520  36.1432090  44.7746960 136.6665910  42.4046180
  44.4416340 137.2934830  43.0467250  44.9513640 137.1927790  41.6247850
  43.2059440 128.7380690  42.2343130  43.5476250 129.5822740  41.9397000
  42.2675250 128.8864430  42.3508470  43.9866060 138.6346710  44.2195360
  44.6040060 139.3097790  43.9379810  43.1259180 139.0434690  44.1282860
  39.2798400 137.8246570  33.1002210  38.9026380 138.3133670  32.3687110
  39.5371470 138.4971850  33.7308740  54.9043650 140.0986120  42.1350000
  54.2207170 140.7685230  42.1266670  55.4437940 140.2966770  41.3694860
  52.4402390 141.9430250  40.8495180  52.4529550 141.5392540  39.9817440
  51.8877610 142.7177540  40.7456610  53.7347810 138.6646470  35.9385350
  53.6244140 137.7220800  36.0634770  53.7316060 139.0262110  36.8248110
  51.8387830 136.8460090  42.1777790  52.2556620 136.6320200  41.3431250
  52.5627650 137.1032880  42.7486410  49.2768090 134.2911790  35.2947840
  48.3497370 134.2249170  35.5236310  49.4292910 135.2291920  35.1803080
  49.2637170 130.5628790  32.2915000  48.3240840 130.7242750  32.3767460
  49.5820430 131.2814470  31.7450990  55.7849930 135.2447310  42.2694030
  54.9568560 135.3140400  41.7944160  56.3800410 135.8301620  41.8009860
  53.3065380 135.8532090  35.7983090  52.6877800 135.5151640  35.1509390
  53.2889830 135.2091850  36.5062280  44.8824730 134.8176530  38.0767570
  44.4781730 134.1053780  37.5813470  44.9687850 134.4729770  38.9655610
  45.3506430 138.5044090  40.2406780  45.0534720 137.8989560  39.5614560
  46.3006250 138.5421400  40.1296140  43.5953350 131.5919740  41.8566610
  44.1467940 131.7015080  41.0819860  44.1096860 131.9657340  42.5721840
  53.4392040 142.0775960  43.9029880  52.9622600 142.8848150  43.7102490
  52.7553830 141.4254290  44.0556090  44.4424860 138.2425780  46.8914580
  43.5453390 138.4665750  47.1387980  44.4677730 138.3660720  45.9425980
  51.4830080 135.0918900  32.8055840  51.9223360 134.2541330  32.6593660
  52.1958500 135.7248300  32.8919980  43.2696080 135.1139100  45.4671950
  43.1303850 135.9861900  45.8359350  42.3877440 134.7711910  45.3219890
  49.5925460 140.0314970  36.7737080  50.0321370 140.7739300  36.3592470
  49.5312350 140.2741540  37.6976040  45.0676430 141.0560800  47.6757100
  45.0391860 141.4603750  46.8085530  44.9041400 140.1271160  47.5128700
  55.0647220 126.3461710  31.1196880  54.7519880 126.4388540  32.0195950
  55.8259690 126.9242740  31.0694310  41.5829360 133.7121510  35.5774220
  41.4626960 134.4383600  34.9655490  41.2730250 132.9424420  35.1002130
  57.0191250 141.8387900  48.9721270  57.4950970 142.3170790  49.6510350
  57.6398410 141.7705390  48.2466770  39.2214730 136.8836650  41.3842860
  39.2995150 137.0185420  40.4398580  39.8356410 136.1752540  41.5770980
  40.4662360 138.5836840  37.7949040  40.0590440 138.7251430  36.9402640
  41.3575370 138.2997000  37.5920250  56.4224500 139.0300750  46.1321280
  56.5487560 138.7912630  45.2138460  56.4645880 138.1985290  46.6043360
  50.2841240 142.7328750  44.7016090  50.7985910 142.6436760  45.5038520
  49.4410320 143.0788450  44.9944000  52.2595640 143.0184090  34.1300090
  52.0996780 142.7287030  35.0281920  52.0942350 142.2424220  33.5945320
  44.7384020 142.7982620  35.9071710  44.5626500 141.8818160  35.6939510
  43.8839760 143.1569910  36.1469510  51.9621770 140.5271650  32.6898090
  51.2686930 140.5248940  32.0300370  52.7044630 140.1030970  32.2592260
  51.5271700 142.1534360  36.7646580  51.9828650 141.3723740  37.0785200
  51.8664220 142.8641180  37.3087760  39.2774250 137.9250820  43.9237320
  39.4405290 137.4556180  43.1056690  39.7426700 137.4174380  44.5886160
  44.0493020 127.0556580  38.9597890  43.6061170 127.8366120  38.6282410
  44.6078010 127.3786470  39.6668830  48.3362830 129.9225100  44.5633210
  47.8742200 130.1308120  45.3753150  47.9340940 129.1084450  44.2603880
  50.4317050 132.6435800  47.7928660  50.7570460 131.8099550  47.4530890
  51.2197380 133.1664320  47.9406990  47.1651840 126.6767280  33.8403720
  46.5406020 126.6727150  34.5657030  47.0781960 125.8098240  33.4439690
  43.8407240 132.1790150  36.6879140  43.6148160 131.9627320  37.5925760
  43.0599770 132.6118610  36.3425110  51.0705000 132.1853520  35.2869790
  50.4713890 132.9089320  35.1033410  51.6184610 132.1230300  34.5046240
  46.2806450 133.0775730  47.3539410  46.1850050 132.1370460  47.2039810
  47.1238430 133.2990800  46.9587480  49.6769870 130.8217060  37.3173070
  50.0699440 131.1389260  36.5041760  50.0386720 129.9428940  37.4317590
  41.4116990 129.4889400  45.5073190  41.0180380 130.3364610  45.7145970
  40.7235390 128.8515770  45.6981830  47.9862040 129.5724370  48.5769930
  47.2960360 129.3796570  49.2116020  48.7294340 129.8559010  49.1094230
  38.7134040 127.4117860  39.5403270  38.4247090 127.9820720  40.2528250
  39.4579800 126.9322310  39.9034500  38.9004270 131.3537980  30.7505990
  38.8178940 132.2968740  30.8920980  38.5487330 131.2112890  29.8718340
  50.2625010 133.4122810  41.4123850  49.5306130 133.9209620  41.7613950
  49.8649350 132.5952790  41.1112630  46.7002400 130.0877010  39.8176340
  46.7038460 129.6466960  38.9680880  47.5953520 130.4094340  39.9248160
  42.5504780 129.9703500  38.7770550  42.2104830 130.4478730  39.5337600
  41.7882100 129.5168620  38.4171650  46.7622550 131.0889090  32.8083100
  46.8835370 131.0475570  33.7568920  46.3771060 131.9513240  32.6529830
  45.7744050 133.3990230  32.2066400  45.2060950 132.9508480  31.5802310
  46.4833050 133.7583010  31.6731550  40.8513230 137.3002250  46.0833130
  40.4668020 136.6595920  46.6816090  41.1625420 138.0038370  46.6527860
  47.0010370 134.1478790  41.5641750  47.3680500 133.6737360  42.3103090
  46.8115430 135.0220360  41.9050090  39.8650860 128.8922480  37.6935220
  39.5797780 128.5278150  38.5313840  39.8029720 128.1602940  37.0798360
  44.7909740 133.1887430  43.8825960  44.4866810 134.0679410  44.1076320
  45.7456200 133.2487220  43.9183400  43.3191530 137.3948420  34.4792810
  42.5453790 136.8546040  34.3191530  44.0486160 136.8755030  34.1410570
  54.0779510 136.3913780  40.2719200  54.7978630 136.8869070  39.8815310
  53.8761330 135.7131670  39.6273070  49.5389450 127.7851740  34.4148590
  48.7254060 127.2864910  34.3393900  49.3451400 128.6249990  33.9984940
  49.4598310 136.4622840  46.1588200  49.3935620 135.5418510  45.9045790
  48.8303450 136.5598280  46.8732840  52.2537840 132.1571390  32.7110750
  53.1417460 132.4688620  32.5362090  52.2242930 131.2843640  32.3191330
  43.3628930 137.0628800  38.1171620  43.8807600 136.2597060  38.0628510
  42.9112950 137.0007940  38.9588450  48.2498430 138.3295080  33.3898920
  48.5914130 139.0737310  32.8942240  47.4211140 138.6426200  33.7523750
  40.8473470 134.0290170  45.0297320  40.4888410 134.6944020  45.6170660
  40.5528030 133.1973720  45.4009940  44.0486590 134.4874410  47.9136870
  43.7486730 134.6331590  47.0164690  44.8197830 133.9279700  47.8210260
  49.3915040 139.2843410  45.9092000  49.4059580 138.3524370  45.6910910
  48.6840140 139.3703170  46.5481770  54.5252110 133.4683230  32.1790610
  54.4415830 133.8997450  31.3287050  55.2446300 133.9281580  32.6117430
  55.6026250 135.9250750  45.2560580  54.8774440 136.5179530  45.0589970
  56.1301710 135.9174290  44.4573950  55.5539360 140.3225490  34.9072740
  54.9115520 139.6681110  35.1816460  55.1670020 140.7280580  34.1313410
  51.1325840 137.6510920  38.7544430  51.4849660 137.0539050  38.0945800
  50.2488170 137.3255150  38.9252680  47.2189120 138.4108610  36.1614840
  47.9060250 138.9577820  36.5422430  46.4321540 138.9549340  36.1964450
  39.3581520 134.0281430  31.6531920  40.2276370 134.3106230  31.9367840
  38.8671840 134.8417300  31.5380730  46.5216330 135.4154640  35.7740200
  46.9779110 136.2259890  36.0000390  46.1704540 135.0977780  36.6058690
  48.8248940 140.9260980  43.0032500  49.4691160 141.1320360  43.6805920
  49.1878380 140.1649380  42.5503350  42.4228110 125.7592290  36.2462720
  42.2942740 125.7510190  37.1947640  41.5990130 126.0975380  35.8953730
  50.0981020 138.9293330  41.7209950  50.7403250 138.2286490  41.8342120
  50.6230370 139.7091770  41.5406840  53.9436740 139.2141950  31.4449090
  53.7174320 138.4972390  32.0373730  53.5532940 138.9654390  30.6070840
  51.8718640 139.7288230  44.9246010  52.2074880 140.3154920  45.6023930
  50.9518980 139.5980940  45.1543800  39.7252770 143.2408810  32.2193550
  40.0850410 143.8398150  31.5650820  39.5845110 143.7868700  32.9928580
  39.4222040 127.5183410  45.7069420  38.7080560 127.7180330  46.3122030
  39.8417080 126.7422980  46.0784220  53.5252990 137.1313890  33.1063250
  53.2374690 137.5926580  33.8941130  54.3205160 136.6711660  33.3747470
  39.7094630 141.5063670  46.6935950  39.8185750 140.5658410  46.5531340
  39.0575190 141.7718420  46.0449680  47.7007220 139.7779560  48.0934070
  47.3804090 139.0588800  48.6379760  47.0265580 140.4534630  48.1670130
  45.7421390 140.6240010  33.0367220  45.7331490 141.3569700  32.4211730
  44.8219750 140.3771590  33.1294180  41.3428030 135.8454900  33.7813980
  40.7355980 136.5853800  33.7909280  41.8177380 135.9354260  32.9552180
  54.2822850 128.9662660  34.2658430  53.6536010 129.0708330  33.5516660
  53.7874770 129.1859440  35.0552310  48.7280990 140.6868250  31.6992410
  48.8292970 140.4832240  30.7694390  47.8282730 140.4326530  31.9040190
  46.2506880 131.2448610  35.6816310  45.5423030 131.7134950  36.1229920
  46.5351360 130.5870620  36.3161500  47.8762810 132.6645310  43.6808840
  48.3748060 133.1391130  44.3460690  48.0185760 131.7408830  43.8878870
  50.2822310 127.9699270  37.1212100  50.1590090 127.9885400  36.1721610
  51.2306870 128.0178210  37.2410500  47.3699100 143.2054570  36.3940080
  47.6240600 143.1675960  35.4719450  46.4211580 143.0787900  36.3868330
  44.4541900 129.5533690  33.0567020  45.3032430 129.9903840  32.9907210
  44.0873170 129.8653950  33.8839080  53.3751680 134.1246450  37.9698590
  52.4341820 134.1396680  38.1446280  53.6895750 133.3382410  38.4158890
  43.3533320 135.8066050  31.5302550  44.1196590 135.6947410  32.0927980
  43.4308010 135.1104020  30.8779320  42.0480080 133.2391120  32.2135440
  42.1283670 132.2918630  32.3252840  42.9399830 133.5698000  32.3196100
  55.3777260 141.2955300  39.6452850  55.5024680 142.1186470  40.1176660
  56.2442820 141.0846030  39.2977000  42.8494790 143.3886510  39.3169980
  43.5857270 142.8401970  39.5878550  43.2335710 144.2542520  39.1775970
  39.7340270 139.4560080  35.1911490  38.8080050 139.6981220  35.1816900
  40.1996700 140.2834340  35.0696240  41.8553070 142.5732580  48.5055560
  42.6565800 142.8944630  48.9190960  41.3404890 142.2128160  49.2275470
  45.9597100 142.5616820  31.1395550  46.7525710 142.8505650  30.6877340
  45.4401450 142.1308990  30.4608030  50.6917700 138.6812450  48.4530970
  50.0855860 138.7044050  47.7126720  50.3871810 137.9495490  48.9898220
  52.1218070 142.4092740  47.0640380  53.0739820 142.3250760  47.0140620
  51.9746290 143.0734450  47.7374170  55.0127270 141.7886950  32.5632290
  54.7268780 141.3752090  31.7486470  54.8146820 142.7174660  32.4432810
  39.5750880 135.0606040  47.4491610  40.0789900 134.4813320  48.0207840
  38.8358300 135.3446270  47.9867980  46.4774500 137.7820230  31.0037900
  46.3725140 137.1672580  31.7299280  46.3098720 137.2586120  30.2200910
  46.6288820 136.4677030  46.9827130  45.8634490 137.0362030  46.8981800
  46.8104780 136.1753240  46.0895360  49.7177230 136.8440260  31.6079890
  49.1687330 137.2909560  32.2522630  50.3396490 136.3389510  32.1317560
  53.7712170 138.1982360  47.5402150  54.5121640 138.5358120  47.0369610
  53.0084850 138.3674420  46.9871920  41.6073960 133.2035630  48.3441680
  41.6479300 132.9049500  49.2526910  42.4619460 133.6043240  48.1849200
  45.3852350 135.8031180  33.5045190  45.8068770 135.6371050  34.3476580
  45.5103190 134.9931410  33.0100330  43.5479770 131.7827730  46.3116170
  43.0176230 131.2918680  45.6839510  44.2167840 132.2111930  45.7774100
  47.8979990 134.8268790  30.7522290  48.4185650 134.1117810  30.3863440
  48.5448390 135.4654660  31.0522800  52.4457830 136.2497190  46.0757360
  52.8598850 136.4042270  46.9247780  51.5108830 136.3752410  46.2383140
  52.9180000 133.5893350  48.0796510  53.5000770 132.8345670  47.9916990
  53.0941770 134.1200790  47.3027990  44.0352070 128.7490100  46.3913460
  43.9408940 128.1310850  45.6664330  43.4549460 129.4756390  46.1643370
  47.2073060 136.2017670  44.0453290  47.6261170 137.0450400  43.8729530
  46.2881690 136.3389710  43.8160070  49.5436960 133.9333850  45.4291130
  49.6633170 133.3374990  46.1685970  50.4030960 133.9703540  45.0092430
  51.8824860 134.4871040  44.0053640  51.3560080 135.0113660  43.4018780
  52.2256200 135.1198430  44.6363370  44.2811250 131.8764410  30.4503350
  44.0800310 131.0131770  30.8116690  44.1103300 131.7897770  29.5124950
  45.0580480 142.5070680  45.1611020  44.5201570 143.2316740  44.8419720
  45.3114440 142.0301020  44.3708360  46.3105730 130.4755200  46.6866950
  46.9005420 130.1671050  47.3744770  45.4925970 130.0034950  46.8426850
  51.7599560 126.6872640  32.9790230  52.0401850 125.8440540  33.3349650
  50.9865290 126.9195750  33.4928980  43.0794050 128.9765030  30.4381230
  43.3819950 128.9832460  29.5300380  43.8188640 128.6262890  30.9348890
  47.9142690 143.7421890  45.4197670  47.8401390 144.6457030  45.7270040
  47.0121530 143.4233790  45.3919740  46.2978980 127.9199650  31.4237430
  45.9500980 127.2423640  30.8439880  46.4991750 127.4589160  32.2380820
  48.4628020 142.9080400  33.0424030  49.3578810 143.2465370  33.0642790
  48.4945650 142.1859810  32.4148310  42.1024180 138.2807450  31.2711030
  42.5399050 138.8237120  31.9268610  42.5871910 137.4554400  31.2807370
  39.3169980 141.0696480  38.7231290  39.6472990 140.2017540  38.4909930
  39.7460980 141.2755000  39.5536250  43.9131900 139.4005490  36.3833260
  43.6127440 139.2770460  37.2837170  43.8069390 138.5414080  35.9748990
  39.8060190 141.9367070  41.4612920  39.3691180 142.1167870  42.2937070
  40.3737870 142.6941690  41.3194640  55.4422370 141.4384070  45.7490230
  54.8424360 141.4976630  45.0054150  55.5716270 140.4989050  45.8787080
  56.6823820 139.1801890  31.0859940  55.8516780 139.2478540  31.5567170
  56.8595650 140.0706010  30.7826800  56.1380280 135.9249370  33.5894140
  56.8999190 136.4946020  33.6953830  56.1534650 135.3576570  34.3602450
  39.6384620 134.4487300  37.8201800  38.9833460 134.1798940  37.1761500
  40.4762570 134.3391780  37.3703780  57.1440250 136.7799470  38.4336070
  57.5149080 135.9966790  38.0272040  57.7842180 137.4688570  38.2553370
  54.1274010 138.1636050  43.8466390  53.3133850 138.5933210  44.1092180
  54.5348210 138.7754460  43.2335440  56.1899450 136.2183740  30.7466660
  56.4648290 137.1262620  30.6185880  56.0010190 136.1546270  31.6828650
  52.5875060 129.2428590  32.0420290  53.0059940 129.0559570  31.2016950
  52.2811120 128.3907640  32.3523220  56.0864790 134.1552730  35.7396090
  55.7108390 133.3880660  35.3077380  55.3567910 134.5375430  36.2271020
  40.6760550 134.8339870  42.3605140  41.0433590 134.7467270  43.2401160
  40.1071370 134.0706420  42.2612000  55.4764410 133.3024250  45.3735610
  55.2450500 133.0737000  44.4733560  55.7368960 134.2223800  45.3280500
  40.2276550 131.7448960  46.2663560  39.3332600 131.7115720  46.6057270
  40.7674100 131.9435750  47.0314810  38.8522700 131.6586230  33.7627130
  37.9486780 131.9216430  33.5878790  39.3363320 131.9297400  32.9827090
  55.3615750 132.3810220  39.0403330  55.8853230 131.8872870  38.4093500
  55.9475170 132.5160580  39.7850900  55.5405470 132.4650090  42.5622880
  54.5908180 132.4313630  42.6767870  55.7218480 133.3750200  42.3272650
  41.3949910 130.7151770  31.6721510  42.1041610 130.2934990  31.1868790
  40.6789850 130.7827000  31.0404860  41.0424070 126.7691100  30.7124160
  41.7652200 127.3100040  31.0305380  41.3148590 126.4954520  29.8365700
  54.8515720 131.6383570  34.9795740  55.3474840 131.4054440  35.7644620
  54.6531790 130.7995410  34.5633380  40.7316260 126.0197290  40.6146780
  41.3792450 125.4694670  40.1741940  41.1518100 126.2740440  41.4362590
  56.2802880 130.2744520  37.5133420  56.1702160 130.1200560  38.4515690
  57.0410470 129.7465460  37.2708830  57.1693150 128.1052440  30.7539560
  58.0942460 127.9733620  30.5457850  57.1468940 128.1845260  31.7076010
  57.2431640 128.8763100  33.3796270  56.4483140 128.8108220  33.9089180
  57.4474920 129.8113740  33.3681620  54.1850060 142.9154650  37.3734660
  54.7809130 142.5939220  36.6969080  54.4428210 142.4426470  38.1647930
  40.4848260 126.1752960  43.3572100  40.1363080 126.6316780  44.1230280
  40.1535960 125.2810090  43.4394530  42.0912630 139.3472560  47.5225290
  42.0482260 138.9765470  48.4039750  42.2223640 140.2850130  47.6627110
  45.7918660 140.9032150  43.1235010  45.5510020 141.1706710  42.2365530
  46.7321300 141.0737880  43.1785870  57.0522820 142.9226530  43.9245650
  56.5581100 143.3195400  43.2072780  56.4436110 142.2975740  44.3182930
  41.9300660 142.2934810  44.6423070  41.3360980 142.1619510  45.3813110
  41.9224500 141.4572950  44.1765170  54.7362270 143.5649950  41.2032390
  54.2765240 144.3165760  40.8290410  54.1074730 142.8456420  41.1447190
  41.5612890 139.6593190  43.5931110  40.8346950 139.0398480  43.5257060
  41.6222040 140.0533800  42.7229190  45.1657990 141.8738190  40.3780520
  45.6823010 141.2625550  39.8528780  45.8155370 142.3766970  40.8691530
  47.9053490 142.7646680  41.2049500  48.1931300 142.5100980  40.3282510
  48.4176710 142.2124040  41.7955070  55.5390140 126.8375220  37.8403920
  55.4778540 125.8936440  37.6934940  56.3182170 126.9455310  38.3857380
  39.8442890 142.9767580  36.8027870  39.6764930 142.3438260  37.5009760
  38.9777400 143.1826980  36.4522060  40.4670910 126.8084360  34.3059730
  41.2250270 126.9213240  33.7323760  40.0048080 127.6453560  34.2603160
  47.0084720 128.9223630  37.2962040  46.1959230 128.5480520  36.9557920
  47.5126360 128.1668710  37.5983230  51.5109700 125.5866080  38.5345110
  52.1139070 126.1586290  39.0093630  50.7702690 126.1505520  38.3119010
  54.6544300 125.9887640  33.8085390  54.8494930 126.8871090  34.0752820
  53.8674170 125.7574720  34.3018340  41.4505590 141.6700810  34.2478010
  40.9253210 142.0508840  33.5439970  41.3750170 142.2951580  34.9687720
  42.8396060 127.3348410  32.8461700  43.3688820 126.5478210  32.7169650
  43.4724380 128.0139600  33.0797230  45.0333900 127.0723550  35.9007090
  44.4036640 126.3710860  36.0677220  44.4939040 127.8327680  35.6840250
  47.9725850 143.6862780  48.5717700  48.8993160 143.4507050  48.6153660
  47.9576280 144.5134780  48.0903730  56.2070910 143.2288350  35.5691950
  56.3823100 142.5426090  34.9252870  55.5092480 143.7535400  35.1768620
  44.0498560 143.6183190  33.1227260  44.7817380 143.3342470  32.5751150
  44.3092230 143.3796470  34.0126640  43.2113350 139.7347920  33.1273590
  42.5822230 140.2033020  33.6759420  43.3261180 138.8897140  33.5619780
  54.5403410 142.9132640  48.3958740  55.3328730 142.4181870  48.1884700
  54.8336560 143.5922780  49.0034350  50.6663070 133.7853580  19.2774790
  50.5857120 132.8708190  19.0066500  50.2527490 134.2820650  18.5714500
  48.7981110 135.5632600  21.1584060  48.0223210 135.0833040  21.4482630
  49.4494040 134.8838250  20.9840220  42.8146940 135.8752410  22.0359820
  41.9831820 135.6201120  22.4356330  43.4227920 135.9463180  22.7717740
  52.8188540 139.9692790  19.9383190  52.3570070 139.1980030  20.2670360
  53.6314090 139.9958860  20.4435640  42.7948200 139.9092500  22.2317840
  43.0976240 139.0190240  22.0528060  43.5391790 140.4662720  22.0040090
  41.2238890 130.8354300  15.8202210  40.3355590 131.1770270  15.7182090
  41.5080080 130.6354620  14.9283040  39.1871900 133.4359950  21.7041910
  39.7588010 132.6682150  21.7045550  39.1873440 133.7348710  20.7948520
  49.0451850 142.2550800  19.5587180  48.4263290 142.7108300  18.9881620
  49.9003630 142.4102260  19.1576880  48.2390100 138.2389790  21.1654220
  48.1698380 137.2979730  21.0043350  49.0009960 138.3291200  21.7376790
  40.4296770 128.8444310  23.4910840  40.2499610 127.9470060  23.7713600
  40.0276850 129.3916180  24.1657790  49.2695270 131.0460170  21.3923150
  49.6460090 130.1732050  21.2796820  49.1714780 131.3818870  20.5013590
  43.4000280 129.4185800  16.8540590  43.5067030 130.3189530  17.1609350
  42.4892640 129.3703770  16.5635240  53.0519390 128.5410610  18.3251490
  53.8729010 128.0507180  18.3676970  53.0853470 129.1308270  19.0783330
  41.0483440 131.3404810  22.0993180  41.7293550 131.6043180  22.7180580
  40.7331490 130.5005680  22.4331190  45.2408010 132.3872170  21.1865770
  45.7486230 132.8853140  21.8270790  45.7721250 131.6107370  21.0105130
  57.3418940 130.5577360  24.8895120  56.6371110 130.9459070  24.3710230
  57.6076860 131.2527650  25.4916050  43.5244110 127.0270730  25.4529190
  43.5262550 127.5443120  24.6475090  42.6948420 126.5500910  25.4299120
  49.9115200 137.1390040  16.9519090  49.2932470 137.6039490  16.3881810
  50.4238450 137.8317520  17.3688600  44.7746960 136.6665910  23.6302690
  44.4416340 137.2934830  24.2723760  44.9513640 137.1927790  22.8504360
  53.2880870 130.4810990  21.0979030  52.5836440 130.7695880  21.6782140
  53.6493030 131.2911100  20.7378590  43.2059440 128.7380690  23.4599640
  43.5476250 129.5822740  23.1653510  42.2675250 128.8864430  23.5764980
  43.9866060 138.6346710  25.4451870  44.6040060 139.3097790  25.1636320
  43.1259180 139.0434690  25.3539370  39.2798400 137.8246570  14.3258720
  38.9026380 138.3133670  13.5943620  39.5371470 138.4971850  14.9565250
  54.9043650 140.0986120  23.3606510  54.2207170 140.7685230  23.3523180
  55.4437940 140.2966770  22.5951370  56.3567790 129.9265780  21.4888240
  55.4092700 129.9604760  21.6203670  56.6817780 130.7404730  21.8737600
  46.8887330 126.2262960  19.7844230  47.1962310 125.6709850  19.0679730
  45.9588030 126.3607420  19.6017220  52.4402390 141.9430250  22.0751690
  52.4529550 141.5392540  21.2073950  51.8877610 142.7177540  21.9713120
  53.7347810 138.6646470  17.1641860  53.6244140 137.7220800  17.2891280
  53.7316060 139.0262110  18.0504620  51.8387830 136.8460090  23.4034300
  52.2556620 136.6320200  22.5687760  52.5627650 137.1032880  23.9742920
  49.2768090 134.2911790  16.5204350  48.3497370 134.2249170  16.7492820
  49.4292910 135.2291920  16.4059590  49.2637170 130.5628790  13.5171510
  48.3240840 130.7242750  13.6023970  49.5820430 131.2814470  12.9707500
  55.7849930 135.2447310  23.4950540  54.9568560 135.3140400  23.0200670
  56.3800410 135.8301620  23.0266370  53.3065380 135.8532090  17.0239600
  52.6877800 135.5151640  16.3765900  53.2889830 135.2091850  17.7318790
  52.7491940 132.0316630  24.4405410  52.3363120 132.8570340  24.6945400
  52.0167890 131.4461670  24.2481770  44.8824730 134.8176530  19.3024080
  44.4781730 134.1053780  18.8069980  44.9687850 134.4729770  20.1912120
  45.3506430 138.5044090  21.4663290  45.0534720 137.8989560  20.7871070
  46.3006250 138.5421400  21.3552650  43.5953350 131.5919740  23.0823120
  44.1467940 131.7015080  22.3076370  44.1096860 131.9657340  23.7978350
  53.4392040 142.0775960  25.1286390  52.9622600 142.8848150  24.9359000
  52.7553830 141.4254290  25.2812600  44.4424860 138.2425780  28.1171090
  43.5453390 138.4665750  28.3644490  44.4677730 138.3660720  27.1682490
  51.4830080 135.0918900  14.0312350  51.9223360 134.2541330  13.8850170
  52.1958500 135.7248300  14.1176490  43.2696080 135.1139100  26.6928460
  43.1303850 135.9861900  27.0615860  42.3877440 134.7711910  26.5476400
  49.5925460 140.0314970  17.9993590  50.0321370 140.7739300  17.5848980
  49.5312350 140.2741540  18.9232550  45.0676430 141.0560800  28.9013610
  45.0391860 141.4603750  28.0342040  44.9041400 140.1271160  28.7385210
  55.0647220 126.3461710  12.3453390  54.7519880 126.4388540  13.2452460
  55.8259690 126.9242740  12.2950820  41.5829360 133.7121510  16.8030730
  41.4626960 134.4383600  16.1912000  41.2730250 132.9424420  16.3258640
  57.0191250 141.8387900  30.1977780  57.4950970 142.3170790  30.8766860
  57.6398410 141.7705390  29.4723280  39.2214730 136.8836650  22.6099370
  39.2995150 137.0185420  21.6655090  39.8356410 136.1752540  22.8027490
  40.4662360 138.5836840  19.0205550  40.0590440 138.7251430  18.1659150
  41.3575370 138.2997000  18.8176760  56.4224500 139.0300750  27.3577790
  56.5487560 138.7912630  26.4394970  56.4645880 138.1985290  27.8299870
  50.2841240 142.7328750  25.9272600  50.7985910 142.6436760  26.7295030
  49.4410320 143.0788450  26.2200510  52.2595640 143.0184090  15.3556600
  52.0996780 142.7287030  16.2538430  52.0942350 142.2424220  14.8201830
  44.7384020 142.7982620  17.1328220  44.5626500 141.8818160  16.9196020
  43.8839760 143.1569910  17.3726020  51.9621770 140.5271650  13.9154600
  51.2686930 140.5248940  13.2556880  52.7044630 140.1030970  13.4848770
  51.5271700 142.1534360  17.9903090  51.9828650 141.3723740  18.3041710
  51.8664220 142.8641180  18.5344270  56.2748510 131.0833210  28.3227530
  55.6592780 131.5912880  27.7942990  55.9544930 130.1831540  28.2653470
  39.2774250 137.9250820  25.1493830  39.4405290 137.4556180  24.3313200
  39.7426700 137.4174380  25.8142670  44.0493020 127.0556580  20.1854400
  43.6061170 127.8366120  19.8538920  44.6078010 127.3786470  20.8925340
  48.3362830 129.9225100  25.7889720  47.8742200 130.1308120  26.6009660
  47.9340940 129.1084450  25.4860390  53.3367340 131.1434050  26.9186380
  52.4860930 130.8439800  27.2395450  53.1769130 131.3876060  26.0070200
  50.4317050 132.6435800  29.0185170  50.7570460 131.8099550  28.6787400
  51.2197380 133.1664320  29.1663500  47.1651840 126.6767280  15.0660230
  46.5406020 126.6727150  15.7913540  47.0781960 125.8098240  14.6696200
  46.0868920 127.6003910  22.0444000  46.3841250 128.5066740  21.9636020
  46.6354480 127.1122690  21.4303570  43.8407240 132.1790150  17.9135650
  43.6148160 131.9627320  18.8182270  43.0599770 132.6118610  17.5681620
  51.0705000 132.1853520  16.5126300  50.4713890 132.9089320  16.3289920
  51.6184610 132.1230300  15.7302750  46.2806450 133.0775730  28.5795920
  46.1850050 132.1370460  28.4296320  47.1238430 133.2990800  28.1843990
  49.6769870 130.8217060  18.5429580  50.0699440 131.1389260  17.7298270
  50.0386720 129.9428940  18.6574100  41.4116990 129.4889400  26.7329700
  41.0180380 130.3364610  26.9402480  40.7235390 128.8515770  26.9238340
  47.9862040 129.5724370  29.8026440  47.2960360 129.3796570  30.4372530
  48.7294340 129.8559010  30.3350740  38.7134040 127.4117860  20.7659780
  38.4247090 127.9820720  21.4784760  39.4579800 126.9322310  21.1291010
  38.9004270 131.3537980  11.9762500  38.8178940 132.2968740  12.1177490
  38.5487330 131.2112890  11.0974850  50.2625010 133.4122810  22.6380360
  49.5306130 133.9209620  22.9870460  49.8649350 132.5952790  22.3369140
  46.7002400 130.0877010  21.0432850  46.7038460 129.6466960  20.1937390
  47.5953520 130.4094340  21.1504670  42.5504780 129.9703500  20.0027060
  42.2104830 130.4478730  20.7594110  41.7882100 129.5168620  19.6428160
  46.7622550 131.0889090  14.0339610  46.8835370 131.0475570  14.9825430
  46.3771060 131.9513240  13.8786340  50.7250920 128.8656490  22.0503300
  50.7423660 129.3165140  22.8945150  50.4766500 127.9662130  22.2636740
  45.7744050 133.3990230  13.4322910  45.2060950 132.9508480  12.8058820
  46.4833050 133.7583010  12.8988060  54.1521670 126.2788670  27.8889680
  54.4767440 125.5478330  28.4147660  54.1878180 125.9602310  26.9870670
  40.8513230 137.3002250  27.3089640  40.4668020 136.6595920  27.9072600
  41.1625420 138.0038370  27.8784370  47.0010370 134.1478790  22.7898260
  47.3680500 133.6737360  23.5359600  46.8115430 135.0220360  23.1306600
  39.8650860 128.8922480  18.9191730  39.5797780 128.5278150  19.7570350
  39.8029720 128.1602940  18.3054870  44.7909740 133.1887430  25.1082470
  44.4866810 134.0679410  25.3332830  45.7456200 133.2487220  25.1439910
  43.3191530 137.3948420  15.7049320  42.5453790 136.8546040  15.5448040
  44.0486160 136.8755030  15.3667080  54.0779510 136.3913780  21.4975710
  54.7978630 136.8869070  21.1071820  53.8761330 135.7131670  20.8529580
  49.5389450 127.7851740  15.6405100  48.7254060 127.2864910  15.5650410
  49.3451400 128.6249990  15.2241450  49.4598310 136.4622840  27.3844710
  49.3935620 135.5418510  27.1302300  48.8303450 136.5598280  28.0989350
  52.2537840 132.1571390  13.9367260  53.1417460 132.4688620  13.7618600
  52.2242930 131.2843640  13.5447840  43.3628930 137.0628800  19.3428130
  43.8807600 136.2597060  19.2885020  42.9112950 137.0007940  20.1844960
  48.2498430 138.3295080  14.6155430  48.5914130 139.0737310  14.1198750
  47.4211140 138.6426200  14.9780260  40.8473470 134.0290170  26.2553830
  40.4888410 134.6944020  26.8427170  40.5528030 133.1973720  26.6266450
  44.0486590 134.4874410  29.1393380  43.7486730 134.6331590  28.2421200
  44.8197830 133.9279700  29.0466770  49.3915040 139.2843410  27.1348510
  49.4059580 138.3524370  26.9167420  48.6840140 139.3703170  27.7738280
  54.5252110 133.4683230  13.4047120  54.4415830 133.8997450  12.5543560
  55.2446300 133.9281580  13.8373940  55.6026250 135.9250750  26.4817090
  54.8774440 136.5179530  26.2846480  56.1301710 135.9174290  25.6830460
  55.5539360 140.3225490  16.1329250  54.9115520 139.6681110  16.4072970
  55.1670020 140.7280580  15.3569920  51.1325840 137.6510920  19.9800940
  51.4849660 137.0539050  19.3202310  50.2488170 137.3255150  20.1509190
  47.2189120 138.4108610  17.3871350  47.9060250 138.9577820  17.7678940
  46.4321540 138.9549340  17.4220960  39.3581520 134.0281430  12.8788430
  40.2276370 134.3106230  13.1624350  38.8671840 134.8417300  12.7637240
  46.5216330 135.4154640  16.9996710  46.9779110 136.2259890  17.2256900
  46.1704540 135.0977780  17.8315200  48.8248940 140.9260980  24.2289010
  49.4691160 141.1320360  24.9062430  49.1878380 140.1649380  23.7759860
  42.4228110 125.7592290  17.4719230  42.2942740 125.7510190  18.4204150
  41.5990130 126.0975380  17.1210240  50.0981020 138.9293330  22.9466460
  50.7403250 138.2286490  23.0598630  50.6230370 139.7091770  22.7663350
  53.9436740 139.2141950  12.6705600  53.7174320 138.4972390  13.2630240
  53.5532940 138.9654390  11.8327350  51.8718640 139.7288230  26.1502520
  52.2074880 140.3154920  26.8280440  50.9518980 139.5980940  26.3800310
  39.7252770 143.2408810  13.4450060  40.0850410 143.8398150  12.7907330
  39.5845110 143.7868700  14.2185090  39.4222040 127.5183410  26.9325930
  38.7080560 127.7180330  27.5378540  39.8417080 126.7422980  27.3040730
  53.5252990 137.1313890  14.3319760  53.2374690 137.5926580  15.1197640
  54.3205160 136.6711660  14.6003980  39.7094630 141.5063670  27.9192460
  39.8185750 140.5658410  27.7787850  39.0575190 141.7718420  27.2706190
  47.7007220 139.7779560  29.3190580  47.3804090 139.0588800  29.8636270
  47.0265580 140.4534630  29.3926640  45.7421390 140.6240010  14.2623730
  45.7331490 141.3569700  13.6468240  44.8219750 140.3771590  14.3550690
  41.3428030 135.8454900  15.0070490  40.7355980 136.5853800  15.0165790
  41.8177380 135.9354260  14.1808690  50.9160820 130.0105720  24.6827380
  51.2841640 129.1900930  25.0106950  50.0559020 130.0707610  25.0983030
  54.2822850 128.9662660  15.4914940  53.6536010 129.0708330  14.7773170
  53.7874770 129.1859440  16.2808820  48.7280990 140.6868250  12.9248920
  48.8292970 140.4832240  11.9950900  47.8282730 140.4326530  13.1296700
  46.2506880 131.2448610  16.9072820  45.5423030 131.7134950  17.3486430
  46.5351360 130.5870620  17.5418010  47.8762810 132.6645310  24.9065350
  48.3748060 133.1391130  25.5717200  48.0185760 131.7408830  25.1135380
  50.2822310 127.9699270  18.3468610  50.1590090 127.9885400  17.3978120
  51.2306870 128.0178210  18.4667010  47.3699100 143.2054570  17.6196590
  47.6240600 143.1675960  16.6975960  46.4211580 143.0787900  17.6124840
  44.4541900 129.5533690  14.2823530  45.3032430 129.9903840  14.2163720
  44.0873170 129.8653950  15.1095590  55.0829670 128.8813270  25.7493740
  54.5803270 129.6218670  26.0887550  55.8986330 129.2697270  25.4330530
  53.3751680 134.1246450  19.1955100  52.4341820 134.1396680  19.3702790
  53.6895750 133.3382410  19.6415400  43.3533320 135.8066050  12.7559060
  44.1196590 135.6947410  13.3184490  43.4308010 135.1104020  12.1035830
  42.0480080 133.2391120  13.4391950  42.1283670 132.2918630  13.5509350
  42.9399830 133.5698000  13.5452610  55.3777260 141.2955300  20.8709360
  55.5024680 142.1186470  21.3433170  56.2442820 141.0846030  20.5233510
  42.8494790 143.3886510  20.5426490  43.5857270 142.8401970  20.8135060
  43.2335710 144.2542520  20.4032480  39.7340270 139.4560080  16.4168000
  38.8080050 139.6981220  16.4073410  40.1996700 140.2834340  16.2952750
  41.8553070 142.5732580  29.7312070  42.6565800 142.8944630  30.1447470
  41.3404890 142.2128160  30.4531980  45.9597100 142.5616820  12.3652060
  46.7525710 142.8505650  11.9133850  45.4401450 142.1308990  11.6864540
  50.6917700 138.6812450  29.6787480  50.0855860 138.7044050  28.9383230
  50.3871810 137.9495490  30.2154730  52.1218070 142.4092740  28.2896890
  53.0739820 142.3250760  28.2397130  51.9746290 143.0734450  28.9630680
  55.0127270 141.7886950  13.7888800  54.7268780 141.3752090  12.9742980
  54.8146820 142.7174660  13.6689320  39.5750880 135.0606040  28.6748120
  40.0789900 134.4813320  29.2464350  38.8358300 135.3446270  29.2124490
  46.4774500 137.7820230  12.2294410  46.3725140 137.1672580  12.9555790
  46.3098720 137.2586120  11.4457420  46.6288820 136.4677030  28.2083640
  45.8634490 137.0362030  28.1238310  46.8104780 136.1753240  27.3151870
  49.7177230 136.8440260  12.8336400  49.1687330 137.2909560  13.4779140
  50.3396490 136.3389510  13.3574070  53.7712170 138.1982360  28.7658660
  54.5121640 138.5358120  28.2626120  53.0084850 138.3674420  28.2128430
  41.6073960 133.2035630  29.5698190  41.6479300 132.9049500  30.4783420
  42.4619460 133.6043240  29.4105710  45.3852350 135.8031180  14.7301700
  45.8068770 135.6371050  15.5733090  45.5103190 134.9931410  14.2356840
  43.5479770 131.7827730  27.5372680  43.0176230 131.2918680  26.9096020
  44.2167840 132.2111930  27.0030610  47.8979990 134.8268790  11.9778800
  48.4185650 134.1117810  11.6119950  48.5448390 135.4654660  12.2779310
  52.4457830 136.2497190  27.3013870  52.8598850 136.4042270  28.1504290
  51.5108830 136.3752410  27.4639650  52.9180000 133.5893350  29.3053020
  53.5000770 132.8345670  29.2173500  53.0941770 134.1200790  28.5284500
  44.0352070 128.7490100  27.6169970  43.9408940 128.1310850  26.8920840
  43.4549460 129.4756390  27.3899880  46.8013510 127.3063340  24.6497360
  46.3530810 127.3287600  23.8042910  46.1678710 126.9082360  25.2467660
  47.2073060 136.2017670  25.2709800  47.6261170 137.0450400  25.0986040
  46.2881690 136.3389710  25.0416580  49.5436960 133.9333850  26.6547640
  49.6633170 133.3374990  27.3942480  50.4030960 133.9703540  26.2348940
  51.8824860 134.4871040  25.2310150  51.3560080 135.0113660  24.6275290
  52.2256200 135.1198430  25.8619880  44.2811250 131.8764410  11.6759860
  44.0800310 131.0131770  12.0373200  44.1103300 131.7897770  10.7381460
  45.0580480 142.5070680  26.3867530  44.5201570 143.2316740  26.0676230
  45.3114440 142.0301020  25.5964870  46.3105730 130.4755200  27.9123460
  46.9005420 130.1671050  28.6001280  45.4925970 130.0034950  28.0683360
  51.1299160 130.0921010  28.1456480  50.4414680 129.4302550  28.0806470
  51.8505180 129.6459280  28.5904940  51.7599560 126.6872640  14.2046740
  52.0401850 125.8440540  14.5606160  50.9865290 126.9195750  14.7185490
  43.0794050 128.9765030  11.6637740  43.3819950 128.9832460  10.7556890
  43.8188640 128.6262890  12.1605400  47.9142690 143.7421890  26.6454180
  47.8401390 144.6457030  26.9526550  47.0121530 143.4233790  26.6176250
  46.2978980 127.9199650  12.6493940  45.9500980 127.2423640  12.0696390
  46.4991750 127.4589160  13.4637330  48.4628020 142.9080400  14.2680540
  49.3578810 143.2465370  14.2899300  48.4945650 142.1859810  13.6404820
  42.1024180 138.2807450  12.4967540  42.5399050 138.8237120  13.1525120
  42.5871910 137.4554400  12.5063880  39.3169980 141.0696480  19.9487800
  39.6472990 140.2017540  19.7166440  39.7460980 141.2755000  20.7792760
  43.9131900 139.4005490  17.6089770  43.6127440 139.2770460  18.5093680
  43.8069390 138.5414080  17.2005500  39.8060190 141.9367070  22.6869430
  39.3691180 142.1167870  23.5193580  40.3737870 142.6941690  22.5451150
  55.4422370 141.4384070  26.9746740  54.8424360 141.4976630  26.2310660
  55.5716270 140.4989050  27.1043590  56.6823820 139.1801890  12.3116450
  55.8516780 139.2478540  12.7823680  56.8595650 140.0706010  12.0083310
  56.1380280 135.9249370  14.8150650  56.8999190 136.4946020  14.9210340
  56.1534650 135.3576570  15.5858960  39.6384620 134.4487300  19.0458310
  38.9833460 134.1798940  18.4018010  40.4762570 134.3391780  18.5960290
  57.1440250 136.7799470  19.6592580  57.5149080 135.9966790  19.2528550
  57.7842180 137.4688570  19.4809880  54.1274010 138.1636050  25.0722900
  53.3133850 138.5933210  25.3348690  54.5348210 138.7754460  24.4591950
  56.1899450 136.2183740  11.9723170  56.4648290 137.1262620  11.8442390
  56.0010190 136.1546270  12.9085160  52.5875060 129.2428590  13.2676800
  53.0059940 129.0559570  12.4273460  52.2811120 128.3907640  13.5779730
  56.0864790 134.1552730  16.9652600  55.7108390 133.3880660  16.5333890
  55.3567910 134.5375430  17.4527530  40.6760550 134.8339870  23.5861650
  41.0433590 134.7467270  24.4657670  40.1071370 134.0706420  23.4868510
  55.4764410 133.3024250  26.5992120  55.2450500 133.0737000  25.6990070
  55.7368960 134.2223800  26.5537010  40.2276550 131.7448960  27.4920070
  39.3332600 131.7115720  27.8313780  40.7674100 131.9435750  28.2571320
  53.9152480 128.5280680  29.3771820  54.7922660 128.5364080  29.7605820
  53.9273320 127.7911520  28.7664170  38.8522700 131.6586230  14.9883640
  37.9486780 131.9216430  14.8135300  39.3363320 131.9297400  14.2083600
  55.3615750 132.3810220  20.2659840  55.8853230 131.8872870  19.6350010
  55.9475170 132.5160580  21.0107410  55.5405470 132.4650090  23.7879390
  54.5908180 132.4313630  23.9024380  55.7218480 133.3750200  23.5529160
  41.3949910 130.7151770  12.8978020  42.1041610 130.2934990  12.4125300
  40.6789850 130.7827000  12.2661370  41.0424070 126.7691100  11.9380670
  41.7652200 127.3100040  12.2561890  41.3148590 126.4954520  11.0622210
  54.8515720 131.6383570  16.2052250  55.3474840 131.4054440  16.9901130
  54.6531790 130.7995410  15.7889890  40.7316260 126.0197290  21.8403290
  41.3792450 125.4694670  21.3998450  41.1518100 126.2740440  22.6619100
  56.2802880 130.2744520  18.7389930  56.1702160 130.1200560  19.6772200
  57.0410470 129.7465460  18.4965340  54.6268600 126.2138650  25.1972930
  55.2640820 126.8272790  25.5632120  54.7743490 126.2499310  24.2522160
  57.1693150 128.1052440  11.9796070  58.0942460 127.9733620  11.7714360
  57.1468940 128.1845260  12.9332520  57.2431640 128.8763100  14.6052780
  56.4483140 128.8108220  15.1345690  57.4474920 129.8113740  14.5938130
  54.1850060 142.9154650  18.5991170  54.7809130 142.5939220  17.9225590
  54.4428210 142.4426470  19.3904440  40.4848260 126.1752960  24.5828610
  40.1363080 126.6316780  25.3486790  40.1535960 125.2810090  24.6651040
  42.0912630 139.3472560  28.7481800  42.0482260 138.9765470  29.6296260
  42.2223640 140.2850130  28.8883620  45.7918660 140.9032150  24.3491520
  45.5510020 141.1706710  23.4622040  46.7321300 141.0737880  24.4042380
  47.9973080 127.3664840  28.1048030  47.9361970 127.9586670  28.8543440
  48.9373460 127.2590800  27.9598290  50.6347640 127.0234900  27.7440320
  51.2488050 127.3414190  27.0821400  51.1797200 126.5383490  28.3636180
  57.0522820 142.9226530  25.1502160  56.5581100 143.3195400  24.4329290
  56.4436110 142.2975740  25.5439440  41.1568900 125.7029160  27.8579380
  41.7051890 125.5217210  27.0945490  41.2224210 124.9123270  28.3935690
  41.9300660 142.2934810  25.8679580  41.3360980 142.1619510  26.6069620
  41.9224500 141.4572950  25.4021680  51.3755680 125.5867040  24.0709610
  50.5015520 125.9202150  23.8682540  51.2666430 125.1140220  24.8961480
  52.2827660 127.7937910  25.4551330  51.9541020 126.9789670  25.0753060
  53.2309960 127.7507720  25.3317020  54.7362270 143.5649950  22.4288900
  54.2765240 144.3165760  22.0546920  54.1074730 142.8456420  22.3703700
  41.5612890 139.6593190  24.8187620  40.8346950 139.0398480  24.7513570
  41.6222040 140.0533800  23.9485700  45.1657990 141.8738190  21.6037030
  45.6823010 141.2625550  21.0785290  45.8155370 142.3766970  22.0948040
  47.9053490 142.7646680  22.4306010  48.1931300 142.5100980  21.5539020
  48.4176710 142.2124040  23.0211580  49.1230500 126.5036880  23.0102520
  48.3402290 126.9782380  23.2899280  48.8293430 125.5991710  22.9015700
  53.6751570 127.2059980  21.0551610  54.1159660 127.1505080  20.2073210
  53.4059160 128.1217990  21.1261790  55.5390140 126.8375220  19.0660430
  55.4778540 125.8936440  18.9191450  56.3182170 126.9455310  19.6113890
  39.8442890 142.9767580  18.0284380  39.6764930 142.3438260  18.7266270
  38.9777400 143.1826980  17.6778570  40.4670910 126.8084360  15.5316240
  41.2250270 126.9213240  14.9580270  40.0048080 127.6453560  15.4859670
  47.0084720 128.9223630  18.5218550  46.1959230 128.5480520  18.1814430
  47.5126360 128.1668710  18.8239740  51.5109700 125.5866080  19.7601620
  52.1139070 126.1586290  20.2350140  50.7702690 126.1505520  19.5375520
  54.6544300 125.9887640  15.0341900  54.8494930 126.8871090  15.3009330
  53.8674170 125.7574720  15.5274850  41.4505590 141.6700810  15.4734520
  40.9253210 142.0508840  14.7696480  41.3750170 142.2951580  16.1944230
  42.8396060 127.3348410  14.0718210  43.3688820 126.5478210  13.9426160
  43.4724380 128.0139600  14.3053740  45.0333900 127.0723550  17.1263600
  44.4036640 126.3710860  17.2933730  44.4939040 127.8327680  16.9096760
  47.9725850 143.6862780  29.7974210  48.8993160 143.4507050  29.8410170
  47.9576280 144.5134780  29.3160240  56.2070910 143.2288350  16.7948460
  56.3823100 142.5426090  16.1509380  55.5092480 143.7535400  16.4025130
  45.1589460 126.3507530  29.5616090  44.8773730 126.8541130  28.7976910
  45.5409160 125.5529280  29.1958220  44.0498560 143.6183190  14.3483770
  44.7817380 143.3342470  13.8007660  44.3092230 143.3796470  15.2383150
  43.2113350 139.7347920  14.3530100  42.5822230 140.2033020  14.9015930
  43.3261180 138.8897140  14.7876290  51.7604920 125.7661110  30.1396560
  51.6470370 126.0855720  31.0348080  52.5774660 126.1673620  29.8433840
  54.5403410 142.9132640  29.6215250  55.3328730 142.4181870  29.4141210
  54.8336560 143.5922780  30.2290860  48.7981110 135.5632600   2.3840570
  48.0223210 135.0833040   2.6739140  49.4494040 134.8838250   2.2096730
  42.8146940 135.8752410   3.2616330  41.9831820 135.6201120   3.6612840
  43.4227920 135.9463180   3.9974250  42.7948200 139.9092500   3.4574350
  43.0976240 139.0190240   3.2784570  43.5391790 140.4662720   3.2296600
  39.1871900 133.4359950   2.9298420  39.7588010 132.6682150   2.9302060
  39.1873440 133.7348710   2.0205030  48.2390100 138.2389790   2.3910730
  48.1698380 137.2979730   2.2299860  49.0009960 138.3291200   2.9633300
  40.4296770 128.8444310   4.7167350  40.2499610 127.9470060   4.9970110
  40.0276850 129.3916180   5.3914300  49.2695270 131.0460170   2.6179660
  49.6460090 130.1732050   2.5053330  49.1714780 131.3818870   1.7270100
  41.0483440 131.3404810   3.3249690  41.7293550 131.6043180   3.9437090
  40.7331490 130.5005680   3.6587700  45.2408010 132.3872170   2.4122280
  45.7486230 132.8853140   3.0527300  45.7721250 131.6107370   2.2361640
  57.3418940 130.5577360   6.1151630  56.6371110 130.9459070   5.5966740
  57.6076860 131.2527650   6.7172560  43.5244110 127.0270730   6.6785700
  43.5262550 127.5443120   5.8731600  42.6948420 126.5500910   6.6555630
  44.7746960 136.6665910   4.8559200  44.4416340 137.2934830   5.4980270
  44.9513640 137.1927790   4.0760870  53.2880870 130.4810990   2.3235540
  52.5836440 130.7695880   2.9038650  53.6493030 131.2911100   1.9635100
  43.2059440 128.7380690   4.6856150  43.5476250 129.5822740   4.3910020
  42.2675250 128.8864430   4.8021490  43.9866060 138.6346710   6.6708380
  44.6040060 139.3097790   6.3892830  43.1259180 139.0434690   6.5795880
  54.9043650 140.0986120   4.5863020  54.2207170 140.7685230   4.5779690
  55.4437940 140.2966770   3.8207880  56.3567790 129.9265780   2.7144750
  55.4092700 129.9604760   2.8460180  56.6817780 130.7404730   3.0994110
  52.4402390 141.9430250   3.3008200  52.4529550 141.5392540   2.4330460
  51.8877610 142.7177540   3.1969630  51.8387830 136.8460090   4.6290810
  52.2556620 136.6320200   3.7944270  52.5627650 137.1032880   5.1999430
  55.7849930 135.2447310   4.7207050  54.9568560 135.3140400   4.2457180
  56.3800410 135.8301620   4.2522880  52.7491940 132.0316630   5.6661920
  52.3363120 132.8570340   5.9201910  52.0167890 131.4461670   5.4738280
  45.3506430 138.5044090   2.6919800  45.0534720 137.8989560   2.0127580
  46.3006250 138.5421400   2.5809160  43.5953350 131.5919740   4.3079630
  44.1467940 131.7015080   3.5332880  44.1096860 131.9657340   5.0234860
  53.4392040 142.0775960   6.3542900  52.9622600 142.8848150   6.1615510
  52.7553830 141.4254290   6.5069110  44.4424860 138.2425780   9.3427600
  43.5453390 138.4665750   9.5901000  44.4677730 138.3660720   8.3939000
  43.2696080 135.1139100   7.9184970  43.1303850 135.9861900   8.2872370
  42.3877440 134.7711910   7.7732910  45.0676430 141.0560800  10.1270120
  45.0391860 141.4603750   9.2598550  44.9041400 140.1271160   9.9641720
  57.0191250 141.8387900  11.4234290  57.4950970 142.3170790  12.1023370
  57.6398410 141.7705390  10.6979790  39.2214730 136.8836650   3.8355880
  39.2995150 137.0185420   2.8911600  39.8356410 136.1752540   4.0284000
  56.4224500 139.0300750   8.5834300  56.5487560 138.7912630   7.6651480
  56.4645880 138.1985290   9.0556380  50.2841240 142.7328750   7.1529110
  50.7985910 142.6436760   7.9551540  49.4410320 143.0788450   7.4457020
  56.2748510 131.0833210   9.5484040  55.6592780 131.5912880   9.0199500
  55.9544930 130.1831540   9.4909980  39.2774250 137.9250820   6.3750340
  39.4405290 137.4556180   5.5569710  39.7426700 137.4174380   7.0399180
  48.3362830 129.9225100   7.0146230  47.8742200 130.1308120   7.8266170
  47.9340940 129.1084450   6.7116900  53.3367340 131.1434050   8.1442890
  52.4860930 130.8439800   8.4651960  53.1769130 131.3876060   7.2326710
  50.4317050 132.6435800  10.2441680  50.7570460 131.8099550   9.9043910
  51.2197380 133.1664320  10.3920010  46.0868920 127.6003910   3.2700510
  46.3841250 128.5066740   3.1892530  46.6354480 127.1122690   2.6560080
  46.2806450 133.0775730   9.8052430  46.1850050 132.1370460   9.6552830
  47.1238430 133.2990800   9.4100500  41.4116990 129.4889400   7.9586210
  41.0180380 130.3364610   8.1658990  40.7235390 128.8515770   8.1494850
  47.9862040 129.5724370  11.0282950  47.2960360 129.3796570  11.6629040
  48.7294340 129.8559010  11.5607250  38.7134040 127.4117860   1.9916290
  38.4247090 127.9820720   2.7041270  39.4579800 126.9322310   2.3547520
  50.2625010 133.4122810   3.8636870  49.5306130 133.9209620   4.2126970
  49.8649350 132.5952790   3.5625650  46.7002400 130.0877010   2.2689360
  46.7038460 129.6466960   1.4193900  47.5953520 130.4094340   2.3761180
  50.7250920 128.8656490   3.2759810  50.7423660 129.3165140   4.1201660
  50.4766500 127.9662130   3.4893250  54.1521670 126.2788670   9.1146190
  54.4767440 125.5478330   9.6404170  54.1878180 125.9602310   8.2127180
  40.8513230 137.3002250   8.5346150  40.4668020 136.6595920   9.1329110
  41.1625420 138.0038370   9.1040880  47.0010370 134.1478790   4.0154770
  47.3680500 133.6737360   4.7616110  46.8115430 135.0220360   4.3563110
  44.7909740 133.1887430   6.3338980  44.4866810 134.0679410   6.5589340
  45.7456200 133.2487220   6.3696420  54.0779510 136.3913780   2.7232220
  54.7978630 136.8869070   2.3328330  53.8761330 135.7131670   2.0786090
  49.4598310 136.4622840   8.6101220  49.3935620 135.5418510   8.3558810
  48.8303450 136.5598280   9.3245860  40.8473470 134.0290170   7.4810340
  40.4888410 134.6944020   8.0683680  40.5528030 133.1973720   7.8522960
  44.0486590 134.4874410  10.3649890  43.7486730 134.6331590   9.4677710
  44.8197830 133.9279700  10.2723280  49.3915040 139.2843410   8.3605020
  49.4059580 138.3524370   8.1423930  48.6840140 139.3703170   8.9994790
  55.6026250 135.9250750   7.7073600  54.8774440 136.5179530   7.5102990
  56.1301710 135.9174290   6.9086970  48.8248940 140.9260980   5.4545520
  49.4691160 141.1320360   6.1318940  49.1878380 140.1649380   5.0016370
  50.0981020 138.9293330   4.1722970  50.7403250 138.2286490   4.2855140
  50.6230370 139.7091770   3.9919860  51.8718640 139.7288230   7.3759030
  52.2074880 140.3154920   8.0536950  50.9518980 139.5980940   7.6056820
  39.4222040 127.5183410   8.1582440  38.7080560 127.7180330   8.7635050
  39.8417080 126.7422980   8.5297240  39.7094630 141.5063670   9.1448970
  39.8185750 140.5658410   9.0044360  39.0575190 141.7718420   8.4962700
  47.7007220 139.7779560  10.5447090  47.3804090 139.0588800  11.0892780
  47.0265580 140.4534630  10.6183150  50.9160820 130.0105720   5.9083890
  51.2841640 129.1900930   6.2363460  50.0559020 130.0707610   6.3239540
  47.8762810 132.6645310   6.1321860  48.3748060 133.1391130   6.7973710
  48.0185760 131.7408830   6.3391890  55.0829670 128.8813270   6.9750250
  54.5803270 129.6218670   7.3144060  55.8986330 129.2697270   6.6587040
  55.3777260 141.2955300   2.0965870  55.5024680 142.1186470   2.5689680
  56.2442820 141.0846030   1.7490020  42.8494790 143.3886510   1.7683000
  43.5857270 142.8401970   2.0391570  43.2335710 144.2542520   1.6288990
  41.8553070 142.5732580  10.9568580  42.6565800 142.8944630  11.3703980
  41.3404890 142.2128160  11.6788490  50.6917700 138.6812450  10.9043990
  50.0855860 138.7044050  10.1639740  50.3871810 137.9495490  11.4411240
  52.1218070 142.4092740   9.5153400  53.0739820 142.3250760   9.4653640
  51.9746290 143.0734450  10.1887190  39.5750880 135.0606040   9.9004630
  40.0789900 134.4813320  10.4720860  38.8358300 135.3446270  10.4381000
  46.6288820 136.4677030   9.4340150  45.8634490 137.0362030   9.3494820
  46.8104780 136.1753240   8.5408380  53.7712170 138.1982360   9.9915170
  54.5121640 138.5358120   9.4882630  53.0084850 138.3674420   9.4384940
  41.6073960 133.2035630  10.7954700  41.6479300 132.9049500  11.7039930
  42.4619460 133.6043240  10.6362220  43.5479770 131.7827730   8.7629190
  43.0176230 131.2918680   8.1352530  44.2167840 132.2111930   8.2287120
  52.4457830 136.2497190   8.5270380  52.8598850 136.4042270   9.3760800
  51.5108830 136.3752410   8.6896160  52.9180000 133.5893350  10.5309530
  53.5000770 132.8345670  10.4430010  53.0941770 134.1200790   9.7541010
  44.0352070 128.7490100   8.8426480  43.9408940 128.1310850   8.1177350
  43.4549460 129.4756390   8.6156390  46.8013510 127.3063340   5.8753870
  46.3530810 127.3287600   5.0299420  46.1678710 126.9082360   6.4724170
  47.2073060 136.2017670   6.4966310  47.6261170 137.0450400   6.3242550
  46.2881690 136.3389710   6.2673090  49.5436960 133.9333850   7.8804150
  49.6633170 133.3374990   8.6198990  50.4030960 133.9703540   7.4605450
  51.8824860 134.4871040   6.4566660  51.3560080 135.0113660   5.8531800
  52.2256200 135.1198430   7.0876390  45.0580480 142.5070680   7.6124040
  44.5201570 143.2316740   7.2932740  45.3114440 142.0301020   6.8221380
  46.3105730 130.4755200   9.1379970  46.9005420 130.1671050   9.8257790
  45.4925970 130.0034950   9.2939870  51.1299160 130.0921010   9.3712990
  50.4414680 129.4302550   9.3062980  51.8505180 129.6459280   9.8161450
  47.9142690 143.7421890   7.8710690  47.8401390 144.6457030   8.1783060
  47.0121530 143.4233790   7.8432760  39.8060190 141.9367070   3.9125940
  39.3691180 142.1167870   4.7450090  40.3737870 142.6941690   3.7707660
  55.4422370 141.4384070   8.2003250  54.8424360 141.4976630   7.4567170
  55.5716270 140.4989050   8.3300100  54.1274010 138.1636050   6.2979410
  53.3133850 138.5933210   6.5605200  54.5348210 138.7754460   5.6848460
  40.6760550 134.8339870   4.8118160  41.0433590 134.7467270   5.6914180
  40.1071370 134.0706420   4.7125020  55.4764410 133.3024250   7.8248630
  55.2450500 133.0737000   6.9246580  55.7368960 134.2223800   7.7793520
  40.2276550 131.7448960   8.7176580  39.3332600 131.7115720   9.0570290
  40.7674100 131.9435750   9.4827830  53.9152480 128.5280680  10.6028330
  54.7922660 128.5364080  10.9862330  53.9273320 127.7911520   9.9920680
  55.5405470 132.4650090   5.0135900  54.5908180 132.4313630   5.1280890
  55.7218480 133.3750200   4.7785670  40.7316260 126.0197290   3.0659800
  41.3792450 125.4694670   2.6254960  41.1518100 126.2740440   3.8875610
  54.6268600 126.2138650   6.4229440  55.2640820 126.8272790   6.7888630
  54.7743490 126.2499310   5.4778670  40.4848260 126.1752960   5.8085120
  40.1363080 126.6316780   6.5743300  40.1535960 125.2810090   5.8907550
  42.0912630 139.3472560   9.9738310  42.0482260 138.9765470  10.8552770
  42.2223640 140.2850130  10.1140130  45.7918660 140.9032150   5.5748030
  45.5510020 141.1706710   4.6878550  46.7321300 141.0737880   5.6298890
  47.9973080 127.3664840   9.3304540  47.9361970 127.9586670  10.0799950
  48.9373460 127.2590800   9.1854800  50.6347640 127.0234900   8.9696830
  51.2488050 127.3414190   8.3077910  51.1797200 126.5383490   9.5892690
  57.0522820 142.9226530   6.3758670  56.5581100 143.3195400   5.6585800
  56.4436110 142.2975740   6.7695950  41.1568900 125.7029160   9.0835890
  41.7051890 125.5217210   8.3202000  41.2224210 124.9123270   9.6192200
  41.9300660 142.2934810   7.0936090  41.3360980 142.1619510   7.8326130
  41.9224500 141.4572950   6.6278190  51.3755680 125.5867040   5.2966120
  50.5015520 125.9202150   5.0939050  51.2666430 125.1140220   6.1217990
  52.2827660 127.7937910   6.6807840  51.9541020 126.9789670   6.3009570
  53.2309960 127.7507720   6.5573530  54.7362270 143.5649950   3.6545410
  54.2765240 144.3165760   3.2803430  54.1074730 142.8456420   3.5960210
  41.5612890 139.6593190   6.0444130  40.8346950 139.0398480   5.9770080
  41.6222040 140.0533800   5.1742210  45.1657990 141.8738190   2.8293540
  45.6823010 141.2625550   2.3041800  45.8155370 142.3766970   3.3204550
  47.9053490 142.7646680   3.6562520  48.1931300 142.5100980   2.7795530
  48.4176710 142.2124040   4.2468090  49.1230500 126.5036880   4.2359030
  48.3402290 126.9782380   4.5155790  48.8293430 125.5991710   4.1272210
  53.6751570 127.2059980   2.2808120  54.1159660 127.1505080   1.4329720
  53.4059160 128.1217990   2.3518300  47.9725850 143.6862780  11.0230720
  48.8993160 143.4507050  11.0666680  47.9576280 144.5134780  10.5416750
  45.1589460 126.3507530  10.7872600  44.8773730 126.8541130  10.0233420
  45.5409160 125.5529280  10.4214730  51.7604920 125.7661110  11.3653070
  51.6470370 126.0855720  12.2604590  52.5774660 126.1673620  11.0690350
  54.5403410 142.9132640  10.8471760  55.3328730 142.4181870  10.6397720
  54.8336560 143.5922780  11.4547370  50.6663070 115.0110090 150.6979220
  50.5857120 114.0964700 150.4270930  50.2527490 115.5077160 149.9918930
  48.7981110 116.7889110 152.5788490  48.0223210 116.3089550 152.8687060
  49.4494040 116.1094760 152.4044650  52.8188540 121.1949300 151.3587620
  52.3570070 120.4236540 151.6874790  53.6314090 121.2215370 151.8640070
  41.2238890 112.0610810 147.2406640  40.3355590 112.4026780 147.1386520
  41.5080080 111.8611130 146.3487470  39.1871900 114.6616460 153.1246340
  39.7588010 113.8938660 153.1249980  39.1873440 114.9605220 152.2152950
  49.0451850 123.4807310 150.9791610  48.4263290 123.9364810 150.4086050
  49.9003630 123.6358770 150.5781310  48.2390100 119.4646300 152.5858650
  48.1698380 118.5236240 152.4247780  49.0009960 119.5547710 153.1581220
  49.2695270 112.2716680 152.8127580  49.6460090 111.3988560 152.7001250
  49.1714780 112.6075380 151.9218020  43.4000280 110.6442310 148.2745020
  43.5067030 111.5446040 148.5813780  42.4892640 110.5960280 147.9839670
  53.0519390 109.7667120 149.7455920  53.8729010 109.2763690 149.7881400
  53.0853470 110.3564780 150.4987760  49.9115200 118.3646550 148.3723520
  49.2932470 118.8296000 147.8086240  50.4238450 119.0574030 148.7893030
  53.2880870 111.7067500 152.5183460  52.5836440 111.9952390 153.0986570
  53.6493030 112.5167610 152.1583020  39.2798400 119.0503080 145.7463150
  38.9026380 119.5390180 145.0148050  39.5371470 119.7228360 146.3769680
  46.8887330 107.4519470 151.2048660  47.1962310 106.8966360 150.4884160
  45.9588030 107.5863930 151.0221650  53.7347810 119.8902980 148.5846290
  53.6244140 118.9477310 148.7095710  53.7316060 120.2518620 149.4709050
  49.2768090 115.5168300 147.9408780  48.3497370 115.4505680 148.1697250
  49.4292910 116.4548430 147.8264020  49.2637170 111.7885300 144.9375940
  48.3240840 111.9499260 145.0228400  49.5820430 112.5070980 144.3911930
  53.3065380 117.0788600 148.4444030  52.6877800 116.7408150 147.7970330
  53.2889830 116.4348360 149.1523220  44.8824730 116.0433040 150.7228510
  44.4781730 115.3310290 150.2274410  44.9687850 115.6986280 151.6116550
  45.3506430 119.7300600 152.8867720  45.0534720 119.1246070 152.2075500
  46.3006250 119.7677910 152.7757080  51.4830080 116.3175410 145.4516780
  51.9223360 115.4797840 145.3054600  52.1958500 116.9504810 145.5380920
  49.5925460 121.2571480 149.4198020  50.0321370 121.9995810 149.0053410
  49.5312350 121.4998050 150.3436980  55.0647220 107.5718220 143.7657820
  54.7519880 107.6645050 144.6656890  55.8259690 108.1499250 143.7155250
  41.5829360 114.9378020 148.2235160  41.4626960 115.6640110 147.6116430
  41.2730250 114.1680930 147.7463070  40.4662360 119.8093350 150.4409980
  40.0590440 119.9507940 149.5863580  41.3575370 119.5253510 150.2381190
  52.2595640 124.2440600 146.7761030  52.0996780 123.9543540 147.6742860
  52.0942350 123.4680730 146.2406260  44.7384020 124.0239130 148.5532650
  44.5626500 123.1074670 148.3400450  43.8839760 124.3826420 148.7930450
  51.9621770 121.7528160 145.3359030  51.2686930 121.7505450 144.6761310
  52.7044630 121.3287480 144.9053200  51.5271700 123.3790870 149.4107520
  51.9828650 122.5980250 149.7246140  51.8664220 124.0897690 149.9548700
  44.0493020 108.2813090 151.6058830  43.6061170 109.0622630 151.2743350
  44.6078010 108.6042980 152.3129770  47.1651840 107.9023790 146.4864660
  46.5406020 107.8983660 147.2117970  47.0781960 107.0354750 146.0900630
  43.8407240 113.4046660 149.3340080  43.6148160 113.1883830 150.2386700
  43.0599770 113.8375120 148.9886050  51.0705000 113.4110030 147.9330730
  50.4713890 114.1345830 147.7494350  51.6184610 113.3486810 147.1507180
  49.6769870 112.0473570 149.9634010  50.0699440 112.3645770 149.1502700
  50.0386720 111.1685450 150.0778530  38.7134040 108.6374370 152.1864210
  38.4247090 109.2077230 152.8989190  39.4579800 108.1578820 152.5495440
  38.9004270 112.5794490 143.3966930  38.8178940 113.5225250 143.5381920
  38.5487330 112.4369400 142.5179280  46.7002400 111.3133520 152.4637280
  46.7038460 110.8723470 151.6141820  47.5953520 111.6350850 152.5709100
  42.5504780 111.1960010 151.4231490  42.2104830 111.6735240 152.1798540
  41.7882100 110.7425130 151.0632590  46.7622550 112.3145600 145.4544040
  46.8835370 112.2732080 146.4029860  46.3771060 113.1769750 145.2990770
  45.7744050 114.6246740 144.8527340  45.2060950 114.1764990 144.2263250
  46.4833050 114.9839520 144.3192490  39.8650860 110.1178990 150.3396160
  39.5797780 109.7534660 151.1774780  39.8029720 109.3859450 149.7259300
  43.3191530 118.6204930 147.1253750  42.5453790 118.0802550 146.9652470
  44.0486160 118.1011540 146.7871510  54.0779510 117.6170290 152.9180140
  54.7978630 118.1125580 152.5276250  53.8761330 116.9388180 152.2734010
  49.5389450 109.0108250 147.0609530  48.7254060 108.5121420 146.9854840
  49.3451400 109.8506500 146.6445880  52.2537840 113.3827900 145.3571690
  53.1417460 113.6945130 145.1823030  52.2242930 112.5100150 144.9652270
  43.3628930 118.2885310 150.7632560  43.8807600 117.4853570 150.7089450
  42.9112950 118.2264450 151.6049390  48.2498430 119.5551590 146.0359860
  48.5914130 120.2993820 145.5403180  47.4211140 119.8682710 146.3984690
  54.5252110 114.6939740 144.8251550  54.4415830 115.1253960 143.9747990
  55.2446300 115.1538090 145.2578370  55.5539360 121.5482000 147.5533680
  54.9115520 120.8937620 147.8277400  55.1670020 121.9537090 146.7774350
  51.1325840 118.8767430 151.4005370  51.4849660 118.2795560 150.7406740
  50.2488170 118.5511660 151.5713620  47.2189120 119.6365120 148.8075780
  47.9060250 120.1834330 149.1883370  46.4321540 120.1805850 148.8425390
  39.3581520 115.2537940 144.2992860  40.2276370 115.5362740 144.5828780
  38.8671840 116.0673810 144.1841670  46.5216330 116.6411150 148.4201140
  46.9779110 117.4516400 148.6461330  46.1704540 116.3234290 149.2519630
  42.4228110 106.9848800 148.8923660  42.2942740 106.9766700 149.8408580
  41.5990130 107.3231890 148.5414670  53.9436740 120.4398460 144.0910030
  53.7174320 119.7228900 144.6834670  53.5532940 120.1910900 143.2531780
  39.7252770 124.4665320 144.8654490  40.0850410 125.0654660 144.2111760
  39.5845110 125.0125210 145.6389520  53.5252990 118.3570400 145.7524190
  53.2374690 118.8183090 146.5402070  54.3205160 117.8968170 146.0208410
  45.7421390 121.8496520 145.6828160  45.7331490 122.5826210 145.0672670
  44.8219750 121.6028100 145.7755120  41.3428030 117.0711410 146.4274920
  40.7355980 117.8110310 146.4370220  41.8177380 117.1610770 145.6013120
  54.2822850 110.1919170 146.9119370  53.6536010 110.2964840 146.1977600
  53.7874770 110.4115950 147.7013250  48.7280990 121.9124760 144.3453350
  48.8292970 121.7088750 143.4155330  47.8282730 121.6583040 144.5501130
  46.2506880 112.4705120 148.3277250  45.5423030 112.9391460 148.7690860
  46.5351360 111.8127130 148.9622440  50.2822310 109.1955780 149.7673040
  50.1590090 109.2141910 148.8182550  51.2306870 109.2434720 149.8871440
  47.3699100 124.4311080 149.0401020  47.6240600 124.3932470 148.1180390
  46.4211580 124.3044410 149.0329270  44.4541900 110.7790200 145.7027960
  45.3032430 111.2160350 145.6368150  44.0873170 111.0910460 146.5300020
  53.3751680 115.3502960 150.6159530  52.4341820 115.3653190 150.7907220
  53.6895750 114.5638920 151.0619830  43.3533320 117.0322560 144.1763490
  44.1196590 116.9203920 144.7388920  43.4308010 116.3360530 143.5240260
  42.0480080 114.4647630 144.8596380  42.1283670 113.5175140 144.9713780
  42.9399830 114.7954510 144.9657040  55.3777260 122.5211810 152.2913790
  55.5024680 123.3442980 152.7637600  56.2442820 122.3102540 151.9437940
  42.8494790 124.6143020 151.9630920  43.5857270 124.0658480 152.2339490
  43.2335710 125.4799030 151.8236910  39.7340270 120.6816590 147.8372430
  38.8080050 120.9237730 147.8277840  40.1996700 121.5090850 147.7157180
  45.9597100 123.7873330 143.7856490  46.7525710 124.0762160 143.3338280
  45.4401450 123.3565500 143.1068970  55.0127270 123.0143460 145.2093230
  54.7268780 122.6008600 144.3947410  54.8146820 123.9431170 145.0893750
  46.4774500 119.0076740 143.6498840  46.3725140 118.3929090 144.3760220
  46.3098720 118.4842630 142.8661850  49.7177230 118.0696770 144.2540830
  49.1687330 118.5166070 144.8983570  50.3396490 117.5646020 144.7778500
  45.3852350 117.0287690 146.1506130  45.8068770 116.8627560 146.9937520
  45.5103190 116.2187920 145.6561270  47.8979990 116.0525300 143.3983230
  48.4185650 115.3374320 143.0324380  48.5448390 116.6911170 143.6983740
  44.2811250 113.1020920 143.0964290  44.0800310 112.2388280 143.4577630
  44.1103300 113.0154280 142.1585890  51.7599560 107.9129150 145.6251170
  52.0401850 107.0697050 145.9810590  50.9865290 108.1452260 146.1389920
  43.0794050 110.2021540 143.0842170  43.3819950 110.2088970 142.1761320
  43.8188640 109.8519400 143.5809830  46.2978980 109.1456160 144.0698370
  45.9500980 108.4680150 143.4900820  46.4991750 108.6845670 144.8841760
  48.4628020 124.1336910 145.6884970  49.3578810 124.4721880 145.7103730
  48.4945650 123.4116320 145.0609250  42.1024180 119.5063960 143.9171970
  42.5399050 120.0493630 144.5729550  42.5871910 118.6810910 143.9268310
  39.3169980 122.2952990 151.3692230  39.6472990 121.4274050 151.1370870
  39.7460980 122.5011510 152.1997190  43.9131900 120.6262000 149.0294200
  43.6127440 120.5026970 149.9298110  43.8069390 119.7670590 148.6209930
  56.6823820 120.4058400 143.7320880  55.8516780 120.4735050 144.2028110
  56.8595650 121.2962520 143.4287740  56.1380280 117.1505880 146.2355080
  56.8999190 117.7202530 146.3414770  56.1534650 116.5833080 147.0063390
  39.6384620 115.6743810 150.4662740  38.9833460 115.4055450 149.8222440
  40.4762570 115.5648290 150.0164720  57.1440250 118.0055980 151.0797010
  57.5149080 117.2223300 150.6732980  57.7842180 118.6945080 150.9014310
  56.1899450 117.4440250 143.3927600  56.4648290 118.3519130 143.2646820
  56.0010190 117.3802780 144.3289590  52.5875060 110.4685100 144.6881230
  53.0059940 110.2816080 143.8477890  52.2811120 109.6164150 144.9984160
  56.0864790 115.3809240 148.3857030  55.7108390 114.6137170 147.9538320
  55.3567910 115.7631940 148.8731960  38.8522700 112.8842740 146.4088070
  37.9486780 113.1472940 146.2339730  39.3363320 113.1553910 145.6288030
  55.3615750 113.6066730 151.6864270  55.8853230 113.1129380 151.0554440
  55.9475170 113.7417090 152.4311840  41.3949910 111.9408280 144.3182450
  42.1041610 111.5191500 143.8329730  40.6789850 112.0083510 143.6865800
  41.0424070 107.9947610 143.3585100  41.7652200 108.5356550 143.6766320
  41.3148590 107.7211030 142.4826640  54.8515720 112.8640080 147.6256680
  55.3474840 112.6310950 148.4105560  54.6531790 112.0251920 147.2094320
  56.2802880 111.5001030 150.1594360  56.1702160 111.3457070 151.0976630
  57.0410470 110.9721970 149.9169770  57.1693150 109.3308950 143.4000500
  58.0942460 109.1990130 143.1918790  57.1468940 109.4101770 144.3536950
  57.2431640 110.1019610 146.0257210  56.4483140 110.0364730 146.5550120
  57.4474920 111.0370250 146.0142560  54.1850060 124.1411160 150.0195600
  54.7809130 123.8195730 149.3430020  54.4428210 123.6682980 150.8108870
  53.6751570 108.4316490 152.4756040  54.1159660 108.3761590 151.6277640
  53.4059160 109.3474500 152.5466220  55.5390140 108.0631730 150.4864860
  55.4778540 107.1192950 150.3395880  56.3182170 108.1711820 151.0318320
  39.8442890 124.2024090 149.4488810  39.6764930 123.5694770 150.1470700
  38.9777400 124.4083490 149.0983000  40.4670910 108.0340870 146.9520670
  41.2250270 108.1469750 146.3784700  40.0048080 108.8710070 146.9064100
  47.0084720 110.1480140 149.9422980  46.1959230 109.7737030 149.6018860
  47.5126360 109.3925220 150.2444170  51.5109700 106.8122590 151.1806050
  52.1139070 107.3842800 151.6554570  50.7702690 107.3762030 150.9579950
  54.6544300 107.2144150 146.4546330  54.8494930 108.1127600 146.7213760
  53.8674170 106.9831230 146.9479280  41.4505590 122.8957320 146.8938950
  40.9253210 123.2765350 146.1900910  41.3750170 123.5208090 147.6148660
  42.8396060 108.5604920 145.4922640  43.3688820 107.7734720 145.3630590
  43.4724380 109.2396110 145.7258170  45.0333900 108.2980060 148.5468030
  44.4036640 107.5967370 148.7138160  44.4939040 109.0584190 148.3301190
  56.2070910 124.4544860 148.2152890  56.3823100 123.7682600 147.5713810
  55.5092480 124.9791910 147.8229560  44.0498560 124.8439700 145.7688200
  44.7817380 124.5598980 145.2212090  44.3092230 124.6052980 146.6587580
  43.2113350 120.9604430 145.7734530  42.5822230 121.4289530 146.3220360
  43.3261180 120.1153650 146.2080720  50.6663070 115.0110090 131.9235730
  50.5857120 114.0964700 131.6527440  50.2527490 115.5077160 131.2175440
  48.7981110 116.7889110 133.8045000  48.0223210 116.3089550 134.0943570
  49.4494040 116.1094760 133.6301160  42.8146940 117.1008920 134.6820760
  41.9831820 116.8457630 135.0817270  43.4227920 117.1719690 135.4178680
  52.8188540 121.1949300 132.5844130  52.3570070 120.4236540 132.9131300
  53.6314090 121.2215370 133.0896580  42.7948200 121.1349010 134.8778780
  43.0976240 120.2446750 134.6989000  43.5391790 121.6919230 134.6501030
  41.2238890 112.0610810 128.4663150  40.3355590 112.4026780 128.3643030
  41.5080080 111.8611130 127.5743980  39.1871900 114.6616460 134.3502850
  39.7588010 113.8938660 134.3506490  39.1873440 114.9605220 133.4409460
  49.0451850 123.4807310 132.2048120  48.4263290 123.9364810 131.6342560
  49.9003630 123.6358770 131.8037820  48.2390100 119.4646300 133.8115160
  48.1698380 118.5236240 133.6504290  49.0009960 119.5547710 134.3837730
  40.4296770 110.0700820 136.1371780  40.2499610 109.1726570 136.4174540
  40.0276850 110.6172690 136.8118730  49.2695270 112.2716680 134.0384090
  49.6460090 111.3988560 133.9257760  49.1714780 112.6075380 133.1474530
  43.4000280 110.6442310 129.5001530  43.5067030 111.5446040 129.8070290
  42.4892640 110.5960280 129.2096180  53.0519390 109.7667120 130.9712430
  53.8729010 109.2763690 131.0137910  53.0853470 110.3564780 131.7244270
  41.0483440 112.5661320 134.7454120  41.7293550 112.8299690 135.3641520
  40.7331490 111.7262190 135.0792130  45.2408010 113.6128680 133.8326710
  45.7486230 114.1109650 134.4731730  45.7721250 112.8363880 133.6566070
  57.3418940 111.7833870 137.5356060  56.6371110 112.1715580 137.0171170
  57.6076860 112.4784160 138.1376990  43.5244110 108.2527240 138.0990130
  43.5262550 108.7699630 137.2936030  42.6948420 107.7757420 138.0760060
  49.9115200 118.3646550 129.5980030  49.2932470 118.8296000 129.0342750
  50.4238450 119.0574030 130.0149540  44.7746960 117.8922420 136.2763630
  44.4416340 118.5191340 136.9184700  44.9513640 118.4184300 135.4965300
  53.2880870 111.7067500 133.7439970  52.5836440 111.9952390 134.3243080
  53.6493030 112.5167610 133.3839530  43.2059440 109.9637200 136.1060580
  43.5476250 110.8079250 135.8114450  42.2675250 110.1120940 136.2225920
  43.9866060 119.8603220 138.0912810  44.6040060 120.5354300 137.8097260
  43.1259180 120.2691200 138.0000310  39.2798400 119.0503080 126.9719660
  38.9026380 119.5390180 126.2404560  39.5371470 119.7228360 127.6026190
  54.9043650 121.3242630 136.0067450  54.2207170 121.9941740 135.9984120
  55.4437940 121.5223280 135.2412310  56.3567790 111.1522290 134.1349180
  55.4092700 111.1861270 134.2664610  56.6817780 111.9661240 134.5198540
  46.8887330 107.4519470 132.4305170  47.1962310 106.8966360 131.7140670
  45.9588030 107.5863930 132.2478160  52.4402390 123.1686760 134.7212630
  52.4529550 122.7649050 133.8534890  51.8877610 123.9434050 134.6174060
  53.7347810 119.8902980 129.8102800  53.6244140 118.9477310 129.9352220
  53.7316060 120.2518620 130.6965560  51.8387830 118.0716600 136.0495240
  52.2556620 117.8576710 135.2148700  52.5627650 118.3289390 136.6203860
  49.2768090 115.5168300 129.1665290  48.3497370 115.4505680 129.3953760
  49.4292910 116.4548430 129.0520530  49.2637170 111.7885300 126.1632450
  48.3240840 111.9499260 126.2484910  49.5820430 112.5070980 125.6168440
  55.7849930 116.4703820 136.1411480  54.9568560 116.5396910 135.6661610
  56.3800410 117.0558130 135.6727310  53.3065380 117.0788600 129.6700540
  52.6877800 116.7408150 129.0226840  53.2889830 116.4348360 130.3779730
  52.7491940 113.2573140 137.0866350  52.3363120 114.0826850 137.3406340
  52.0167890 112.6718180 136.8942710  44.8824730 116.0433040 131.9485020
  44.4781730 115.3310290 131.4530920  44.9687850 115.6986280 132.8373060
  45.3506430 119.7300600 134.1124230  45.0534720 119.1246070 133.4332010
  46.3006250 119.7677910 134.0013590  43.5953350 112.8176250 135.7284060
  44.1467940 112.9271590 134.9537310  44.1096860 113.1913850 136.4439290
  53.4392040 123.3032470 137.7747330  52.9622600 124.1104660 137.5819940
  52.7553830 122.6510800 137.9273540  44.4424860 119.4682290 140.7632030
  43.5453390 119.6922260 141.0105430  44.4677730 119.5917230 139.8143430
  43.2696080 116.3395610 139.3389400  43.1303850 117.2118410 139.7076800
  42.3877440 115.9968420 139.1937340  49.5925460 121.2571480 130.6454530
  50.0321370 121.9995810 130.2309920  49.5312350 121.4998050 131.5693490
  45.0676430 122.2817310 141.5474550  45.0391860 122.6860260 140.6802980
  44.9041400 121.3527670 141.3846150  55.0647220 107.5718220 124.9914330
  54.7519880 107.6645050 125.8913400  55.8259690 108.1499250 124.9411760
  41.5829360 114.9378020 129.4491670  41.4626960 115.6640110 128.8372940
  41.2730250 114.1680930 128.9719580  57.0191250 123.0644410 142.8438720
  57.4950970 123.5427300 143.5227800  57.6398410 122.9961900 142.1184220
  39.2214730 118.1093160 135.2560310  39.2995150 118.2441930 134.3116030
  39.8356410 117.4009050 135.4488430  40.4662360 119.8093350 131.6666490
  40.0590440 119.9507940 130.8120090  41.3575370 119.5253510 131.4637700
  56.4224500 120.2557260 140.0038730  56.5487560 120.0169140 139.0855910
  56.4645880 119.4241800 140.4760810  50.2841240 123.9585260 138.5733540
  50.7985910 123.8693270 139.3755970  49.4410320 124.3044960 138.8661450
  52.2595640 124.2440600 128.0017540  52.0996780 123.9543540 128.8999370
  52.0942350 123.4680730 127.4662770  44.7384020 124.0239130 129.7789160
  44.5626500 123.1074670 129.5656960  43.8839760 124.3826420 130.0186960
  51.9621770 121.7528160 126.5615540  51.2686930 121.7505450 125.9017820
  52.7044630 121.3287480 126.1309710  51.5271700 123.3790870 130.6364030
  51.9828650 122.5980250 130.9502650  51.8664220 124.0897690 131.1805210
  56.2748510 112.3089720 140.9688470  55.6592780 112.8169390 140.4403930
  55.9544930 111.4088050 140.9114410  39.2774250 119.1507330 137.7954770
  39.4405290 118.6812690 136.9774140  39.7426700 118.6430890 138.4603610
  44.0493020 108.2813090 132.8315340  43.6061170 109.0622630 132.4999860
  44.6078010 108.6042980 133.5386280  48.3362830 111.1481610 138.4350660
  47.8742200 111.3564630 139.2470600  47.9340940 110.3340960 138.1321330
  53.3367340 112.3690560 139.5647320  52.4860930 112.0696310 139.8856390
  53.1769130 112.6132570 138.6531140  50.4317050 113.8692310 141.6646110
  50.7570460 113.0356060 141.3248340  51.2197380 114.3920830 141.8124440
  47.1651840 107.9023790 127.7121170  46.5406020 107.8983660 128.4374480
  47.0781960 107.0354750 127.3157140  46.0868920 108.8260420 134.6904940
  46.3841250 109.7323250 134.6096960  46.6354480 108.3379200 134.0764510
  43.8407240 113.4046660 130.5596590  43.6148160 113.1883830 131.4643210
  43.0599770 113.8375120 130.2142560  51.0705000 113.4110030 129.1587240
  50.4713890 114.1345830 128.9750860  51.6184610 113.3486810 128.3763690
  46.2806450 114.3032240 141.2256860  46.1850050 113.3626970 141.0757260
  47.1238430 114.5247310 140.8304930  49.6769870 112.0473570 131.1890520
  50.0699440 112.3645770 130.3759210  50.0386720 111.1685450 131.3035040
  41.4116990 110.7145910 139.3790640  41.0180380 111.5621120 139.5863420
  40.7235390 110.0772280 139.5699280  47.9862040 110.7980880 142.4487380
  47.2960360 110.6053080 143.0833470  48.7294340 111.0815520 142.9811680
  38.7134040 108.6374370 133.4120720  38.4247090 109.2077230 134.1245700
  39.4579800 108.1578820 133.7751950  38.9004270 112.5794490 124.6223440
  38.8178940 113.5225250 124.7638430  38.5487330 112.4369400 123.7435790
  50.2625010 114.6379320 135.2841300  49.5306130 115.1466130 135.6331400
  49.8649350 113.8209300 134.9830080  46.7002400 111.3133520 133.6893790
  46.7038460 110.8723470 132.8398330  47.5953520 111.6350850 133.7965610
  42.5504780 111.1960010 132.6488000  42.2104830 111.6735240 133.4055050
  41.7882100 110.7425130 132.2889100  46.7622550 112.3145600 126.6800550
  46.8835370 112.2732080 127.6286370  46.3771060 113.1769750 126.5247280
  50.7250920 110.0913000 134.6964240  50.7423660 110.5421650 135.5406090
  50.4766500 109.1918640 134.9097680  45.7744050 114.6246740 126.0783850
  45.2060950 114.1764990 125.4519760  46.4833050 114.9839520 125.5449000
  54.1521670 107.5045180 140.5350620  54.4767440 106.7734840 141.0608600
  54.1878180 107.1858820 139.6331610  40.8513230 118.5258760 139.9550580
  40.4668020 117.8852430 140.5533540  41.1625420 119.2294880 140.5245310
  47.0010370 115.3735300 135.4359200  47.3680500 114.8993870 136.1820540
  46.8115430 116.2476870 135.7767540  39.8650860 110.1178990 131.5652670
  39.5797780 109.7534660 132.4031290  39.8029720 109.3859450 130.9515810
  44.7909740 114.4143940 137.7543410  44.4866810 115.2935920 137.9793770
  45.7456200 114.4743730 137.7900850  43.3191530 118.6204930 128.3510260
  42.5453790 118.0802550 128.1908980  44.0486160 118.1011540 128.0128020
  54.0779510 117.6170290 134.1436650  54.7978630 118.1125580 133.7532760
  53.8761330 116.9388180 133.4990520  49.5389450 109.0108250 128.2866040
  48.7254060 108.5121420 128.2111350  49.3451400 109.8506500 127.8702390
  49.4598310 117.6879350 140.0305650  49.3935620 116.7675020 139.7763240
  48.8303450 117.7854790 140.7450290  43.3628930 118.2885310 131.9889070
  43.8807600 117.4853570 131.9345960  42.9112950 118.2264450 132.8305900
  48.2498430 119.5551590 127.2616370  48.5914130 120.2993820 126.7659690
  47.4211140 119.8682710 127.6241200  40.8473470 115.2546680 138.9014770
  40.4888410 115.9200530 139.4888110  40.5528030 114.4230230 139.2727390
  44.0486590 115.7130920 141.7854320  43.7486730 115.8588100 140.8882140
  44.8197830 115.1536210 141.6927710  49.3915040 120.5099920 139.7809450
  49.4059580 119.5780880 139.5628360  48.6840140 120.5959680 140.4199220
  55.6026250 117.1507260 139.1278030  54.8774440 117.7436040 138.9307420
  56.1301710 117.1430800 138.3291400  55.5539360 121.5482000 128.7790190
  54.9115520 120.8937620 129.0533910  55.1670020 121.9537090 128.0030860
  51.1325840 118.8767430 132.6261880  51.4849660 118.2795560 131.9663250
  50.2488170 118.5511660 132.7970130  47.2189120 119.6365120 130.0332290
  47.9060250 120.1834330 130.4139880  46.4321540 120.1805850 130.0681900
  39.3581520 115.2537940 125.5249370  40.2276370 115.5362740 125.8085290
  38.8671840 116.0673810 125.4098180  46.5216330 116.6411150 129.6457650
  46.9779110 117.4516400 129.8717840  46.1704540 116.3234290 130.4776140
  48.8248940 122.1517490 136.8749950  49.4691160 122.3576870 137.5523370
  49.1878380 121.3905890 136.4220800  42.4228110 106.9848800 130.1180170
  42.2942740 106.9766700 131.0665090  41.5990130 107.3231890 129.7671180
  50.0981020 120.1549840 135.5927400  50.7403250 119.4543000 135.7059570
  50.6230370 120.9348280 135.4124290  53.9436740 120.4398460 125.3166540
  53.7174320 119.7228900 125.9091180  53.5532940 120.1910900 124.4788290
  51.8718640 120.9544740 138.7963460  52.2074880 121.5411430 139.4741380
  50.9518980 120.8237450 139.0261250  39.7252770 124.4665320 126.0911000
  40.0850410 125.0654660 125.4368270  39.5845110 125.0125210 126.8646030
  39.4222040 108.7439920 139.5786870  38.7080560 108.9436840 140.1839480
  39.8417080 107.9679490 139.9501670  53.5252990 118.3570400 126.9780700
  53.2374690 118.8183090 127.7658580  54.3205160 117.8968170 127.2464920
  39.7094630 122.7320180 140.5653400  39.8185750 121.7914920 140.4248790
  39.0575190 122.9974930 139.9167130  47.7007220 121.0036070 141.9651520
  47.3804090 120.2845310 142.5097210  47.0265580 121.6791140 142.0387580
  45.7421390 121.8496520 126.9084670  45.7331490 122.5826210 126.2929180
  44.8219750 121.6028100 127.0011630  41.3428030 117.0711410 127.6531430
  40.7355980 117.8110310 127.6626730  41.8177380 117.1610770 126.8269630
  50.9160820 111.2362230 137.3288320  51.2841640 110.4157440 137.6567890
  50.0559020 111.2964120 137.7443970  54.2822850 110.1919170 128.1375880
  53.6536010 110.2964840 127.4234110  53.7874770 110.4115950 128.9269760
  48.7280990 121.9124760 125.5709860  48.8292970 121.7088750 124.6411840
  47.8282730 121.6583040 125.7757640  46.2506880 112.4705120 129.5533760
  45.5423030 112.9391460 129.9947370  46.5351360 111.8127130 130.1878950
  47.8762810 113.8901820 137.5526290  48.3748060 114.3647640 138.2178140
  48.0185760 112.9665340 137.7596320  50.2822310 109.1955780 130.9929550
  50.1590090 109.2141910 130.0439060  51.2306870 109.2434720 131.1127950
  47.3699100 124.4311080 130.2657530  47.6240600 124.3932470 129.3436900
  46.4211580 124.3044410 130.2585780  44.4541900 110.7790200 126.9284470
  45.3032430 111.2160350 126.8624660  44.0873170 111.0910460 127.7556530
  55.0829670 110.1069780 138.3954680  54.5803270 110.8475180 138.7348490
  55.8986330 110.4953780 138.0791470  53.3751680 115.3502960 131.8416040
  52.4341820 115.3653190 132.0163730  53.6895750 114.5638920 132.2876340
  43.3533320 117.0322560 125.4020000  44.1196590 116.9203920 125.9645430
  43.4308010 116.3360530 124.7496770  42.0480080 114.4647630 126.0852890
  42.1283670 113.5175140 126.1970290  42.9399830 114.7954510 126.1913550
  55.3777260 122.5211810 133.5170300  55.5024680 123.3442980 133.9894110
  56.2442820 122.3102540 133.1694450  42.8494790 124.6143020 133.1887430
  43.5857270 124.0658480 133.4596000  43.2335710 125.4799030 133.0493420
  39.7340270 120.6816590 129.0628940  38.8080050 120.9237730 129.0534350
  40.1996700 121.5090850 128.9413690  41.8553070 123.7989090 142.3773010
  42.6565800 124.1201140 142.7908410  41.3404890 123.4384670 143.0992920
  45.9597100 123.7873330 125.0113000  46.7525710 124.0762160 124.5594790
  45.4401450 123.3565500 124.3325480  50.6917700 119.9068960 142.3248420
  50.0855860 119.9300560 141.5844170  50.3871810 119.1752000 142.8615670
  52.1218070 123.6349250 140.9357830  53.0739820 123.5507270 140.8858070
  51.9746290 124.2990960 141.6091620  55.0127270 123.0143460 126.4349740
  54.7268780 122.6008600 125.6203920  54.8146820 123.9431170 126.3150260
  39.5750880 116.2862550 141.3209060  40.0789900 115.7069830 141.8925290
  38.8358300 116.5702780 141.8585430  46.4774500 119.0076740 124.8755350
  46.3725140 118.3929090 125.6016730  46.3098720 118.4842630 124.0918360
  46.6288820 117.6933540 140.8544580  45.8634490 118.2618540 140.7699250
  46.8104780 117.4009750 139.9612810  49.7177230 118.0696770 125.4797340
  49.1687330 118.5166070 126.1240080  50.3396490 117.5646020 126.0035010
  53.7712170 119.4238870 141.4119600  54.5121640 119.7614630 140.9087060
  53.0084850 119.5930930 140.8589370  41.6073960 114.4292140 142.2159130
  41.6479300 114.1306010 143.1244360  42.4619460 114.8299750 142.0566650
  45.3852350 117.0287690 127.3762640  45.8068770 116.8627560 128.2194030
  45.5103190 116.2187920 126.8817780  43.5479770 113.0084240 140.1833620
  43.0176230 112.5175190 139.5556960  44.2167840 113.4368440 139.6491550
  47.8979990 116.0525300 124.6239740  48.4185650 115.3374320 124.2580890
  48.5448390 116.6911170 124.9240250  52.4457830 117.4753700 139.9474810
  52.8598850 117.6298780 140.7965230  51.5108830 117.6008920 140.1100590
  52.9180000 114.8149860 141.9513960  53.5000770 114.0602180 141.8634440
  53.0941770 115.3457300 141.1745440  44.0352070 109.9746610 140.2630910
  43.9408940 109.3567360 139.5381780  43.4549460 110.7012900 140.0360820
  46.8013510 108.5319850 137.2958300  46.3530810 108.5544110 136.4503850
  46.1678710 108.1338870 137.8928600  47.2073060 117.4274180 137.9170740
  47.6261170 118.2706910 137.7446980  46.2881690 117.5646220 137.6877520
  49.5436960 115.1590360 139.3008580  49.6633170 114.5631500 140.0403420
  50.4030960 115.1960050 138.8809880  51.8824860 115.7127550 137.8771090
  51.3560080 116.2370170 137.2736230  52.2256200 116.3454940 138.5080820
  44.2811250 113.1020920 124.3220800  44.0800310 112.2388280 124.6834140
  44.1103300 113.0154280 123.3842400  45.0580480 123.7327190 139.0328470
  44.5201570 124.4573250 138.7137170  45.3114440 123.2557530 138.2425810
  46.3105730 111.7011710 140.5584400  46.9005420 111.3927560 141.2462220
  45.4925970 111.2291460 140.7144300  51.1299160 111.3177520 140.7917420
  50.4414680 110.6559060 140.7267410  51.8505180 110.8715790 141.2365880
  51.7599560 107.9129150 126.8507680  52.0401850 107.0697050 127.2067100
  50.9865290 108.1452260 127.3646430  43.0794050 110.2021540 124.3098680
  43.3819950 110.2088970 123.4017830  43.8188640 109.8519400 124.8066340
  47.9142690 124.9678400 139.2915120  47.8401390 125.8713540 139.5987490
  47.0121530 124.6490300 139.2637190  48.4628020 124.1336910 126.9141480
  49.3578810 124.4721880 126.9360240  48.4945650 123.4116320 126.2865760
  42.1024180 119.5063960 125.1428480  42.5399050 120.0493630 125.7986060
  42.5871910 118.6810910 125.1524820  39.3169980 122.2952990 132.5948740
  39.6472990 121.4274050 132.3627380  39.7460980 122.5011510 133.4253700
  43.9131900 120.6262000 130.2550710  43.6127440 120.5026970 131.1554620
  43.8069390 119.7670590 129.8466440  39.8060190 123.1623580 135.3330370
  39.3691180 123.3424380 136.1654520  40.3737870 123.9198200 135.1912090
  55.4422370 122.6640580 139.6207680  54.8424360 122.7233140 138.8771600
  55.5716270 121.7245560 139.7504530  56.6823820 120.4058400 124.9577390
  55.8516780 120.4735050 125.4284620  56.8595650 121.2962520 124.6544250
  56.1380280 117.1505880 127.4611590  56.8999190 117.7202530 127.5671280
  56.1534650 116.5833080 128.2319900  39.6384620 115.6743810 131.6919250
  38.9833460 115.4055450 131.0478950  40.4762570 115.5648290 131.2421230
  57.1440250 118.0055980 132.3053520  57.5149080 117.2223300 131.8989490
  57.7842180 118.6945080 132.1270820  54.1274010 119.3892560 137.7183840
  53.3133850 119.8189720 137.9809630  54.5348210 120.0010970 137.1052890
  56.1899450 117.4440250 124.6184110  56.4648290 118.3519130 124.4903330
  56.0010190 117.3802780 125.5546100  52.5875060 110.4685100 125.9137740
  53.0059940 110.2816080 125.0734400  52.2811120 109.6164150 126.2240670
  56.0864790 115.3809240 129.6113540  55.7108390 114.6137170 129.1794830
  55.3567910 115.7631940 130.0988470  40.6760550 116.0596380 136.2322590
  41.0433590 115.9723780 137.1118610  40.1071370 115.2962930 136.1329450
  55.4764410 114.5280760 139.2453060  55.2450500 114.2993510 138.3451010
  55.7368960 115.4480310 139.1997950  40.2276550 112.9705470 140.1381010
  39.3332600 112.9372230 140.4774720  40.7674100 113.1692260 140.9032260
  53.9152480 109.7537190 142.0232760  54.7922660 109.7620590 142.4066760
  53.9273320 109.0168030 141.4125110  38.8522700 112.8842740 127.6344580
  37.9486780 113.1472940 127.4596240  39.3363320 113.1553910 126.8544540
  55.3615750 113.6066730 132.9120780  55.8853230 113.1129380 132.2810950
  55.9475170 113.7417090 133.6568350  55.5405470 113.6906600 136.4340330
  54.5908180 113.6570140 136.5485320  55.7218480 114.6006710 136.1990100
  41.3949910 111.9408280 125.5438960  42.1041610 111.5191500 125.0586240
  40.6789850 112.0083510 124.9122310  54.8515720 112.8640080 128.8513190
  55.3474840 112.6310950 129.6362070  54.6531790 112.0251920 128.4350830
  40.7316260 107.2453800 134.4864230  41.3792450 106.6951180 134.0459390
  41.1518100 107.4996950 135.3080040  56.2802880 111.5001030 131.3850870
  56.1702160 111.3457070 132.3233140  57.0410470 110.9721970 131.1426280
  54.6268600 107.4395160 137.8433870  55.2640820 108.0529300 138.2093060
  54.7743490 107.4755820 136.8983100  57.1693150 109.3308950 124.6257010
  58.0942460 109.1990130 124.4175300  57.1468940 109.4101770 125.5793460
  57.2431640 110.1019610 127.2513720  56.4483140 110.0364730 127.7806630
  57.4474920 111.0370250 127.2399070  54.1850060 124.1411160 131.2452110
  54.7809130 123.8195730 130.5686530  54.4428210 123.6682980 132.0365380
  40.4848260 107.4009470 137.2289550  40.1363080 107.8573290 137.9947730
  40.1535960 106.5066600 137.3111980  42.0912630 120.5729070 141.3942740
  42.0482260 120.2021980 142.2757200  42.2223640 121.5106640 141.5344560
  45.7918660 122.1288660 136.9952460  45.5510020 122.3963220 136.1082980
  46.7321300 122.2994390 137.0503320  47.9973080 108.5921350 140.7508970
  47.9361970 109.1843180 141.5004380  48.9373460 108.4847310 140.6059230
  50.6347640 108.2491410 140.3901260  51.2488050 108.5670700 139.7282340
  51.1797200 107.7640000 141.0097120  57.0522820 124.1483040 137.7963100
  56.5581100 124.5451910 137.0790230  56.4436110 123.5232250 138.1900380
  41.1568900 106.9285670 140.5040320  41.7051890 106.7473720 139.7406430
  41.2224210 106.1379780 141.0396630  41.9300660 123.5191320 138.5140520
  41.3360980 123.3876020 139.2530560  41.9224500 122.6829460 138.0482620
  51.3755680 106.8123550 136.7170550  50.5015520 107.1458660 136.5143480
  51.2666430 106.3396730 137.5422420  52.2827660 109.0194420 138.1012270
  51.9541020 108.2046180 137.7214000  53.2309960 108.9764230 137.9777960
  54.7362270 124.7906460 135.0749840  54.2765240 125.5422270 134.7007860
  54.1074730 124.0712930 135.0164640  41.5612890 120.8849700 137.4648560
  40.8346950 120.2654990 137.3974510  41.6222040 121.2790310 136.5946640
  45.1657990 123.0994700 134.2497970  45.6823010 122.4882060 133.7246230
  45.8155370 123.6023480 134.7408980  47.9053490 123.9903190 135.0766950
  48.1931300 123.7357490 134.1999960  48.4176710 123.4380550 135.6672520
  49.1230500 107.7293390 135.6563460  48.3402290 108.2038890 135.9360220
  48.8293430 106.8248220 135.5476640  53.6751570 108.4316490 133.7012550
  54.1159660 108.3761590 132.8534150  53.4059160 109.3474500 133.7722730
  55.5390140 108.0631730 131.7121370  55.4778540 107.1192950 131.5652390
  56.3182170 108.1711820 132.2574830  39.8442890 124.2024090 130.6745320
  39.6764930 123.5694770 131.3727210  38.9777400 124.4083490 130.3239510
  40.4670910 108.0340870 128.1777180  41.2250270 108.1469750 127.6041210
  40.0048080 108.8710070 128.1320610  47.0084720 110.1480140 131.1679490
  46.1959230 109.7737030 130.8275370  47.5126360 109.3925220 131.4700680
  51.5109700 106.8122590 132.4062560  52.1139070 107.3842800 132.8811080
  50.7702690 107.3762030 132.1836460  54.6544300 107.2144150 127.6802840
  54.8494930 108.1127600 127.9470270  53.8674170 106.9831230 128.1735790
  41.4505590 122.8957320 128.1195460  40.9253210 123.2765350 127.4157420
  41.3750170 123.5208090 128.8405170  42.8396060 108.5604920 126.7179150
  43.3688820 107.7734720 126.5887100  43.4724380 109.2396110 126.9514680
  45.0333900 108.2980060 129.7724540  44.4036640 107.5967370 129.9394670
  44.4939040 109.0584190 129.5557700  47.9725850 124.9119290 142.4435150
  48.8993160 124.6763560 142.4871110  47.9576280 125.7391290 141.9621180
  56.2070910 124.4544860 129.4409400  56.3823100 123.7682600 128.7970320
  55.5092480 124.9791910 129.0486070  45.1589460 107.5764040 142.2077030
  44.8773730 108.0797640 141.4437850  45.5409160 106.7785790 141.8419160
  44.0498560 124.8439700 126.9944710  44.7817380 124.5598980 126.4468600
  44.3092230 124.6052980 127.8844090  43.2113350 120.9604430 126.9991040
  42.5822230 121.4289530 127.5476870  43.3261180 120.1153650 127.4337230
  51.7604920 106.9917620 142.7857500  51.6470370 107.3112230 143.6809020
  52.5774660 107.3930130 142.4894780  54.5403410 124.1389150 142.2676190
  55.3328730 123.6438380 142.0602150  54.8336560 124.8179290 142.8751800
  52.8188540 121.1949300 113.8100640  52.3570070 120.4236540 114.1387810
  53.6314090 121.2215370 114.3153090  41.2238890 112.0610810 109.6919660
  40.3355590 112.4026780 109.5899540  41.5080080 111.8611130 108.8000490
  39.1871900 114.6616460 115.5759360  39.7588010 113.8938660 115.5763000
  39.1873440 114.9605220 114.6665970  49.0451850 123.4807310 113.4304630
  48.4263290 123.9364810 112.8599070  49.9003630 123.6358770 113.0294330
  48.2390100 119.4646300 115.0371670  48.1698380 118.5236240 114.8760800
  49.0009960 119.5547710 115.6094240  40.4296770 110.0700820 117.3628290
  40.2499610 109.1726570 117.6431050  40.0276850 110.6172690 118.0375240
  43.4000280 110.6442310 110.7258040  43.5067030 111.5446040 111.0326800
  42.4892640 110.5960280 110.4352690  53.0519390 109.7667120 112.1968940
  53.8729010 109.2763690 112.2394420  53.0853470 110.3564780 112.9500780
  53.2880870 111.7067500 114.9696480  52.5836440 111.9952390 115.5499590
  53.6493030 112.5167610 114.6096040  39.2798400 119.0503080 108.1976170
  38.9026380 119.5390180 107.4661070  39.5371470 119.7228360 108.8282700
  52.4402390 123.1686760 115.9469140  52.4529550 122.7649050 115.0791400
  51.8877610 123.9434050 115.8430570  53.7347810 119.8902980 111.0359310
  53.6244140 118.9477310 111.1608730  53.7316060 120.2518620 111.9222070
  55.7849930 116.4703820 117.3667990  54.9568560 116.5396910 116.8918120
  56.3800410 117.0558130 116.8983820  52.7491940 113.2573140 118.3122860
  52.3363120 114.0826850 118.5662850  52.0167890 112.6718180 118.1199220
  44.4424860 119.4682290 121.9888540  43.5453390 119.6922260 122.2361940
  44.4677730 119.5917230 121.0399940  43.2696080 116.3395610 120.5645910
  43.1303850 117.2118410 120.9333310  42.3877440 115.9968420 120.4193850
  49.5925460 121.2571480 111.8711040  50.0321370 121.9995810 111.4566430
  49.5312350 121.4998050 112.7950000  45.0676430 122.2817310 122.7731060
  45.0391860 122.6860260 121.9059490  44.9041400 121.3527670 122.6102660
  55.0647220 107.5718220 106.2170840  54.7519880 107.6645050 107.1169910
  55.8259690 108.1499250 106.1668270  41.5829360 114.9378020 110.6748180
  41.4626960 115.6640110 110.0629450  41.2730250 114.1680930 110.1976090
  57.0191250 123.0644410 124.0695230  57.4950970 123.5427300 124.7484310
  57.6398410 122.9961900 123.3440730  39.2214730 118.1093160 116.4816820
  39.2995150 118.2441930 115.5372540  39.8356410 117.4009050 116.6744940
  40.4662360 119.8093350 112.8923000  40.0590440 119.9507940 112.0376600
  41.3575370 119.5253510 112.6894210  56.4224500 120.2557260 121.2295240
  56.5487560 120.0169140 120.3112420  56.4645880 119.4241800 121.7017320
  50.2841240 123.9585260 119.7990050  50.7985910 123.8693270 120.6012480
  49.4410320 124.3044960 120.0917960  52.2595640 124.2440600 109.2274050
  52.0996780 123.9543540 110.1255880  52.0942350 123.4680730 108.6919280
  44.7384020 124.0239130 111.0045670  44.5626500 123.1074670 110.7913470
  43.8839760 124.3826420 111.2443470  51.5271700 123.3790870 111.8620540
  51.9828650 122.5980250 112.1759160  51.8664220 124.0897690 112.4061720
  56.2748510 112.3089720 122.1944980  55.6592780 112.8169390 121.6660440
  55.9544930 111.4088050 122.1370920  39.2774250 119.1507330 119.0211280
  39.4405290 118.6812690 118.2030650  39.7426700 118.6430890 119.6860120
  44.0493020 108.2813090 114.0571850  43.6061170 109.0622630 113.7256370
  44.6078010 108.6042980 114.7642790  53.3367340 112.3690560 120.7903830
  52.4860930 112.0696310 121.1112900  53.1769130 112.6132570 119.8787650
  47.1651840 107.9023790 108.9377680  46.5406020 107.8983660 109.6630990
  47.0781960 107.0354750 108.5413650  43.8407240 113.4046660 111.7853100
  43.6148160 113.1883830 112.6899720  43.0599770 113.8375120 111.4399070
  46.2806450 114.3032240 122.4513370  46.1850050 113.3626970 122.3013770
  47.1238430 114.5247310 122.0561440  47.9862040 110.7980880 123.6743890
  47.2960360 110.6053080 124.3089980  48.7294340 111.0815520 124.2068190
  38.7134040 108.6374370 114.6377230  38.4247090 109.2077230 115.3502210
  39.4579800 108.1578820 115.0008460  42.5504780 111.1960010 113.8744510
  42.2104830 111.6735240 114.6311560  41.7882100 110.7425130 113.5145610
  45.7744050 114.6246740 107.3040360  45.2060950 114.1764990 106.6776270
  46.4833050 114.9839520 106.7705510  40.8513230 118.5258760 121.1807090
  40.4668020 117.8852430 121.7790050  41.1625420 119.2294880 121.7501820
  39.8650860 110.1178990 112.7909180  39.5797780 109.7534660 113.6287800
  39.8029720 109.3859450 112.1772320  43.3191530 118.6204930 109.5766770
  42.5453790 118.0802550 109.4165490  44.0486160 118.1011540 109.2384530
  54.0779510 117.6170290 115.3693160  54.7978630 118.1125580 114.9789270
  53.8761330 116.9388180 114.7247030  49.5389450 109.0108250 109.5122550
  48.7254060 108.5121420 109.4367860  49.3451400 109.8506500 109.0958900
  40.8473470 115.2546680 120.1271280  40.4888410 115.9200530 120.7144620
  40.5528030 114.4230230 120.4983900  44.0486590 115.7130920 123.0110830
  43.7486730 115.8588100 122.1138650  44.8197830 115.1536210 122.9184220
  55.5539360 121.5482000 110.0046700  54.9115520 120.8937620 110.2790420
  55.1670020 121.9537090 109.2287370  51.1325840 118.8767430 113.8518390
  51.4849660 118.2795560 113.1919760  50.2488170 118.5511660 114.0226640
  47.2189120 119.6365120 111.2588800  47.9060250 120.1834330 111.6396390
  46.4321540 120.1805850 111.2938410  42.4228110 106.9848800 111.3436680
  42.2942740 106.9766700 112.2921600  41.5990130 107.3231890 110.9927690
  53.9436740 120.4398460 106.5423050  53.7174320 119.7228900 107.1347690
  53.5532940 120.1910900 105.7044800  39.7252770 124.4665320 107.3167510
  40.0850410 125.0654660 106.6624780  39.5845110 125.0125210 108.0902540
  53.5252990 118.3570400 108.2037210  53.2374690 118.8183090 108.9915090
  54.3205160 117.8968170 108.4721430  39.7094630 122.7320180 121.7909910
  39.8185750 121.7914920 121.6505300  39.0575190 122.9974930 121.1423640
  47.7007220 121.0036070 123.1908030  47.3804090 120.2845310 123.7353720
  47.0265580 121.6791140 123.2644090  45.7421390 121.8496520 108.1341180
  45.7331490 122.5826210 107.5185690  44.8219750 121.6028100 108.2268140
  41.3428030 117.0711410 108.8787940  40.7355980 117.8110310 108.8883240
  41.8177380 117.1610770 108.0526140  54.2822850 110.1919170 109.3632390
  53.6536010 110.2964840 108.6490620  53.7874770 110.4115950 110.1526270
  50.2822310 109.1955780 112.2186060  50.1590090 109.2141910 111.2695570
  51.2306870 109.2434720 112.3384460  47.3699100 124.4311080 111.4914040
  47.6240600 124.3932470 110.5693410  46.4211580 124.3044410 111.4842290
  44.4541900 110.7790200 108.1540980  45.3032430 111.2160350 108.0881170
  44.0873170 111.0910460 108.9813040  53.3751680 115.3502960 113.0672550
  52.4341820 115.3653190 113.2420240  53.6895750 114.5638920 113.5132850
  43.3533320 117.0322560 106.6276510  44.1196590 116.9203920 107.1901940
  43.4308010 116.3360530 105.9753280  55.3777260 122.5211810 114.7426810
  55.5024680 123.3442980 115.2150620  56.2442820 122.3102540 114.3950960
  42.8494790 124.6143020 114.4143940  43.5857270 124.0658480 114.6852510
  43.2335710 125.4799030 114.2749930  39.7340270 120.6816590 110.2885450
  38.8080050 120.9237730 110.2790860  40.1996700 121.5090850 110.1670200
  41.8553070 123.7989090 123.6029520  42.6565800 124.1201140 124.0164920
  41.3404890 123.4384670 124.3249430  50.6917700 119.9068960 123.5504930
  50.0855860 119.9300560 122.8100680  50.3871810 119.1752000 124.0872180
  52.1218070 123.6349250 122.1614340  53.0739820 123.5507270 122.1114580
  51.9746290 124.2990960 122.8348130  39.5750880 116.2862550 122.5465570
  40.0789900 115.7069830 123.1181800  38.8358300 116.5702780 123.0841940
  46.4774500 119.0076740 106.1011860  46.3725140 118.3929090 106.8273240
  46.3098720 118.4842630 105.3174870  46.6288820 117.6933540 122.0801090
  45.8634490 118.2618540 121.9955760  46.8104780 117.4009750 121.1869320
  41.6073960 114.4292140 123.4415640  41.6479300 114.1306010 124.3500870
  42.4619460 114.8299750 123.2823160  45.3852350 117.0287690 108.6019150
  45.8068770 116.8627560 109.4450540  45.5103190 116.2187920 108.1074290
  43.5479770 113.0084240 121.4090130  43.0176230 112.5175190 120.7813470
  44.2167840 113.4368440 120.8748060  45.0580480 123.7327190 120.2584980
  44.5201570 124.4573250 119.9393680  45.3114440 123.2557530 119.4682320
  46.3105730 111.7011710 121.7840910  46.9005420 111.3927560 122.4718730
  45.4925970 111.2291460 121.9400810  51.1299160 111.3177520 122.0173930
  50.4414680 110.6559060 121.9523920  51.8505180 110.8715790 122.4622390
  51.7599560 107.9129150 108.0764190  52.0401850 107.0697050 108.4323610
  50.9865290 108.1452260 108.5902940  47.9142690 124.9678400 120.5171630
  47.8401390 125.8713540 120.8244000  47.0121530 124.6490300 120.4893700
  46.2978980 109.1456160 106.5211390  45.9500980 108.4680150 105.9413840
  46.4991750 108.6845670 107.3354780  39.3169980 122.2952990 113.8205250
  39.6472990 121.4274050 113.5883890  39.7460980 122.5011510 114.6510210
  43.9131900 120.6262000 111.4807220  43.6127440 120.5026970 112.3811130
  43.8069390 119.7670590 111.0722950  39.8060190 123.1623580 116.5586880
  39.3691180 123.3424380 117.3911030  40.3737870 123.9198200 116.4168600
  55.4422370 122.6640580 120.8464190  54.8424360 122.7233140 120.1028110
  55.5716270 121.7245560 120.9761040  56.1380280 117.1505880 108.6868100
  56.8999190 117.7202530 108.7927790  56.1534650 116.5833080 109.4576410
  39.6384620 115.6743810 112.9175760  38.9833460 115.4055450 112.2735460
  40.4762570 115.5648290 112.4677740  57.1440250 118.0055980 113.5310030
  57.5149080 117.2223300 113.1246000  57.7842180 118.6945080 113.3527330
  56.1899450 117.4440250 105.8440620  56.4648290 118.3519130 105.7159840
  56.0010190 117.3802780 106.7802610  56.0864790 115.3809240 110.8370050
  55.7108390 114.6137170 110.4051340  55.3567910 115.7631940 111.3244980
  55.4764410 114.5280760 120.4709570  55.2450500 114.2993510 119.5707520
  55.7368960 115.4480310 120.4254460  40.2276550 112.9705470 121.3637520
  39.3332600 112.9372230 121.7031230  40.7674100 113.1692260 122.1288770
  53.9152480 109.7537190 123.2489270  54.7922660 109.7620590 123.6323270
  53.9273320 109.0168030 122.6381620  38.8522700 112.8842740 108.8601090
  37.9486780 113.1472940 108.6852750  39.3363320 113.1553910 108.0801050
  55.3615750 113.6066730 114.1377290  55.8853230 113.1129380 113.5067460
  55.9475170 113.7417090 114.8824860  41.0424070 107.9947610 105.8098120
  41.7652200 108.5356550 106.1279340  41.3148590 107.7211030 104.9339660
  54.8515720 112.8640080 110.0769700  55.3474840 112.6310950 110.8618580
  54.6531790 112.0251920 109.6607340  40.7316260 107.2453800 115.7120740
  41.3792450 106.6951180 115.2715900  41.1518100 107.4996950 116.5336550
  56.2802880 111.5001030 112.6107380  56.1702160 111.3457070 113.5489650
  57.0410470 110.9721970 112.3682790  57.1693150 109.3308950 105.8513520
  58.0942460 109.1990130 105.6431810  57.1468940 109.4101770 106.8049970
  57.2431640 110.1019610 108.4770230  56.4483140 110.0364730 109.0063140
  57.4474920 111.0370250 108.4655580  54.1850060 124.1411160 112.4708620
  54.7809130 123.8195730 111.7943040  54.4428210 123.6682980 113.2621890
  42.0912630 120.5729070 122.6199250  42.0482260 120.2021980 123.5013710
  42.2223640 121.5106640 122.7601070  45.7918660 122.1288660 118.2208970
  45.5510020 122.3963220 117.3339490  46.7321300 122.2994390 118.2759830
  50.6347640 108.2491410 121.6157770  51.2488050 108.5670700 120.9538850
  51.1797200 107.7640000 122.2353630  57.0522820 124.1483040 119.0219610
  56.5581100 124.5451910 118.3046740  56.4436110 123.5232250 119.4156890
  41.9300660 123.5191320 119.7397030  41.3360980 123.3876020 120.4787070
  41.9224500 122.6829460 119.2739130  51.3755680 106.8123550 117.9427060
  50.5015520 107.1458660 117.7399990  51.2666430 106.3396730 118.7678930
  52.2827660 109.0194420 119.3268780  51.9541020 108.2046180 118.9470510
  53.2309960 108.9764230 119.2034470  54.7362270 124.7906460 116.3006350
  54.2765240 125.5422270 115.9264370  54.1074730 124.0712930 116.2421150
  41.5612890 120.8849700 118.6905070  40.8346950 120.2654990 118.6231020
  41.6222040 121.2790310 117.8203150  45.1657990 123.0994700 115.4754480
  45.6823010 122.4882060 114.9502740  45.8155370 123.6023480 115.9665490
  47.9053490 123.9903190 116.3023460  48.1931300 123.7357490 115.4256470
  48.4176710 123.4380550 116.8929030  53.6751570 108.4316490 114.9269060
  54.1159660 108.3761590 114.0790660  53.4059160 109.3474500 114.9979240
  55.5390140 108.0631730 112.9377880  55.4778540 107.1192950 112.7908900
  56.3182170 108.1711820 113.4831340  39.8442890 124.2024090 111.9001830
  39.6764930 123.5694770 112.5983720  38.9777400 124.4083490 111.5496020
  40.4670910 108.0340870 109.4033690  41.2250270 108.1469750 108.8297720
  40.0048080 108.8710070 109.3577120  51.5109700 106.8122590 113.6319070
  52.1139070 107.3842800 114.1067590  50.7702690 107.3762030 113.4092970
  54.6544300 107.2144150 108.9059350  54.8494930 108.1127600 109.1726780
  53.8674170 106.9831230 109.3992300  41.4505590 122.8957320 109.3451970
  40.9253210 123.2765350 108.6413930  41.3750170 123.5208090 110.0661680
  42.8396060 108.5604920 107.9435660  43.3688820 107.7734720 107.8143610
  43.4724380 109.2396110 108.1771190  45.0333900 108.2980060 110.9981050
  44.4036640 107.5967370 111.1651180  44.4939040 109.0584190 110.7814210
  47.9725850 124.9119290 123.6691660  48.8993160 124.6763560 123.7127620
  47.9576280 125.7391290 123.1877690  56.2070910 124.4544860 110.6665910
  56.3823100 123.7682600 110.0226830  55.5092480 124.9791910 110.2742580
  44.0498560 124.8439700 108.2201220  44.7817380 124.5598980 107.6725110
  44.3092230 124.6052980 109.1100600  43.2113350 120.9604430 108.2247550
  42.5822230 121.4289530 108.7733380  43.3261180 120.1153650 108.6593740
  51.7604920 106.9917620 124.0114010  51.6470370 107.3112230 124.9065530
  52.5774660 107.3930130 123.7151290  54.5403410 124.1389150 123.4932700
  55.3328730 123.6438380 123.2858660  54.8336560 124.8179290 124.1008310
  48.7981110 116.7889110  96.2558020  48.0223210 116.3089550  96.5456590
  49.4494040 116.1094760  96.0814180  42.8146940 117.1008920  97.1333780
  41.9831820 116.8457630  97.5330290  43.4227920 117.1719690  97.8691700
  39.1871900 114.6616460  96.8015870  39.7588010 113.8938660  96.8019510
  39.1873440 114.9605220  95.8922480  57.3418940 111.7833870  99.9869080
  56.6371110 112.1715580  99.4684190  57.6076860 112.4784160 100.5890010
  49.9115200 118.3646550  92.0493050  49.2932470 118.8296000  91.4855770
  50.4238450 119.0574030  92.4662560  43.9866060 119.8603220 100.5425830
  44.6040060 120.5354300 100.2610280  43.1259180 120.2691200 100.4513330
  53.7347810 119.8902980  92.2615820  53.6244140 118.9477310  92.3865240
  53.7316060 120.2518620  93.1478580  49.2768090 115.5168300  91.6178310
  48.3497370 115.4505680  91.8466780  49.4292910 116.4548430  91.5033550
  49.2637170 111.7885300  88.6145470  48.3240840 111.9499260  88.6997930
  49.5820430 112.5070980  88.0681460  53.3065380 117.0788600  92.1213560
  52.6877800 116.7408150  91.4739860  53.2889830 116.4348360  92.8292750
  44.8824730 116.0433040  94.3998040  44.4781730 115.3310290  93.9043940
  44.9687850 115.6986280  95.2886080  44.4424860 119.4682290 103.2145050
  43.5453390 119.6922260 103.4618450  44.4677730 119.5917230 102.2656450
  45.0676430 122.2817310 103.9987570  45.0391860 122.6860260 103.1316000
  44.9041400 121.3527670 103.8359170  41.5829360 114.9378020  91.9004690
  41.4626960 115.6640110  91.2885960  41.2730250 114.1680930  91.4232600
  39.2214730 118.1093160  97.7073330  39.2995150 118.2441930  96.7629050
  39.8356410 117.4009050  97.9001450  56.2748510 112.3089720 103.4201490
  55.6592780 112.8169390 102.8916950  55.9544930 111.4088050 103.3627430
  39.2774250 119.1507330 100.2467790  39.4405290 118.6812690  99.4287160
  39.7426700 118.6430890 100.9116630  43.8407240 113.4046660  93.0109610
  43.6148160 113.1883830  93.9156230  43.0599770 113.8375120  92.6655580
  47.9862040 110.7980880 104.9000400  47.2960360 110.6053080 105.5346490
  48.7294340 111.0815520 105.4324700  43.3628930 118.2885310  94.4402090
  43.8807600 117.4853570  94.3858980  42.9112950 118.2264450  95.2818920
  54.5252110 114.6939740  88.5021080  54.4415830 115.1253960  87.6517520
  55.2446300 115.1538090  88.9347900  39.3581520 115.2537940  87.9762390
  40.2276370 115.5362740  88.2598310  38.8671840 116.0673810  87.8611200
  46.5216330 116.6411150  92.0970670  46.9779110 117.4516400  92.3230860
  46.1704540 116.3234290  92.9289160  51.8718640 120.9544740 101.2476480
  52.2074880 121.5411430 101.9254400  50.9518980 120.8237450 101.4774270
  39.7252770 124.4665320  88.5424020  40.0850410 125.0654660  87.8881290
  39.5845110 125.0125210  89.3159050  53.5252990 118.3570400  89.4293720
  53.2374690 118.8183090  90.2171600  54.3205160 117.8968170  89.6977940
  41.3428030 117.0711410  90.1044450  40.7355980 117.8110310  90.1139750
  41.8177380 117.1610770  89.2782650  54.2822850 110.1919170  90.5888900
  53.6536010 110.2964840  89.8747130  53.7874770 110.4115950  91.3782780
  47.8762810 113.8901820 100.0039310  48.3748060 114.3647640 100.6691160
  48.0185760 112.9665340 100.2109340  42.0480080 114.4647630  88.5365910
  42.1283670 113.5175140  88.6483310  42.9399830 114.7954510  88.6426570
  39.7340270 120.6816590  91.5141960  38.8080050 120.9237730  91.5047370
  40.1996700 121.5090850  91.3926710  49.7177230 118.0696770  87.9310360
  49.1687330 118.5166070  88.5753100  50.3396490 117.5646020  88.4548030
  53.7712170 119.4238870 103.8632620  54.5121640 119.7614630 103.3600080
  53.0084850 119.5930930 103.3102390  45.0580480 123.7327190 101.4841490
  44.5201570 124.4573250 101.1650190  45.3114440 123.2557530 100.6938830
  47.9142690 124.9678400 101.7428140  47.8401390 125.8713540 102.0500510
  47.0121530 124.6490300 101.7150210  39.6384620 115.6743810  94.1432270
  38.9833460 115.4055450  93.4991970  40.4762570 115.5648290  93.6934250
  52.5875060 110.4685100  88.3650760  53.0059940 110.2816080  87.5247420
  52.2811120 109.6164150  88.6753690  56.0864790 115.3809240  92.0626560
  55.7108390 114.6137170  91.6307850  55.3567910 115.7631940  92.5501490
  40.6760550 116.0596380  98.6835610  41.0433590 115.9723780  99.5631630
  40.1071370 115.2962930  98.5842470  41.3949910 111.9408280  87.9951980
  42.1041610 111.5191500  87.5099260  40.6789850 112.0083510  87.3635330
  45.7918660 122.1288660  99.4465480  45.5510020 122.3963220  98.5596000
  46.7321300 122.2994390  99.5016340  57.0522820 124.1483040 100.2476120
  56.5581100 124.5451910  99.5303250  56.4436110 123.5232250 100.6413400
  41.1568900 106.9285670 102.9553340  41.7051890 106.7473720 102.1919450
  41.2224210 106.1379780 103.4909650  41.5612890 120.8849700  99.9161580
  40.8346950 120.2654990  99.8487530  41.6222040 121.2790310  99.0459660
  45.1589460 107.5764040 104.6590050  44.8773730 108.0797640 103.8950870
  45.5409160 106.7785790 104.2932180  51.7604920 106.9917620 105.2370520
  51.6470370 107.3112230 106.1322040  52.5774660 107.3930130 104.9407800
  50.6663070 115.0110090  75.6005260  50.5857120 114.0964700  75.3296970
  50.2527490 115.5077160  74.8944970  48.7981110 116.7889110  77.4814530
  48.0223210 116.3089550  77.7713100  49.4494040 116.1094760  77.3070690
  42.8146940 117.1008920  78.3590290  41.9831820 116.8457630  78.7586800
  43.4227920 117.1719690  79.0948210  52.8188540 121.1949300  76.2613660
  52.3570070 120.4236540  76.5900830  53.6314090 121.2215370  76.7666110
  41.2238890 112.0610810  72.1432680  40.3355590 112.4026780  72.0412560
  41.5080080 111.8611130  71.2513510  49.0451850 123.4807310  75.8817650
  48.4263290 123.9364810  75.3112090  49.9003630 123.6358770  75.4807350
  48.2390100 119.4646300  77.4884690  48.1698380 118.5236240  77.3273820
  49.0009960 119.5547710  78.0607260  40.4296770 110.0700820  79.8141310
  40.2499610 109.1726570  80.0944070  40.0276850 110.6172690  80.4888260
  49.2695270 112.2716680  77.7153620  49.6460090 111.3988560  77.6027290
  49.1714780 112.6075380  76.8244060  41.0483440 112.5661320  78.4223650
  41.7293550 112.8299690  79.0411050  40.7331490 111.7262190  78.7561660
  45.2408010 113.6128680  77.5096240  45.7486230 114.1109650  78.1501260
  45.7721250 112.8363880  77.3335600  49.9115200 118.3646550  73.2749560
  49.2932470 118.8296000  72.7112280  50.4238450 119.0574030  73.6919070
  44.7746960 117.8922420  79.9533160  44.4416340 118.5191340  80.5954230
  44.9513640 118.4184300  79.1734830  43.9866060 119.8603220  81.7682340
  44.6040060 120.5354300  81.4866790  43.1259180 120.2691200  81.6769840
  39.2798400 119.0503080  70.6489190  38.9026380 119.5390180  69.9174090
  39.5371470 119.7228360  71.2795720  53.7347810 119.8902980  73.4872330
  53.6244140 118.9477310  73.6121750  53.7316060 120.2518620  74.3735090
  51.8387830 118.0716600  79.7264770  52.2556620 117.8576710  78.8918230
  52.5627650 118.3289390  80.2973390  49.2768090 115.5168300  72.8434820
  48.3497370 115.4505680  73.0723290  49.4292910 116.4548430  72.7290060
  53.3065380 117.0788600  73.3470070  52.6877800 116.7408150  72.6996370
  53.2889830 116.4348360  74.0549260  52.7491940 113.2573140  80.7635880
  52.3363120 114.0826850  81.0175870  52.0167890 112.6718180  80.5712240
  44.8824730 116.0433040  75.6254550  44.4781730 115.3310290  75.1300450
  44.9687850 115.6986280  76.5142590  45.3506430 119.7300600  77.7893760
  45.0534720 119.1246070  77.1101540  46.3006250 119.7677910  77.6783120
  51.4830080 116.3175410  70.3542820  51.9223360 115.4797840  70.2080640
  52.1958500 116.9504810  70.4406960  43.2696080 116.3395610  83.0158930
  43.1303850 117.2118410  83.3846330  42.3877440 115.9968420  82.8706870
  49.5925460 121.2571480  74.3224060  50.0321370 121.9995810  73.9079450
  49.5312350 121.4998050  75.2463020  41.5829360 114.9378020  73.1261200
  41.4626960 115.6640110  72.5142470  41.2730250 114.1680930  72.6489110
  39.2214730 118.1093160  78.9329840  39.2995150 118.2441930  77.9885560
  39.8356410 117.4009050  79.1257960  40.4662360 119.8093350  75.3436020
  40.0590440 119.9507940  74.4889620  41.3575370 119.5253510  75.1407230
  52.2595640 124.2440600  71.6787070  52.0996780 123.9543540  72.5768900
  52.0942350 123.4680730  71.1432300  44.7384020 124.0239130  73.4558690
  44.5626500 123.1074670  73.2426490  43.8839760 124.3826420  73.6956490
  51.9621770 121.7528160  70.2385070  51.2686930 121.7505450  69.5787350
  52.7044630 121.3287480  69.8079240  51.5271700 123.3790870  74.3133560
  51.9828650 122.5980250  74.6272180  51.8664220 124.0897690  74.8574740
  39.2774250 119.1507330  81.4724300  39.4405290 118.6812690  80.6543670
  39.7426700 118.6430890  82.1373140  43.8407240 113.4046660  74.2366120
  43.6148160 113.1883830  75.1412740  43.0599770 113.8375120  73.8912090
  51.0705000 113.4110030  72.8356770  50.4713890 114.1345830  72.6520390
  51.6184610 113.3486810  72.0533220  49.6769870 112.0473570  74.8660050
  50.0699440 112.3645770  74.0528740  50.0386720 111.1685450  74.9804570
  41.4116990 110.7145910  83.0560170  41.0180380 111.5621120  83.2632950
  40.7235390 110.0772280  83.2468810  47.9862040 110.7980880  86.1256910
  47.2960360 110.6053080  86.7603000  48.7294340 111.0815520  86.6581210
  38.7134040 108.6374370  77.0890250  38.4247090 109.2077230  77.8015230
  39.4579800 108.1578820  77.4521480  38.9004270 112.5794490  68.2992970
  38.8178940 113.5225250  68.4407960  38.5487330 112.4369400  67.4205320
  50.2625010 114.6379320  78.9610830  49.5306130 115.1466130  79.3100930
  49.8649350 113.8209300  78.6599610  42.5504780 111.1960010  76.3257530
  42.2104830 111.6735240  77.0824580  41.7882100 110.7425130  75.9658630
  46.7622550 112.3145600  70.3570080  46.8835370 112.2732080  71.3055900
  46.3771060 113.1769750  70.2016810  45.7744050 114.6246740  69.7553380
  45.2060950 114.1764990  69.1289290  46.4833050 114.9839520  69.2218530
  40.8513230 118.5258760  83.6320110  40.4668020 117.8852430  84.2303070
  41.1625420 119.2294880  84.2014840  47.0010370 115.3735300  79.1128730
  47.3680500 114.8993870  79.8590070  46.8115430 116.2476870  79.4537070
  39.8650860 110.1178990  75.2422200  39.5797780 109.7534660  76.0800820
  39.8029720 109.3859450  74.6285340  43.3191530 118.6204930  72.0279790
  42.5453790 118.0802550  71.8678510  44.0486160 118.1011540  71.6897550
  43.3628930 118.2885310  75.6658600  43.8807600 117.4853570  75.6115490
  42.9112950 118.2264450  76.5075430  48.2498430 119.5551590  70.9385900
  48.5914130 120.2993820  70.4429220  47.4211140 119.8682710  71.3010730
  40.8473470 115.2546680  82.5784300  40.4888410 115.9200530  83.1657640
  40.5528030 114.4230230  82.9496920  44.0486590 115.7130920  85.4623850
  43.7486730 115.8588100  84.5651670  44.8197830 115.1536210  85.3697240
  55.6026250 117.1507260  82.8047560  54.8774440 117.7436040  82.6076950
  56.1301710 117.1430800  82.0060930  55.5539360 121.5482000  72.4559720
  54.9115520 120.8937620  72.7303440  55.1670020 121.9537090  71.6800390
  51.1325840 118.8767430  76.3031410  51.4849660 118.2795560  75.6432780
  50.2488170 118.5511660  76.4739660  47.2189120 119.6365120  73.7101820
  47.9060250 120.1834330  74.0909410  46.4321540 120.1805850  73.7451430
  39.3581520 115.2537940  69.2018900  40.2276370 115.5362740  69.4854820
  38.8671840 116.0673810  69.0867710  46.5216330 116.6411150  73.3227180
  46.9779110 117.4516400  73.5487370  46.1704540 116.3234290  74.1545670
  48.8248940 122.1517490  80.5519480  49.4691160 122.3576870  81.2292900
  49.1878380 121.3905890  80.0990330  42.4228110 106.9848800  73.7949700
  42.2942740 106.9766700  74.7434620  41.5990130 107.3231890  73.4440710
  50.0981020 120.1549840  79.2696930  50.7403250 119.4543000  79.3829100
  50.6230370 120.9348280  79.0893820  53.9436740 120.4398460  68.9936070
  53.7174320 119.7228900  69.5860710  53.5532940 120.1910900  68.1557820
  39.4222040 108.7439920  83.2556400  38.7080560 108.9436840  83.8609010
  39.8417080 107.9679490  83.6271200  53.5252990 118.3570400  70.6550230
  53.2374690 118.8183090  71.4428110  54.3205160 117.8968170  70.9234450
  39.7094630 122.7320180  84.2422930  39.8185750 121.7914920  84.1018320
  39.0575190 122.9974930  83.5936660  45.7421390 121.8496520  70.5854200
  45.7331490 122.5826210  69.9698710  44.8219750 121.6028100  70.6781160
  41.3428030 117.0711410  71.3300960  40.7355980 117.8110310  71.3396260
  41.8177380 117.1610770  70.5039160  48.7280990 121.9124760  69.2479390
  48.8292970 121.7088750  68.3181370  47.8282730 121.6583040  69.4527170
  46.2506880 112.4705120  73.2303290  45.5423030 112.9391460  73.6716900
  46.5351360 111.8127130  73.8648480  47.8762810 113.8901820  81.2295820
  48.3748060 114.3647640  81.8947670  48.0185760 112.9665340  81.4365850
  47.3699100 124.4311080  73.9427060  47.6240600 124.3932470  73.0206430
  46.4211580 124.3044410  73.9355310  44.4541900 110.7790200  70.6054000
  45.3032430 111.2160350  70.5394190  44.0873170 111.0910460  71.4326060
  55.0829670 110.1069780  82.0724210  54.5803270 110.8475180  82.4118020
  55.8986330 110.4953780  81.7561000  43.3533320 117.0322560  69.0789530
  44.1196590 116.9203920  69.6414960  43.4308010 116.3360530  68.4266300
  42.0480080 114.4647630  69.7622420  42.1283670 113.5175140  69.8739820
  42.9399830 114.7954510  69.8683080  39.7340270 120.6816590  72.7398470
  38.8080050 120.9237730  72.7303880  40.1996700 121.5090850  72.6183220
  45.9597100 123.7873330  68.6882530  46.7525710 124.0762160  68.2364320
  45.4401450 123.3565500  68.0095010  55.0127270 123.0143460  70.1119270
  54.7268780 122.6008600  69.2973450  54.8146820 123.9431170  69.9919790
  39.5750880 116.2862550  84.9978590  40.0789900 115.7069830  85.5694820
  38.8358300 116.5702780  85.5354960  46.4774500 119.0076740  68.5524880
  46.3725140 118.3929090  69.2786260  46.3098720 118.4842630  67.7687890
  49.7177230 118.0696770  69.1566870  49.1687330 118.5166070  69.8009610
  50.3396490 117.5646020  69.6804540  41.6073960 114.4292140  85.8928660
  41.6479300 114.1306010  86.8013890  42.4619460 114.8299750  85.7336180
  45.3852350 117.0287690  71.0532170  45.8068770 116.8627560  71.8963560
  45.5103190 116.2187920  70.5587310  47.8979990 116.0525300  68.3009270
  48.4185650 115.3374320  67.9350420  48.5448390 116.6911170  68.6009780
  44.0352070 109.9746610  83.9400440  43.9408940 109.3567360  83.2151310
  43.4549460 110.7012900  83.7130350  47.2073060 117.4274180  81.5940270
  47.6261170 118.2706910  81.4216510  46.2881690 117.5646220  81.3647050
  45.0580480 123.7327190  82.7098000  44.5201570 124.4573250  82.3906700
  45.3114440 123.2557530  81.9195340  46.3105730 111.7011710  84.2353930
  46.9005420 111.3927560  84.9231750  45.4925970 111.2291460  84.3913830
  43.0794050 110.2021540  67.9868210  43.3819950 110.2088970  67.0787360
  43.8188640 109.8519400  68.4835870  48.4628020 124.1336910  70.5911010
  49.3578810 124.4721880  70.6129770  48.4945650 123.4116320  69.9635290
  42.1024180 119.5063960  68.8198010  42.5399050 120.0493630  69.4755590
  42.5871910 118.6810910  68.8294350  43.9131900 120.6262000  73.9320240
  43.6127440 120.5026970  74.8324150  43.8069390 119.7670590  73.5235970
  56.6823820 120.4058400  68.6346920  55.8516780 120.4735050  69.1054150
  56.8595650 121.2962520  68.3313780  56.1380280 117.1505880  71.1381120
  56.8999190 117.7202530  71.2440810  56.1534650 116.5833080  71.9089430
  40.6760550 116.0596380  79.9092120  41.0433590 115.9723780  80.7888140
  40.1071370 115.2962930  79.8098980  55.4764410 114.5280760  82.9222590
  55.2450500 114.2993510  82.0220540  55.7368960 115.4480310  82.8767480
  40.2276550 112.9705470  83.8150540  39.3332600 112.9372230  84.1544250
  40.7674100 113.1692260  84.5801790  38.8522700 112.8842740  71.3114110
  37.9486780 113.1472940  71.1365770  39.3363320 113.1553910  70.5314070
  55.5405470 113.6906600  80.1109860  54.5908180 113.6570140  80.2254850
  55.7218480 114.6006710  79.8759630  41.3949910 111.9408280  69.2208490
  42.1041610 111.5191500  68.7355770  40.6789850 112.0083510  68.5891840
  41.0424070 107.9947610  68.2611140  41.7652200 108.5356550  68.5792360
  41.3148590 107.7211030  67.3852680  40.7316260 107.2453800  78.1633760
  41.3792450 106.6951180  77.7228920  41.1518100 107.4996950  78.9849570
  56.2802880 111.5001030  75.0620400  56.1702160 111.3457070  76.0002670
  57.0410470 110.9721970  74.8195810  54.1850060 124.1411160  74.9221640
  54.7809130 123.8195730  74.2456060  54.4428210 123.6682980  75.7134910
  40.4848260 107.4009470  80.9059080  40.1363080 107.8573290  81.6717260
  40.1535960 106.5066600  80.9881510  45.7918660 122.1288660  80.6721990
  45.5510020 122.3963220  79.7852510  46.7321300 122.2994390  80.7272850
  41.1568900 106.9285670  84.1809850  41.7051890 106.7473720  83.4175960
  41.2224210 106.1379780  84.7166160  41.5612890 120.8849700  81.1418090
  40.8346950 120.2654990  81.0744040  41.6222040 121.2790310  80.2716170
  40.4670910 108.0340870  71.8546710  41.2250270 108.1469750  71.2810740
  40.0048080 108.8710070  71.8090140  41.4505590 122.8957320  71.7964990
  40.9253210 123.2765350  71.0926950  41.3750170 123.5208090  72.5174700
  42.8396060 108.5604920  70.3948680  43.3688820 107.7734720  70.2656630
  43.4724380 109.2396110  70.6284210  56.2070910 124.4544860  73.1178930
  56.3823100 123.7682600  72.4739850  55.5092480 124.9791910  72.7255600
  44.0498560 124.8439700  70.6714240  44.7817380 124.5598980  70.1238130
  44.3092230 124.6052980  71.5613620  43.2113350 120.9604430  70.6760570
  42.5822230 121.4289530  71.2246400  43.3261180 120.1153650  71.1106760
  48.7981110 116.7889110  58.7071040  48.0223210 116.3089550  58.9969610
  49.4494040 116.1094760  58.5327200  42.8146940 117.1008920  59.5846800
  41.9831820 116.8457630  59.9843310  43.4227920 117.1719690  60.3204720
  49.0451850 123.4807310  57.1074160  48.4263290 123.9364810  56.5368600
  49.9003630 123.6358770  56.7063860  48.2390100 119.4646300  58.7141200
  48.1698380 118.5236240  58.5530330  49.0009960 119.5547710  59.2863770
  43.5244110 108.2527240  63.0016170  43.5262550 108.7699630  62.1962070
  42.6948420 107.7757420  62.9786100  44.7746960 117.8922420  61.1789670
  44.4416340 118.5191340  61.8210740  44.9513640 118.4184300  60.3991340
  43.9866060 119.8603220  62.9938850  44.6040060 120.5354300  62.7123300
  43.1259180 120.2691200  62.9026350  39.2798400 119.0503080  51.8745700
  38.9026380 119.5390180  51.1430600  39.5371470 119.7228360  52.5052230
  54.9043650 121.3242630  60.9093490  54.2207170 121.9941740  60.9010160
  55.4437940 121.5223280  60.1438350  52.4402390 123.1686760  59.6238670
  52.4529550 122.7649050  58.7560930  51.8877610 123.9434050  59.5200100
  49.2768090 115.5168300  54.0691330  48.3497370 115.4505680  54.2979800
  49.4292910 116.4548430  53.9546570  55.7849930 116.4703820  61.0437520
  54.9568560 116.5396910  60.5687650  56.3800410 117.0558130  60.5753350
  52.7491940 113.2573140  61.9892390  52.3363120 114.0826850  62.2432380
  52.0167890 112.6718180  61.7968750  45.3506430 119.7300600  59.0150270
  45.0534720 119.1246070  58.3358050  46.3006250 119.7677910  58.9039630
  53.4392040 123.3032470  62.6773370  52.9622600 124.1104660  62.4845980
  52.7553830 122.6510800  62.8299580  44.4424860 119.4682290  65.6658070
  43.5453390 119.6922260  65.9131470  44.4677730 119.5917230  64.7169470
  51.4830080 116.3175410  51.5799330  51.9223360 115.4797840  51.4337150
  52.1958500 116.9504810  51.6663470  43.2696080 116.3395610  64.2415440
  43.1303850 117.2118410  64.6102840  42.3877440 115.9968420  64.0963380
  49.5925460 121.2571480  55.5480570  50.0321370 121.9995810  55.1335960
  49.5312350 121.4998050  56.4719530  57.0191250 123.0644410  67.7464760
  57.4950970 123.5427300  68.4253840  57.6398410 122.9961900  67.0210260
  39.2214730 118.1093160  60.1586350  39.2995150 118.2441930  59.2142070
  39.8356410 117.4009050  60.3514470  50.2841240 123.9585260  63.4759580
  50.7985910 123.8693270  64.2782010  49.4410320 124.3044960  63.7687490
  52.2595640 124.2440600  52.9043580  52.0996780 123.9543540  53.8025410
  52.0942350 123.4680730  52.3688810  44.7384020 124.0239130  54.6815200
  44.5626500 123.1074670  54.4683000  43.8839760 124.3826420  54.9213000
  51.5271700 123.3790870  55.5390070  51.9828650 122.5980250  55.8528690
  51.8664220 124.0897690  56.0831250  39.2774250 119.1507330  62.6980810
  39.4405290 118.6812690  61.8800180  39.7426700 118.6430890  63.3629650
  50.4317050 113.8692310  66.5672150  50.7570460 113.0356060  66.2274380
  51.2197380 114.3920830  66.7150480  47.1651840 107.9023790  52.6147210
  46.5406020 107.8983660  53.3400520  47.0781960 107.0354750  52.2183180
  38.9004270 112.5794490  49.5249480  38.8178940 113.5225250  49.6664470
  38.5487330 112.4369400  48.6461830  46.7622550 112.3145600  51.5826590
  46.8835370 112.2732080  52.5312410  46.3771060 113.1769750  51.4273320
  45.7744050 114.6246740  50.9809890  45.2060950 114.1764990  50.3545800
  46.4833050 114.9839520  50.4475040  54.1521670 107.5045180  65.4376660
  54.4767440 106.7734840  65.9634640  54.1878180 107.1858820  64.5357650
  40.8513230 118.5258760  64.8576620  40.4668020 117.8852430  65.4559580
  41.1625420 119.2294880  65.4271350  47.0010370 115.3735300  60.3385240
  47.3680500 114.8993870  61.0846580  46.8115430 116.2476870  60.6793580
  44.7909740 114.4143940  62.6569450  44.4866810 115.2935920  62.8819810
  45.7456200 114.4743730  62.6926890  43.3191530 118.6204930  53.2536300
  42.5453790 118.0802550  53.0935020  44.0486160 118.1011540  52.9154060
  49.5389450 109.0108250  53.1892080  48.7254060 108.5121420  53.1137390
  49.3451400 109.8506500  52.7728430  49.4598310 117.6879350  64.9331690
  49.3935620 116.7675020  64.6789280  48.8303450 117.7854790  65.6476330
  43.3628930 118.2885310  56.8915110  43.8807600 117.4853570  56.8372000
  42.9112950 118.2264450  57.7331940  48.2498430 119.5551590  52.1642410
  48.5914130 120.2993820  51.6685730  47.4211140 119.8682710  52.5267240
  40.8473470 115.2546680  63.8040810  40.4888410 115.9200530  64.3914150
  40.5528030 114.4230230  64.1753430  49.3915040 120.5099920  64.6835490
  49.4059580 119.5780880  64.4654400  48.6840140 120.5959680  65.3225260
  55.5539360 121.5482000  53.6816230  54.9115520 120.8937620  53.9559950
  55.1670020 121.9537090  52.9056900  47.2189120 119.6365120  54.9358330
  47.9060250 120.1834330  55.3165920  46.4321540 120.1805850  54.9707940
  39.3581520 115.2537940  50.4275410  40.2276370 115.5362740  50.7111330
  38.8671840 116.0673810  50.3124220  46.5216330 116.6411150  54.5483690
  46.9779110 117.4516400  54.7743880  46.1704540 116.3234290  55.3802180
  48.8248940 122.1517490  61.7775990  49.4691160 122.3576870  62.4549410
  49.1878380 121.3905890  61.3246840  50.0981020 120.1549840  60.4953440
  50.7403250 119.4543000  60.6085610  50.6230370 120.9348280  60.3150330
  51.8718640 120.9544740  63.6989500  52.2074880 121.5411430  64.3767420
  50.9518980 120.8237450  63.9287290  53.5252990 118.3570400  51.8806740
  53.2374690 118.8183090  52.6684620  54.3205160 117.8968170  52.1490960
  47.7007220 121.0036070  66.8677560  47.3804090 120.2845310  67.4123250
  47.0265580 121.6791140  66.9413620  45.7421390 121.8496520  51.8110710
  45.7331490 122.5826210  51.1955220  44.8219750 121.6028100  51.9037670
  47.8762810 113.8901820  62.4552330  48.3748060 114.3647640  63.1204180
  48.0185760 112.9665340  62.6622360  43.3533320 117.0322560  50.3046040
  44.1196590 116.9203920  50.8671470  43.4308010 116.3360530  49.6522810
  50.6917700 119.9068960  67.2274460  50.0855860 119.9300560  66.4870210
  50.3871810 119.1752000  67.7641710  52.1218070 123.6349250  65.8383870
  53.0739820 123.5507270  65.7884110  51.9746290 124.2990960  66.5117660
  39.5750880 116.2862550  66.2235100  40.0789900 115.7069830  66.7951330
  38.8358300 116.5702780  66.7611470  46.4774500 119.0076740  49.7781390
  46.3725140 118.3929090  50.5042770  46.3098720 118.4842630  48.9944400
  46.6288820 117.6933540  65.7570620  45.8634490 118.2618540  65.6725290
  46.8104780 117.4009750  64.8638850  53.7712170 119.4238870  66.3145640
  54.5121640 119.7614630  65.8113100  53.0084850 119.5930930  65.7615410
  41.6073960 114.4292140  67.1185170  41.6479300 114.1306010  68.0270400
  42.4619460 114.8299750  66.9592690  45.3852350 117.0287690  52.2788680
  45.8068770 116.8627560  53.1220070  45.5103190 116.2187920  51.7843820
  43.5479770 113.0084240  65.0859660  43.0176230 112.5175190  64.4583000
  44.2167840 113.4368440  64.5517590  47.8979990 116.0525300  49.5265780
  48.4185650 115.3374320  49.1606930  48.5448390 116.6911170  49.8266290
  52.4457830 117.4753700  64.8500850  52.8598850 117.6298780  65.6991270
  51.5108830 117.6008920  65.0126630  47.2073060 117.4274180  62.8196780
  47.6261170 118.2706910  62.6473020  46.2881690 117.5646220  62.5903560
  49.5436960 115.1590360  64.2034620  49.6633170 114.5631500  64.9429460
  50.4030960 115.1960050  63.7835920  51.8824860 115.7127550  62.7797130
  51.3560080 116.2370170  62.1762270  52.2256200 116.3454940  63.4106860
  44.2811250 113.1020920  49.2246840  44.0800310 112.2388280  49.5860180
  44.1103300 113.0154280  48.2868440  47.9142690 124.9678400  64.1941160
  47.8401390 125.8713540  64.5013530  47.0121530 124.6490300  64.1663230
  46.2978980 109.1456160  50.1980920  45.9500980 108.4680150  49.6183370
  46.4991750 108.6845670  51.0124310  48.4628020 124.1336910  51.8167520
  49.3578810 124.4721880  51.8386280  48.4945650 123.4116320  51.1891800
  42.1024180 119.5063960  50.0454520  42.5399050 120.0493630  50.7012100
  42.5871910 118.6810910  50.0550860  55.4422370 122.6640580  64.5233720
  54.8424360 122.7233140  63.7797640  55.5716270 121.7245560  64.6530570
  54.1274010 119.3892560  62.6209880  53.3133850 119.8189720  62.8835670
  54.5348210 120.0010970  62.0078930  56.1899450 117.4440250  49.5210150
  56.4648290 118.3519130  49.3929370  56.0010190 117.3802780  50.4572140
  40.6760550 116.0596380  61.1348630  41.0433590 115.9723780  62.0144650
  40.1071370 115.2962930  61.0355490  40.2276550 112.9705470  65.0407050
  39.3332600 112.9372230  65.3800760  40.7674100 113.1692260  65.8058300
  55.3615750 113.6066730  57.8146820  55.8853230 113.1129380  57.1836990
  55.9475170 113.7417090  58.5594390  55.5405470 113.6906600  61.3366370
  54.5908180 113.6570140  61.4511360  55.7218480 114.6006710  61.1016140
  56.2802880 111.5001030  56.2876910  56.1702160 111.3457070  57.2259180
  57.0410470 110.9721970  56.0452320  54.1850060 124.1411160  56.1478150
  54.7809130 123.8195730  55.4712570  54.4428210 123.6682980  56.9391420
  45.7918660 122.1288660  61.8978500  45.5510020 122.3963220  61.0109020
  46.7321300 122.2994390  61.9529360  57.0522820 124.1483040  62.6989140
  56.5581100 124.5451910  61.9816270  56.4436110 123.5232250  63.0926420
  54.7362270 124.7906460  59.9775880  54.2765240 125.5422270  59.6033900
  54.1074730 124.0712930  59.9190680  41.5612890 120.8849700  62.3674600
  40.8346950 120.2654990  62.3000550  41.6222040 121.2790310  61.4972680
  45.1657990 123.0994700  59.1524010  45.6823010 122.4882060  58.6272270
  45.8155370 123.6023480  59.6435020  47.9053490 123.9903190  59.9792990
  48.1931300 123.7357490  59.1026000  48.4176710 123.4380550  60.5698560
  55.5390140 108.0631730  56.6147410  55.4778540 107.1192950  56.4678430
  56.3182170 108.1711820  57.1600870  54.6544300 107.2144150  52.5828880
  54.8494930 108.1127600  52.8496310  53.8674170 106.9831230  53.0761830
  47.9725850 124.9119290  67.3461190  48.8993160 124.6763560  67.3897150
  47.9576280 125.7391290  66.8647220  56.2070910 124.4544860  54.3435440
  56.3823100 123.7682600  53.6996360  55.5092480 124.9791910  53.9512110
  44.0498560 124.8439700  51.8970750  44.7817380 124.5598980  51.3494640
  44.3092230 124.6052980  52.7870130  43.2113350 120.9604430  51.9017080
  42.5822230 121.4289530  52.4502910  43.3261180 120.1153650  52.3363270
  54.5403410 124.1389150  67.1702230  55.3328730 123.6438380  66.9628190
  54.8336560 124.8179290  67.7777840  50.6663070 115.0110090  38.0518280
  50.5857120 114.0964700  37.7809990  50.2527490 115.5077160  37.3457990
  48.7981110 116.7889110  39.9327550  48.0223210 116.3089550  40.2226120
  49.4494040 116.1094760  39.7583710  42.8146940 117.1008920  40.8103310
  41.9831820 116.8457630  41.2099820  43.4227920 117.1719690  41.5461230
  52.8188540 121.1949300  38.7126680  52.3570070 120.4236540  39.0413850
  53.6314090 121.2215370  39.2179130  42.7948200 121.1349010  41.0061330
  43.0976240 120.2446750  40.8271550  43.5391790 121.6919230  40.7783580
  41.2238890 112.0610810  34.5945700  40.3355590 112.4026780  34.4925580
  41.5080080 111.8611130  33.7026530  39.1871900 114.6616460  40.4785400
  39.7588010 113.8938660  40.4789040  39.1873440 114.9605220  39.5692010
  49.0451850 123.4807310  38.3330670  48.4263290 123.9364810  37.7625110
  49.9003630 123.6358770  37.9320370  40.4296770 110.0700820  42.2654330
  40.2499610 109.1726570  42.5457090  40.0276850 110.6172690  42.9401280
  49.2695270 112.2716680  40.1666640  49.6460090 111.3988560  40.0540310
  49.1714780 112.6075380  39.2757080  53.0519390 109.7667120  37.0994980
  53.8729010 109.2763690  37.1420460  53.0853470 110.3564780  37.8526820
  41.0483440 112.5661320  40.8736670  41.7293550 112.8299690  41.4924070
  40.7331490 111.7262190  41.2074680  45.2408010 113.6128680  39.9609260
  45.7486230 114.1109650  40.6014280  45.7721250 112.8363880  39.7848620
  57.3418940 111.7833870  43.6638610  56.6371110 112.1715580  43.1453720
  57.6076860 112.4784160  44.2659540  43.5244110 108.2527240  44.2272680
  43.5262550 108.7699630  43.4218580  42.6948420 107.7757420  44.2042610
  49.9115200 118.3646550  35.7262580  49.2932470 118.8296000  35.1625300
  50.4238450 119.0574030  36.1432090  44.7746960 117.8922420  42.4046180
  44.4416340 118.5191340  43.0467250  44.9513640 118.4184300  41.6247850
  53.2880870 111.7067500  39.8722520  52.5836440 111.9952390  40.4525630
  53.6493030 112.5167610  39.5122080  43.2059440 109.9637200  42.2343130
  43.5476250 110.8079250  41.9397000  42.2675250 110.1120940  42.3508470
  43.9866060 119.8603220  44.2195360  44.6040060 120.5354300  43.9379810
  43.1259180 120.2691200  44.1282860  39.2798400 119.0503080  33.1002210
  38.9026380 119.5390180  32.3687110  39.5371470 119.7228360  33.7308740
  53.7347810 119.8902980  35.9385350  53.6244140 118.9477310  36.0634770
  53.7316060 120.2518620  36.8248110  49.2768090 115.5168300  35.2947840
  48.3497370 115.4505680  35.5236310  49.4292910 116.4548430  35.1803080
  53.3065380 117.0788600  35.7983090  52.6877800 116.7408150  35.1509390
  53.2889830 116.4348360  36.5062280  44.8824730 116.0433040  38.0767570
  44.4781730 115.3310290  37.5813470  44.9687850 115.6986280  38.9655610
  43.5953350 112.8176250  41.8566610  44.1467940 112.9271590  41.0819860
  44.1096860 113.1913850  42.5721840  44.4424860 119.4682290  46.8914580
  43.5453390 119.6922260  47.1387980  44.4677730 119.5917230  45.9425980
  51.4830080 116.3175410  32.8055840  51.9223360 115.4797840  32.6593660
  52.1958500 116.9504810  32.8919980  43.2696080 116.3395610  45.4671950
  43.1303850 117.2118410  45.8359350  42.3877440 115.9968420  45.3219890
  49.5925460 121.2571480  36.7737080  50.0321370 121.9995810  36.3592470
  49.5312350 121.4998050  37.6976040  55.0647220 107.5718220  31.1196880
  54.7519880 107.6645050  32.0195950  55.8259690 108.1499250  31.0694310
  41.5829360 114.9378020  35.5774220  41.4626960 115.6640110  34.9655490
  41.2730250 114.1680930  35.1002130  57.0191250 123.0644410  48.9721270
  57.4950970 123.5427300  49.6510350  57.6398410 122.9961900  48.2466770
  40.4662360 119.8093350  37.7949040  40.0590440 119.9507940  36.9402640
  41.3575370 119.5253510  37.5920250  52.2595640 124.2440600  34.1300090
  52.0996780 123.9543540  35.0281920  52.0942350 123.4680730  33.5945320
  44.7384020 124.0239130  35.9071710  44.5626500 123.1074670  35.6939510
  43.8839760 124.3826420  36.1469510  51.9621770 121.7528160  32.6898090
  51.2686930 121.7505450  32.0300370  52.7044630 121.3287480  32.2592260
  51.5271700 123.3790870  36.7646580  51.9828650 122.5980250  37.0785200
  51.8664220 124.0897690  37.3087760  48.3362830 111.1481610  44.5633210
  47.8742200 111.3564630  45.3753150  47.9340940 110.3340960  44.2603880
  53.3367340 112.3690560  45.6929870  52.4860930 112.0696310  46.0138940
  53.1769130 112.6132570  44.7813690  46.0868920 108.8260420  40.8187490
  46.3841250 109.7323250  40.7379510  46.6354480 108.3379200  40.2047060
  43.8407240 113.4046660  36.6879140  43.6148160 113.1883830  37.5925760
  43.0599770 113.8375120  36.3425110  51.0705000 113.4110030  35.2869790
  50.4713890 114.1345830  35.1033410  51.6184610 113.3486810  34.5046240
  46.2806450 114.3032240  47.3539410  46.1850050 113.3626970  47.2039810
  47.1238430 114.5247310  46.9587480  41.4116990 110.7145910  45.5073190
  41.0180380 111.5621120  45.7145970  40.7235390 110.0772280  45.6981830
  47.9862040 110.7980880  48.5769930  47.2960360 110.6053080  49.2116020
  48.7294340 111.0815520  49.1094230  38.7134040 108.6374370  39.5403270
  38.4247090 109.2077230  40.2528250  39.4579800 108.1578820  39.9034500
  38.9004270 112.5794490  30.7505990  38.8178940 113.5225250  30.8920980
  38.5487330 112.4369400  29.8718340  46.7002400 111.3133520  39.8176340
  46.7038460 110.8723470  38.9680880  47.5953520 111.6350850  39.9248160
  42.5504780 111.1960010  38.7770550  42.2104830 111.6735240  39.5337600
  41.7882100 110.7425130  38.4171650  50.7250920 110.0913000  40.8246790
  50.7423660 110.5421650  41.6688640  50.4766500 109.1918640  41.0380230
  45.7744050 114.6246740  32.2066400  45.2060950 114.1764990  31.5802310
  46.4833050 114.9839520  31.6731550  54.1521670 107.5045180  46.6633170
  54.4767440 106.7734840  47.1891150  54.1878180 107.1858820  45.7614160
  40.8513230 118.5258760  46.0833130  40.4668020 117.8852430  46.6816090
  41.1625420 119.2294880  46.6527860  47.0010370 115.3735300  41.5641750
  47.3680500 114.8993870  42.3103090  46.8115430 116.2476870  41.9050090
  39.8650860 110.1178990  37.6935220  39.5797780 109.7534660  38.5313840
  39.8029720 109.3859450  37.0798360  44.7909740 114.4143940  43.8825960
  44.4866810 115.2935920  44.1076320  45.7456200 114.4743730  43.9183400
  43.3191530 118.6204930  34.4792810  42.5453790 118.0802550  34.3191530
  44.0486160 118.1011540  34.1410570  54.0779510 117.6170290  40.2719200
  54.7978630 118.1125580  39.8815310  53.8761330 116.9388180  39.6273070
  52.2537840 113.3827900  32.7110750  53.1417460 113.6945130  32.5362090
  52.2242930 112.5100150  32.3191330  43.3628930 118.2885310  38.1171620
  43.8807600 117.4853570  38.0628510  42.9112950 118.2264450  38.9588450
  48.2498430 119.5551590  33.3898920  48.5914130 120.2993820  32.8942240
  47.4211140 119.8682710  33.7523750  40.8473470 115.2546680  45.0297320
  40.4888410 115.9200530  45.6170660  40.5528030 114.4230230  45.4009940
  44.0486590 115.7130920  47.9136870  43.7486730 115.8588100  47.0164690
  44.8197830 115.1536210  47.8210260  55.6026250 117.1507260  45.2560580
  54.8774440 117.7436040  45.0589970  56.1301710 117.1430800  44.4573950
  55.5539360 121.5482000  34.9072740  54.9115520 120.8937620  35.1816460
  55.1670020 121.9537090  34.1313410  51.1325840 118.8767430  38.7544430
  51.4849660 118.2795560  38.0945800  50.2488170 118.5511660  38.9252680
  47.2189120 119.6365120  36.1614840  47.9060250 120.1834330  36.5422430
  46.4321540 120.1805850  36.1964450  39.3581520 115.2537940  31.6531920
  40.2276370 115.5362740  31.9367840  38.8671840 116.0673810  31.5380730
  46.5216330 116.6411150  35.7740200  46.9779110 117.4516400  36.0000390
  46.1704540 116.3234290  36.6058690  53.9436740 120.4398460  31.4449090
  53.7174320 119.7228900  32.0373730  53.5532940 120.1910900  30.6070840
  39.7252770 124.4665320  32.2193550  40.0850410 125.0654660  31.5650820
  39.5845110 125.0125210  32.9928580  39.4222040 108.7439920  45.7069420
  38.7080560 108.9436840  46.3122030  39.8417080 107.9679490  46.0784220
  53.5252990 118.3570400  33.1063250  53.2374690 118.8183090  33.8941130
  54.3205160 117.8968170  33.3747470  45.7421390 121.8496520  33.0367220
  45.7331490 122.5826210  32.4211730  44.8219750 121.6028100  33.1294180
  41.3428030 117.0711410  33.7813980  40.7355980 117.8110310  33.7909280
  41.8177380 117.1610770  32.9552180  50.9160820 111.2362230  43.4570870
  51.2841640 110.4157440  43.7850440  50.0559020 111.2964120  43.8726520
  54.2822850 110.1919170  34.2658430  53.6536010 110.2964840  33.5516660
  53.7874770 110.4115950  35.0552310  48.7280990 121.9124760  31.6992410
  48.8292970 121.7088750  30.7694390  47.8282730 121.6583040  31.9040190
  47.8762810 113.8901820  43.6808840  48.3748060 114.3647640  44.3460690
  48.0185760 112.9665340  43.8878870  47.3699100 124.4311080  36.3940080
  47.6240600 124.3932470  35.4719450  46.4211580 124.3044410  36.3868330
  55.0829670 110.1069780  44.5237230  54.5803270 110.8475180  44.8631040
  55.8986330 110.4953780  44.2074020  53.3751680 115.3502960  37.9698590
  52.4341820 115.3653190  38.1446280  53.6895750 114.5638920  38.4158890
  43.3533320 117.0322560  31.5302550  44.1196590 116.9203920  32.0927980
  43.4308010 116.3360530  30.8779320  42.0480080 114.4647630  32.2135440
  42.1283670 113.5175140  32.3252840  42.9399830 114.7954510  32.3196100
  42.8494790 124.6143020  39.3169980  43.5857270 124.0658480  39.5878550
  43.2335710 125.4799030  39.1775970  39.7340270 120.6816590  35.1911490
  38.8080050 120.9237730  35.1816900  40.1996700 121.5090850  35.0696240
  45.9597100 123.7873330  31.1395550  46.7525710 124.0762160  30.6877340
  45.4401450 123.3565500  30.4608030  55.0127270 123.0143460  32.5632290
  54.7268780 122.6008600  31.7486470  54.8146820 123.9431170  32.4432810
  39.5750880 116.2862550  47.4491610  40.0789900 115.7069830  48.0207840
  38.8358300 116.5702780  47.9867980  46.4774500 119.0076740  31.0037900
  46.3725140 118.3929090  31.7299280  46.3098720 118.4842630  30.2200910
  46.6288820 117.6933540  46.9827130  45.8634490 118.2618540  46.8981800
  46.8104780 117.4009750  46.0895360  49.7177230 118.0696770  31.6079890
  49.1687330 118.5166070  32.2522630  50.3396490 117.5646020  32.1317560
  41.6073960 114.4292140  48.3441680  41.6479300 114.1306010  49.2526910
  42.4619460 114.8299750  48.1849200  45.3852350 117.0287690  33.5045190
  45.8068770 116.8627560  34.3476580  45.5103190 116.2187920  33.0100330
  43.5479770 113.0084240  46.3116170  43.0176230 112.5175190  45.6839510
  44.2167840 113.4368440  45.7774100  47.8979990 116.0525300  30.7522290
  48.4185650 115.3374320  30.3863440  48.5448390 116.6911170  31.0522800
  44.0352070 109.9746610  46.3913460  43.9408940 109.3567360  45.6664330
  43.4549460 110.7012900  46.1643370  46.8013510 108.5319850  43.4240850
  46.3530810 108.5544110  42.5786400  46.1678710 108.1338870  44.0211150
  47.2073060 117.4274180  44.0453290  47.6261170 118.2706910  43.8729530
  46.2881690 117.5646220  43.8160070  49.5436960 115.1590360  45.4291130
  49.6633170 114.5631500  46.1685970  50.4030960 115.1960050  45.0092430
  46.3105730 111.7011710  46.6866950  46.9005420 111.3927560  47.3744770
  45.4925970 111.2291460  46.8426850  51.7599560 107.9129150  32.9790230
  52.0401850 107.0697050  33.3349650  50.9865290 108.1452260  33.4928980
  48.4628020 124.1336910  33.0424030  49.3578810 124.4721880  33.0642790
  48.4945650 123.4116320  32.4148310  42.1024180 119.5063960  31.2711030
  42.5399050 120.0493630  31.9268610  42.5871910 118.6810910  31.2807370
  39.3169980 122.2952990  38.7231290  39.6472990 121.4274050  38.4909930
  39.7460980 122.5011510  39.5536250  43.9131900 120.6262000  36.3833260
  43.6127440 120.5026970  37.2837170  43.8069390 119.7670590  35.9748990
  39.8060190 123.1623580  41.4612920  39.3691180 123.3424380  42.2937070
  40.3737870 123.9198200  41.3194640  56.6823820 120.4058400  31.0859940
  55.8516780 120.4735050  31.5567170  56.8595650 121.2962520  30.7826800
  56.1380280 117.1505880  33.5894140  56.8999190 117.7202530  33.6953830
  56.1534650 116.5833080  34.3602450  39.6384620 115.6743810  37.8201800
  38.9833460 115.4055450  37.1761500  40.4762570 115.5648290  37.3703780
  56.1899450 117.4440250  30.7466660  56.4648290 118.3519130  30.6185880
  56.0010190 117.3802780  31.6828650  52.5875060 110.4685100  32.0420290
  53.0059940 110.2816080  31.2016950  52.2811120 109.6164150  32.3523220
  55.4764410 114.5280760  45.3735610  55.2450500 114.2993510  44.4733560
  55.7368960 115.4480310  45.3280500  40.2276550 112.9705470  46.2663560
  39.3332600 112.9372230  46.6057270  40.7674100 113.1692260  47.0314810
  38.8522700 112.8842740  33.7627130  37.9486780 113.1472940  33.5878790
  39.3363320 113.1553910  32.9827090  55.5405470 113.6906600  42.5622880
  54.5908180 113.6570140  42.6767870  55.7218480 114.6006710  42.3272650
  40.7316260 107.2453800  40.6146780  41.3792450 106.6951180  40.1741940
  41.1518100 107.4996950  41.4362590  54.6268600 107.4395160  43.9716420
  55.2640820 108.0529300  44.3375610  54.7743490 107.4755820  43.0265650
  57.1693150 109.3308950  30.7539560  58.0942460 109.1990130  30.5457850
  57.1468940 109.4101770  31.7076010  57.2431640 110.1019610  33.3796270
  56.4483140 110.0364730  33.9089180  57.4474920 111.0370250  33.3681620
  54.1850060 124.1411160  37.3734660  54.7809130 123.8195730  36.6969080
  54.4428210 123.6682980  38.1647930  40.4848260 107.4009470  43.3572100
  40.1363080 107.8573290  44.1230280  40.1535960 106.5066600  43.4394530
  42.0912630 120.5729070  47.5225290  42.0482260 120.2021980  48.4039750
  42.2223640 121.5106640  47.6627110  47.9973080 108.5921350  46.8791520
  47.9361970 109.1843180  47.6286930  48.9373460 108.4847310  46.7341780
  50.6347640 108.2491410  46.5183810  51.2488050 108.5670700  45.8564890
  51.1797200 107.7640000  47.1379670  41.1568900 106.9285670  46.6322870
  41.7051890 106.7473720  45.8688980  41.2224210 106.1379780  47.1679180
  41.9300660 123.5191320  44.6423070  41.3360980 123.3876020  45.3813110
  41.9224500 122.6829460  44.1765170  52.2827660 109.0194420  44.2294820
  51.9541020 108.2046180  43.8496550  53.2309960 108.9764230  44.1060510
  41.5612890 120.8849700  43.5931110  40.8346950 120.2654990  43.5257060
  41.6222040 121.2790310  42.7229190  55.5390140 108.0631730  37.8403920
  55.4778540 107.1192950  37.6934940  56.3182170 108.1711820  38.3857380
  39.8442890 124.2024090  36.8027870  39.6764930 123.5694770  37.5009760
  38.9777400 124.4083490  36.4522060  54.6544300 107.2144150  33.8085390
  54.8494930 108.1127600  34.0752820  53.8674170 106.9831230  34.3018340
  41.4505590 122.8957320  34.2478010  40.9253210 123.2765350  33.5439970
  41.3750170 123.5208090  34.9687720  56.2070910 124.4544860  35.5691950
  56.3823100 123.7682600  34.9252870  55.5092480 124.9791910  35.1768620
  45.1589460 107.5764040  48.3359580  44.8773730 108.0797640  47.5720400
  45.5409160 106.7785790  47.9701710  44.0498560 124.8439700  33.1227260
  44.7817380 124.5598980  32.5751150  44.3092230 124.6052980  34.0126640
  43.2113350 120.9604430  33.1273590  42.5822230 121.4289530  33.6759420
  43.3261180 120.1153650  33.5619780  51.7604920 106.9917620  48.9140050
  51.6470370 107.3112230  49.8091570  52.5774660 107.3930130  48.6177330
  50.6663070 115.0110090  19.2774790  50.5857120 114.0964700  19.0066500
  50.2527490 115.5077160  18.5714500  48.7981110 116.7889110  21.1584060
  48.0223210 116.3089550  21.4482630  49.4494040 116.1094760  20.9840220
  42.8146940 117.1008920  22.0359820  41.9831820 116.8457630  22.4356330
  43.4227920 117.1719690  22.7717740  52.8188540 121.1949300  19.9383190
  52.3570070 120.4236540  20.2670360  53.6314090 121.2215370  20.4435640
  42.7948200 121.1349010  22.2317840  43.0976240 120.2446750  22.0528060
  43.5391790 121.6919230  22.0040090  41.2238890 112.0610810  15.8202210
  40.3355590 112.4026780  15.7182090  41.5080080 111.8611130  14.9283040
  39.1871900 114.6616460  21.7041910  39.7588010 113.8938660  21.7045550
  39.1873440 114.9605220  20.7948520  49.0451850 123.4807310  19.5587180
  48.4263290 123.9364810  18.9881620  49.9003630 123.6358770  19.1576880
  48.2390100 119.4646300  21.1654220  48.1698380 118.5236240  21.0043350
  49.0009960 119.5547710  21.7376790  40.4296770 110.0700820  23.4910840
  40.2499610 109.1726570  23.7713600  40.0276850 110.6172690  24.1657790
  49.2695270 112.2716680  21.3923150  49.6460090 111.3988560  21.2796820
  49.1714780 112.6075380  20.5013590  43.4000280 110.6442310  16.8540590
  43.5067030 111.5446040  17.1609350  42.4892640 110.5960280  16.5635240
  53.0519390 109.7667120  18.3251490  53.8729010 109.2763690  18.3676970
  53.0853470 110.3564780  19.0783330  41.0483440 112.5661320  22.0993180
  41.7293550 112.8299690  22.7180580  40.7331490 111.7262190  22.4331190
  45.2408010 113.6128680  21.1865770  45.7486230 114.1109650  21.8270790
  45.7721250 112.8363880  21.0105130  57.3418940 111.7833870  24.8895120
  56.6371110 112.1715580  24.3710230  57.6076860 112.4784160  25.4916050
  43.5244110 108.2527240  25.4529190  43.5262550 108.7699630  24.6475090
  42.6948420 107.7757420  25.4299120  49.9115200 118.3646550  16.9519090
  49.2932470 118.8296000  16.3881810  50.4238450 119.0574030  17.3688600
  44.7746960 117.8922420  23.6302690  44.4416340 118.5191340  24.2723760
  44.9513640 118.4184300  22.8504360  53.2880870 111.7067500  21.0979030
  52.5836440 111.9952390  21.6782140  53.6493030 112.5167610  20.7378590
  43.2059440 109.9637200  23.4599640  43.5476250 110.8079250  23.1653510
  42.2675250 110.1120940  23.5764980  43.9866060 119.8603220  25.4451870
  44.6040060 120.5354300  25.1636320  43.1259180 120.2691200  25.3539370
  39.2798400 119.0503080  14.3258720  38.9026380 119.5390180  13.5943620
  39.5371470 119.7228360  14.9565250  54.9043650 121.3242630  23.3606510
  54.2207170 121.9941740  23.3523180  55.4437940 121.5223280  22.5951370
  56.3567790 111.1522290  21.4888240  55.4092700 111.1861270  21.6203670
  56.6817780 111.9661240  21.8737600  46.8887330 107.4519470  19.7844230
  47.1962310 106.8966360  19.0679730  45.9588030 107.5863930  19.6017220
  52.4402390 123.1686760  22.0751690  52.4529550 122.7649050  21.2073950
  51.8877610 123.9434050  21.9713120  53.7347810 119.8902980  17.1641860
  53.6244140 118.9477310  17.2891280  53.7316060 120.2518620  18.0504620
  51.8387830 118.0716600  23.4034300  52.2556620 117.8576710  22.5687760
  52.5627650 118.3289390  23.9742920  49.2768090 115.5168300  16.5204350
  48.3497370 115.4505680  16.7492820  49.4292910 116.4548430  16.4059590
  49.2637170 111.7885300  13.5171510  48.3240840 111.9499260  13.6023970
  49.5820430 112.5070980  12.9707500  55.7849930 116.4703820  23.4950540
  54.9568560 116.5396910  23.0200670  56.3800410 117.0558130  23.0266370
  53.3065380 117.0788600  17.0239600  52.6877800 116.7408150  16.3765900
  53.2889830 116.4348360  17.7318790  52.7491940 113.2573140  24.4405410
  52.3363120 114.0826850  24.6945400  52.0167890 112.6718180  24.2481770
  44.8824730 116.0433040  19.3024080  44.4781730 115.3310290  18.8069980
  44.9687850 115.6986280  20.1912120  45.3506430 119.7300600  21.4663290
  45.0534720 119.1246070  20.7871070  46.3006250 119.7677910  21.3552650
  43.5953350 112.8176250  23.0823120  44.1467940 112.9271590  22.3076370
  44.1096860 113.1913850  23.7978350  53.4392040 123.3032470  25.1286390
  52.9622600 124.1104660  24.9359000  52.7553830 122.6510800  25.2812600
  44.4424860 119.4682290  28.1171090  43.5453390 119.6922260  28.3644490
  44.4677730 119.5917230  27.1682490  51.4830080 116.3175410  14.0312350
  51.9223360 115.4797840  13.8850170  52.1958500 116.9504810  14.1176490
  43.2696080 116.3395610  26.6928460  43.1303850 117.2118410  27.0615860
  42.3877440 115.9968420  26.5476400  49.5925460 121.2571480  17.9993590
  50.0321370 121.9995810  17.5848980  49.5312350 121.4998050  18.9232550
  45.0676430 122.2817310  28.9013610  45.0391860 122.6860260  28.0342040
  44.9041400 121.3527670  28.7385210  55.0647220 107.5718220  12.3453390
  54.7519880 107.6645050  13.2452460  55.8259690 108.1499250  12.2950820
  41.5829360 114.9378020  16.8030730  41.4626960 115.6640110  16.1912000
  41.2730250 114.1680930  16.3258640  57.0191250 123.0644410  30.1977780
  57.4950970 123.5427300  30.8766860  57.6398410 122.9961900  29.4723280
  39.2214730 118.1093160  22.6099370  39.2995150 118.2441930  21.6655090
  39.8356410 117.4009050  22.8027490  40.4662360 119.8093350  19.0205550
  40.0590440 119.9507940  18.1659150  41.3575370 119.5253510  18.8176760
  56.4224500 120.2557260  27.3577790  56.5487560 120.0169140  26.4394970
  56.4645880 119.4241800  27.8299870  50.2841240 123.9585260  25.9272600
  50.7985910 123.8693270  26.7295030  49.4410320 124.3044960  26.2200510
  52.2595640 124.2440600  15.3556600  52.0996780 123.9543540  16.2538430
  52.0942350 123.4680730  14.8201830  44.7384020 124.0239130  17.1328220
  44.5626500 123.1074670  16.9196020  43.8839760 124.3826420  17.3726020
  51.9621770 121.7528160  13.9154600  51.2686930 121.7505450  13.2556880
  52.7044630 121.3287480  13.4848770  51.5271700 123.3790870  17.9903090
  51.9828650 122.5980250  18.3041710  51.8664220 124.0897690  18.5344270
  56.2748510 112.3089720  28.3227530  55.6592780 112.8169390  27.7942990
  55.9544930 111.4088050  28.2653470  39.2774250 119.1507330  25.1493830
  39.4405290 118.6812690  24.3313200  39.7426700 118.6430890  25.8142670
  44.0493020 108.2813090  20.1854400  43.6061170 109.0622630  19.8538920
  44.6078010 108.6042980  20.8925340  48.3362830 111.1481610  25.7889720
  47.8742200 111.3564630  26.6009660  47.9340940 110.3340960  25.4860390
  53.3367340 112.3690560  26.9186380  52.4860930 112.0696310  27.2395450
  53.1769130 112.6132570  26.0070200  50.4317050 113.8692310  29.0185170
  50.7570460 113.0356060  28.6787400  51.2197380 114.3920830  29.1663500
  47.1651840 107.9023790  15.0660230  46.5406020 107.8983660  15.7913540
  47.0781960 107.0354750  14.6696200  46.0868920 108.8260420  22.0444000
  46.3841250 109.7323250  21.9636020  46.6354480 108.3379200  21.4303570
  43.8407240 113.4046660  17.9135650  43.6148160 113.1883830  18.8182270
  43.0599770 113.8375120  17.5681620  51.0705000 113.4110030  16.5126300
  50.4713890 114.1345830  16.3289920  51.6184610 113.3486810  15.7302750
  49.6769870 112.0473570  18.5429580  50.0699440 112.3645770  17.7298270
  50.0386720 111.1685450  18.6574100  41.4116990 110.7145910  26.7329700
  41.0180380 111.5621120  26.9402480  40.7235390 110.0772280  26.9238340
  38.7134040 108.6374370  20.7659780  38.4247090 109.2077230  21.4784760
  39.4579800 108.1578820  21.1291010  38.9004270 112.5794490  11.9762500
  38.8178940 113.5225250  12.1177490  38.5487330 112.4369400  11.0974850
  50.2625010 114.6379320  22.6380360  49.5306130 115.1466130  22.9870460
  49.8649350 113.8209300  22.3369140  46.7002400 111.3133520  21.0432850
  46.7038460 110.8723470  20.1937390  47.5953520 111.6350850  21.1504670
  42.5504780 111.1960010  20.0027060  42.2104830 111.6735240  20.7594110
  41.7882100 110.7425130  19.6428160  46.7622550 112.3145600  14.0339610
  46.8835370 112.2732080  14.9825430  46.3771060 113.1769750  13.8786340
  50.7250920 110.0913000  22.0503300  50.7423660 110.5421650  22.8945150
  50.4766500 109.1918640  22.2636740  45.7744050 114.6246740  13.4322910
  45.2060950 114.1764990  12.8058820  46.4833050 114.9839520  12.8988060
  54.1521670 107.5045180  27.8889680  54.4767440 106.7734840  28.4147660
  54.1878180 107.1858820  26.9870670  40.8513230 118.5258760  27.3089640
  40.4668020 117.8852430  27.9072600  41.1625420 119.2294880  27.8784370
  47.0010370 115.3735300  22.7898260  47.3680500 114.8993870  23.5359600
  46.8115430 116.2476870  23.1306600  39.8650860 110.1178990  18.9191730
  39.5797780 109.7534660  19.7570350  39.8029720 109.3859450  18.3054870
  44.7909740 114.4143940  25.1082470  44.4866810 115.2935920  25.3332830
  45.7456200 114.4743730  25.1439910  43.3191530 118.6204930  15.7049320
  42.5453790 118.0802550  15.5448040  44.0486160 118.1011540  15.3667080
  54.0779510 117.6170290  21.4975710  54.7978630 118.1125580  21.1071820
  53.8761330 116.9388180  20.8529580  49.5389450 109.0108250  15.6405100
  48.7254060 108.5121420  15.5650410  49.3451400 109.8506500  15.2241450
  49.4598310 117.6879350  27.3844710  49.3935620 116.7675020  27.1302300
  48.8303450 117.7854790  28.0989350  52.2537840 113.3827900  13.9367260
  53.1417460 113.6945130  13.7618600  52.2242930 112.5100150  13.5447840
  43.3628930 118.2885310  19.3428130  43.8807600 117.4853570  19.2885020
  42.9112950 118.2264450  20.1844960  48.2498430 119.5551590  14.6155430
  48.5914130 120.2993820  14.1198750  47.4211140 119.8682710  14.9780260
  40.8473470 115.2546680  26.2553830  40.4888410 115.9200530  26.8427170
  40.5528030 114.4230230  26.6266450  44.0486590 115.7130920  29.1393380
  43.7486730 115.8588100  28.2421200  44.8197830 115.1536210  29.0466770
  49.3915040 120.5099920  27.1348510  49.4059580 119.5780880  26.9167420
  48.6840140 120.5959680  27.7738280  54.5252110 114.6939740  13.4047120
  54.4415830 115.1253960  12.5543560  55.2446300 115.1538090  13.8373940
  55.6026250 117.1507260  26.4817090  54.8774440 117.7436040  26.2846480
  56.1301710 117.1430800  25.6830460  55.5539360 121.5482000  16.1329250
  54.9115520 120.8937620  16.4072970  55.1670020 121.9537090  15.3569920
  51.1325840 118.8767430  19.9800940  51.4849660 118.2795560  19.3202310
  50.2488170 118.5511660  20.1509190  47.2189120 119.6365120  17.3871350
  47.9060250 120.1834330  17.7678940  46.4321540 120.1805850  17.4220960
  39.3581520 115.2537940  12.8788430  40.2276370 115.5362740  13.1624350
  38.8671840 116.0673810  12.7637240  46.5216330 116.6411150  16.9996710
  46.9779110 117.4516400  17.2256900  46.1704540 116.3234290  17.8315200
  48.8248940 122.1517490  24.2289010  49.4691160 122.3576870  24.9062430
  49.1878380 121.3905890  23.7759860  42.4228110 106.9848800  17.4719230
  42.2942740 106.9766700  18.4204150  41.5990130 107.3231890  17.1210240
  50.0981020 120.1549840  22.9466460  50.7403250 119.4543000  23.0598630
  50.6230370 120.9348280  22.7663350  53.9436740 120.4398460  12.6705600
  53.7174320 119.7228900  13.2630240  53.5532940 120.1910900  11.8327350
  51.8718640 120.9544740  26.1502520  52.2074880 121.5411430  26.8280440
  50.9518980 120.8237450  26.3800310  39.7252770 124.4665320  13.4450060
  40.0850410 125.0654660  12.7907330  39.5845110 125.0125210  14.2185090
  39.4222040 108.7439920  26.9325930  38.7080560 108.9436840  27.5378540
  39.8417080 107.9679490  27.3040730  53.5252990 118.3570400  14.3319760
  53.2374690 118.8183090  15.1197640  54.3205160 117.8968170  14.6003980
  39.7094630 122.7320180  27.9192460  39.8185750 121.7914920  27.7787850
  39.0575190 122.9974930  27.2706190  47.7007220 121.0036070  29.3190580
  47.3804090 120.2845310  29.8636270  47.0265580 121.6791140  29.3926640
  45.7421390 121.8496520  14.2623730  45.7331490 122.5826210  13.6468240
  44.8219750 121.6028100  14.3550690  41.3428030 117.0711410  15.0070490
  40.7355980 117.8110310  15.0165790  41.8177380 117.1610770  14.1808690
  50.9160820 111.2362230  24.6827380  51.2841640 110.4157440  25.0106950
  50.0559020 111.2964120  25.0983030  54.2822850 110.1919170  15.4914940
  53.6536010 110.2964840  14.7773170  53.7874770 110.4115950  16.2808820
  48.7280990 121.9124760  12.9248920  48.8292970 121.7088750  11.9950900
  47.8282730 121.6583040  13.1296700  46.2506880 112.4705120  16.9072820
  45.5423030 112.9391460  17.3486430  46.5351360 111.8127130  17.5418010
  47.8762810 113.8901820  24.9065350  48.3748060 114.3647640  25.5717200
  48.0185760 112.9665340  25.1135380  50.2822310 109.1955780  18.3468610
  50.1590090 109.2141910  17.3978120  51.2306870 109.2434720  18.4667010
  47.3699100 124.4311080  17.6196590  47.6240600 124.3932470  16.6975960
  46.4211580 124.3044410  17.6124840  44.4541900 110.7790200  14.2823530
  45.3032430 111.2160350  14.2163720  44.0873170 111.0910460  15.1095590
  55.0829670 110.1069780  25.7493740  54.5803270 110.8475180  26.0887550
  55.8986330 110.4953780  25.4330530  53.3751680 115.3502960  19.1955100
  52.4341820 115.3653190  19.3702790  53.6895750 114.5638920  19.6415400
  43.3533320 117.0322560  12.7559060  44.1196590 116.9203920  13.3184490
  43.4308010 116.3360530  12.1035830  42.0480080 114.4647630  13.4391950
  42.1283670 113.5175140  13.5509350  42.9399830 114.7954510  13.5452610
  55.3777260 122.5211810  20.8709360  55.5024680 123.3442980  21.3433170
  56.2442820 122.3102540  20.5233510  42.8494790 124.6143020  20.5426490
  43.5857270 124.0658480  20.8135060  43.2335710 125.4799030  20.4032480
  39.7340270 120.6816590  16.4168000  38.8080050 120.9237730  16.4073410
  40.1996700 121.5090850  16.2952750  41.8553070 123.7989090  29.7312070
  42.6565800 124.1201140  30.1447470  41.3404890 123.4384670  30.4531980
  45.9597100 123.7873330  12.3652060  46.7525710 124.0762160  11.9133850
  45.4401450 123.3565500  11.6864540  50.6917700 119.9068960  29.6787480
  50.0855860 119.9300560  28.9383230  50.3871810 119.1752000  30.2154730
  52.1218070 123.6349250  28.2896890  53.0739820 123.5507270  28.2397130
  51.9746290 124.2990960  28.9630680  55.0127270 123.0143460  13.7888800
  54.7268780 122.6008600  12.9742980  54.8146820 123.9431170  13.6689320
  39.5750880 116.2862550  28.6748120  40.0789900 115.7069830  29.2464350
  38.8358300 116.5702780  29.2124490  46.4774500 119.0076740  12.2294410
  46.3725140 118.3929090  12.9555790  46.3098720 118.4842630  11.4457420
  46.6288820 117.6933540  28.2083640  45.8634490 118.2618540  28.1238310
  46.8104780 117.4009750  27.3151870  49.7177230 118.0696770  12.8336400
  49.1687330 118.5166070  13.4779140  50.3396490 117.5646020  13.3574070
  53.7712170 119.4238870  28.7658660  54.5121640 119.7614630  28.2626120
  53.0084850 119.5930930  28.2128430  41.6073960 114.4292140  29.5698190
  41.6479300 114.1306010  30.4783420  42.4619460 114.8299750  29.4105710
  45.3852350 117.0287690  14.7301700  45.8068770 116.8627560  15.5733090
  45.5103190 116.2187920  14.2356840  43.5479770 113.0084240  27.5372680
  43.0176230 112.5175190  26.9096020  44.2167840 113.4368440  27.0030610
  47.8979990 116.0525300  11.9778800  48.4185650 115.3374320  11.6119950
  48.5448390 116.6911170  12.2779310  52.4457830 117.4753700  27.3013870
  52.8598850 117.6298780  28.1504290  51.5108830 117.6008920  27.4639650
  52.9180000 114.8149860  29.3053020  53.5000770 114.0602180  29.2173500
  53.0941770 115.3457300  28.5284500  46.8013510 108.5319850  24.6497360
  46.3530810 108.5544110  23.8042910  46.1678710 108.1338870  25.2467660
  47.2073060 117.4274180  25.2709800  47.6261170 118.2706910  25.0986040
  46.2881690 117.5646220  25.0416580  49.5436960 115.1590360  26.6547640
  49.6633170 114.5631500  27.3942480  50.4030960 115.1960050  26.2348940
  51.8824860 115.7127550  25.2310150  51.3560080 116.2370170  24.6275290
  52.2256200 116.3454940  25.8619880  44.2811250 113.1020920  11.6759860
  44.0800310 112.2388280  12.0373200  44.1103300 113.0154280  10.7381460
  45.0580480 123.7327190  26.3867530  44.5201570 124.4573250  26.0676230
  45.3114440 123.2557530  25.5964870  51.1299160 111.3177520  28.1456480
  50.4414680 110.6559060  28.0806470  51.8505180 110.8715790  28.5904940
  51.7599560 107.9129150  14.2046740  52.0401850 107.0697050  14.5606160
  50.9865290 108.1452260  14.7185490  43.0794050 110.2021540  11.6637740
  43.3819950 110.2088970  10.7556890  43.8188640 109.8519400  12.1605400
  47.9142690 124.9678400  26.6454180  47.8401390 125.8713540  26.9526550
  47.0121530 124.6490300  26.6176250  46.2978980 109.1456160  12.6493940
  45.9500980 108.4680150  12.0696390  46.4991750 108.6845670  13.4637330
  48.4628020 124.1336910  14.2680540  49.3578810 124.4721880  14.2899300
  48.4945650 123.4116320  13.6404820  42.1024180 119.5063960  12.4967540
  42.5399050 120.0493630  13.1525120  42.5871910 118.6810910  12.5063880
  39.3169980 122.2952990  19.9487800  39.6472990 121.4274050  19.7166440
  39.7460980 122.5011510  20.7792760  43.9131900 120.6262000  17.6089770
  43.6127440 120.5026970  18.5093680  43.8069390 119.7670590  17.2005500
  39.8060190 123.1623580  22.6869430  39.3691180 123.3424380  23.5193580
  40.3737870 123.9198200  22.5451150  55.4422370 122.6640580  26.9746740
  54.8424360 122.7233140  26.2310660  55.5716270 121.7245560  27.1043590
  56.6823820 120.4058400  12.3116450  55.8516780 120.4735050  12.7823680
  56.8595650 121.2962520  12.0083310  56.1380280 117.1505880  14.8150650
  56.8999190 117.7202530  14.9210340  56.1534650 116.5833080  15.5858960
  39.6384620 115.6743810  19.0458310  38.9833460 115.4055450  18.4018010
  40.4762570 115.5648290  18.5960290  57.1440250 118.0055980  19.6592580
  57.5149080 117.2223300  19.2528550  57.7842180 118.6945080  19.4809880
  54.1274010 119.3892560  25.0722900  53.3133850 119.8189720  25.3348690
  54.5348210 120.0010970  24.4591950  56.1899450 117.4440250  11.9723170
  56.4648290 118.3519130  11.8442390  56.0010190 117.3802780  12.9085160
  52.5875060 110.4685100  13.2676800  53.0059940 110.2816080  12.4273460
  52.2811120 109.6164150  13.5779730  56.0864790 115.3809240  16.9652600
  55.7108390 114.6137170  16.5333890  55.3567910 115.7631940  17.4527530
  40.6760550 116.0596380  23.5861650  41.0433590 115.9723780  24.4657670
  40.1071370 115.2962930  23.4868510  55.4764410 114.5280760  26.5992120
  55.2450500 114.2993510  25.6990070  55.7368960 115.4480310  26.5537010
  40.2276550 112.9705470  27.4920070  39.3332600 112.9372230  27.8313780
  40.7674100 113.1692260  28.2571320  53.9152480 109.7537190  29.3771820
  54.7922660 109.7620590  29.7605820  53.9273320 109.0168030  28.7664170
  38.8522700 112.8842740  14.9883640  37.9486780 113.1472940  14.8135300
  39.3363320 113.1553910  14.2083600  55.3615750 113.6066730  20.2659840
  55.8853230 113.1129380  19.6350010  55.9475170 113.7417090  21.0107410
  55.5405470 113.6906600  23.7879390  54.5908180 113.6570140  23.9024380
  55.7218480 114.6006710  23.5529160  41.3949910 111.9408280  12.8978020
  42.1041610 111.5191500  12.4125300  40.6789850 112.0083510  12.2661370
  41.0424070 107.9947610  11.9380670  41.7652200 108.5356550  12.2561890
  41.3148590 107.7211030  11.0622210  54.8515720 112.8640080  16.2052250
  55.3474840 112.6310950  16.9901130  54.6531790 112.0251920  15.7889890
  40.7316260 107.2453800  21.8403290  41.3792450 106.6951180  21.3998450
  41.1518100 107.4996950  22.6619100  56.2802880 111.5001030  18.7389930
  56.1702160 111.3457070  19.6772200  57.0410470 110.9721970  18.4965340
  54.6268600 107.4395160  25.1972930  55.2640820 108.0529300  25.5632120
  54.7743490 107.4755820  24.2522160  57.1693150 109.3308950  11.9796070
  58.0942460 109.1990130  11.7714360  57.1468940 109.4101770  12.9332520
  57.2431640 110.1019610  14.6052780  56.4483140 110.0364730  15.1345690
  57.4474920 111.0370250  14.5938130  54.1850060 124.1411160  18.5991170
  54.7809130 123.8195730  17.9225590  54.4428210 123.6682980  19.3904440
  40.4848260 107.4009470  24.5828610  40.1363080 107.8573290  25.3486790
  40.1535960 106.5066600  24.6651040  42.0912630 120.5729070  28.7481800
  42.0482260 120.2021980  29.6296260  42.2223640 121.5106640  28.8883620
  45.7918660 122.1288660  24.3491520  45.5510020 122.3963220  23.4622040
  46.7321300 122.2994390  24.4042380  50.6347640 108.2491410  27.7440320
  51.2488050 108.5670700  27.0821400  51.1797200 107.7640000  28.3636180
  57.0522820 124.1483040  25.1502160  56.5581100 124.5451910  24.4329290
  56.4436110 123.5232250  25.5439440  41.1568900 106.9285670  27.8579380
  41.7051890 106.7473720  27.0945490  41.2224210 106.1379780  28.3935690
  41.9300660 123.5191320  25.8679580  41.3360980 123.3876020  26.6069620
  41.9224500 122.6829460  25.4021680  51.3755680 106.8123550  24.0709610
  50.5015520 107.1458660  23.8682540  51.2666430 106.3396730  24.8961480
  52.2827660 109.0194420  25.4551330  51.9541020 108.2046180  25.0753060
  53.2309960 108.9764230  25.3317020  54.7362270 124.7906460  22.4288900
  54.2765240 125.5422270  22.0546920  54.1074730 124.0712930  22.3703700
  41.5612890 120.8849700  24.8187620  40.8346950 120.2654990  24.7513570
  41.6222040 121.2790310  23.9485700  45.1657990 123.0994700  21.6037030
  45.6823010 122.4882060  21.0785290  45.8155370 123.6023480  22.0948040
  47.9053490 123.9903190  22.4306010  48.1931300 123.7357490  21.5539020
  48.4176710 123.4380550  23.0211580  49.1230500 107.7293390  23.0102520
  48.3402290 108.2038890  23.2899280  48.8293430 106.8248220  22.9015700
  53.6751570 108.4316490  21.0551610  54.1159660 108.3761590  20.2073210
  53.4059160 109.3474500  21.1261790  55.5390140 108.0631730  19.0660430
  55.4778540 107.1192950  18.9191450  56.3182170 108.1711820  19.6113890
  39.8442890 124.2024090  18.0284380  39.6764930 123.5694770  18.7266270
  38.9777400 124.4083490  17.6778570  40.4670910 108.0340870  15.5316240
  41.2250270 108.1469750  14.9580270  40.0048080 108.8710070  15.4859670
  47.0084720 110.1480140  18.5218550  46.1959230 109.7737030  18.1814430
  47.5126360 109.3925220  18.8239740  51.5109700 106.8122590  19.7601620
  52.1139070 107.3842800  20.2350140  50.7702690 107.3762030  19.5375520
  54.6544300 107.2144150  15.0341900  54.8494930 108.1127600  15.3009330
  53.8674170 106.9831230  15.5274850  41.4505590 122.8957320  15.4734520
  40.9253210 123.2765350  14.7696480  41.3750170 123.5208090  16.1944230
  42.8396060 108.5604920  14.0718210  43.3688820 107.7734720  13.9426160
  43.4724380 109.2396110  14.3053740  45.0333900 108.2980060  17.1263600
  44.4036640 107.5967370  17.2933730  44.4939040 109.0584190  16.9096760
  47.9725850 124.9119290  29.7974210  48.8993160 124.6763560  29.8410170
  47.9576280 125.7391290  29.3160240  56.2070910 124.4544860  16.7948460
  56.3823100 123.7682600  16.1509380  55.5092480 124.9791910  16.4025130
  44.0498560 124.8439700  14.3483770  44.7817380 124.5598980  13.8007660
  44.3092230 124.6052980  15.2383150  43.2113350 120.9604430  14.3530100
  42.5822230 121.4289530  14.9015930  43.3261180 120.1153650  14.7876290
  51.7604920 106.9917620  30.1396560  51.6470370 107.3112230  31.0348080
  52.5774660 107.3930130  29.8433840  54.5403410 124.1389150  29.6215250
  55.3328730 123.6438380  29.4141210  54.8336560 124.8179290  30.2290860
  48.7981110 116.7889110   2.3840570  48.0223210 116.3089550   2.6739140
  49.4494040 116.1094760   2.2096730  42.8146940 117.1008920   3.2616330
  41.9831820 116.8457630   3.6612840  43.4227920 117.1719690   3.9974250
  42.7948200 121.1349010   3.4574350  43.0976240 120.2446750   3.2784570
  43.5391790 121.6919230   3.2296600  39.1871900 114.6616460   2.9298420
  39.7588010 113.8938660   2.9302060  39.1873440 114.9605220   2.0205030
  48.2390100 119.4646300   2.3910730  48.1698380 118.5236240   2.2299860
  49.0009960 119.5547710   2.9633300  40.4296770 110.0700820   4.7167350
  40.2499610 109.1726570   4.9970110  40.0276850 110.6172690   5.3914300
  49.2695270 112.2716680   2.6179660  49.6460090 111.3988560   2.5053330
  49.1714780 112.6075380   1.7270100  41.0483440 112.5661320   3.3249690
  41.7293550 112.8299690   3.9437090  40.7331490 111.7262190   3.6587700
  45.2408010 113.6128680   2.4122280  45.7486230 114.1109650   3.0527300
  45.7721250 112.8363880   2.2361640  57.3418940 111.7833870   6.1151630
  56.6371110 112.1715580   5.5966740  57.6076860 112.4784160   6.7172560
  43.5244110 108.2527240   6.6785700  43.5262550 108.7699630   5.8731600
  42.6948420 107.7757420   6.6555630  44.7746960 117.8922420   4.8559200
  44.4416340 118.5191340   5.4980270  44.9513640 118.4184300   4.0760870
  53.2880870 111.7067500   2.3235540  52.5836440 111.9952390   2.9038650
  53.6493030 112.5167610   1.9635100  43.2059440 109.9637200   4.6856150
  43.5476250 110.8079250   4.3910020  42.2675250 110.1120940   4.8021490
  43.9866060 119.8603220   6.6708380  44.6040060 120.5354300   6.3892830
  43.1259180 120.2691200   6.5795880  54.9043650 121.3242630   4.5863020
  54.2207170 121.9941740   4.5779690  55.4437940 121.5223280   3.8207880
  56.3567790 111.1522290   2.7144750  55.4092700 111.1861270   2.8460180
  56.6817780 111.9661240   3.0994110  52.4402390 123.1686760   3.3008200
  52.4529550 122.7649050   2.4330460  51.8877610 123.9434050   3.1969630
  51.8387830 118.0716600   4.6290810  52.2556620 117.8576710   3.7944270
  52.5627650 118.3289390   5.1999430  55.7849930 116.4703820   4.7207050
  54.9568560 116.5396910   4.2457180  56.3800410 117.0558130   4.2522880
  52.7491940 113.2573140   5.6661920  52.3363120 114.0826850   5.9201910
  52.0167890 112.6718180   5.4738280  45.3506430 119.7300600   2.6919800
  45.0534720 119.1246070   2.0127580  46.3006250 119.7677910   2.5809160
  43.5953350 112.8176250   4.3079630  44.1467940 112.9271590   3.5332880
  44.1096860 113.1913850   5.0234860  53.4392040 123.3032470   6.3542900
  52.9622600 124.1104660   6.1615510  52.7553830 122.6510800   6.5069110
  44.4424860 119.4682290   9.3427600  43.5453390 119.6922260   9.5901000
  44.4677730 119.5917230   8.3939000  43.2696080 116.3395610   7.9184970
  43.1303850 117.2118410   8.2872370  42.3877440 115.9968420   7.7732910
  45.0676430 122.2817310  10.1270120  45.0391860 122.6860260   9.2598550
  44.9041400 121.3527670   9.9641720  57.0191250 123.0644410  11.4234290
  57.4950970 123.5427300  12.1023370  57.6398410 122.9961900  10.6979790
  39.2214730 118.1093160   3.8355880  39.2995150 118.2441930   2.8911600
  39.8356410 117.4009050   4.0284000  56.4224500 120.2557260   8.5834300
  56.5487560 120.0169140   7.6651480  56.4645880 119.4241800   9.0556380
  50.2841240 123.9585260   7.1529110  50.7985910 123.8693270   7.9551540
  49.4410320 124.3044960   7.4457020  56.2748510 112.3089720   9.5484040
  55.6592780 112.8169390   9.0199500  55.9544930 111.4088050   9.4909980
  39.2774250 119.1507330   6.3750340  39.4405290 118.6812690   5.5569710
  39.7426700 118.6430890   7.0399180  48.3362830 111.1481610   7.0146230
  47.8742200 111.3564630   7.8266170  47.9340940 110.3340960   6.7116900
  53.3367340 112.3690560   8.1442890  52.4860930 112.0696310   8.4651960
  53.1769130 112.6132570   7.2326710  50.4317050 113.8692310  10.2441680
  50.7570460 113.0356060   9.9043910  51.2197380 114.3920830  10.3920010
  46.0868920 108.8260420   3.2700510  46.3841250 109.7323250   3.1892530
  46.6354480 108.3379200   2.6560080  46.2806450 114.3032240   9.8052430
  46.1850050 113.3626970   9.6552830  47.1238430 114.5247310   9.4100500
  41.4116990 110.7145910   7.9586210  41.0180380 111.5621120   8.1658990
  40.7235390 110.0772280   8.1494850  47.9862040 110.7980880  11.0282950
  47.2960360 110.6053080  11.6629040  48.7294340 111.0815520  11.5607250
  38.7134040 108.6374370   1.9916290  38.4247090 109.2077230   2.7041270
  39.4579800 108.1578820   2.3547520  50.2625010 114.6379320   3.8636870
  49.5306130 115.1466130   4.2126970  49.8649350 113.8209300   3.5625650
  46.7002400 111.3133520   2.2689360  46.7038460 110.8723470   1.4193900
  47.5953520 111.6350850   2.3761180  50.7250920 110.0913000   3.2759810
  50.7423660 110.5421650   4.1201660  50.4766500 109.1918640   3.4893250
  54.1521670 107.5045180   9.1146190  54.4767440 106.7734840   9.6404170
  54.1878180 107.1858820   8.2127180  40.8513230 118.5258760   8.5346150
  40.4668020 117.8852430   9.1329110  41.1625420 119.2294880   9.1040880
  47.0010370 115.3735300   4.0154770  47.3680500 114.8993870   4.7616110
  46.8115430 116.2476870   4.3563110  44.7909740 114.4143940   6.3338980
  44.4866810 115.2935920   6.5589340  45.7456200 114.4743730   6.3696420
  54.0779510 117.6170290   2.7232220  54.7978630 118.1125580   2.3328330
  53.8761330 116.9388180   2.0786090  49.4598310 117.6879350   8.6101220
  49.3935620 116.7675020   8.3558810  48.8303450 117.7854790   9.3245860
  40.8473470 115.2546680   7.4810340  40.4888410 115.9200530   8.0683680
  40.5528030 114.4230230   7.8522960  44.0486590 115.7130920  10.3649890
  43.7486730 115.8588100   9.4677710  44.8197830 115.1536210  10.2723280
  49.3915040 120.5099920   8.3605020  49.4059580 119.5780880   8.1423930
  48.6840140 120.5959680   8.9994790  55.6026250 117.1507260   7.7073600
  54.8774440 117.7436040   7.5102990  56.1301710 117.1430800   6.9086970
  48.8248940 122.1517490   5.4545520  49.4691160 122.3576870   6.1318940
  49.1878380 121.3905890   5.0016370  50.0981020 120.1549840   4.1722970
  50.7403250 119.4543000   4.2855140  50.6230370 120.9348280   3.9919860
  51.8718640 120.9544740   7.3759030  52.2074880 121.5411430   8.0536950
  50.9518980 120.8237450   7.6056820  39.4222040 108.7439920   8.1582440
  38.7080560 108.9436840   8.7635050  39.8417080 107.9679490   8.5297240
  39.7094630 122.7320180   9.1448970  39.8185750 121.7914920   9.0044360
  39.0575190 122.9974930   8.4962700  47.7007220 121.0036070  10.5447090
  47.3804090 120.2845310  11.0892780  47.0265580 121.6791140  10.6183150
  50.9160820 111.2362230   5.9083890  51.2841640 110.4157440   6.2363460
  50.0559020 111.2964120   6.3239540  47.8762810 113.8901820   6.1321860
  48.3748060 114.3647640   6.7973710  48.0185760 112.9665340   6.3391890
  55.0829670 110.1069780   6.9750250  54.5803270 110.8475180   7.3144060
  55.8986330 110.4953780   6.6587040  55.3777260 122.5211810   2.0965870
  55.5024680 123.3442980   2.5689680  56.2442820 122.3102540   1.7490020
  42.8494790 124.6143020   1.7683000  43.5857270 124.0658480   2.0391570
  43.2335710 125.4799030   1.6288990  41.8553070 123.7989090  10.9568580
  42.6565800 124.1201140  11.3703980  41.3404890 123.4384670  11.6788490
  50.6917700 119.9068960  10.9043990  50.0855860 119.9300560  10.1639740
  50.3871810 119.1752000  11.4411240  52.1218070 123.6349250   9.5153400
  53.0739820 123.5507270   9.4653640  51.9746290 124.2990960  10.1887190
  39.5750880 116.2862550   9.9004630  40.0789900 115.7069830  10.4720860
  38.8358300 116.5702780  10.4381000  46.6288820 117.6933540   9.4340150
  45.8634490 118.2618540   9.3494820  46.8104780 117.4009750   8.5408380
  53.7712170 119.4238870   9.9915170  54.5121640 119.7614630   9.4882630
  53.0084850 119.5930930   9.4384940  41.6073960 114.4292140  10.7954700
  41.6479300 114.1306010  11.7039930  42.4619460 114.8299750  10.6362220
  43.5479770 113.0084240   8.7629190  43.0176230 112.5175190   8.1352530
  44.2167840 113.4368440   8.2287120  52.4457830 117.4753700   8.5270380
  52.8598850 117.6298780   9.3760800  51.5108830 117.6008920   8.6896160
  52.9180000 114.8149860  10.5309530  53.5000770 114.0602180  10.4430010
  53.0941770 115.3457300   9.7541010  44.0352070 109.9746610   8.8426480
  43.9408940 109.3567360   8.1177350  43.4549460 110.7012900   8.6156390
  46.8013510 108.5319850   5.8753870  46.3530810 108.5544110   5.0299420
  46.1678710 108.1338870   6.4724170  47.2073060 117.4274180   6.4966310
  47.6261170 118.2706910   6.3242550  46.2881690 117.5646220   6.2673090
  49.5436960 115.1590360   7.8804150  49.6633170 114.5631500   8.6198990
  50.4030960 115.1960050   7.4605450  51.8824860 115.7127550   6.4566660
  51.3560080 116.2370170   5.8531800  52.2256200 116.3454940   7.0876390
  45.0580480 123.7327190   7.6124040  44.5201570 124.4573250   7.2932740
  45.3114440 123.2557530   6.8221380  46.3105730 111.7011710   9.1379970
  46.9005420 111.3927560   9.8257790  45.4925970 111.2291460   9.2939870
  51.1299160 111.3177520   9.3712990  50.4414680 110.6559060   9.3062980
  51.8505180 110.8715790   9.8161450  47.9142690 124.9678400   7.8710690
  47.8401390 125.8713540   8.1783060  47.0121530 124.6490300   7.8432760
  39.8060190 123.1623580   3.9125940  39.3691180 123.3424380   4.7450090
  40.3737870 123.9198200   3.7707660  55.4422370 122.6640580   8.2003250
  54.8424360 122.7233140   7.4567170  55.5716270 121.7245560   8.3300100
  54.1274010 119.3892560   6.2979410  53.3133850 119.8189720   6.5605200
  54.5348210 120.0010970   5.6848460  40.6760550 116.0596380   4.8118160
  41.0433590 115.9723780   5.6914180  40.1071370 115.2962930   4.7125020
  55.4764410 114.5280760   7.8248630  55.2450500 114.2993510   6.9246580
  55.7368960 115.4480310   7.7793520  40.2276550 112.9705470   8.7176580
  39.3332600 112.9372230   9.0570290  40.7674100 113.1692260   9.4827830
  53.9152480 109.7537190  10.6028330  54.7922660 109.7620590  10.9862330
  53.9273320 109.0168030   9.9920680  55.5405470 113.6906600   5.0135900
  54.5908180 113.6570140   5.1280890  55.7218480 114.6006710   4.7785670
  40.7316260 107.2453800   3.0659800  41.3792450 106.6951180   2.6254960
  41.1518100 107.4996950   3.8875610  54.6268600 107.4395160   6.4229440
  55.2640820 108.0529300   6.7888630  54.7743490 107.4755820   5.4778670
  40.4848260 107.4009470   5.8085120  40.1363080 107.8573290   6.5743300
  40.1535960 106.5066600   5.8907550  42.0912630 120.5729070   9.9738310
  42.0482260 120.2021980  10.8552770  42.2223640 121.5106640  10.1140130
  45.7918660 122.1288660   5.5748030  45.5510020 122.3963220   4.6878550
  46.7321300 122.2994390   5.6298890  47.9973080 108.5921350   9.3304540
  47.9361970 109.1843180  10.0799950  48.9373460 108.4847310   9.1854800
  50.6347640 108.2491410   8.9696830  51.2488050 108.5670700   8.3077910
  51.1797200 107.7640000   9.5892690  57.0522820 124.1483040   6.3758670
  56.5581100 124.5451910   5.6585800  56.4436110 123.5232250   6.7695950
  41.1568900 106.9285670   9.0835890  41.7051890 106.7473720   8.3202000
  41.2224210 106.1379780   9.6192200  41.9300660 123.5191320   7.0936090
  41.3360980 123.3876020   7.8326130  41.9224500 122.6829460   6.6278190
  51.3755680 106.8123550   5.2966120  50.5015520 107.1458660   5.0939050
  51.2666430 106.3396730   6.1217990  52.2827660 109.0194420   6.6807840
  51.9541020 108.2046180   6.3009570  53.2309960 108.9764230   6.5573530
  54.7362270 124.7906460   3.6545410  54.2765240 125.5422270   3.2803430
  54.1074730 124.0712930   3.5960210  41.5612890 120.8849700   6.0444130
  40.8346950 120.2654990   5.9770080  41.6222040 121.2790310   5.1742210
  45.1657990 123.0994700   2.8293540  45.6823010 122.4882060   2.3041800
  45.8155370 123.6023480   3.3204550  47.9053490 123.9903190   3.6562520
  48.1931300 123.7357490   2.7795530  48.4176710 123.4380550   4.2468090
  49.1230500 107.7293390   4.2359030  48.3402290 108.2038890   4.5155790
  48.8293430 106.8248220   4.1272210  53.6751570 108.4316490   2.2808120
  54.1159660 108.3761590   1.4329720  53.4059160 109.3474500   2.3518300
  47.9725850 124.9119290  11.0230720  48.8993160 124.6763560  11.0666680
  47.9576280 125.7391290  10.5416750  45.1589460 107.5764040  10.7872600
  44.8773730 108.0797640  10.0233420  45.5409160 106.7785790  10.4214730
  51.7604920 106.9917620  11.3653070  51.6470370 107.3112230  12.2604590
  52.5774660 107.3930130  11.0690350  54.5403410 124.1389150  10.8471760
  55.3328730 123.6438380  10.6397720  54.8336560 124.8179290  11.4547370
  50.6663070  96.2366600 150.6979220  50.5857120  95.3221210 150.4270930
  50.2527490  96.7333670 149.9918930  48.7981110  98.0145620 152.5788490
  48.0223210  97.5346060 152.8687060  49.4494040  97.3351270 152.4044650
  52.8188540 102.4205810 151.3587620  52.3570070 101.6493050 151.6874790
  53.6314090 102.4471880 151.8640070  41.2238890  93.2867320 147.2406640
  40.3355590  93.6283290 147.1386520  41.5080080  93.0867640 146.3487470
  39.1871900  95.8872970 153.1246340  39.7588010  95.1195170 153.1249980
  39.1873440  96.1861730 152.2152950  49.0451850 104.7063820 150.9791610
  48.4263290 105.1621320 150.4086050  49.9003630 104.8615280 150.5781310
  48.2390100 100.6902810 152.5858650  48.1698380  99.7492750 152.4247780
  49.0009960 100.7804220 153.1581220  49.2695270  93.4973190 152.8127580
  49.6460090  92.6245070 152.7001250  49.1714780  93.8331890 151.9218020
  43.4000280  91.8698820 148.2745020  43.5067030  92.7702550 148.5813780
  42.4892640  91.8216790 147.9839670  53.0519390  90.9923630 149.7455920
  53.8729010  90.5020200 149.7881400  53.0853470  91.5821290 150.4987760
  49.9115200  99.5903060 148.3723520  49.2932470 100.0552510 147.8086240
  50.4238450 100.2830540 148.7893030  53.2880870  92.9324010 152.5183460
  52.5836440  93.2208900 153.0986570  53.6493030  93.7424120 152.1583020
  39.2798400 100.2759590 145.7463150  38.9026380 100.7646690 145.0148050
  39.5371470 100.9484870 146.3769680  46.8887330  88.6775980 151.2048660
  47.1962310  88.1222870 150.4884160  45.9588030  88.8120440 151.0221650
  53.7347810 101.1159490 148.5846290  53.6244140 100.1733820 148.7095710
  53.7316060 101.4775130 149.4709050  49.2768090  96.7424810 147.9408780
  48.3497370  96.6762190 148.1697250  49.4292910  97.6804940 147.8264020
  49.2637170  93.0141810 144.9375940  48.3240840  93.1755770 145.0228400
  49.5820430  93.7327490 144.3911930  53.3065380  98.3045110 148.4444030
  52.6877800  97.9664660 147.7970330  53.2889830  97.6604870 149.1523220
  44.8824730  97.2689550 150.7228510  44.4781730  96.5566800 150.2274410
  44.9687850  96.9242790 151.6116550  45.3506430 100.9557110 152.8867720
  45.0534720 100.3502580 152.2075500  46.3006250 100.9934420 152.7757080
  51.4830080  97.5431920 145.4516780  51.9223360  96.7054350 145.3054600
  52.1958500  98.1761320 145.5380920  49.5925460 102.4827990 149.4198020
  50.0321370 103.2252320 149.0053410  49.5312350 102.7254560 150.3436980
  55.0647220  88.7974730 143.7657820  54.7519880  88.8901560 144.6656890
  55.8259690  89.3755760 143.7155250  41.5829360  96.1634530 148.2235160
  41.4626960  96.8896620 147.6116430  41.2730250  95.3937440 147.7463070
  40.4662360 101.0349860 150.4409980  40.0590440 101.1764450 149.5863580
  41.3575370 100.7510020 150.2381190  52.2595640 105.4697110 146.7761030
  52.0996780 105.1800050 147.6742860  52.0942350 104.6937240 146.2406260
  44.7384020 105.2495640 148.5532650  44.5626500 104.3331180 148.3400450
  43.8839760 105.6082930 148.7930450  51.9621770 102.9784670 145.3359030
  51.2686930 102.9761960 144.6761310  52.7044630 102.5543990 144.9053200
  51.5271700 104.6047380 149.4107520  51.9828650 103.8236760 149.7246140
  51.8664220 105.3154200 149.9548700  44.0493020  89.5069600 151.6058830
  43.6061170  90.2879140 151.2743350  44.6078010  89.8299490 152.3129770
  47.1651840  89.1280300 146.4864660  46.5406020  89.1240170 147.2117970
  47.0781960  88.2611260 146.0900630  43.8407240  94.6303170 149.3340080
  43.6148160  94.4140340 150.2386700  43.0599770  95.0631630 148.9886050
  51.0705000  94.6366540 147.9330730  50.4713890  95.3602340 147.7494350
  51.6184610  94.5743320 147.1507180  49.6769870  93.2730080 149.9634010
  50.0699440  93.5902280 149.1502700  50.0386720  92.3941960 150.0778530
  38.7134040  89.8630880 152.1864210  38.4247090  90.4333740 152.8989190
  39.4579800  89.3835330 152.5495440  38.9004270  93.8051000 143.3966930
  38.8178940  94.7481760 143.5381920  38.5487330  93.6625910 142.5179280
  46.7002400  92.5390030 152.4637280  46.7038460  92.0979980 151.6141820
  47.5953520  92.8607360 152.5709100  42.5504780  92.4216520 151.4231490
  42.2104830  92.8991750 152.1798540  41.7882100  91.9681640 151.0632590
  46.7622550  93.5402110 145.4544040  46.8835370  93.4988590 146.4029860
  46.3771060  94.4026260 145.2990770  45.7744050  95.8503250 144.8527340
  45.2060950  95.4021500 144.2263250  46.4833050  96.2096030 144.3192490
  39.8650860  91.3435500 150.3396160  39.5797780  90.9791170 151.1774780
  39.8029720  90.6115960 149.7259300  43.3191530  99.8461440 147.1253750
  42.5453790  99.3059060 146.9652470  44.0486160  99.3268050 146.7871510
  54.0779510  98.8426800 152.9180140  54.7978630  99.3382090 152.5276250
  53.8761330  98.1644690 152.2734010  49.5389450  90.2364760 147.0609530
  48.7254060  89.7377930 146.9854840  49.3451400  91.0763010 146.6445880
  52.2537840  94.6084410 145.3571690  53.1417460  94.9201640 145.1823030
  52.2242930  93.7356660 144.9652270  43.3628930  99.5141820 150.7632560
  43.8807600  98.7110080 150.7089450  42.9112950  99.4520960 151.6049390
  48.2498430 100.7808100 146.0359860  48.5914130 101.5250330 145.5403180
  47.4211140 101.0939220 146.3984690  54.5252110  95.9196250 144.8251550
  54.4415830  96.3510470 143.9747990  55.2446300  96.3794600 145.2578370
  55.5539360 102.7738510 147.5533680  54.9115520 102.1194130 147.8277400
  55.1670020 103.1793600 146.7774350  51.1325840 100.1023940 151.4005370
  51.4849660  99.5052070 150.7406740  50.2488170  99.7768170 151.5713620
  47.2189120 100.8621630 148.8075780  47.9060250 101.4090840 149.1883370
  46.4321540 101.4062360 148.8425390  39.3581520  96.4794450 144.2992860
  40.2276370  96.7619250 144.5828780  38.8671840  97.2930320 144.1841670
  46.5216330  97.8667660 148.4201140  46.9779110  98.6772910 148.6461330
  46.1704540  97.5490800 149.2519630  42.4228110  88.2105310 148.8923660
  42.2942740  88.2023210 149.8408580  41.5990130  88.5488400 148.5414670
  53.9436740 101.6654970 144.0910030  53.7174320 100.9485410 144.6834670
  53.5532940 101.4167410 143.2531780  39.7252770 105.6921830 144.8654490
  40.0850410 106.2911170 144.2111760  39.5845110 106.2381720 145.6389520
  53.5252990  99.5826910 145.7524190  53.2374690 100.0439600 146.5402070
  54.3205160  99.1224680 146.0208410  45.7421390 103.0753030 145.6828160
  45.7331490 103.8082720 145.0672670  44.8219750 102.8284610 145.7755120
  41.3428030  98.2967920 146.4274920  40.7355980  99.0366820 146.4370220
  41.8177380  98.3867280 145.6013120  54.2822850  91.4175680 146.9119370
  53.6536010  91.5221350 146.1977600  53.7874770  91.6372460 147.7013250
  48.7280990 103.1381270 144.3453350  48.8292970 102.9345260 143.4155330
  47.8282730 102.8839550 144.5501130  46.2506880  93.6961630 148.3277250
  45.5423030  94.1647970 148.7690860  46.5351360  93.0383640 148.9622440
  50.2822310  90.4212290 149.7673040  50.1590090  90.4398420 148.8182550
  51.2306870  90.4691230 149.8871440  47.3699100 105.6567590 149.0401020
  47.6240600 105.6188980 148.1180390  46.4211580 105.5300920 149.0329270
  44.4541900  92.0046710 145.7027960  45.3032430  92.4416860 145.6368150
  44.0873170  92.3166970 146.5300020  53.3751680  96.5759470 150.6159530
  52.4341820  96.5909700 150.7907220  53.6895750  95.7895430 151.0619830
  43.3533320  98.2579070 144.1763490  44.1196590  98.1460430 144.7388920
  43.4308010  97.5617040 143.5240260  42.0480080  95.6904140 144.8596380
  42.1283670  94.7431650 144.9713780  42.9399830  96.0211020 144.9657040
  55.3777260 103.7468320 152.2913790  55.5024680 104.5699490 152.7637600
  56.2442820 103.5359050 151.9437940  42.8494790 105.8399530 151.9630920
  43.5857270 105.2914990 152.2339490  43.2335710 106.7055540 151.8236910
  39.7340270 101.9073100 147.8372430  38.8080050 102.1494240 147.8277840
  40.1996700 102.7347360 147.7157180  45.9597100 105.0129840 143.7856490
  46.7525710 105.3018670 143.3338280  45.4401450 104.5822010 143.1068970
  55.0127270 104.2399970 145.2093230  54.7268780 103.8265110 144.3947410
  54.8146820 105.1687680 145.0893750  46.4774500 100.2333250 143.6498840
  46.3725140  99.6185600 144.3760220  46.3098720  99.7099140 142.8661850
  49.7177230  99.2953280 144.2540830  49.1687330  99.7422580 144.8983570
  50.3396490  98.7902530 144.7778500  45.3852350  98.2544200 146.1506130
  45.8068770  98.0884070 146.9937520  45.5103190  97.4444430 145.6561270
  47.8979990  97.2781810 143.3983230  48.4185650  96.5630830 143.0324380
  48.5448390  97.9167680 143.6983740  44.2811250  94.3277430 143.0964290
  44.0800310  93.4644790 143.4577630  44.1103300  94.2410790 142.1585890
  51.7599560  89.1385660 145.6251170  52.0401850  88.2953560 145.9810590
  50.9865290  89.3708770 146.1389920  43.0794050  91.4278050 143.0842170
  43.3819950  91.4345480 142.1761320  43.8188640  91.0775910 143.5809830
  46.2978980  90.3712670 144.0698370  45.9500980  89.6936660 143.4900820
  46.4991750  89.9102180 144.8841760  48.4628020 105.3593420 145.6884970
  49.3578810 105.6978390 145.7103730  48.4945650 104.6372830 145.0609250
  42.1024180 100.7320470 143.9171970  42.5399050 101.2750140 144.5729550
  42.5871910  99.9067420 143.9268310  39.3169980 103.5209500 151.3692230
  39.6472990 102.6530560 151.1370870  39.7460980 103.7268020 152.1997190
  43.9131900 101.8518510 149.0294200  43.6127440 101.7283480 149.9298110
  43.8069390 100.9927100 148.6209930  56.6823820 101.6314910 143.7320880
  55.8516780 101.6991560 144.2028110  56.8595650 102.5219030 143.4287740
  56.1380280  98.3762390 146.2355080  56.8999190  98.9459040 146.3414770
  56.1534650  97.8089590 147.0063390  39.6384620  96.9000320 150.4662740
  38.9833460  96.6311960 149.8222440  40.4762570  96.7904800 150.0164720
  57.1440250  99.2312490 151.0797010  57.5149080  98.4479810 150.6732980
  57.7842180  99.9201590 150.9014310  56.1899450  98.6696760 143.3927600
  56.4648290  99.5775640 143.2646820  56.0010190  98.6059290 144.3289590
  52.5875060  91.6941610 144.6881230  53.0059940  91.5072590 143.8477890
  52.2811120  90.8420660 144.9984160  56.0864790  96.6065750 148.3857030
  55.7108390  95.8393680 147.9538320  55.3567910  96.9888450 148.8731960
  38.8522700  94.1099250 146.4088070  37.9486780  94.3729450 146.2339730
  39.3363320  94.3810420 145.6288030  55.3615750  94.8323240 151.6864270
  55.8853230  94.3385890 151.0554440  55.9475170  94.9673600 152.4311840
  41.3949910  93.1664790 144.3182450  42.1041610  92.7448010 143.8329730
  40.6789850  93.2340020 143.6865800  41.0424070  89.2204120 143.3585100
  41.7652200  89.7613060 143.6766320  41.3148590  88.9467540 142.4826640
  54.8515720  94.0896590 147.6256680  55.3474840  93.8567460 148.4105560
  54.6531790  93.2508430 147.2094320  56.2802880  92.7257540 150.1594360
  56.1702160  92.5713580 151.0976630  57.0410470  92.1978480 149.9169770
  57.1693150  90.5565460 143.4000500  58.0942460  90.4246640 143.1918790
  57.1468940  90.6358280 144.3536950  57.2431640  91.3276120 146.0257210
  56.4483140  91.2621240 146.5550120  57.4474920  92.2626760 146.0142560
  54.1850060 105.3667670 150.0195600  54.7809130 105.0452240 149.3430020
  54.4428210 104.8939490 150.8108870  53.6751570  89.6573000 152.4756040
  54.1159660  89.6018100 151.6277640  53.4059160  90.5731010 152.5466220
  55.5390140  89.2888240 150.4864860  55.4778540  88.3449460 150.3395880
  56.3182170  89.3968330 151.0318320  39.8442890 105.4280600 149.4488810
  39.6764930 104.7951280 150.1470700  38.9777400 105.6340000 149.0983000
  40.4670910  89.2597380 146.9520670  41.2250270  89.3726260 146.3784700
  40.0048080  90.0966580 146.9064100  47.0084720  91.3736650 149.9422980
  46.1959230  90.9993540 149.6018860  47.5126360  90.6181730 150.2444170
  51.5109700  88.0379100 151.1806050  52.1139070  88.6099310 151.6554570
  50.7702690  88.6018540 150.9579950  54.6544300  88.4400660 146.4546330
  54.8494930  89.3384110 146.7213760  53.8674170  88.2087740 146.9479280
  41.4505590 104.1213830 146.8938950  40.9253210 104.5021860 146.1900910
  41.3750170 104.7464600 147.6148660  42.8396060  89.7861430 145.4922640
  43.3688820  88.9991230 145.3630590  43.4724380  90.4652620 145.7258170
  45.0333900  89.5236570 148.5468030  44.4036640  88.8223880 148.7138160
  44.4939040  90.2840700 148.3301190  56.2070910 105.6801370 148.2152890
  56.3823100 104.9939110 147.5713810  55.5092480 106.2048420 147.8229560
  44.0498560 106.0696210 145.7688200  44.7817380 105.7855490 145.2212090
  44.3092230 105.8309490 146.6587580  43.2113350 102.1860940 145.7734530
  42.5822230 102.6546040 146.3220360  43.3261180 101.3410160 146.2080720
  50.6663070  96.2366600 131.9235730  50.5857120  95.3221210 131.6527440
  50.2527490  96.7333670 131.2175440  48.7981110  98.0145620 133.8045000
  48.0223210  97.5346060 134.0943570  49.4494040  97.3351270 133.6301160
  42.8146940  98.3265430 134.6820760  41.9831820  98.0714140 135.0817270
  43.4227920  98.3976200 135.4178680  52.8188540 102.4205810 132.5844130
  52.3570070 101.6493050 132.9131300  53.6314090 102.4471880 133.0896580
  42.7948200 102.3605520 134.8778780  43.0976240 101.4703260 134.6989000
  43.5391790 102.9175740 134.6501030  41.2238890  93.2867320 128.4663150
  40.3355590  93.6283290 128.3643030  41.5080080  93.0867640 127.5743980
  39.1871900  95.8872970 134.3502850  39.7588010  95.1195170 134.3506490
  39.1873440  96.1861730 133.4409460  49.0451850 104.7063820 132.2048120
  48.4263290 105.1621320 131.6342560  49.9003630 104.8615280 131.8037820
  48.2390100 100.6902810 133.8115160  48.1698380  99.7492750 133.6504290
  49.0009960 100.7804220 134.3837730  40.4296770  91.2957330 136.1371780
  40.2499610  90.3983080 136.4174540  40.0276850  91.8429200 136.8118730
  49.2695270  93.4973190 134.0384090  49.6460090  92.6245070 133.9257760
  49.1714780  93.8331890 133.1474530  43.4000280  91.8698820 129.5001530
  43.5067030  92.7702550 129.8070290  42.4892640  91.8216790 129.2096180
  41.0483440  93.7917830 134.7454120  41.7293550  94.0556200 135.3641520
  40.7331490  92.9518700 135.0792130  45.2408010  94.8385190 133.8326710
  45.7486230  95.3366160 134.4731730  45.7721250  94.0620390 133.6566070
  43.5244110  89.4783750 138.0990130  43.5262550  89.9956140 137.2936030
  42.6948420  89.0013930 138.0760060  49.9115200  99.5903060 129.5980030
  49.2932470 100.0552510 129.0342750  50.4238450 100.2830540 130.0149540
  44.7746960  99.1178930 136.2763630  44.4416340  99.7447850 136.9184700
  44.9513640  99.6440810 135.4965300  43.2059440  91.1893710 136.1060580
  43.5476250  92.0335760 135.8114450  42.2675250  91.3377450 136.2225920
  43.9866060 101.0859730 138.0912810  44.6040060 101.7610810 137.8097260
  43.1259180 101.4947710 138.0000310  39.2798400 100.2759590 126.9719660
  38.9026380 100.7646690 126.2404560  39.5371470 100.9484870 127.6026190
  54.9043650 102.5499140 136.0067450  54.2207170 103.2198250 135.9984120
  55.4437940 102.7479790 135.2412310  46.8887330  88.6775980 132.4305170
  47.1962310  88.1222870 131.7140670  45.9588030  88.8120440 132.2478160
  52.4402390 104.3943270 134.7212630  52.4529550 103.9905560 133.8534890
  51.8877610 105.1690560 134.6174060  53.7347810 101.1159490 129.8102800
  53.6244140 100.1733820 129.9352220  53.7316060 101.4775130 130.6965560
  51.8387830  99.2973110 136.0495240  52.2556620  99.0833220 135.2148700
  52.5627650  99.5545900 136.6203860  49.2768090  96.7424810 129.1665290
  48.3497370  96.6762190 129.3953760  49.4292910  97.6804940 129.0520530
  49.2637170  93.0141810 126.1632450  48.3240840  93.1755770 126.2484910
  49.5820430  93.7327490 125.6168440  53.3065380  98.3045110 129.6700540
  52.6877800  97.9664660 129.0226840  53.2889830  97.6604870 130.3779730
  44.8824730  97.2689550 131.9485020  44.4781730  96.5566800 131.4530920
  44.9687850  96.9242790 132.8373060  45.3506430 100.9557110 134.1124230
  45.0534720 100.3502580 133.4332010  46.3006250 100.9934420 134.0013590
  43.5953350  94.0432760 135.7284060  44.1467940  94.1528100 134.9537310
  44.1096860  94.4170360 136.4439290  53.4392040 104.5288980 137.7747330
  52.9622600 105.3361170 137.5819940  52.7553830 103.8767310 137.9273540
  44.4424860 100.6938800 140.7632030  43.5453390 100.9178770 141.0105430
  44.4677730 100.8173740 139.8143430  51.4830080  97.5431920 126.6773290
  51.9223360  96.7054350 126.5311110  52.1958500  98.1761320 126.7637430
  43.2696080  97.5652120 139.3389400  43.1303850  98.4374920 139.7076800
  42.3877440  97.2224930 139.1937340  49.5925460 102.4827990 130.6454530
  50.0321370 103.2252320 130.2309920  49.5312350 102.7254560 131.5693490
  45.0676430 103.5073820 141.5474550  45.0391860 103.9116770 140.6802980
  44.9041400 102.5784180 141.3846150  41.5829360  96.1634530 129.4491670
  41.4626960  96.8896620 128.8372940  41.2730250  95.3937440 128.9719580
  57.0191250 104.2900920 142.8438720  57.4950970 104.7683810 143.5227800
  57.6398410 104.2218410 142.1184220  39.2214730  99.3349670 135.2560310
  39.2995150  99.4698440 134.3116030  39.8356410  98.6265560 135.4488430
  40.4662360 101.0349860 131.6666490  40.0590440 101.1764450 130.8120090
  41.3575370 100.7510020 131.4637700  56.4224500 101.4813770 140.0038730
  56.5487560 101.2425650 139.0855910  56.4645880 100.6498310 140.4760810
  50.2841240 105.1841770 138.5733540  50.7985910 105.0949780 139.3755970
  49.4410320 105.5301470 138.8661450  52.2595640 105.4697110 128.0017540
  52.0996780 105.1800050 128.8999370  52.0942350 104.6937240 127.4662770
  44.7384020 105.2495640 129.7789160  44.5626500 104.3331180 129.5656960
  43.8839760 105.6082930 130.0186960  51.9621770 102.9784670 126.5615540
  51.2686930 102.9761960 125.9017820  52.7044630 102.5543990 126.1309710
  51.5271700 104.6047380 130.6364030  51.9828650 103.8236760 130.9502650
  51.8664220 105.3154200 131.1805210  56.2748510  93.5346230 140.9688470
  55.6592780  94.0425900 140.4403930  55.9544930  92.6344560 140.9114410
  39.2774250 100.3763840 137.7954770  39.4405290  99.9069200 136.9774140
  39.7426700  99.8687400 138.4603610  44.0493020  89.5069600 132.8315340
  43.6061170  90.2879140 132.4999860  44.6078010  89.8299490 133.5386280
  48.3362830  92.3738120 138.4350660  47.8742200  92.5821140 139.2470600
  47.9340940  91.5597470 138.1321330  50.4317050  95.0948820 141.6646110
  50.7570460  94.2612570 141.3248340  51.2197380  95.6177340 141.8124440
  47.1651840  89.1280300 127.7121170  46.5406020  89.1240170 128.4374480
  47.0781960  88.2611260 127.3157140  46.0868920  90.0516930 134.6904940
  46.3841250  90.9579760 134.6096960  46.6354480  89.5635710 134.0764510
  43.8407240  94.6303170 130.5596590  43.6148160  94.4140340 131.4643210
  43.0599770  95.0631630 130.2142560  51.0705000  94.6366540 129.1587240
  50.4713890  95.3602340 128.9750860  51.6184610  94.5743320 128.3763690
  46.2806450  95.5288750 141.2256860  46.1850050  94.5883480 141.0757260
  47.1238430  95.7503820 140.8304930  49.6769870  93.2730080 131.1890520
  50.0699440  93.5902280 130.3759210  50.0386720  92.3941960 131.3035040
  41.4116990  91.9402420 139.3790640  41.0180380  92.7877630 139.5863420
  40.7235390  91.3028790 139.5699280  47.9862040  92.0237390 142.4487380
  47.2960360  91.8309590 143.0833470  48.7294340  92.3072030 142.9811680
  38.7134040  89.8630880 133.4120720  38.4247090  90.4333740 134.1245700
  39.4579800  89.3835330 133.7751950  38.9004270  93.8051000 124.6223440
  38.8178940  94.7481760 124.7638430  38.5487330  93.6625910 123.7435790
  50.2625010  95.8635830 135.2841300  49.5306130  96.3722640 135.6331400
  49.8649350  95.0465810 134.9830080  46.7002400  92.5390030 133.6893790
  46.7038460  92.0979980 132.8398330  47.5953520  92.8607360 133.7965610
  42.5504780  92.4216520 132.6488000  42.2104830  92.8991750 133.4055050
  41.7882100  91.9681640 132.2889100  46.7622550  93.5402110 126.6800550
  46.8835370  93.4988590 127.6286370  46.3771060  94.4026260 126.5247280
  50.7250920  91.3169510 134.6964240  50.7423660  91.7678160 135.5406090
  50.4766500  90.4175150 134.9097680  45.7744050  95.8503250 126.0783850
  45.2060950  95.4021500 125.4519760  46.4833050  96.2096030 125.5449000
  54.1521670  88.7301690 140.5350620  54.4767440  87.9991350 141.0608600
  54.1878180  88.4115330 139.6331610  40.8513230  99.7515270 139.9550580
  40.4668020  99.1108940 140.5533540  41.1625420 100.4551390 140.5245310
  47.0010370  96.5991810 135.4359200  47.3680500  96.1250380 136.1820540
  46.8115430  97.4733380 135.7767540  39.8650860  91.3435500 131.5652670
  39.5797780  90.9791170 132.4031290  39.8029720  90.6115960 130.9515810
  44.7909740  95.6400450 137.7543410  44.4866810  96.5192430 137.9793770
  45.7456200  95.7000240 137.7900850  43.3191530  99.8461440 128.3510260
  42.5453790  99.3059060 128.1908980  44.0486160  99.3268050 128.0128020
  54.0779510  98.8426800 134.1436650  54.7978630  99.3382090 133.7532760
  53.8761330  98.1644690 133.4990520  49.5389450  90.2364760 128.2866040
  48.7254060  89.7377930 128.2111350  49.3451400  91.0763010 127.8702390
  49.4598310  98.9135860 140.0305650  49.3935620  97.9931530 139.7763240
  48.8303450  99.0111300 140.7450290  43.3628930  99.5141820 131.9889070
  43.8807600  98.7110080 131.9345960  42.9112950  99.4520960 132.8305900
  48.2498430 100.7808100 127.2616370  48.5914130 101.5250330 126.7659690
  47.4211140 101.0939220 127.6241200  40.8473470  96.4803190 138.9014770
  40.4888410  97.1457040 139.4888110  40.5528030  95.6486740 139.2727390
  44.0486590  96.9387430 141.7854320  43.7486730  97.0844610 140.8882140
  44.8197830  96.3792720 141.6927710  49.3915040 101.7356430 139.7809450
  49.4059580 100.8037390 139.5628360  48.6840140 101.8216190 140.4199220
  55.6026250  98.3763770 139.1278030  54.8774440  98.9692550 138.9307420
  56.1301710  98.3687310 138.3291400  55.5539360 102.7738510 128.7790190
  54.9115520 102.1194130 129.0533910  55.1670020 103.1793600 128.0030860
  51.1325840 100.1023940 132.6261880  51.4849660  99.5052070 131.9663250
  50.2488170  99.7768170 132.7970130  47.2189120 100.8621630 130.0332290
  47.9060250 101.4090840 130.4139880  46.4321540 101.4062360 130.0681900
  39.3581520  96.4794450 125.5249370  40.2276370  96.7619250 125.8085290
  38.8671840  97.2930320 125.4098180  46.5216330  97.8667660 129.6457650
  46.9779110  98.6772910 129.8717840  46.1704540  97.5490800 130.4776140
  48.8248940 103.3774000 136.8749950  49.4691160 103.5833380 137.5523370
  49.1878380 102.6162400 136.4220800  42.4228110  88.2105310 130.1180170
  42.2942740  88.2023210 131.0665090  41.5990130  88.5488400 129.7671180
  50.0981020 101.3806350 135.5927400  50.7403250 100.6799510 135.7059570
  50.6230370 102.1604790 135.4124290  53.9436740 101.6654970 125.3166540
  53.7174320 100.9485410 125.9091180  53.5532940 101.4167410 124.4788290
  51.8718640 102.1801250 138.7963460  52.2074880 102.7667940 139.4741380
  50.9518980 102.0493960 139.0261250  39.7252770 105.6921830 126.0911000
  40.0850410 106.2911170 125.4368270  39.5845110 106.2381720 126.8646030
  39.4222040  89.9696430 139.5786870  38.7080560  90.1693350 140.1839480
  39.8417080  89.1936000 139.9501670  53.5252990  99.5826910 126.9780700
  53.2374690 100.0439600 127.7658580  54.3205160  99.1224680 127.2464920
  39.7094630 103.9576690 140.5653400  39.8185750 103.0171430 140.4248790
  39.0575190 104.2231440 139.9167130  47.7007220 102.2292580 141.9651520
  47.3804090 101.5101820 142.5097210  47.0265580 102.9047650 142.0387580
  41.3428030  98.2967920 127.6531430  40.7355980  99.0366820 127.6626730
  41.8177380  98.3867280 126.8269630  46.2506880  93.6961630 129.5533760
  45.5423030  94.1647970 129.9947370  46.5351360  93.0383640 130.1878950
  47.8762810  95.1158330 137.5526290  48.3748060  95.5904150 138.2178140
  48.0185760  94.1921850 137.7596320  47.3699100 105.6567590 130.2657530
  47.6240600 105.6188980 129.3436900  46.4211580 105.5300920 130.2585780
  44.4541900  92.0046710 126.9284470  45.3032430  92.4416860 126.8624660
  44.0873170  92.3166970 127.7556530  53.3751680  96.5759470 131.8416040
  52.4341820  96.5909700 132.0163730  53.6895750  95.7895430 132.2876340
  43.3533320  98.2579070 125.4020000  44.1196590  98.1460430 125.9645430
  43.4308010  97.5617040 124.7496770  42.0480080  95.6904140 126.0852890
  42.1283670  94.7431650 126.1970290  42.9399830  96.0211020 126.1913550
  55.3777260 103.7468320 133.5170300  55.5024680 104.5699490 133.9894110
  56.2442820 103.5359050 133.1694450  42.8494790 105.8399530 133.1887430
  43.5857270 105.2914990 133.4596000  43.2335710 106.7055540 133.0493420
  39.7340270 101.9073100 129.0628940  38.8080050 102.1494240 129.0534350
  40.1996700 102.7347360 128.9413690  41.8553070 105.0245600 142.3773010
  42.6565800 105.3457650 142.7908410  41.3404890 104.6641180 143.0992920
  50.6917700 101.1325470 142.3248420  50.0855860 101.1557070 141.5844170
  50.3871810 100.4008510 142.8615670  52.1218070 104.8605760 140.9357830
  53.0739820 104.7763780 140.8858070  51.9746290 105.5247470 141.6091620
  55.0127270 104.2399970 126.4349740  54.7268780 103.8265110 125.6203920
  54.8146820 105.1687680 126.3150260  39.5750880  97.5119060 141.3209060
  40.0789900  96.9326340 141.8925290  38.8358300  97.7959290 141.8585430
  46.6288820  98.9190050 140.8544580  45.8634490  99.4875050 140.7699250
  46.8104780  98.6266260 139.9612810  49.7177230  99.2953280 125.4797340
  49.1687330  99.7422580 126.1240080  50.3396490  98.7902530 126.0035010
  53.7712170 100.6495380 141.4119600  54.5121640 100.9871140 140.9087060
  53.0084850 100.8187440 140.8589370  41.6073960  95.6548650 142.2159130
  41.6479300  95.3562520 143.1244360  42.4619460  96.0556260 142.0566650
  45.3852350  98.2544200 127.3762640  45.8068770  98.0884070 128.2194030
  45.5103190  97.4444430 126.8817780  43.5479770  94.2340750 140.1833620
  43.0176230  93.7431700 139.5556960  44.2167840  94.6624950 139.6491550
  47.8979990  97.2781810 124.6239740  48.4185650  96.5630830 124.2580890
  48.5448390  97.9167680 124.9240250  52.4457830  98.7010210 139.9474810
  52.8598850  98.8555290 140.7965230  51.5108830  98.8265430 140.1100590
  52.9180000  96.0406370 141.9513960  53.5000770  95.2858690 141.8634440
  53.0941770  96.5713810 141.1745440  44.0352070  91.2003120 140.2630910
  43.9408940  90.5823870 139.5381780  43.4549460  91.9269410 140.0360820
  46.8013510  89.7576360 137.2958300  46.3530810  89.7800620 136.4503850
  46.1678710  89.3595380 137.8928600  47.2073060  98.6530690 137.9170740
  47.6261170  99.4963420 137.7446980  46.2881690  98.7902730 137.6877520
  49.5436960  96.3846870 139.3008580  49.6633170  95.7888010 140.0403420
  50.4030960  96.4216560 138.8809880  51.8824860  96.9384060 137.8771090
  51.3560080  97.4626680 137.2736230  52.2256200  97.5711450 138.5080820
  44.2811250  94.3277430 124.3220800  44.0800310  93.4644790 124.6834140
  44.1103300  94.2410790 123.3842400  45.0580480 104.9583700 139.0328470
  44.5201570 105.6829760 138.7137170  45.3114440 104.4814040 138.2425810
  46.3105730  92.9268220 140.5584400  46.9005420  92.6184070 141.2462220
  45.4925970  92.4547970 140.7144300  51.1299160  92.5434030 140.7917420
  50.4414680  91.8815570 140.7267410  51.8505180  92.0972300 141.2365880
  51.7599560  89.1385660 126.8507680  52.0401850  88.2953560 127.2067100
  50.9865290  89.3708770 127.3646430  43.0794050  91.4278050 124.3098680
  43.3819950  91.4345480 123.4017830  43.8188640  91.0775910 124.8066340
  47.9142690 106.1934910 139.2915120  47.8401390 107.0970050 139.5987490
  47.0121530 105.8746810 139.2637190  46.2978980  90.3712670 125.2954880
  45.9500980  89.6936660 124.7157330  46.4991750  89.9102180 126.1098270
  42.1024180 100.7320470 125.1428480  42.5399050 101.2750140 125.7986060
  42.5871910  99.9067420 125.1524820  39.3169980 103.5209500 132.5948740
  39.6472990 102.6530560 132.3627380  39.7460980 103.7268020 133.4253700
  43.9131900 101.8518510 130.2550710  43.6127440 101.7283480 131.1554620
  43.8069390 100.9927100 129.8466440  39.8060190 104.3880090 135.3330370
  39.3691180 104.5680890 136.1654520  40.3737870 105.1454710 135.1912090
  55.4422370 103.8897090 139.6207680  54.8424360 103.9489650 138.8771600
  55.5716270 102.9502070 139.7504530  56.6823820 101.6314910 124.9577390
  55.8516780 101.6991560 125.4284620  56.8595650 102.5219030 124.6544250
  39.6384620  96.9000320 131.6919250  38.9833460  96.6311960 131.0478950
  40.4762570  96.7904800 131.2421230  57.1440250  99.2312490 132.3053520
  57.5149080  98.4479810 131.8989490  57.7842180  99.9201590 132.1270820
  54.1274010 100.6149070 137.7183840  53.3133850 101.0446230 137.9809630
  54.5348210 101.2267480 137.1052890  52.5875060  91.6941610 125.9137740
  53.0059940  91.5072590 125.0734400  52.2811120  90.8420660 126.2240670
  56.0864790  96.6065750 129.6113540  55.7108390  95.8393680 129.1794830
  55.3567910  96.9888450 130.0988470  40.6760550  97.2852890 136.2322590
  41.0433590  97.1980290 137.1118610  40.1071370  96.5219440 136.1329450
  55.4764410  95.7537270 139.2453060  55.2450500  95.5250020 138.3451010
  55.7368960  96.6736820 139.1997950  40.2276550  94.1961980 140.1381010
  39.3332600  94.1628740 140.4774720  40.7674100  94.3948770 140.9032260
  53.9152480  90.9793700 142.0232760  54.7922660  90.9877100 142.4066760
  53.9273320  90.2424540 141.4125110  38.8522700  94.1099250 127.6344580
  37.9486780  94.3729450 127.4596240  39.3363320  94.3810420 126.8544540
  41.3949910  93.1664790 125.5438960  42.1041610  92.7448010 125.0586240
  40.6789850  93.2340020 124.9122310  41.0424070  89.2204120 124.5841610
  41.7652200  89.7613060 124.9022830  41.3148590  88.9467540 123.7083150
  54.8515720  94.0896590 128.8513190  55.3474840  93.8567460 129.6362070
  54.6531790  93.2508430 128.4350830  40.7316260  88.4710310 134.4864230
  41.3792450  87.9207690 134.0459390  41.1518100  88.7253460 135.3080040
  56.2802880  92.7257540 131.3850870  56.1702160  92.5713580 132.3233140
  57.0410470  92.1978480 131.1426280  54.1850060 105.3667670 131.2452110
  54.7809130 105.0452240 130.5686530  54.4428210 104.8939490 132.0365380
  40.4848260  88.6265980 137.2289550  40.1363080  89.0829800 137.9947730
  40.1535960  87.7323110 137.3111980  42.0912630 101.7985580 141.3942740
  42.0482260 101.4278490 142.2757200  42.2223640 102.7363150 141.5344560
  45.7918660 103.3545170 136.9952460  45.5510020 103.6219730 136.1082980
  46.7321300 103.5250900 137.0503320  47.9973080  89.8177860 140.7508970
  47.9361970  90.4099690 141.5004380  48.9373460  89.7103820 140.6059230
  50.6347640  89.4747920 140.3901260  51.2488050  89.7927210 139.7282340
  51.1797200  88.9896510 141.0097120  57.0522820 105.3739550 137.7963100
  56.5581100 105.7708420 137.0790230  56.4436110 104.7488760 138.1900380
  41.1568900  88.1542180 140.5040320  41.7051890  87.9730230 139.7406430
  41.2224210  87.3636290 141.0396630  41.9300660 104.7447830 138.5140520
  41.3360980 104.6132530 139.2530560  41.9224500 103.9085970 138.0482620
  51.3755680  88.0380060 136.7170550  50.5015520  88.3715170 136.5143480
  51.2666430  87.5653240 137.5422420  52.2827660  90.2450930 138.1012270
  51.9541020  89.4302690 137.7214000  53.2309960  90.2020740 137.9777960
  54.7362270 106.0162970 135.0749840  54.2765240 106.7678780 134.7007860
  54.1074730 105.2969440 135.0164640  41.5612890 102.1106210 137.4648560
  40.8346950 101.4911500 137.3974510  41.6222040 102.5046820 136.5946640
  45.1657990 104.3251210 134.2497970  45.6823010 103.7138570 133.7246230
  45.8155370 104.8279990 134.7408980  47.9053490 105.2159700 135.0766950
  48.1931300 104.9614000 134.1999960  48.4176710 104.6637060 135.6672520
  49.1230500  88.9549900 135.6563460  48.3402290  89.4295400 135.9360220
  48.8293430  88.0504730 135.5476640  39.8442890 105.4280600 130.6745320
  39.6764930 104.7951280 131.3727210  38.9777400 105.6340000 130.3239510
  40.4670910  89.2597380 128.1777180  41.2250270  89.3726260 127.6041210
  40.0048080  90.0966580 128.1320610  47.0084720  91.3736650 131.1679490
  46.1959230  90.9993540 130.8275370  47.5126360  90.6181730 131.4700680
  41.4505590 104.1213830 128.1195460  40.9253210 104.5021860 127.4157420
  41.3750170 104.7464600 128.8405170  42.8396060  89.7861430 126.7179150
  43.3688820  88.9991230 126.5887100  43.4724380  90.4652620 126.9514680
  45.0333900  89.5236570 129.7724540  44.4036640  88.8223880 129.9394670
  44.4939040  90.2840700 129.5557700  47.9725850 106.1375800 142.4435150
  48.8993160 105.9020070 142.4871110  47.9576280 106.9647800 141.9621180
  56.2070910 105.6801370 129.4409400  56.3823100 104.9939110 128.7970320
  55.5092480 106.2048420 129.0486070  45.1589460  88.8020550 142.2077030
  44.8773730  89.3054150 141.4437850  45.5409160  88.0042300 141.8419160
  43.2113350 102.1860940 126.9991040  42.5822230 102.6546040 127.5476870
  43.3261180 101.3410160 127.4337230  51.7604920  88.2174130 142.7857500
  51.6470370  88.5368740 143.6809020  52.5774660  88.6186640 142.4894780
  54.5403410 105.3645660 142.2676190  55.3328730 104.8694890 142.0602150
  54.8336560 106.0435800 142.8751800  48.7981110  98.0145620 115.0301510
  48.0223210  97.5346060 115.3200080  49.4494040  97.3351270 114.8557670
  42.8146940  98.3265430 115.9077270  41.9831820  98.0714140 116.3073780
  43.4227920  98.3976200 116.6435190  52.8188540 102.4205810 113.8100640
  52.3570070 101.6493050 114.1387810  53.6314090 102.4471880 114.3153090
  42.7948200 102.3605520 116.1035290  43.0976240 101.4703260 115.9245510
  43.5391790 102.9175740 115.8757540  39.1871900  95.8872970 115.5759360
  39.7588010  95.1195170 115.5763000  39.1873440  96.1861730 114.6665970
  49.0451850 104.7063820 113.4304630  48.4263290 105.1621320 112.8599070
  49.9003630 104.8615280 113.0294330  48.2390100 100.6902810 115.0371670
  48.1698380  99.7492750 114.8760800  49.0009960 100.7804220 115.6094240
  40.4296770  91.2957330 117.3628290  40.2499610  90.3983080 117.6431050
  40.0276850  91.8429200 118.0375240  49.2695270  93.4973190 115.2640600
  49.6460090  92.6245070 115.1514270  49.1714780  93.8331890 114.3731040
  43.4000280  91.8698820 110.7258040  43.5067030  92.7702550 111.0326800
  42.4892640  91.8216790 110.4352690  53.0519390  90.9923630 112.1968940
  53.8729010  90.5020200 112.2394420  53.0853470  91.5821290 112.9500780
  41.0483440  93.7917830 115.9710630  41.7293550  94.0556200 116.5898030
  40.7331490  92.9518700 116.3048640  57.3418940  93.0090380 118.7612570
  56.6371110  93.3972090 118.2427680  57.6076860  93.7040670 119.3633500
  44.7746960  99.1178930 117.5020140  44.4416340  99.7447850 118.1441210
  44.9513640  99.6440810 116.7221810  43.9866060 101.0859730 119.3169320
  44.6040060 101.7610810 119.0353770  43.1259180 101.4947710 119.2256820
  54.9043650 102.5499140 117.2323960  54.2207170 103.2198250 117.2240630
  55.4437940 102.7479790 116.4668820  52.4402390 104.3943270 115.9469140
  52.4529550 103.9905560 115.0791400  51.8877610 105.1690560 115.8430570
  44.8824730  97.2689550 113.1741530  44.4781730  96.5566800 112.6787430
  44.9687850  96.9242790 114.0629570  45.3506430 100.9557110 115.3380740
  45.0534720 100.3502580 114.6588520  46.3006250 100.9934420 115.2270100
  53.4392040 104.5288980 119.0003840  52.9622600 105.3361170 118.8076450
  52.7553830 103.8767310 119.1530050  44.4424860 100.6938800 121.9888540
  43.5453390 100.9178770 122.2361940  44.4677730 100.8173740 121.0399940
  49.5925460 102.4827990 111.8711040  50.0321370 103.2252320 111.4566430
  49.5312350 102.7254560 112.7950000  55.0647220  88.7974730 106.2170840
  54.7519880  88.8901560 107.1169910  55.8259690  89.3755760 106.1668270
  41.5829360  96.1634530 110.6748180  41.4626960  96.8896620 110.0629450
  41.2730250  95.3937440 110.1976090  39.2214730  99.3349670 116.4816820
  39.2995150  99.4698440 115.5372540  39.8356410  98.6265560 116.6744940
  40.4662360 101.0349860 112.8923000  40.0590440 101.1764450 112.0376600
  41.3575370 100.7510020 112.6894210  56.4224500 101.4813770 121.2295240
  56.5487560 101.2425650 120.3112420  56.4645880 100.6498310 121.7017320
  50.2841240 105.1841770 119.7990050  50.7985910 105.0949780 120.6012480
  49.4410320 105.5301470 120.0917960  52.2595640 105.4697110 109.2274050
  52.0996780 105.1800050 110.1255880  52.0942350 104.6937240 108.6919280
  44.7384020 105.2495640 111.0045670  44.5626500 104.3331180 110.7913470
  43.8839760 105.6082930 111.2443470  51.5271700 104.6047380 111.8620540
  51.9828650 103.8236760 112.1759160  51.8664220 105.3154200 112.4061720
  39.2774250 100.3763840 119.0211280  39.4405290  99.9069200 118.2030650
  39.7426700  99.8687400 119.6860120  50.4317050  95.0948820 122.8902620
  50.7570460  94.2612570 122.5504850  51.2197380  95.6177340 123.0380950
  47.1651840  89.1280300 108.9377680  46.5406020  89.1240170 109.6630990
  47.0781960  88.2611260 108.5413650  43.8407240  94.6303170 111.7853100
  43.6148160  94.4140340 112.6899720  43.0599770  95.0631630 111.4399070
  46.2806450  95.5288750 122.4513370  46.1850050  94.5883480 122.3013770
  47.1238430  95.7503820 122.0561440  41.4116990  91.9402420 120.6047150
  41.0180380  92.7877630 120.8119930  40.7235390  91.3028790 120.7955790
  47.9862040  92.0237390 123.6743890  47.2960360  91.8309590 124.3089980
  48.7294340  92.3072030 124.2068190  42.5504780  92.4216520 113.8744510
  42.2104830  92.8991750 114.6311560  41.7882100  91.9681640 113.5145610
  50.7250920  91.3169510 115.9220750  50.7423660  91.7678160 116.7662600
  50.4766500  90.4175150 116.1354190  54.1521670  88.7301690 121.7607130
  54.4767440  87.9991350 122.2865110  54.1878180  88.4115330 120.8588120
  40.8513230  99.7515270 121.1807090  40.4668020  99.1108940 121.7790050
  41.1625420 100.4551390 121.7501820  47.0010370  96.5991810 116.6615710
  47.3680500  96.1250380 117.4077050  46.8115430  97.4733380 117.0024050
  44.7909740  95.6400450 118.9799920  44.4866810  96.5192430 119.2050280
  45.7456200  95.7000240 119.0157360  49.5389450  90.2364760 109.5122550
  48.7254060  89.7377930 109.4367860  49.3451400  91.0763010 109.0958900
  49.4598310  98.9135860 121.2562160  49.3935620  97.9931530 121.0019750
  48.8303450  99.0111300 121.9706800  43.3628930  99.5141820 113.2145580
  43.8807600  98.7110080 113.1602470  42.9112950  99.4520960 114.0562410
  51.1325840 100.1023940 113.8518390  51.4849660  99.5052070 113.1919760
  50.2488170  99.7768170 114.0226640  48.8248940 103.3774000 118.1006460
  49.4691160 103.5833380 118.7779880  49.1878380 102.6162400 117.6477310
  50.0981020 101.3806350 116.8183910  50.7403250 100.6799510 116.9316080
  50.6230370 102.1604790 116.6380800  51.8718640 102.1801250 120.0219970
  52.2074880 102.7667940 120.6997890  50.9518980 102.0493960 120.2517760
  39.7252770 105.6921830 107.3167510  40.0850410 106.2911170 106.6624780
  39.5845110 106.2381720 108.0902540  39.4222040  89.9696430 120.8043380
  38.7080560  90.1693350 121.4095990  39.8417080  89.1936000 121.1758180
  39.7094630 103.9576690 121.7909910  39.8185750 103.0171430 121.6505300
  39.0575190 104.2231440 121.1423640  45.7421390 103.0753030 108.1341180
  45.7331490 103.8082720 107.5185690  44.8219750 102.8284610 108.2268140
  41.3428030  98.2967920 108.8787940  40.7355980  99.0366820 108.8883240
  41.8177380  98.3867280 108.0526140  54.2822850  91.4175680 109.3632390
  53.6536010  91.5221350 108.6490620  53.7874770  91.6372460 110.1526270
  48.7280990 103.1381270 106.7966370  48.8292970 102.9345260 105.8668350
  47.8282730 102.8839550 107.0014150  47.8762810  95.1158330 118.7782800
  48.3748060  95.5904150 119.4434650  48.0185760  94.1921850 118.9852830
  50.2822310  90.4212290 112.2186060  50.1590090  90.4398420 111.2695570
  51.2306870  90.4691230 112.3384460  47.3699100 105.6567590 111.4914040
  47.6240600 105.6188980 110.5693410  46.4211580 105.5300920 111.4842290
  44.4541900  92.0046710 108.1540980  45.3032430  92.4416860 108.0881170
  44.0873170  92.3166970 108.9813040  55.0829670  91.3326290 119.6211190
  54.5803270  92.0731690 119.9605000  55.8986330  91.7210290 119.3047980
  55.3777260 103.7468320 114.7426810  55.5024680 104.5699490 115.2150620
  56.2442820 103.5359050 114.3950960  42.8494790 105.8399530 114.4143940
  43.5857270 105.2914990 114.6852510  43.2335710 106.7055540 114.2749930
  39.7340270 101.9073100 110.2885450  38.8080050 102.1494240 110.2790860
  40.1996700 102.7347360 110.1670200  45.9597100 105.0129840 106.2369510
  46.7525710 105.3018670 105.7851300  45.4401450 104.5822010 105.5581990
  50.6917700 101.1325470 123.5504930  50.0855860 101.1557070 122.8100680
  50.3871810 100.4008510 124.0872180  46.6288820  98.9190050 122.0801090
  45.8634490  99.4875050 121.9955760  46.8104780  98.6266260 121.1869320
  53.7712170 100.6495380 122.6376110  54.5121640 100.9871140 122.1343570
  53.0084850 100.8187440 122.0845880  47.2073060  98.6530690 119.1427250
  47.6261170  99.4963420 118.9703490  46.2881690  98.7902730 118.9134030
  49.5436960  96.3846870 120.5265090  49.6633170  95.7888010 121.2659930
  50.4030960  96.4216560 120.1066390  44.2811250  94.3277430 105.5477310
  44.0800310  93.4644790 105.9090650  44.1103300  94.2410790 104.6098910
  46.3105730  92.9268220 121.7840910  46.9005420  92.6184070 122.4718730
  45.4925970  92.4547970 121.9400810  51.1299160  92.5434030 122.0173930
  50.4414680  91.8815570 121.9523920  51.8505180  92.0972300 122.4622390
  51.7599560  89.1385660 108.0764190  52.0401850  88.2953560 108.4323610
  50.9865290  89.3708770 108.5902940  43.0794050  91.4278050 105.5355190
  43.3819950  91.4345480 104.6274340  43.8188640  91.0775910 106.0322850
  47.9142690 106.1934910 120.5171630  47.8401390 107.0970050 120.8244000
  47.0121530 105.8746810 120.4893700  46.2978980  90.3712670 106.5211390
  45.9500980  89.6936660 105.9413840  46.4991750  89.9102180 107.3354780
  48.4628020 105.3593420 108.1397990  49.3578810 105.6978390 108.1616750
  48.4945650 104.6372830 107.5122270  42.1024180 100.7320470 106.3684990
  42.5399050 101.2750140 107.0242570  42.5871910  99.9067420 106.3781330
  39.3169980 103.5209500 113.8205250  39.6472990 102.6530560 113.5883890
  39.7460980 103.7268020 114.6510210  43.9131900 101.8518510 111.4807220
  43.6127440 101.7283480 112.3811130  43.8069390 100.9927100 111.0722950
  39.8060190 104.3880090 116.5586880  39.3691180 104.5680890 117.3911030
  40.3737870 105.1454710 116.4168600  39.6384620  96.9000320 112.9175760
  38.9833460  96.6311960 112.2735460  40.4762570  96.7904800 112.4677740
  40.6760550  97.2852890 117.4579100  41.0433590  97.1980290 118.3375120
  40.1071370  96.5219440 117.3585960  53.9152480  90.9793700 123.2489270
  54.7922660  90.9877100 123.6323270  53.9273320  90.2424540 122.6381620
  41.0424070  89.2204120 105.8098120  41.7652200  89.7613060 106.1279340
  41.3148590  88.9467540 104.9339660  54.6268600  88.6651670 119.0690380
  55.2640820  89.2785810 119.4349570  54.7743490  88.7012330 118.1239610
  54.1850060 105.3667670 112.4708620  54.7809130 105.0452240 111.7943040
  54.4428210 104.8939490 113.2621890  42.0912630 101.7985580 122.6199250
  42.0482260 101.4278490 123.5013710  42.2223640 102.7363150 122.7601070
  47.9973080  89.8177860 121.9765480  47.9361970  90.4099690 122.7260890
  48.9373460  89.7103820 121.8315740  50.6347640  89.4747920 121.6157770
  51.2488050  89.7927210 120.9538850  51.1797200  88.9896510 122.2353630
  57.0522820 105.3739550 119.0219610  56.5581100 105.7708420 118.3046740
  56.4436110 104.7488760 119.4156890  51.3755680  88.0380060 117.9427060
  50.5015520  88.3715170 117.7399990  51.2666430  87.5653240 118.7678930
  52.2827660  90.2450930 119.3268780  51.9541020  89.4302690 118.9470510
  53.2309960  90.2020740 119.2034470  54.7362270 106.0162970 116.3006350
  54.2765240 106.7678780 115.9264370  54.1074730 105.2969440 116.2421150
  41.5612890 102.1106210 118.6905070  40.8346950 101.4911500 118.6231020
  41.6222040 102.5046820 117.8203150  49.1230500  88.9549900 116.8819970
  48.3402290  89.4295400 117.1616730  48.8293430  88.0504730 116.7733150
  53.6751570  89.6573000 114.9269060  54.1159660  89.6018100 114.0790660
  53.4059160  90.5731010 114.9979240  39.8442890 105.4280600 111.9001830
  39.6764930 104.7951280 112.5983720  38.9777400 105.6340000 111.5496020
  40.4670910  89.2597380 109.4033690  41.2250270  89.3726260 108.8297720
  40.0048080  90.0966580 109.3577120  51.5109700  88.0379100 113.6319070
  52.1139070  88.6099310 114.1067590  50.7702690  88.6018540 113.4092970
  54.6544300  88.4400660 108.9059350  54.8494930  89.3384110 109.1726780
  53.8674170  88.2087740 109.3992300  41.4505590 104.1213830 109.3451970
  40.9253210 104.5021860 108.6413930  41.3750170 104.7464600 110.0661680
  42.8396060  89.7861430 107.9435660  43.3688820  88.9991230 107.8143610
  43.4724380  90.4652620 108.1771190  45.0333900  89.5236570 110.9981050
  44.4036640  88.8223880 111.1651180  44.4939040  90.2840700 110.7814210
  56.2070910 105.6801370 110.6665910  56.3823100 104.9939110 110.0226830
  55.5092480 106.2048420 110.2742580  44.0498560 106.0696210 108.2201220
  44.7817380 105.7855490 107.6725110  44.3092230 105.8309490 109.1100600
  43.2113350 102.1860940 108.2247550  42.5822230 102.6546040 108.7733380
  43.3261180 101.3410160 108.6593740  51.7604920  88.2174130 124.0114010
  51.6470370  88.5368740 124.9065530  52.5774660  88.6186640 123.7151290
  48.7981110  98.0145620  96.2558020  48.0223210  97.5346060  96.5456590
  49.4494040  97.3351270  96.0814180  48.2390100 100.6902810  96.2628180
  48.1698380  99.7492750  96.1017310  49.0009960 100.7804220  96.8350750
  40.4296770  91.2957330  98.5884800  40.2499610  90.3983080  98.8687560
  40.0276850  91.8429200  99.2631750  49.2695270  93.4973190  96.4897110
  49.6460090  92.6245070  96.3770780  49.1714780  93.8331890  95.5987550
  43.4000280  91.8698820  91.9514550  43.5067030  92.7702550  92.2583310
  42.4892640  91.8216790  91.6609200  53.0519390  90.9923630  93.4225450
  53.8729010  90.5020200  93.4650930  53.0853470  91.5821290  94.1757290
  41.0483440  93.7917830  97.1967140  41.7293550  94.0556200  97.8154540
  40.7331490  92.9518700  97.5305150  45.2408010  94.8385190  96.2839730
  45.7486230  95.3366160  96.9244750  45.7721250  94.0620390  96.1079090
  57.3418940  93.0090380  99.9869080  56.6371110  93.3972090  99.4684190
  57.6076860  93.7040670 100.5890010  49.9115200  99.5903060  92.0493050
  49.2932470 100.0552510  91.4855770  50.4238450 100.2830540  92.4662560
  53.2880870  92.9324010  96.1952990  52.5836440  93.2208900  96.7756100
  53.6493030  93.7424120  95.8352550  43.2059440  91.1893710  98.5573600
  43.5476250  92.0335760  98.2627470  42.2675250  91.3377450  98.6738940
  39.2798400 100.2759590  89.4232680  38.9026380 100.7646690  88.6917580
  39.5371470 100.9484870  90.0539210  54.9043650 102.5499140  98.4580470
  54.2207170 103.2198250  98.4497140  55.4437940 102.7479790  97.6925330
  56.3567790  92.3778800  96.5862200  55.4092700  92.4117780  96.7177630
  56.6817780  93.1917750  96.9711560  46.8887330  88.6775980  94.8818190
  47.1962310  88.1222870  94.1653690  45.9588030  88.8120440  94.6991180
  55.7849930  97.6960330  98.5924500  54.9568560  97.7653420  98.1174630
  56.3800410  98.2814640  98.1240330  43.5953350  94.0432760  98.1797080
  44.1467940  94.1528100  97.4050330  44.1096860  94.4170360  98.8952310
  53.4392040 104.5288980 100.2260350  52.9622600 105.3361170 100.0332960
  52.7553830 103.8767310 100.3786560  44.4424860 100.6938800 103.2145050
  43.5453390 100.9178770 103.4618450  44.4677730 100.8173740 102.2656450
  51.4830080  97.5431920  89.1286310  51.9223360  96.7054350  88.9824130
  52.1958500  98.1761320  89.2150450  45.0676430 103.5073820 103.9987570
  45.0391860 103.9116770 103.1316000  44.9041400 102.5784180 103.8359170
  55.0647220  88.7974730  87.4427350  54.7519880  88.8901560  88.3426420
  55.8259690  89.3755760  87.3924780  57.0191250 104.2900920 105.2951740
  57.4950970 104.7683810 105.9740820  57.6398410 104.2218410 104.5697240
  56.4224500 101.4813770 102.4551750  56.5487560 101.2425650 101.5368930
  56.4645880 100.6498310 102.9273830  56.2748510  93.5346230 103.4201490
  55.6592780  94.0425900 102.8916950  55.9544930  92.6344560 103.3627430
  44.0493020  89.5069600  95.2828360  43.6061170  90.2879140  94.9512880
  44.6078010  89.8299490  95.9899300  48.3362830  92.3738120 100.8863680
  47.8742200  92.5821140 101.6983620  47.9340940  91.5597470 100.5834350
  46.0868920  90.0516930  97.1417960  46.3841250  90.9579760  97.0609980
  46.6354480  89.5635710  96.5277530  51.0705000  94.6366540  91.6100260
  50.4713890  95.3602340  91.4263880  51.6184610  94.5743320  90.8276710
  49.6769870  93.2730080  93.6403540  50.0699440  93.5902280  92.8272230
  50.0386720  92.3941960  93.7548060  41.4116990  91.9402420 101.8303660
  41.0180380  92.7877630 102.0376440  40.7235390  91.3028790 102.0212300
  38.7134040  89.8630880  95.8633740  38.4247090  90.4333740  96.5758720
  39.4579800  89.3835330  96.2264970  46.7002400  92.5390030  96.1406810
  46.7038460  92.0979980  95.2911350  47.5953520  92.8607360  96.2478630
  42.5504780  92.4216520  95.1001020  42.2104830  92.8991750  95.8568070
  41.7882100  91.9681640  94.7402120  50.7250920  91.3169510  97.1477260
  50.7423660  91.7678160  97.9919110  50.4766500  90.4175150  97.3610700
  54.1521670  88.7301690 102.9863640  54.4767440  87.9991350 103.5121620
  54.1878180  88.4115330 102.0844630  47.0010370  96.5991810  97.8872220
  47.3680500  96.1250380  98.6333560  46.8115430  97.4733380  98.2280560
  39.8650860  91.3435500  94.0165690  39.5797780  90.9791170  94.8544310
  39.8029720  90.6115960  93.4028830  44.7909740  95.6400450 100.2056430
  44.4866810  96.5192430 100.4306790  45.7456200  95.7000240 100.2413870
  52.2537840  94.6084410  89.0341220  53.1417460  94.9201640  88.8592560
  52.2242930  93.7356660  88.6421800  40.8473470  96.4803190 101.3527790
  40.4888410  97.1457040 101.9401130  40.5528030  95.6486740 101.7240410
  44.0486590  96.9387430 104.2367340  43.7486730  97.0844610 103.3395160
  44.8197830  96.3792720 104.1440730  54.5252110  95.9196250  88.5021080
  54.4415830  96.3510470  87.6517520  55.2446300  96.3794600  88.9347900
  55.6026250  98.3763770 101.5791050  54.8774440  98.9692550 101.3820440
  56.1301710  98.3687310 100.7804420  48.8248940 103.3774000  99.3262970
  49.4691160 103.5833380 100.0036390  49.1878380 102.6162400  98.8733820
  42.4228110  88.2105310  92.5693190  42.2942740  88.2023210  93.5178110
  41.5990130  88.5488400  92.2184200  51.8718640 102.1801250 101.2476480
  52.2074880 102.7667940 101.9254400  50.9518980 102.0493960 101.4774270
  39.7252770 105.6921830  88.5424020  40.0850410 106.2911170  87.8881290
  39.5845110 106.2381720  89.3159050  39.4222040  89.9696430 102.0299890
  38.7080560  90.1693350 102.6352500  39.8417080  89.1936000 102.4014690
  54.2822850  91.4175680  90.5888900  53.6536010  91.5221350  89.8747130
  53.7874770  91.6372460  91.3782780  47.8762810  95.1158330 100.0039310
  48.3748060  95.5904150 100.6691160  48.0185760  94.1921850 100.2109340
  50.2822310  90.4212290  93.4442570  50.1590090  90.4398420  92.4952080
  51.2306870  90.4691230  93.5640970  55.3777260 103.7468320  95.9683320
  55.5024680 104.5699490  96.4407130  56.2442820 103.5359050  95.6207470
  39.7340270 101.9073100  91.5141960  38.8080050 102.1494240  91.5047370
  40.1996700 102.7347360  91.3926710  41.8553070 105.0245600 104.8286030
  42.6565800 105.3457650 105.2421430  41.3404890 104.6641180 105.5505940
  45.9597100 105.0129840  87.4626020  46.7525710 105.3018670  87.0107810
  45.4401450 104.5822010  86.7838500  52.1218070 104.8605760 103.3870850
  53.0739820 104.7763780 103.3371090  51.9746290 105.5247470 104.0604640
  43.5479770  94.2340750 102.6346640  43.0176230  93.7431700 102.0069980
  44.2167840  94.6624950 102.1004570  47.8979990  97.2781810  87.0752760
  48.4185650  96.5630830  86.7093910  48.5448390  97.9167680  87.3753270
  52.4457830  98.7010210 102.3987830  52.8598850  98.8555290 103.2478250
  51.5108830  98.8265430 102.5613610  44.0352070  91.2003120 102.7143930
  43.9408940  90.5823870 101.9894800  43.4549460  91.9269410 102.4873840
  46.8013510  89.7576360  99.7471320  46.3530810  89.7800620  98.9016870
  46.1678710  89.3595380 100.3441620  47.2073060  98.6530690 100.3683760
  47.6261170  99.4963420 100.1960000  46.2881690  98.7902730 100.1390540
  55.4422370 103.8897090 102.0720700  54.8424360 103.9489650 101.3284620
  55.5716270 102.9502070 102.2017550  54.1274010 100.6149070 100.1696860
  53.3133850 101.0446230 100.4322650  54.5348210 101.2267480  99.5565910
  56.1899450  98.6696760  87.0697130  56.4648290  99.5775640  86.9416350
  56.0010190  98.6059290  88.0059120  52.5875060  91.6941610  88.3650760
  53.0059940  91.5072590  87.5247420  52.2811120  90.8420660  88.6753690
  55.4764410  95.7537270 101.6966080  55.2450500  95.5250020 100.7964030
  55.7368960  96.6736820 101.6510970  40.2276550  94.1961980 102.5894030
  39.3332600  94.1628740 102.9287740  40.7674100  94.3948770 103.3545280
  53.9152480  90.9793700 104.4745780  54.7922660  90.9877100 104.8579780
  53.9273320  90.2424540 103.8638130  55.3615750  94.8323240  95.3633800
  55.8853230  94.3385890  94.7323970  55.9475170  94.9673600  96.1081370
  54.8515720  94.0896590  91.3026210  55.3474840  93.8567460  92.0875090
  54.6531790  93.2508430  90.8863850  40.7316260  88.4710310  96.9377250
  41.3792450  87.9207690  96.4972410  41.1518100  88.7253460  97.7593060
  56.2802880  92.7257540  93.8363890  56.1702160  92.5713580  94.7746160
  57.0410470  92.1978480  93.5939300  57.1693150  90.5565460  87.0770030
  58.0942460  90.4246640  86.8688320  57.1468940  90.6358280  88.0306480
  57.2431640  91.3276120  89.7026740  56.4483140  91.2621240  90.2319650
  57.4474920  92.2626760  89.6912090  54.1850060 105.3667670  93.6965130
  54.7809130 105.0452240  93.0199550  54.4428210 104.8939490  94.4878400
  40.4848260  88.6265980  99.6802570  40.1363080  89.0829800 100.4460750
  40.1535960  87.7323110  99.7625000  57.0522820 105.3739550 100.2476120
  56.5581100 105.7708420  99.5303250  56.4436110 104.7488760 100.6413400
  41.1568900  88.1542180 102.9553340  41.7051890  87.9730230 102.1919450
  41.2224210  87.3636290 103.4909650  51.3755680  88.0380060  99.1683570
  50.5015520  88.3715170  98.9656500  51.2666430  87.5653240  99.9935440
  54.7362270 106.0162970  97.5262860  54.2765240 106.7678780  97.1520880
  54.1074730 105.2969440  97.4677660  47.9053490 105.2159700  97.5279970
  48.1931300 104.9614000  96.6512980  48.4176710 104.6637060  98.1185540
  49.1230500  88.9549900  98.1076480  48.3402290  89.4295400  98.3873240
  48.8293430  88.0504730  97.9989660  55.5390140  89.2888240  94.1634390
  55.4778540  88.3449460  94.0165410  56.3182170  89.3968330  94.7087850
  47.0084720  91.3736650  93.6192510  46.1959230  90.9993540  93.2788390
  47.5126360  90.6181730  93.9213700  51.5109700  88.0379100  94.8575580
  52.1139070  88.6099310  95.3324100  50.7702690  88.6018540  94.6349480
  45.0333900  89.5236570  92.2237560  44.4036640  88.8223880  92.3907690
  44.4939040  90.2840700  92.0070720  47.9725850 106.1375800 104.8948170
  48.8993160 105.9020070 104.9384130  47.9576280 106.9647800 104.4134200
  45.1589460  88.8020550 104.6590050  44.8773730  89.3054150 103.8950870
  45.5409160  88.0042300 104.2932180  51.7604920  88.2174130 105.2370520
  51.6470370  88.5368740 106.1322040  52.5774660  88.6186640 104.9407800
  54.5403410 105.3645660 104.7189210  55.3328730 104.8694890 104.5115170
  54.8336560 106.0435800 105.3264820  42.8146940  98.3265430  78.3590290
  41.9831820  98.0714140  78.7586800  43.4227920  98.3976200  79.0948210
  52.8188540 102.4205810  76.2613660  52.3570070 101.6493050  76.5900830
  53.6314090 102.4471880  76.7666110  42.7948200 102.3605520  78.5548310
  43.0976240 101.4703260  78.3758530  43.5391790 102.9175740  78.3270560
  41.2238890  93.2867320  72.1432680  40.3355590  93.6283290  72.0412560
  41.5080080  93.0867640  71.2513510  39.1871900  95.8872970  78.0272380
  39.7588010  95.1195170  78.0276020  39.1873440  96.1861730  77.1178990
  40.4296770  91.2957330  79.8141310  40.2499610  90.3983080  80.0944070
  40.0276850  91.8429200  80.4888260  43.4000280  91.8698820  73.1771060
  43.5067030  92.7702550  73.4839820  42.4892640  91.8216790  72.8865710
  41.0483440  93.7917830  78.4223650  41.7293550  94.0556200  79.0411050
  40.7331490  92.9518700  78.7561660  57.3418940  93.0090380  81.2125590
  56.6371110  93.3972090  80.6940700  57.6076860  93.7040670  81.8146520
  54.9043650 102.5499140  79.6836980  54.2207170 103.2198250  79.6753650
  55.4437940 102.7479790  78.9181840  46.8887330  88.6775980  76.1074700
  47.1962310  88.1222870  75.3910200  45.9588030  88.8120440  75.9247690
  49.2768090  96.7424810  72.8434820  48.3497370  96.6762190  73.0723290
  49.4292910  97.6804940  72.7290060  49.2637170  93.0141810  69.8401980
  48.3240840  93.1755770  69.9254440  49.5820430  93.7327490  69.2937970
  55.7849930  97.6960330  79.8181010  54.9568560  97.7653420  79.3431140
  56.3800410  98.2814640  79.3496840  53.3065380  98.3045110  73.3470070
  52.6877800  97.9664660  72.6996370  53.2889830  97.6604870  74.0549260
  44.8824730  97.2689550  75.6254550  44.4781730  96.5566800  75.1300450
  44.9687850  96.9242790  76.5142590  51.4830080  97.5431920  70.3542820
  51.9223360  96.7054350  70.2080640  52.1958500  98.1761320  70.4406960
  43.2696080  97.5652120  83.0158930  43.1303850  98.4374920  83.3846330
  42.3877440  97.2224930  82.8706870  41.5829360  96.1634530  73.1261200
  41.4626960  96.8896620  72.5142470  41.2730250  95.3937440  72.6489110
  39.2214730  99.3349670  78.9329840  39.2995150  99.4698440  77.9885560
  39.8356410  98.6265560  79.1257960  56.4224500 101.4813770  83.6808260
  56.5487560 101.2425650  82.7625440  56.4645880 100.6498310  84.1530340
  44.7384020 105.2495640  73.4558690  44.5626500 104.3331180  73.2426490
  43.8839760 105.6082930  73.6956490  56.2748510  93.5346230  84.6458000
  55.6592780  94.0425900  84.1173460  55.9544930  92.6344560  84.5883940
  39.2774250 100.3763840  81.4724300  39.4405290  99.9069200  80.6543670
  39.7426700  99.8687400  82.1373140  53.3367340  93.5947070  83.2416850
  52.4860930  93.2952820  83.5625920  53.1769130  93.8389080  82.3300670
  50.4317050  95.0948820  85.3415640  50.7570460  94.2612570  85.0017870
  51.2197380  95.6177340  85.4893970  46.0868920  90.0516930  78.3674470
  46.3841250  90.9579760  78.2866490  46.6354480  89.5635710  77.7534040
  43.8407240  94.6303170  74.2366120  43.6148160  94.4140340  75.1412740
  43.0599770  95.0631630  73.8912090  46.2806450  95.5288750  84.9026390
  46.1850050  94.5883480  84.7526790  47.1238430  95.7503820  84.5074460
  38.7134040  89.8630880  77.0890250  38.4247090  90.4333740  77.8015230
  39.4579800  89.3835330  77.4521480  42.5504780  92.4216520  76.3257530
  42.2104830  92.8991750  77.0824580  41.7882100  91.9681640  75.9658630
  46.7622550  93.5402110  70.3570080  46.8835370  93.4988590  71.3055900
  46.3771060  94.4026260  70.2016810  54.1521670  88.7301690  84.2120150
  54.4767440  87.9991350  84.7378130  54.1878180  88.4115330  83.3101140
  40.8513230  99.7515270  83.6320110  40.4668020  99.1108940  84.2303070
  41.1625420 100.4551390  84.2014840  39.8650860  91.3435500  75.2422200
  39.5797780  90.9791170  76.0800820  39.8029720  90.6115960  74.6285340
  43.3191530  99.8461440  72.0279790  42.5453790  99.3059060  71.8678510
  44.0486160  99.3268050  71.6897550  49.5389450  90.2364760  71.9635570
  48.7254060  89.7377930  71.8880880  49.3451400  91.0763010  71.5471920
  52.2537840  94.6084410  70.2597730  53.1417460  94.9201640  70.0849070
  52.2242930  93.7356660  69.8678310  43.3628930  99.5141820  75.6658600
  43.8807600  98.7110080  75.6115490  42.9112950  99.4520960  76.5075430
  40.8473470  96.4803190  82.5784300  40.4888410  97.1457040  83.1657640
  40.5528030  95.6486740  82.9496920  44.0486590  96.9387430  85.4623850
  43.7486730  97.0844610  84.5651670  44.8197830  96.3792720  85.3697240
  54.5252110  95.9196250  69.7277590  54.4415830  96.3510470  68.8774030
  55.2446300  96.3794600  70.1604410  55.6026250  98.3763770  82.8047560
  54.8774440  98.9692550  82.6076950  56.1301710  98.3687310  82.0060930
  39.3581520  96.4794450  69.2018900  40.2276370  96.7619250  69.4854820
  38.8671840  97.2930320  69.0867710  46.5216330  97.8667660  73.3227180
  46.9779110  98.6772910  73.5487370  46.1704540  97.5490800  74.1545670
  39.7252770 105.6921830  69.7680530  40.0850410 106.2911170  69.1137800
  39.5845110 106.2381720  70.5415560  39.7094630 103.9576690  84.2422930
  39.8185750 103.0171430  84.1018320  39.0575190 104.2231440  83.5936660
  50.9160820  92.4618740  81.0057850  51.2841640  91.6413950  81.3337420
  50.0559020  92.5220630  81.4213500  46.2506880  93.6961630  73.2303290
  45.5423030  94.1647970  73.6716900  46.5351360  93.0383640  73.8648480
  50.2822310  90.4212290  74.6699080  50.1590090  90.4398420  73.7208590
  51.2306870  90.4691230  74.7897480  44.4541900  92.0046710  70.6054000
  45.3032430  92.4416860  70.5394190  44.0873170  92.3166970  71.4326060
  55.0829670  91.3326290  82.0724210  54.5803270  92.0731690  82.4118020
  55.8986330  91.7210290  81.7561000  43.3533320  98.2579070  69.0789530
  44.1196590  98.1460430  69.6414960  43.4308010  97.5617040  68.4266300
  42.0480080  95.6904140  69.7622420  42.1283670  94.7431650  69.8739820
  42.9399830  96.0211020  69.8683080  55.3777260 103.7468320  77.1939830
  55.5024680 104.5699490  77.6663640  56.2442820 103.5359050  76.8463980
  42.8494790 105.8399530  76.8656960  43.5857270 105.2914990  77.1365530
  43.2335710 106.7055540  76.7262950  41.8553070 105.0245600  86.0542540
  42.6565800 105.3457650  86.4677940  41.3404890 104.6641180  86.7762450
  50.6917700 101.1325470  86.0017950  50.0855860 101.1557070  85.2613700
  50.3871810 100.4008510  86.5385200  39.5750880  97.5119060  84.9978590
  40.0789900  96.9326340  85.5694820  38.8358300  97.7959290  85.5354960
  46.4774500 100.2333250  68.5524880  46.3725140  99.6185600  69.2786260
  46.3098720  99.7099140  67.7687890  46.6288820  98.9190050  84.5314110
  45.8634490  99.4875050  84.4468780  46.8104780  98.6266260  83.6382340
  49.7177230  99.2953280  69.1566870  49.1687330  99.7422580  69.8009610
  50.3396490  98.7902530  69.6804540  53.7712170 100.6495380  85.0889130
  54.5121640 100.9871140  84.5856590  53.0084850 100.8187440  84.5358900
  43.5479770  94.2340750  83.8603150  43.0176230  93.7431700  83.2326490
  44.2167840  94.6624950  83.3261080  52.9180000  96.0406370  85.6283490
  53.5000770  95.2858690  85.5403970  53.0941770  96.5713810  84.8514970
  44.2811250  94.3277430  67.9990330  44.0800310  93.4644790  68.3603670
  44.1103300  94.2410790  67.0611930  51.1299160  92.5434030  84.4686950
  50.4414680  91.8815570  84.4036940  51.8505180  92.0972300  84.9135410
  51.7599560  89.1385660  70.5277210  52.0401850  88.2953560  70.8836630
  50.9865290  89.3708770  71.0415960  46.2978980  90.3712670  68.9724410
  45.9500980  89.6936660  68.3926860  46.4991750  89.9102180  69.7867800
  42.1024180 100.7320470  68.8198010  42.5399050 101.2750140  69.4755590
  42.5871910  99.9067420  68.8294350  39.3169980 103.5209500  76.2718270
  39.6472990 102.6530560  76.0396910  39.7460980 103.7268020  77.1023230
  43.9131900 101.8518510  73.9320240  43.6127440 101.7283480  74.8324150
  43.8069390 100.9927100  73.5235970  39.8060190 104.3880090  79.0099900
  39.3691180 104.5680890  79.8424050  40.3737870 105.1454710  78.8681620
  55.4422370 103.8897090  83.2977210  54.8424360 103.9489650  82.5541130
  55.5716270 102.9502070  83.4274060  56.1380280  98.3762390  71.1381120
  56.8999190  98.9459040  71.2440810  56.1534650  97.8089590  71.9089430
  57.1440250  99.2312490  75.9823050  57.5149080  98.4479810  75.5759020
  57.7842180  99.9201590  75.8040350  56.1899450  98.6696760  68.2953640
  56.4648290  99.5775640  68.1672860  56.0010190  98.6059290  69.2315630
  52.5875060  91.6941610  69.5907270  53.0059940  91.5072590  68.7503930
  52.2811120  90.8420660  69.9010200  56.0864790  96.6065750  73.2883070
  55.7108390  95.8393680  72.8564360  55.3567910  96.9888450  73.7758000
  40.6760550  97.2852890  79.9092120  41.0433590  97.1980290  80.7888140
  40.1071370  96.5219440  79.8098980  55.4764410  95.7537270  82.9222590
  55.2450500  95.5250020  82.0220540  55.7368960  96.6736820  82.8767480
  40.2276550  94.1961980  83.8150540  39.3332600  94.1628740  84.1544250
  40.7674100  94.3948770  84.5801790  53.9152480  90.9793700  85.7002290
  54.7922660  90.9877100  86.0836290  53.9273320  90.2424540  85.0894640
  38.8522700  94.1099250  71.3114110  37.9486780  94.3729450  71.1365770
  39.3363320  94.3810420  70.5314070  41.0424070  89.2204120  68.2611140
  41.7652200  89.7613060  68.5792360  41.3148590  88.9467540  67.3852680
  54.6268600  88.6651670  81.5203400  55.2640820  89.2785810  81.8862590
  54.7743490  88.7012330  80.5752630  40.4848260  88.6265980  80.9059080
  40.1363080  89.0829800  81.6717260  40.1535960  87.7323110  80.9881510
  42.0912630 101.7985580  85.0712270  42.0482260 101.4278490  85.9526730
  42.2223640 102.7363150  85.2114090  50.6347640  89.4747920  84.0670790
  51.2488050  89.7927210  83.4051870  51.1797200  88.9896510  84.6866650
  57.0522820 105.3739550  81.4732630  56.5581100 105.7708420  80.7559760
  56.4436110 104.7488760  81.8669910  41.9300660 104.7447830  82.1910050
  41.3360980 104.6132530  82.9300090  41.9224500 103.9085970  81.7252150
  51.3755680  88.0380060  80.3940080  50.5015520  88.3715170  80.1913010
  51.2666430  87.5653240  81.2191950  52.2827660  90.2450930  81.7781800
  51.9541020  89.4302690  81.3983530  53.2309960  90.2020740  81.6547490
  41.5612890 102.1106210  81.1418090  40.8346950 101.4911500  81.0744040
  41.6222040 102.5046820  80.2716170  49.1230500  88.9549900  79.3332990
  48.3402290  89.4295400  79.6129750  48.8293430  88.0504730  79.2246170
  55.5390140  89.2888240  75.3890900  55.4778540  88.3449460  75.2421920
  56.3182170  89.3968330  75.9344360  39.8442890 105.4280600  74.3514850
  39.6764930 104.7951280  75.0496740  38.9777400 105.6340000  74.0009040
  40.4670910  89.2597380  71.8546710  41.2250270  89.3726260  71.2810740
  40.0048080  90.0966580  71.8090140  47.0084720  91.3736650  74.8449020
  46.1959230  90.9993540  74.5044900  47.5126360  90.6181730  75.1470210
  51.5109700  88.0379100  76.0832090  52.1139070  88.6099310  76.5580610
  50.7702690  88.6018540  75.8605990  41.4505590 104.1213830  71.7964990
  40.9253210 104.5021860  71.0926950  41.3750170 104.7464600  72.5174700
  47.9725850 106.1375800  86.1204680  48.8993160 105.9020070  86.1640640
  47.9576280 106.9647800  85.6390710  50.6663070  96.2366600  56.8261770
  50.5857120  95.3221210  56.5553480  50.2527490  96.7333670  56.1201480
  52.8188540 102.4205810  57.4870170  52.3570070 101.6493050  57.8157340
  53.6314090 102.4471880  57.9922620  41.2238890  93.2867320  53.3689190
  40.3355590  93.6283290  53.2669070  41.5080080  93.0867640  52.4770020
  39.1871900  95.8872970  59.2528890  39.7588010  95.1195170  59.2532530
  39.1873440  96.1861730  58.3435500  49.2695270  93.4973190  58.9410130
  49.6460090  92.6245070  58.8283800  49.1714780  93.8331890  58.0500570
  43.4000280  91.8698820  54.4027570  43.5067030  92.7702550  54.7096330
  42.4892640  91.8216790  54.1122220  41.0483440  93.7917830  59.6480160
  41.7293550  94.0556200  60.2667560  40.7331490  92.9518700  59.9818170
  43.5244110  89.4783750  63.0016170  43.5262550  89.9956140  62.1962070
  42.6948420  89.0013930  62.9786100  49.9115200  99.5903060  54.5006070
  49.2932470 100.0552510  53.9368790  50.4238450 100.2830540  54.9175580
  54.9043650 102.5499140  60.9093490  54.2207170 103.2198250  60.9010160
  55.4437940 102.7479790  60.1438350  53.7347810 101.1159490  54.7128840
  53.6244140 100.1733820  54.8378260  53.7316060 101.4775130  55.5991600
  51.8387830  99.2973110  60.9521280  52.2556620  99.0833220  60.1174740
  52.5627650  99.5545900  61.5229900  49.2768090  96.7424810  54.0691330
  48.3497370  96.6762190  54.2979800  49.4292910  97.6804940  53.9546570
  55.7849930  97.6960330  61.0437520  54.9568560  97.7653420  60.5687650
  56.3800410  98.2814640  60.5753350  52.7491940  94.4829650  61.9892390
  52.3363120  95.3083360  62.2432380  52.0167890  93.8974690  61.7968750
  44.4424860 100.6938800  65.6658070  43.5453390 100.9178770  65.9131470
  44.4677730 100.8173740  64.7169470  51.4830080  97.5431920  51.5799330
  51.9223360  96.7054350  51.4337150  52.1958500  98.1761320  51.6663470
  43.2696080  97.5652120  64.2415440  43.1303850  98.4374920  64.6102840
  42.3877440  97.2224930  64.0963380  49.5925460 102.4827990  55.5480570
  50.0321370 103.2252320  55.1335960  49.5312350 102.7254560  56.4719530
  45.0676430 103.5073820  66.4500590  45.0391860 103.9116770  65.5829020
  44.9041400 102.5784180  66.2872190  41.5829360  96.1634530  54.3517710
  41.4626960  96.8896620  53.7398980  41.2730250  95.3937440  53.8745620
  57.0191250 104.2900920  67.7464760  57.4950970 104.7683810  68.4253840
  57.6398410 104.2218410  67.0210260  40.4662360 101.0349860  56.5692530
  40.0590440 101.1764450  55.7146130  41.3575370 100.7510020  56.3663740
  56.4224500 101.4813770  64.9064770  56.5487560 101.2425650  63.9881950
  56.4645880 100.6498310  65.3786850  50.2841240 105.1841770  63.4759580
  50.7985910 105.0949780  64.2782010  49.4410320 105.5301470  63.7687490
  52.2595640 105.4697110  52.9043580  52.0996780 105.1800050  53.8025410
  52.0942350 104.6937240  52.3688810  51.9621770 102.9784670  51.4641580
  51.2686930 102.9761960  50.8043860  52.7044630 102.5543990  51.0335750
  51.5271700 104.6047380  55.5390070  51.9828650 103.8236760  55.8528690
  51.8664220 105.3154200  56.0831250  56.2748510  93.5346230  65.8714510
  55.6592780  94.0425900  65.3429970  55.9544930  92.6344560  65.8140450
  53.3367340  93.5947070  64.4673360  52.4860930  93.2952820  64.7882430
  53.1769130  93.8389080  63.5557180  50.4317050  95.0948820  66.5672150
  50.7570460  94.2612570  66.2274380  51.2197380  95.6177340  66.7150480
  47.1651840  89.1280300  52.6147210  46.5406020  89.1240170  53.3400520
  47.0781960  88.2611260  52.2183180  43.8407240  94.6303170  55.4622630
  43.6148160  94.4140340  56.3669250  43.0599770  95.0631630  55.1168600
  51.0705000  94.6366540  54.0613280  50.4713890  95.3602340  53.8776900
  51.6184610  94.5743320  53.2789730  49.6769870  93.2730080  56.0916560
  50.0699440  93.5902280  55.2785250  50.0386720  92.3941960  56.2061080
  47.9862040  92.0237390  67.3513420  47.2960360  91.8309590  67.9859510
  48.7294340  92.3072030  67.8837720  38.9004270  93.8051000  49.5249480
  38.8178940  94.7481760  49.6664470  38.5487330  93.6625910  48.6461830
  46.7002400  92.5390030  58.5919830  46.7038460  92.0979980  57.7424370
  47.5953520  92.8607360  58.6991650  46.7622550  93.5402110  51.5826590
  46.8835370  93.4988590  52.5312410  46.3771060  94.4026260  51.4273320
  50.7250920  91.3169510  59.5990280  50.7423660  91.7678160  60.4432130
  50.4766500  90.4175150  59.8123720  45.7744050  95.8503250  50.9809890
  45.2060950  95.4021500  50.3545800  46.4833050  96.2096030  50.4475040
  54.1521670  88.7301690  65.4376660  54.4767440  87.9991350  65.9634640
  54.1878180  88.4115330  64.5357650  43.3191530  99.8461440  53.2536300
  42.5453790  99.3059060  53.0935020  44.0486160  99.3268050  52.9154060
  54.0779510  98.8426800  59.0462690  54.7978630  99.3382090  58.6558800
  53.8761330  98.1644690  58.4016560  49.4598310  98.9135860  64.9331690
  49.3935620  97.9931530  64.6789280  48.8303450  99.0111300  65.6476330
  52.2537840  94.6084410  51.4854240  53.1417460  94.9201640  51.3105580
  52.2242930  93.7356660  51.0934820  48.2498430 100.7808100  52.1642410
  48.5914130 101.5250330  51.6685730  47.4211140 101.0939220  52.5267240
  44.0486590  96.9387430  66.6880360  43.7486730  97.0844610  65.7908180
  44.8197830  96.3792720  66.5953750  49.3915040 101.7356430  64.6835490
  49.4059580 100.8037390  64.4654400  48.6840140 101.8216190  65.3225260
  55.6026250  98.3763770  64.0304070  54.8774440  98.9692550  63.8333460
  56.1301710  98.3687310  63.2317440  55.5539360 102.7738510  53.6816230
  54.9115520 102.1194130  53.9559950  55.1670020 103.1793600  52.9056900
  51.1325840 100.1023940  57.5287920  51.4849660  99.5052070  56.8689290
  50.2488170  99.7768170  57.6996170  47.2189120 100.8621630  54.9358330
  47.9060250 101.4090840  55.3165920  46.4321540 101.4062360  54.9707940
  46.5216330  97.8667660  54.5483690  46.9779110  98.6772910  54.7743880
  46.1704540  97.5490800  55.3802180  48.8248940 103.3774000  61.7775990
  49.4691160 103.5833380  62.4549410  49.1878380 102.6162400  61.3246840
  50.0981020 101.3806350  60.4953440  50.7403250 100.6799510  60.6085610
  50.6230370 102.1604790  60.3150330  53.9436740 101.6654970  50.2192580
  53.7174320 100.9485410  50.8117220  53.5532940 101.4167410  49.3814330
  51.8718640 102.1801250  63.6989500  52.2074880 102.7667940  64.3767420
  50.9518980 102.0493960  63.9287290  39.7252770 105.6921830  50.9937040
  40.0850410 106.2911170  50.3394310  39.5845110 106.2381720  51.7672070
  39.4222040  89.9696430  64.4812910  38.7080560  90.1693350  65.0865520
  39.8417080  89.1936000  64.8527710  53.5252990  99.5826910  51.8806740
  53.2374690 100.0439600  52.6684620  54.3205160  99.1224680  52.1490960
  39.7094630 103.9576690  65.4679440  39.8185750 103.0171430  65.3274830
  39.0575190 104.2231440  64.8193170  47.7007220 102.2292580  66.8677560
  47.3804090 101.5101820  67.4123250  47.0265580 102.9047650  66.9413620
  45.7421390 103.0753030  51.8110710  45.7331490 103.8082720  51.1955220
  44.8219750 102.8284610  51.9037670  41.3428030  98.2967920  52.5557470
  40.7355980  99.0366820  52.5652770  41.8177380  98.3867280  51.7295670
  48.7280990 103.1381270  50.4735900  48.8292970 102.9345260  49.5437880
  47.8282730 102.8839550  50.6783680  46.2506880  93.6961630  54.4559800
  45.5423030  94.1647970  54.8973410  46.5351360  93.0383640  55.0904990
  50.2822310  90.4212290  55.8955590  50.1590090  90.4398420  54.9465100
  51.2306870  90.4691230  56.0153990  44.4541900  92.0046710  51.8310510
  45.3032430  92.4416860  51.7650700  44.0873170  92.3166970  52.6582570
  55.0829670  91.3326290  63.2980720  54.5803270  92.0731690  63.6374530
  55.8986330  91.7210290  62.9817510  43.3533320  98.2579070  50.3046040
  44.1196590  98.1460430  50.8671470  43.4308010  97.5617040  49.6522810
  42.0480080  95.6904140  50.9878930  42.1283670  94.7431650  51.0996330
  42.9399830  96.0211020  51.0939590  55.3777260 103.7468320  58.4196340
  55.5024680 104.5699490  58.8920150  56.2442820 103.5359050  58.0720490
  41.8553070 105.0245600  67.2799050  42.6565800 105.3457650  67.6934450
  41.3404890 104.6641180  68.0018960  45.9597100 105.0129840  49.9139040
  46.7525710 105.3018670  49.4620830  45.4401450 104.5822010  49.2351520
  50.6917700 101.1325470  67.2274460  50.0855860 101.1557070  66.4870210
  50.3871810 100.4008510  67.7641710  55.0127270 104.2399970  51.3375780
  54.7268780 103.8265110  50.5229960  54.8146820 105.1687680  51.2176300
  46.4774500 100.2333250  49.7781390  46.3725140  99.6185600  50.5042770
  46.3098720  99.7099140  48.9944400  46.6288820  98.9190050  65.7570620
  45.8634490  99.4875050  65.6725290  46.8104780  98.6266260  64.8638850
  49.7177230  99.2953280  50.3823380  49.1687330  99.7422580  51.0266120
  50.3396490  98.7902530  50.9061050  53.7712170 100.6495380  66.3145640
  54.5121640 100.9871140  65.8113100  53.0084850 100.8187440  65.7615410
  45.3852350  98.2544200  52.2788680  45.8068770  98.0884070  53.1220070
  45.5103190  97.4444430  51.7843820  47.8979990  97.2781810  49.5265780
  48.4185650  96.5630830  49.1606930  48.5448390  97.9167680  49.8266290
  52.4457830  98.7010210  64.8500850  52.8598850  98.8555290  65.6991270
  51.5108830  98.8265430  65.0126630  52.9180000  96.0406370  66.8540000
  53.5000770  95.2858690  66.7660480  53.0941770  96.5713810  66.0771480
  44.0352070  91.2003120  65.1656950  43.9408940  90.5823870  64.4407820
  43.4549460  91.9269410  64.9386860  51.8824860  96.9384060  62.7797130
  51.3560080  97.4626680  62.1762270  52.2256200  97.5711450  63.4106860
  45.0580480 104.9583700  63.9354510  44.5201570 105.6829760  63.6163210
  45.3114440 104.4814040  63.1451850  51.1299160  92.5434030  65.6943460
  50.4414680  91.8815570  65.6293450  51.8505180  92.0972300  66.1391920
  46.2978980  90.3712670  50.1980920  45.9500980  89.6936660  49.6183370
  46.4991750  89.9102180  51.0124310  48.4628020 105.3593420  51.8167520
  49.3578810 105.6978390  51.8386280  48.4945650 104.6372830  51.1891800
  42.1024180 100.7320470  50.0454520  42.5399050 101.2750140  50.7012100
  42.5871910  99.9067420  50.0550860  39.3169980 103.5209500  57.4974780
  39.6472990 102.6530560  57.2653420  39.7460980 103.7268020  58.3279740
  43.9131900 101.8518510  55.1576750  43.6127440 101.7283480  56.0580660
  43.8069390 100.9927100  54.7492480  39.8060190 104.3880090  60.2356410
  39.3691180 104.5680890  61.0680560  40.3737870 105.1454710  60.0938130
  55.4422370 103.8897090  64.5233720  54.8424360 103.9489650  63.7797640
  55.5716270 102.9502070  64.6530570  56.6823820 101.6314910  49.8603430
  55.8516780 101.6991560  50.3310660  56.8595650 102.5219030  49.5570290
  54.1274010 100.6149070  62.6209880  53.3133850 101.0446230  62.8835670
  54.5348210 101.2267480  62.0078930  55.4764410  95.7537270  64.1479100
  55.2450500  95.5250020  63.2477050  55.7368960  96.6736820  64.1023990
  53.9152480  90.9793700  66.9258800  54.7922660  90.9877100  67.3092800
  53.9273320  90.2424540  66.3151150  38.8522700  94.1099250  52.5370620
  37.9486780  94.3729450  52.3622280  39.3363320  94.3810420  51.7570580
  55.5405470  94.9163110  61.3366370  54.5908180  94.8826650  61.4511360
  55.7218480  95.8263220  61.1016140  41.3949910  93.1664790  50.4465000
  42.1041610  92.7448010  49.9612280  40.6789850  93.2340020  49.8148350
  41.0424070  89.2204120  49.4867650  41.7652200  89.7613060  49.8048870
  41.3148590  88.9467540  48.6109190  40.4848260  88.6265980  62.1315590
  40.1363080  89.0829800  62.8973770  40.1535960  87.7323110  62.2138020
  45.7918660 103.3545170  61.8978500  45.5510020 103.6219730  61.0109020
  46.7321300 103.5250900  61.9529360  50.6347640  89.4747920  65.2927300
  51.2488050  89.7927210  64.6308380  51.1797200  88.9896510  65.9123160
  41.1568900  88.1542180  65.4066360  41.7051890  87.9730230  64.6432470
  41.2224210  87.3636290  65.9422670  41.9300660 104.7447830  63.4166560
  41.3360980 104.6132530  64.1556600  41.9224500 103.9085970  62.9508660
  51.3755680  88.0380060  61.6196590  50.5015520  88.3715170  61.4169520
  51.2666430  87.5653240  62.4448460  52.2827660  90.2450930  63.0038310
  51.9541020  89.4302690  62.6240040  53.2309960  90.2020740  62.8804000
  41.5612890 102.1106210  62.3674600  40.8346950 101.4911500  62.3000550
  41.6222040 102.5046820  61.4972680  45.1657990 104.3251210  59.1524010
  45.6823010 103.7138570  58.6272270  45.8155370 104.8279990  59.6435020
  49.1230500  88.9549900  60.5589500  48.3402290  89.4295400  60.8386260
  48.8293430  88.0504730  60.4502680  47.0084720  91.3736650  56.0705530
  46.1959230  90.9993540  55.7301410  47.5126360  90.6181730  56.3726720
  51.5109700  88.0379100  57.3088600  52.1139070  88.6099310  57.7837120
  50.7702690  88.6018540  57.0862500  42.8396060  89.7861430  51.6205190
  43.3688820  88.9991230  51.4913140  43.4724380  90.4652620  51.8540720
  56.2070910 105.6801370  54.3435440  56.3823100 104.9939110  53.6996360
  55.5092480 106.2048420  53.9512110  45.1589460  88.8020550  67.1103070
  44.8773730  89.3054150  66.3463890  45.5409160  88.0042300  66.7445200
  44.0498560 106.0696210  51.8970750  44.7817380 105.7855490  51.3494640
  44.3092230 105.8309490  52.7870130  51.7604920  88.2174130  67.6883540
  51.6470370  88.5368740  68.5835060  52.5774660  88.6186640  67.3920820
  54.5403410 105.3645660  67.1702230  55.3328730 104.8694890  66.9628190
  54.8336560 106.0435800  67.7777840  50.6663070  96.2366600  38.0518280
  50.5857120  95.3221210  37.7809990  50.2527490  96.7333670  37.3457990
  48.7981110  98.0145620  39.9327550  48.0223210  97.5346060  40.2226120
  49.4494040  97.3351270  39.7583710  52.8188540 102.4205810  38.7126680
  52.3570070 101.6493050  39.0413850  53.6314090 102.4471880  39.2179130
  42.7948200 102.3605520  41.0061330  43.0976240 101.4703260  40.8271550
  43.5391790 102.9175740  40.7783580  49.0451850 104.7063820  38.3330670
  48.4263290 105.1621320  37.7625110  49.9003630 104.8615280  37.9320370
  48.2390100 100.6902810  39.9397710  48.1698380  99.7492750  39.7786840
  49.0009960 100.7804220  40.5120280  49.2695270  93.4973190  40.1666640
  49.6460090  92.6245070  40.0540310  49.1714780  93.8331890  39.2757080
  53.0519390  90.9923630  37.0994980  53.8729010  90.5020200  37.1420460
  53.0853470  91.5821290  37.8526820  45.2408010  94.8385190  39.9609260
  45.7486230  95.3366160  40.6014280  45.7721250  94.0620390  39.7848620
  44.7746960  99.1178930  42.4046180  44.4416340  99.7447850  43.0467250
  44.9513640  99.6440810  41.6247850  43.2059440  91.1893710  42.2343130
  43.5476250  92.0335760  41.9397000  42.2675250  91.3377450  42.3508470
  43.9866060 101.0859730  44.2195360  44.6040060 101.7610810  43.9379810
  43.1259180 101.4947710  44.1282860  54.9043650 102.5499140  42.1350000
  54.2207170 103.2198250  42.1266670  55.4437940 102.7479790  41.3694860
  46.8887330  88.6775980  38.5587720  47.1962310  88.1222870  37.8423220
  45.9588030  88.8120440  38.3760710  53.7347810 101.1159490  35.9385350
  53.6244140 100.1733820  36.0634770  53.7316060 101.4775130  36.8248110
  51.8387830  99.2973110  42.1777790  52.2556620  99.0833220  41.3431250
  52.5627650  99.5545900  42.7486410  49.2637170  93.0141810  32.2915000
  48.3240840  93.1755770  32.3767460  49.5820430  93.7327490  31.7450990
  53.3065380  98.3045110  35.7983090  52.6877800  97.9664660  35.1509390
  53.2889830  97.6604870  36.5062280  44.8824730  97.2689550  38.0767570
  44.4781730  96.5566800  37.5813470  44.9687850  96.9242790  38.9655610
  45.3506430 100.9557110  40.2406780  45.0534720 100.3502580  39.5614560
  46.3006250 100.9934420  40.1296140  43.5953350  94.0432760  41.8566610
  44.1467940  94.1528100  41.0819860  44.1096860  94.4170360  42.5721840
  53.4392040 104.5288980  43.9029880  52.9622600 105.3361170  43.7102490
  52.7553830 103.8767310  44.0556090  44.4424860 100.6938800  46.8914580
  43.5453390 100.9178770  47.1387980  44.4677730 100.8173740  45.9425980
  45.0676430 103.5073820  47.6757100  45.0391860 103.9116770  46.8085530
  44.9041400 102.5784180  47.5128700  57.0191250 104.2900920  48.9721270
  57.4950970 104.7683810  49.6510350  57.6398410 104.2218410  48.2466770
  50.2841240 105.1841770  44.7016090  50.7985910 105.0949780  45.5038520
  49.4410320 105.5301470  44.9944000  52.2595640 105.4697110  34.1300090
  52.0996780 105.1800050  35.0281920  52.0942350 104.6937240  33.5945320
  51.5271700 104.6047380  36.7646580  51.9828650 103.8236760  37.0785200
  51.8664220 105.3154200  37.3087760  44.0493020  89.5069600  38.9597890
  43.6061170  90.2879140  38.6282410  44.6078010  89.8299490  39.6668830
  47.1651840  89.1280300  33.8403720  46.5406020  89.1240170  34.5657030
  47.0781960  88.2611260  33.4439690  46.0868920  90.0516930  40.8187490
  46.3841250  90.9579760  40.7379510  46.6354480  89.5635710  40.2047060
  51.0705000  94.6366540  35.2869790  50.4713890  95.3602340  35.1033410
  51.6184610  94.5743320  34.5046240  46.2806450  95.5288750  47.3539410
  46.1850050  94.5883480  47.2039810  47.1238430  95.7503820  46.9587480
  49.6769870  93.2730080  37.3173070  50.0699440  93.5902280  36.5041760
  50.0386720  92.3941960  37.4317590  41.4116990  91.9402420  45.5073190
  41.0180380  92.7877630  45.7145970  40.7235390  91.3028790  45.6981830
  38.9004270  93.8051000  30.7505990  38.8178940  94.7481760  30.8920980
  38.5487330  93.6625910  29.8718340  46.7002400  92.5390030  39.8176340
  46.7038460  92.0979980  38.9680880  47.5953520  92.8607360  39.9248160
  42.5504780  92.4216520  38.7770550  42.2104830  92.8991750  39.5337600
  41.7882100  91.9681640  38.4171650  46.7622550  93.5402110  32.8083100
  46.8835370  93.4988590  33.7568920  46.3771060  94.4026260  32.6529830
  50.7250920  91.3169510  40.8246790  50.7423660  91.7678160  41.6688640
  50.4766500  90.4175150  41.0380230  40.8513230  99.7515270  46.0833130
  40.4668020  99.1108940  46.6816090  41.1625420 100.4551390  46.6527860
  47.0010370  96.5991810  41.5641750  47.3680500  96.1250380  42.3103090
  46.8115430  97.4733380  41.9050090  44.7909740  95.6400450  43.8825960
  44.4866810  96.5192430  44.1076320  45.7456200  95.7000240  43.9183400
  54.0779510  98.8426800  40.2719200  54.7978630  99.3382090  39.8815310
  53.8761330  98.1644690  39.6273070  49.5389450  90.2364760  34.4148590
  48.7254060  89.7377930  34.3393900  49.3451400  91.0763010  33.9984940
  49.4598310  98.9135860  46.1588200  49.3935620  97.9931530  45.9045790
  48.8303450  99.0111300  46.8732840  52.2537840  94.6084410  32.7110750
  53.1417460  94.9201640  32.5362090  52.2242930  93.7356660  32.3191330
  43.3628930  99.5141820  38.1171620  43.8807600  98.7110080  38.0628510
  42.9112950  99.4520960  38.9588450  44.0486590  96.9387430  47.9136870
  43.7486730  97.0844610  47.0164690  44.8197830  96.3792720  47.8210260
  49.3915040 101.7356430  45.9092000  49.4059580 100.8037390  45.6910910
  48.6840140 101.8216190  46.5481770  54.5252110  95.9196250  32.1790610
  54.4415830  96.3510470  31.3287050  55.2446300  96.3794600  32.6117430
  51.1325840 100.1023940  38.7544430  51.4849660  99.5052070  38.0945800
  50.2488170  99.7768170  38.9252680  48.8248940 103.3774000  43.0032500
  49.4691160 103.5833380  43.6805920  49.1878380 102.6162400  42.5503350
  42.4228110  88.2105310  36.2462720  42.2942740  88.2023210  37.1947640
  41.5990130  88.5488400  35.8953730  50.0981020 101.3806350  41.7209950
  50.7403250 100.6799510  41.8342120  50.6230370 102.1604790  41.5406840
  53.9436740 101.6654970  31.4449090  53.7174320 100.9485410  32.0373730
  53.5532940 101.4167410  30.6070840  51.8718640 102.1801250  44.9246010
  52.2074880 102.7667940  45.6023930  50.9518980 102.0493960  45.1543800
  39.7252770 105.6921830  32.2193550  40.0850410 106.2911170  31.5650820
  39.5845110 106.2381720  32.9928580  39.4222040  89.9696430  45.7069420
  38.7080560  90.1693350  46.3122030  39.8417080  89.1936000  46.0784220
  53.5252990  99.5826910  33.1063250  53.2374690 100.0439600  33.8941130
  54.3205160  99.1224680  33.3747470  39.7094630 103.9576690  46.6935950
  39.8185750 103.0171430  46.5531340  39.0575190 104.2231440  46.0449680
  47.7007220 102.2292580  48.0934070  47.3804090 101.5101820  48.6379760
  47.0265580 102.9047650  48.1670130  54.2822850  91.4175680  34.2658430
  53.6536010  91.5221350  33.5516660  53.7874770  91.6372460  35.0552310
  46.2506880  93.6961630  35.6816310  45.5423030  94.1647970  36.1229920
  46.5351360  93.0383640  36.3161500  47.8762810  95.1158330  43.6808840
  48.3748060  95.5904150  44.3460690  48.0185760  94.1921850  43.8878870
  50.2822310  90.4212290  37.1212100  50.1590090  90.4398420  36.1721610
  51.2306870  90.4691230  37.2410500  44.4541900  92.0046710  33.0567020
  45.3032430  92.4416860  32.9907210  44.0873170  92.3166970  33.8839080
  53.3751680  96.5759470  37.9698590  52.4341820  96.5909700  38.1446280
  53.6895750  95.7895430  38.4158890  43.3533320  98.2579070  31.5302550
  44.1196590  98.1460430  32.0927980  43.4308010  97.5617040  30.8779320
  55.3777260 103.7468320  39.6452850  55.5024680 104.5699490  40.1176660
  56.2442820 103.5359050  39.2977000  42.8494790 105.8399530  39.3169980
  43.5857270 105.2914990  39.5878550  43.2335710 106.7055540  39.1775970
  41.8553070 105.0245600  48.5055560  42.6565800 105.3457650  48.9190960
  41.3404890 104.6641180  49.2275470  50.6917700 101.1325470  48.4530970
  50.0855860 101.1557070  47.7126720  50.3871810 100.4008510  48.9898220
  52.1218070 104.8605760  47.0640380  53.0739820 104.7763780  47.0140620
  51.9746290 105.5247470  47.7374170  55.0127270 104.2399970  32.5632290
  54.7268780 103.8265110  31.7486470  54.8146820 105.1687680  32.4432810
  46.6288820  98.9190050  46.9827130  45.8634490  99.4875050  46.8981800
  46.8104780  98.6266260  46.0895360  41.6073960  95.6548650  48.3441680
  41.6479300  95.3562520  49.2526910  42.4619460  96.0556260  48.1849200
  47.2073060  98.6530690  44.0453290  47.6261170  99.4963420  43.8729530
  46.2881690  98.7902730  43.8160070  44.2811250  94.3277430  30.4503350
  44.0800310  93.4644790  30.8116690  44.1103300  94.2410790  29.5124950
  51.7599560  89.1385660  32.9790230  52.0401850  88.2953560  33.3349650
  50.9865290  89.3708770  33.4928980  43.0794050  91.4278050  30.4381230
  43.3819950  91.4345480  29.5300380  43.8188640  91.0775910  30.9348890
  47.9142690 106.1934910  45.4197670  47.8401390 107.0970050  45.7270040
  47.0121530 105.8746810  45.3919740  46.2978980  90.3712670  31.4237430
  45.9500980  89.6936660  30.8439880  46.4991750  89.9102180  32.2380820
  42.1024180 100.7320470  31.2711030  42.5399050 101.2750140  31.9268610
  42.5871910  99.9067420  31.2807370  55.4422370 103.8897090  45.7490230
  54.8424360 103.9489650  45.0054150  55.5716270 102.9502070  45.8787080
  56.6823820 101.6314910  31.0859940  55.8516780 101.6991560  31.5567170
  56.8595650 102.5219030  30.7826800  56.1380280  98.3762390  33.5894140
  56.8999190  98.9459040  33.6953830  56.1534650  97.8089590  34.3602450
  54.1274010 100.6149070  43.8466390  53.3133850 101.0446230  44.1092180
  54.5348210 101.2267480  43.2335440  52.5875060  91.6941610  32.0420290
  53.0059940  91.5072590  31.2016950  52.2811120  90.8420660  32.3523220
  56.0864790  96.6065750  35.7396090  55.7108390  95.8393680  35.3077380
  55.3567910  96.9888450  36.2271020  41.3949910  93.1664790  31.6721510
  42.1041610  92.7448010  31.1868790  40.6789850  93.2340020  31.0404860
  41.0424070  89.2204120  30.7124160  41.7652200  89.7613060  31.0305380
  41.3148590  88.9467540  29.8365700  54.8515720  94.0896590  34.9795740
  55.3474840  93.8567460  35.7644620  54.6531790  93.2508430  34.5633380
  56.2802880  92.7257540  37.5133420  56.1702160  92.5713580  38.4515690
  57.0410470  92.1978480  37.2708830  57.2431640  91.3276120  33.3796270
  56.4483140  91.2621240  33.9089180  57.4474920  92.2626760  33.3681620
  54.1850060 105.3667670  37.3734660  54.7809130 105.0452240  36.6969080
  54.4428210 104.8939490  38.1647930  40.4848260  88.6265980  43.3572100
  40.1363080  89.0829800  44.1230280  40.1535960  87.7323110  43.4394530
  42.0912630 101.7985580  47.5225290  42.0482260 101.4278490  48.4039750
  42.2223640 102.7363150  47.6627110  45.7918660 103.3545170  43.1235010
  45.5510020 103.6219730  42.2365530  46.7321300 103.5250900  43.1785870
  47.9973080  89.8177860  46.8791520  47.9361970  90.4099690  47.6286930
  48.9373460  89.7103820  46.7341780  57.0522820 105.3739550  43.9245650
  56.5581100 105.7708420  43.2072780  56.4436110 104.7488760  44.3182930
  41.1568900  88.1542180  46.6322870  41.7051890  87.9730230  45.8688980
  41.2224210  87.3636290  47.1679180  54.7362270 106.0162970  41.2032390
  54.2765240 106.7678780  40.8290410  54.1074730 105.2969440  41.1447190
  41.5612890 102.1106210  43.5931110  40.8346950 101.4911500  43.5257060
  41.6222040 102.5046820  42.7229190  45.1657990 104.3251210  40.3780520
  45.6823010 103.7138570  39.8528780  45.8155370 104.8279990  40.8691530
  47.9053490 105.2159700  41.2049500  48.1931300 104.9614000  40.3282510
  48.4176710 104.6637060  41.7955070  49.1230500  88.9549900  41.7846010
  48.3402290  89.4295400  42.0642770  48.8293430  88.0504730  41.6759190
  53.6751570  89.6573000  39.8295100  54.1159660  89.6018100  38.9816700
  53.4059160  90.5731010  39.9005280  55.5390140  89.2888240  37.8403920
  55.4778540  88.3449460  37.6934940  56.3182170  89.3968330  38.3857380
  40.4670910  89.2597380  34.3059730  41.2250270  89.3726260  33.7323760
  40.0048080  90.0966580  34.2603160  47.0084720  91.3736650  37.2962040
  46.1959230  90.9993540  36.9557920  47.5126360  90.6181730  37.5983230
  51.5109700  88.0379100  38.5345110  52.1139070  88.6099310  39.0093630
  50.7702690  88.6018540  38.3119010  42.8396060  89.7861430  32.8461700
  43.3688820  88.9991230  32.7169650  43.4724380  90.4652620  33.0797230
  45.0333900  89.5236570  35.9007090  44.4036640  88.8223880  36.0677220
  44.4939040  90.2840700  35.6840250  47.9725850 106.1375800  48.5717700
  48.8993160 105.9020070  48.6153660  47.9576280 106.9647800  48.0903730
  56.2070910 105.6801370  35.5691950  56.3823100 104.9939110  34.9252870
  55.5092480 106.2048420  35.1768620  45.1589460  88.8020550  48.3359580
  44.8773730  89.3054150  47.5720400  45.5409160  88.0042300  47.9701710
  54.5403410 105.3645660  48.3958740  55.3328730 104.8694890  48.1884700
  54.8336560 106.0435800  49.0034350  50.6663070  96.2366600  19.2774790
  50.5857120  95.3221210  19.0066500  50.2527490  96.7333670  18.5714500
  42.8146940  98.3265430  22.0359820  41.9831820  98.0714140  22.4356330
  43.4227920  98.3976200  22.7717740  52.8188540 102.4205810  19.9383190
  52.3570070 101.6493050  20.2670360  53.6314090 102.4471880  20.4435640
  42.7948200 102.3605520  22.2317840  43.0976240 101.4703260  22.0528060
  43.5391790 102.9175740  22.0040090  41.2238890  93.2867320  15.8202210
  40.3355590  93.6283290  15.7182090  41.5080080  93.0867640  14.9283040
  39.1871900  95.8872970  21.7041910  39.7588010  95.1195170  21.7045550
  39.1873440  96.1861730  20.7948520  49.0451850 104.7063820  19.5587180
  48.4263290 105.1621320  18.9881620  49.9003630 104.8615280  19.1576880
  48.2390100 100.6902810  21.1654220  48.1698380  99.7492750  21.0043350
  49.0009960 100.7804220  21.7376790  40.4296770  91.2957330  23.4910840
  40.2499610  90.3983080  23.7713600  40.0276850  91.8429200  24.1657790
  43.4000280  91.8698820  16.8540590  43.5067030  92.7702550  17.1609350
  42.4892640  91.8216790  16.5635240  41.0483440  93.7917830  22.0993180
  41.7293550  94.0556200  22.7180580  40.7331490  92.9518700  22.4331190
  45.2408010  94.8385190  21.1865770  45.7486230  95.3366160  21.8270790
  45.7721250  94.0620390  21.0105130  43.5244110  89.4783750  25.4529190
  43.5262550  89.9956140  24.6475090  42.6948420  89.0013930  25.4299120
  49.9115200  99.5903060  16.9519090  49.2932470 100.0552510  16.3881810
  50.4238450 100.2830540  17.3688600  44.7746960  99.1178930  23.6302690
  44.4416340  99.7447850  24.2723760  44.9513640  99.6440810  22.8504360
  43.2059440  91.1893710  23.4599640  43.5476250  92.0335760  23.1653510
  42.2675250  91.3377450  23.5764980  43.9866060 101.0859730  25.4451870
  44.6040060 101.7610810  25.1636320  43.1259180 101.4947710  25.3539370
  39.2798400 100.2759590  14.3258720  38.9026380 100.7646690  13.5943620
  39.5371470 100.9484870  14.9565250  54.9043650 102.5499140  23.3606510
  54.2207170 103.2198250  23.3523180  55.4437940 102.7479790  22.5951370
  52.4402390 104.3943270  22.0751690  52.4529550 103.9905560  21.2073950
  51.8877610 105.1690560  21.9713120  53.7347810 101.1159490  17.1641860
  53.6244140 100.1733820  17.2891280  53.7316060 101.4775130  18.0504620
  49.2768090  96.7424810  16.5204350  48.3497370  96.6762190  16.7492820
  49.4292910  97.6804940  16.4059590  49.2637170  93.0141810  13.5171510
  48.3240840  93.1755770  13.6023970  49.5820430  93.7327490  12.9707500
  53.3065380  98.3045110  17.0239600  52.6877800  97.9664660  16.3765900
  53.2889830  97.6604870  17.7318790  44.8824730  97.2689550  19.3024080
  44.4781730  96.5566800  18.8069980  44.9687850  96.9242790  20.1912120
  45.3506430 100.9557110  21.4663290  45.0534720 100.3502580  20.7871070
  46.3006250 100.9934420  21.3552650  43.5953350  94.0432760  23.0823120
  44.1467940  94.1528100  22.3076370  44.1096860  94.4170360  23.7978350
  53.4392040 104.5288980  25.1286390  52.9622600 105.3361170  24.9359000
  52.7553830 103.8767310  25.2812600  44.4424860 100.6938800  28.1171090
  43.5453390 100.9178770  28.3644490  44.4677730 100.8173740  27.1682490
  51.4830080  97.5431920  14.0312350  51.9223360  96.7054350  13.8850170
  52.1958500  98.1761320  14.1176490  43.2696080  97.5652120  26.6928460
  43.1303850  98.4374920  27.0615860  42.3877440  97.2224930  26.5476400
  49.5925460 102.4827990  17.9993590  50.0321370 103.2252320  17.5848980
  49.5312350 102.7254560  18.9232550  45.0676430 103.5073820  28.9013610
  45.0391860 103.9116770  28.0342040  44.9041400 102.5784180  28.7385210
  55.0647220  88.7974730  12.3453390  54.7519880  88.8901560  13.2452460
  55.8259690  89.3755760  12.2950820  41.5829360  96.1634530  16.8030730
  41.4626960  96.8896620  16.1912000  41.2730250  95.3937440  16.3258640
  57.0191250 104.2900920  30.1977780  57.4950970 104.7683810  30.8766860
  57.6398410 104.2218410  29.4723280  39.2214730  99.3349670  22.6099370
  39.2995150  99.4698440  21.6655090  39.8356410  98.6265560  22.8027490
  40.4662360 101.0349860  19.0205550  40.0590440 101.1764450  18.1659150
  41.3575370 100.7510020  18.8176760  56.4224500 101.4813770  27.3577790
  56.5487560 101.2425650  26.4394970  56.4645880 100.6498310  27.8299870
  50.2841240 105.1841770  25.9272600  50.7985910 105.0949780  26.7295030
  49.4410320 105.5301470  26.2200510  52.2595640 105.4697110  15.3556600
  52.0996780 105.1800050  16.2538430  52.0942350 104.6937240  14.8201830
  44.7384020 105.2495640  17.1328220  44.5626500 104.3331180  16.9196020
  43.8839760 105.6082930  17.3726020  51.9621770 102.9784670  13.9154600
  51.2686930 102.9761960  13.2556880  52.7044630 102.5543990  13.4848770
  51.5271700 104.6047380  17.9903090  51.9828650 103.8236760  18.3041710
  51.8664220 105.3154200  18.5344270  56.2748510  93.5346230  28.3227530
  55.6592780  94.0425900  27.7942990  55.9544930  92.6344560  28.2653470
  39.2774250 100.3763840  25.1493830  39.4405290  99.9069200  24.3313200
  39.7426700  99.8687400  25.8142670  44.0493020  89.5069600  20.1854400
  43.6061170  90.2879140  19.8538920  44.6078010  89.8299490  20.8925340
  50.4317050  95.0948820  29.0185170  50.7570460  94.2612570  28.6787400
  51.2197380  95.6177340  29.1663500  47.1651840  89.1280300  15.0660230
  46.5406020  89.1240170  15.7913540  47.0781960  88.2611260  14.6696200
  43.8407240  94.6303170  17.9135650  43.6148160  94.4140340  18.8182270
  43.0599770  95.0631630  17.5681620  51.0705000  94.6366540  16.5126300
  50.4713890  95.3602340  16.3289920  51.6184610  94.5743320  15.7302750
  46.2806450  95.5288750  28.5795920  46.1850050  94.5883480  28.4296320
  47.1238430  95.7503820  28.1843990  49.6769870  93.2730080  18.5429580
  50.0699440  93.5902280  17.7298270  50.0386720  92.3941960  18.6574100
  41.4116990  91.9402420  26.7329700  41.0180380  92.7877630  26.9402480
  40.7235390  91.3028790  26.9238340  47.9862040  92.0237390  29.8026440
  47.2960360  91.8309590  30.4372530  48.7294340  92.3072030  30.3350740
  38.7134040  89.8630880  20.7659780  38.4247090  90.4333740  21.4784760
  39.4579800  89.3835330  21.1291010  38.9004270  93.8051000  11.9762500
  38.8178940  94.7481760  12.1177490  38.5487330  93.6625910  11.0974850
  42.5504780  92.4216520  20.0027060  42.2104830  92.8991750  20.7594110
  41.7882100  91.9681640  19.6428160  46.7622550  93.5402110  14.0339610
  46.8835370  93.4988590  14.9825430  46.3771060  94.4026260  13.8786340
  45.7744050  95.8503250  13.4322910  45.2060950  95.4021500  12.8058820
  46.4833050  96.2096030  12.8988060  40.8513230  99.7515270  27.3089640
  40.4668020  99.1108940  27.9072600  41.1625420 100.4551390  27.8784370
  39.8650860  91.3435500  18.9191730  39.5797780  90.9791170  19.7570350
  39.8029720  90.6115960  18.3054870  44.7909740  95.6400450  25.1082470
  44.4866810  96.5192430  25.3332830  45.7456200  95.7000240  25.1439910
  43.3191530  99.8461440  15.7049320  42.5453790  99.3059060  15.5448040
  44.0486160  99.3268050  15.3667080  54.0779510  98.8426800  21.4975710
  54.7978630  99.3382090  21.1071820  53.8761330  98.1644690  20.8529580
  49.5389450  90.2364760  15.6405100  48.7254060  89.7377930  15.5650410
  49.3451400  91.0763010  15.2241450  52.2537840  94.6084410  13.9367260
  53.1417460  94.9201640  13.7618600  52.2242930  93.7356660  13.5447840
  43.3628930  99.5141820  19.3428130  43.8807600  98.7110080  19.2885020
  42.9112950  99.4520960  20.1844960  48.2498430 100.7808100  14.6155430
  48.5914130 101.5250330  14.1198750  47.4211140 101.0939220  14.9780260
  40.8473470  96.4803190  26.2553830  40.4888410  97.1457040  26.8427170
  40.5528030  95.6486740  26.6266450  44.0486590  96.9387430  29.1393380
  43.7486730  97.0844610  28.2421200  44.8197830  96.3792720  29.0466770
  49.3915040 101.7356430  27.1348510  49.4059580 100.8037390  26.9167420
  48.6840140 101.8216190  27.7738280  54.5252110  95.9196250  13.4047120
  54.4415830  96.3510470  12.5543560  55.2446300  96.3794600  13.8373940
  55.5539360 102.7738510  16.1329250  54.9115520 102.1194130  16.4072970
  55.1670020 103.1793600  15.3569920  51.1325840 100.1023940  19.9800940
  51.4849660  99.5052070  19.3202310  50.2488170  99.7768170  20.1509190
  47.2189120 100.8621630  17.3871350  47.9060250 101.4090840  17.7678940
  46.4321540 101.4062360  17.4220960  39.3581520  96.4794450  12.8788430
  40.2276370  96.7619250  13.1624350  38.8671840  97.2930320  12.7637240
  46.5216330  97.8667660  16.9996710  46.9779110  98.6772910  17.2256900
  46.1704540  97.5490800  17.8315200  48.8248940 103.3774000  24.2289010
  49.4691160 103.5833380  24.9062430  49.1878380 102.6162400  23.7759860
  42.4228110  88.2105310  17.4719230  42.2942740  88.2023210  18.4204150
  41.5990130  88.5488400  17.1210240  53.9436740 101.6654970  12.6705600
  53.7174320 100.9485410  13.2630240  53.5532940 101.4167410  11.8327350
  51.8718640 102.1801250  26.1502520  52.2074880 102.7667940  26.8280440
  50.9518980 102.0493960  26.3800310  39.7252770 105.6921830  13.4450060
  40.0850410 106.2911170  12.7907330  39.5845110 106.2381720  14.2185090
  39.4222040  89.9696430  26.9325930  38.7080560  90.1693350  27.5378540
  39.8417080  89.1936000  27.3040730  53.5252990  99.5826910  14.3319760
  53.2374690 100.0439600  15.1197640  54.3205160  99.1224680  14.6003980
  39.7094630 103.9576690  27.9192460  39.8185750 103.0171430  27.7787850
  39.0575190 104.2231440  27.2706190  47.7007220 102.2292580  29.3190580
  47.3804090 101.5101820  29.8636270  47.0265580 102.9047650  29.3926640
  45.7421390 103.0753030  14.2623730  45.7331490 103.8082720  13.6468240
  44.8219750 102.8284610  14.3550690  41.3428030  98.2967920  15.0070490
  40.7355980  99.0366820  15.0165790  41.8177380  98.3867280  14.1808690
  54.2822850  91.4175680  15.4914940  53.6536010  91.5221350  14.7773170
  53.7874770  91.6372460  16.2808820  48.7280990 103.1381270  12.9248920
  48.8292970 102.9345260  11.9950900  47.8282730 102.8839550  13.1296700
  46.2506880  93.6961630  16.9072820  45.5423030  94.1647970  17.3486430
  46.5351360  93.0383640  17.5418010  50.2822310  90.4212290  18.3468610
  50.1590090  90.4398420  17.3978120  51.2306870  90.4691230  18.4667010
  47.3699100 105.6567590  17.6196590  47.6240600 105.6188980  16.6975960
  46.4211580 105.5300920  17.6124840  44.4541900  92.0046710  14.2823530
  45.3032430  92.4416860  14.2163720  44.0873170  92.3166970  15.1095590
  53.3751680  96.5759470  19.1955100  52.4341820  96.5909700  19.3702790
  53.6895750  95.7895430  19.6415400  43.3533320  98.2579070  12.7559060
  44.1196590  98.1460430  13.3184490  43.4308010  97.5617040  12.1035830
  42.0480080  95.6904140  13.4391950  42.1283670  94.7431650  13.5509350
  42.9399830  96.0211020  13.5452610  55.3777260 103.7468320  20.8709360
  55.5024680 104.5699490  21.3433170  56.2442820 103.5359050  20.5233510
  42.8494790 105.8399530  20.5426490  43.5857270 105.2914990  20.8135060
  43.2335710 106.7055540  20.4032480  39.7340270 101.9073100  16.4168000
  38.8080050 102.1494240  16.4073410  40.1996700 102.7347360  16.2952750
  41.8553070 105.0245600  29.7312070  42.6565800 105.3457650  30.1447470
  41.3404890 104.6641180  30.4531980  45.9597100 105.0129840  12.3652060
  46.7525710 105.3018670  11.9133850  45.4401450 104.5822010  11.6864540
  50.6917700 101.1325470  29.6787480  50.0855860 101.1557070  28.9383230
  50.3871810 100.4008510  30.2154730  52.1218070 104.8605760  28.2896890
  53.0739820 104.7763780  28.2397130  51.9746290 105.5247470  28.9630680
  55.0127270 104.2399970  13.7888800  54.7268780 103.8265110  12.9742980
  54.8146820 105.1687680  13.6689320  39.5750880  97.5119060  28.6748120
  40.0789900  96.9326340  29.2464350  38.8358300  97.7959290  29.2124490
  46.4774500 100.2333250  12.2294410  46.3725140  99.6185600  12.9555790
  46.3098720  99.7099140  11.4457420  46.6288820  98.9190050  28.2083640
  45.8634490  99.4875050  28.1238310  46.8104780  98.6266260  27.3151870
  49.7177230  99.2953280  12.8336400  49.1687330  99.7422580  13.4779140
  50.3396490  98.7902530  13.3574070  53.7712170 100.6495380  28.7658660
  54.5121640 100.9871140  28.2626120  53.0084850 100.8187440  28.2128430
  41.6073960  95.6548650  29.5698190  41.6479300  95.3562520  30.4783420
  42.4619460  96.0556260  29.4105710  45.3852350  98.2544200  14.7301700
  45.8068770  98.0884070  15.5733090  45.5103190  97.4444430  14.2356840
  43.5479770  94.2340750  27.5372680  43.0176230  93.7431700  26.9096020
  44.2167840  94.6624950  27.0030610  47.8979990  97.2781810  11.9778800
  48.4185650  96.5630830  11.6119950  48.5448390  97.9167680  12.2779310
  52.9180000  96.0406370  29.3053020  53.5000770  95.2858690  29.2173500
  53.0941770  96.5713810  28.5284500  44.0352070  91.2003120  27.6169970
  43.9408940  90.5823870  26.8920840  43.4549460  91.9269410  27.3899880
  46.8013510  89.7576360  24.6497360  46.3530810  89.7800620  23.8042910
  46.1678710  89.3595380  25.2467660  44.2811250  94.3277430  11.6759860
  44.0800310  93.4644790  12.0373200  44.1103300  94.2410790  10.7381460
  45.0580480 104.9583700  26.3867530  44.5201570 105.6829760  26.0676230
  45.3114440 104.4814040  25.5964870  46.3105730  92.9268220  27.9123460
  46.9005420  92.6184070  28.6001280  45.4925970  92.4547970  28.0683360
  51.7599560  89.1385660  14.2046740  52.0401850  88.2953560  14.5606160
  50.9865290  89.3708770  14.7185490  43.0794050  91.4278050  11.6637740
  43.3819950  91.4345480  10.7556890  43.8188640  91.0775910  12.1605400
  47.9142690 106.1934910  26.6454180  47.8401390 107.0970050  26.9526550
  47.0121530 105.8746810  26.6176250  46.2978980  90.3712670  12.6493940
  45.9500980  89.6936660  12.0696390  46.4991750  89.9102180  13.4637330
  48.4628020 105.3593420  14.2680540  49.3578810 105.6978390  14.2899300
  48.4945650 104.6372830  13.6404820  42.1024180 100.7320470  12.4967540
  42.5399050 101.2750140  13.1525120  42.5871910  99.9067420  12.5063880
  39.3169980 103.5209500  19.9487800  39.6472990 102.6530560  19.7166440
  39.7460980 103.7268020  20.7792760  43.9131900 101.8518510  17.6089770
  43.6127440 101.7283480  18.5093680  43.8069390 100.9927100  17.2005500
  39.8060190 104.3880090  22.6869430  39.3691180 104.5680890  23.5193580
  40.3737870 105.1454710  22.5451150  55.4422370 103.8897090  26.9746740
  54.8424360 103.9489650  26.2310660  55.5716270 102.9502070  27.1043590
  56.6823820 101.6314910  12.3116450  55.8516780 101.6991560  12.7823680
  56.8595650 102.5219030  12.0083310  56.1380280  98.3762390  14.8150650
  56.8999190  98.9459040  14.9210340  56.1534650  97.8089590  15.5858960
  39.6384620  96.9000320  19.0458310  38.9833460  96.6311960  18.4018010
  40.4762570  96.7904800  18.5960290  57.1440250  99.2312490  19.6592580
  57.5149080  98.4479810  19.2528550  57.7842180  99.9201590  19.4809880
  54.1274010 100.6149070  25.0722900  53.3133850 101.0446230  25.3348690
  54.5348210 101.2267480  24.4591950  56.1899450  98.6696760  11.9723170
  56.4648290  99.5775640  11.8442390  56.0010190  98.6059290  12.9085160
  52.5875060  91.6941610  13.2676800  53.0059940  91.5072590  12.4273460
  52.2811120  90.8420660  13.5779730  56.0864790  96.6065750  16.9652600
  55.7108390  95.8393680  16.5333890  55.3567910  96.9888450  17.4527530
  40.6760550  97.2852890  23.5861650  41.0433590  97.1980290  24.4657670
  40.1071370  96.5219440  23.4868510  40.2276550  94.1961980  27.4920070
  39.3332600  94.1628740  27.8313780  40.7674100  94.3948770  28.2571320
  38.8522700  94.1099250  14.9883640  37.9486780  94.3729450  14.8135300
  39.3363320  94.3810420  14.2083600  41.3949910  93.1664790  12.8978020
  42.1041610  92.7448010  12.4125300  40.6789850  93.2340020  12.2661370
  41.0424070  89.2204120  11.9380670  41.7652200  89.7613060  12.2561890
  41.3148590  88.9467540  11.0622210  54.8515720  94.0896590  16.2052250
  55.3474840  93.8567460  16.9901130  54.6531790  93.2508430  15.7889890
  40.7316260  88.4710310  21.8403290  41.3792450  87.9207690  21.3998450
  41.1518100  88.7253460  22.6619100  57.1693150  90.5565460  11.9796070
  58.0942460  90.4246640  11.7714360  57.1468940  90.6358280  12.9332520
  57.2431640  91.3276120  14.6052780  56.4483140  91.2621240  15.1345690
  57.4474920  92.2626760  14.5938130  54.1850060 105.3667670  18.5991170
  54.7809130 105.0452240  17.9225590  54.4428210 104.8939490  19.3904440
  40.4848260  88.6265980  24.5828610  40.1363080  89.0829800  25.3486790
  40.1535960  87.7323110  24.6651040  42.0912630 101.7985580  28.7481800
  42.0482260 101.4278490  29.6296260  42.2223640 102.7363150  28.8883620
  45.7918660 103.3545170  24.3491520  45.5510020 103.6219730  23.4622040
  46.7321300 103.5250900  24.4042380  47.9973080  89.8177860  28.1048030
  47.9361970  90.4099690  28.8543440  48.9373460  89.7103820  27.9598290
  57.0522820 105.3739550  25.1502160  56.5581100 105.7708420  24.4329290
  56.4436110 104.7488760  25.5439440  41.1568900  88.1542180  27.8579380
  41.7051890  87.9730230  27.0945490  41.2224210  87.3636290  28.3935690
  41.9300660 104.7447830  25.8679580  41.3360980 104.6132530  26.6069620
  41.9224500 103.9085970  25.4021680  54.7362270 106.0162970  22.4288900
  54.2765240 106.7678780  22.0546920  54.1074730 105.2969440  22.3703700
  41.5612890 102.1106210  24.8187620  40.8346950 101.4911500  24.7513570
  41.6222040 102.5046820  23.9485700  45.1657990 104.3251210  21.6037030
  45.6823010 103.7138570  21.0785290  45.8155370 104.8279990  22.0948040
  47.9053490 105.2159700  22.4306010  48.1931300 104.9614000  21.5539020
  48.4176710 104.6637060  23.0211580  49.1230500  88.9549900  23.0102520
  48.3402290  89.4295400  23.2899280  48.8293430  88.0504730  22.9015700
  39.8442890 105.4280600  18.0284380  39.6764930 104.7951280  18.7266270
  38.9777400 105.6340000  17.6778570  40.4670910  89.2597380  15.5316240
  41.2250270  89.3726260  14.9580270  40.0048080  90.0966580  15.4859670
  51.5109700  88.0379100  19.7601620  52.1139070  88.6099310  20.2350140
  50.7702690  88.6018540  19.5375520  54.6544300  88.4400660  15.0341900
  54.8494930  89.3384110  15.3009330  53.8674170  88.2087740  15.5274850
  41.4505590 104.1213830  15.4734520  40.9253210 104.5021860  14.7696480
  41.3750170 104.7464600  16.1944230  42.8396060  89.7861430  14.0718210
  43.3688820  88.9991230  13.9426160  43.4724380  90.4652620  14.3053740
  45.0333900  89.5236570  17.1263600  44.4036640  88.8223880  17.2933730
  44.4939040  90.2840700  16.9096760  56.2070910 105.6801370  16.7948460
  56.3823100 104.9939110  16.1509380  55.5092480 106.2048420  16.4025130
  45.1589460  88.8020550  29.5616090  44.8773730  89.3054150  28.7976910
  45.5409160  88.0042300  29.1958220  44.0498560 106.0696210  14.3483770
  44.7817380 105.7855490  13.8007660  44.3092230 105.8309490  15.2383150
  43.2113350 102.1860940  14.3530100  42.5822230 102.6546040  14.9015930
  43.3261180 101.3410160  14.7876290  54.5403410 105.3645660  29.6215250
  55.3328730 104.8694890  29.4141210  54.8336560 106.0435800  30.2290860
  48.7981110  98.0145620   2.3840570  48.0223210  97.5346060   2.6739140
  49.4494040  97.3351270   2.2096730  42.8146940  98.3265430   3.2616330
  41.9831820  98.0714140   3.6612840  43.4227920  98.3976200   3.9974250
  42.7948200 102.3605520   3.4574350  43.0976240 101.4703260   3.2784570
  43.5391790 102.9175740   3.2296600  39.1871900  95.8872970   2.9298420
  39.7588010  95.1195170   2.9302060  39.1873440  96.1861730   2.0205030
  48.2390100 100.6902810   2.3910730  48.1698380  99.7492750   2.2299860
  49.0009960 100.7804220   2.9633300  40.4296770  91.2957330   4.7167350
  40.2499610  90.3983080   4.9970110  40.0276850  91.8429200   5.3914300
  49.2695270  93.4973190   2.6179660  49.6460090  92.6245070   2.5053330
  49.1714780  93.8331890   1.7270100  41.0483440  93.7917830   3.3249690
  41.7293550  94.0556200   3.9437090  40.7331490  92.9518700   3.6587700
  45.2408010  94.8385190   2.4122280  45.7486230  95.3366160   3.0527300
  45.7721250  94.0620390   2.2361640  57.3418940  93.0090380   6.1151630
  56.6371110  93.3972090   5.5966740  57.6076860  93.7040670   6.7172560
  43.5244110  89.4783750   6.6785700  43.5262550  89.9956140   5.8731600
  42.6948420  89.0013930   6.6555630  44.7746960  99.1178930   4.8559200
  44.4416340  99.7447850   5.4980270  44.9513640  99.6440810   4.0760870
  53.2880870  92.9324010   2.3235540  52.5836440  93.2208900   2.9038650
  53.6493030  93.7424120   1.9635100  43.2059440  91.1893710   4.6856150
  43.5476250  92.0335760   4.3910020  42.2675250  91.3377450   4.8021490
  43.9866060 101.0859730   6.6708380  44.6040060 101.7610810   6.3892830
  43.1259180 101.4947710   6.5795880  54.9043650 102.5499140   4.5863020
  54.2207170 103.2198250   4.5779690  55.4437940 102.7479790   3.8207880
  56.3567790  92.3778800   2.7144750  55.4092700  92.4117780   2.8460180
  56.6817780  93.1917750   3.0994110  52.4402390 104.3943270   3.3008200
  52.4529550 103.9905560   2.4330460  51.8877610 105.1690560   3.1969630
  51.8387830  99.2973110   4.6290810  52.2556620  99.0833220   3.7944270
  52.5627650  99.5545900   5.1999430  55.7849930  97.6960330   4.7207050
  54.9568560  97.7653420   4.2457180  56.3800410  98.2814640   4.2522880
  52.7491940  94.4829650   5.6661920  52.3363120  95.3083360   5.9201910
  52.0167890  93.8974690   5.4738280  45.3506430 100.9557110   2.6919800
  45.0534720 100.3502580   2.0127580  46.3006250 100.9934420   2.5809160
  43.5953350  94.0432760   4.3079630  44.1467940  94.1528100   3.5332880
  44.1096860  94.4170360   5.0234860  53.4392040 104.5288980   6.3542900
  52.9622600 105.3361170   6.1615510  52.7553830 103.8767310   6.5069110
  44.4424860 100.6938800   9.3427600  43.5453390 100.9178770   9.5901000
  44.4677730 100.8173740   8.3939000  43.2696080  97.5652120   7.9184970
  43.1303850  98.4374920   8.2872370  42.3877440  97.2224930   7.7732910
  45.0676430 103.5073820  10.1270120  45.0391860 103.9116770   9.2598550
  44.9041400 102.5784180   9.9641720  57.0191250 104.2900920  11.4234290
  57.4950970 104.7683810  12.1023370  57.6398410 104.2218410  10.6979790
  39.2214730  99.3349670   3.8355880  39.2995150  99.4698440   2.8911600
  39.8356410  98.6265560   4.0284000  56.4224500 101.4813770   8.5834300
  56.5487560 101.2425650   7.6651480  56.4645880 100.6498310   9.0556380
  50.2841240 105.1841770   7.1529110  50.7985910 105.0949780   7.9551540
  49.4410320 105.5301470   7.4457020  56.2748510  93.5346230   9.5484040
  55.6592780  94.0425900   9.0199500  55.9544930  92.6344560   9.4909980
  39.2774250 100.3763840   6.3750340  39.4405290  99.9069200   5.5569710
  39.7426700  99.8687400   7.0399180  48.3362830  92.3738120   7.0146230
  47.8742200  92.5821140   7.8266170  47.9340940  91.5597470   6.7116900
  53.3367340  93.5947070   8.1442890  52.4860930  93.2952820   8.4651960
  53.1769130  93.8389080   7.2326710  50.4317050  95.0948820  10.2441680
  50.7570460  94.2612570   9.9043910  51.2197380  95.6177340  10.3920010
  46.0868920  90.0516930   3.2700510  46.3841250  90.9579760   3.1892530
  46.6354480  89.5635710   2.6560080  46.2806450  95.5288750   9.8052430
  46.1850050  94.5883480   9.6552830  47.1238430  95.7503820   9.4100500
  41.4116990  91.9402420   7.9586210  41.0180380  92.7877630   8.1658990
  40.7235390  91.3028790   8.1494850  47.9862040  92.0237390  11.0282950
  47.2960360  91.8309590  11.6629040  48.7294340  92.3072030  11.5607250
  38.7134040  89.8630880   1.9916290  38.4247090  90.4333740   2.7041270
  39.4579800  89.3835330   2.3547520  50.2625010  95.8635830   3.8636870
  49.5306130  96.3722640   4.2126970  49.8649350  95.0465810   3.5625650
  46.7002400  92.5390030   2.2689360  46.7038460  92.0979980   1.4193900
  47.5953520  92.8607360   2.3761180  50.7250920  91.3169510   3.2759810
  50.7423660  91.7678160   4.1201660  50.4766500  90.4175150   3.4893250
  54.1521670  88.7301690   9.1146190  54.4767440  87.9991350   9.6404170
  54.1878180  88.4115330   8.2127180  40.8513230  99.7515270   8.5346150
  40.4668020  99.1108940   9.1329110  41.1625420 100.4551390   9.1040880
  47.0010370  96.5991810   4.0154770  47.3680500  96.1250380   4.7616110
  46.8115430  97.4733380   4.3563110  44.7909740  95.6400450   6.3338980
  44.4866810  96.5192430   6.5589340  45.7456200  95.7000240   6.3696420
  54.0779510  98.8426800   2.7232220  54.7978630  99.3382090   2.3328330
  53.8761330  98.1644690   2.0786090  49.4598310  98.9135860   8.6101220
  49.3935620  97.9931530   8.3558810  48.8303450  99.0111300   9.3245860
  40.8473470  96.4803190   7.4810340  40.4888410  97.1457040   8.0683680
  40.5528030  95.6486740   7.8522960  44.0486590  96.9387430  10.3649890
  43.7486730  97.0844610   9.4677710  44.8197830  96.3792720  10.2723280
  49.3915040 101.7356430   8.3605020  49.4059580 100.8037390   8.1423930
  48.6840140 101.8216190   8.9994790  55.6026250  98.3763770   7.7073600
  54.8774440  98.9692550   7.5102990  56.1301710  98.3687310   6.9086970
  48.8248940 103.3774000   5.4545520  49.4691160 103.5833380   6.1318940
  49.1878380 102.6162400   5.0016370  50.0981020 101.3806350   4.1722970
  50.7403250 100.6799510   4.2855140  50.6230370 102.1604790   3.9919860
  51.8718640 102.1801250   7.3759030  52.2074880 102.7667940   8.0536950
  50.9518980 102.0493960   7.6056820  39.4222040  89.9696430   8.1582440
  38.7080560  90.1693350   8.7635050  39.8417080  89.1936000   8.5297240
  39.7094630 103.9576690   9.1448970  39.8185750 103.0171430   9.0044360
  39.0575190 104.2231440   8.4962700  47.7007220 102.2292580  10.5447090
  47.3804090 101.5101820  11.0892780  47.0265580 102.9047650  10.6183150
  50.9160820  92.4618740   5.9083890  51.2841640  91.6413950   6.2363460
  50.0559020  92.5220630   6.3239540  47.8762810  95.1158330   6.1321860
  48.3748060  95.5904150   6.7973710  48.0185760  94.1921850   6.3391890
  55.0829670  91.3326290   6.9750250  54.5803270  92.0731690   7.3144060
  55.8986330  91.7210290   6.6587040  55.3777260 103.7468320   2.0965870
  55.5024680 104.5699490   2.5689680  56.2442820 103.5359050   1.7490020
  42.8494790 105.8399530   1.7683000  43.5857270 105.2914990   2.0391570
  43.2335710 106.7055540   1.6288990  41.8553070 105.0245600  10.9568580
  42.6565800 105.3457650  11.3703980  41.3404890 104.6641180  11.6788490
  50.6917700 101.1325470  10.9043990  50.0855860 101.1557070  10.1639740
  50.3871810 100.4008510  11.4411240  52.1218070 104.8605760   9.5153400
  53.0739820 104.7763780   9.4653640  51.9746290 105.5247470  10.1887190
  39.5750880  97.5119060   9.9004630  40.0789900  96.9326340  10.4720860
  38.8358300  97.7959290  10.4381000  46.6288820  98.9190050   9.4340150
  45.8634490  99.4875050   9.3494820  46.8104780  98.6266260   8.5408380
  53.7712170 100.6495380   9.9915170  54.5121640 100.9871140   9.4882630
  53.0084850 100.8187440   9.4384940  41.6073960  95.6548650  10.7954700
  41.6479300  95.3562520  11.7039930  42.4619460  96.0556260  10.6362220
  43.5479770  94.2340750   8.7629190  43.0176230  93.7431700   8.1352530
  44.2167840  94.6624950   8.2287120  52.4457830  98.7010210   8.5270380
  52.8598850  98.8555290   9.3760800  51.5108830  98.8265430   8.6896160
  52.9180000  96.0406370  10.5309530  53.5000770  95.2858690  10.4430010
  53.0941770  96.5713810   9.7541010  44.0352070  91.2003120   8.8426480
  43.9408940  90.5823870   8.1177350  43.4549460  91.9269410   8.6156390
  46.8013510  89.7576360   5.8753870  46.3530810  89.7800620   5.0299420
  46.1678710  89.3595380   6.4724170  47.2073060  98.6530690   6.4966310
  47.6261170  99.4963420   6.3242550  46.2881690  98.7902730   6.2673090
  49.5436960  96.3846870   7.8804150  49.6633170  95.7888010   8.6198990
  50.4030960  96.4216560   7.4605450  51.8824860  96.9384060   6.4566660
  51.3560080  97.4626680   5.8531800  52.2256200  97.5711450   7.0876390
  45.0580480 104.9583700   7.6124040  44.5201570 105.6829760   7.2932740
  45.3114440 104.4814040   6.8221380  46.3105730  92.9268220   9.1379970
  46.9005420  92.6184070   9.8257790  45.4925970  92.4547970   9.2939870
  51.1299160  92.5434030   9.3712990  50.4414680  91.8815570   9.3062980
  51.8505180  92.0972300   9.8161450  47.9142690 106.1934910   7.8710690
  47.8401390 107.0970050   8.1783060  47.0121530 105.8746810   7.8432760
  39.8060190 104.3880090   3.9125940  39.3691180 104.5680890   4.7450090
  40.3737870 105.1454710   3.7707660  55.4422370 103.8897090   8.2003250
  54.8424360 103.9489650   7.4567170  55.5716270 102.9502070   8.3300100
  54.1274010 100.6149070   6.2979410  53.3133850 101.0446230   6.5605200
  54.5348210 101.2267480   5.6848460  40.6760550  97.2852890   4.8118160
  41.0433590  97.1980290   5.6914180  40.1071370  96.5219440   4.7125020
  55.4764410  95.7537270   7.8248630  55.2450500  95.5250020   6.9246580
  55.7368960  96.6736820   7.7793520  40.2276550  94.1961980   8.7176580
  39.3332600  94.1628740   9.0570290  40.7674100  94.3948770   9.4827830
  53.9152480  90.9793700  10.6028330  54.7922660  90.9877100  10.9862330
  53.9273320  90.2424540   9.9920680  55.5405470  94.9163110   5.0135900
  54.5908180  94.8826650   5.1280890  55.7218480  95.8263220   4.7785670
  40.7316260  88.4710310   3.0659800  41.3792450  87.9207690   2.6254960
  41.1518100  88.7253460   3.8875610  54.6268600  88.6651670   6.4229440
  55.2640820  89.2785810   6.7888630  54.7743490  88.7012330   5.4778670
  40.4848260  88.6265980   5.8085120  40.1363080  89.0829800   6.5743300
  40.1535960  87.7323110   5.8907550  42.0912630 101.7985580   9.9738310
  42.0482260 101.4278490  10.8552770  42.2223640 102.7363150  10.1140130
  45.7918660 103.3545170   5.5748030  45.5510020 103.6219730   4.6878550
  46.7321300 103.5250900   5.6298890  47.9973080  89.8177860   9.3304540
  47.9361970  90.4099690  10.0799950  48.9373460  89.7103820   9.1854800
  50.6347640  89.4747920   8.9696830  51.2488050  89.7927210   8.3077910
  51.1797200  88.9896510   9.5892690  57.0522820 105.3739550   6.3758670
  56.5581100 105.7708420   5.6585800  56.4436110 104.7488760   6.7695950
  41.1568900  88.1542180   9.0835890  41.7051890  87.9730230   8.3202000
  41.2224210  87.3636290   9.6192200  41.9300660 104.7447830   7.0936090
  41.3360980 104.6132530   7.8326130  41.9224500 103.9085970   6.6278190
  51.3755680  88.0380060   5.2966120  50.5015520  88.3715170   5.0939050
  51.2666430  87.5653240   6.1217990  52.2827660  90.2450930   6.6807840
  51.9541020  89.4302690   6.3009570  53.2309960  90.2020740   6.5573530
  54.7362270 106.0162970   3.6545410  54.2765240 106.7678780   3.2803430
  54.1074730 105.2969440   3.5960210  41.5612890 102.1106210   6.0444130
  40.8346950 101.4911500   5.9770080  41.6222040 102.5046820   5.1742210
  45.1657990 104.3251210   2.8293540  45.6823010 103.7138570   2.3041800
  45.8155370 104.8279990   3.3204550  47.9053490 105.2159700   3.6562520
  48.1931300 104.9614000   2.7795530  48.4176710 104.6637060   4.2468090
  49.1230500  88.9549900   4.2359030  48.3402290  89.4295400   4.5155790
  48.8293430  88.0504730   4.1272210  53.6751570  89.6573000   2.2808120
  54.1159660  89.6018100   1.4329720  53.4059160  90.5731010   2.3518300
  47.9725850 106.1375800  11.0230720  48.8993160 105.9020070  11.0666680
  47.9576280 106.9647800  10.5416750  45.1589460  88.8020550  10.7872600
  44.8773730  89.3054150  10.0233420  45.5409160  88.0042300  10.4214730
  51.7604920  88.2174130  11.3653070  51.6470370  88.5368740  12.2604590
  52.5774660  88.6186640  11.0690350  54.5403410 105.3645660  10.8471760
  55.3328730 104.8694890  10.6397720  54.8336560 106.0435800  11.4547370
  50.6663070  77.4623110 150.6979220  50.5857120  76.5477720 150.4270930
  50.2527490  77.9590180 149.9918930  48.7981110  79.2402130 152.5788490
  48.0223210  78.7602570 152.8687060  49.4494040  78.5607780 152.4044650
  52.8188540  83.6462320 151.3587620  52.3570070  82.8749560 151.6874790
  53.6314090  83.6728390 151.8640070  41.2238890  74.5123830 147.2406640
  40.3355590  74.8539800 147.1386520  41.5080080  74.3124150 146.3487470
  39.1871900  77.1129480 153.1246340  39.7588010  76.3451680 153.1249980
  39.1873440  77.4118240 152.2152950  49.0451850  85.9320330 150.9791610
  48.4263290  86.3877830 150.4086050  49.9003630  86.0871790 150.5781310
  48.2390100  81.9159320 152.5858650  48.1698380  80.9749260 152.4247780
  49.0009960  82.0060730 153.1581220  49.2695270  74.7229700 152.8127580
  49.6460090  73.8501580 152.7001250  49.1714780  75.0588400 151.9218020
  43.4000280  73.0955330 148.2745020  43.5067030  73.9959060 148.5813780
  42.4892640  73.0473300 147.9839670  53.0519390  72.2180140 149.7455920
  53.8729010  71.7276710 149.7881400  53.0853470  72.8077800 150.4987760
  49.9115200  80.8159570 148.3723520  49.2932470  81.2809020 147.8086240
  50.4238450  81.5087050 148.7893030  53.2880870  74.1580520 152.5183460
  52.5836440  74.4465410 153.0986570  53.6493030  74.9680630 152.1583020
  39.2798400  81.5016100 145.7463150  38.9026380  81.9903200 145.0148050
  39.5371470  82.1741380 146.3769680  46.8887330  69.9032490 151.2048660
  47.1962310  69.3479380 150.4884160  45.9588030  70.0376950 151.0221650
  53.7347810  82.3416000 148.5846290  53.6244140  81.3990330 148.7095710
  53.7316060  82.7031640 149.4709050  49.2768090  77.9681320 147.9408780
  48.3497370  77.9018700 148.1697250  49.4292910  78.9061450 147.8264020
  49.2637170  74.2398320 144.9375940  48.3240840  74.4012280 145.0228400
  49.5820430  74.9584000 144.3911930  53.3065380  79.5301620 148.4444030
  52.6877800  79.1921170 147.7970330  53.2889830  78.8861380 149.1523220
  44.8824730  78.4946060 150.7228510  44.4781730  77.7823310 150.2274410
  44.9687850  78.1499300 151.6116550  45.3506430  82.1813620 152.8867720
  45.0534720  81.5759090 152.2075500  46.3006250  82.2190930 152.7757080
  51.4830080  78.7688430 145.4516780  51.9223360  77.9310860 145.3054600
  52.1958500  79.4017830 145.5380920  49.5925460  83.7084500 149.4198020
  50.0321370  84.4508830 149.0053410  49.5312350  83.9511070 150.3436980
  55.0647220  70.0231240 143.7657820  54.7519880  70.1158070 144.6656890
  55.8259690  70.6012270 143.7155250  41.5829360  77.3891040 148.2235160
  41.4626960  78.1153130 147.6116430  41.2730250  76.6193950 147.7463070
  40.4662360  82.2606370 150.4409980  40.0590440  82.4020960 149.5863580
  41.3575370  81.9766530 150.2381190  52.2595640  86.6953620 146.7761030
  52.0996780  86.4056560 147.6742860  52.0942350  85.9193750 146.2406260
  44.7384020  86.4752150 148.5532650  44.5626500  85.5587690 148.3400450
  43.8839760  86.8339440 148.7930450  51.9621770  84.2041180 145.3359030
  51.2686930  84.2018470 144.6761310  52.7044630  83.7800500 144.9053200
  51.5271700  85.8303890 149.4107520  51.9828650  85.0493270 149.7246140
  51.8664220  86.5410710 149.9548700  44.0493020  70.7326110 151.6058830
  43.6061170  71.5135650 151.2743350  44.6078010  71.0556000 152.3129770
  47.1651840  70.3536810 146.4864660  46.5406020  70.3496680 147.2117970
  47.0781960  69.4867770 146.0900630  43.8407240  75.8559680 149.3340080
  43.6148160  75.6396850 150.2386700  43.0599770  76.2888140 148.9886050
  51.0705000  75.8623050 147.9330730  50.4713890  76.5858850 147.7494350
  51.6184610  75.7999830 147.1507180  49.6769870  74.4986590 149.9634010
  50.0699440  74.8158790 149.1502700  50.0386720  73.6198470 150.0778530
  38.7134040  71.0887390 152.1864210  38.4247090  71.6590250 152.8989190
  39.4579800  70.6091840 152.5495440  38.9004270  75.0307510 143.3966930
  38.8178940  75.9738270 143.5381920  38.5487330  74.8882420 142.5179280
  46.7002400  73.7646540 152.4637280  46.7038460  73.3236490 151.6141820
  47.5953520  74.0863870 152.5709100  42.5504780  73.6473030 151.4231490
  42.2104830  74.1248260 152.1798540  41.7882100  73.1938150 151.0632590
  46.7622550  74.7658620 145.4544040  46.8835370  74.7245100 146.4029860
  46.3771060  75.6282770 145.2990770  45.7744050  77.0759760 144.8527340
  45.2060950  76.6278010 144.2263250  46.4833050  77.4352540 144.3192490
  39.8650860  72.5692010 150.3396160  39.5797780  72.2047680 151.1774780
  39.8029720  71.8372470 149.7259300  43.3191530  81.0717950 147.1253750
  42.5453790  80.5315570 146.9652470  44.0486160  80.5524560 146.7871510
  54.0779510  80.0683310 152.9180140  54.7978630  80.5638600 152.5276250
  53.8761330  79.3901200 152.2734010  49.5389450  71.4621270 147.0609530
  48.7254060  70.9634440 146.9854840  49.3451400  72.3019520 146.6445880
  52.2537840  75.8340920 145.3571690  53.1417460  76.1458150 145.1823030
  52.2242930  74.9613170 144.9652270  43.3628930  80.7398330 150.7632560
  43.8807600  79.9366590 150.7089450  42.9112950  80.6777470 151.6049390
  48.2498430  82.0064610 146.0359860  48.5914130  82.7506840 145.5403180
  47.4211140  82.3195730 146.3984690  54.5252110  77.1452760 144.8251550
  54.4415830  77.5766980 143.9747990  55.2446300  77.6051110 145.2578370
  55.5539360  83.9995020 147.5533680  54.9115520  83.3450640 147.8277400
  55.1670020  84.4050110 146.7774350  51.1325840  81.3280450 151.4005370
  51.4849660  80.7308580 150.7406740  50.2488170  81.0024680 151.5713620
  47.2189120  82.0878140 148.8075780  47.9060250  82.6347350 149.1883370
  46.4321540  82.6318870 148.8425390  39.3581520  77.7050960 144.2992860
  40.2276370  77.9875760 144.5828780  38.8671840  78.5186830 144.1841670
  46.5216330  79.0924170 148.4201140  46.9779110  79.9029420 148.6461330
  46.1704540  78.7747310 149.2519630  42.4228110  69.4361820 148.8923660
  42.2942740  69.4279720 149.8408580  41.5990130  69.7744910 148.5414670
  53.9436740  82.8911480 144.0910030  53.7174320  82.1741920 144.6834670
  53.5532940  82.6423920 143.2531780  39.7252770  86.9178340 144.8654490
  40.0850410  87.5167680 144.2111760  39.5845110  87.4638230 145.6389520
  53.5252990  80.8083420 145.7524190  53.2374690  81.2696110 146.5402070
  54.3205160  80.3481190 146.0208410  45.7421390  84.3009540 145.6828160
  45.7331490  85.0339230 145.0672670  44.8219750  84.0541120 145.7755120
  41.3428030  79.5224430 146.4274920  40.7355980  80.2623330 146.4370220
  41.8177380  79.6123790 145.6013120  54.2822850  72.6432190 146.9119370
  53.6536010  72.7477860 146.1977600  53.7874770  72.8628970 147.7013250
  48.7280990  84.3637780 144.3453350  48.8292970  84.1601770 143.4155330
  47.8282730  84.1096060 144.5501130  46.2506880  74.9218140 148.3277250
  45.5423030  75.3904480 148.7690860  46.5351360  74.2640150 148.9622440
  50.2822310  71.6468800 149.7673040  50.1590090  71.6654930 148.8182550
  51.2306870  71.6947740 149.8871440  47.3699100  86.8824100 149.0401020
  47.6240600  86.8445490 148.1180390  46.4211580  86.7557430 149.0329270
  44.4541900  73.2303220 145.7027960  45.3032430  73.6673370 145.6368150
  44.0873170  73.5423480 146.5300020  53.3751680  77.8015980 150.6159530
  52.4341820  77.8166210 150.7907220  53.6895750  77.0151940 151.0619830
  43.3533320  79.4835580 144.1763490  44.1196590  79.3716940 144.7388920
  43.4308010  78.7873550 143.5240260  42.0480080  76.9160650 144.8596380
  42.1283670  75.9688160 144.9713780  42.9399830  77.2467530 144.9657040
  55.3777260  84.9724830 152.2913790  55.5024680  85.7956000 152.7637600
  56.2442820  84.7615560 151.9437940  42.8494790  87.0656040 151.9630920
  43.5857270  86.5171500 152.2339490  43.2335710  87.9312050 151.8236910
  39.7340270  83.1329610 147.8372430  38.8080050  83.3750750 147.8277840
  40.1996700  83.9603870 147.7157180  45.9597100  86.2386350 143.7856490
  46.7525710  86.5275180 143.3338280  45.4401450  85.8078520 143.1068970
  55.0127270  85.4656480 145.2093230  54.7268780  85.0521620 144.3947410
  54.8146820  86.3944190 145.0893750  46.4774500  81.4589760 143.6498840
  46.3725140  80.8442110 144.3760220  46.3098720  80.9355650 142.8661850
  49.7177230  80.5209790 144.2540830  49.1687330  80.9679090 144.8983570
  50.3396490  80.0159040 144.7778500  45.3852350  79.4800710 146.1506130
  45.8068770  79.3140580 146.9937520  45.5103190  78.6700940 145.6561270
  47.8979990  78.5038320 143.3983230  48.4185650  77.7887340 143.0324380
  48.5448390  79.1424190 143.6983740  44.2811250  75.5533940 143.0964290
  44.0800310  74.6901300 143.4577630  44.1103300  75.4667300 142.1585890
  51.7599560  70.3642170 145.6251170  52.0401850  69.5210070 145.9810590
  50.9865290  70.5965280 146.1389920  43.0794050  72.6534560 143.0842170
  43.3819950  72.6601990 142.1761320  43.8188640  72.3032420 143.5809830
  46.2978980  71.5969180 144.0698370  45.9500980  70.9193170 143.4900820
  46.4991750  71.1358690 144.8841760  48.4628020  86.5849930 145.6884970
  49.3578810  86.9234900 145.7103730  48.4945650  85.8629340 145.0609250
  42.1024180  81.9576980 143.9171970  42.5399050  82.5006650 144.5729550
  42.5871910  81.1323930 143.9268310  39.3169980  84.7466010 151.3692230
  39.6472990  83.8787070 151.1370870  39.7460980  84.9524530 152.1997190
  43.9131900  83.0775020 149.0294200  43.6127440  82.9539990 149.9298110
  43.8069390  82.2183610 148.6209930  56.6823820  82.8571420 143.7320880
  55.8516780  82.9248070 144.2028110  56.8595650  83.7475540 143.4287740
  56.1380280  79.6018900 146.2355080  56.8999190  80.1715550 146.3414770
  56.1534650  79.0346100 147.0063390  39.6384620  78.1256830 150.4662740
  38.9833460  77.8568470 149.8222440  40.4762570  78.0161310 150.0164720
  57.1440250  80.4569000 151.0797010  57.5149080  79.6736320 150.6732980
  57.7842180  81.1458100 150.9014310  56.1899450  79.8953270 143.3927600
  56.4648290  80.8032150 143.2646820  56.0010190  79.8315800 144.3289590
  52.5875060  72.9198120 144.6881230  53.0059940  72.7329100 143.8477890
  52.2811120  72.0677170 144.9984160  56.0864790  77.8322260 148.3857030
  55.7108390  77.0650190 147.9538320  55.3567910  78.2144960 148.8731960
  38.8522700  75.3355760 146.4088070  37.9486780  75.5985960 146.2339730
  39.3363320  75.6066930 145.6288030  55.3615750  76.0579750 151.6864270
  55.8853230  75.5642400 151.0554440  55.9475170  76.1930110 152.4311840
  41.3949910  74.3921300 144.3182450  42.1041610  73.9704520 143.8329730
  40.6789850  74.4596530 143.6865800  41.0424070  70.4460630 143.3585100
  41.7652200  70.9869570 143.6766320  41.3148590  70.1724050 142.4826640
  54.8515720  75.3153100 147.6256680  55.3474840  75.0823970 148.4105560
  54.6531790  74.4764940 147.2094320  56.2802880  73.9514050 150.1594360
  56.1702160  73.7970090 151.0976630  57.0410470  73.4234990 149.9169770
  57.1693150  71.7821970 143.4000500  58.0942460  71.6503150 143.1918790
  57.1468940  71.8614790 144.3536950  57.2431640  72.5532630 146.0257210
  56.4483140  72.4877750 146.5550120  57.4474920  73.4883270 146.0142560
  54.1850060  86.5924180 150.0195600  54.7809130  86.2708750 149.3430020
  54.4428210  86.1196000 150.8108870  53.6751570  70.8829510 152.4756040
  54.1159660  70.8274610 151.6277640  53.4059160  71.7987520 152.5466220
  55.5390140  70.5144750 150.4864860  55.4778540  69.5705970 150.3395880
  56.3182170  70.6224840 151.0318320  39.8442890  86.6537110 149.4488810
  39.6764930  86.0207790 150.1470700  38.9777400  86.8596510 149.0983000
  40.4670910  70.4853890 146.9520670  41.2250270  70.5982770 146.3784700
  40.0048080  71.3223090 146.9064100  47.0084720  72.5993160 149.9422980
  46.1959230  72.2250050 149.6018860  47.5126360  71.8438240 150.2444170
  51.5109700  69.2635610 151.1806050  52.1139070  69.8355820 151.6554570
  50.7702690  69.8275050 150.9579950  54.6544300  69.6657170 146.4546330
  54.8494930  70.5640620 146.7213760  53.8674170  69.4344250 146.9479280
  41.4505590  85.3470340 146.8938950  40.9253210  85.7278370 146.1900910
  41.3750170  85.9721110 147.6148660  42.8396060  71.0117940 145.4922640
  43.3688820  70.2247740 145.3630590  43.4724380  71.6909130 145.7258170
  45.0333900  70.7493080 148.5468030  44.4036640  70.0480390 148.7138160
  44.4939040  71.5097210 148.3301190  56.2070910  86.9057880 148.2152890
  56.3823100  86.2195620 147.5713810  55.5092480  87.4304930 147.8229560
  44.0498560  87.2952720 145.7688200  44.7817380  87.0112000 145.2212090
  44.3092230  87.0566000 146.6587580  43.2113350  83.4117450 145.7734530
  42.5822230  83.8802550 146.3220360  43.3261180  82.5666670 146.2080720
  50.6663070  77.4623110 131.9235730  50.5857120  76.5477720 131.6527440
  50.2527490  77.9590180 131.2175440  48.7981110  79.2402130 133.8045000
  48.0223210  78.7602570 134.0943570  49.4494040  78.5607780 133.6301160
  42.8146940  79.5521940 134.6820760  41.9831820  79.2970650 135.0817270
  43.4227920  79.6232710 135.4178680  42.7948200  83.5862030 134.8778780
  43.0976240  82.6959770 134.6989000  43.5391790  84.1432250 134.6501030
  39.1871900  77.1129480 134.3502850  39.7588010  76.3451680 134.3506490
  39.1873440  77.4118240 133.4409460  48.2390100  81.9159320 133.8115160
  48.1698380  80.9749260 133.6504290  49.0009960  82.0060730 134.3837730
  40.4296770  72.5213840 136.1371780  40.2499610  71.6239590 136.4174540
  40.0276850  73.0685710 136.8118730  53.0519390  72.2180140 130.9712430
  53.8729010  71.7276710 131.0137910  53.0853470  72.8077800 131.7244270
  41.0483440  75.0174340 134.7454120  41.7293550  75.2812710 135.3641520
  40.7331490  74.1775210 135.0792130  45.2408010  76.0641700 133.8326710
  45.7486230  76.5622670 134.4731730  45.7721250  75.2876900 133.6566070
  43.5244110  70.7040260 138.0990130  43.5262550  71.2212650 137.2936030
  42.6948420  70.2270440 138.0760060  49.9115200  80.8159570 129.5980030
  49.2932470  81.2809020 129.0342750  50.4238450  81.5087050 130.0149540
  44.7746960  80.3435440 136.2763630  44.4416340  80.9704360 136.9184700
  44.9513640  80.8697320 135.4965300  43.2059440  72.4150220 136.1060580
  43.5476250  73.2592270 135.8114450  42.2675250  72.5633960 136.2225920
  43.9866060  82.3116240 138.0912810  44.6040060  82.9867320 137.8097260
  43.1259180  82.7204220 138.0000310  39.2798400  81.5016100 126.9719660
  38.9026380  81.9903200 126.2404560  39.5371470  82.1741380 127.6026190
  53.7347810  82.3416000 129.8102800  53.6244140  81.3990330 129.9352220
  53.7316060  82.7031640 130.6965560  49.2768090  77.9681320 129.1665290
  48.3497370  77.9018700 129.3953760  49.4292910  78.9061450 129.0520530
  55.7849930  78.9216840 136.1411480  54.9568560  78.9909930 135.6661610
  56.3800410  79.5071150 135.6727310  53.3065380  79.5301620 129.6700540
  52.6877800  79.1921170 129.0226840  53.2889830  78.8861380 130.3779730
  52.7491940  75.7086160 137.0866350  52.3363120  76.5339870 137.3406340
  52.0167890  75.1231200 136.8942710  45.3506430  82.1813620 134.1124230
  45.0534720  81.5759090 133.4332010  46.3006250  82.2190930 134.0013590
  43.5953350  75.2689270 135.7284060  44.1467940  75.3784610 134.9537310
  44.1096860  75.6426870 136.4439290  44.4424860  81.9195310 140.7632030
  43.5453390  82.1435280 141.0105430  44.4677730  82.0430250 139.8143430
  51.4830080  78.7688430 126.6773290  51.9223360  77.9310860 126.5311110
  52.1958500  79.4017830 126.7637430  43.2696080  78.7908630 139.3389400
  43.1303850  79.6631430 139.7076800  42.3877440  78.4481440 139.1937340
  49.5925460  83.7084500 130.6454530  50.0321370  84.4508830 130.2309920
  49.5312350  83.9511070 131.5693490  45.0676430  84.7330330 141.5474550
  45.0391860  85.1373280 140.6802980  44.9041400  83.8040690 141.3846150
  57.0191250  85.5157430 142.8438720  57.4950970  85.9940320 143.5227800
  57.6398410  85.4474920 142.1184220  39.2214730  80.5606180 135.2560310
  39.2995150  80.6954950 134.3116030  39.8356410  79.8522070 135.4488430
  40.4662360  82.2606370 131.6666490  40.0590440  82.4020960 130.8120090
  41.3575370  81.9766530 131.4637700  56.4224500  82.7070280 140.0038730
  56.5487560  82.4682160 139.0855910  56.4645880  81.8754820 140.4760810
  50.2841240  86.4098280 138.5733540  50.7985910  86.3206290 139.3755970
  49.4410320  86.7557980 138.8661450  44.7384020  86.4752150 129.7789160
  44.5626500  85.5587690 129.5656960  43.8839760  86.8339440 130.0186960
  51.9621770  84.2041180 126.5615540  51.2686930  84.2018470 125.9017820
  52.7044630  83.7800500 126.1309710  56.2748510  74.7602740 140.9688470
  55.6592780  75.2682410 140.4403930  55.9544930  73.8601070 140.9114410
  39.2774250  81.6020350 137.7954770  39.4405290  81.1325710 136.9774140
  39.7426700  81.0943910 138.4603610  44.0493020  70.7326110 132.8315340
  43.6061170  71.5135650 132.4999860  44.6078010  71.0556000 133.5386280
  48.3362830  73.5994630 138.4350660  47.8742200  73.8077650 139.2470600
  47.9340940  72.7853980 138.1321330  53.3367340  74.8203580 139.5647320
  52.4860930  74.5209330 139.8856390  53.1769130  75.0645590 138.6531140
  50.4317050  76.3205330 141.6646110  50.7570460  75.4869080 141.3248340
  51.2197380  76.8433850 141.8124440  47.1651840  70.3536810 127.7121170
  46.5406020  70.3496680 128.4374480  47.0781960  69.4867770 127.3157140
  46.0868920  71.2773440 134.6904940  46.3841250  72.1836270 134.6096960
  46.6354480  70.7892220 134.0764510  46.2806450  76.7545260 141.2256860
  46.1850050  75.8139990 141.0757260  47.1238430  76.9760330 140.8304930
  41.4116990  73.1658930 139.3790640  41.0180380  74.0134140 139.5863420
  40.7235390  72.5285300 139.5699280  47.9862040  73.2493900 142.4487380
  47.2960360  73.0566100 143.0833470  48.7294340  73.5328540 142.9811680
  38.7134040  71.0887390 133.4120720  38.4247090  71.6590250 134.1245700
  39.4579800  70.6091840 133.7751950  38.9004270  75.0307510 124.6223440
  38.8178940  75.9738270 124.7638430  38.5487330  74.8882420 123.7435790
  50.2625010  77.0892340 135.2841300  49.5306130  77.5979150 135.6331400
  49.8649350  76.2722320 134.9830080  50.7250920  72.5426020 134.6964240
  50.7423660  72.9934670 135.5406090  50.4766500  71.6431660 134.9097680
  54.1521670  69.9558200 140.5350620  54.4767440  69.2247860 141.0608600
  54.1878180  69.6371840 139.6331610  40.8513230  80.9771780 139.9550580
  40.4668020  80.3365450 140.5533540  41.1625420  81.6807900 140.5245310
  47.0010370  77.8248320 135.4359200  47.3680500  77.3506890 136.1820540
  46.8115430  78.6989890 135.7767540  39.8650860  72.5692010 131.5652670
  39.5797780  72.2047680 132.4031290  39.8029720  71.8372470 130.9515810
  44.7909740  76.8656960 137.7543410  44.4866810  77.7448940 137.9793770
  45.7456200  76.9256750 137.7900850  54.0779510  80.0683310 134.1436650
  54.7978630  80.5638600 133.7532760  53.8761330  79.3901200 133.4990520
  49.5389450  71.4621270 128.2866040  48.7254060  70.9634440 128.2111350
  49.3451400  72.3019520 127.8702390  49.4598310  80.1392370 140.0305650
  49.3935620  79.2188040 139.7763240  48.8303450  80.2367810 140.7450290
  52.2537840  75.8340920 126.5828200  53.1417460  76.1458150 126.4079540
  52.2242930  74.9613170 126.1908780  43.3628930  80.7398330 131.9889070
  43.8807600  79.9366590 131.9345960  42.9112950  80.6777470 132.8305900
  40.8473470  77.7059700 138.9014770  40.4888410  78.3713550 139.4888110
  40.5528030  76.8743250 139.2727390  44.0486590  78.1643940 141.7854320
  43.7486730  78.3101120 140.8882140  44.8197830  77.6049230 141.6927710
  49.3915040  82.9612940 139.7809450  49.4059580  82.0293900 139.5628360
  48.6840140  83.0472700 140.4199220  54.5252110  77.1452760 126.0508060
  54.4415830  77.5766980 125.2004500  55.2446300  77.6051110 126.4834880
  55.6026250  79.6020280 139.1278030  54.8774440  80.1949060 138.9307420
  56.1301710  79.5943820 138.3291400  55.5539360  83.9995020 128.7790190
  54.9115520  83.3450640 129.0533910  55.1670020  84.4050110 128.0030860
  51.1325840  81.3280450 132.6261880  51.4849660  80.7308580 131.9663250
  50.2488170  81.0024680 132.7970130  47.2189120  82.0878140 130.0332290
  47.9060250  82.6347350 130.4139880  46.4321540  82.6318870 130.0681900
  39.3581520  77.7050960 125.5249370  40.2276370  77.9875760 125.8085290
  38.8671840  78.5186830 125.4098180  48.8248940  84.6030510 136.8749950
  49.4691160  84.8089890 137.5523370  49.1878380  83.8418910 136.4220800
  42.4228110  69.4361820 130.1180170  42.2942740  69.4279720 131.0665090
  41.5990130  69.7744910 129.7671180  53.9436740  82.8911480 125.3166540
  53.7174320  82.1741920 125.9091180  53.5532940  82.6423920 124.4788290
  51.8718640  83.4057760 138.7963460  52.2074880  83.9924450 139.4741380
  50.9518980  83.2750470 139.0261250  39.4222040  71.1952940 139.5786870
  38.7080560  71.3949860 140.1839480  39.8417080  70.4192510 139.9501670
  53.5252990  80.8083420 126.9780700  53.2374690  81.2696110 127.7658580
  54.3205160  80.3481190 127.2464920  39.7094630  85.1833200 140.5653400
  39.8185750  84.2427940 140.4248790  39.0575190  85.4487950 139.9167130
  47.7007220  83.4549090 141.9651520  47.3804090  82.7358330 142.5097210
  47.0265580  84.1304160 142.0387580  45.7421390  84.3009540 126.9084670
  45.7331490  85.0339230 126.2929180  44.8219750  84.0541120 127.0011630
  50.9160820  73.6875250 137.3288320  51.2841640  72.8670460 137.6567890
  50.0559020  73.7477140 137.7443970  54.2822850  72.6432190 128.1375880
  53.6536010  72.7477860 127.4234110  53.7874770  72.8628970 128.9269760
  48.7280990  84.3637780 125.5709860  48.8292970  84.1601770 124.6411840
  47.8282730  84.1096060 125.7757640  47.8762810  76.3414840 137.5526290
  48.3748060  76.8160660 138.2178140  48.0185760  75.4178360 137.7596320
  47.3699100  86.8824100 130.2657530  47.6240600  86.8445490 129.3436900
  46.4211580  86.7557430 130.2585780  53.3751680  77.8015980 131.8416040
  52.4341820  77.8166210 132.0163730  53.6895750  77.0151940 132.2876340
  42.8494790  87.0656040 133.1887430  43.5857270  86.5171500 133.4596000
  43.2335710  87.9312050 133.0493420  39.7340270  83.1329610 129.0628940
  38.8080050  83.3750750 129.0534350  40.1996700  83.9603870 128.9413690
  41.8553070  86.2502110 142.3773010  42.6565800  86.5714160 142.7908410
  41.3404890  85.8897690 143.0992920  50.6917700  82.3581980 142.3248420
  50.0855860  82.3813580 141.5844170  50.3871810  81.6265020 142.8615670
  52.1218070  86.0862270 140.9357830  53.0739820  86.0020290 140.8858070
  51.9746290  86.7503980 141.6091620  39.5750880  78.7375570 141.3209060
  40.0789900  78.1582850 141.8925290  38.8358300  79.0215800 141.8585430
  46.6288820  80.1446560 140.8544580  45.8634490  80.7131560 140.7699250
  46.8104780  79.8522770 139.9612810  53.7712170  81.8751890 141.4119600
  54.5121640  82.2127650 140.9087060  53.0084850  82.0443950 140.8589370
  41.6073960  76.8805160 142.2159130  41.6479300  76.5819030 143.1244360
  42.4619460  77.2812770 142.0566650  43.5479770  75.4597260 140.1833620
  43.0176230  74.9688210 139.5556960  44.2167840  75.8881460 139.6491550
  52.4457830  79.9266720 139.9474810  52.8598850  80.0811800 140.7965230
  51.5108830  80.0521940 140.1100590  52.9180000  77.2662880 141.9513960
  53.5000770  76.5115200 141.8634440  53.0941770  77.7970320 141.1745440
  44.0352070  72.4259630 140.2630910  43.9408940  71.8080380 139.5381780
  43.4549460  73.1525920 140.0360820  46.8013510  70.9832870 137.2958300
  46.3530810  71.0057130 136.4503850  46.1678710  70.5851890 137.8928600
  47.2073060  79.8787200 137.9170740  47.6261170  80.7219930 137.7446980
  46.2881690  80.0159240 137.6877520  49.5436960  77.6103380 139.3008580
  49.6633170  77.0144520 140.0403420  50.4030960  77.6473070 138.8809880
  45.0580480  86.1840210 139.0328470  44.5201570  86.9086270 138.7137170
  45.3114440  85.7070550 138.2425810  46.3105730  74.1524730 140.5584400
  46.9005420  73.8440580 141.2462220  45.4925970  73.6804480 140.7144300
  51.1299160  73.7690540 140.7917420  50.4414680  73.1072080 140.7267410
  51.8505180  73.3228810 141.2365880  51.7599560  70.3642170 126.8507680
  52.0401850  69.5210070 127.2067100  50.9865290  70.5965280 127.3646430
  43.0794050  72.6534560 124.3098680  43.3819950  72.6601990 123.4017830
  43.8188640  72.3032420 124.8066340  47.9142690  87.4191420 139.2915120
  47.8401390  88.3226560 139.5987490  47.0121530  87.1003320 139.2637190
  48.4628020  86.5849930 126.9141480  49.3578810  86.9234900 126.9360240
  48.4945650  85.8629340 126.2865760  42.1024180  81.9576980 125.1428480
  42.5399050  82.5006650 125.7986060  42.5871910  81.1323930 125.1524820
  39.3169980  84.7466010 132.5948740  39.6472990  83.8787070 132.3627380
  39.7460980  84.9524530 133.4253700  43.9131900  83.0775020 130.2550710
  43.6127440  82.9539990 131.1554620  43.8069390  82.2183610 129.8466440
  39.8060190  85.6136600 135.3330370  39.3691180  85.7937400 136.1654520
  40.3737870  86.3711220 135.1912090  55.4422370  85.1153600 139.6207680
  54.8424360  85.1746160 138.8771600  55.5716270  84.1758580 139.7504530
  56.1380280  79.6018900 127.4611590  56.8999190  80.1715550 127.5671280
  56.1534650  79.0346100 128.2319900  39.6384620  78.1256830 131.6919250
  38.9833460  77.8568470 131.0478950  40.4762570  78.0161310 131.2421230
  57.1440250  80.4569000 132.3053520  57.5149080  79.6736320 131.8989490
  57.7842180  81.1458100 132.1270820  56.0864790  77.8322260 129.6113540
  55.7108390  77.0650190 129.1794830  55.3567910  78.2144960 130.0988470
  40.6760550  78.5109400 136.2322590  41.0433590  78.4236800 137.1118610
  40.1071370  77.7475950 136.1329450  55.4764410  76.9793780 139.2453060
  55.2450500  76.7506530 138.3451010  55.7368960  77.8993330 139.1997950
  40.2276550  75.4218490 140.1381010  39.3332600  75.3885250 140.4774720
  40.7674100  75.6205280 140.9032260  53.9152480  72.2050210 142.0232760
  54.7922660  72.2133610 142.4066760  53.9273320  71.4681050 141.4125110
  38.8522700  75.3355760 127.6344580  37.9486780  75.5985960 127.4596240
  39.3363320  75.6066930 126.8544540  55.3615750  76.0579750 132.9120780
  55.8853230  75.5642400 132.2810950  55.9475170  76.1930110 133.6568350
  55.5405470  76.1419620 136.4340330  54.5908180  76.1083160 136.5485320
  55.7218480  77.0519730 136.1990100  41.3949910  74.3921300 125.5438960
  42.1041610  73.9704520 125.0586240  40.6789850  74.4596530 124.9122310
  41.0424070  70.4460630 124.5841610  41.7652200  70.9869570 124.9022830
  41.3148590  70.1724050 123.7083150  54.8515720  75.3153100 128.8513190
  55.3474840  75.0823970 129.6362070  54.6531790  74.4764940 128.4350830
  40.7316260  69.6966820 134.4864230  41.3792450  69.1464200 134.0459390
  41.1518100  69.9509970 135.3080040  56.2802880  73.9514050 131.3850870
  56.1702160  73.7970090 132.3233140  57.0410470  73.4234990 131.1426280
  57.2431640  72.5532630 127.2513720  56.4483140  72.4877750 127.7806630
  57.4474920  73.4883270 127.2399070  40.4848260  69.8522490 137.2289550
  40.1363080  70.3086310 137.9947730  40.1535960  68.9579620 137.3111980
  42.0912630  83.0242090 141.3942740  42.0482260  82.6535000 142.2757200
  42.2223640  83.9619660 141.5344560  45.7918660  84.5801680 136.9952460
  45.5510020  84.8476240 136.1082980  46.7321300  84.7507410 137.0503320
  47.9973080  71.0434370 140.7508970  47.9361970  71.6356200 141.5004380
  48.9373460  70.9360330 140.6059230  50.6347640  70.7004430 140.3901260
  51.2488050  71.0183720 139.7282340  51.1797200  70.2153020 141.0097120
  41.1568900  69.3798690 140.5040320  41.7051890  69.1986740 139.7406430
  41.2224210  68.5892800 141.0396630  41.9300660  85.9704340 138.5140520
  41.3360980  85.8389040 139.2530560  41.9224500  85.1342480 138.0482620
  51.3755680  69.2636570 136.7170550  50.5015520  69.5971680 136.5143480
  51.2666430  68.7909750 137.5422420  52.2827660  71.4707440 138.1012270
  51.9541020  70.6559200 137.7214000  53.2309960  71.4277250 137.9777960
  41.5612890  83.3362720 137.4648560  40.8346950  82.7168010 137.3974510
  41.6222040  83.7303330 136.5946640  45.1657990  85.5507720 134.2497970
  45.6823010  84.9395080 133.7246230  45.8155370  86.0536500 134.7408980
  47.9053490  86.4416210 135.0766950  48.1931300  86.1870510 134.1999960
  48.4176710  85.8893570 135.6672520  49.1230500  70.1806410 135.6563460
  48.3402290  70.6551910 135.9360220  48.8293430  69.2761240 135.5476640
  39.8442890  86.6537110 130.6745320  39.6764930  86.0207790 131.3727210
  38.9777400  86.8596510 130.3239510  40.4670910  70.4853890 128.1777180
  41.2250270  70.5982770 127.6041210  40.0048080  71.3223090 128.1320610
  51.5109700  69.2635610 132.4062560  52.1139070  69.8355820 132.8811080
  50.7702690  69.8275050 132.1836460  41.4505590  85.3470340 128.1195460
  40.9253210  85.7278370 127.4157420  41.3750170  85.9721110 128.8405170
  42.8396060  71.0117940 126.7179150  43.3688820  70.2247740 126.5887100
  43.4724380  71.6909130 126.9514680  47.9725850  87.3632310 142.4435150
  48.8993160  87.1276580 142.4871110  47.9576280  88.1904310 141.9621180
  45.1589460  70.0277060 142.2077030  44.8773730  70.5310660 141.4437850
  45.5409160  69.2298810 141.8419160  44.0498560  87.2952720 126.9944710
  44.7817380  87.0112000 126.4468600  44.3092230  87.0566000 127.8844090
  43.2113350  83.4117450 126.9991040  42.5822230  83.8802550 127.5476870
  43.3261180  82.5666670 127.4337230  51.7604920  69.4430640 142.7857500
  51.6470370  69.7625250 143.6809020  52.5774660  69.8443150 142.4894780
  54.5403410  86.5902170 142.2676190  55.3328730  86.0951400 142.0602150
  54.8336560  87.2692310 142.8751800  50.6663070  77.4623110 113.1492240
  50.5857120  76.5477720 112.8783950  50.2527490  77.9590180 112.4431950
  48.7981110  79.2402130 115.0301510  48.0223210  78.7602570 115.3200080
  49.4494040  78.5607780 114.8557670  42.8146940  79.5521940 115.9077270
  41.9831820  79.2970650 116.3073780  43.4227920  79.6232710 116.6435190
  42.7948200  83.5862030 116.1035290  43.0976240  82.6959770 115.9245510
  43.5391790  84.1432250 115.8757540  41.2238890  74.5123830 109.6919660
  40.3355590  74.8539800 109.5899540  41.5080080  74.3124150 108.8000490
  39.1871900  77.1129480 115.5759360  39.7588010  76.3451680 115.5763000
  39.1873440  77.4118240 114.6665970  49.0451850  85.9320330 113.4304630
  48.4263290  86.3877830 112.8599070  49.9003630  86.0871790 113.0294330
  48.2390100  81.9159320 115.0371670  48.1698380  80.9749260 114.8760800
  49.0009960  82.0060730 115.6094240  49.2695270  74.7229700 115.2640600
  49.6460090  73.8501580 115.1514270  49.1714780  75.0588400 114.3731040
  57.3418940  74.2346890 118.7612570  56.6371110  74.6228600 118.2427680
  57.6076860  74.9297180 119.3633500  49.9115200  80.8159570 110.8236540
  49.2932470  81.2809020 110.2599260  50.4238450  81.5087050 111.2406050
  53.2880870  74.1580520 114.9696480  52.5836440  74.4465410 115.5499590
  53.6493030  74.9680630 114.6096040  39.2798400  81.5016100 108.1976170
  38.9026380  81.9903200 107.4661070  39.5371470  82.1741380 108.8282700
  56.3567790  73.6035310 115.3605690  55.4092700  73.6374290 115.4921120
  56.6817780  74.4174260 115.7455050  46.8887330  69.9032490 113.6561680
  47.1962310  69.3479380 112.9397180  45.9588030  70.0376950 113.4734670
  51.8387830  80.5229620 117.2751750  52.2556620  80.3089730 116.4405210
  52.5627650  80.7802410 117.8460370  49.2768090  77.9681320 110.3921800
  48.3497370  77.9018700 110.6210270  49.4292910  78.9061450 110.2777040
  49.2637170  74.2398320 107.3888960  48.3240840  74.4012280 107.4741420
  49.5820430  74.9584000 106.8424950  55.7849930  78.9216840 117.3667990
  54.9568560  78.9909930 116.8918120  56.3800410  79.5071150 116.8983820
  53.3065380  79.5301620 110.8957050  52.6877800  79.1921170 110.2483350
  53.2889830  78.8861380 111.6036240  44.8824730  78.4946060 113.1741530
  44.4781730  77.7823310 112.6787430  44.9687850  78.1499300 114.0629570
  45.3506430  82.1813620 115.3380740  45.0534720  81.5759090 114.6588520
  46.3006250  82.2190930 115.2270100  53.4392040  85.7545490 119.0003840
  52.9622600  86.5617680 118.8076450  52.7553830  85.1023820 119.1530050
  51.4830080  78.7688430 107.9029800  51.9223360  77.9310860 107.7567620
  52.1958500  79.4017830 107.9893940  49.5925460  83.7084500 111.8711040
  50.0321370  84.4508830 111.4566430  49.5312350  83.9511070 112.7950000
  39.2214730  80.5606180 116.4816820  39.2995150  80.6954950 115.5372540
  39.8356410  79.8522070 116.6744940  40.4662360  82.2606370 112.8923000
  40.0590440  82.4020960 112.0376600  41.3575370  81.9766530 112.6894210
  56.4224500  82.7070280 121.2295240  56.5487560  82.4682160 120.3112420
  56.4645880  81.8754820 121.7017320  50.2841240  86.4098280 119.7990050
  50.7985910  86.3206290 120.6012480  49.4410320  86.7557980 120.0917960
  52.2595640  86.6953620 109.2274050  52.0996780  86.4056560 110.1255880
  52.0942350  85.9193750 108.6919280  51.5271700  85.8303890 111.8620540
  51.9828650  85.0493270 112.1759160  51.8664220  86.5410710 112.4061720
  39.2774250  81.6020350 119.0211280  39.4405290  81.1325710 118.2030650
  39.7426700  81.0943910 119.6860120  51.0705000  75.8623050 110.3843750
  50.4713890  76.5858850 110.2007370  51.6184610  75.7999830 109.6020200
  49.6769870  74.4986590 112.4147030  50.0699440  74.8158790 111.6015720
  50.0386720  73.6198470 112.5291550  38.7134040  71.0887390 114.6377230
  38.4247090  71.6590250 115.3502210  39.4579800  70.6091840 115.0008460
  38.9004270  75.0307510 105.8479950  38.8178940  75.9738270 105.9894940
  38.5487330  74.8882420 104.9692300  50.2625010  77.0892340 116.5097810
  49.5306130  77.5979150 116.8587910  49.8649350  76.2722320 116.2086590
  46.7622550  74.7658620 107.9057060  46.8835370  74.7245100 108.8542880
  46.3771060  75.6282770 107.7503790  50.7250920  72.5426020 115.9220750
  50.7423660  72.9934670 116.7662600  50.4766500  71.6431660 116.1354190
  45.7744050  77.0759760 107.3040360  45.2060950  76.6278010 106.6776270
  46.4833050  77.4352540 106.7705510  40.8513230  80.9771780 121.1807090
  40.4668020  80.3365450 121.7790050  41.1625420  81.6807900 121.7501820
  39.8650860  72.5692010 112.7909180  39.5797780  72.2047680 113.6287800
  39.8029720  71.8372470 112.1772320  43.3191530  81.0717950 109.5766770
  42.5453790  80.5315570 109.4165490  44.0486160  80.5524560 109.2384530
  54.0779510  80.0683310 115.3693160  54.7978630  80.5638600 114.9789270
  53.8761330  79.3901200 114.7247030  49.5389450  71.4621270 109.5122550
  48.7254060  70.9634440 109.4367860  49.3451400  72.3019520 109.0958900
  49.4598310  80.1392370 121.2562160  49.3935620  79.2188040 121.0019750
  48.8303450  80.2367810 121.9706800  52.2537840  75.8340920 107.8084710
  53.1417460  76.1458150 107.6336050  52.2242930  74.9613170 107.4165290
  43.3628930  80.7398330 113.2145580  43.8807600  79.9366590 113.1602470
  42.9112950  80.6777470 114.0562410  49.3915040  82.9612940 121.0065960
  49.4059580  82.0293900 120.7884870  48.6840140  83.0472700 121.6455730
  55.6026250  79.6020280 120.3534540  54.8774440  80.1949060 120.1563930
  56.1301710  79.5943820 119.5547910  51.1325840  81.3280450 113.8518390
  51.4849660  80.7308580 113.1919760  50.2488170  81.0024680 114.0226640
  47.2189120  82.0878140 111.2588800  47.9060250  82.6347350 111.6396390
  46.4321540  82.6318870 111.2938410  46.5216330  79.0924170 110.8714160
  46.9779110  79.9029420 111.0974350  46.1704540  78.7747310 111.7032650
  48.8248940  84.6030510 118.1006460  49.4691160  84.8089890 118.7779880
  49.1878380  83.8418910 117.6477310  50.0981020  82.6062860 116.8183910
  50.7403250  81.9056020 116.9316080  50.6230370  83.3861300 116.6380800
  53.9436740  82.8911480 106.5423050  53.7174320  82.1741920 107.1347690
  53.5532940  82.6423920 105.7044800  51.8718640  83.4057760 120.0219970
  52.2074880  83.9924450 120.6997890  50.9518980  83.2750470 120.2517760
  39.7252770  86.9178340 107.3167510  40.0850410  87.5167680 106.6624780
  39.5845110  87.4638230 108.0902540  39.4222040  71.1952940 120.8043380
  38.7080560  71.3949860 121.4095990  39.8417080  70.4192510 121.1758180
  53.5252990  80.8083420 108.2037210  53.2374690  81.2696110 108.9915090
  54.3205160  80.3481190 108.4721430  39.7094630  85.1833200 121.7909910
  39.8185750  84.2427940 121.6505300  39.0575190  85.4487950 121.1423640
  45.7421390  84.3009540 108.1341180  45.7331490  85.0339230 107.5185690
  44.8219750  84.0541120 108.2268140  47.8762810  76.3414840 118.7782800
  48.3748060  76.8160660 119.4434650  48.0185760  75.4178360 118.9852830
  50.2822310  71.6468800 112.2186060  50.1590090  71.6654930 111.2695570
  51.2306870  71.6947740 112.3384460  47.3699100  86.8824100 111.4914040
  47.6240600  86.8445490 110.5693410  46.4211580  86.7557430 111.4842290
  44.4541900  73.2303220 108.1540980  45.3032430  73.6673370 108.0881170
  44.0873170  73.5423480 108.9813040  53.3751680  77.8015980 113.0672550
  52.4341820  77.8166210 113.2420240  53.6895750  77.0151940 113.5132850
  39.7340270  83.1329610 110.2885450  38.8080050  83.3750750 110.2790860
  40.1996700  83.9603870 110.1670200  45.9597100  86.2386350 106.2369510
  46.7525710  86.5275180 105.7851300  45.4401450  85.8078520 105.5581990
  50.6917700  82.3581980 123.5504930  50.0855860  82.3813580 122.8100680
  50.3871810  81.6265020 124.0872180  52.1218070  86.0862270 122.1614340
  53.0739820  86.0020290 122.1114580  51.9746290  86.7503980 122.8348130
  55.0127270  85.4656480 107.6606250  54.7268780  85.0521620 106.8460430
  54.8146820  86.3944190 107.5406770  39.5750880  78.7375570 122.5465570
  40.0789900  78.1582850 123.1181800  38.8358300  79.0215800 123.0841940
  46.4774500  81.4589760 106.1011860  46.3725140  80.8442110 106.8273240
  46.3098720  80.9355650 105.3174870  49.7177230  80.5209790 106.7053850
  49.1687330  80.9679090 107.3496590  50.3396490  80.0159040 107.2291520
  53.7712170  81.8751890 122.6376110  54.5121640  82.2127650 122.1343570
  53.0084850  82.0443950 122.0845880  45.3852350  79.4800710 108.6019150
  45.8068770  79.3140580 109.4450540  45.5103190  78.6700940 108.1074290
  47.8979990  78.5038320 105.8496250  48.4185650  77.7887340 105.4837400
  48.5448390  79.1424190 106.1496760  52.4457830  79.9266720 121.1731320
  52.8598850  80.0811800 122.0221740  51.5108830  80.0521940 121.3357100
  52.9180000  77.2662880 123.1770470  53.5000770  76.5115200 123.0890950
  53.0941770  77.7970320 122.4001950  46.8013510  70.9832870 118.5214810
  46.3530810  71.0057130 117.6760360  46.1678710  70.5851890 119.1185110
  49.5436960  77.6103380 120.5265090  49.6633170  77.0144520 121.2659930
  50.4030960  77.6473070 120.1066390  51.8824860  78.1640570 119.1027600
  51.3560080  78.6883190 118.4992740  52.2256200  78.7967960 119.7337330
  44.2811250  75.5533940 105.5477310  44.0800310  74.6901300 105.9090650
  44.1103300  75.4667300 104.6098910  43.0794050  72.6534560 105.5355190
  43.3819950  72.6601990 104.6274340  43.8188640  72.3032420 106.0322850
  48.4628020  86.5849930 108.1397990  49.3578810  86.9234900 108.1616750
  48.4945650  85.8629340 107.5122270  42.1024180  81.9576980 106.3684990
  42.5399050  82.5006650 107.0242570  42.5871910  81.1323930 106.3781330
  39.3169980  84.7466010 113.8205250  39.6472990  83.8787070 113.5883890
  39.7460980  84.9524530 114.6510210  43.9131900  83.0775020 111.4807220
  43.6127440  82.9539990 112.3811130  43.8069390  82.2183610 111.0722950
  39.8060190  85.6136600 116.5586880  39.3691180  85.7937400 117.3911030
  40.3737870  86.3711220 116.4168600  55.4422370  85.1153600 120.8464190
  54.8424360  85.1746160 120.1028110  55.5716270  84.1758580 120.9761040
  56.6823820  82.8571420 106.1833900  55.8516780  82.9248070 106.6541130
  56.8595650  83.7475540 105.8800760  56.1380280  79.6018900 108.6868100
  56.8999190  80.1715550 108.7927790  56.1534650  79.0346100 109.4576410
  39.6384620  78.1256830 112.9175760  38.9833460  77.8568470 112.2735460
  40.4762570  78.0161310 112.4677740  57.1440250  80.4569000 113.5310030
  57.5149080  79.6736320 113.1246000  57.7842180  81.1458100 113.3527330
  54.1274010  81.8405580 118.9440350  53.3133850  82.2702740 119.2066140
  54.5348210  82.4523990 118.3309400  56.0864790  77.8322260 110.8370050
  55.7108390  77.0650190 110.4051340  55.3567910  78.2144960 111.3244980
  40.6760550  78.5109400 117.4579100  41.0433590  78.4236800 118.3375120
  40.1071370  77.7475950 117.3585960  55.4764410  76.9793780 120.4709570
  55.2450500  76.7506530 119.5707520  55.7368960  77.8993330 120.4254460
  38.8522700  75.3355760 108.8601090  37.9486780  75.5985960 108.6852750
  39.3363320  75.6066930 108.0801050  55.3615750  76.0579750 114.1377290
  55.8853230  75.5642400 113.5067460  55.9475170  76.1930110 114.8824860
  55.5405470  76.1419620 117.6596840  54.5908180  76.1083160 117.7741830
  55.7218480  77.0519730 117.4246610  41.3949910  74.3921300 106.7695470
  42.1041610  73.9704520 106.2842750  40.6789850  74.4596530 106.1378820
  41.0424070  70.4460630 105.8098120  41.7652200  70.9869570 106.1279340
  41.3148590  70.1724050 104.9339660  54.6268600  69.8908180 119.0690380
  55.2640820  70.5042320 119.4349570  54.7743490  69.9268840 118.1239610
  40.4848260  69.8522490 118.4546060  40.1363080  70.3086310 119.2204240
  40.1535960  68.9579620 118.5368490  42.0912630  83.0242090 122.6199250
  42.0482260  82.6535000 123.5013710  42.2223640  83.9619660 122.7601070
  57.0522820  86.5996060 119.0219610  56.5581100  86.9964930 118.3046740
  56.4436110  85.9745270 119.4156890  41.1568900  69.3798690 121.7296830
  41.7051890  69.1986740 120.9662940  41.2224210  68.5892800 122.2653140
  51.3755680  69.2636570 117.9427060  50.5015520  69.5971680 117.7399990
  51.2666430  68.7909750 118.7678930  41.5612890  83.3362720 118.6905070
  40.8346950  82.7168010 118.6231020  41.6222040  83.7303330 117.8203150
  47.9053490  86.4416210 116.3023460  48.1931300  86.1870510 115.4256470
  48.4176710  85.8893570 116.8929030  49.1230500  70.1806410 116.8819970
  48.3402290  70.6551910 117.1616730  48.8293430  69.2761240 116.7733150
  53.6751570  70.8829510 114.9269060  54.1159660  70.8274610 114.0790660
  53.4059160  71.7987520 114.9979240  51.5109700  69.2635610 113.6319070
  52.1139070  69.8355820 114.1067590  50.7702690  69.8275050 113.4092970
  41.4505590  85.3470340 109.3451970  40.9253210  85.7278370 108.6413930
  41.3750170  85.9721110 110.0661680  45.1589460  70.0277060 123.4333540
  44.8773730  70.5310660 122.6694360  45.5409160  69.2298810 123.0675670
  44.0498560  87.2952720 108.2201220  44.7817380  87.0112000 107.6725110
  44.3092230  87.0566000 109.1100600  43.2113350  83.4117450 108.2247550
  42.5822230  83.8802550 108.7733380  43.3261180  82.5666670 108.6593740
  54.5403410  86.5902170 123.4932700  55.3328730  86.0951400 123.2858660
  54.8336560  87.2692310 124.1008310  48.7981110  79.2402130  96.2558020
  48.0223210  78.7602570  96.5456590  49.4494040  78.5607780  96.0814180
  42.8146940  79.5521940  97.1333780  41.9831820  79.2970650  97.5330290
  43.4227920  79.6232710  97.8691700  52.8188540  83.6462320  95.0357150
  52.3570070  82.8749560  95.3644320  53.6314090  83.6728390  95.5409600
  42.7948200  83.5862030  97.3291800  43.0976240  82.6959770  97.1502020
  43.5391790  84.1432250  97.1014050  41.2238890  74.5123830  90.9176170
  40.3355590  74.8539800  90.8156050  41.5080080  74.3124150  90.0257000
  49.0451850  85.9320330  94.6561140  48.4263290  86.3877830  94.0855580
  49.9003630  86.0871790  94.2550840  48.2390100  81.9159320  96.2628180
  48.1698380  80.9749260  96.1017310  49.0009960  82.0060730  96.8350750
  40.4296770  72.5213840  98.5884800  40.2499610  71.6239590  98.8687560
  40.0276850  73.0685710  99.2631750  49.2695270  74.7229700  96.4897110
  49.6460090  73.8501580  96.3770780  49.1714780  75.0588400  95.5987550
  43.4000280  73.0955330  91.9514550  43.5067030  73.9959060  92.2583310
  42.4892640  73.0473300  91.6609200  53.0519390  72.2180140  93.4225450
  53.8729010  71.7276710  93.4650930  53.0853470  72.8077800  94.1757290
  45.2408010  76.0641700  96.2839730  45.7486230  76.5622670  96.9244750
  45.7721250  75.2876900  96.1079090  43.5244110  70.7040260 100.5503150
  43.5262550  71.2212650  99.7449050  42.6948420  70.2270440 100.5273080
  49.9115200  80.8159570  92.0493050  49.2932470  81.2809020  91.4855770
  50.4238450  81.5087050  92.4662560  44.7746960  80.3435440  98.7276650
  44.4416340  80.9704360  99.3697720  44.9513640  80.8697320  97.9478320
  43.2059440  72.4150220  98.5573600  43.5476250  73.2592270  98.2627470
  42.2675250  72.5633960  98.6738940  43.9866060  82.3116240 100.5425830
  44.6040060  82.9867320 100.2610280  43.1259180  82.7204220 100.4513330
  54.9043650  83.7755650  98.4580470  54.2207170  84.4454760  98.4497140
  55.4437940  83.9736300  97.6925330  52.4402390  85.6199780  97.1725650
  52.4529550  85.2162070  96.3047910  51.8877610  86.3947070  97.0687080
  53.7347810  82.3416000  92.2615820  53.6244140  81.3990330  92.3865240
  53.7316060  82.7031640  93.1478580  51.8387830  80.5229620  98.5008260
  52.2556620  80.3089730  97.6661720  52.5627650  80.7802410  99.0716880
  49.2637170  74.2398320  88.6145470  48.3240840  74.4012280  88.6997930
  49.5820430  74.9584000  88.0681460  55.7849930  78.9216840  98.5924500
  54.9568560  78.9909930  98.1174630  56.3800410  79.5071150  98.1240330
  52.7491940  75.7086160  99.5379370  52.3363120  76.5339870  99.7919360
  52.0167890  75.1231200  99.3455730  44.8824730  78.4946060  94.3998040
  44.4781730  77.7823310  93.9043940  44.9687850  78.1499300  95.2886080
  45.3506430  82.1813620  96.5637250  45.0534720  81.5759090  95.8845030
  46.3006250  82.2190930  96.4526610  43.5953350  75.2689270  98.1797080
  44.1467940  75.3784610  97.4050330  44.1096860  75.6426870  98.8952310
  53.4392040  85.7545490 100.2260350  52.9622600  86.5617680 100.0332960
  52.7553830  85.1023820 100.3786560  44.4424860  81.9195310 103.2145050
  43.5453390  82.1435280 103.4618450  44.4677730  82.0430250 102.2656450
  49.5925460  83.7084500  93.0967550  50.0321370  84.4508830  92.6822940
  49.5312350  83.9511070  94.0206510  45.0676430  84.7330330 103.9987570
  45.0391860  85.1373280 103.1316000  44.9041400  83.8040690 103.8359170
  55.0647220  70.0231240  87.4427350  54.7519880  70.1158070  88.3426420
  55.8259690  70.6012270  87.3924780  57.0191250  85.5157430 105.2951740
  57.4950970  85.9940320 105.9740820  57.6398410  85.4474920 104.5697240
  56.4224500  82.7070280 102.4551750  56.5487560  82.4682160 101.5368930
  56.4645880  81.8754820 102.9273830  44.7384020  86.4752150  92.2302180
  44.5626500  85.5587690  92.0169980  43.8839760  86.8339440  92.4699980
  39.2774250  81.6020350 100.2467790  39.4405290  81.1325710  99.4287160
  39.7426700  81.0943910 100.9116630  44.0493020  70.7326110  95.2828360
  43.6061170  71.5135650  94.9512880  44.6078010  71.0556000  95.9899300
  48.3362830  73.5994630 100.8863680  47.8742200  73.8077650 101.6983620
  47.9340940  72.7853980 100.5834350  50.4317050  76.3205330 104.1159130
  50.7570460  75.4869080 103.7761360  51.2197380  76.8433850 104.2637460
  46.0868920  71.2773440  97.1417960  46.3841250  72.1836270  97.0609980
  46.6354480  70.7892220  96.5277530  43.8407240  75.8559680  93.0109610
  43.6148160  75.6396850  93.9156230  43.0599770  76.2888140  92.6655580
  49.6769870  74.4986590  93.6403540  50.0699440  74.8158790  92.8272230
  50.0386720  73.6198470  93.7548060  41.4116990  73.1658930 101.8303660
  41.0180380  74.0134140 102.0376440  40.7235390  72.5285300 102.0212300
  47.9862040  73.2493900 104.9000400  47.2960360  73.0566100 105.5346490
  48.7294340  73.5328540 105.4324700  38.9004270  75.0307510  87.0736460
  38.8178940  75.9738270  87.2151450  38.5487330  74.8882420  86.1948810
  50.2625010  77.0892340  97.7354320  49.5306130  77.5979150  98.0844420
  49.8649350  76.2722320  97.4343100  46.7002400  73.7646540  96.1406810
  46.7038460  73.3236490  95.2911350  47.5953520  74.0863870  96.2478630
  42.5504780  73.6473030  95.1001020  42.2104830  74.1248260  95.8568070
  41.7882100  73.1938150  94.7402120  46.7622550  74.7658620  89.1313570
  46.8835370  74.7245100  90.0799390  46.3771060  75.6282770  88.9760300
  50.7250920  72.5426020  97.1477260  50.7423660  72.9934670  97.9919110
  50.4766500  71.6431660  97.3610700  45.7744050  77.0759760  88.5296870
  45.2060950  76.6278010  87.9032780  46.4833050  77.4352540  87.9962020
  40.8513230  80.9771780 102.4063600  40.4668020  80.3365450 103.0046560
  41.1625420  81.6807900 102.9758330  47.0010370  77.8248320  97.8872220
  47.3680500  77.3506890  98.6333560  46.8115430  78.6989890  98.2280560
  44.7909740  76.8656960 100.2056430  44.4866810  77.7448940 100.4306790
  45.7456200  76.9256750 100.2413870  54.0779510  80.0683310  96.5949670
  54.7978630  80.5638600  96.2045780  53.8761330  79.3901200  95.9503540
  49.4598310  80.1392370 102.4818670  49.3935620  79.2188040 102.2276260
  48.8303450  80.2367810 103.1963310  48.2498430  82.0064610  89.7129390
  48.5914130  82.7506840  89.2172710  47.4211140  82.3195730  90.0754220
  49.3915040  82.9612940 102.2322470  49.4059580  82.0293900 102.0141380
  48.6840140  83.0472700 102.8712240  55.5539360  83.9995020  91.2303210
  54.9115520  83.3450640  91.5046930  55.1670020  84.4050110  90.4543880
  51.1325840  81.3280450  95.0774900  51.4849660  80.7308580  94.4176270
  50.2488170  81.0024680  95.2483150  47.2189120  82.0878140  92.4845310
  47.9060250  82.6347350  92.8652900  46.4321540  82.6318870  92.5194920
  39.3581520  77.7050960  87.9762390  40.2276370  77.9875760  88.2598310
  38.8671840  78.5186830  87.8611200  46.5216330  79.0924170  92.0970670
  46.9779110  79.9029420  92.3230860  46.1704540  78.7747310  92.9289160
  48.8248940  84.6030510  99.3262970  49.4691160  84.8089890 100.0036390
  49.1878380  83.8418910  98.8733820  42.4228110  69.4361820  92.5693190
  42.2942740  69.4279720  93.5178110  41.5990130  69.7744910  92.2184200
  50.0981020  82.6062860  98.0440420  50.7403250  81.9056020  98.1572590
  50.6230370  83.3861300  97.8637310  53.9436740  82.8911480  87.7679560
  53.7174320  82.1741920  88.3604200  53.5532940  82.6423920  86.9301310
  51.8718640  83.4057760 101.2476480  52.2074880  83.9924450 101.9254400
  50.9518980  83.2750470 101.4774270  39.4222040  71.1952940 102.0299890
  38.7080560  71.3949860 102.6352500  39.8417080  70.4192510 102.4014690
  53.5252990  80.8083420  89.4293720  53.2374690  81.2696110  90.2171600
  54.3205160  80.3481190  89.6977940  39.7094630  85.1833200 103.0166420
  39.8185750  84.2427940 102.8761810  39.0575190  85.4487950 102.3680150
  47.7007220  83.4549090 104.4164540  47.3804090  82.7358330 104.9610230
  47.0265580  84.1304160 104.4900600  45.7421390  84.3009540  89.3597690
  45.7331490  85.0339230  88.7442200  44.8219750  84.0541120  89.4524650
  50.9160820  73.6875250  99.7801340  51.2841640  72.8670460 100.1080910
  50.0559020  73.7477140 100.1956990  54.2822850  72.6432190  90.5888900
  53.6536010  72.7477860  89.8747130  53.7874770  72.8628970  91.3782780
  46.2506880  74.9218140  92.0046780  45.5423030  75.3904480  92.4460390
  46.5351360  74.2640150  92.6391970  47.8762810  76.3414840 100.0039310
  48.3748060  76.8160660 100.6691160  48.0185760  75.4178360 100.2109340
  47.3699100  86.8824100  92.7170550  47.6240600  86.8445490  91.7949920
  46.4211580  86.7557430  92.7098800  44.4541900  73.2303220  89.3797490
  45.3032430  73.6673370  89.3137680  44.0873170  73.5423480  90.2069550
  43.3533320  79.4835580  87.8533020  44.1196590  79.3716940  88.4158450
  43.4308010  78.7873550  87.2009790  42.0480080  76.9160650  88.5365910
  42.1283670  75.9688160  88.6483310  42.9399830  77.2467530  88.6426570
  55.3777260  84.9724830  95.9683320  55.5024680  85.7956000  96.4407130
  56.2442820  84.7615560  95.6207470  42.8494790  87.0656040  95.6400450
  43.5857270  86.5171500  95.9109020  43.2335710  87.9312050  95.5006440
  41.8553070  86.2502110 104.8286030  42.6565800  86.5714160 105.2421430
  41.3404890  85.8897690 105.5505940  50.6917700  82.3581980 104.7761440
  50.0855860  82.3813580 104.0357190  50.3871810  81.6265020 105.3128690
  52.1218070  86.0862270 103.3870850  53.0739820  86.0020290 103.3371090
  51.9746290  86.7503980 104.0604640  39.5750880  78.7375570 103.7722080
  40.0789900  78.1582850 104.3438310  38.8358300  79.0215800 104.3098450
  46.4774500  81.4589760  87.3268370  46.3725140  80.8442110  88.0529750
  46.3098720  80.9355650  86.5431380  49.7177230  80.5209790  87.9310360
  49.1687330  80.9679090  88.5753100  50.3396490  80.0159040  88.4548030
  53.7712170  81.8751890 103.8632620  54.5121640  82.2127650 103.3600080
  53.0084850  82.0443950 103.3102390  41.6073960  76.8805160 104.6672150
  41.6479300  76.5819030 105.5757380  42.4619460  77.2812770 104.5079670
  45.3852350  79.4800710  89.8275660  45.8068770  79.3140580  90.6707050
  45.5103190  78.6700940  89.3330800  43.5479770  75.4597260 102.6346640
  43.0176230  74.9688210 102.0069980  44.2167840  75.8881460 102.1004570
  47.8979990  78.5038320  87.0752760  48.4185650  77.7887340  86.7093910
  48.5448390  79.1424190  87.3753270  52.4457830  79.9266720 102.3987830
  52.8598850  80.0811800 103.2478250  51.5108830  80.0521940 102.5613610
  52.9180000  77.2662880 104.4026980  53.5000770  76.5115200 104.3147460
  53.0941770  77.7970320 103.6258460  44.0352070  72.4259630 102.7143930
  43.9408940  71.8080380 101.9894800  43.4549460  73.1525920 102.4873840
  46.8013510  70.9832870  99.7471320  46.3530810  71.0057130  98.9016870
  46.1678710  70.5851890 100.3441620  47.2073060  79.8787200 100.3683760
  47.6261170  80.7219930 100.1960000  46.2881690  80.0159240 100.1390540
  49.5436960  77.6103380 101.7521600  49.6633170  77.0144520 102.4916440
  50.4030960  77.6473070 101.3322900  51.8824860  78.1640570 100.3284110
  51.3560080  78.6883190  99.7249250  52.2256200  78.7967960 100.9593840
  44.2811250  75.5533940  86.7733820  44.0800310  74.6901300  87.1347160
  44.1103300  75.4667300  85.8355420  46.3105730  74.1524730 103.0097420
  46.9005420  73.8440580 103.6975240  45.4925970  73.6804480 103.1657320
  51.1299160  73.7690540 103.2430440  50.4414680  73.1072080 103.1780430
  51.8505180  73.3228810 103.6878900  43.0794050  72.6534560  86.7611700
  43.3819950  72.6601990  85.8530850  43.8188640  72.3032420  87.2579360
  43.9131900  83.0775020  92.7063730  43.6127440  82.9539990  93.6067640
  43.8069390  82.2183610  92.2979460  39.8060190  85.6136600  97.7843390
  39.3691180  85.7937400  98.6167540  40.3737870  86.3711220  97.6425110
  55.4422370  85.1153600 102.0720700  54.8424360  85.1746160 101.3284620
  55.5716270  84.1758580 102.2017550  56.6823820  82.8571420  87.4090410
  55.8516780  82.9248070  87.8797640  56.8595650  83.7475540  87.1057270
  54.1274010  81.8405580 100.1696860  53.3133850  82.2702740 100.4322650
  54.5348210  82.4523990  99.5565910  56.1899450  79.8953270  87.0697130
  56.4648290  80.8032150  86.9416350  56.0010190  79.8315800  88.0059120
  52.5875060  72.9198120  88.3650760  53.0059940  72.7329100  87.5247420
  52.2811120  72.0677170  88.6753690  40.2276550  75.4218490 102.5894030
  39.3332600  75.3885250 102.9287740  40.7674100  75.6205280 103.3545280
  41.3949910  74.3921300  87.9951980  42.1041610  73.9704520  87.5099260
  40.6789850  74.4596530  87.3635330  41.0424070  70.4460630  87.0354630
  41.7652200  70.9869570  87.3535850  41.3148590  70.1724050  86.1596170
  40.7316260  69.6966820  96.9377250  41.3792450  69.1464200  96.4972410
  41.1518100  69.9509970  97.7593060  57.1693150  71.7821970  87.0770030
  58.0942460  71.6503150  86.8688320  57.1468940  71.8614790  88.0306480
  57.2431640  72.5532630  89.7026740  56.4483140  72.4877750  90.2319650
  57.4474920  73.4883270  89.6912090  54.1850060  86.5924180  93.6965130
  54.7809130  86.2708750  93.0199550  54.4428210  86.1196000  94.4878400
  40.4848260  69.8522490  99.6802570  40.1363080  70.3086310 100.4460750
  40.1535960  68.9579620  99.7625000  42.0912630  83.0242090 103.8455760
  42.0482260  82.6535000 104.7270220  42.2223640  83.9619660 103.9857580
  45.7918660  84.5801680  99.4465480  45.5510020  84.8476240  98.5596000
  46.7321300  84.7507410  99.5016340  47.9973080  71.0434370 103.2021990
  47.9361970  71.6356200 103.9517400  48.9373460  70.9360330 103.0572250
  50.6347640  70.7004430 102.8414280  51.2488050  71.0183720 102.1795360
  51.1797200  70.2153020 103.4610140  57.0522820  86.5996060 100.2476120
  56.5581100  86.9964930  99.5303250  56.4436110  85.9745270 100.6413400
  41.1568900  69.3798690 102.9553340  41.7051890  69.1986740 102.1919450
  41.2224210  68.5892800 103.4909650  51.3755680  69.2636570  99.1683570
  50.5015520  69.5971680  98.9656500  51.2666430  68.7909750  99.9935440
  54.7362270  87.2419480  97.5262860  54.2765240  87.9935290  97.1520880
  54.1074730  86.5225950  97.4677660  41.5612890  83.3362720  99.9161580
  40.8346950  82.7168010  99.8487530  41.6222040  83.7303330  99.0459660
  45.1657990  85.5507720  96.7010990  45.6823010  84.9395080  96.1759250
  45.8155370  86.0536500  97.1922000  47.9053490  86.4416210  97.5279970
  48.1931300  86.1870510  96.6512980  48.4176710  85.8893570  98.1185540
  49.1230500  70.1806410  98.1076480  48.3402290  70.6551910  98.3873240
  48.8293430  69.2761240  97.9989660  53.6751570  70.8829510  96.1525570
  54.1159660  70.8274610  95.3047170  53.4059160  71.7987520  96.2235750
  55.5390140  70.5144750  94.1634390  55.4778540  69.5705970  94.0165410
  56.3182170  70.6224840  94.7087850  40.4670910  70.4853890  90.6290200
  41.2250270  70.5982770  90.0554230  40.0048080  71.3223090  90.5833630
  47.0084720  72.5993160  93.6192510  46.1959230  72.2250050  93.2788390
  47.5126360  71.8438240  93.9213700  54.6544300  69.6657170  90.1315860
  54.8494930  70.5640620  90.3983290  53.8674170  69.4344250  90.6248810
  42.8396060  71.0117940  89.1692170  43.3688820  70.2247740  89.0400120
  43.4724380  71.6909130  89.4027700  45.0333900  70.7493080  92.2237560
  44.4036640  70.0480390  92.3907690  44.4939040  71.5097210  92.0070720
  47.9725850  87.3632310 104.8948170  48.8993160  87.1276580 104.9384130
  47.9576280  88.1904310 104.4134200  56.2070910  86.9057880  91.8922420
  56.3823100  86.2195620  91.2483340  55.5092480  87.4304930  91.4999090
  54.5403410  86.5902170 104.7189210  55.3328730  86.0951400 104.5115170
  54.8336560  87.2692310 105.3264820  50.6663070  77.4623110  75.6005260
  50.5857120  76.5477720  75.3296970  50.2527490  77.9590180  74.8944970
  48.7981110  79.2402130  77.4814530  48.0223210  78.7602570  77.7713100
  49.4494040  78.5607780  77.3070690  42.8146940  79.5521940  78.3590290
  41.9831820  79.2970650  78.7586800  43.4227920  79.6232710  79.0948210
  52.8188540  83.6462320  76.2613660  52.3570070  82.8749560  76.5900830
  53.6314090  83.6728390  76.7666110  42.7948200  83.5862030  78.5548310
  43.0976240  82.6959770  78.3758530  43.5391790  84.1432250  78.3270560
  41.2238890  74.5123830  72.1432680  40.3355590  74.8539800  72.0412560
  41.5080080  74.3124150  71.2513510  39.1871900  77.1129480  78.0272380
  39.7588010  76.3451680  78.0276020  39.1873440  77.4118240  77.1178990
  48.2390100  81.9159320  77.4884690  48.1698380  80.9749260  77.3273820
  49.0009960  82.0060730  78.0607260  40.4296770  72.5213840  79.8141310
  40.2499610  71.6239590  80.0944070  40.0276850  73.0685710  80.4888260
  43.4000280  73.0955330  73.1771060  43.5067030  73.9959060  73.4839820
  42.4892640  73.0473300  72.8865710  41.0483440  75.0174340  78.4223650
  41.7293550  75.2812710  79.0411050  40.7331490  74.1775210  78.7561660
  45.2408010  76.0641700  77.5096240  45.7486230  76.5622670  78.1501260
  45.7721250  75.2876900  77.3335600  57.3418940  74.2346890  81.2125590
  56.6371110  74.6228600  80.6940700  57.6076860  74.9297180  81.8146520
  43.5244110  70.7040260  81.7759660  43.5262550  71.2212650  80.9705560
  42.6948420  70.2270440  81.7529590  49.9115200  80.8159570  73.2749560
  49.2932470  81.2809020  72.7112280  50.4238450  81.5087050  73.6919070
  44.7746960  80.3435440  79.9533160  44.4416340  80.9704360  80.5954230
  44.9513640  80.8697320  79.1734830  53.2880870  74.1580520  77.4209500
  52.5836440  74.4465410  78.0012610  53.6493030  74.9680630  77.0609060
  43.9866060  82.3116240  81.7682340  44.6040060  82.9867320  81.4866790
  43.1259180  82.7204220  81.6769840  39.2798400  81.5016100  70.6489190
  38.9026380  81.9903200  69.9174090  39.5371470  82.1741380  71.2795720
  56.3567790  73.6035310  77.8118710  55.4092700  73.6374290  77.9434140
  56.6817780  74.4174260  78.1968070  52.4402390  85.6199780  78.3982160
  52.4529550  85.2162070  77.5304420  51.8877610  86.3947070  78.2943590
  53.7347810  82.3416000  73.4872330  53.6244140  81.3990330  73.6121750
  53.7316060  82.7031640  74.3735090  51.8387830  80.5229620  79.7264770
  52.2556620  80.3089730  78.8918230  52.5627650  80.7802410  80.2973390
  49.2768090  77.9681320  72.8434820  48.3497370  77.9018700  73.0723290
  49.4292910  78.9061450  72.7290060  53.3065380  79.5301620  73.3470070
  52.6877800  79.1921170  72.6996370  53.2889830  78.8861380  74.0549260
  52.7491940  75.7086160  80.7635880  52.3363120  76.5339870  81.0175870
  52.0167890  75.1231200  80.5712240  44.8824730  78.4946060  75.6254550
  44.4781730  77.7823310  75.1300450  44.9687850  78.1499300  76.5142590
  45.3506430  82.1813620  77.7893760  45.0534720  81.5759090  77.1101540
  46.3006250  82.2190930  77.6783120  43.5953350  75.2689270  79.4053590
  44.1467940  75.3784610  78.6306840  44.1096860  75.6426870  80.1208820
  53.4392040  85.7545490  81.4516860  52.9622600  86.5617680  81.2589470
  52.7553830  85.1023820  81.6043070  44.4424860  81.9195310  84.4401560
  43.5453390  82.1435280  84.6874960  44.4677730  82.0430250  83.4912960
  51.4830080  78.7688430  70.3542820  51.9223360  77.9310860  70.2080640
  52.1958500  79.4017830  70.4406960  43.2696080  78.7908630  83.0158930
  43.1303850  79.6631430  83.3846330  42.3877440  78.4481440  82.8706870
  55.0647220  70.0231240  68.6683860  54.7519880  70.1158070  69.5682930
  55.8259690  70.6012270  68.6181290  41.5829360  77.3891040  73.1261200
  41.4626960  78.1153130  72.5142470  41.2730250  76.6193950  72.6489110
  57.0191250  85.5157430  86.5208250  57.4950970  85.9940320  87.1997330
  57.6398410  85.4474920  85.7953750  39.2214730  80.5606180  78.9329840
  39.2995150  80.6954950  77.9885560  39.8356410  79.8522070  79.1257960
  40.4662360  82.2606370  75.3436020  40.0590440  82.4020960  74.4889620
  41.3575370  81.9766530  75.1407230  50.2841240  86.4098280  82.2503070
  50.7985910  86.3206290  83.0525500  49.4410320  86.7557980  82.5430980
  52.2595640  86.6953620  71.6787070  52.0996780  86.4056560  72.5768900
  52.0942350  85.9193750  71.1432300  44.7384020  86.4752150  73.4558690
  44.5626500  85.5587690  73.2426490  43.8839760  86.8339440  73.6956490
  51.9621770  84.2041180  70.2385070  51.2686930  84.2018470  69.5787350
  52.7044630  83.7800500  69.8079240  56.2748510  74.7602740  84.6458000
  55.6592780  75.2682410  84.1173460  55.9544930  73.8601070  84.5883940
  39.2774250  81.6020350  81.4724300  39.4405290  81.1325710  80.6543670
  39.7426700  81.0943910  82.1373140  48.3362830  73.5994630  82.1120190
  47.8742200  73.8077650  82.9240130  47.9340940  72.7853980  81.8090860
  53.3367340  74.8203580  83.2416850  52.4860930  74.5209330  83.5625920
  53.1769130  75.0645590  82.3300670  50.4317050  76.3205330  85.3415640
  50.7570460  75.4869080  85.0017870  51.2197380  76.8433850  85.4893970
  43.8407240  75.8559680  74.2366120  43.6148160  75.6396850  75.1412740
  43.0599770  76.2888140  73.8912090  46.2806450  76.7545260  84.9026390
  46.1850050  75.8139990  84.7526790  47.1238430  76.9760330  84.5074460
  41.4116990  73.1658930  83.0560170  41.0180380  74.0134140  83.2632950
  40.7235390  72.5285300  83.2468810  47.9862040  73.2493900  86.1256910
  47.2960360  73.0566100  86.7603000  48.7294340  73.5328540  86.6581210
  38.7134040  71.0887390  77.0890250  38.4247090  71.6590250  77.8015230
  39.4579800  70.6091840  77.4521480  38.9004270  75.0307510  68.2992970
  38.8178940  75.9738270  68.4407960  38.5487330  74.8882420  67.4205320
  50.2625010  77.0892340  78.9610830  49.5306130  77.5979150  79.3100930
  49.8649350  76.2722320  78.6599610  42.5504780  73.6473030  76.3257530
  42.2104830  74.1248260  77.0824580  41.7882100  73.1938150  75.9658630
  46.7622550  74.7658620  70.3570080  46.8835370  74.7245100  71.3055900
  46.3771060  75.6282770  70.2016810  45.7744050  77.0759760  69.7553380
  45.2060950  76.6278010  69.1289290  46.4833050  77.4352540  69.2218530
  54.1521670  69.9558200  84.2120150  54.4767440  69.2247860  84.7378130
  54.1878180  69.6371840  83.3101140  40.8513230  80.9771780  83.6320110
  40.4668020  80.3365450  84.2303070  41.1625420  81.6807900  84.2014840
  47.0010370  77.8248320  79.1128730  47.3680500  77.3506890  79.8590070
  46.8115430  78.6989890  79.4537070  39.8650860  72.5692010  75.2422200
  39.5797780  72.2047680  76.0800820  39.8029720  71.8372470  74.6285340
  44.7909740  76.8656960  81.4312940  44.4866810  77.7448940  81.6563300
  45.7456200  76.9256750  81.4670380  43.3191530  81.0717950  72.0279790
  42.5453790  80.5315570  71.8678510  44.0486160  80.5524560  71.6897550
  54.0779510  80.0683310  77.8206180  54.7978630  80.5638600  77.4302290
  53.8761330  79.3901200  77.1760050  49.4598310  80.1392370  83.7075180
  49.3935620  79.2188040  83.4532770  48.8303450  80.2367810  84.4219820
  43.3628930  80.7398330  75.6658600  43.8807600  79.9366590  75.6115490
  42.9112950  80.6777470  76.5075430  48.2498430  82.0064610  70.9385900
  48.5914130  82.7506840  70.4429220  47.4211140  82.3195730  71.3010730
  40.8473470  77.7059700  82.5784300  40.4888410  78.3713550  83.1657640
  40.5528030  76.8743250  82.9496920  44.0486590  78.1643940  85.4623850
  43.7486730  78.3101120  84.5651670  44.8197830  77.6049230  85.3697240
  49.3915040  82.9612940  83.4578980  49.4059580  82.0293900  83.2397890
  48.6840140  83.0472700  84.0968750  55.5539360  83.9995020  72.4559720
  54.9115520  83.3450640  72.7303440  55.1670020  84.4050110  71.6800390
  51.1325840  81.3280450  76.3031410  51.4849660  80.7308580  75.6432780
  50.2488170  81.0024680  76.4739660  47.2189120  82.0878140  73.7101820
  47.9060250  82.6347350  74.0909410  46.4321540  82.6318870  73.7451430
  39.3581520  77.7050960  69.2018900  40.2276370  77.9875760  69.4854820
  38.8671840  78.5186830  69.0867710  46.5216330  79.0924170  73.3227180
  46.9779110  79.9029420  73.5487370  46.1704540  78.7747310  74.1545670
  48.8248940  84.6030510  80.5519480  49.4691160  84.8089890  81.2292900
  49.1878380  83.8418910  80.0990330  42.4228110  69.4361820  73.7949700
  42.2942740  69.4279720  74.7434620  41.5990130  69.7744910  73.4440710
  50.0981020  82.6062860  79.2696930  50.7403250  81.9056020  79.3829100
  50.6230370  83.3861300  79.0893820  53.9436740  82.8911480  68.9936070
  53.7174320  82.1741920  69.5860710  53.5532940  82.6423920  68.1557820
  51.8718640  83.4057760  82.4732990  52.2074880  83.9924450  83.1510910
  50.9518980  83.2750470  82.7030780  39.7252770  86.9178340  69.7680530
  40.0850410  87.5167680  69.1137800  39.5845110  87.4638230  70.5415560
  39.4222040  71.1952940  83.2556400  38.7080560  71.3949860  83.8609010
  39.8417080  70.4192510  83.6271200  53.5252990  80.8083420  70.6550230
  53.2374690  81.2696110  71.4428110  54.3205160  80.3481190  70.9234450
  39.7094630  85.1833200  84.2422930  39.8185750  84.2427940  84.1018320
  39.0575190  85.4487950  83.5936660  47.7007220  83.4549090  85.6421050
  47.3804090  82.7358330  86.1866740  47.0265580  84.1304160  85.7157110
  45.7421390  84.3009540  70.5854200  45.7331490  85.0339230  69.9698710
  44.8219750  84.0541120  70.6781160  41.3428030  79.5224430  71.3300960
  40.7355980  80.2623330  71.3396260  41.8177380  79.6123790  70.5039160
  50.9160820  73.6875250  81.0057850  51.2841640  72.8670460  81.3337420
  50.0559020  73.7477140  81.4213500  48.7280990  84.3637780  69.2479390
  48.8292970  84.1601770  68.3181370  47.8282730  84.1096060  69.4527170
  47.8762810  76.3414840  81.2295820  48.3748060  76.8160660  81.8947670
  48.0185760  75.4178360  81.4365850  44.4541900  73.2303220  70.6054000
  45.3032430  73.6673370  70.5394190  44.0873170  73.5423480  71.4326060
  55.0829670  72.5582800  82.0724210  54.5803270  73.2988200  82.4118020
  55.8986330  72.9466800  81.7561000  53.3751680  77.8015980  75.5185570
  52.4341820  77.8166210  75.6933260  53.6895750  77.0151940  75.9645870
  43.3533320  79.4835580  69.0789530  44.1196590  79.3716940  69.6414960
  43.4308010  78.7873550  68.4266300  42.0480080  76.9160650  69.7622420
  42.1283670  75.9688160  69.8739820  42.9399830  77.2467530  69.8683080
  55.3777260  84.9724830  77.1939830  55.5024680  85.7956000  77.6663640
  56.2442820  84.7615560  76.8463980  39.7340270  83.1329610  72.7398470
  38.8080050  83.3750750  72.7303880  40.1996700  83.9603870  72.6183220
  41.8553070  86.2502110  86.0542540  42.6565800  86.5714160  86.4677940
  41.3404890  85.8897690  86.7762450  45.9597100  86.2386350  68.6882530
  46.7525710  86.5275180  68.2364320  45.4401450  85.8078520  68.0095010
  50.6917700  82.3581980  86.0017950  50.0855860  82.3813580  85.2613700
  50.3871810  81.6265020  86.5385200  52.1218070  86.0862270  84.6127360
  53.0739820  86.0020290  84.5627600  51.9746290  86.7503980  85.2861150
  55.0127270  85.4656480  70.1119270  54.7268780  85.0521620  69.2973450
  54.8146820  86.3944190  69.9919790  39.5750880  78.7375570  84.9978590
  40.0789900  78.1582850  85.5694820  38.8358300  79.0215800  85.5354960
  46.4774500  81.4589760  68.5524880  46.3725140  80.8442110  69.2786260
  46.3098720  80.9355650  67.7687890  46.6288820  80.1446560  84.5314110
  45.8634490  80.7131560  84.4468780  46.8104780  79.8522770  83.6382340
  49.7177230  80.5209790  69.1566870  49.1687330  80.9679090  69.8009610
  50.3396490  80.0159040  69.6804540  53.7712170  81.8751890  85.0889130
  54.5121640  82.2127650  84.5856590  53.0084850  82.0443950  84.5358900
  41.6073960  76.8805160  85.8928660  41.6479300  76.5819030  86.8013890
  42.4619460  77.2812770  85.7336180  45.3852350  79.4800710  71.0532170
  45.8068770  79.3140580  71.8963560  45.5103190  78.6700940  70.5587310
  43.5479770  75.4597260  83.8603150  43.0176230  74.9688210  83.2326490
  44.2167840  75.8881460  83.3261080  47.8979990  78.5038320  68.3009270
  48.4185650  77.7887340  67.9350420  48.5448390  79.1424190  68.6009780
  52.4457830  79.9266720  83.6244340  52.8598850  80.0811800  84.4734760
  51.5108830  80.0521940  83.7870120  52.9180000  77.2662880  85.6283490
  53.5000770  76.5115200  85.5403970  53.0941770  77.7970320  84.8514970
  44.0352070  72.4259630  83.9400440  43.9408940  71.8080380  83.2151310
  43.4549460  73.1525920  83.7130350  47.2073060  79.8787200  81.5940270
  47.6261170  80.7219930  81.4216510  46.2881690  80.0159240  81.3647050
  49.5436960  77.6103380  82.9778110  49.6633170  77.0144520  83.7172950
  50.4030960  77.6473070  82.5579410  51.8824860  78.1640570  81.5540620
  51.3560080  78.6883190  80.9505760  52.2256200  78.7967960  82.1850350
  44.2811250  75.5533940  67.9990330  44.0800310  74.6901300  68.3603670
  44.1103300  75.4667300  67.0611930  46.3105730  74.1524730  84.2353930
  46.9005420  73.8440580  84.9231750  45.4925970  73.6804480  84.3913830
  51.1299160  73.7690540  84.4686950  50.4414680  73.1072080  84.4036940
  51.8505180  73.3228810  84.9135410  43.0794050  72.6534560  67.9868210
  43.3819950  72.6601990  67.0787360  43.8188640  72.3032420  68.4835870
  46.2978980  71.5969180  68.9724410  45.9500980  70.9193170  68.3926860
  46.4991750  71.1358690  69.7867800  48.4628020  86.5849930  70.5911010
  49.3578810  86.9234900  70.6129770  48.4945650  85.8629340  69.9635290
  42.1024180  81.9576980  68.8198010  42.5399050  82.5006650  69.4755590
  42.5871910  81.1323930  68.8294350  39.3169980  84.7466010  76.2718270
  39.6472990  83.8787070  76.0396910  39.7460980  84.9524530  77.1023230
  43.9131900  83.0775020  73.9320240  43.6127440  82.9539990  74.8324150
  43.8069390  82.2183610  73.5235970  39.8060190  85.6136600  79.0099900
  39.3691180  85.7937400  79.8424050  40.3737870  86.3711220  78.8681620
  55.4422370  85.1153600  83.2977210  54.8424360  85.1746160  82.5541130
  55.5716270  84.1758580  83.4274060  56.6823820  82.8571420  68.6346920
  55.8516780  82.9248070  69.1054150  56.8595650  83.7475540  68.3313780
  56.1380280  79.6018900  71.1381120  56.8999190  80.1715550  71.2440810
  56.1534650  79.0346100  71.9089430  39.6384620  78.1256830  75.3688780
  38.9833460  77.8568470  74.7248480  40.4762570  78.0161310  74.9190760
  57.1440250  80.4569000  75.9823050  57.5149080  79.6736320  75.5759020
  57.7842180  81.1458100  75.8040350  56.0864790  77.8322260  73.2883070
  55.7108390  77.0650190  72.8564360  55.3567910  78.2144960  73.7758000
  40.6760550  78.5109400  79.9092120  41.0433590  78.4236800  80.7888140
  40.1071370  77.7475950  79.8098980  55.4764410  76.9793780  82.9222590
  55.2450500  76.7506530  82.0220540  55.7368960  77.8993330  82.8767480
  40.2276550  75.4218490  83.8150540  39.3332600  75.3885250  84.1544250
  40.7674100  75.6205280  84.5801790  53.9152480  72.2050210  85.7002290
  54.7922660  72.2133610  86.0836290  53.9273320  71.4681050  85.0894640
  38.8522700  75.3355760  71.3114110  37.9486780  75.5985960  71.1365770
  39.3363320  75.6066930  70.5314070  55.3615750  76.0579750  76.5890310
  55.8853230  75.5642400  75.9580480  55.9475170  76.1930110  77.3337880
  55.5405470  76.1419620  80.1109860  54.5908180  76.1083160  80.2254850
  55.7218480  77.0519730  79.8759630  41.3949910  74.3921300  69.2208490
  42.1041610  73.9704520  68.7355770  40.6789850  74.4596530  68.5891840
  41.0424070  70.4460630  68.2611140  41.7652200  70.9869570  68.5792360
  41.3148590  70.1724050  67.3852680  40.7316260  69.6966820  78.1633760
  41.3792450  69.1464200  77.7228920  41.1518100  69.9509970  78.9849570
  56.2802880  73.9514050  75.0620400  56.1702160  73.7970090  76.0002670
  57.0410470  73.4234990  74.8195810  54.6268600  69.8908180  81.5203400
  55.2640820  70.5042320  81.8862590  54.7743490  69.9268840  80.5752630
  57.1693150  71.7821970  68.3026540  58.0942460  71.6503150  68.0944830
  57.1468940  71.8614790  69.2562990  57.2431640  72.5532630  70.9283250
  56.4483140  72.4877750  71.4576160  57.4474920  73.4883270  70.9168600
  54.1850060  86.5924180  74.9221640  54.7809130  86.2708750  74.2456060
  54.4428210  86.1196000  75.7134910  40.4848260  69.8522490  80.9059080
  40.1363080  70.3086310  81.6717260  40.1535960  68.9579620  80.9881510
  42.0912630  83.0242090  85.0712270  42.0482260  82.6535000  85.9526730
  42.2223640  83.9619660  85.2114090  45.7918660  84.5801680  80.6721990
  45.5510020  84.8476240  79.7852510  46.7321300  84.7507410  80.7272850
  47.9973080  71.0434370  84.4278500  47.9361970  71.6356200  85.1773910
  48.9373460  70.9360330  84.2828760  50.6347640  70.7004430  84.0670790
  51.2488050  71.0183720  83.4051870  51.1797200  70.2153020  84.6866650
  57.0522820  86.5996060  81.4732630  56.5581100  86.9964930  80.7559760
  56.4436110  85.9745270  81.8669910  41.1568900  69.3798690  84.1809850
  41.7051890  69.1986740  83.4175960  41.2224210  68.5892800  84.7166160
  41.9300660  85.9704340  82.1910050  41.3360980  85.8389040  82.9300090
  41.9224500  85.1342480  81.7252150  51.3755680  69.2636570  80.3940080
  50.5015520  69.5971680  80.1913010  51.2666430  68.7909750  81.2191950
  52.2827660  71.4707440  81.7781800  51.9541020  70.6559200  81.3983530
  53.2309960  71.4277250  81.6547490  54.7362270  87.2419480  78.7519370
  54.2765240  87.9935290  78.3777390  54.1074730  86.5225950  78.6934170
  41.5612890  83.3362720  81.1418090  40.8346950  82.7168010  81.0744040
  41.6222040  83.7303330  80.2716170  45.1657990  85.5507720  77.9267500
  45.6823010  84.9395080  77.4015760  45.8155370  86.0536500  78.4178510
  47.9053490  86.4416210  78.7536480  48.1931300  86.1870510  77.8769490
  48.4176710  85.8893570  79.3442050  49.1230500  70.1806410  79.3332990
  48.3402290  70.6551910  79.6129750  48.8293430  69.2761240  79.2246170
  53.6751570  70.8829510  77.3782080  54.1159660  70.8274610  76.5303680
  53.4059160  71.7987520  77.4492260  55.5390140  70.5144750  75.3890900
  55.4778540  69.5705970  75.2421920  56.3182170  70.6224840  75.9344360
  39.8442890  86.6537110  74.3514850  39.6764930  86.0207790  75.0496740
  38.9777400  86.8596510  74.0009040  40.4670910  70.4853890  71.8546710
  41.2250270  70.5982770  71.2810740  40.0048080  71.3223090  71.8090140
  51.5109700  69.2635610  76.0832090  52.1139070  69.8355820  76.5580610
  50.7702690  69.8275050  75.8605990  41.4505590  85.3470340  71.7964990
  40.9253210  85.7278370  71.0926950  41.3750170  85.9721110  72.5174700
  42.8396060  71.0117940  70.3948680  43.3688820  70.2247740  70.2656630
  43.4724380  71.6909130  70.6284210  56.2070910  86.9057880  73.1178930
  56.3823100  86.2195620  72.4739850  55.5092480  87.4304930  72.7255600
  45.1589460  70.0277060  85.8846560  44.8773730  70.5310660  85.1207380
  45.5409160  69.2298810  85.5188690  43.2113350  83.4117450  70.6760570
  42.5822230  83.8802550  71.2246400  43.3261180  82.5666670  71.1106760
  51.7604920  69.4430640  86.4627030  51.6470370  69.7625250  87.3578550
  52.5774660  69.8443150  86.1664310  54.5403410  86.5902170  85.9445720
  55.3328730  86.0951400  85.7371680  54.8336560  87.2692310  86.5521330
  50.6663070  77.4623110  56.8261770  50.5857120  76.5477720  56.5553480
  50.2527490  77.9590180  56.1201480  48.7981110  79.2402130  58.7071040
  48.0223210  78.7602570  58.9969610  49.4494040  78.5607780  58.5327200
  42.8146940  79.5521940  59.5846800  41.9831820  79.2970650  59.9843310
  43.4227920  79.6232710  60.3204720  42.7948200  83.5862030  59.7804820
  43.0976240  82.6959770  59.6015040  43.5391790  84.1432250  59.5527070
  48.2390100  81.9159320  58.7141200  48.1698380  80.9749260  58.5530330
  49.0009960  82.0060730  59.2863770  49.2695270  74.7229700  58.9410130
  49.6460090  73.8501580  58.8283800  49.1714780  75.0588400  58.0500570
  43.4000280  73.0955330  54.4027570  43.5067030  73.9959060  54.7096330
  42.4892640  73.0473300  54.1122220  53.0519390  72.2180140  55.8738470
  53.8729010  71.7276710  55.9163950  53.0853470  72.8077800  56.6270310
  41.0483440  75.0174340  59.6480160  41.7293550  75.2812710  60.2667560
  40.7331490  74.1775210  59.9818170  45.2408010  76.0641700  58.7352750
  45.7486230  76.5622670  59.3757770  45.7721250  75.2876900  58.5592110
  49.9115200  80.8159570  54.5006070  49.2932470  81.2809020  53.9368790
  50.4238450  81.5087050  54.9175580  44.7746960  80.3435440  61.1789670
  44.4416340  80.9704360  61.8210740  44.9513640  80.8697320  60.3991340
  53.2880870  74.1580520  58.6466010  52.5836440  74.4465410  59.2269120
  53.6493030  74.9680630  58.2865570  43.2059440  72.4150220  61.0086620
  43.5476250  73.2592270  60.7140490  42.2675250  72.5633960  61.1251960
  43.9866060  82.3116240  62.9938850  44.6040060  82.9867320  62.7123300
  43.1259180  82.7204220  62.9026350  46.8887330  69.9032490  57.3331210
  47.1962310  69.3479380  56.6166710  45.9588030  70.0376950  57.1504200
  52.4402390  85.6199780  59.6238670  52.4529550  85.2162070  58.7560930
  51.8877610  86.3947070  59.5200100  49.2768090  77.9681320  54.0691330
  48.3497370  77.9018700  54.2979800  49.4292910  78.9061450  53.9546570
  49.2637170  74.2398320  51.0658490  48.3240840  74.4012280  51.1510950
  49.5820430  74.9584000  50.5194480  53.3065380  79.5301620  54.5726580
  52.6877800  79.1921170  53.9252880  53.2889830  78.8861380  55.2805770
  52.7491940  75.7086160  61.9892390  52.3363120  76.5339870  62.2432380
  52.0167890  75.1231200  61.7968750  44.8824730  78.4946060  56.8511060
  44.4781730  77.7823310  56.3556960  44.9687850  78.1499300  57.7399100
  45.3506430  82.1813620  59.0150270  45.0534720  81.5759090  58.3358050
  46.3006250  82.2190930  58.9039630  43.5953350  75.2689270  60.6310100
  44.1467940  75.3784610  59.8563350  44.1096860  75.6426870  61.3465330
  53.4392040  85.7545490  62.6773370  52.9622600  86.5617680  62.4845980
  52.7553830  85.1023820  62.8299580  44.4424860  81.9195310  65.6658070
  43.5453390  82.1435280  65.9131470  44.4677730  82.0430250  64.7169470
  51.4830080  78.7688430  51.5799330  51.9223360  77.9310860  51.4337150
  52.1958500  79.4017830  51.6663470  45.0676430  84.7330330  66.4500590
  45.0391860  85.1373280  65.5829020  44.9041400  83.8040690  66.2872190
  55.0647220  70.0231240  49.8940370  54.7519880  70.1158070  50.7939440
  55.8259690  70.6012270  49.8437800  57.0191250  85.5157430  67.7464760
  57.4950970  85.9940320  68.4253840  57.6398410  85.4474920  67.0210260
  40.4662360  82.2606370  56.5692530  40.0590440  82.4020960  55.7146130
  41.3575370  81.9766530  56.3663740  50.2841240  86.4098280  63.4759580
  50.7985910  86.3206290  64.2782010  49.4410320  86.7557980  63.7687490
  56.2748510  74.7602740  65.8714510  55.6592780  75.2682410  65.3429970
  55.9544930  73.8601070  65.8140450  44.0493020  70.7326110  57.7341380
  43.6061170  71.5135650  57.4025900  44.6078010  71.0556000  58.4412320
  48.3362830  73.5994630  63.3376700  47.8742200  73.8077650  64.1496640
  47.9340940  72.7853980  63.0347370  53.3367340  74.8203580  64.4673360
  52.4860930  74.5209330  64.7882430  53.1769130  75.0645590  63.5557180
  46.0868920  71.2773440  59.5930980  46.3841250  72.1836270  59.5123000
  46.6354480  70.7892220  58.9790550  43.8407240  75.8559680  55.4622630
  43.6148160  75.6396850  56.3669250  43.0599770  76.2888140  55.1168600
  51.0705000  75.8623050  54.0613280  50.4713890  76.5858850  53.8776900
  51.6184610  75.7999830  53.2789730  46.2806450  76.7545260  66.1282900
  46.1850050  75.8139990  65.9783300  47.1238430  76.9760330  65.7330970
  47.9862040  73.2493900  67.3513420  47.2960360  73.0566100  67.9859510
  48.7294340  73.5328540  67.8837720  50.2625010  77.0892340  60.1867340
  49.5306130  77.5979150  60.5357440  49.8649350  76.2722320  59.8856120
  42.5504780  73.6473030  57.5514040  42.2104830  74.1248260  58.3081090
  41.7882100  73.1938150  57.1915140  46.7622550  74.7658620  51.5826590
  46.8835370  74.7245100  52.5312410  46.3771060  75.6282770  51.4273320
  50.7250920  72.5426020  59.5990280  50.7423660  72.9934670  60.4432130
  50.4766500  71.6431660  59.8123720  45.7744050  77.0759760  50.9809890
  45.2060950  76.6278010  50.3545800  46.4833050  77.4352540  50.4475040
  54.1521670  69.9558200  65.4376660  54.4767440  69.2247860  65.9634640
  54.1878180  69.6371840  64.5357650  47.0010370  77.8248320  60.3385240
  47.3680500  77.3506890  61.0846580  46.8115430  78.6989890  60.6793580
  39.8650860  72.5692010  56.4678710  39.5797780  72.2047680  57.3057330
  39.8029720  71.8372470  55.8541850  44.7909740  76.8656960  62.6569450
  44.4866810  77.7448940  62.8819810  45.7456200  76.9256750  62.6926890
  43.3191530  81.0717950  53.2536300  42.5453790  80.5315570  53.0935020
  44.0486160  80.5524560  52.9154060  49.5389450  71.4621270  53.1892080
  48.7254060  70.9634440  53.1137390  49.3451400  72.3019520  52.7728430
  52.2537840  75.8340920  51.4854240  53.1417460  76.1458150  51.3105580
  52.2242930  74.9613170  51.0934820  43.3628930  80.7398330  56.8915110
  43.8807600  79.9366590  56.8372000  42.9112950  80.6777470  57.7331940
  48.2498430  82.0064610  52.1642410  48.5914130  82.7506840  51.6685730
  47.4211140  82.3195730  52.5267240  44.0486590  78.1643940  66.6880360
  43.7486730  78.3101120  65.7908180  44.8197830  77.6049230  66.5953750
  49.3915040  82.9612940  64.6835490  49.4059580  82.0293900  64.4654400
  48.6840140  83.0472700  65.3225260  46.5216330  79.0924170  54.5483690
  46.9779110  79.9029420  54.7743880  46.1704540  78.7747310  55.3802180
  48.8248940  84.6030510  61.7775990  49.4691160  84.8089890  62.4549410
  49.1878380  83.8418910  61.3246840  42.4228110  69.4361820  55.0206210
  42.2942740  69.4279720  55.9691130  41.5990130  69.7744910  54.6697220
  50.0981020  82.6062860  60.4953440  50.7403250  81.9056020  60.6085610
  50.6230370  83.3861300  60.3150330  39.7252770  86.9178340  50.9937040
  40.0850410  87.5167680  50.3394310  39.5845110  87.4638230  51.7672070
  39.4222040  71.1952940  64.4812910  38.7080560  71.3949860  65.0865520
  39.8417080  70.4192510  64.8527710  39.7094630  85.1833200  65.4679440
  39.8185750  84.2427940  65.3274830  39.0575190  85.4487950  64.8193170
  47.7007220  83.4549090  66.8677560  47.3804090  82.7358330  67.4123250
  47.0265580  84.1304160  66.9413620  41.3428030  79.5224430  52.5557470
  40.7355980  80.2623330  52.5652770  41.8177380  79.6123790  51.7295670
  50.9160820  73.6875250  62.2314360  51.2841640  72.8670460  62.5593930
  50.0559020  73.7477140  62.6470010  54.2822850  72.6432190  53.0401920
  53.6536010  72.7477860  52.3260150  53.7874770  72.8628970  53.8295800
  48.7280990  84.3637780  50.4735900  48.8292970  84.1601770  49.5437880
  47.8282730  84.1096060  50.6783680  46.2506880  74.9218140  54.4559800
  45.5423030  75.3904480  54.8973410  46.5351360  74.2640150  55.0904990
  47.8762810  76.3414840  62.4552330  48.3748060  76.8160660  63.1204180
  48.0185760  75.4178360  62.6622360  44.4541900  73.2303220  51.8310510
  45.3032430  73.6673370  51.7650700  44.0873170  73.5423480  52.6582570
  55.0829670  72.5582800  63.2980720  54.5803270  73.2988200  63.6374530
  55.8986330  72.9466800  62.9817510  53.3751680  77.8015980  56.7442080
  52.4341820  77.8166210  56.9189770  53.6895750  77.0151940  57.1902380
  43.3533320  79.4835580  50.3046040  44.1196590  79.3716940  50.8671470
  43.4308010  78.7873550  49.6522810  39.7340270  83.1329610  53.9654980
  38.8080050  83.3750750  53.9560390  40.1996700  83.9603870  53.8439730
  41.8553070  86.2502110  67.2799050  42.6565800  86.5714160  67.6934450
  41.3404890  85.8897690  68.0018960  45.9597100  86.2386350  49.9139040
  46.7525710  86.5275180  49.4620830  45.4401450  85.8078520  49.2351520
  50.6917700  82.3581980  67.2274460  50.0855860  82.3813580  66.4870210
  50.3871810  81.6265020  67.7641710  52.1218070  86.0862270  65.8383870
  53.0739820  86.0020290  65.7884110  51.9746290  86.7503980  66.5117660
  46.4774500  81.4589760  49.7781390  46.3725140  80.8442110  50.5042770
  46.3098720  80.9355650  48.9944400  46.6288820  80.1446560  65.7570620
  45.8634490  80.7131560  65.6725290  46.8104780  79.8522770  64.8638850
  49.7177230  80.5209790  50.3823380  49.1687330  80.9679090  51.0266120
  50.3396490  80.0159040  50.9061050  45.3852350  79.4800710  52.2788680
  45.8068770  79.3140580  53.1220070  45.5103190  78.6700940  51.7843820
  47.8979990  78.5038320  49.5265780  48.4185650  77.7887340  49.1606930
  48.5448390  79.1424190  49.8266290  46.8013510  70.9832870  62.1984340
  46.3530810  71.0057130  61.3529890  46.1678710  70.5851890  62.7954640
  47.2073060  79.8787200  62.8196780  47.6261170  80.7219930  62.6473020
  46.2881690  80.0159240  62.5903560  45.0580480  86.1840210  63.9354510
  44.5201570  86.9086270  63.6163210  45.3114440  85.7070550  63.1451850
  46.3105730  74.1524730  65.4610440  46.9005420  73.8440580  66.1488260
  45.4925970  73.6804480  65.6170340  51.1299160  73.7690540  65.6943460
  50.4414680  73.1072080  65.6293450  51.8505180  73.3228810  66.1391920
  51.7599560  70.3642170  51.7533720  52.0401850  69.5210070  52.1093140
  50.9865290  70.5965280  52.2672470  47.9142690  87.4191420  64.1941160
  47.8401390  88.3226560  64.5013530  47.0121530  87.1003320  64.1663230
  46.2978980  71.5969180  50.1980920  45.9500980  70.9193170  49.6183370
  46.4991750  71.1358690  51.0124310  48.4628020  86.5849930  51.8167520
  49.3578810  86.9234900  51.8386280  48.4945650  85.8629340  51.1891800
  42.1024180  81.9576980  50.0454520  42.5399050  82.5006650  50.7012100
  42.5871910  81.1323930  50.0550860  39.3169980  84.7466010  57.4974780
  39.6472990  83.8787070  57.2653420  39.7460980  84.9524530  58.3279740
  55.4422370  85.1153600  64.5233720  54.8424360  85.1746160  63.7797640
  55.5716270  84.1758580  64.6530570  39.6384620  78.1256830  56.5945290
  38.9833460  77.8568470  55.9504990  40.4762570  78.0161310  56.1447270
  52.5875060  72.9198120  50.8163780  53.0059940  72.7329100  49.9760440
  52.2811120  72.0677170  51.1266710  56.0864790  77.8322260  54.5139580
  55.7108390  77.0650190  54.0820870  55.3567910  78.2144960  55.0014510
  53.9152480  72.2050210  66.9258800  54.7922660  72.2133610  67.3092800
  53.9273320  71.4681050  66.3151150  41.0424070  70.4460630  49.4867650
  41.7652200  70.9869570  49.8048870  41.3148590  70.1724050  48.6109190
  54.6268600  69.8908180  62.7459910  55.2640820  70.5042320  63.1119100
  54.7743490  69.9268840  61.8009140  57.1693150  71.7821970  49.5283050
  58.0942460  71.6503150  49.3201340  57.1468940  71.8614790  50.4819500
  57.2431640  72.5532630  52.1539760  56.4483140  72.4877750  52.6832670
  57.4474920  73.4883270  52.1425110  42.0912630  83.0242090  66.2968780
  42.0482260  82.6535000  67.1783240  42.2223640  83.9619660  66.4370600
  45.7918660  84.5801680  61.8978500  45.5510020  84.8476240  61.0109020
  46.7321300  84.7507410  61.9529360  47.9973080  71.0434370  65.6535010
  47.9361970  71.6356200  66.4030420  48.9373460  70.9360330  65.5085270
  50.6347640  70.7004430  65.2927300  51.2488050  71.0183720  64.6308380
  51.1797200  70.2153020  65.9123160  41.1568900  69.3798690  65.4066360
  41.7051890  69.1986740  64.6432470  41.2224210  68.5892800  65.9422670
  41.9300660  85.9704340  63.4166560  41.3360980  85.8389040  64.1556600
  41.9224500  85.1342480  62.9508660  51.3755680  69.2636570  61.6196590
  50.5015520  69.5971680  61.4169520  51.2666430  68.7909750  62.4448460
  52.2827660  71.4707440  63.0038310  51.9541020  70.6559200  62.6240040
  53.2309960  71.4277250  62.8804000  54.7362270  87.2419480  59.9775880
  54.2765240  87.9935290  59.6033900  54.1074730  86.5225950  59.9190680
  41.5612890  83.3362720  62.3674600  40.8346950  82.7168010  62.3000550
  41.6222040  83.7303330  61.4972680  47.9053490  86.4416210  59.9792990
  48.1931300  86.1870510  59.1026000  48.4176710  85.8893570  60.5698560
  49.1230500  70.1806410  60.5589500  48.3402290  70.6551910  60.8386260
  48.8293430  69.2761240  60.4502680  53.6751570  70.8829510  58.6038590
  54.1159660  70.8274610  57.7560190  53.4059160  71.7987520  58.6748770
  55.5390140  70.5144750  56.6147410  55.4778540  69.5705970  56.4678430
  56.3182170  70.6224840  57.1600870  39.8442890  86.6537110  55.5771360
  39.6764930  86.0207790  56.2753250  38.9777400  86.8596510  55.2265550
  40.4670910  70.4853890  53.0803220  41.2250270  70.5982770  52.5067250
  40.0048080  71.3223090  53.0346650  51.5109700  69.2635610  57.3088600
  52.1139070  69.8355820  57.7837120  50.7702690  69.8275050  57.0862500
  54.6544300  69.6657170  52.5828880  54.8494930  70.5640620  52.8496310
  53.8674170  69.4344250  53.0761830  42.8396060  71.0117940  51.6205190
  43.3688820  70.2247740  51.4913140  43.4724380  71.6909130  51.8540720
  45.0333900  70.7493080  54.6750580  44.4036640  70.0480390  54.8420710
  44.4939040  71.5097210  54.4583740  47.9725850  87.3632310  67.3461190
  48.8993160  87.1276580  67.3897150  47.9576280  88.1904310  66.8647220
  45.1589460  70.0277060  67.1103070  44.8773730  70.5310660  66.3463890
  45.5409160  69.2298810  66.7445200  51.7604920  69.4430640  67.6883540
  51.6470370  69.7625250  68.5835060  52.5774660  69.8443150  67.3920820
  54.5403410  86.5902170  67.1702230  55.3328730  86.0951400  66.9628190
  54.8336560  87.2692310  67.7777840  50.6663070  77.4623110  38.0518280
  50.5857120  76.5477720  37.7809990  50.2527490  77.9590180  37.3457990
  48.7981110  79.2402130  39.9327550  48.0223210  78.7602570  40.2226120
  49.4494040  78.5607780  39.7583710  42.8146940  79.5521940  40.8103310
  41.9831820  79.2970650  41.2099820  43.4227920  79.6232710  41.5461230
  52.8188540  83.6462320  38.7126680  52.3570070  82.8749560  39.0413850
  53.6314090  83.6728390  39.2179130  42.7948200  83.5862030  41.0061330
  43.0976240  82.6959770  40.8271550  43.5391790  84.1432250  40.7783580
  41.2238890  74.5123830  34.5945700  40.3355590  74.8539800  34.4925580
  41.5080080  74.3124150  33.7026530  39.1871900  77.1129480  40.4785400
  39.7588010  76.3451680  40.4789040  39.1873440  77.4118240  39.5692010
  49.0451850  85.9320330  38.3330670  48.4263290  86.3877830  37.7625110
  49.9003630  86.0871790  37.9320370  48.2390100  81.9159320  39.9397710
  48.1698380  80.9749260  39.7786840  49.0009960  82.0060730  40.5120280
  49.2695270  74.7229700  40.1666640  49.6460090  73.8501580  40.0540310
  49.1714780  75.0588400  39.2757080  43.4000280  73.0955330  35.6284080
  43.5067030  73.9959060  35.9352840  42.4892640  73.0473300  35.3378730
  53.0519390  72.2180140  37.0994980  53.8729010  71.7276710  37.1420460
  53.0853470  72.8077800  37.8526820  41.0483440  75.0174340  40.8736670
  41.7293550  75.2812710  41.4924070  40.7331490  74.1775210  41.2074680
  45.2408010  76.0641700  39.9609260  45.7486230  76.5622670  40.6014280
  45.7721250  75.2876900  39.7848620  57.3418940  74.2346890  43.6638610
  56.6371110  74.6228600  43.1453720  57.6076860  74.9297180  44.2659540
  44.7746960  80.3435440  42.4046180  44.4416340  80.9704360  43.0467250
  44.9513640  80.8697320  41.6247850  53.2880870  74.1580520  39.8722520
  52.5836440  74.4465410  40.4525630  53.6493030  74.9680630  39.5122080
  43.9866060  82.3116240  44.2195360  44.6040060  82.9867320  43.9379810
  43.1259180  82.7204220  44.1282860  39.2798400  81.5016100  33.1002210
  38.9026380  81.9903200  32.3687110  39.5371470  82.1741380  33.7308740
  56.3567790  73.6035310  40.2631730  55.4092700  73.6374290  40.3947160
  56.6817780  74.4174260  40.6481090  46.8887330  69.9032490  38.5587720
  47.1962310  69.3479380  37.8423220  45.9588030  70.0376950  38.3760710
  52.4402390  85.6199780  40.8495180  52.4529550  85.2162070  39.9817440
  51.8877610  86.3947070  40.7456610  53.7347810  82.3416000  35.9385350
  53.6244140  81.3990330  36.0634770  53.7316060  82.7031640  36.8248110
  51.8387830  80.5229620  42.1777790  52.2556620  80.3089730  41.3431250
  52.5627650  80.7802410  42.7486410  49.2768090  77.9681320  35.2947840
  48.3497370  77.9018700  35.5236310  49.4292910  78.9061450  35.1803080
  49.2637170  74.2398320  32.2915000  48.3240840  74.4012280  32.3767460
  49.5820430  74.9584000  31.7450990  53.3065380  79.5301620  35.7983090
  52.6877800  79.1921170  35.1509390  53.2889830  78.8861380  36.5062280
  52.7491940  75.7086160  43.2148900  52.3363120  76.5339870  43.4688890
  52.0167890  75.1231200  43.0225260  44.8824730  78.4946060  38.0767570
  44.4781730  77.7823310  37.5813470  44.9687850  78.1499300  38.9655610
  45.3506430  82.1813620  40.2406780  45.0534720  81.5759090  39.5614560
  46.3006250  82.2190930  40.1296140  43.5953350  75.2689270  41.8566610
  44.1467940  75.3784610  41.0819860  44.1096860  75.6426870  42.5721840
  44.4424860  81.9195310  46.8914580  43.5453390  82.1435280  47.1387980
  44.4677730  82.0430250  45.9425980  51.4830080  78.7688430  32.8055840
  51.9223360  77.9310860  32.6593660  52.1958500  79.4017830  32.8919980
  43.2696080  78.7908630  45.4671950  43.1303850  79.6631430  45.8359350
  42.3877440  78.4481440  45.3219890  45.0676430  84.7330330  47.6757100
  45.0391860  85.1373280  46.8085530  44.9041400  83.8040690  47.5128700
  55.0647220  70.0231240  31.1196880  54.7519880  70.1158070  32.0195950
  55.8259690  70.6012270  31.0694310  41.5829360  77.3891040  35.5774220
  41.4626960  78.1153130  34.9655490  41.2730250  76.6193950  35.1002130
  39.2214730  80.5606180  41.3842860  39.2995150  80.6954950  40.4398580
  39.8356410  79.8522070  41.5770980  40.4662360  82.2606370  37.7949040
  40.0590440  82.4020960  36.9402640  41.3575370  81.9766530  37.5920250
  44.7384020  86.4752150  35.9071710  44.5626500  85.5587690  35.6939510
  43.8839760  86.8339440  36.1469510  51.5271700  85.8303890  36.7646580
  51.9828650  85.0493270  37.0785200  51.8664220  86.5410710  37.3087760
  56.2748510  74.7602740  47.0971020  55.6592780  75.2682410  46.5686480
  55.9544930  73.8601070  47.0396960  39.2774250  81.6020350  43.9237320
  39.4405290  81.1325710  43.1056690  39.7426700  81.0943910  44.5886160
  44.0493020  70.7326110  38.9597890  43.6061170  71.5135650  38.6282410
  44.6078010  71.0556000  39.6668830  48.3362830  73.5994630  44.5633210
  47.8742200  73.8077650  45.3753150  47.9340940  72.7853980  44.2603880
  53.3367340  74.8203580  45.6929870  52.4860930  74.5209330  46.0138940
  53.1769130  75.0645590  44.7813690  50.4317050  76.3205330  47.7928660
  50.7570460  75.4869080  47.4530890  51.2197380  76.8433850  47.9406990
  46.0868920  71.2773440  40.8187490  46.3841250  72.1836270  40.7379510
  46.6354480  70.7892220  40.2047060  43.8407240  75.8559680  36.6879140
  43.6148160  75.6396850  37.5925760  43.0599770  76.2888140  36.3425110
  51.0705000  75.8623050  35.2869790  50.4713890  76.5858850  35.1033410
  51.6184610  75.7999830  34.5046240  46.2806450  76.7545260  47.3539410
  46.1850050  75.8139990  47.2039810  47.1238430  76.9760330  46.9587480
  49.6769870  74.4986590  37.3173070  50.0699440  74.8158790  36.5041760
  50.0386720  73.6198470  37.4317590  47.9862040  73.2493900  48.5769930
  47.2960360  73.0566100  49.2116020  48.7294340  73.5328540  49.1094230
  38.9004270  75.0307510  30.7505990  38.8178940  75.9738270  30.8920980
  38.5487330  74.8882420  29.8718340  50.2625010  77.0892340  41.4123850
  49.5306130  77.5979150  41.7613950  49.8649350  76.2722320  41.1112630
  46.7002400  73.7646540  39.8176340  46.7038460  73.3236490  38.9680880
  47.5953520  74.0863870  39.9248160  42.5504780  73.6473030  38.7770550
  42.2104830  74.1248260  39.5337600  41.7882100  73.1938150  38.4171650
  50.7250920  72.5426020  40.8246790  50.7423660  72.9934670  41.6688640
  50.4766500  71.6431660  41.0380230  54.1521670  69.9558200  46.6633170
  54.4767440  69.2247860  47.1891150  54.1878180  69.6371840  45.7614160
  40.8513230  80.9771780  46.0833130  40.4668020  80.3365450  46.6816090
  41.1625420  81.6807900  46.6527860  47.0010370  77.8248320  41.5641750
  47.3680500  77.3506890  42.3103090  46.8115430  78.6989890  41.9050090
  39.8650860  72.5692010  37.6935220  39.5797780  72.2047680  38.5313840
  39.8029720  71.8372470  37.0798360  44.7909740  76.8656960  43.8825960
  44.4866810  77.7448940  44.1076320  45.7456200  76.9256750  43.9183400
  54.0779510  80.0683310  40.2719200  54.7978630  80.5638600  39.8815310
  53.8761330  79.3901200  39.6273070  49.5389450  71.4621270  34.4148590
  48.7254060  70.9634440  34.3393900  49.3451400  72.3019520  33.9984940
  49.4598310  80.1392370  46.1588200  49.3935620  79.2188040  45.9045790
  48.8303450  80.2367810  46.8732840  52.2537840  75.8340920  32.7110750
  53.1417460  76.1458150  32.5362090  52.2242930  74.9613170  32.3191330
  43.3628930  80.7398330  38.1171620  43.8807600  79.9366590  38.0628510
  42.9112950  80.6777470  38.9588450  40.8473470  77.7059700  45.0297320
  40.4888410  78.3713550  45.6170660  40.5528030  76.8743250  45.4009940
  44.0486590  78.1643940  47.9136870  43.7486730  78.3101120  47.0164690
  44.8197830  77.6049230  47.8210260  54.5252110  77.1452760  32.1790610
  54.4415830  77.5766980  31.3287050  55.2446300  77.6051110  32.6117430
  51.1325840  81.3280450  38.7544430  51.4849660  80.7308580  38.0945800
  50.2488170  81.0024680  38.9252680  39.3581520  77.7050960  31.6531920
  40.2276370  77.9875760  31.9367840  38.8671840  78.5186830  31.5380730
  48.8248940  84.6030510  43.0032500  49.4691160  84.8089890  43.6805920
  49.1878380  83.8418910  42.5503350  50.0981020  82.6062860  41.7209950
  50.7403250  81.9056020  41.8342120  50.6230370  83.3861300  41.5406840
  39.7252770  86.9178340  32.2193550  40.0850410  87.5167680  31.5650820
  39.5845110  87.4638230  32.9928580  39.4222040  71.1952940  45.7069420
  38.7080560  71.3949860  46.3122030  39.8417080  70.4192510  46.0784220
  53.5252990  80.8083420  33.1063250  53.2374690  81.2696110  33.8941130
  54.3205160  80.3481190  33.3747470  39.7094630  85.1833200  46.6935950
  39.8185750  84.2427940  46.5531340  39.0575190  85.4487950  46.0449680
  47.7007220  83.4549090  48.0934070  47.3804090  82.7358330  48.6379760
  47.0265580  84.1304160  48.1670130  41.3428030  79.5224430  33.7813980
  40.7355980  80.2623330  33.7909280  41.8177380  79.6123790  32.9552180
  50.9160820  73.6875250  43.4570870  51.2841640  72.8670460  43.7850440
  50.0559020  73.7477140  43.8726520  54.2822850  72.6432190  34.2658430
  53.6536010  72.7477860  33.5516660  53.7874770  72.8628970  35.0552310
  46.2506880  74.9218140  35.6816310  45.5423030  75.3904480  36.1229920
  46.5351360  74.2640150  36.3161500  47.8762810  76.3414840  43.6808840
  48.3748060  76.8160660  44.3460690  48.0185760  75.4178360  43.8878870
  50.2822310  71.6468800  37.1212100  50.1590090  71.6654930  36.1721610
  51.2306870  71.6947740  37.2410500  47.3699100  86.8824100  36.3940080
  47.6240600  86.8445490  35.4719450  46.4211580  86.7557430  36.3868330
  55.0829670  72.5582800  44.5237230  54.5803270  73.2988200  44.8631040
  55.8986330  72.9466800  44.2074020  53.3751680  77.8015980  37.9698590
  52.4341820  77.8166210  38.1446280  53.6895750  77.0151940  38.4158890
  42.0480080  76.9160650  32.2135440  42.1283670  75.9688160  32.3252840
  42.9399830  77.2467530  32.3196100  55.3777260  84.9724830  39.6452850
  55.5024680  85.7956000  40.1176660  56.2442820  84.7615560  39.2977000
  39.7340270  83.1329610  35.1911490  38.8080050  83.3750750  35.1816900
  40.1996700  83.9603870  35.0696240  41.8553070  86.2502110  48.5055560
  42.6565800  86.5714160  48.9190960  41.3404890  85.8897690  49.2275470
  45.9597100  86.2386350  31.1395550  46.7525710  86.5275180  30.6877340
  45.4401450  85.8078520  30.4608030  46.6288820  80.1446560  46.9827130
  45.8634490  80.7131560  46.8981800  46.8104780  79.8522770  46.0895360
  43.5479770  75.4597260  46.3116170  43.0176230  74.9688210  45.6839510
  44.2167840  75.8881460  45.7774100  52.4457830  79.9266720  46.0757360
  52.8598850  80.0811800  46.9247780  51.5108830  80.0521940  46.2383140
  52.9180000  77.2662880  48.0796510  53.5000770  76.5115200  47.9916990
  53.0941770  77.7970320  47.3027990  44.0352070  72.4259630  46.3913460
  43.9408940  71.8080380  45.6664330  43.4549460  73.1525920  46.1643370
  46.8013510  70.9832870  43.4240850  46.3530810  71.0057130  42.5786400
  46.1678710  70.5851890  44.0211150  47.2073060  79.8787200  44.0453290
  47.6261170  80.7219930  43.8729530  46.2881690  80.0159240  43.8160070
  49.5436960  77.6103380  45.4291130  49.6633170  77.0144520  46.1685970
  50.4030960  77.6473070  45.0092430  51.8824860  78.1640570  44.0053640
  51.3560080  78.6883190  43.4018780  52.2256200  78.7967960  44.6363370
  44.2811250  75.5533940  30.4503350  44.0800310  74.6901300  30.8116690
  44.1103300  75.4667300  29.5124950  46.3105730  74.1524730  46.6866950
  46.9005420  73.8440580  47.3744770  45.4925970  73.6804480  46.8426850
  51.1299160  73.7690540  46.9199970  50.4414680  73.1072080  46.8549960
  51.8505180  73.3228810  47.3648430  51.7599560  70.3642170  32.9790230
  52.0401850  69.5210070  33.3349650  50.9865290  70.5965280  33.4928980
  48.4628020  86.5849930  33.0424030  49.3578810  86.9234900  33.0642790
  48.4945650  85.8629340  32.4148310  42.1024180  81.9576980  31.2711030
  42.5399050  82.5006650  31.9268610  42.5871910  81.1323930  31.2807370
  43.9131900  83.0775020  36.3833260  43.6127440  82.9539990  37.2837170
  43.8069390  82.2183610  35.9748990  39.8060190  85.6136600  41.4612920
  39.3691180  85.7937400  42.2937070  40.3737870  86.3711220  41.3194640
  56.1380280  79.6018900  33.5894140  56.8999190  80.1715550  33.6953830
  56.1534650  79.0346100  34.3602450  39.6384620  78.1256830  37.8201800
  38.9833460  77.8568470  37.1761500  40.4762570  78.0161310  37.3703780
  57.1440250  80.4569000  38.4336070  57.5149080  79.6736320  38.0272040
  57.7842180  81.1458100  38.2553370  54.1274010  81.8405580  43.8466390
  53.3133850  82.2702740  44.1092180  54.5348210  82.4523990  43.2335440
  56.1899450  79.8953270  30.7466660  56.4648290  80.8032150  30.6185880
  56.0010190  79.8315800  31.6828650  52.5875060  72.9198120  32.0420290
  53.0059940  72.7329100  31.2016950  52.2811120  72.0677170  32.3523220
  56.0864790  77.8322260  35.7396090  55.7108390  77.0650190  35.3077380
  55.3567910  78.2144960  36.2271020  40.6760550  78.5109400  42.3605140
  41.0433590  78.4236800  43.2401160  40.1071370  77.7475950  42.2612000
  55.4764410  76.9793780  45.3735610  55.2450500  76.7506530  44.4733560
  55.7368960  77.8993330  45.3280500  40.2276550  75.4218490  46.2663560
  39.3332600  75.3885250  46.6057270  40.7674100  75.6205280  47.0314810
  53.9152480  72.2050210  48.1515310  54.7922660  72.2133610  48.5349310
  53.9273320  71.4681050  47.5407660  38.8522700  75.3355760  33.7627130
  37.9486780  75.5985960  33.5878790  39.3363320  75.6066930  32.9827090
  55.3615750  76.0579750  39.0403330  55.8853230  75.5642400  38.4093500
  55.9475170  76.1930110  39.7850900  55.5405470  76.1419620  42.5622880
  54.5908180  76.1083160  42.6767870  55.7218480  77.0519730  42.3272650
  41.3949910  74.3921300  31.6721510  42.1041610  73.9704520  31.1868790
  40.6789850  74.4596530  31.0404860  54.8515720  75.3153100  34.9795740
  55.3474840  75.0823970  35.7644620  54.6531790  74.4764940  34.5633380
  40.7316260  69.6966820  40.6146780  41.3792450  69.1464200  40.1741940
  41.1518100  69.9509970  41.4362590  56.2802880  73.9514050  37.5133420
  56.1702160  73.7970090  38.4515690  57.0410470  73.4234990  37.2708830
  57.1693150  71.7821970  30.7539560  58.0942460  71.6503150  30.5457850
  57.1468940  71.8614790  31.7076010  57.2431640  72.5532630  33.3796270
  56.4483140  72.4877750  33.9089180  57.4474920  73.4883270  33.3681620
  54.1850060  86.5924180  37.3734660  54.7809130  86.2708750  36.6969080
  54.4428210  86.1196000  38.1647930  42.0912630  83.0242090  47.5225290
  42.0482260  82.6535000  48.4039750  42.2223640  83.9619660  47.6627110
  45.7918660  84.5801680  43.1235010  45.5510020  84.8476240  42.2365530
  46.7321300  84.7507410  43.1785870  47.9973080  71.0434370  46.8791520
  47.9361970  71.6356200  47.6286930  48.9373460  70.9360330  46.7341780
  50.6347640  70.7004430  46.5183810  51.2488050  71.0183720  45.8564890
  51.1797200  70.2153020  47.1379670  41.1568900  69.3798690  46.6322870
  41.7051890  69.1986740  45.8688980  41.2224210  68.5892800  47.1679180
  41.9300660  85.9704340  44.6423070  41.3360980  85.8389040  45.3813110
  41.9224500  85.1342480  44.1765170  52.2827660  71.4707440  44.2294820
  51.9541020  70.6559200  43.8496550  53.2309960  71.4277250  44.1060510
  41.5612890  83.3362720  43.5931110  40.8346950  82.7168010  43.5257060
  41.6222040  83.7303330  42.7229190  45.1657990  85.5507720  40.3780520
  45.6823010  84.9395080  39.8528780  45.8155370  86.0536500  40.8691530
  47.9053490  86.4416210  41.2049500  48.1931300  86.1870510  40.3282510
  48.4176710  85.8893570  41.7955070  47.0084720  72.5993160  37.2962040
  46.1959230  72.2250050  36.9557920  47.5126360  71.8438240  37.5983230
  54.6544300  69.6657170  33.8085390  54.8494930  70.5640620  34.0752820
  53.8674170  69.4344250  34.3018340  41.4505590  85.3470340  34.2478010
  40.9253210  85.7278370  33.5439970  41.3750170  85.9721110  34.9687720
  45.0333900  70.7493080  35.9007090  44.4036640  70.0480390  36.0677220
  44.4939040  71.5097210  35.6840250  47.9725850  87.3632310  48.5717700
  48.8993160  87.1276580  48.6153660  47.9576280  88.1904310  48.0903730
  44.0498560  87.2952720  33.1227260  44.7817380  87.0112000  32.5751150
  44.3092230  87.0566000  34.0126640  43.2113350  83.4117450  33.1273590
  42.5822230  83.8802550  33.6759420  43.3261180  82.5666670  33.5619780
  51.7604920  69.4430640  48.9140050  51.6470370  69.7625250  49.8091570
  52.5774660  69.8443150  48.6177330  50.6663070  77.4623110  19.2774790
  50.5857120  76.5477720  19.0066500  50.2527490  77.9590180  18.5714500
  48.7981110  79.2402130  21.1584060  48.0223210  78.7602570  21.4482630
  49.4494040  78.5607780  20.9840220  42.8146940  79.5521940  22.0359820
  41.9831820  79.2970650  22.4356330  43.4227920  79.6232710  22.7717740
  52.8188540  83.6462320  19.9383190  52.3570070  82.8749560  20.2670360
  53.6314090  83.6728390  20.4435640  42.7948200  83.5862030  22.2317840
  43.0976240  82.6959770  22.0528060  43.5391790  84.1432250  22.0040090
  41.2238890  74.5123830  15.8202210  40.3355590  74.8539800  15.7182090
  41.5080080  74.3124150  14.9283040  39.1871900  77.1129480  21.7041910
  39.7588010  76.3451680  21.7045550  39.1873440  77.4118240  20.7948520
  49.0451850  85.9320330  19.5587180  48.4263290  86.3877830  18.9881620
  49.9003630  86.0871790  19.1576880  40.4296770  72.5213840  23.4910840
  40.2499610  71.6239590  23.7713600  40.0276850  73.0685710  24.1657790
  43.4000280  73.0955330  16.8540590  43.5067030  73.9959060  17.1609350
  42.4892640  73.0473300  16.5635240  53.0519390  72.2180140  18.3251490
  53.8729010  71.7276710  18.3676970  53.0853470  72.8077800  19.0783330
  41.0483440  75.0174340  22.0993180  41.7293550  75.2812710  22.7180580
  40.7331490  74.1775210  22.4331190  45.2408010  76.0641700  21.1865770
  45.7486230  76.5622670  21.8270790  45.7721250  75.2876900  21.0105130
  57.3418940  74.2346890  24.8895120  56.6371110  74.6228600  24.3710230
  57.6076860  74.9297180  25.4916050  49.9115200  80.8159570  16.9519090
  49.2932470  81.2809020  16.3881810  50.4238450  81.5087050  17.3688600
  44.7746960  80.3435440  23.6302690  44.4416340  80.9704360  24.2723760
  44.9513640  80.8697320  22.8504360  43.9866060  82.3116240  25.4451870
  44.6040060  82.9867320  25.1636320  43.1259180  82.7204220  25.3539370
  39.2798400  81.5016100  14.3258720  38.9026380  81.9903200  13.5943620
  39.5371470  82.1741380  14.9565250  54.9043650  83.7755650  23.3606510
  54.2207170  84.4454760  23.3523180  55.4437940  83.9736300  22.5951370
  56.3567790  73.6035310  21.4888240  55.4092700  73.6374290  21.6203670
  56.6817780  74.4174260  21.8737600  46.8887330  69.9032490  19.7844230
  47.1962310  69.3479380  19.0679730  45.9588030  70.0376950  19.6017220
  52.4402390  85.6199780  22.0751690  52.4529550  85.2162070  21.2073950
  51.8877610  86.3947070  21.9713120  53.7347810  82.3416000  17.1641860
  53.6244140  81.3990330  17.2891280  53.7316060  82.7031640  18.0504620
  49.2768090  77.9681320  16.5204350  48.3497370  77.9018700  16.7492820
  49.4292910  78.9061450  16.4059590  49.2637170  74.2398320  13.5171510
  48.3240840  74.4012280  13.6023970  49.5820430  74.9584000  12.9707500
  53.3065380  79.5301620  17.0239600  52.6877800  79.1921170  16.3765900
  53.2889830  78.8861380  17.7318790  52.7491940  75.7086160  24.4405410
  52.3363120  76.5339870  24.6945400  52.0167890  75.1231200  24.2481770
  44.8824730  78.4946060  19.3024080  44.4781730  77.7823310  18.8069980
  44.9687850  78.1499300  20.1912120  44.4424860  81.9195310  28.1171090
  43.5453390  82.1435280  28.3644490  44.4677730  82.0430250  27.1682490
  51.4830080  78.7688430  14.0312350  51.9223360  77.9310860  13.8850170
  52.1958500  79.4017830  14.1176490  43.2696080  78.7908630  26.6928460
  43.1303850  79.6631430  27.0615860  42.3877440  78.4481440  26.5476400
  49.5925460  83.7084500  17.9993590  50.0321370  84.4508830  17.5848980
  49.5312350  83.9511070  18.9232550  45.0676430  84.7330330  28.9013610
  45.0391860  85.1373280  28.0342040  44.9041400  83.8040690  28.7385210
  55.0647220  70.0231240  12.3453390  54.7519880  70.1158070  13.2452460
  55.8259690  70.6012270  12.2950820  41.5829360  77.3891040  16.8030730
  41.4626960  78.1153130  16.1912000  41.2730250  76.6193950  16.3258640
  39.2214730  80.5606180  22.6099370  39.2995150  80.6954950  21.6655090
  39.8356410  79.8522070  22.8027490  40.4662360  82.2606370  19.0205550
  40.0590440  82.4020960  18.1659150  41.3575370  81.9766530  18.8176760
  52.2595640  86.6953620  15.3556600  52.0996780  86.4056560  16.2538430
  52.0942350  85.9193750  14.8201830  44.7384020  86.4752150  17.1328220
  44.5626500  85.5587690  16.9196020  43.8839760  86.8339440  17.3726020
  51.9621770  84.2041180  13.9154600  51.2686930  84.2018470  13.2556880
  52.7044630  83.7800500  13.4848770  51.5271700  85.8303890  17.9903090
  51.9828650  85.0493270  18.3041710  51.8664220  86.5410710  18.5344270
  56.2748510  74.7602740  28.3227530  55.6592780  75.2682410  27.7942990
  55.9544930  73.8601070  28.2653470  44.0493020  70.7326110  20.1854400
  43.6061170  71.5135650  19.8538920  44.6078010  71.0556000  20.8925340
  48.3362830  73.5994630  25.7889720  47.8742200  73.8077650  26.6009660
  47.9340940  72.7853980  25.4860390  53.3367340  74.8203580  26.9186380
  52.4860930  74.5209330  27.2395450  53.1769130  75.0645590  26.0070200
  50.4317050  76.3205330  29.0185170  50.7570460  75.4869080  28.6787400
  51.2197380  76.8433850  29.1663500  47.1651840  70.3536810  15.0660230
  46.5406020  70.3496680  15.7913540  47.0781960  69.4867770  14.6696200
  46.0868920  71.2773440  22.0444000  46.3841250  72.1836270  21.9636020
  46.6354480  70.7892220  21.4303570  43.8407240  75.8559680  17.9135650
  43.6148160  75.6396850  18.8182270  43.0599770  76.2888140  17.5681620
  51.0705000  75.8623050  16.5126300  50.4713890  76.5858850  16.3289920
  51.6184610  75.7999830  15.7302750  46.2806450  76.7545260  28.5795920
  46.1850050  75.8139990  28.4296320  47.1238430  76.9760330  28.1843990
  49.6769870  74.4986590  18.5429580  50.0699440  74.8158790  17.7298270
  50.0386720  73.6198470  18.6574100  38.7134040  71.0887390  20.7659780
  38.4247090  71.6590250  21.4784760  39.4579800  70.6091840  21.1291010
  38.9004270  75.0307510  11.9762500  38.8178940  75.9738270  12.1177490
  38.5487330  74.8882420  11.0974850  50.2625010  77.0892340  22.6380360
  49.5306130  77.5979150  22.9870460  49.8649350  76.2722320  22.3369140
  46.7002400  73.7646540  21.0432850  46.7038460  73.3236490  20.1937390
  47.5953520  74.0863870  21.1504670  42.5504780  73.6473030  20.0027060
  42.2104830  74.1248260  20.7594110  41.7882100  73.1938150  19.6428160
  46.7622550  74.7658620  14.0339610  46.8835370  74.7245100  14.9825430
  46.3771060  75.6282770  13.8786340  45.7744050  77.0759760  13.4322910
  45.2060950  76.6278010  12.8058820  46.4833050  77.4352540  12.8988060
  40.8513230  80.9771780  27.3089640  40.4668020  80.3365450  27.9072600
  41.1625420  81.6807900  27.8784370  47.0010370  77.8248320  22.7898260
  47.3680500  77.3506890  23.5359600  46.8115430  78.6989890  23.1306600
  39.8650860  72.5692010  18.9191730  39.5797780  72.2047680  19.7570350
  39.8029720  71.8372470  18.3054870  43.3191530  81.0717950  15.7049320
  42.5453790  80.5315570  15.5448040  44.0486160  80.5524560  15.3667080
  49.5389450  71.4621270  15.6405100  48.7254060  70.9634440  15.5650410
  49.3451400  72.3019520  15.2241450  49.4598310  80.1392370  27.3844710
  49.3935620  79.2188040  27.1302300  48.8303450  80.2367810  28.0989350
  52.2537840  75.8340920  13.9367260  53.1417460  76.1458150  13.7618600
  52.2242930  74.9613170  13.5447840  43.3628930  80.7398330  19.3428130
  43.8807600  79.9366590  19.2885020  42.9112950  80.6777470  20.1844960
  48.2498430  82.0064610  14.6155430  48.5914130  82.7506840  14.1198750
  47.4211140  82.3195730  14.9780260  40.8473470  77.7059700  26.2553830
  40.4888410  78.3713550  26.8427170  40.5528030  76.8743250  26.6266450
  44.0486590  78.1643940  29.1393380  43.7486730  78.3101120  28.2421200
  44.8197830  77.6049230  29.0466770  49.3915040  82.9612940  27.1348510
  49.4059580  82.0293900  26.9167420  48.6840140  83.0472700  27.7738280
  54.5252110  77.1452760  13.4047120  54.4415830  77.5766980  12.5543560
  55.2446300  77.6051110  13.8373940  55.6026250  79.6020280  26.4817090
  54.8774440  80.1949060  26.2846480  56.1301710  79.5943820  25.6830460
  55.5539360  83.9995020  16.1329250  54.9115520  83.3450640  16.4072970
  55.1670020  84.4050110  15.3569920  51.1325840  81.3280450  19.9800940
  51.4849660  80.7308580  19.3202310  50.2488170  81.0024680  20.1509190
  47.2189120  82.0878140  17.3871350  47.9060250  82.6347350  17.7678940
  46.4321540  82.6318870  17.4220960  39.3581520  77.7050960  12.8788430
  40.2276370  77.9875760  13.1624350  38.8671840  78.5186830  12.7637240
  46.5216330  79.0924170  16.9996710  46.9779110  79.9029420  17.2256900
  46.1704540  78.7747310  17.8315200  48.8248940  84.6030510  24.2289010
  49.4691160  84.8089890  24.9062430  49.1878380  83.8418910  23.7759860
  42.4228110  69.4361820  17.4719230  42.2942740  69.4279720  18.4204150
  41.5990130  69.7744910  17.1210240  50.0981020  82.6062860  22.9466460
  50.7403250  81.9056020  23.0598630  50.6230370  83.3861300  22.7663350
  53.9436740  82.8911480  12.6705600  53.7174320  82.1741920  13.2630240
  53.5532940  82.6423920  11.8327350  39.7252770  86.9178340  13.4450060
  40.0850410  87.5167680  12.7907330  39.5845110  87.4638230  14.2185090
  39.4222040  71.1952940  26.9325930  38.7080560  71.3949860  27.5378540
  39.8417080  70.4192510  27.3040730  53.5252990  80.8083420  14.3319760
  53.2374690  81.2696110  15.1197640  54.3205160  80.3481190  14.6003980
  39.7094630  85.1833200  27.9192460  39.8185750  84.2427940  27.7787850
  39.0575190  85.4487950  27.2706190  47.7007220  83.4549090  29.3190580
  47.3804090  82.7358330  29.8636270  47.0265580  84.1304160  29.3926640
  45.7421390  84.3009540  14.2623730  45.7331490  85.0339230  13.6468240
  44.8219750  84.0541120  14.3550690  41.3428030  79.5224430  15.0070490
  40.7355980  80.2623330  15.0165790  41.8177380  79.6123790  14.1808690
  54.2822850  72.6432190  15.4914940  53.6536010  72.7477860  14.7773170
  53.7874770  72.8628970  16.2808820  48.7280990  84.3637780  12.9248920
  48.8292970  84.1601770  11.9950900  47.8282730  84.1096060  13.1296700
  46.2506880  74.9218140  16.9072820  45.5423030  75.3904480  17.3486430
  46.5351360  74.2640150  17.5418010  47.8762810  76.3414840  24.9065350
  48.3748060  76.8160660  25.5717200  48.0185760  75.4178360  25.1135380
  50.2822310  71.6468800  18.3468610  50.1590090  71.6654930  17.3978120
  51.2306870  71.6947740  18.4667010  47.3699100  86.8824100  17.6196590
  47.6240600  86.8445490  16.6975960  46.4211580  86.7557430  17.6124840
  44.4541900  73.2303220  14.2823530  45.3032430  73.6673370  14.2163720
  44.0873170  73.5423480  15.1095590  55.0829670  72.5582800  25.7493740
  54.5803270  73.2988200  26.0887550  55.8986330  72.9466800  25.4330530
  43.3533320  79.4835580  12.7559060  44.1196590  79.3716940  13.3184490
  43.4308010  78.7873550  12.1035830  42.0480080  76.9160650  13.4391950
  42.1283670  75.9688160  13.5509350  42.9399830  77.2467530  13.5452610
  55.3777260  84.9724830  20.8709360  55.5024680  85.7956000  21.3433170
  56.2442820  84.7615560  20.5233510  42.8494790  87.0656040  20.5426490
  43.5857270  86.5171500  20.8135060  43.2335710  87.9312050  20.4032480
  39.7340270  83.1329610  16.4168000  38.8080050  83.3750750  16.4073410
  40.1996700  83.9603870  16.2952750  41.8553070  86.2502110  29.7312070
  42.6565800  86.5714160  30.1447470  41.3404890  85.8897690  30.4531980
  45.9597100  86.2386350  12.3652060  46.7525710  86.5275180  11.9133850
  45.4401450  85.8078520  11.6864540  50.6917700  82.3581980  29.6787480
  50.0855860  82.3813580  28.9383230  50.3871810  81.6265020  30.2154730
  55.0127270  85.4656480  13.7888800  54.7268780  85.0521620  12.9742980
  54.8146820  86.3944190  13.6689320  39.5750880  78.7375570  28.6748120
  40.0789900  78.1582850  29.2464350  38.8358300  79.0215800  29.2124490
  46.4774500  81.4589760  12.2294410  46.3725140  80.8442110  12.9555790
  46.3098720  80.9355650  11.4457420  46.6288820  80.1446560  28.2083640
  45.8634490  80.7131560  28.1238310  46.8104780  79.8522770  27.3151870
  49.7177230  80.5209790  12.8336400  49.1687330  80.9679090  13.4779140
  50.3396490  80.0159040  13.3574070  41.6073960  76.8805160  29.5698190
  41.6479300  76.5819030  30.4783420  42.4619460  77.2812770  29.4105710
  45.3852350  79.4800710  14.7301700  45.8068770  79.3140580  15.5733090
  45.5103190  78.6700940  14.2356840  47.8979990  78.5038320  11.9778800
  48.4185650  77.7887340  11.6119950  48.5448390  79.1424190  12.2779310
  52.4457830  79.9266720  27.3013870  52.8598850  80.0811800  28.1504290
  51.5108830  80.0521940  27.4639650  52.9180000  77.2662880  29.3053020
  53.5000770  76.5115200  29.2173500  53.0941770  77.7970320  28.5284500
  47.2073060  79.8787200  25.2709800  47.6261170  80.7219930  25.0986040
  46.2881690  80.0159240  25.0416580  49.5436960  77.6103380  26.6547640
  49.6633170  77.0144520  27.3942480  50.4030960  77.6473070  26.2348940
  51.8824860  78.1640570  25.2310150  51.3560080  78.6883190  24.6275290
  52.2256200  78.7967960  25.8619880  44.2811250  75.5533940  11.6759860
  44.0800310  74.6901300  12.0373200  44.1103300  75.4667300  10.7381460
  46.3105730  74.1524730  27.9123460  46.9005420  73.8440580  28.6001280
  45.4925970  73.6804480  28.0683360  51.1299160  73.7690540  28.1456480
  50.4414680  73.1072080  28.0806470  51.8505180  73.3228810  28.5904940
  51.7599560  70.3642170  14.2046740  52.0401850  69.5210070  14.5606160
  50.9865290  70.5965280  14.7185490  43.0794050  72.6534560  11.6637740
  43.3819950  72.6601990  10.7556890  43.8188640  72.3032420  12.1605400
  47.9142690  87.4191420  26.6454180  47.8401390  88.3226560  26.9526550
  47.0121530  87.1003320  26.6176250  46.2978980  71.5969180  12.6493940
  45.9500980  70.9193170  12.0696390  46.4991750  71.1358690  13.4637330
  48.4628020  86.5849930  14.2680540  49.3578810  86.9234900  14.2899300
  48.4945650  85.8629340  13.6404820  42.1024180  81.9576980  12.4967540
  42.5399050  82.5006650  13.1525120  42.5871910  81.1323930  12.5063880
  39.3169980  84.7466010  19.9487800  39.6472990  83.8787070  19.7166440
  39.7460980  84.9524530  20.7792760  43.9131900  83.0775020  17.6089770
  43.6127440  82.9539990  18.5093680  43.8069390  82.2183610  17.2005500
  39.8060190  85.6136600  22.6869430  39.3691180  85.7937400  23.5193580
  40.3737870  86.3711220  22.5451150  56.6823820  82.8571420  12.3116450
  55.8516780  82.9248070  12.7823680  56.8595650  83.7475540  12.0083310
  56.1380280  79.6018900  14.8150650  56.8999190  80.1715550  14.9210340
  56.1534650  79.0346100  15.5858960  39.6384620  78.1256830  19.0458310
  38.9833460  77.8568470  18.4018010  40.4762570  78.0161310  18.5960290
  57.1440250  80.4569000  19.6592580  57.5149080  79.6736320  19.2528550
  57.7842180  81.1458100  19.4809880  54.1274010  81.8405580  25.0722900
  53.3133850  82.2702740  25.3348690  54.5348210  82.4523990  24.4591950
  56.1899450  79.8953270  11.9723170  56.4648290  80.8032150  11.8442390
  56.0010190  79.8315800  12.9085160  52.5875060  72.9198120  13.2676800
  53.0059940  72.7329100  12.4273460  52.2811120  72.0677170  13.5779730
  56.0864790  77.8322260  16.9652600  55.7108390  77.0650190  16.5333890
  55.3567910  78.2144960  17.4527530  40.6760550  78.5109400  23.5861650
  41.0433590  78.4236800  24.4657670  40.1071370  77.7475950  23.4868510
  55.4764410  76.9793780  26.5992120  55.2450500  76.7506530  25.6990070
  55.7368960  77.8993330  26.5537010  40.2276550  75.4218490  27.4920070
  39.3332600  75.3885250  27.8313780  40.7674100  75.6205280  28.2571320
  53.9152480  72.2050210  29.3771820  54.7922660  72.2133610  29.7605820
  53.9273320  71.4681050  28.7664170  38.8522700  75.3355760  14.9883640
  37.9486780  75.5985960  14.8135300  39.3363320  75.6066930  14.2083600
  55.3615750  76.0579750  20.2659840  55.8853230  75.5642400  19.6350010
  55.9475170  76.1930110  21.0107410  55.5405470  76.1419620  23.7879390
  54.5908180  76.1083160  23.9024380  55.7218480  77.0519730  23.5529160
  41.3949910  74.3921300  12.8978020  42.1041610  73.9704520  12.4125300
  40.6789850  74.4596530  12.2661370  41.0424070  70.4460630  11.9380670
  41.7652200  70.9869570  12.2561890  41.3148590  70.1724050  11.0622210
  54.8515720  75.3153100  16.2052250  55.3474840  75.0823970  16.9901130
  54.6531790  74.4764940  15.7889890  40.7316260  69.6966820  21.8403290
  41.3792450  69.1464200  21.3998450  41.1518100  69.9509970  22.6619100
  56.2802880  73.9514050  18.7389930  56.1702160  73.7970090  19.6772200
  57.0410470  73.4234990  18.4965340  57.1693150  71.7821970  11.9796070
  58.0942460  71.6503150  11.7714360  57.1468940  71.8614790  12.9332520
  57.2431640  72.5532630  14.6052780  56.4483140  72.4877750  15.1345690
  57.4474920  73.4883270  14.5938130  54.1850060  86.5924180  18.5991170
  54.7809130  86.2708750  17.9225590  54.4428210  86.1196000  19.3904440
  40.4848260  69.8522490  24.5828610  40.1363080  70.3086310  25.3486790
  40.1535960  68.9579620  24.6651040  42.0912630  83.0242090  28.7481800
  42.0482260  82.6535000  29.6296260  42.2223640  83.9619660  28.8883620
  45.7918660  84.5801680  24.3491520  45.5510020  84.8476240  23.4622040
  46.7321300  84.7507410  24.4042380  57.0522820  86.5996060  25.1502160
  56.5581100  86.9964930  24.4329290  56.4436110  85.9745270  25.5439440
  52.2827660  71.4707440  25.4551330  51.9541020  70.6559200  25.0753060
  53.2309960  71.4277250  25.3317020  45.1657990  85.5507720  21.6037030
  45.6823010  84.9395080  21.0785290  45.8155370  86.0536500  22.0948040
  47.9053490  86.4416210  22.4306010  48.1931300  86.1870510  21.5539020
  48.4176710  85.8893570  23.0211580  49.1230500  70.1806410  23.0102520
  48.3402290  70.6551910  23.2899280  48.8293430  69.2761240  22.9015700
  53.6751570  70.8829510  21.0551610  54.1159660  70.8274610  20.2073210
  53.4059160  71.7987520  21.1261790  55.5390140  70.5144750  19.0660430
  55.4778540  69.5705970  18.9191450  56.3182170  70.6224840  19.6113890
  39.8442890  86.6537110  18.0284380  39.6764930  86.0207790  18.7266270
  38.9777400  86.8596510  17.6778570  40.4670910  70.4853890  15.5316240
  41.2250270  70.5982770  14.9580270  40.0048080  71.3223090  15.4859670
  47.0084720  72.5993160  18.5218550  46.1959230  72.2250050  18.1814430
  47.5126360  71.8438240  18.8239740  51.5109700  69.2635610  19.7601620
  52.1139070  69.8355820  20.2350140  50.7702690  69.8275050  19.5375520
  54.6544300  69.6657170  15.0341900  54.8494930  70.5640620  15.3009330
  53.8674170  69.4344250  15.5274850  41.4505590  85.3470340  15.4734520
  40.9253210  85.7278370  14.7696480  41.3750170  85.9721110  16.1944230
  42.8396060  71.0117940  14.0718210  43.3688820  70.2247740  13.9426160
  43.4724380  71.6909130  14.3053740  45.0333900  70.7493080  17.1263600
  44.4036640  70.0480390  17.2933730  44.4939040  71.5097210  16.9096760
  47.9725850  87.3632310  29.7974210  48.8993160  87.1276580  29.8410170
  47.9576280  88.1904310  29.3160240  56.2070910  86.9057880  16.7948460
  56.3823100  86.2195620  16.1509380  55.5092480  87.4304930  16.4025130
  44.0498560  87.2952720  14.3483770  44.7817380  87.0112000  13.8007660
  44.3092230  87.0566000  15.2383150  43.2113350  83.4117450  14.3530100
  42.5822230  83.8802550  14.9015930  43.3261180  82.5666670  14.7876290
  48.7981110  79.2402130   2.3840570  48.0223210  78.7602570   2.6739140
  49.4494040  78.5607780   2.2096730  42.8146940  79.5521940   3.2616330
  41.9831820  79.2970650   3.6612840  43.4227920  79.6232710   3.9974250
  42.7948200  83.5862030   3.4574350  43.0976240  82.6959770   3.2784570
  43.5391790  84.1432250   3.2296600  39.1871900  77.1129480   2.9298420
  39.7588010  76.3451680   2.9302060  39.1873440  77.4118240   2.0205030
  48.2390100  81.9159320   2.3910730  48.1698380  80.9749260   2.2299860
  49.0009960  82.0060730   2.9633300  40.4296770  72.5213840   4.7167350
  40.2499610  71.6239590   4.9970110  40.0276850  73.0685710   5.3914300
  49.2695270  74.7229700   2.6179660  49.6460090  73.8501580   2.5053330
  49.1714780  75.0588400   1.7270100  41.0483440  75.0174340   3.3249690
  41.7293550  75.2812710   3.9437090  40.7331490  74.1775210   3.6587700
  45.2408010  76.0641700   2.4122280  45.7486230  76.5622670   3.0527300
  45.7721250  75.2876900   2.2361640  57.3418940  74.2346890   6.1151630
  56.6371110  74.6228600   5.5966740  57.6076860  74.9297180   6.7172560
  43.5244110  70.7040260   6.6785700  43.5262550  71.2212650   5.8731600
  42.6948420  70.2270440   6.6555630  44.7746960  80.3435440   4.8559200
  44.4416340  80.9704360   5.4980270  44.9513640  80.8697320   4.0760870
  53.2880870  74.1580520   2.3235540  52.5836440  74.4465410   2.9038650
  53.6493030  74.9680630   1.9635100  43.2059440  72.4150220   4.6856150
  43.5476250  73.2592270   4.3910020  42.2675250  72.5633960   4.8021490
  43.9866060  82.3116240   6.6708380  44.6040060  82.9867320   6.3892830
  43.1259180  82.7204220   6.5795880  54.9043650  83.7755650   4.5863020
  54.2207170  84.4454760   4.5779690  55.4437940  83.9736300   3.8207880
  56.3567790  73.6035310   2.7144750  55.4092700  73.6374290   2.8460180
  56.6817780  74.4174260   3.0994110  52.4402390  85.6199780   3.3008200
  52.4529550  85.2162070   2.4330460  51.8877610  86.3947070   3.1969630
  51.8387830  80.5229620   4.6290810  52.2556620  80.3089730   3.7944270
  52.5627650  80.7802410   5.1999430  55.7849930  78.9216840   4.7207050
  54.9568560  78.9909930   4.2457180  56.3800410  79.5071150   4.2522880
  52.7491940  75.7086160   5.6661920  52.3363120  76.5339870   5.9201910
  52.0167890  75.1231200   5.4738280  45.3506430  82.1813620   2.6919800
  45.0534720  81.5759090   2.0127580  46.3006250  82.2190930   2.5809160
  43.5953350  75.2689270   4.3079630  44.1467940  75.3784610   3.5332880
  44.1096860  75.6426870   5.0234860  53.4392040  85.7545490   6.3542900
  52.9622600  86.5617680   6.1615510  52.7553830  85.1023820   6.5069110
  44.4424860  81.9195310   9.3427600  43.5453390  82.1435280   9.5901000
  44.4677730  82.0430250   8.3939000  43.2696080  78.7908630   7.9184970
  43.1303850  79.6631430   8.2872370  42.3877440  78.4481440   7.7732910
  45.0676430  84.7330330  10.1270120  45.0391860  85.1373280   9.2598550
  44.9041400  83.8040690   9.9641720  57.0191250  85.5157430  11.4234290
  57.4950970  85.9940320  12.1023370  57.6398410  85.4474920  10.6979790
  39.2214730  80.5606180   3.8355880  39.2995150  80.6954950   2.8911600
  39.8356410  79.8522070   4.0284000  56.4224500  82.7070280   8.5834300
  56.5487560  82.4682160   7.6651480  56.4645880  81.8754820   9.0556380
  50.2841240  86.4098280   7.1529110  50.7985910  86.3206290   7.9551540
  49.4410320  86.7557980   7.4457020  56.2748510  74.7602740   9.5484040
  55.6592780  75.2682410   9.0199500  55.9544930  73.8601070   9.4909980
  39.2774250  81.6020350   6.3750340  39.4405290  81.1325710   5.5569710
  39.7426700  81.0943910   7.0399180  48.3362830  73.5994630   7.0146230
  47.8742200  73.8077650   7.8266170  47.9340940  72.7853980   6.7116900
  53.3367340  74.8203580   8.1442890  52.4860930  74.5209330   8.4651960
  53.1769130  75.0645590   7.2326710  50.4317050  76.3205330  10.2441680
  50.7570460  75.4869080   9.9043910  51.2197380  76.8433850  10.3920010
  46.0868920  71.2773440   3.2700510  46.3841250  72.1836270   3.1892530
  46.6354480  70.7892220   2.6560080  46.2806450  76.7545260   9.8052430
  46.1850050  75.8139990   9.6552830  47.1238430  76.9760330   9.4100500
  41.4116990  73.1658930   7.9586210  41.0180380  74.0134140   8.1658990
  40.7235390  72.5285300   8.1494850  47.9862040  73.2493900  11.0282950
  47.2960360  73.0566100  11.6629040  48.7294340  73.5328540  11.5607250
  38.7134040  71.0887390   1.9916290  38.4247090  71.6590250   2.7041270
  39.4579800  70.6091840   2.3547520  50.2625010  77.0892340   3.8636870
  49.5306130  77.5979150   4.2126970  49.8649350  76.2722320   3.5625650
  46.7002400  73.7646540   2.2689360  46.7038460  73.3236490   1.4193900
  47.5953520  74.0863870   2.3761180  50.7250920  72.5426020   3.2759810
  50.7423660  72.9934670   4.1201660  50.4766500  71.6431660   3.4893250
  54.1521670  69.9558200   9.1146190  54.4767440  69.2247860   9.6404170
  54.1878180  69.6371840   8.2127180  40.8513230  80.9771780   8.5346150
  40.4668020  80.3365450   9.1329110  41.1625420  81.6807900   9.1040880
  47.0010370  77.8248320   4.0154770  47.3680500  77.3506890   4.7616110
  46.8115430  78.6989890   4.3563110  44.7909740  76.8656960   6.3338980
  44.4866810  77.7448940   6.5589340  45.7456200  76.9256750   6.3696420
  54.0779510  80.0683310   2.7232220  54.7978630  80.5638600   2.3328330
  53.8761330  79.3901200   2.0786090  49.4598310  80.1392370   8.6101220
  49.3935620  79.2188040   8.3558810  48.8303450  80.2367810   9.3245860
  40.8473470  77.7059700   7.4810340  40.4888410  78.3713550   8.0683680
  40.5528030  76.8743250   7.8522960  44.0486590  78.1643940  10.3649890
  43.7486730  78.3101120   9.4677710  44.8197830  77.6049230  10.2723280
  49.3915040  82.9612940   8.3605020  49.4059580  82.0293900   8.1423930
  48.6840140  83.0472700   8.9994790  55.6026250  79.6020280   7.7073600
  54.8774440  80.1949060   7.5102990  56.1301710  79.5943820   6.9086970
  48.8248940  84.6030510   5.4545520  49.4691160  84.8089890   6.1318940
  49.1878380  83.8418910   5.0016370  50.0981020  82.6062860   4.1722970
  50.7403250  81.9056020   4.2855140  50.6230370  83.3861300   3.9919860
  51.8718640  83.4057760   7.3759030  52.2074880  83.9924450   8.0536950
  50.9518980  83.2750470   7.6056820  39.4222040  71.1952940   8.1582440
  38.7080560  71.3949860   8.7635050  39.8417080  70.4192510   8.5297240
  39.7094630  85.1833200   9.1448970  39.8185750  84.2427940   9.0044360
  39.0575190  85.4487950   8.4962700  47.7007220  83.4549090  10.5447090
  47.3804090  82.7358330  11.0892780  47.0265580  84.1304160  10.6183150
  50.9160820  73.6875250   5.9083890  51.2841640  72.8670460   6.2363460
  50.0559020  73.7477140   6.3239540  47.8762810  76.3414840   6.1321860
  48.3748060  76.8160660   6.7973710  48.0185760  75.4178360   6.3391890
  55.0829670  72.5582800   6.9750250  54.5803270  73.2988200   7.3144060
  55.8986330  72.9466800   6.6587040  55.3777260  84.9724830   2.0965870
  55.5024680  85.7956000   2.5689680  56.2442820  84.7615560   1.7490020
  42.8494790  87.0656040   1.7683000  43.5857270  86.5171500   2.0391570
  43.2335710  87.9312050   1.6288990  41.8553070  86.2502110  10.9568580
  42.6565800  86.5714160  11.3703980  41.3404890  85.8897690  11.6788490
  50.6917700  82.3581980  10.9043990  50.0855860  82.3813580  10.1639740
  50.3871810  81.6265020  11.4411240  52.1218070  86.0862270   9.5153400
  53.0739820  86.0020290   9.4653640  51.9746290  86.7503980  10.1887190
  39.5750880  78.7375570   9.9004630  40.0789900  78.1582850  10.4720860
  38.8358300  79.0215800  10.4381000  46.6288820  80.1446560   9.4340150
  45.8634490  80.7131560   9.3494820  46.8104780  79.8522770   8.5408380
  53.7712170  81.8751890   9.9915170  54.5121640  82.2127650   9.4882630
  53.0084850  82.0443950   9.4384940  41.6073960  76.8805160  10.7954700
  41.6479300  76.5819030  11.7039930  42.4619460  77.2812770  10.6362220
  43.5479770  75.4597260   8.7629190  43.0176230  74.9688210   8.1352530
  44.2167840  75.8881460   8.2287120  52.4457830  79.9266720   8.5270380
  52.8598850  80.0811800   9.3760800  51.5108830  80.0521940   8.6896160
  52.9180000  77.2662880  10.5309530  53.5000770  76.5115200  10.4430010
  53.0941770  77.7970320   9.7541010  44.0352070  72.4259630   8.8426480
  43.9408940  71.8080380   8.1177350  43.4549460  73.1525920   8.6156390
  46.8013510  70.9832870   5.8753870  46.3530810  71.0057130   5.0299420
  46.1678710  70.5851890   6.4724170  47.2073060  79.8787200   6.4966310
  47.6261170  80.7219930   6.3242550  46.2881690  80.0159240   6.2673090
  49.5436960  77.6103380   7.8804150  49.6633170  77.0144520   8.6198990
  50.4030960  77.6473070   7.4605450  51.8824860  78.1640570   6.4566660
  51.3560080  78.6883190   5.8531800  52.2256200  78.7967960   7.0876390
  45.0580480  86.1840210   7.6124040  44.5201570  86.9086270   7.2932740
  45.3114440  85.7070550   6.8221380  46.3105730  74.1524730   9.1379970
  46.9005420  73.8440580   9.8257790  45.4925970  73.6804480   9.2939870
  51.1299160  73.7690540   9.3712990  50.4414680  73.1072080   9.3062980
  51.8505180  73.3228810   9.8161450  47.9142690  87.4191420   7.8710690
  47.8401390  88.3226560   8.1783060  47.0121530  87.1003320   7.8432760
  39.8060190  85.6136600   3.9125940  39.3691180  85.7937400   4.7450090
  40.3737870  86.3711220   3.7707660  55.4422370  85.1153600   8.2003250
  54.8424360  85.1746160   7.4567170  55.5716270  84.1758580   8.3300100
  54.1274010  81.8405580   6.2979410  53.3133850  82.2702740   6.5605200
  54.5348210  82.4523990   5.6848460  40.6760550  78.5109400   4.8118160
  41.0433590  78.4236800   5.6914180  40.1071370  77.7475950   4.7125020
  55.4764410  76.9793780   7.8248630  55.2450500  76.7506530   6.9246580
  55.7368960  77.8993330   7.7793520  40.2276550  75.4218490   8.7176580
  39.3332600  75.3885250   9.0570290  40.7674100  75.6205280   9.4827830
  53.9152480  72.2050210  10.6028330  54.7922660  72.2133610  10.9862330
  53.9273320  71.4681050   9.9920680  55.5405470  76.1419620   5.0135900
  54.5908180  76.1083160   5.1280890  55.7218480  77.0519730   4.7785670
  40.7316260  69.6966820   3.0659800  41.3792450  69.1464200   2.6254960
  41.1518100  69.9509970   3.8875610  54.6268600  69.8908180   6.4229440
  55.2640820  70.5042320   6.7888630  54.7743490  69.9268840   5.4778670
  40.4848260  69.8522490   5.8085120  40.1363080  70.3086310   6.5743300
  40.1535960  68.9579620   5.8907550  42.0912630  83.0242090   9.9738310
  42.0482260  82.6535000  10.8552770  42.2223640  83.9619660  10.1140130
  45.7918660  84.5801680   5.5748030  45.5510020  84.8476240   4.6878550
  46.7321300  84.7507410   5.6298890  47.9973080  71.0434370   9.3304540
  47.9361970  71.6356200  10.0799950  48.9373460  70.9360330   9.1854800
  50.6347640  70.7004430   8.9696830  51.2488050  71.0183720   8.3077910
  51.1797200  70.2153020   9.5892690  57.0522820  86.5996060   6.3758670
  56.5581100  86.9964930   5.6585800  56.4436110  85.9745270   6.7695950
  41.1568900  69.3798690   9.0835890  41.7051890  69.1986740   8.3202000
  41.2224210  68.5892800   9.6192200  41.9300660  85.9704340   7.0936090
  41.3360980  85.8389040   7.8326130  41.9224500  85.1342480   6.6278190
  51.3755680  69.2636570   5.2966120  50.5015520  69.5971680   5.0939050
  51.2666430  68.7909750   6.1217990  52.2827660  71.4707440   6.6807840
  51.9541020  70.6559200   6.3009570  53.2309960  71.4277250   6.5573530
  54.7362270  87.2419480   3.6545410  54.2765240  87.9935290   3.2803430
  54.1074730  86.5225950   3.5960210  41.5612890  83.3362720   6.0444130
  40.8346950  82.7168010   5.9770080  41.6222040  83.7303330   5.1742210
  45.1657990  85.5507720   2.8293540  45.6823010  84.9395080   2.3041800
  45.8155370  86.0536500   3.3204550  47.9053490  86.4416210   3.6562520
  48.1931300  86.1870510   2.7795530  48.4176710  85.8893570   4.2468090
  49.1230500  70.1806410   4.2359030  48.3402290  70.6551910   4.5155790
  48.8293430  69.2761240   4.1272210  53.6751570  70.8829510   2.2808120
  54.1159660  70.8274610   1.4329720  53.4059160  71.7987520   2.3518300
  47.9725850  87.3632310  11.0230720  48.8993160  87.1276580  11.0666680
  47.9576280  88.1904310  10.5416750  45.1589460  70.0277060  10.7872600
  44.8773730  70.5310660  10.0233420  45.5409160  69.2298810  10.4214730
  51.7604920  69.4430640  11.3653070  51.6470370  69.7625250  12.2604590
  52.5774660  69.8443150  11.0690350  54.5403410  86.5902170  10.8471760
  55.3328730  86.0951400  10.6397720  54.8336560  87.2692310  11.4547370
  50.6663070  58.6879620 150.6979220  50.5857120  57.7734230 150.4270930
  50.2527490  59.1846690 149.9918930  48.7981110  60.4658640 152.5788490
  48.0223210  59.9859080 152.8687060  49.4494040  59.7864290 152.4044650
  52.8188540  64.8718830 151.3587620  52.3570070  64.1006070 151.6874790
  53.6314090  64.8984900 151.8640070  41.2238890  55.7380340 147.2406640
  40.3355590  56.0796310 147.1386520  41.5080080  55.5380660 146.3487470
  39.1871900  58.3385990 153.1246340  39.7588010  57.5708190 153.1249980
  39.1873440  58.6374750 152.2152950  49.0451850  67.1576840 150.9791610
  48.4263290  67.6134340 150.4086050  49.9003630  67.3128300 150.5781310
  48.2390100  63.1415830 152.5858650  48.1698380  62.2005770 152.4247780
  49.0009960  63.2317240 153.1581220  49.2695270  55.9486210 152.8127580
  49.6460090  55.0758090 152.7001250  49.1714780  56.2844910 151.9218020
  43.4000280  54.3211840 148.2745020  43.5067030  55.2215570 148.5813780
  42.4892640  54.2729810 147.9839670  53.0519390  53.4436650 149.7455920
  53.8729010  52.9533220 149.7881400  53.0853470  54.0334310 150.4987760
  49.9115200  62.0416080 148.3723520  49.2932470  62.5065530 147.8086240
  50.4238450  62.7343560 148.7893030  53.2880870  55.3837030 152.5183460
  52.5836440  55.6721920 153.0986570  53.6493030  56.1937140 152.1583020
  39.2798400  62.7272610 145.7463150  38.9026380  63.2159710 145.0148050
  39.5371470  63.3997890 146.3769680  46.8887330  51.1289000 151.2048660
  47.1962310  50.5735890 150.4884160  45.9588030  51.2633460 151.0221650
  53.7347810  63.5672510 148.5846290  53.6244140  62.6246840 148.7095710
  53.7316060  63.9288150 149.4709050  49.2768090  59.1937830 147.9408780
  48.3497370  59.1275210 148.1697250  49.4292910  60.1317960 147.8264020
  49.2637170  55.4654830 144.9375940  48.3240840  55.6268790 145.0228400
  49.5820430  56.1840510 144.3911930  53.3065380  60.7558130 148.4444030
  52.6877800  60.4177680 147.7970330  53.2889830  60.1117890 149.1523220
  44.8824730  59.7202570 150.7228510  44.4781730  59.0079820 150.2274410
  44.9687850  59.3755810 151.6116550  45.3506430  63.4070130 152.8867720
  45.0534720  62.8015600 152.2075500  46.3006250  63.4447440 152.7757080
  51.4830080  59.9944940 145.4516780  51.9223360  59.1567370 145.3054600
  52.1958500  60.6274340 145.5380920  49.5925460  64.9341010 149.4198020
  50.0321370  65.6765340 149.0053410  49.5312350  65.1767580 150.3436980
  55.0647220  51.2487750 143.7657820  54.7519880  51.3414580 144.6656890
  55.8259690  51.8268780 143.7155250  41.5829360  58.6147550 148.2235160
  41.4626960  59.3409640 147.6116430  41.2730250  57.8450460 147.7463070
  40.4662360  63.4862880 150.4409980  40.0590440  63.6277470 149.5863580
  41.3575370  63.2023040 150.2381190  52.2595640  67.9210130 146.7761030
  52.0996780  67.6313070 147.6742860  52.0942350  67.1450260 146.2406260
  44.7384020  67.7008660 148.5532650  44.5626500  66.7844200 148.3400450
  43.8839760  68.0595950 148.7930450  51.9621770  65.4297690 145.3359030
  51.2686930  65.4274980 144.6761310  52.7044630  65.0057010 144.9053200
  51.5271700  67.0560400 149.4107520  51.9828650  66.2749780 149.7246140
  51.8664220  67.7667220 149.9548700  44.0493020  51.9582620 151.6058830
  43.6061170  52.7392160 151.2743350  44.6078010  52.2812510 152.3129770
  47.1651840  51.5793320 146.4864660  46.5406020  51.5753190 147.2117970
  47.0781960  50.7124280 146.0900630  43.8407240  57.0816190 149.3340080
  43.6148160  56.8653360 150.2386700  43.0599770  57.5144650 148.9886050
  51.0705000  57.0879560 147.9330730  50.4713890  57.8115360 147.7494350
  51.6184610  57.0256340 147.1507180  49.6769870  55.7243100 149.9634010
  50.0699440  56.0415300 149.1502700  50.0386720  54.8454980 150.0778530
  38.7134040  52.3143900 152.1864210  38.4247090  52.8846760 152.8989190
  39.4579800  51.8348350 152.5495440  38.9004270  56.2564020 143.3966930
  38.8178940  57.1994780 143.5381920  38.5487330  56.1138930 142.5179280
  46.7002400  54.9903050 152.4637280  46.7038460  54.5493000 151.6141820
  47.5953520  55.3120380 152.5709100  42.5504780  54.8729540 151.4231490
  42.2104830  55.3504770 152.1798540  41.7882100  54.4194660 151.0632590
  46.7622550  55.9915130 145.4544040  46.8835370  55.9501610 146.4029860
  46.3771060  56.8539280 145.2990770  45.7744050  58.3016270 144.8527340
  45.2060950  57.8534520 144.2263250  46.4833050  58.6609050 144.3192490
  39.8650860  53.7948520 150.3396160  39.5797780  53.4304190 151.1774780
  39.8029720  53.0628980 149.7259300  43.3191530  62.2974460 147.1253750
  42.5453790  61.7572080 146.9652470  44.0486160  61.7781070 146.7871510
  54.0779510  61.2939820 152.9180140  54.7978630  61.7895110 152.5276250
  53.8761330  60.6157710 152.2734010  49.5389450  52.6877780 147.0609530
  48.7254060  52.1890950 146.9854840  49.3451400  53.5276030 146.6445880
  52.2537840  57.0597430 145.3571690  53.1417460  57.3714660 145.1823030
  52.2242930  56.1869680 144.9652270  43.3628930  61.9654840 150.7632560
  43.8807600  61.1623100 150.7089450  42.9112950  61.9033980 151.6049390
  48.2498430  63.2321120 146.0359860  48.5914130  63.9763350 145.5403180
  47.4211140  63.5452240 146.3984690  54.5252110  58.3709270 144.8251550
  54.4415830  58.8023490 143.9747990  55.2446300  58.8307620 145.2578370
  55.5539360  65.2251530 147.5533680  54.9115520  64.5707150 147.8277400
  55.1670020  65.6306620 146.7774350  51.1325840  62.5536960 151.4005370
  51.4849660  61.9565090 150.7406740  50.2488170  62.2281190 151.5713620
  47.2189120  63.3134650 148.8075780  47.9060250  63.8603860 149.1883370
  46.4321540  63.8575380 148.8425390  39.3581520  58.9307470 144.2992860
  40.2276370  59.2132270 144.5828780  38.8671840  59.7443340 144.1841670
  46.5216330  60.3180680 148.4201140  46.9779110  61.1285930 148.6461330
  46.1704540  60.0003820 149.2519630  42.4228110  50.6618330 148.8923660
  42.2942740  50.6536230 149.8408580  41.5990130  51.0001420 148.5414670
  53.9436740  64.1167990 144.0910030  53.7174320  63.3998430 144.6834670
  53.5532940  63.8680430 143.2531780  39.7252770  68.1434850 144.8654490
  40.0850410  68.7424190 144.2111760  39.5845110  68.6894740 145.6389520
  53.5252990  62.0339930 145.7524190  53.2374690  62.4952620 146.5402070
  54.3205160  61.5737700 146.0208410  45.7421390  65.5266050 145.6828160
  45.7331490  66.2595740 145.0672670  44.8219750  65.2797630 145.7755120
  41.3428030  60.7480940 146.4274920  40.7355980  61.4879840 146.4370220
  41.8177380  60.8380300 145.6013120  54.2822850  53.8688700 146.9119370
  53.6536010  53.9734370 146.1977600  53.7874770  54.0885480 147.7013250
  48.7280990  65.5894290 144.3453350  48.8292970  65.3858280 143.4155330
  47.8282730  65.3352570 144.5501130  46.2506880  56.1474650 148.3277250
  45.5423030  56.6160990 148.7690860  46.5351360  55.4896660 148.9622440
  50.2822310  52.8725310 149.7673040  50.1590090  52.8911440 148.8182550
  51.2306870  52.9204250 149.8871440  47.3699100  68.1080610 149.0401020
  47.6240600  68.0702000 148.1180390  46.4211580  67.9813940 149.0329270
  44.4541900  54.4559730 145.7027960  45.3032430  54.8929880 145.6368150
  44.0873170  54.7679990 146.5300020  53.3751680  59.0272490 150.6159530
  52.4341820  59.0422720 150.7907220  53.6895750  58.2408450 151.0619830
  43.3533320  60.7092090 144.1763490  44.1196590  60.5973450 144.7388920
  43.4308010  60.0130060 143.5240260  42.0480080  58.1417160 144.8596380
  42.1283670  57.1944670 144.9713780  42.9399830  58.4724040 144.9657040
  55.3777260  66.1981340 152.2913790  55.5024680  67.0212510 152.7637600
  56.2442820  65.9872070 151.9437940  42.8494790  68.2912550 151.9630920
  43.5857270  67.7428010 152.2339490  43.2335710  69.1568560 151.8236910
  39.7340270  64.3586120 147.8372430  38.8080050  64.6007260 147.8277840
  40.1996700  65.1860380 147.7157180  45.9597100  67.4642860 143.7856490
  46.7525710  67.7531690 143.3338280  45.4401450  67.0335030 143.1068970
  55.0127270  66.6912990 145.2093230  54.7268780  66.2778130 144.3947410
  54.8146820  67.6200700 145.0893750  46.4774500  62.6846270 143.6498840
  46.3725140  62.0698620 144.3760220  46.3098720  62.1612160 142.8661850
  49.7177230  61.7466300 144.2540830  49.1687330  62.1935600 144.8983570
  50.3396490  61.2415550 144.7778500  45.3852350  60.7057220 146.1506130
  45.8068770  60.5397090 146.9937520  45.5103190  59.8957450 145.6561270
  47.8979990  59.7294830 143.3983230  48.4185650  59.0143850 143.0324380
  48.5448390  60.3680700 143.6983740  44.2811250  56.7790450 143.0964290
  44.0800310  55.9157810 143.4577630  44.1103300  56.6923810 142.1585890
  51.7599560  51.5898680 145.6251170  52.0401850  50.7466580 145.9810590
  50.9865290  51.8221790 146.1389920  43.0794050  53.8791070 143.0842170
  43.3819950  53.8858500 142.1761320  43.8188640  53.5288930 143.5809830
  46.2978980  52.8225690 144.0698370  45.9500980  52.1449680 143.4900820
  46.4991750  52.3615200 144.8841760  48.4628020  67.8106440 145.6884970
  49.3578810  68.1491410 145.7103730  48.4945650  67.0885850 145.0609250
  42.1024180  63.1833490 143.9171970  42.5399050  63.7263160 144.5729550
  42.5871910  62.3580440 143.9268310  39.3169980  65.9722520 151.3692230
  39.6472990  65.1043580 151.1370870  39.7460980  66.1781040 152.1997190
  43.9131900  64.3031530 149.0294200  43.6127440  64.1796500 149.9298110
  43.8069390  63.4440120 148.6209930  56.6823820  64.0827930 143.7320880
  55.8516780  64.1504580 144.2028110  56.8595650  64.9732050 143.4287740
  56.1380280  60.8275410 146.2355080  56.8999190  61.3972060 146.3414770
  56.1534650  60.2602610 147.0063390  39.6384620  59.3513340 150.4662740
  38.9833460  59.0824980 149.8222440  40.4762570  59.2417820 150.0164720
  57.1440250  61.6825510 151.0797010  57.5149080  60.8992830 150.6732980
  57.7842180  62.3714610 150.9014310  56.1899450  61.1209780 143.3927600
  56.4648290  62.0288660 143.2646820  56.0010190  61.0572310 144.3289590
  52.5875060  54.1454630 144.6881230  53.0059940  53.9585610 143.8477890
  52.2811120  53.2933680 144.9984160  56.0864790  59.0578770 148.3857030
  55.7108390  58.2906700 147.9538320  55.3567910  59.4401470 148.8731960
  38.8522700  56.5612270 146.4088070  37.9486780  56.8242470 146.2339730
  39.3363320  56.8323440 145.6288030  55.3615750  57.2836260 151.6864270
  55.8853230  56.7898910 151.0554440  55.9475170  57.4186620 152.4311840
  41.3949910  55.6177810 144.3182450  42.1041610  55.1961030 143.8329730
  40.6789850  55.6853040 143.6865800  41.0424070  51.6717140 143.3585100
  41.7652200  52.2126080 143.6766320  41.3148590  51.3980560 142.4826640
  54.8515720  56.5409610 147.6256680  55.3474840  56.3080480 148.4105560
  54.6531790  55.7021450 147.2094320  56.2802880  55.1770560 150.1594360
  56.1702160  55.0226600 151.0976630  57.0410470  54.6491500 149.9169770
  57.1693150  53.0078480 143.4000500  58.0942460  52.8759660 143.1918790
  57.1468940  53.0871300 144.3536950  57.2431640  53.7789140 146.0257210
  56.4483140  53.7134260 146.5550120  57.4474920  54.7139780 146.0142560
  54.1850060  67.8180690 150.0195600  54.7809130  67.4965260 149.3430020
  54.4428210  67.3452510 150.8108870  53.6751570  52.1086020 152.4756040
  54.1159660  52.0531120 151.6277640  53.4059160  53.0244030 152.5466220
  55.5390140  51.7401260 150.4864860  55.4778540  50.7962480 150.3395880
  56.3182170  51.8481350 151.0318320  39.8442890  67.8793620 149.4488810
  39.6764930  67.2464300 150.1470700  38.9777400  68.0853020 149.0983000
  40.4670910  51.7110400 146.9520670  41.2250270  51.8239280 146.3784700
  40.0048080  52.5479600 146.9064100  47.0084720  53.8249670 149.9422980
  46.1959230  53.4506560 149.6018860  47.5126360  53.0694750 150.2444170
  51.5109700  50.4892120 151.1806050  52.1139070  51.0612330 151.6554570
  50.7702690  51.0531560 150.9579950  54.6544300  50.8913680 146.4546330
  54.8494930  51.7897130 146.7213760  53.8674170  50.6600760 146.9479280
  41.4505590  66.5726850 146.8938950  40.9253210  66.9534880 146.1900910
  41.3750170  67.1977620 147.6148660  42.8396060  52.2374450 145.4922640
  43.3688820  51.4504250 145.3630590  43.4724380  52.9165640 145.7258170
  45.0333900  51.9749590 148.5468030  44.4036640  51.2736900 148.7138160
  44.4939040  52.7353720 148.3301190  56.2070910  68.1314390 148.2152890
  56.3823100  67.4452130 147.5713810  55.5092480  68.6561440 147.8229560
  44.0498560  68.5209230 145.7688200  44.7817380  68.2368510 145.2212090
  44.3092230  68.2822510 146.6587580  43.2113350  64.6373960 145.7734530
  42.5822230  65.1059060 146.3220360  43.3261180  63.7923180 146.2080720
  50.6663070  58.6879620 131.9235730  50.5857120  57.7734230 131.6527440
  50.2527490  59.1846690 131.2175440  48.7981110  60.4658640 133.8045000
  48.0223210  59.9859080 134.0943570  49.4494040  59.7864290 133.6301160
  42.8146940  60.7778450 134.6820760  41.9831820  60.5227160 135.0817270
  43.4227920  60.8489220 135.4178680  42.7948200  64.8118540 134.8778780
  43.0976240  63.9216280 134.6989000  43.5391790  65.3688760 134.6501030
  41.2238890  55.7380340 128.4663150  40.3355590  56.0796310 128.3643030
  41.5080080  55.5380660 127.5743980  39.1871900  58.3385990 134.3502850
  39.7588010  57.5708190 134.3506490  39.1873440  58.6374750 133.4409460
  48.2390100  63.1415830 133.8115160  48.1698380  62.2005770 133.6504290
  49.0009960  63.2317240 134.3837730  40.4296770  53.7470350 136.1371780
  40.2499610  52.8496100 136.4174540  40.0276850  54.2942220 136.8118730
  49.2695270  55.9486210 134.0384090  49.6460090  55.0758090 133.9257760
  49.1714780  56.2844910 133.1474530  43.4000280  54.3211840 129.5001530
  43.5067030  55.2215570 129.8070290  42.4892640  54.2729810 129.2096180
  41.0483440  56.2430850 134.7454120  41.7293550  56.5069220 135.3641520
  40.7331490  55.4031720 135.0792130  45.2408010  57.2898210 133.8326710
  45.7486230  57.7879180 134.4731730  45.7721250  56.5133410 133.6566070
  57.3418940  55.4603400 137.5356060  56.6371110  55.8485110 137.0171170
  57.6076860  56.1553690 138.1376990  43.5244110  51.9296770 138.0990130
  43.5262550  52.4469160 137.2936030  42.6948420  51.4526950 138.0760060
  49.9115200  62.0416080 129.5980030  49.2932470  62.5065530 129.0342750
  50.4238450  62.7343560 130.0149540  44.7746960  61.5691950 136.2763630
  44.4416340  62.1960870 136.9184700  44.9513640  62.0953830 135.4965300
  53.2880870  55.3837030 133.7439970  52.5836440  55.6721920 134.3243080
  53.6493030  56.1937140 133.3839530  43.2059440  53.6406730 136.1060580
  43.5476250  54.4848780 135.8114450  42.2675250  53.7890470 136.2225920
  43.9866060  63.5372750 138.0912810  44.6040060  64.2123830 137.8097260
  43.1259180  63.9460730 138.0000310  39.2798400  62.7272610 126.9719660
  38.9026380  63.2159710 126.2404560  39.5371470  63.3997890 127.6026190
  54.9043650  65.0012160 136.0067450  54.2207170  65.6711270 135.9984120
  55.4437940  65.1992810 135.2412310  56.3567790  54.8291820 134.1349180
  55.4092700  54.8630800 134.2664610  56.6817780  55.6430770 134.5198540
  46.8887330  51.1289000 132.4305170  47.1962310  50.5735890 131.7140670
  45.9588030  51.2633460 132.2478160  52.4402390  66.8456290 134.7212630
  52.4529550  66.4418580 133.8534890  51.8877610  67.6203580 134.6174060
  51.8387830  61.7486130 136.0495240  52.2556620  61.5346240 135.2148700
  52.5627650  62.0058920 136.6203860  55.7849930  60.1473350 136.1411480
  54.9568560  60.2166440 135.6661610  56.3800410  60.7327660 135.6727310
  53.3065380  60.7558130 129.6700540  52.6877800  60.4177680 129.0226840
  53.2889830  60.1117890 130.3779730  52.7491940  56.9342670 137.0866350
  52.3363120  57.7596380 137.3406340  52.0167890  56.3487710 136.8942710
  44.8824730  59.7202570 131.9485020  44.4781730  59.0079820 131.4530920
  44.9687850  59.3755810 132.8373060  45.3506430  63.4070130 134.1124230
  45.0534720  62.8015600 133.4332010  46.3006250  63.4447440 134.0013590
  43.5953350  56.4945780 135.7284060  44.1467940  56.6041120 134.9537310
  44.1096860  56.8683380 136.4439290  53.4392040  66.9802000 137.7747330
  52.9622600  67.7874190 137.5819940  52.7553830  66.3280330 137.9273540
  44.4424860  63.1451820 140.7632030  43.5453390  63.3691790 141.0105430
  44.4677730  63.2686760 139.8143430  43.2696080  60.0165140 139.3389400
  43.1303850  60.8887940 139.7076800  42.3877440  59.6737950 139.1937340
  45.0676430  65.9586840 141.5474550  45.0391860  66.3629790 140.6802980
  44.9041400  65.0297200 141.3846150  41.5829360  58.6147550 129.4491670
  41.4626960  59.3409640 128.8372940  41.2730250  57.8450460 128.9719580
  57.0191250  66.7413940 142.8438720  57.4950970  67.2196830 143.5227800
  57.6398410  66.6731430 142.1184220  39.2214730  61.7862690 135.2560310
  39.2995150  61.9211460 134.3116030  39.8356410  61.0778580 135.4488430
  40.4662360  63.4862880 131.6666490  40.0590440  63.6277470 130.8120090
  41.3575370  63.2023040 131.4637700  56.4224500  63.9326790 140.0038730
  56.5487560  63.6938670 139.0855910  56.4645880  63.1011330 140.4760810
  50.2841240  67.6354790 138.5733540  50.7985910  67.5462800 139.3755970
  49.4410320  67.9814490 138.8661450  51.9621770  65.4297690 126.5615540
  51.2686930  65.4274980 125.9017820  52.7044630  65.0057010 126.1309710
  56.2748510  55.9859250 140.9688470  55.6592780  56.4938920 140.4403930
  55.9544930  55.0857580 140.9114410  39.2774250  62.8276860 137.7954770
  39.4405290  62.3582220 136.9774140  39.7426700  62.3200420 138.4603610
  44.0493020  51.9582620 132.8315340  43.6061170  52.7392160 132.4999860
  44.6078010  52.2812510 133.5386280  48.3362830  54.8251140 138.4350660
  47.8742200  55.0334160 139.2470600  47.9340940  54.0110490 138.1321330
  53.3367340  56.0460090 139.5647320  52.4860930  55.7465840 139.8856390
  53.1769130  56.2902100 138.6531140  50.4317050  57.5461840 141.6646110
  50.7570460  56.7125590 141.3248340  51.2197380  58.0690360 141.8124440
  47.1651840  51.5793320 127.7121170  46.5406020  51.5753190 128.4374480
  47.0781960  50.7124280 127.3157140  46.0868920  52.5029950 134.6904940
  46.3841250  53.4092780 134.6096960  46.6354480  52.0148730 134.0764510
  43.8407240  57.0816190 130.5596590  43.6148160  56.8653360 131.4643210
  43.0599770  57.5144650 130.2142560  46.2806450  57.9801770 141.2256860
  46.1850050  57.0396500 141.0757260  47.1238430  58.2016840 140.8304930
  41.4116990  54.3915440 139.3790640  41.0180380  55.2390650 139.5863420
  40.7235390  53.7541810 139.5699280  47.9862040  54.4750410 142.4487380
  47.2960360  54.2822610 143.0833470  48.7294340  54.7585050 142.9811680
  38.7134040  52.3143900 133.4120720  38.4247090  52.8846760 134.1245700
  39.4579800  51.8348350 133.7751950  38.9004270  56.2564020 124.6223440
  38.8178940  57.1994780 124.7638430  38.5487330  56.1138930 123.7435790
  50.2625010  58.3148850 135.2841300  49.5306130  58.8235660 135.6331400
  49.8649350  57.4978830 134.9830080  46.7002400  54.9903050 133.6893790
  46.7038460  54.5493000 132.8398330  47.5953520  55.3120380 133.7965610
  42.5504780  54.8729540 132.6488000  42.2104830  55.3504770 133.4055050
  41.7882100  54.4194660 132.2889100  50.7250920  53.7682530 134.6964240
  50.7423660  54.2191180 135.5406090  50.4766500  52.8688170 134.9097680
  45.7744050  58.3016270 126.0783850  45.2060950  57.8534520 125.4519760
  46.4833050  58.6609050 125.5449000  54.1521670  51.1814710 140.5350620
  54.4767440  50.4504370 141.0608600  54.1878180  50.8628350 139.6331610
  40.8513230  62.2028290 139.9550580  40.4668020  61.5621960 140.5533540
  41.1625420  62.9064410 140.5245310  47.0010370  59.0504830 135.4359200
  47.3680500  58.5763400 136.1820540  46.8115430  59.9246400 135.7767540
  39.8650860  53.7948520 131.5652670  39.5797780  53.4304190 132.4031290
  39.8029720  53.0628980 130.9515810  44.7909740  58.0913470 137.7543410
  44.4866810  58.9705450 137.9793770  45.7456200  58.1513260 137.7900850
  43.3191530  62.2974460 128.3510260  42.5453790  61.7572080 128.1908980
  44.0486160  61.7781070 128.0128020  54.0779510  61.2939820 134.1436650
  54.7978630  61.7895110 133.7532760  53.8761330  60.6157710 133.4990520
  49.5389450  52.6877780 128.2866040  48.7254060  52.1890950 128.2111350
  49.3451400  53.5276030 127.8702390  49.4598310  61.3648880 140.0305650
  49.3935620  60.4444550 139.7763240  48.8303450  61.4624320 140.7450290
  43.3628930  61.9654840 131.9889070  43.8807600  61.1623100 131.9345960
  42.9112950  61.9033980 132.8305900  48.2498430  63.2321120 127.2616370
  48.5914130  63.9763350 126.7659690  47.4211140  63.5452240 127.6241200
  40.8473470  58.9316210 138.9014770  40.4888410  59.5970060 139.4888110
  40.5528030  58.0999760 139.2727390  44.0486590  59.3900450 141.7854320
  43.7486730  59.5357630 140.8882140  44.8197830  58.8305740 141.6927710
  49.3915040  64.1869450 139.7809450  49.4059580  63.2550410 139.5628360
  48.6840140  64.2729210 140.4199220  55.6026250  60.8276790 139.1278030
  54.8774440  61.4205570 138.9307420  56.1301710  60.8200330 138.3291400
  55.5539360  65.2251530 128.7790190  54.9115520  64.5707150 129.0533910
  55.1670020  65.6306620 128.0030860  51.1325840  62.5536960 132.6261880
  51.4849660  61.9565090 131.9663250  50.2488170  62.2281190 132.7970130
  47.2189120  63.3134650 130.0332290  47.9060250  63.8603860 130.4139880
  46.4321540  63.8575380 130.0681900  46.5216330  60.3180680 129.6457650
  46.9779110  61.1285930 129.8717840  46.1704540  60.0003820 130.4776140
  48.8248940  65.8287020 136.8749950  49.4691160  66.0346400 137.5523370
  49.1878380  65.0675420 136.4220800  42.4228110  50.6618330 130.1180170
  42.2942740  50.6536230 131.0665090  41.5990130  51.0001420 129.7671180
  50.0981020  63.8319370 135.5927400  50.7403250  63.1312530 135.7059570
  50.6230370  64.6117810 135.4124290  53.9436740  64.1167990 125.3166540
  53.7174320  63.3998430 125.9091180  53.5532940  63.8680430 124.4788290
  51.8718640  64.6314270 138.7963460  52.2074880  65.2180960 139.4741380
  50.9518980  64.5006980 139.0261250  39.7252770  68.1434850 126.0911000
  40.0850410  68.7424190 125.4368270  39.5845110  68.6894740 126.8646030
  39.4222040  52.4209450 139.5786870  38.7080560  52.6206370 140.1839480
  39.8417080  51.6449020 139.9501670  53.5252990  62.0339930 126.9780700
  53.2374690  62.4952620 127.7658580  54.3205160  61.5737700 127.2464920
  39.7094630  66.4089710 140.5653400  39.8185750  65.4684450 140.4248790
  39.0575190  66.6744460 139.9167130  47.7007220  64.6805600 141.9651520
  47.3804090  63.9614840 142.5097210  47.0265580  65.3560670 142.0387580
  45.7421390  65.5266050 126.9084670  45.7331490  66.2595740 126.2929180
  44.8219750  65.2797630 127.0011630  50.9160820  54.9131760 137.3288320
  51.2841640  54.0926970 137.6567890  50.0559020  54.9733650 137.7443970
  46.2506880  56.1474650 129.5533760  45.5423030  56.6160990 129.9947370
  46.5351360  55.4896660 130.1878950  47.8762810  57.5671350 137.5526290
  48.3748060  58.0417170 138.2178140  48.0185760  56.6434870 137.7596320
  50.2822310  52.8725310 130.9929550  50.1590090  52.8911440 130.0439060
  51.2306870  52.9204250 131.1127950  44.4541900  54.4559730 126.9284470
  45.3032430  54.8929880 126.8624660  44.0873170  54.7679990 127.7556530
  55.0829670  53.7839310 138.3954680  54.5803270  54.5244710 138.7348490
  55.8986330  54.1723310 138.0791470  53.3751680  59.0272490 131.8416040
  52.4341820  59.0422720 132.0163730  53.6895750  58.2408450 132.2876340
  42.8494790  68.2912550 133.1887430  43.5857270  67.7428010 133.4596000
  43.2335710  69.1568560 133.0493420  39.7340270  64.3586120 129.0628940
  38.8080050  64.6007260 129.0534350  40.1996700  65.1860380 128.9413690
  41.8553070  67.4758620 142.3773010  42.6565800  67.7970670 142.7908410
  41.3404890  67.1154200 143.0992920  45.9597100  67.4642860 125.0113000
  46.7525710  67.7531690 124.5594790  45.4401450  67.0335030 124.3325480
  50.6917700  63.5838490 142.3248420  50.0855860  63.6070090 141.5844170
  50.3871810  62.8521530 142.8615670  52.1218070  67.3118780 140.9357830
  53.0739820  67.2276800 140.8858070  51.9746290  67.9760490 141.6091620
  39.5750880  59.9632080 141.3209060  40.0789900  59.3839360 141.8925290
  38.8358300  60.2472310 141.8585430  46.4774500  62.6846270 124.8755350
  46.3725140  62.0698620 125.6016730  46.3098720  62.1612160 124.0918360
  46.6288820  61.3703070 140.8544580  45.8634490  61.9388070 140.7699250
  46.8104780  61.0779280 139.9612810  49.7177230  61.7466300 125.4797340
  49.1687330  62.1935600 126.1240080  50.3396490  61.2415550 126.0035010
  53.7712170  63.1008400 141.4119600  54.5121640  63.4384160 140.9087060
  53.0084850  63.2700460 140.8589370  41.6073960  58.1061670 142.2159130
  41.6479300  57.8075540 143.1244360  42.4619460  58.5069280 142.0566650
  45.3852350  60.7057220 127.3762640  45.8068770  60.5397090 128.2194030
  45.5103190  59.8957450 126.8817780  43.5479770  56.6853770 140.1833620
  43.0176230  56.1944720 139.5556960  44.2167840  57.1137970 139.6491550
  52.4457830  61.1523230 139.9474810  52.8598850  61.3068310 140.7965230
  51.5108830  61.2778450 140.1100590  52.9180000  58.4919390 141.9513960
  53.5000770  57.7371710 141.8634440  53.0941770  59.0226830 141.1745440
  44.0352070  53.6516140 140.2630910  43.9408940  53.0336890 139.5381780
  43.4549460  54.3782430 140.0360820  46.8013510  52.2089380 137.2958300
  46.3530810  52.2313640 136.4503850  46.1678710  51.8108400 137.8928600
  47.2073060  61.1043710 137.9170740  47.6261170  61.9476440 137.7446980
  46.2881690  61.2415750 137.6877520  49.5436960  58.8359890 139.3008580
  49.6633170  58.2401030 140.0403420  50.4030960  58.8729580 138.8809880
  51.8824860  59.3897080 137.8771090  51.3560080  59.9139700 137.2736230
  52.2256200  60.0224470 138.5080820  44.2811250  56.7790450 124.3220800
  44.0800310  55.9157810 124.6834140  44.1103300  56.6923810 123.3842400
  45.0580480  67.4096720 139.0328470  44.5201570  68.1342780 138.7137170
  45.3114440  66.9327060 138.2425810  46.3105730  55.3781240 140.5584400
  46.9005420  55.0697090 141.2462220  45.4925970  54.9060990 140.7144300
  51.1299160  54.9947050 140.7917420  50.4414680  54.3328590 140.7267410
  51.8505180  54.5485320 141.2365880  43.0794050  53.8791070 124.3098680
  43.3819950  53.8858500 123.4017830  43.8188640  53.5288930 124.8066340
  47.9142690  68.6447930 139.2915120  47.8401390  69.5483070 139.5987490
  47.0121530  68.3259830 139.2637190  46.2978980  52.8225690 125.2954880
  45.9500980  52.1449680 124.7157330  46.4991750  52.3615200 126.1098270
  48.4628020  67.8106440 126.9141480  49.3578810  68.1491410 126.9360240
  48.4945650  67.0885850 126.2865760  39.3169980  65.9722520 132.5948740
  39.6472990  65.1043580 132.3627380  39.7460980  66.1781040 133.4253700
  43.9131900  64.3031530 130.2550710  43.6127440  64.1796500 131.1554620
  43.8069390  63.4440120 129.8466440  39.8060190  66.8393110 135.3330370
  39.3691180  67.0193910 136.1654520  40.3737870  67.5967730 135.1912090
  55.4422370  66.3410110 139.6207680  54.8424360  66.4002670 138.8771600
  55.5716270  65.4015090 139.7504530  56.6823820  64.0827930 124.9577390
  55.8516780  64.1504580 125.4284620  56.8595650  64.9732050 124.6544250
  56.1380280  60.8275410 127.4611590  56.8999190  61.3972060 127.5671280
  56.1534650  60.2602610 128.2319900  39.6384620  59.3513340 131.6919250
  38.9833460  59.0824980 131.0478950  40.4762570  59.2417820 131.2421230
  54.1274010  63.0662090 137.7183840  53.3133850  63.4959250 137.9809630
  54.5348210  63.6780500 137.1052890  56.0864790  59.0578770 129.6113540
  55.7108390  58.2906700 129.1794830  55.3567910  59.4401470 130.0988470
  40.6760550  59.7365910 136.2322590  41.0433590  59.6493310 137.1118610
  40.1071370  58.9732460 136.1329450  55.4764410  58.2050290 139.2453060
  55.2450500  57.9763040 138.3451010  55.7368960  59.1249840 139.1997950
  40.2276550  56.6475000 140.1381010  39.3332600  56.6141760 140.4774720
  40.7674100  56.8461790 140.9032260  53.9152480  53.4306720 142.0232760
  54.7922660  53.4390120 142.4066760  53.9273320  52.6937560 141.4125110
  38.8522700  56.5612270 127.6344580  37.9486780  56.8242470 127.4596240
  39.3363320  56.8323440 126.8544540  55.5405470  57.3676130 136.4340330
  54.5908180  57.3339670 136.5485320  55.7218480  58.2776240 136.1990100
  41.3949910  55.6177810 125.5438960  42.1041610  55.1961030 125.0586240
  40.6789850  55.6853040 124.9122310  41.0424070  51.6717140 124.5841610
  41.7652200  52.2126080 124.9022830  41.3148590  51.3980560 123.7083150
  40.7316260  50.9223330 134.4864230  41.3792450  50.3720710 134.0459390
  41.1518100  51.1766480 135.3080040  56.2802880  55.1770560 131.3850870
  56.1702160  55.0226600 132.3233140  57.0410470  54.6491500 131.1426280
  54.6268600  51.1164690 137.8433870  55.2640820  51.7298830 138.2093060
  54.7743490  51.1525350 136.8983100  57.1693150  53.0078480 124.6257010
  58.0942460  52.8759660 124.4175300  57.1468940  53.0871300 125.5793460
  57.2431640  53.7789140 127.2513720  56.4483140  53.7134260 127.7806630
  57.4474920  54.7139780 127.2399070  54.1850060  67.8180690 131.2452110
  54.7809130  67.4965260 130.5686530  54.4428210  67.3452510 132.0365380
  40.4848260  51.0779000 137.2289550  40.1363080  51.5342820 137.9947730
  40.1535960  50.1836130 137.3111980  42.0912630  64.2498600 141.3942740
  42.0482260  63.8791510 142.2757200  42.2223640  65.1876170 141.5344560
  45.7918660  65.8058190 136.9952460  45.5510020  66.0732750 136.1082980
  46.7321300  65.9763920 137.0503320  47.9973080  52.2690880 140.7508970
  47.9361970  52.8612710 141.5004380  48.9373460  52.1616840 140.6059230
  50.6347640  51.9260940 140.3901260  51.2488050  52.2440230 139.7282340
  51.1797200  51.4409530 141.0097120  41.1568900  50.6055200 140.5040320
  41.7051890  50.4243250 139.7406430  41.2224210  49.8149310 141.0396630
  41.9300660  67.1960850 138.5140520  41.3360980  67.0645550 139.2530560
  41.9224500  66.3598990 138.0482620  51.3755680  50.4893080 136.7170550
  50.5015520  50.8228190 136.5143480  51.2666430  50.0166260 137.5422420
  52.2827660  52.6963950 138.1012270  51.9541020  51.8815710 137.7214000
  53.2309960  52.6533760 137.9777960  41.5612890  64.5619230 137.4648560
  40.8346950  63.9424520 137.3974510  41.6222040  64.9559840 136.5946640
  45.1657990  66.7764230 134.2497970  45.6823010  66.1651590 133.7246230
  45.8155370  67.2793010 134.7408980  47.9053490  67.6672720 135.0766950
  48.1931300  67.4127020 134.1999960  48.4176710  67.1150080 135.6672520
  49.1230500  51.4062920 135.6563460  48.3402290  51.8808420 135.9360220
  48.8293430  50.5017750 135.5476640  53.6751570  52.1086020 133.7012550
  54.1159660  52.0531120 132.8534150  53.4059160  53.0244030 133.7722730
  55.5390140  51.7401260 131.7121370  55.4778540  50.7962480 131.5652390
  56.3182170  51.8481350 132.2574830  39.8442890  67.8793620 130.6745320
  39.6764930  67.2464300 131.3727210  38.9777400  68.0853020 130.3239510
  40.4670910  51.7110400 128.1777180  41.2250270  51.8239280 127.6041210
  40.0048080  52.5479600 128.1320610  47.0084720  53.8249670 131.1679490
  46.1959230  53.4506560 130.8275370  47.5126360  53.0694750 131.4700680
  51.5109700  50.4892120 132.4062560  52.1139070  51.0612330 132.8811080
  50.7702690  51.0531560 132.1836460  54.6544300  50.8913680 127.6802840
  54.8494930  51.7897130 127.9470270  53.8674170  50.6600760 128.1735790
  41.4505590  66.5726850 128.1195460  40.9253210  66.9534880 127.4157420
  41.3750170  67.1977620 128.8405170  42.8396060  52.2374450 126.7179150
  43.3688820  51.4504250 126.5887100  43.4724380  52.9165640 126.9514680
  45.0333900  51.9749590 129.7724540  44.4036640  51.2736900 129.9394670
  44.4939040  52.7353720 129.5557700  47.9725850  68.5888820 142.4435150
  48.8993160  68.3533090 142.4871110  47.9576280  69.4160820 141.9621180
  56.2070910  68.1314390 129.4409400  56.3823100  67.4452130 128.7970320
  55.5092480  68.6561440 129.0486070  45.1589460  51.2533570 142.2077030
  44.8773730  51.7567170 141.4437850  45.5409160  50.4555320 141.8419160
  44.0498560  68.5209230 126.9944710  44.7817380  68.2368510 126.4468600
  44.3092230  68.2822510 127.8844090  43.2113350  64.6373960 126.9991040
  42.5822230  65.1059060 127.5476870  43.3261180  63.7923180 127.4337230
  51.7604920  50.6687150 142.7857500  51.6470370  50.9881760 143.6809020
  52.5774660  51.0699660 142.4894780  54.5403410  67.8158680 142.2676190
  55.3328730  67.3207910 142.0602150  54.8336560  68.4948820 142.8751800
  50.6663070  58.6879620 113.1492240  50.5857120  57.7734230 112.8783950
  50.2527490  59.1846690 112.4431950  48.7981110  60.4658640 115.0301510
  48.0223210  59.9859080 115.3200080  49.4494040  59.7864290 114.8557670
  42.8146940  60.7778450 115.9077270  41.9831820  60.5227160 116.3073780
  43.4227920  60.8489220 116.6435190  52.8188540  64.8718830 113.8100640
  52.3570070  64.1006070 114.1387810  53.6314090  64.8984900 114.3153090
  42.7948200  64.8118540 116.1035290  43.0976240  63.9216280 115.9245510
  43.5391790  65.3688760 115.8757540  39.1871900  58.3385990 115.5759360
  39.7588010  57.5708190 115.5763000  39.1873440  58.6374750 114.6665970
  49.0451850  67.1576840 113.4304630  48.4263290  67.6134340 112.8599070
  49.9003630  67.3128300 113.0294330  48.2390100  63.1415830 115.0371670
  48.1698380  62.2005770 114.8760800  49.0009960  63.2317240 115.6094240
  49.2695270  55.9486210 115.2640600  49.6460090  55.0758090 115.1514270
  49.1714780  56.2844910 114.3731040  53.0519390  53.4436650 112.1968940
  53.8729010  52.9533220 112.2394420  53.0853470  54.0334310 112.9500780
  41.0483440  56.2430850 115.9710630  41.7293550  56.5069220 116.5898030
  40.7331490  55.4031720 116.3048640  45.2408010  57.2898210 115.0583220
  45.7486230  57.7879180 115.6988240  45.7721250  56.5133410 114.8822580
  57.3418940  55.4603400 118.7612570  56.6371110  55.8485110 118.2427680
  57.6076860  56.1553690 119.3633500  49.9115200  62.0416080 110.8236540
  49.2932470  62.5065530 110.2599260  50.4238450  62.7343560 111.2406050
  53.2880870  55.3837030 114.9696480  52.5836440  55.6721920 115.5499590
  53.6493030  56.1937140 114.6096040  43.2059440  53.6406730 117.3317090
  43.5476250  54.4848780 117.0370960  42.2675250  53.7890470 117.4482430
  43.9866060  63.5372750 119.3169320  44.6040060  64.2123830 119.0353770
  43.1259180  63.9460730 119.2256820  39.2798400  62.7272610 108.1976170
  38.9026380  63.2159710 107.4661070  39.5371470  63.3997890 108.8282700
  54.9043650  65.0012160 117.2323960  54.2207170  65.6711270 117.2240630
  55.4437940  65.1992810 116.4668820  56.3567790  54.8291820 115.3605690
  55.4092700  54.8630800 115.4921120  56.6817780  55.6430770 115.7455050
  52.4402390  66.8456290 115.9469140  52.4529550  66.4418580 115.0791400
  51.8877610  67.6203580 115.8430570  51.8387830  61.7486130 117.2751750
  52.2556620  61.5346240 116.4405210  52.5627650  62.0058920 117.8460370
  49.2768090  59.1937830 110.3921800  48.3497370  59.1275210 110.6210270
  49.4292910  60.1317960 110.2777040  49.2637170  55.4654830 107.3888960
  48.3240840  55.6268790 107.4741420  49.5820430  56.1840510 106.8424950
  55.7849930  60.1473350 117.3667990  54.9568560  60.2166440 116.8918120
  56.3800410  60.7327660 116.8983820  52.7491940  56.9342670 118.3122860
  52.3363120  57.7596380 118.5662850  52.0167890  56.3487710 118.1199220
  44.8824730  59.7202570 113.1741530  44.4781730  59.0079820 112.6787430
  44.9687850  59.3755810 114.0629570  45.3506430  63.4070130 115.3380740
  45.0534720  62.8015600 114.6588520  46.3006250  63.4447440 115.2270100
  43.5953350  56.4945780 116.9540570  44.1467940  56.6041120 116.1793820
  44.1096860  56.8683380 117.6695800  53.4392040  66.9802000 119.0003840
  52.9622600  67.7874190 118.8076450  52.7553830  66.3280330 119.1530050
  44.4424860  63.1451820 121.9888540  43.5453390  63.3691790 122.2361940
  44.4677730  63.2686760 121.0399940  51.4830080  59.9944940 107.9029800
  51.9223360  59.1567370 107.7567620  52.1958500  60.6274340 107.9893940
  43.2696080  60.0165140 120.5645910  43.1303850  60.8887940 120.9333310
  42.3877440  59.6737950 120.4193850  49.5925460  64.9341010 111.8711040
  50.0321370  65.6765340 111.4566430  49.5312350  65.1767580 112.7950000
  45.0676430  65.9586840 122.7731060  45.0391860  66.3629790 121.9059490
  44.9041400  65.0297200 122.6102660  55.0647220  51.2487750 106.2170840
  54.7519880  51.3414580 107.1169910  55.8259690  51.8268780 106.1668270
  57.0191250  66.7413940 124.0695230  57.4950970  67.2196830 124.7484310
  57.6398410  66.6731430 123.3440730  39.2214730  61.7862690 116.4816820
  39.2995150  61.9211460 115.5372540  39.8356410  61.0778580 116.6744940
  50.2841240  67.6354790 119.7990050  50.7985910  67.5462800 120.6012480
  49.4410320  67.9814490 120.0917960  51.5271700  67.0560400 111.8620540
  51.9828650  66.2749780 112.1759160  51.8664220  67.7667220 112.4061720
  56.2748510  55.9859250 122.1944980  55.6592780  56.4938920 121.6660440
  55.9544930  55.0857580 122.1370920  39.2774250  62.8276860 119.0211280
  39.4405290  62.3582220 118.2030650  39.7426700  62.3200420 119.6860120
  48.3362830  54.8251140 119.6607170  47.8742200  55.0334160 120.4727110
  47.9340940  54.0110490 119.3577840  53.3367340  56.0460090 120.7903830
  52.4860930  55.7465840 121.1112900  53.1769130  56.2902100 119.8787650
  51.0705000  57.0879560 110.3843750  50.4713890  57.8115360 110.2007370
  51.6184610  57.0256340 109.6020200  46.2806450  57.9801770 122.4513370
  46.1850050  57.0396500 122.3013770  47.1238430  58.2016840 122.0561440
  41.4116990  54.3915440 120.6047150  41.0180380  55.2390650 120.8119930
  40.7235390  53.7541810 120.7955790  47.9862040  54.4750410 123.6743890
  47.2960360  54.2822610 124.3089980  48.7294340  54.7585050 124.2068190
  38.9004270  56.2564020 105.8479950  38.8178940  57.1994780 105.9894940
  38.5487330  56.1138930 104.9692300  50.2625010  58.3148850 116.5097810
  49.5306130  58.8235660 116.8587910  49.8649350  57.4978830 116.2086590
  50.7250920  53.7682530 115.9220750  50.7423660  54.2191180 116.7662600
  50.4766500  52.8688170 116.1354190  40.8513230  62.2028290 121.1807090
  40.4668020  61.5621960 121.7790050  41.1625420  62.9064410 121.7501820
  43.3191530  62.2974460 109.5766770  42.5453790  61.7572080 109.4165490
  44.0486160  61.7781070 109.2384530  49.5389450  52.6877780 109.5122550
  48.7254060  52.1890950 109.4367860  49.3451400  53.5276030 109.0958900
  49.4598310  61.3648880 121.2562160  49.3935620  60.4444550 121.0019750
  48.8303450  61.4624320 121.9706800  52.2537840  57.0597430 107.8084710
  53.1417460  57.3714660 107.6336050  52.2242930  56.1869680 107.4165290
  43.3628930  61.9654840 113.2145580  43.8807600  61.1623100 113.1602470
  42.9112950  61.9033980 114.0562410  48.2498430  63.2321120 108.4872880
  48.5914130  63.9763350 107.9916200  47.4211140  63.5452240 108.8497710
  40.8473470  58.9316210 120.1271280  40.4888410  59.5970060 120.7144620
  40.5528030  58.0999760 120.4983900  51.1325840  62.5536960 113.8518390
  51.4849660  61.9565090 113.1919760  50.2488170  62.2281190 114.0226640
  47.2189120  63.3134650 111.2588800  47.9060250  63.8603860 111.6396390
  46.4321540  63.8575380 111.2938410  48.8248940  65.8287020 118.1006460
  49.4691160  66.0346400 118.7779880  49.1878380  65.0675420 117.6477310
  50.0981020  63.8319370 116.8183910  50.7403250  63.1312530 116.9316080
  50.6230370  64.6117810 116.6380800  51.8718640  64.6314270 120.0219970
  52.2074880  65.2180960 120.6997890  50.9518980  64.5006980 120.2517760
  39.4222040  52.4209450 120.8043380  38.7080560  52.6206370 121.4095990
  39.8417080  51.6449020 121.1758180  39.7094630  66.4089710 121.7909910
  39.8185750  65.4684450 121.6505300  39.0575190  66.6744460 121.1423640
  50.9160820  54.9131760 118.5544830  51.2841640  54.0926970 118.8824400
  50.0559020  54.9733650 118.9700480  54.2822850  53.8688700 109.3632390
  53.6536010  53.9734370 108.6490620  53.7874770  54.0885480 110.1526270
  55.0829670  53.7839310 119.6211190  54.5803270  54.5244710 119.9605000
  55.8986330  54.1723310 119.3047980  53.3751680  59.0272490 113.0672550
  52.4341820  59.0422720 113.2420240  53.6895750  58.2408450 113.5132850
  43.3533320  60.7092090 106.6276510  44.1196590  60.5973450 107.1901940
  43.4308010  60.0130060 105.9753280  55.3777260  66.1981340 114.7426810
  55.5024680  67.0212510 115.2150620  56.2442820  65.9872070 114.3950960
  41.8553070  67.4758620 123.6029520  42.6565800  67.7970670 124.0164920
  41.3404890  67.1154200 124.3249430  50.6917700  63.5838490 123.5504930
  50.0855860  63.6070090 122.8100680  50.3871810  62.8521530 124.0872180
  46.6288820  61.3703070 122.0801090  45.8634490  61.9388070 121.9955760
  46.8104780  61.0779280 121.1869320  49.7177230  61.7466300 106.7053850
  49.1687330  62.1935600 107.3496590  50.3396490  61.2415550 107.2291520
  43.5479770  56.6853770 121.4090130  43.0176230  56.1944720 120.7813470
  44.2167840  57.1137970 120.8748060  47.8979990  59.7294830 105.8496250
  48.4185650  59.0143850 105.4837400  48.5448390  60.3680700 106.1496760
  44.0352070  53.6516140 121.4887420  43.9408940  53.0336890 120.7638290
  43.4549460  54.3782430 121.2617330  46.8013510  52.2089380 118.5214810
  46.3530810  52.2313640 117.6760360  46.1678710  51.8108400 119.1185110
  49.5436960  58.8359890 120.5265090  49.6633170  58.2401030 121.2659930
  50.4030960  58.8729580 120.1066390  51.8824860  59.3897080 119.1027600
  51.3560080  59.9139700 118.4992740  52.2256200  60.0224470 119.7337330
  45.0580480  67.4096720 120.2584980  44.5201570  68.1342780 119.9393680
  45.3114440  66.9327060 119.4682320  46.3105730  55.3781240 121.7840910
  46.9005420  55.0697090 122.4718730  45.4925970  54.9060990 121.9400810
  51.1299160  54.9947050 122.0173930  50.4414680  54.3328590 121.9523920
  51.8505180  54.5485320 122.4622390  51.7599560  51.5898680 108.0764190
  52.0401850  50.7466580 108.4323610  50.9865290  51.8221790 108.5902940
  47.9142690  68.6447930 120.5171630  47.8401390  69.5483070 120.8244000
  47.0121530  68.3259830 120.4893700  46.2978980  52.8225690 106.5211390
  45.9500980  52.1449680 105.9413840  46.4991750  52.3615200 107.3354780
  42.1024180  63.1833490 106.3684990  42.5399050  63.7263160 107.0242570
  42.5871910  62.3580440 106.3781330  39.8060190  66.8393110 116.5586880
  39.3691180  67.0193910 117.3911030  40.3737870  67.5967730 116.4168600
  39.6384620  59.3513340 112.9175760  38.9833460  59.0824980 112.2735460
  40.4762570  59.2417820 112.4677740  52.5875060  54.1454630 107.1394250
  53.0059940  53.9585610 106.2990910  52.2811120  53.2933680 107.4497180
  40.6760550  59.7365910 117.4579100  41.0433590  59.6493310 118.3375120
  40.1071370  58.9732460 117.3585960  40.2276550  56.6475000 121.3637520
  39.3332600  56.6141760 121.7031230  40.7674100  56.8461790 122.1288770
  53.9152480  53.4306720 123.2489270  54.7922660  53.4390120 123.6323270
  53.9273320  52.6937560 122.6381620  55.3615750  57.2836260 114.1377290
  55.8853230  56.7898910 113.5067460  55.9475170  57.4186620 114.8824860
  55.5405470  57.3676130 117.6596840  54.5908180  57.3339670 117.7741830
  55.7218480  58.2776240 117.4246610  41.0424070  51.6717140 105.8098120
  41.7652200  52.2126080 106.1279340  41.3148590  51.3980560 104.9339660
  54.8515720  56.5409610 110.0769700  55.3474840  56.3080480 110.8618580
  54.6531790  55.7021450 109.6607340  56.2802880  55.1770560 112.6107380
  56.1702160  55.0226600 113.5489650  57.0410470  54.6491500 112.3682790
  54.6268600  51.1164690 119.0690380  55.2640820  51.7298830 119.4349570
  54.7743490  51.1525350 118.1239610  57.1693150  53.0078480 105.8513520
  58.0942460  52.8759660 105.6431810  57.1468940  53.0871300 106.8049970
  57.2431640  53.7789140 108.4770230  56.4483140  53.7134260 109.0063140
  57.4474920  54.7139780 108.4655580  42.0912630  64.2498600 122.6199250
  42.0482260  63.8791510 123.5013710  42.2223640  65.1876170 122.7601070
  45.7918660  65.8058190 118.2208970  45.5510020  66.0732750 117.3339490
  46.7321300  65.9763920 118.2759830  47.9973080  52.2690880 121.9765480
  47.9361970  52.8612710 122.7260890  48.9373460  52.1616840 121.8315740
  41.9300660  67.1960850 119.7397030  41.3360980  67.0645550 120.4787070
  41.9224500  66.3598990 119.2739130  51.3755680  50.4893080 117.9427060
  50.5015520  50.8228190 117.7399990  51.2666430  50.0166260 118.7678930
  52.2827660  52.6963950 119.3268780  51.9541020  51.8815710 118.9470510
  53.2309960  52.6533760 119.2034470  54.7362270  68.4675990 116.3006350
  54.2765240  69.2191800 115.9264370  54.1074730  67.7482460 116.2421150
  41.5612890  64.5619230 118.6905070  40.8346950  63.9424520 118.6231020
  41.6222040  64.9559840 117.8203150  45.1657990  66.7764230 115.4754480
  45.6823010  66.1651590 114.9502740  45.8155370  67.2793010 115.9665490
  47.9053490  67.6672720 116.3023460  48.1931300  67.4127020 115.4256470
  48.4176710  67.1150080 116.8929030  49.1230500  51.4062920 116.8819970
  48.3402290  51.8808420 117.1616730  48.8293430  50.5017750 116.7733150
  53.6751570  52.1086020 114.9269060  54.1159660  52.0531120 114.0790660
  53.4059160  53.0244030 114.9979240  55.5390140  51.7401260 112.9377880
  55.4778540  50.7962480 112.7908900  56.3182170  51.8481350 113.4831340
  39.8442890  67.8793620 111.9001830  39.6764930  67.2464300 112.5983720
  38.9777400  68.0853020 111.5496020  40.4670910  51.7110400 109.4033690
  41.2250270  51.8239280 108.8297720  40.0048080  52.5479600 109.3577120
  51.5109700  50.4892120 113.6319070  52.1139070  51.0612330 114.1067590
  50.7702690  51.0531560 113.4092970  54.6544300  50.8913680 108.9059350
  54.8494930  51.7897130 109.1726780  53.8674170  50.6600760 109.3992300
  42.8396060  52.2374450 107.9435660  43.3688820  51.4504250 107.8143610
  43.4724380  52.9165640 108.1771190  45.1589460  51.2533570 123.4333540
  44.8773730  51.7567170 122.6694360  45.5409160  50.4555320 123.0675670
  42.8146940  60.7778450  97.1333780  41.9831820  60.5227160  97.5330290
  43.4227920  60.8489220  97.8691700  52.8188540  64.8718830  95.0357150
  52.3570070  64.1006070  95.3644320  53.6314090  64.8984900  95.5409600
  42.7948200  64.8118540  97.3291800  43.0976240  63.9216280  97.1502020
  43.5391790  65.3688760  97.1014050  41.2238890  55.7380340  90.9176170
  40.3355590  56.0796310  90.8156050  41.5080080  55.5380660  90.0257000
  40.4296770  53.7470350  98.5884800  40.2499610  52.8496100  98.8687560
  40.0276850  54.2942220  99.2631750  57.3418940  55.4603400  99.9869080
  56.6371110  55.8485110  99.4684190  57.6076860  56.1553690 100.5890010
  54.9043650  65.0012160  98.4580470  54.2207170  65.6711270  98.4497140
  55.4437940  65.1992810  97.6925330  46.8887330  51.1289000  94.8818190
  47.1962310  50.5735890  94.1653690  45.9588030  51.2633460  94.6991180
  52.4402390  66.8456290  97.1725650  52.4529550  66.4418580  96.3047910
  51.8877610  67.6203580  97.0687080  53.7347810  63.5672510  92.2615820
  53.6244140  62.6246840  92.3865240  53.7316060  63.9288150  93.1478580
  51.8387830  61.7486130  98.5008260  52.2556620  61.5346240  97.6661720
  52.5627650  62.0058920  99.0716880  53.3065380  60.7558130  92.1213560
  52.6877800  60.4177680  91.4739860  53.2889830  60.1117890  92.8292750
  52.7491940  56.9342670  99.5379370  52.3363120  57.7596380  99.7919360
  52.0167890  56.3487710  99.3455730  45.3506430  63.4070130  96.5637250
  45.0534720  62.8015600  95.8845030  46.3006250  63.4447440  96.4526610
  43.5953350  56.4945780  98.1797080  44.1467940  56.6041120  97.4050330
  44.1096860  56.8683380  98.8952310  43.2696080  60.0165140 101.7902420
  43.1303850  60.8887940 102.1589820  42.3877440  59.6737950 101.6450360
  49.5925460  64.9341010  93.0967550  50.0321370  65.6765340  92.6822940
  49.5312350  65.1767580  94.0206510  41.5829360  58.6147550  91.9004690
  41.4626960  59.3409640  91.2885960  41.2730250  57.8450460  91.4232600
  50.2841240  67.6354790 101.0246560  50.7985910  67.5462800 101.8268990
  49.4410320  67.9814490 101.3174470  51.5271700  67.0560400  93.0877050
  51.9828650  66.2749780  93.4015670  51.8664220  67.7667220  93.6318230
  56.2748510  55.9859250 103.4201490  55.6592780  56.4938920 102.8916950
  55.9544930  55.0857580 103.3627430  39.2774250  62.8276860 100.2467790
  39.4405290  62.3582220  99.4287160  39.7426700  62.3200420 100.9116630
  44.0493020  51.9582620  95.2828360  43.6061170  52.7392160  94.9512880
  44.6078010  52.2812510  95.9899300  48.3362830  54.8251140 100.8863680
  47.8742200  55.0334160 101.6983620  47.9340940  54.0110490 100.5834350
  53.3367340  56.0460090 102.0160340  52.4860930  55.7465840 102.3369410
  53.1769130  56.2902100 101.1044160  50.4317050  57.5461840 104.1159130
  50.7570460  56.7125590 103.7761360  51.2197380  58.0690360 104.2637460
  46.0868920  52.5029950  97.1417960  46.3841250  53.4092780  97.0609980
  46.6354480  52.0148730  96.5277530  43.8407240  57.0816190  93.0109610
  43.6148160  56.8653360  93.9156230  43.0599770  57.5144650  92.6655580
  46.2806450  57.9801770 103.6769880  46.1850050  57.0396500 103.5270280
  47.1238430  58.2016840 103.2817950  41.4116990  54.3915440 101.8303660
  41.0180380  55.2390650 102.0376440  40.7235390  53.7541810 102.0212300
  47.9862040  54.4750410 104.9000400  47.2960360  54.2822610 105.5346490
  48.7294340  54.7585050 105.4324700  38.7134040  52.3143900  95.8633740
  38.4247090  52.8846760  96.5758720  39.4579800  51.8348350  96.2264970
  38.9004270  56.2564020  87.0736460  38.8178940  57.1994780  87.2151450
  38.5487330  56.1138930  86.1948810  46.7002400  54.9903050  96.1406810
  46.7038460  54.5493000  95.2911350  47.5953520  55.3120380  96.2478630
  42.5504780  54.8729540  95.1001020  42.2104830  55.3504770  95.8568070
  41.7882100  54.4194660  94.7402120  50.7250920  53.7682530  97.1477260
  50.7423660  54.2191180  97.9919110  50.4766500  52.8688170  97.3610700
  45.7744050  58.3016270  88.5296870  45.2060950  57.8534520  87.9032780
  46.4833050  58.6609050  87.9962020  54.1521670  51.1814710 102.9863640
  54.4767440  50.4504370 103.5121620  54.1878180  50.8628350 102.0844630
  40.8513230  62.2028290 102.4063600  40.4668020  61.5621960 103.0046560
  41.1625420  62.9064410 102.9758330  39.8650860  53.7948520  94.0165690
  39.5797780  53.4304190  94.8544310  39.8029720  53.0628980  93.4028830
  44.7909740  58.0913470 100.2056430  44.4866810  58.9705450 100.4306790
  45.7456200  58.1513260 100.2413870  54.0779510  61.2939820  96.5949670
  54.7978630  61.7895110  96.2045780  53.8761330  60.6157710  95.9503540
  49.4598310  61.3648880 102.4818670  49.3935620  60.4444550 102.2276260
  48.8303450  61.4624320 103.1963310  40.8473470  58.9316210 101.3527790
  40.4888410  59.5970060 101.9401130  40.5528030  58.0999760 101.7240410
  44.0486590  59.3900450 104.2367340  43.7486730  59.5357630 103.3395160
  44.8197830  58.8305740 104.1440730  49.3915040  64.1869450 102.2322470
  49.4059580  63.2550410 102.0141380  48.6840140  64.2729210 102.8712240
  55.5539360  65.2251530  91.2303210  54.9115520  64.5707150  91.5046930
  55.1670020  65.6306620  90.4543880  39.3581520  58.9307470  87.9762390
  40.2276370  59.2132270  88.2598310  38.8671840  59.7443340  87.8611200
  48.8248940  65.8287020  99.3262970  49.4691160  66.0346400 100.0036390
  49.1878380  65.0675420  98.8733820  50.0981020  63.8319370  98.0440420
  50.7403250  63.1312530  98.1572590  50.6230370  64.6117810  97.8637310
  53.9436740  64.1167990  87.7679560  53.7174320  63.3998430  88.3604200
  53.5532940  63.8680430  86.9301310  51.8718640  64.6314270 101.2476480
  52.2074880  65.2180960 101.9254400  50.9518980  64.5006980 101.4774270
  39.7252770  68.1434850  88.5424020  40.0850410  68.7424190  87.8881290
  39.5845110  68.6894740  89.3159050  39.4222040  52.4209450 102.0299890
  38.7080560  52.6206370 102.6352500  39.8417080  51.6449020 102.4014690
  39.7094630  66.4089710 103.0166420  39.8185750  65.4684450 102.8761810
  39.0575190  66.6744460 102.3680150  41.3428030  60.7480940  90.1044450
  40.7355980  61.4879840  90.1139750  41.8177380  60.8380300  89.2782650
  50.9160820  54.9131760  99.7801340  51.2841640  54.0926970 100.1080910
  50.0559020  54.9733650 100.1956990  50.2822310  52.8725310  93.4442570
  50.1590090  52.8911440  92.4952080  51.2306870  52.9204250  93.5640970
  44.4541900  54.4559730  89.3797490  45.3032430  54.8929880  89.3137680
  44.0873170  54.7679990  90.2069550  55.0829670  53.7839310 100.8467700
  54.5803270  54.5244710 101.1861510  55.8986330  54.1723310 100.5304490
  43.3533320  60.7092090  87.8533020  44.1196590  60.5973450  88.4158450
  43.4308010  60.0130060  87.2009790  42.0480080  58.1417160  88.5365910
  42.1283670  57.1944670  88.6483310  42.9399830  58.4724040  88.6426570
  55.3777260  66.1981340  95.9683320  55.5024680  67.0212510  96.4407130
  56.2442820  65.9872070  95.6207470  42.8494790  68.2912550  95.6400450
  43.5857270  67.7428010  95.9109020  43.2335710  69.1568560  95.5006440
  50.6917700  63.5838490 104.7761440  50.0855860  63.6070090 104.0357190
  50.3871810  62.8521530 105.3128690  39.5750880  59.9632080 103.7722080
  40.0789900  59.3839360 104.3438310  38.8358300  60.2472310 104.3098450
  46.6288820  61.3703070 103.3057600  45.8634490  61.9388070 103.2212270
  46.8104780  61.0779280 102.4125830  43.5479770  56.6853770 102.6346640
  43.0176230  56.1944720 102.0069980  44.2167840  57.1137970 102.1004570
  52.4457830  61.1523230 102.3987830  52.8598850  61.3068310 103.2478250
  51.5108830  61.2778450 102.5613610  52.9180000  58.4919390 104.4026980
  53.5000770  57.7371710 104.3147460  53.0941770  59.0226830 103.6258460
  44.0352070  53.6516140 102.7143930  43.9408940  53.0336890 101.9894800
  43.4549460  54.3782430 102.4873840  46.8013510  52.2089380  99.7471320
  46.3530810  52.2313640  98.9016870  46.1678710  51.8108400 100.3441620
  49.5436960  58.8359890 101.7521600  49.6633170  58.2401030 102.4916440
  50.4030960  58.8729580 101.3322900  51.8824860  59.3897080 100.3284110
  51.3560080  59.9139700  99.7249250  52.2256200  60.0224470 100.9593840
  44.2811250  56.7790450  86.7733820  44.0800310  55.9157810  87.1347160
  44.1103300  56.6923810  85.8355420  46.3105730  55.3781240 103.0097420
  46.9005420  55.0697090 103.6975240  45.4925970  54.9060990 103.1657320
  51.1299160  54.9947050 103.2430440  50.4414680  54.3328590 103.1780430
  51.8505180  54.5485320 103.6878900  43.0794050  53.8791070  86.7611700
  43.3819950  53.8858500  85.8530850  43.8188640  53.5288930  87.2579360
  46.2978980  52.8225690  87.7467900  45.9500980  52.1449680  87.1670350
  46.4991750  52.3615200  88.5611290  42.1024180  63.1833490  87.5941500
  42.5399050  63.7263160  88.2499080  42.5871910  62.3580440  87.6037840
  39.8060190  66.8393110  97.7843390  39.3691180  67.0193910  98.6167540
  40.3737870  67.5967730  97.6425110  56.1380280  60.8275410  89.9124610
  56.8999190  61.3972060  90.0184300  56.1534650  60.2602610  90.6832920
  39.6384620  59.3513340  94.1432270  38.9833460  59.0824980  93.4991970
  40.4762570  59.2417820  93.6934250  57.1440250  61.6825510  94.7566540
  57.5149080  60.8992830  94.3502510  57.7842180  62.3714610  94.5783840
  54.1274010  63.0662090 100.1696860  53.3133850  63.4959250 100.4322650
  54.5348210  63.6780500  99.5565910  56.0864790  59.0578770  92.0626560
  55.7108390  58.2906700  91.6307850  55.3567910  59.4401470  92.5501490
  40.6760550  59.7365910  98.6835610  41.0433590  59.6493310  99.5631630
  40.1071370  58.9732460  98.5842470  40.2276550  56.6475000 102.5894030
  39.3332600  56.6141760 102.9287740  40.7674100  56.8461790 103.3545280
  53.9152480  53.4306720 104.4745780  54.7922660  53.4390120 104.8579780
  53.9273320  52.6937560 103.8638130  38.8522700  56.5612270  90.0857600
  37.9486780  56.8242470  89.9109260  39.3363320  56.8323440  89.3057560
  55.3615750  57.2836260  95.3633800  55.8853230  56.7898910  94.7323970
  55.9475170  57.4186620  96.1081370  41.3949910  55.6177810  87.9951980
  42.1041610  55.1961030  87.5099260  40.6789850  55.6853040  87.3635330
  41.0424070  51.6717140  87.0354630  41.7652200  52.2126080  87.3535850
  41.3148590  51.3980560  86.1596170  40.7316260  50.9223330  96.9377250
  41.3792450  50.3720710  96.4972410  41.1518100  51.1766480  97.7593060
  54.6268600  51.1164690 100.2946890  55.2640820  51.7298830 100.6606080
  54.7743490  51.1525350  99.3496120  57.1693150  53.0078480  87.0770030
  58.0942460  52.8759660  86.8688320  57.1468940  53.0871300  88.0306480
  54.1850060  67.8180690  93.6965130  54.7809130  67.4965260  93.0199550
  54.4428210  67.3452510  94.4878400  47.9973080  52.2690880 103.2021990
  47.9361970  52.8612710 103.9517400  48.9373460  52.1616840 103.0572250
  50.6347640  51.9260940 102.8414280  51.2488050  52.2440230 102.1795360
  51.1797200  51.4409530 103.4610140  41.1568900  50.6055200 102.9553340
  41.7051890  50.4243250 102.1919450  41.2224210  49.8149310 103.4909650
  51.3755680  50.4893080  99.1683570  50.5015520  50.8228190  98.9656500
  51.2666430  50.0166260  99.9935440  52.2827660  52.6963950 100.5525290
  51.9541020  51.8815710 100.1727020  53.2309960  52.6533760 100.4290980
  41.5612890  64.5619230  99.9161580  40.8346950  63.9424520  99.8487530
  41.6222040  64.9559840  99.0459660  45.1657990  66.7764230  96.7010990
  45.6823010  66.1651590  96.1759250  45.8155370  67.2793010  97.1922000
  47.9053490  67.6672720  97.5279970  48.1931300  67.4127020  96.6512980
  48.4176710  67.1150080  98.1185540  49.1230500  51.4062920  98.1076480
  48.3402290  51.8808420  98.3873240  48.8293430  50.5017750  97.9989660
  39.8442890  67.8793620  93.1258340  39.6764930  67.2464300  93.8240230
  38.9777400  68.0853020  92.7752530  40.4670910  51.7110400  90.6290200
  41.2250270  51.8239280  90.0554230  40.0048080  52.5479600  90.5833630
  41.4505590  66.5726850  90.5708480  40.9253210  66.9534880  89.8670440
  41.3750170  67.1977620  91.2918190  56.2070910  68.1314390  91.8922420
  56.3823100  67.4452130  91.2483340  55.5092480  68.6561440  91.4999090
  45.1589460  51.2533570 104.6590050  44.8773730  51.7567170 103.8950870
  45.5409160  50.4555320 104.2932180  43.2113350  64.6373960  89.4504060
  42.5822230  65.1059060  89.9989890  43.3261180  63.7923180  89.8850250
  51.7604920  50.6687150 105.2370520  51.6470370  50.9881760 106.1322040
  52.5774660  51.0699660 104.9407800  42.8146940  60.7778450  78.3590290
  41.9831820  60.5227160  78.7586800  43.4227920  60.8489220  79.0948210
  52.8188540  64.8718830  76.2613660  52.3570070  64.1006070  76.5900830
  53.6314090  64.8984900  76.7666110  49.0451850  67.1576840  75.8817650
  48.4263290  67.6134340  75.3112090  49.9003630  67.3128300  75.4807350
  48.2390100  63.1415830  77.4884690  48.1698380  62.2005770  77.3273820
  49.0009960  63.2317240  78.0607260  40.4296770  53.7470350  79.8141310
  40.2499610  52.8496100  80.0944070  40.0276850  54.2942220  80.4888260
  45.2408010  57.2898210  77.5096240  45.7486230  57.7879180  78.1501260
  45.7721250  56.5133410  77.3335600  57.3418940  55.4603400  81.2125590
  56.6371110  55.8485110  80.6940700  57.6076860  56.1553690  81.8146520
  43.5244110  51.9296770  81.7759660  43.5262550  52.4469160  80.9705560
  42.6948420  51.4526950  81.7529590  44.7746960  61.5691950  79.9533160
  44.4416340  62.1960870  80.5954230  44.9513640  62.0953830  79.1734830
  43.2059440  53.6406730  79.7830110  43.5476250  54.4848780  79.4883980
  42.2675250  53.7890470  79.8995450  43.9866060  63.5372750  81.7682340
  44.6040060  64.2123830  81.4866790  43.1259180  63.9460730  81.6769840
  39.2798400  62.7272610  70.6489190  38.9026380  63.2159710  69.9174090
  39.5371470  63.3997890  71.2795720  54.9043650  65.0012160  79.6836980
  54.2207170  65.6711270  79.6753650  55.4437940  65.1992810  78.9181840
  56.3567790  54.8291820  77.8118710  55.4092700  54.8630800  77.9434140
  56.6817780  55.6430770  78.1968070  52.4402390  66.8456290  78.3982160
  52.4529550  66.4418580  77.5304420  51.8877610  67.6203580  78.2943590
  53.7347810  63.5672510  73.4872330  53.6244140  62.6246840  73.6121750
  53.7316060  63.9288150  74.3735090  51.8387830  61.7486130  79.7264770
  52.2556620  61.5346240  78.8918230  52.5627650  62.0058920  80.2973390
  49.2768090  59.1937830  72.8434820  48.3497370  59.1275210  73.0723290
  49.4292910  60.1317960  72.7290060  55.7849930  60.1473350  79.8181010
  54.9568560  60.2166440  79.3431140  56.3800410  60.7327660  79.3496840
  52.7491940  56.9342670  80.7635880  52.3363120  57.7596380  81.0175870
  52.0167890  56.3487710  80.5712240  44.8824730  59.7202570  75.6254550
  44.4781730  59.0079820  75.1300450  44.9687850  59.3755810  76.5142590
  43.5953350  56.4945780  79.4053590  44.1467940  56.6041120  78.6306840
  44.1096860  56.8683380  80.1208820  53.4392040  66.9802000  81.4516860
  52.9622600  67.7874190  81.2589470  52.7553830  66.3280330  81.6043070
  44.4424860  63.1451820  84.4401560  43.5453390  63.3691790  84.6874960
  44.4677730  63.2686760  83.4912960  51.4830080  59.9944940  70.3542820
  51.9223360  59.1567370  70.2080640  52.1958500  60.6274340  70.4406960
  43.2696080  60.0165140  83.0158930  43.1303850  60.8887940  83.3846330
  42.3877440  59.6737950  82.8706870  49.5925460  64.9341010  74.3224060
  50.0321370  65.6765340  73.9079450  49.5312350  65.1767580  75.2463020
  45.0676430  65.9586840  85.2244080  45.0391860  66.3629790  84.3572510
  44.9041400  65.0297200  85.0615680  40.4662360  63.4862880  75.3436020
  40.0590440  63.6277470  74.4889620  41.3575370  63.2023040  75.1407230
  50.2841240  67.6354790  82.2503070  50.7985910  67.5462800  83.0525500
  49.4410320  67.9814490  82.5430980  51.9621770  65.4297690  70.2385070
  51.2686930  65.4274980  69.5787350  52.7044630  65.0057010  69.8079240
  56.2748510  55.9859250  84.6458000  55.6592780  56.4938920  84.1173460
  55.9544930  55.0857580  84.5883940  44.0493020  51.9582620  76.5084870
  43.6061170  52.7392160  76.1769390  44.6078010  52.2812510  77.2155810
  48.3362830  54.8251140  82.1120190  47.8742200  55.0334160  82.9240130
  47.9340940  54.0110490  81.8090860  53.3367340  56.0460090  83.2416850
  52.4860930  55.7465840  83.5625920  53.1769130  56.2902100  82.3300670
  50.4317050  57.5461840  85.3415640  50.7570460  56.7125590  85.0017870
  51.2197380  58.0690360  85.4893970  46.0868920  52.5029950  78.3674470
  46.3841250  53.4092780  78.2866490  46.6354480  52.0148730  77.7534040
  46.2806450  57.9801770  84.9026390  46.1850050  57.0396500  84.7526790
  47.1238430  58.2016840  84.5074460  41.4116990  54.3915440  83.0560170
  41.0180380  55.2390650  83.2632950  40.7235390  53.7541810  83.2468810
  38.7134040  52.3143900  77.0890250  38.4247090  52.8846760  77.8015230
  39.4579800  51.8348350  77.4521480  46.7002400  54.9903050  77.3663320
  46.7038460  54.5493000  76.5167860  47.5953520  55.3120380  77.4735140
  42.5504780  54.8729540  76.3257530  42.2104830  55.3504770  77.0824580
  41.7882100  54.4194660  75.9658630  45.7744050  58.3016270  69.7553380
  45.2060950  57.8534520  69.1289290  46.4833050  58.6609050  69.2218530
  40.8513230  62.2028290  83.6320110  40.4668020  61.5621960  84.2303070
  41.1625420  62.9064410  84.2014840  47.0010370  59.0504830  79.1128730
  47.3680500  58.5763400  79.8590070  46.8115430  59.9246400  79.4537070
  44.7909740  58.0913470  81.4312940  44.4866810  58.9705450  81.6563300
  45.7456200  58.1513260  81.4670380  43.3191530  62.2974460  72.0279790
  42.5453790  61.7572080  71.8678510  44.0486160  61.7781070  71.6897550
  49.4598310  61.3648880  83.7075180  49.3935620  60.4444550  83.4532770
  48.8303450  61.4624320  84.4219820  48.2498430  63.2321120  70.9385900
  48.5914130  63.9763350  70.4429220  47.4211140  63.5452240  71.3010730
  40.8473470  58.9316210  82.5784300  40.4888410  59.5970060  83.1657640
  40.5528030  58.0999760  82.9496920  44.0486590  59.3900450  85.4623850
  43.7486730  59.5357630  84.5651670  44.8197830  58.8305740  85.3697240
  49.3915040  64.1869450  83.4578980  49.4059580  63.2550410  83.2397890
  48.6840140  64.2729210  84.0968750  54.5252110  58.3709270  69.7277590
  54.4415830  58.8023490  68.8774030  55.2446300  58.8307620  70.1604410
  55.6026250  60.8276790  82.8047560  54.8774440  61.4205570  82.6076950
  56.1301710  60.8200330  82.0060930  55.5539360  65.2251530  72.4559720
  54.9115520  64.5707150  72.7303440  55.1670020  65.6306620  71.6800390
  47.2189120  63.3134650  73.7101820  47.9060250  63.8603860  74.0909410
  46.4321540  63.8575380  73.7451430  46.5216330  60.3180680  73.3227180
  46.9779110  61.1285930  73.5487370  46.1704540  60.0003820  74.1545670
  48.8248940  65.8287020  80.5519480  49.4691160  66.0346400  81.2292900
  49.1878380  65.0675420  80.0990330  42.4228110  50.6618330  73.7949700
  42.2942740  50.6536230  74.7434620  41.5990130  51.0001420  73.4440710
  50.0981020  63.8319370  79.2696930  50.7403250  63.1312530  79.3829100
  50.6230370  64.6117810  79.0893820  53.9436740  64.1167990  68.9936070
  53.7174320  63.3998430  69.5860710  53.5532940  63.8680430  68.1557820
  51.8718640  64.6314270  82.4732990  52.2074880  65.2180960  83.1510910
  50.9518980  64.5006980  82.7030780  39.7252770  68.1434850  69.7680530
  40.0850410  68.7424190  69.1137800  39.5845110  68.6894740  70.5415560
  39.4222040  52.4209450  83.2556400  38.7080560  52.6206370  83.8609010
  39.8417080  51.6449020  83.6271200  53.5252990  62.0339930  70.6550230
  53.2374690  62.4952620  71.4428110  54.3205160  61.5737700  70.9234450
  39.7094630  66.4089710  84.2422930  39.8185750  65.4684450  84.1018320
  39.0575190  66.6744460  83.5936660  41.3428030  60.7480940  71.3300960
  40.7355980  61.4879840  71.3396260  41.8177380  60.8380300  70.5039160
  50.9160820  54.9131760  81.0057850  51.2841640  54.0926970  81.3337420
  50.0559020  54.9733650  81.4213500  48.7280990  65.5894290  69.2479390
  48.8292970  65.3858280  68.3181370  47.8282730  65.3352570  69.4527170
  47.8762810  57.5671350  81.2295820  48.3748060  58.0417170  81.8947670
  48.0185760  56.6434870  81.4365850  55.0829670  53.7839310  82.0724210
  54.5803270  54.5244710  82.4118020  55.8986330  54.1723310  81.7561000
  43.3533320  60.7092090  69.0789530  44.1196590  60.5973450  69.6414960
  43.4308010  60.0130060  68.4266300  55.3777260  66.1981340  77.1939830
  55.5024680  67.0212510  77.6663640  56.2442820  65.9872070  76.8463980
  42.8494790  68.2912550  76.8656960  43.5857270  67.7428010  77.1365530
  43.2335710  69.1568560  76.7262950  39.7340270  64.3586120  72.7398470
  38.8080050  64.6007260  72.7303880  40.1996700  65.1860380  72.6183220
  41.8553070  67.4758620  86.0542540  42.6565800  67.7970670  86.4677940
  41.3404890  67.1154200  86.7762450  52.1218070  67.3118780  84.6127360
  53.0739820  67.2276800  84.5627600  51.9746290  67.9760490  85.2861150
  55.0127270  66.6912990  70.1119270  54.7268780  66.2778130  69.2973450
  54.8146820  67.6200700  69.9919790  39.5750880  59.9632080  84.9978590
  40.0789900  59.3839360  85.5694820  38.8358300  60.2472310  85.5354960
  46.4774500  62.6846270  68.5524880  46.3725140  62.0698620  69.2786260
  46.3098720  62.1612160  67.7687890  49.7177230  61.7466300  69.1566870
  49.1687330  62.1935600  69.8009610  50.3396490  61.2415550  69.6804540
  41.6073960  58.1061670  85.8928660  41.6479300  57.8075540  86.8013890
  42.4619460  58.5069280  85.7336180  45.3852350  60.7057220  71.0532170
  45.8068770  60.5397090  71.8963560  45.5103190  59.8957450  70.5587310
  43.5479770  56.6853770  83.8603150  43.0176230  56.1944720  83.2326490
  44.2167840  57.1137970  83.3261080  52.4457830  61.1523230  83.6244340
  52.8598850  61.3068310  84.4734760  51.5108830  61.2778450  83.7870120
  44.0352070  53.6516140  83.9400440  43.9408940  53.0336890  83.2151310
  43.4549460  54.3782430  83.7130350  46.8013510  52.2089380  80.9727830
  46.3530810  52.2313640  80.1273380  46.1678710  51.8108400  81.5698130
  47.2073060  61.1043710  81.5940270  47.6261170  61.9476440  81.4216510
  46.2881690  61.2415750  81.3647050  49.5436960  58.8359890  82.9778110
  49.6633170  58.2401030  83.7172950  50.4030960  58.8729580  82.5579410
  51.8824860  59.3897080  81.5540620  51.3560080  59.9139700  80.9505760
  52.2256200  60.0224470  82.1850350  44.2811250  56.7790450  67.9990330
  44.0800310  55.9157810  68.3603670  44.1103300  56.6923810  67.0611930
  45.0580480  67.4096720  82.7098000  44.5201570  68.1342780  82.3906700
  45.3114440  66.9327060  81.9195340  46.3105730  55.3781240  84.2353930
  46.9005420  55.0697090  84.9231750  45.4925970  54.9060990  84.3913830
  47.9142690  68.6447930  82.9684650  47.8401390  69.5483070  83.2757020
  47.0121530  68.3259830  82.9406720  46.2978980  52.8225690  68.9724410
  45.9500980  52.1449680  68.3926860  46.4991750  52.3615200  69.7867800
  48.4628020  67.8106440  70.5911010  49.3578810  68.1491410  70.6129770
  48.4945650  67.0885850  69.9635290  42.1024180  63.1833490  68.8198010
  42.5399050  63.7263160  69.4755590  42.5871910  62.3580440  68.8294350
  39.3169980  65.9722520  76.2718270  39.6472990  65.1043580  76.0396910
  39.7460980  66.1781040  77.1023230  56.6823820  64.0827930  68.6346920
  55.8516780  64.1504580  69.1054150  56.8595650  64.9732050  68.3313780
  56.1380280  60.8275410  71.1381120  56.8999190  61.3972060  71.2440810
  56.1534650  60.2602610  71.9089430  57.1440250  61.6825510  75.9823050
  57.5149080  60.8992830  75.5759020  57.7842180  62.3714610  75.8040350
  54.1274010  63.0662090  81.3953370  53.3133850  63.4959250  81.6579160
  54.5348210  63.6780500  80.7822420  56.1899450  61.1209780  68.2953640
  56.4648290  62.0288660  68.1672860  56.0010190  61.0572310  69.2315630
  56.0864790  59.0578770  73.2883070  55.7108390  58.2906700  72.8564360
  55.3567910  59.4401470  73.7758000  55.4764410  58.2050290  82.9222590
  55.2450500  57.9763040  82.0220540  55.7368960  59.1249840  82.8767480
  40.2276550  56.6475000  83.8150540  39.3332600  56.6141760  84.1544250
  40.7674100  56.8461790  84.5801790  55.5405470  57.3676130  80.1109860
  54.5908180  57.3339670  80.2254850  55.7218480  58.2776240  79.8759630
  40.7316260  50.9223330  78.1633760  41.3792450  50.3720710  77.7228920
  41.1518100  51.1766480  78.9849570  56.2802880  55.1770560  75.0620400
  56.1702160  55.0226600  76.0002670  57.0410470  54.6491500  74.8195810
  40.4848260  51.0779000  80.9059080  40.1363080  51.5342820  81.6717260
  40.1535960  50.1836130  80.9881510  42.0912630  64.2498600  85.0712270
  42.0482260  63.8791510  85.9526730  42.2223640  65.1876170  85.2114090
  45.7918660  65.8058190  80.6721990  45.5510020  66.0732750  79.7852510
  46.7321300  65.9763920  80.7272850  47.9973080  52.2690880  84.4278500
  47.9361970  52.8612710  85.1773910  48.9373460  52.1616840  84.2828760
  57.0522820  67.8252570  81.4732630  56.5581100  68.2221440  80.7559760
  56.4436110  67.2001780  81.8669910  41.1568900  50.6055200  84.1809850
  41.7051890  50.4243250  83.4175960  41.2224210  49.8149310  84.7166160
  54.7362270  68.4675990  78.7519370  54.2765240  69.2191800  78.3777390
  54.1074730  67.7482460  78.6934170  45.1657990  66.7764230  77.9267500
  45.6823010  66.1651590  77.4015760  45.8155370  67.2793010  78.4178510
  47.9053490  67.6672720  78.7536480  48.1931300  67.4127020  77.8769490
  48.4176710  67.1150080  79.3442050  53.6751570  52.1086020  77.3782080
  54.1159660  52.0531120  76.5303680  53.4059160  53.0244030  77.4492260
  39.8442890  67.8793620  74.3514850  39.6764930  67.2464300  75.0496740
  38.9777400  68.0853020  74.0009040  41.4505590  66.5726850  71.7964990
  40.9253210  66.9534880  71.0926950  41.3750170  67.1977620  72.5174700
  45.0333900  51.9749590  73.4494070  44.4036640  51.2736900  73.6164200
  44.4939040  52.7353720  73.2327230  45.1589460  51.2533570  85.8846560
  44.8773730  51.7567170  85.1207380  45.5409160  50.4555320  85.5188690
  44.0498560  68.5209230  70.6714240  44.7817380  68.2368510  70.1238130
  44.3092230  68.2822510  71.5613620  43.2113350  64.6373960  70.6760570
  42.5822230  65.1059060  71.2246400  43.3261180  63.7923180  71.1106760
  54.5403410  67.8158680  85.9445720  55.3328730  67.3207910  85.7371680
  54.8336560  68.4948820  86.5521330  42.8146940  60.7778450  59.5846800
  41.9831820  60.5227160  59.9843310  43.4227920  60.8489220  60.3204720
  52.8188540  64.8718830  57.4870170  52.3570070  64.1006070  57.8157340
  53.6314090  64.8984900  57.9922620  42.7948200  64.8118540  59.7804820
  43.0976240  63.9216280  59.6015040  43.5391790  65.3688760  59.5527070
  41.2238890  55.7380340  53.3689190  40.3355590  56.0796310  53.2669070
  41.5080080  55.5380660  52.4770020  53.0519390  53.4436650  55.8738470
  53.8729010  52.9533220  55.9163950  53.0853470  54.0334310  56.6270310
  49.9115200  62.0416080  54.5006070  49.2932470  62.5065530  53.9368790
  50.4238450  62.7343560  54.9175580  44.7746960  61.5691950  61.1789670
  44.4416340  62.1960870  61.8210740  44.9513640  62.0953830  60.3991340
  43.9866060  63.5372750  62.9938850  44.6040060  64.2123830  62.7123300
  43.1259180  63.9460730  62.9026350  54.9043650  65.0012160  60.9093490
  54.2207170  65.6711270  60.9010160  55.4437940  65.1992810  60.1438350
  52.4402390  66.8456290  59.6238670  52.4529550  66.4418580  58.7560930
  51.8877610  67.6203580  59.5200100  53.7347810  63.5672510  54.7128840
  53.6244140  62.6246840  54.8378260  53.7316060  63.9288150  55.5991600
  49.2768090  59.1937830  54.0691330  48.3497370  59.1275210  54.2979800
  49.4292910  60.1317960  53.9546570  49.2637170  55.4654830  51.0658490
  48.3240840  55.6268790  51.1510950  49.5820430  56.1840510  50.5194480
  55.7849930  60.1473350  61.0437520  54.9568560  60.2166440  60.5687650
  56.3800410  60.7327660  60.5753350  53.3065380  60.7558130  54.5726580
  52.6877800  60.4177680  53.9252880  53.2889830  60.1117890  55.2805770
  44.8824730  59.7202570  56.8511060  44.4781730  59.0079820  56.3556960
  44.9687850  59.3755810  57.7399100  45.3506430  63.4070130  59.0150270
  45.0534720  62.8015600  58.3358050  46.3006250  63.4447440  58.9039630
  53.4392040  66.9802000  62.6773370  52.9622600  67.7874190  62.4845980
  52.7553830  66.3280330  62.8299580  44.4424860  63.1451820  65.6658070
  43.5453390  63.3691790  65.9131470  44.4677730  63.2686760  64.7169470
  51.4830080  59.9944940  51.5799330  51.9223360  59.1567370  51.4337150
  52.1958500  60.6274340  51.6663470  43.2696080  60.0165140  64.2415440
  43.1303850  60.8887940  64.6102840  42.3877440  59.6737950  64.0963380
  55.0647220  51.2487750  49.8940370  54.7519880  51.3414580  50.7939440
  55.8259690  51.8268780  49.8437800  41.5829360  58.6147550  54.3517710
  41.4626960  59.3409640  53.7398980  41.2730250  57.8450460  53.8745620
  57.0191250  66.7413940  67.7464760  57.4950970  67.2196830  68.4253840
  57.6398410  66.6731430  67.0210260  39.2214730  61.7862690  60.1586350
  39.2995150  61.9211460  59.2142070  39.8356410  61.0778580  60.3514470
  40.4662360  63.4862880  56.5692530  40.0590440  63.6277470  55.7146130
  41.3575370  63.2023040  56.3663740  56.4224500  63.9326790  64.9064770
  56.5487560  63.6938670  63.9881950  56.4645880  63.1011330  65.3786850
  50.2841240  67.6354790  63.4759580  50.7985910  67.5462800  64.2782010
  49.4410320  67.9814490  63.7687490  52.2595640  67.9210130  52.9043580
  52.0996780  67.6313070  53.8025410  52.0942350  67.1450260  52.3688810
  51.9621770  65.4297690  51.4641580  51.2686930  65.4274980  50.8043860
  52.7044630  65.0057010  51.0335750  51.5271700  67.0560400  55.5390070
  51.9828650  66.2749780  55.8528690  51.8664220  67.7667220  56.0831250
  39.2774250  62.8276860  62.6980810  39.4405290  62.3582220  61.8800180
  39.7426700  62.3200420  63.3629650  51.0705000  57.0879560  54.0613280
  50.4713890  57.8115360  53.8776900  51.6184610  57.0256340  53.2789730
  46.2806450  57.9801770  66.1282900  46.1850050  57.0396500  65.9783300
  47.1238430  58.2016840  65.7330970  49.6769870  55.7243100  56.0916560
  50.0699440  56.0415300  55.2785250  50.0386720  54.8454980  56.2061080
  38.7134040  52.3143900  58.3146760  38.4247090  52.8846760  59.0271740
  39.4579800  51.8348350  58.6777990  40.8513230  62.2028290  64.8576620
  40.4668020  61.5621960  65.4559580  41.1625420  62.9064410  65.4271350
  39.8650860  53.7948520  56.4678710  39.5797780  53.4304190  57.3057330
  39.8029720  53.0628980  55.8541850  43.3191530  62.2974460  53.2536300
  42.5453790  61.7572080  53.0935020  44.0486160  61.7781070  52.9154060
  54.0779510  61.2939820  59.0462690  54.7978630  61.7895110  58.6558800
  53.8761330  60.6157710  58.4016560  52.2537840  57.0597430  51.4854240
  53.1417460  57.3714660  51.3105580  52.2242930  56.1869680  51.0934820
  43.3628930  61.9654840  56.8915110  43.8807600  61.1623100  56.8372000
  42.9112950  61.9033980  57.7331940  48.2498430  63.2321120  52.1642410
  48.5914130  63.9763350  51.6685730  47.4211140  63.5452240  52.5267240
  44.0486590  59.3900450  66.6880360  43.7486730  59.5357630  65.7908180
  44.8197830  58.8305740  66.5953750  49.3915040  64.1869450  64.6835490
  49.4059580  63.2550410  64.4654400  48.6840140  64.2729210  65.3225260
  54.5252110  58.3709270  50.9534100  54.4415830  58.8023490  50.1030540
  55.2446300  58.8307620  51.3860920  55.6026250  60.8276790  64.0304070
  54.8774440  61.4205570  63.8333460  56.1301710  60.8200330  63.2317440
  55.5539360  65.2251530  53.6816230  54.9115520  64.5707150  53.9559950
  55.1670020  65.6306620  52.9056900  51.1325840  62.5536960  57.5287920
  51.4849660  61.9565090  56.8689290  50.2488170  62.2281190  57.6996170
  47.2189120  63.3134650  54.9358330  47.9060250  63.8603860  55.3165920
  46.4321540  63.8575380  54.9707940  46.5216330  60.3180680  54.5483690
  46.9779110  61.1285930  54.7743880  46.1704540  60.0003820  55.3802180
  48.8248940  65.8287020  61.7775990  49.4691160  66.0346400  62.4549410
  49.1878380  65.0675420  61.3246840  50.0981020  63.8319370  60.4953440
  50.7403250  63.1312530  60.6085610  50.6230370  64.6117810  60.3150330
  53.9436740  64.1167990  50.2192580  53.7174320  63.3998430  50.8117220
  53.5532940  63.8680430  49.3814330  51.8718640  64.6314270  63.6989500
  52.2074880  65.2180960  64.3767420  50.9518980  64.5006980  63.9287290
  39.7252770  68.1434850  50.9937040  40.0850410  68.7424190  50.3394310
  39.5845110  68.6894740  51.7672070  53.5252990  62.0339930  51.8806740
  53.2374690  62.4952620  52.6684620  54.3205160  61.5737700  52.1490960
  39.7094630  66.4089710  65.4679440  39.8185750  65.4684450  65.3274830
  39.0575190  66.6744460  64.8193170  47.7007220  64.6805600  66.8677560
  47.3804090  63.9614840  67.4123250  47.0265580  65.3560670  66.9413620
  54.2822850  53.8688700  53.0401920  53.6536010  53.9734370  52.3260150
  53.7874770  54.0885480  53.8295800  50.2822310  52.8725310  55.8955590
  50.1590090  52.8911440  54.9465100  51.2306870  52.9204250  56.0153990
  53.3751680  59.0272490  56.7442080  52.4341820  59.0422720  56.9189770
  53.6895750  58.2408450  57.1902380  55.3777260  66.1981340  58.4196340
  55.5024680  67.0212510  58.8920150  56.2442820  65.9872070  58.0720490
  42.8494790  68.2912550  58.0913470  43.5857270  67.7428010  58.3622040
  43.2335710  69.1568560  57.9519460  41.8553070  67.4758620  67.2799050
  42.6565800  67.7970670  67.6934450  41.3404890  67.1154200  68.0018960
  50.6917700  63.5838490  67.2274460  50.0855860  63.6070090  66.4870210
  50.3871810  62.8521530  67.7641710  52.1218070  67.3118780  65.8383870
  53.0739820  67.2276800  65.7884110  51.9746290  67.9760490  66.5117660
  55.0127270  66.6912990  51.3375780  54.7268780  66.2778130  50.5229960
  54.8146820  67.6200700  51.2176300  39.5750880  59.9632080  66.2235100
  40.0789900  59.3839360  66.7951330  38.8358300  60.2472310  66.7611470
  49.7177230  61.7466300  50.3823380  49.1687330  62.1935600  51.0266120
  50.3396490  61.2415550  50.9061050  53.7712170  63.1008400  66.3145640
  54.5121640  63.4384160  65.8113100  53.0084850  63.2700460  65.7615410
  41.6073960  58.1061670  67.1185170  41.6479300  57.8075540  68.0270400
  42.4619460  58.5069280  66.9592690  45.3852350  60.7057220  52.2788680
  45.8068770  60.5397090  53.1220070  45.5103190  59.8957450  51.7843820
  47.8979990  59.7294830  49.5265780  48.4185650  59.0143850  49.1606930
  48.5448390  60.3680700  49.8266290  45.0580480  67.4096720  63.9354510
  44.5201570  68.1342780  63.6163210  45.3114440  66.9327060  63.1451850
  51.7599560  51.5898680  51.7533720  52.0401850  50.7466580  52.1093140
  50.9865290  51.8221790  52.2672470  47.9142690  68.6447930  64.1941160
  47.8401390  69.5483070  64.5013530  47.0121530  68.3259830  64.1663230
  39.3169980  65.9722520  57.4974780  39.6472990  65.1043580  57.2653420
  39.7460980  66.1781040  58.3279740  43.9131900  64.3031530  55.1576750
  43.6127440  64.1796500  56.0580660  43.8069390  63.4440120  54.7492480
  55.4422370  66.3410110  64.5233720  54.8424360  66.4002670  63.7797640
  55.5716270  65.4015090  64.6530570  56.6823820  64.0827930  49.8603430
  55.8516780  64.1504580  50.3310660  56.8595650  64.9732050  49.5570290
  56.1380280  60.8275410  52.3637630  56.8999190  61.3972060  52.4697320
  56.1534650  60.2602610  53.1345940  39.6384620  59.3513340  56.5945290
  38.9833460  59.0824980  55.9504990  40.4762570  59.2417820  56.1447270
  57.1440250  61.6825510  57.2079560  57.5149080  60.8992830  56.8015530
  57.7842180  62.3714610  57.0296860  54.1274010  63.0662090  62.6209880
  53.3133850  63.4959250  62.8835670  54.5348210  63.6780500  62.0078930
  56.1899450  61.1209780  49.5210150  56.4648290  62.0288660  49.3929370
  56.0010190  61.0572310  50.4572140  52.5875060  54.1454630  50.8163780
  53.0059940  53.9585610  49.9760440  52.2811120  53.2933680  51.1266710
  56.0864790  59.0578770  54.5139580  55.7108390  58.2906700  54.0820870
  55.3567910  59.4401470  55.0014510  55.3615750  57.2836260  57.8146820
  55.8853230  56.7898910  57.1836990  55.9475170  57.4186620  58.5594390
  41.0424070  51.6717140  49.4867650  41.7652200  52.2126080  49.8048870
  41.3148590  51.3980560  48.6109190  54.8515720  56.5409610  53.7539230
  55.3474840  56.3080480  54.5388110  54.6531790  55.7021450  53.3376870
  56.2802880  55.1770560  56.2876910  56.1702160  55.0226600  57.2259180
  57.0410470  54.6491500  56.0452320  57.1693150  53.0078480  49.5283050
  58.0942460  52.8759660  49.3201340  57.1468940  53.0871300  50.4819500
  57.2431640  53.7789140  52.1539760  56.4483140  53.7134260  52.6832670
  57.4474920  54.7139780  52.1425110  54.1850060  67.8180690  56.1478150
  54.7809130  67.4965260  55.4712570  54.4428210  67.3452510  56.9391420
  42.0912630  64.2498600  66.2968780  42.0482260  63.8791510  67.1783240
  42.2223640  65.1876170  66.4370600  45.7918660  65.8058190  61.8978500
  45.5510020  66.0732750  61.0109020  46.7321300  65.9763920  61.9529360
  41.9300660  67.1960850  63.4166560  41.3360980  67.0645550  64.1556600
  41.9224500  66.3598990  62.9508660  54.7362270  68.4675990  59.9775880
  54.2765240  69.2191800  59.6033900  54.1074730  67.7482460  59.9190680
  41.5612890  64.5619230  62.3674600  40.8346950  63.9424520  62.3000550
  41.6222040  64.9559840  61.4972680  45.1657990  66.7764230  59.1524010
  45.6823010  66.1651590  58.6272270  45.8155370  67.2793010  59.6435020
  47.9053490  67.6672720  59.9792990  48.1931300  67.4127020  59.1026000
  48.4176710  67.1150080  60.5698560  55.5390140  51.7401260  56.6147410
  55.4778540  50.7962480  56.4678430  56.3182170  51.8481350  57.1600870
  39.8442890  67.8793620  55.5771360  39.6764930  67.2464300  56.2753250
  38.9777400  68.0853020  55.2265550  47.0084720  53.8249670  56.0705530
  46.1959230  53.4506560  55.7301410  47.5126360  53.0694750  56.3726720
  51.5109700  50.4892120  57.3088600  52.1139070  51.0612330  57.7837120
  50.7702690  51.0531560  57.0862500  54.6544300  50.8913680  52.5828880
  54.8494930  51.7897130  52.8496310  53.8674170  50.6600760  53.0761830
  47.9725850  68.5888820  67.3461190  48.8993160  68.3533090  67.3897150
  47.9576280  69.4160820  66.8647220  56.2070910  68.1314390  54.3435440
  56.3823100  67.4452130  53.6996360  55.5092480  68.6561440  53.9512110
  45.1589460  51.2533570  67.1103070  44.8773730  51.7567170  66.3463890
  45.5409160  50.4555320  66.7445200  54.5403410  67.8158680  67.1702230
  55.3328730  67.3207910  66.9628190  54.8336560  68.4948820  67.7777840
  50.6663070  58.6879620  38.0518280  50.5857120  57.7734230  37.7809990
  50.2527490  59.1846690  37.3457990  48.7981110  60.4658640  39.9327550
  48.0223210  59.9859080  40.2226120  49.4494040  59.7864290  39.7583710
  49.2695270  55.9486210  40.1666640  49.6460090  55.0758090  40.0540310
  49.1714780  56.2844910  39.2757080  53.0519390  53.4436650  37.0994980
  53.8729010  52.9533220  37.1420460  53.0853470  54.0334310  37.8526820
  57.3418940  55.4603400  43.6638610  56.6371110  55.8485110  43.1453720
  57.6076860  56.1553690  44.2659540  43.5244110  51.9296770  44.2272680
  43.5262550  52.4469160  43.4218580  42.6948420  51.4526950  44.2042610
  53.2880870  55.3837030  39.8722520  52.5836440  55.6721920  40.4525630
  53.6493030  56.1937140  39.5122080  43.2059440  53.6406730  42.2343130
  43.5476250  54.4848780  41.9397000  42.2675250  53.7890470  42.3508470
  54.9043650  65.0012160  42.1350000  54.2207170  65.6711270  42.1266670
  55.4437940  65.1992810  41.3694860  56.3567790  54.8291820  40.2631730
  55.4092700  54.8630800  40.3947160  56.6817780  55.6430770  40.6481090
  46.8887330  51.1289000  38.5587720  47.1962310  50.5735890  37.8423220
  45.9588030  51.2633460  38.3760710  53.7347810  63.5672510  35.9385350
  53.6244140  62.6246840  36.0634770  53.7316060  63.9288150  36.8248110
  53.3065380  60.7558130  35.7983090  52.6877800  60.4177680  35.1509390
  53.2889830  60.1117890  36.5062280  52.7491940  56.9342670  43.2148900
  52.3363120  57.7596380  43.4688890  52.0167890  56.3487710  43.0225260
  51.4830080  59.9944940  32.8055840  51.9223360  59.1567370  32.6593660
  52.1958500  60.6274340  32.8919980  49.5925460  64.9341010  36.7737080
  50.0321370  65.6765340  36.3592470  49.5312350  65.1767580  37.6976040
  55.0647220  51.2487750  31.1196880  54.7519880  51.3414580  32.0195950
  55.8259690  51.8268780  31.0694310  41.5829360  58.6147550  35.5774220
  41.4626960  59.3409640  34.9655490  41.2730250  57.8450460  35.1002130
  57.0191250  66.7413940  48.9721270  57.4950970  67.2196830  49.6510350
  57.6398410  66.6731430  48.2466770  39.2214730  61.7862690  41.3842860
  39.2995150  61.9211460  40.4398580  39.8356410  61.0778580  41.5770980
  50.2841240  67.6354790  44.7016090  50.7985910  67.5462800  45.5038520
  49.4410320  67.9814490  44.9944000  52.2595640  67.9210130  34.1300090
  52.0996780  67.6313070  35.0281920  52.0942350  67.1450260  33.5945320
  51.9621770  65.4297690  32.6898090  51.2686930  65.4274980  32.0300370
  52.7044630  65.0057010  32.2592260  56.2748510  55.9859250  47.0971020
  55.6592780  56.4938920  46.5686480  55.9544930  55.0857580  47.0396960
  44.0493020  51.9582620  38.9597890  43.6061170  52.7392160  38.6282410
  44.6078010  52.2812510  39.6668830  48.3362830  54.8251140  44.5633210
  47.8742200  55.0334160  45.3753150  47.9340940  54.0110490  44.2603880
  53.3367340  56.0460090  45.6929870  52.4860930  55.7465840  46.0138940
  53.1769130  56.2902100  44.7813690  50.4317050  57.5461840  47.7928660
  50.7570460  56.7125590  47.4530890  51.2197380  58.0690360  47.9406990
  46.0868920  52.5029950  40.8187490  46.3841250  53.4092780  40.7379510
  46.6354480  52.0148730  40.2047060  51.0705000  57.0879560  35.2869790
  50.4713890  57.8115360  35.1033410  51.6184610  57.0256340  34.5046240
  46.2806450  57.9801770  47.3539410  46.1850050  57.0396500  47.2039810
  47.1238430  58.2016840  46.9587480  49.6769870  55.7243100  37.3173070
  50.0699440  56.0415300  36.5041760  50.0386720  54.8454980  37.4317590
  50.2625010  58.3148850  41.4123850  49.5306130  58.8235660  41.7613950
  49.8649350  57.4978830  41.1112630  46.7002400  54.9903050  39.8176340
  46.7038460  54.5493000  38.9680880  47.5953520  55.3120380  39.9248160
  50.7250920  53.7682530  40.8246790  50.7423660  54.2191180  41.6688640
  50.4766500  52.8688170  41.0380230  47.0010370  59.0504830  41.5641750
  47.3680500  58.5763400  42.3103090  46.8115430  59.9246400  41.9050090
  43.3191530  62.2974460  34.4792810  42.5453790  61.7572080  34.3191530
  44.0486160  61.7781070  34.1410570  49.5389450  52.6877780  34.4148590
  48.7254060  52.1890950  34.3393900  49.3451400  53.5276030  33.9984940
  49.4598310  61.3648880  46.1588200  49.3935620  60.4444550  45.9045790
  48.8303450  61.4624320  46.8732840  52.2537840  57.0597430  32.7110750
  53.1417460  57.3714660  32.5362090  52.2242930  56.1869680  32.3191330
  49.3915040  64.1869450  45.9092000  49.4059580  63.2550410  45.6910910
  48.6840140  64.2729210  46.5481770  54.5252110  58.3709270  32.1790610
  54.4415830  58.8023490  31.3287050  55.2446300  58.8307620  32.6117430
  55.5539360  65.2251530  34.9072740  54.9115520  64.5707150  35.1816460
  55.1670020  65.6306620  34.1313410  51.1325840  62.5536960  38.7544430
  51.4849660  61.9565090  38.0945800  50.2488170  62.2281190  38.9252680
  48.8248940  65.8287020  43.0032500  49.4691160  66.0346400  43.6805920
  49.1878380  65.0675420  42.5503350  42.4228110  50.6618330  36.2462720
  42.2942740  50.6536230  37.1947640  41.5990130  51.0001420  35.8953730
  53.9436740  64.1167990  31.4449090  53.7174320  63.3998430  32.0373730
  53.5532940  63.8680430  30.6070840  51.8718640  64.6314270  44.9246010
  52.2074880  65.2180960  45.6023930  50.9518980  64.5006980  45.1543800
  39.4222040  52.4209450  45.7069420  38.7080560  52.6206370  46.3122030
  39.8417080  51.6449020  46.0784220  53.5252990  62.0339930  33.1063250
  53.2374690  62.4952620  33.8941130  54.3205160  61.5737700  33.3747470
  39.7094630  66.4089710  46.6935950  39.8185750  65.4684450  46.5531340
  39.0575190  66.6744460  46.0449680  50.9160820  54.9131760  43.4570870
  51.2841640  54.0926970  43.7850440  50.0559020  54.9733650  43.8726520
  47.8762810  57.5671350  43.6808840  48.3748060  58.0417170  44.3460690
  48.0185760  56.6434870  43.8878870  50.2822310  52.8725310  37.1212100
  50.1590090  52.8911440  36.1721610  51.2306870  52.9204250  37.2410500
  47.3699100  68.1080610  36.3940080  47.6240600  68.0702000  35.4719450
  46.4211580  67.9813940  36.3868330  55.0829670  53.7839310  44.5237230
  54.5803270  54.5244710  44.8631040  55.8986330  54.1723310  44.2074020
  53.3751680  59.0272490  37.9698590  52.4341820  59.0422720  38.1446280
  53.6895750  58.2408450  38.4158890  41.8553070  67.4758620  48.5055560
  42.6565800  67.7970670  48.9190960  41.3404890  67.1154200  49.2275470
  50.6917700  63.5838490  48.4530970  50.0855860  63.6070090  47.7126720
  50.3871810  62.8521530  48.9898220  52.1218070  67.3118780  47.0640380
  53.0739820  67.2276800  47.0140620  51.9746290  67.9760490  47.7374170
  55.0127270  66.6912990  32.5632290  54.7268780  66.2778130  31.7486470
  54.8146820  67.6200700  32.4432810  46.4774500  62.6846270  31.0037900
  46.3725140  62.0698620  31.7299280  46.3098720  62.1612160  30.2200910
  49.7177230  61.7466300  31.6079890  49.1687330  62.1935600  32.2522630
  50.3396490  61.2415550  32.1317560  53.7712170  63.1008400  47.5402150
  54.5121640  63.4384160  47.0369610  53.0084850  63.2700460  46.9871920
  52.9180000  58.4919390  48.0796510  53.5000770  57.7371710  47.9916990
  53.0941770  59.0226830  47.3027990  46.8013510  52.2089380  43.4240850
  46.3530810  52.2313640  42.5786400  46.1678710  51.8108400  44.0211150
  47.2073060  61.1043710  44.0453290  47.6261170  61.9476440  43.8729530
  46.2881690  61.2415750  43.8160070  49.5436960  58.8359890  45.4291130
  49.6633170  58.2401030  46.1685970  50.4030960  58.8729580  45.0092430
  46.3105730  55.3781240  46.6866950  46.9005420  55.0697090  47.3744770
  45.4925970  54.9060990  46.8426850  51.7599560  51.5898680  32.9790230
  52.0401850  50.7466580  33.3349650  50.9865290  51.8221790  33.4928980
  43.0794050  53.8791070  30.4381230  43.3819950  53.8858500  29.5300380
  43.8188640  53.5288930  30.9348890  47.9142690  68.6447930  45.4197670
  47.8401390  69.5483070  45.7270040  47.0121530  68.3259830  45.3919740
  39.8060190  66.8393110  41.4612920  39.3691180  67.0193910  42.2937070
  40.3737870  67.5967730  41.3194640  55.4422370  66.3410110  45.7490230
  54.8424360  66.4002670  45.0054150  55.5716270  65.4015090  45.8787080
  56.6823820  64.0827930  31.0859940  55.8516780  64.1504580  31.5567170
  56.8595650  64.9732050  30.7826800  56.1380280  60.8275410  33.5894140
  56.8999190  61.3972060  33.6953830  56.1534650  60.2602610  34.3602450
  56.1899450  61.1209780  30.7466660  56.4648290  62.0288660  30.6185880
  56.0010190  61.0572310  31.6828650  52.5875060  54.1454630  32.0420290
  53.0059940  53.9585610  31.2016950  52.2811120  53.2933680  32.3523220
  56.0864790  59.0578770  35.7396090  55.7108390  58.2906700  35.3077380
  55.3567910  59.4401470  36.2271020  53.9152480  53.4306720  48.1515310
  54.7922660  53.4390120  48.5349310  53.9273320  52.6937560  47.5407660
  55.3615750  57.2836260  39.0403330  55.8853230  56.7898910  38.4093500
  55.9475170  57.4186620  39.7850900  55.5405470  57.3676130  42.5622880
  54.5908180  57.3339670  42.6767870  55.7218480  58.2776240  42.3272650
  41.0424070  51.6717140  30.7124160  41.7652200  52.2126080  31.0305380
  41.3148590  51.3980560  29.8365700  54.8515720  56.5409610  34.9795740
  55.3474840  56.3080480  35.7644620  54.6531790  55.7021450  34.5633380
  40.7316260  50.9223330  40.6146780  41.3792450  50.3720710  40.1741940
  41.1518100  51.1766480  41.4362590  40.4848260  51.0779000  43.3572100
  40.1363080  51.5342820  44.1230280  40.1535960  50.1836130  43.4394530
  45.7918660  65.8058190  43.1235010  45.5510020  66.0732750  42.2365530
  46.7321300  65.9763920  43.1785870  41.1568900  50.6055200  46.6322870
  41.7051890  50.4243250  45.8688980  41.2224210  49.8149310  47.1679180
  41.9300660  67.1960850  44.6423070  41.3360980  67.0645550  45.3813110
  41.9224500  66.3598990  44.1765170  51.3755680  50.4893080  42.8453100
  50.5015520  50.8228190  42.6426030  51.2666430  50.0166260  43.6704970
  52.2827660  52.6963950  44.2294820  51.9541020  51.8815710  43.8496550
  53.2309960  52.6533760  44.1060510  47.9053490  67.6672720  41.2049500
  48.1931300  67.4127020  40.3282510  48.4176710  67.1150080  41.7955070
  49.1230500  51.4062920  41.7846010  48.3402290  51.8808420  42.0642770
  48.8293430  50.5017750  41.6759190  53.6751570  52.1086020  39.8295100
  54.1159660  52.0531120  38.9816700  53.4059160  53.0244030  39.9005280
  40.4670910  51.7110400  34.3059730  41.2250270  51.8239280  33.7323760
  40.0048080  52.5479600  34.2603160  47.0084720  53.8249670  37.2962040
  46.1959230  53.4506560  36.9557920  47.5126360  53.0694750  37.5983230
  45.0333900  51.9749590  35.9007090  44.4036640  51.2736900  36.0677220
  44.4939040  52.7353720  35.6840250  56.2070910  68.1314390  35.5691950
  56.3823100  67.4452130  34.9252870  55.5092480  68.6561440  35.1768620
  51.7604920  50.6687150  48.9140050  51.6470370  50.9881760  49.8091570
  52.5774660  51.0699660  48.6177330  54.5403410  67.8158680  48.3958740
  55.3328730  67.3207910  48.1884700  54.8336560  68.4948820  49.0034350
  41.2238890  55.7380340  15.8202210  40.3355590  56.0796310  15.7182090
  41.5080080  55.5380660  14.9283040  39.1871900  58.3385990  21.7041910
  39.7588010  57.5708190  21.7045550  39.1873440  58.6374750  20.7948520
  40.4296770  53.7470350  23.4910840  40.2499610  52.8496100  23.7713600
  40.0276850  54.2942220  24.1657790  43.4000280  54.3211840  16.8540590
  43.5067030  55.2215570  17.1609350  42.4892640  54.2729810  16.5635240
  53.0519390  53.4436650  18.3251490  53.8729010  52.9533220  18.3676970
  53.0853470  54.0334310  19.0783330  41.0483440  56.2430850  22.0993180
  41.7293550  56.5069220  22.7180580  40.7331490  55.4031720  22.4331190
  45.2408010  57.2898210  21.1865770  45.7486230  57.7879180  21.8270790
  45.7721250  56.5133410  21.0105130  43.5244110  51.9296770  25.4529190
  43.5262550  52.4469160  24.6475090  42.6948420  51.4526950  25.4299120
  49.9115200  62.0416080  16.9519090  49.2932470  62.5065530  16.3881810
  50.4238450  62.7343560  17.3688600  43.2059440  53.6406730  23.4599640
  43.5476250  54.4848780  23.1653510  42.2675250  53.7890470  23.5764980
  39.2798400  62.7272610  14.3258720  38.9026380  63.2159710  13.5943620
  39.5371470  63.3997890  14.9565250  46.8887330  51.1289000  19.7844230
  47.1962310  50.5735890  19.0679730  45.9588030  51.2633460  19.6017220
  49.2768090  59.1937830  16.5204350  48.3497370  59.1275210  16.7492820
  49.4292910  60.1317960  16.4059590  49.2637170  55.4654830  13.5171510
  48.3240840  55.6268790  13.6023970  49.5820430  56.1840510  12.9707500
  53.3065380  60.7558130  17.0239600  52.6877800  60.4177680  16.3765900
  53.2889830  60.1117890  17.7318790  44.8824730  59.7202570  19.3024080
  44.4781730  59.0079820  18.8069980  44.9687850  59.3755810  20.1912120
  43.5953350  56.4945780  23.0823120  44.1467940  56.6041120  22.3076370
  44.1096860  56.8683380  23.7978350  51.4830080  59.9944940  14.0312350
  51.9223360  59.1567370  13.8850170  52.1958500  60.6274340  14.1176490
  55.0647220  51.2487750  12.3453390  54.7519880  51.3414580  13.2452460
  55.8259690  51.8268780  12.2950820  41.5829360  58.6147550  16.8030730
  41.4626960  59.3409640  16.1912000  41.2730250  57.8450460  16.3258640
  39.2214730  61.7862690  22.6099370  39.2995150  61.9211460  21.6655090
  39.8356410  61.0778580  22.8027490  40.4662360  63.4862880  19.0205550
  40.0590440  63.6277470  18.1659150  41.3575370  63.2023040  18.8176760
  52.2595640  67.9210130  15.3556600  52.0996780  67.6313070  16.2538430
  52.0942350  67.1450260  14.8201830  44.7384020  67.7008660  17.1328220
  44.5626500  66.7844200  16.9196020  43.8839760  68.0595950  17.3726020
  51.9621770  65.4297690  13.9154600  51.2686930  65.4274980  13.2556880
  52.7044630  65.0057010  13.4848770  39.2774250  62.8276860  25.1493830
  39.4405290  62.3582220  24.3313200  39.7426700  62.3200420  25.8142670
  44.0493020  51.9582620  20.1854400  43.6061170  52.7392160  19.8538920
  44.6078010  52.2812510  20.8925340  47.1651840  51.5793320  15.0660230
  46.5406020  51.5753190  15.7913540  47.0781960  50.7124280  14.6696200
  46.0868920  52.5029950  22.0444000  46.3841250  53.4092780  21.9636020
  46.6354480  52.0148730  21.4303570  43.8407240  57.0816190  17.9135650
  43.6148160  56.8653360  18.8182270  43.0599770  57.5144650  17.5681620
  51.0705000  57.0879560  16.5126300  50.4713890  57.8115360  16.3289920
  51.6184610  57.0256340  15.7302750  49.6769870  55.7243100  18.5429580
  50.0699440  56.0415300  17.7298270  50.0386720  54.8454980  18.6574100
  41.4116990  54.3915440  26.7329700  41.0180380  55.2390650  26.9402480
  40.7235390  53.7541810  26.9238340  47.9862040  54.4750410  29.8026440
  47.2960360  54.2822610  30.4372530  48.7294340  54.7585050  30.3350740
  38.7134040  52.3143900  20.7659780  38.4247090  52.8846760  21.4784760
  39.4579800  51.8348350  21.1291010  38.9004270  56.2564020  11.9762500
  38.8178940  57.1994780  12.1177490  38.5487330  56.1138930  11.0974850
  46.7002400  54.9903050  21.0432850  46.7038460  54.5493000  20.1937390
  47.5953520  55.3120380  21.1504670  42.5504780  54.8729540  20.0027060
  42.2104830  55.3504770  20.7594110  41.7882100  54.4194660  19.6428160
  46.7622550  55.9915130  14.0339610  46.8835370  55.9501610  14.9825430
  46.3771060  56.8539280  13.8786340  45.7744050  58.3016270  13.4322910
  45.2060950  57.8534520  12.8058820  46.4833050  58.6609050  12.8988060
  39.8650860  53.7948520  18.9191730  39.5797780  53.4304190  19.7570350
  39.8029720  53.0628980  18.3054870  43.3191530  62.2974460  15.7049320
  42.5453790  61.7572080  15.5448040  44.0486160  61.7781070  15.3667080
  49.5389450  52.6877780  15.6405100  48.7254060  52.1890950  15.5650410
  49.3451400  53.5276030  15.2241450  52.2537840  57.0597430  13.9367260
  53.1417460  57.3714660  13.7618600  52.2242930  56.1869680  13.5447840
  43.3628930  61.9654840  19.3428130  43.8807600  61.1623100  19.2885020
  42.9112950  61.9033980  20.1844960  48.2498430  63.2321120  14.6155430
  48.5914130  63.9763350  14.1198750  47.4211140  63.5452240  14.9780260
  54.5252110  58.3709270  13.4047120  54.4415830  58.8023490  12.5543560
  55.2446300  58.8307620  13.8373940  47.2189120  63.3134650  17.3871350
  47.9060250  63.8603860  17.7678940  46.4321540  63.8575380  17.4220960
  39.3581520  58.9307470  12.8788430  40.2276370  59.2132270  13.1624350
  38.8671840  59.7443340  12.7637240  46.5216330  60.3180680  16.9996710
  46.9779110  61.1285930  17.2256900  46.1704540  60.0003820  17.8315200
  42.4228110  50.6618330  17.4719230  42.2942740  50.6536230  18.4204150
  41.5990130  51.0001420  17.1210240  53.9436740  64.1167990  12.6705600
  53.7174320  63.3998430  13.2630240  53.5532940  63.8680430  11.8327350
  39.7252770  68.1434850  13.4450060  40.0850410  68.7424190  12.7907330
  39.5845110  68.6894740  14.2185090  39.4222040  52.4209450  26.9325930
  38.7080560  52.6206370  27.5378540  39.8417080  51.6449020  27.3040730
  53.5252990  62.0339930  14.3319760  53.2374690  62.4952620  15.1197640
  54.3205160  61.5737700  14.6003980  45.7421390  65.5266050  14.2623730
  45.7331490  66.2595740  13.6468240  44.8219750  65.2797630  14.3550690
  41.3428030  60.7480940  15.0070490  40.7355980  61.4879840  15.0165790
  41.8177380  60.8380300  14.1808690  54.2822850  53.8688700  15.4914940
  53.6536010  53.9734370  14.7773170  53.7874770  54.0885480  16.2808820
  48.7280990  65.5894290  12.9248920  48.8292970  65.3858280  11.9950900
  47.8282730  65.3352570  13.1296700  46.2506880  56.1474650  16.9072820
  45.5423030  56.6160990  17.3486430  46.5351360  55.4896660  17.5418010
  50.2822310  52.8725310  18.3468610  50.1590090  52.8911440  17.3978120
  51.2306870  52.9204250  18.4667010  47.3699100  68.1080610  17.6196590
  47.6240600  68.0702000  16.6975960  46.4211580  67.9813940  17.6124840
  44.4541900  54.4559730  14.2823530  45.3032430  54.8929880  14.2163720
  44.0873170  54.7679990  15.1095590  43.3533320  60.7092090  12.7559060
  44.1196590  60.5973450  13.3184490  43.4308010  60.0130060  12.1035830
  42.0480080  58.1417160  13.4391950  42.1283670  57.1944670  13.5509350
  42.9399830  58.4724040  13.5452610  42.8494790  68.2912550  20.5426490
  43.5857270  67.7428010  20.8135060  43.2335710  69.1568560  20.4032480
  39.7340270  64.3586120  16.4168000  38.8080050  64.6007260  16.4073410
  40.1996700  65.1860380  16.2952750  45.9597100  67.4642860  12.3652060
  46.7525710  67.7531690  11.9133850  45.4401450  67.0335030  11.6864540
  46.4774500  62.6846270  12.2294410  46.3725140  62.0698620  12.9555790
  46.3098720  62.1612160  11.4457420  49.7177230  61.7466300  12.8336400
  49.1687330  62.1935600  13.4779140  50.3396490  61.2415550  13.3574070
  53.7712170  63.1008400  28.7658660  54.5121640  63.4384160  28.2626120
  53.0084850  63.2700460  28.2128430  45.3852350  60.7057220  14.7301700
  45.8068770  60.5397090  15.5733090  45.5103190  59.8957450  14.2356840
  43.5479770  56.6853770  27.5372680  43.0176230  56.1944720  26.9096020
  44.2167840  57.1137970  27.0030610  47.8979990  59.7294830  11.9778800
  48.4185650  59.0143850  11.6119950  48.5448390  60.3680700  12.2779310
  52.4457830  61.1523230  27.3013870  52.8598850  61.3068310  28.1504290
  51.5108830  61.2778450  27.4639650  52.9180000  58.4919390  29.3053020
  53.5000770  57.7371710  29.2173500  53.0941770  59.0226830  28.5284500
  44.0352070  53.6516140  27.6169970  43.9408940  53.0336890  26.8920840
  43.4549460  54.3782430  27.3899880  46.8013510  52.2089380  24.6497360
  46.3530810  52.2313640  23.8042910  46.1678710  51.8108400  25.2467660
  44.2811250  56.7790450  11.6759860  44.0800310  55.9157810  12.0373200
  44.1103300  56.6923810  10.7381460  51.1299160  54.9947050  28.1456480
  50.4414680  54.3328590  28.0806470  51.8505180  54.5485320  28.5904940
  51.7599560  51.5898680  14.2046740  52.0401850  50.7466580  14.5606160
  50.9865290  51.8221790  14.7185490  43.0794050  53.8791070  11.6637740
  43.3819950  53.8858500  10.7556890  43.8188640  53.5288930  12.1605400
  46.2978980  52.8225690  12.6493940  45.9500980  52.1449680  12.0696390
  46.4991750  52.3615200  13.4637330  48.4628020  67.8106440  14.2680540
  49.3578810  68.1491410  14.2899300  48.4945650  67.0885850  13.6404820
  42.1024180  63.1833490  12.4967540  42.5399050  63.7263160  13.1525120
  42.5871910  62.3580440  12.5063880  39.3169980  65.9722520  19.9487800
  39.6472990  65.1043580  19.7166440  39.7460980  66.1781040  20.7792760
  43.9131900  64.3031530  17.6089770  43.6127440  64.1796500  18.5093680
  43.8069390  63.4440120  17.2005500  39.8060190  66.8393110  22.6869430
  39.3691180  67.0193910  23.5193580  40.3737870  67.5967730  22.5451150
  56.6823820  64.0827930  12.3116450  55.8516780  64.1504580  12.7823680
  56.8595650  64.9732050  12.0083310  39.6384620  59.3513340  19.0458310
  38.9833460  59.0824980  18.4018010  40.4762570  59.2417820  18.5960290
  54.1274010  63.0662090  25.0722900  53.3133850  63.4959250  25.3348690
  54.5348210  63.6780500  24.4591950  56.1899450  61.1209780  11.9723170
  56.4648290  62.0288660  11.8442390  56.0010190  61.0572310  12.9085160
  52.5875060  54.1454630  13.2676800  53.0059940  53.9585610  12.4273460
  52.2811120  53.2933680  13.5779730  56.0864790  59.0578770  16.9652600
  55.7108390  58.2906700  16.5333890  55.3567910  59.4401470  17.4527530
  40.6760550  59.7365910  23.5861650  41.0433590  59.6493310  24.4657670
  40.1071370  58.9732460  23.4868510  38.8522700  56.5612270  14.9883640
  37.9486780  56.8242470  14.8135300  39.3363320  56.8323440  14.2083600
  41.3949910  55.6177810  12.8978020  42.1041610  55.1961030  12.4125300
  40.6789850  55.6853040  12.2661370  41.0424070  51.6717140  11.9380670
  41.7652200  52.2126080  12.2561890  41.3148590  51.3980560  11.0622210
  54.8515720  56.5409610  16.2052250  55.3474840  56.3080480  16.9901130
  54.6531790  55.7021450  15.7889890  40.7316260  50.9223330  21.8403290
  41.3792450  50.3720710  21.3998450  41.1518100  51.1766480  22.6619100
  56.2802880  55.1770560  18.7389930  56.1702160  55.0226600  19.6772200
  57.0410470  54.6491500  18.4965340  57.1693150  53.0078480  11.9796070
  58.0942460  52.8759660  11.7714360  57.1468940  53.0871300  12.9332520
  57.2431640  53.7789140  14.6052780  56.4483140  53.7134260  15.1345690
  57.4474920  54.7139780  14.5938130  40.4848260  51.0779000  24.5828610
  40.1363080  51.5342820  25.3486790  40.1535960  50.1836130  24.6651040
  50.6347640  51.9260940  27.7440320  51.2488050  52.2440230  27.0821400
  51.1797200  51.4409530  28.3636180  41.1568900  50.6055200  27.8579380
  41.7051890  50.4243250  27.0945490  41.2224210  49.8149310  28.3935690
  49.1230500  51.4062920  23.0102520  48.3402290  51.8808420  23.2899280
  48.8293430  50.5017750  22.9015700  39.8442890  67.8793620  18.0284380
  39.6764930  67.2464300  18.7266270  38.9777400  68.0853020  17.6778570
  40.4670910  51.7110400  15.5316240  41.2250270  51.8239280  14.9580270
  40.0048080  52.5479600  15.4859670  47.0084720  53.8249670  18.5218550
  46.1959230  53.4506560  18.1814430  47.5126360  53.0694750  18.8239740
  51.5109700  50.4892120  19.7601620  52.1139070  51.0612330  20.2350140
  50.7702690  51.0531560  19.5375520  54.6544300  50.8913680  15.0341900
  54.8494930  51.7897130  15.3009330  53.8674170  50.6600760  15.5274850
  41.4505590  66.5726850  15.4734520  40.9253210  66.9534880  14.7696480
  41.3750170  67.1977620  16.1944230  42.8396060  52.2374450  14.0718210
  43.3688820  51.4504250  13.9426160  43.4724380  52.9165640  14.3053740
  45.0333900  51.9749590  17.1263600  44.4036640  51.2736900  17.2933730
  44.4939040  52.7353720  16.9096760  44.0498560  68.5209230  14.3483770
  44.7817380  68.2368510  13.8007660  44.3092230  68.2822510  15.2383150
  43.2113350  64.6373960  14.3530100  42.5822230  65.1059060  14.9015930
  43.3261180  63.7923180  14.7876290  48.7981110  60.4658640   2.3840570
  48.0223210  59.9859080   2.6739140  49.4494040  59.7864290   2.2096730
  42.8146940  60.7778450   3.2616330  41.9831820  60.5227160   3.6612840
  43.4227920  60.8489220   3.9974250  42.7948200  64.8118540   3.4574350
  43.0976240  63.9216280   3.2784570  43.5391790  65.3688760   3.2296600
  39.1871900  58.3385990   2.9298420  39.7588010  57.5708190   2.9302060
  39.1873440  58.6374750   2.0205030  48.2390100  63.1415830   2.3910730
  48.1698380  62.2005770   2.2299860  49.0009960  63.2317240   2.9633300
  40.4296770  53.7470350   4.7167350  40.2499610  52.8496100   4.9970110
  40.0276850  54.2942220   5.3914300  49.2695270  55.9486210   2.6179660
  49.6460090  55.0758090   2.5053330  49.1714780  56.2844910   1.7270100
  41.0483440  56.2430850   3.3249690  41.7293550  56.5069220   3.9437090
  40.7331490  55.4031720   3.6587700  45.2408010  57.2898210   2.4122280
  45.7486230  57.7879180   3.0527300  45.7721250  56.5133410   2.2361640
  57.3418940  55.4603400   6.1151630  56.6371110  55.8485110   5.5966740
  57.6076860  56.1553690   6.7172560  43.5244110  51.9296770   6.6785700
  43.5262550  52.4469160   5.8731600  42.6948420  51.4526950   6.6555630
  44.7746960  61.5691950   4.8559200  44.4416340  62.1960870   5.4980270
  44.9513640  62.0953830   4.0760870  53.2880870  55.3837030   2.3235540
  52.5836440  55.6721920   2.9038650  53.6493030  56.1937140   1.9635100
  43.2059440  53.6406730   4.6856150  43.5476250  54.4848780   4.3910020
  42.2675250  53.7890470   4.8021490  43.9866060  63.5372750   6.6708380
  44.6040060  64.2123830   6.3892830  43.1259180  63.9460730   6.5795880
  54.9043650  65.0012160   4.5863020  54.2207170  65.6711270   4.5779690
  55.4437940  65.1992810   3.8207880  56.3567790  54.8291820   2.7144750
  55.4092700  54.8630800   2.8460180  56.6817780  55.6430770   3.0994110
  52.4402390  66.8456290   3.3008200  52.4529550  66.4418580   2.4330460
  51.8877610  67.6203580   3.1969630  51.8387830  61.7486130   4.6290810
  52.2556620  61.5346240   3.7944270  52.5627650  62.0058920   5.1999430
  55.7849930  60.1473350   4.7207050  54.9568560  60.2166440   4.2457180
  56.3800410  60.7327660   4.2522880  52.7491940  56.9342670   5.6661920
  52.3363120  57.7596380   5.9201910  52.0167890  56.3487710   5.4738280
  45.3506430  63.4070130   2.6919800  45.0534720  62.8015600   2.0127580
  46.3006250  63.4447440   2.5809160  43.5953350  56.4945780   4.3079630
  44.1467940  56.6041120   3.5332880  44.1096860  56.8683380   5.0234860
  53.4392040  66.9802000   6.3542900  52.9622600  67.7874190   6.1615510
  52.7553830  66.3280330   6.5069110  44.4424860  63.1451820   9.3427600
  43.5453390  63.3691790   9.5901000  44.4677730  63.2686760   8.3939000
  43.2696080  60.0165140   7.9184970  43.1303850  60.8887940   8.2872370
  42.3877440  59.6737950   7.7732910  45.0676430  65.9586840  10.1270120
  45.0391860  66.3629790   9.2598550  44.9041400  65.0297200   9.9641720
  57.0191250  66.7413940  11.4234290  57.4950970  67.2196830  12.1023370
  57.6398410  66.6731430  10.6979790  39.2214730  61.7862690   3.8355880
  39.2995150  61.9211460   2.8911600  39.8356410  61.0778580   4.0284000
  56.4224500  63.9326790   8.5834300  56.5487560  63.6938670   7.6651480
  56.4645880  63.1011330   9.0556380  50.2841240  67.6354790   7.1529110
  50.7985910  67.5462800   7.9551540  49.4410320  67.9814490   7.4457020
  56.2748510  55.9859250   9.5484040  55.6592780  56.4938920   9.0199500
  55.9544930  55.0857580   9.4909980  39.2774250  62.8276860   6.3750340
  39.4405290  62.3582220   5.5569710  39.7426700  62.3200420   7.0399180
  48.3362830  54.8251140   7.0146230  47.8742200  55.0334160   7.8266170
  47.9340940  54.0110490   6.7116900  53.3367340  56.0460090   8.1442890
  52.4860930  55.7465840   8.4651960  53.1769130  56.2902100   7.2326710
  50.4317050  57.5461840  10.2441680  50.7570460  56.7125590   9.9043910
  51.2197380  58.0690360  10.3920010  46.0868920  52.5029950   3.2700510
  46.3841250  53.4092780   3.1892530  46.6354480  52.0148730   2.6560080
  46.2806450  57.9801770   9.8052430  46.1850050  57.0396500   9.6552830
  47.1238430  58.2016840   9.4100500  41.4116990  54.3915440   7.9586210
  41.0180380  55.2390650   8.1658990  40.7235390  53.7541810   8.1494850
  47.9862040  54.4750410  11.0282950  47.2960360  54.2822610  11.6629040
  48.7294340  54.7585050  11.5607250  38.7134040  52.3143900   1.9916290
  38.4247090  52.8846760   2.7041270  39.4579800  51.8348350   2.3547520
  50.2625010  58.3148850   3.8636870  49.5306130  58.8235660   4.2126970
  49.8649350  57.4978830   3.5625650  46.7002400  54.9903050   2.2689360
  46.7038460  54.5493000   1.4193900  47.5953520  55.3120380   2.3761180
  50.7250920  53.7682530   3.2759810  50.7423660  54.2191180   4.1201660
  50.4766500  52.8688170   3.4893250  54.1521670  51.1814710   9.1146190
  54.4767440  50.4504370   9.6404170  54.1878180  50.8628350   8.2127180
  40.8513230  62.2028290   8.5346150  40.4668020  61.5621960   9.1329110
  41.1625420  62.9064410   9.1040880  47.0010370  59.0504830   4.0154770
  47.3680500  58.5763400   4.7616110  46.8115430  59.9246400   4.3563110
  44.7909740  58.0913470   6.3338980  44.4866810  58.9705450   6.5589340
  45.7456200  58.1513260   6.3696420  54.0779510  61.2939820   2.7232220
  54.7978630  61.7895110   2.3328330  53.8761330  60.6157710   2.0786090
  49.4598310  61.3648880   8.6101220  49.3935620  60.4444550   8.3558810
  48.8303450  61.4624320   9.3245860  40.8473470  58.9316210   7.4810340
  40.4888410  59.5970060   8.0683680  40.5528030  58.0999760   7.8522960
  44.0486590  59.3900450  10.3649890  43.7486730  59.5357630   9.4677710
  44.8197830  58.8305740  10.2723280  49.3915040  64.1869450   8.3605020
  49.4059580  63.2550410   8.1423930  48.6840140  64.2729210   8.9994790
  55.6026250  60.8276790   7.7073600  54.8774440  61.4205570   7.5102990
  56.1301710  60.8200330   6.9086970  48.8248940  65.8287020   5.4545520
  49.4691160  66.0346400   6.1318940  49.1878380  65.0675420   5.0016370
  50.0981020  63.8319370   4.1722970  50.7403250  63.1312530   4.2855140
  50.6230370  64.6117810   3.9919860  51.8718640  64.6314270   7.3759030
  52.2074880  65.2180960   8.0536950  50.9518980  64.5006980   7.6056820
  39.4222040  52.4209450   8.1582440  38.7080560  52.6206370   8.7635050
  39.8417080  51.6449020   8.5297240  39.7094630  66.4089710   9.1448970
  39.8185750  65.4684450   9.0044360  39.0575190  66.6744460   8.4962700
  47.7007220  64.6805600  10.5447090  47.3804090  63.9614840  11.0892780
  47.0265580  65.3560670  10.6183150  50.9160820  54.9131760   5.9083890
  51.2841640  54.0926970   6.2363460  50.0559020  54.9733650   6.3239540
  47.8762810  57.5671350   6.1321860  48.3748060  58.0417170   6.7973710
  48.0185760  56.6434870   6.3391890  55.0829670  53.7839310   6.9750250
  54.5803270  54.5244710   7.3144060  55.8986330  54.1723310   6.6587040
  55.3777260  66.1981340   2.0965870  55.5024680  67.0212510   2.5689680
  56.2442820  65.9872070   1.7490020  42.8494790  68.2912550   1.7683000
  43.5857270  67.7428010   2.0391570  43.2335710  69.1568560   1.6288990
  41.8553070  67.4758620  10.9568580  42.6565800  67.7970670  11.3703980
  41.3404890  67.1154200  11.6788490  50.6917700  63.5838490  10.9043990
  50.0855860  63.6070090  10.1639740  50.3871810  62.8521530  11.4411240
  52.1218070  67.3118780   9.5153400  53.0739820  67.2276800   9.4653640
  51.9746290  67.9760490  10.1887190  39.5750880  59.9632080   9.9004630
  40.0789900  59.3839360  10.4720860  38.8358300  60.2472310  10.4381000
  46.6288820  61.3703070   9.4340150  45.8634490  61.9388070   9.3494820
  46.8104780  61.0779280   8.5408380  53.7712170  63.1008400   9.9915170
  54.5121640  63.4384160   9.4882630  53.0084850  63.2700460   9.4384940
  41.6073960  58.1061670  10.7954700  41.6479300  57.8075540  11.7039930
  42.4619460  58.5069280  10.6362220  43.5479770  56.6853770   8.7629190
  43.0176230  56.1944720   8.1352530  44.2167840  57.1137970   8.2287120
  52.4457830  61.1523230   8.5270380  52.8598850  61.3068310   9.3760800
  51.5108830  61.2778450   8.6896160  52.9180000  58.4919390  10.5309530
  53.5000770  57.7371710  10.4430010  53.0941770  59.0226830   9.7541010
  44.0352070  53.6516140   8.8426480  43.9408940  53.0336890   8.1177350
  43.4549460  54.3782430   8.6156390  46.8013510  52.2089380   5.8753870
  46.3530810  52.2313640   5.0299420  46.1678710  51.8108400   6.4724170
  47.2073060  61.1043710   6.4966310  47.6261170  61.9476440   6.3242550
  46.2881690  61.2415750   6.2673090  49.5436960  58.8359890   7.8804150
  49.6633170  58.2401030   8.6198990  50.4030960  58.8729580   7.4605450
  51.8824860  59.3897080   6.4566660  51.3560080  59.9139700   5.8531800
  52.2256200  60.0224470   7.0876390  45.0580480  67.4096720   7.6124040
  44.5201570  68.1342780   7.2932740  45.3114440  66.9327060   6.8221380
  46.3105730  55.3781240   9.1379970  46.9005420  55.0697090   9.8257790
  45.4925970  54.9060990   9.2939870  51.1299160  54.9947050   9.3712990
  50.4414680  54.3328590   9.3062980  51.8505180  54.5485320   9.8161450
  47.9142690  68.6447930   7.8710690  47.8401390  69.5483070   8.1783060
  47.0121530  68.3259830   7.8432760  39.8060190  66.8393110   3.9125940
  39.3691180  67.0193910   4.7450090  40.3737870  67.5967730   3.7707660
  55.4422370  66.3410110   8.2003250  54.8424360  66.4002670   7.4567170
  55.5716270  65.4015090   8.3300100  54.1274010  63.0662090   6.2979410
  53.3133850  63.4959250   6.5605200  54.5348210  63.6780500   5.6848460
  40.6760550  59.7365910   4.8118160  41.0433590  59.6493310   5.6914180
  40.1071370  58.9732460   4.7125020  55.4764410  58.2050290   7.8248630
  55.2450500  57.9763040   6.9246580  55.7368960  59.1249840   7.7793520
  40.2276550  56.6475000   8.7176580  39.3332600  56.6141760   9.0570290
  40.7674100  56.8461790   9.4827830  53.9152480  53.4306720  10.6028330
  54.7922660  53.4390120  10.9862330  53.9273320  52.6937560   9.9920680
  55.5405470  57.3676130   5.0135900  54.5908180  57.3339670   5.1280890
  55.7218480  58.2776240   4.7785670  40.7316260  50.9223330   3.0659800
  41.3792450  50.3720710   2.6254960  41.1518100  51.1766480   3.8875610
  54.6268600  51.1164690   6.4229440  55.2640820  51.7298830   6.7888630
  54.7743490  51.1525350   5.4778670  40.4848260  51.0779000   5.8085120
  40.1363080  51.5342820   6.5743300  40.1535960  50.1836130   5.8907550
  42.0912630  64.2498600   9.9738310  42.0482260  63.8791510  10.8552770
  42.2223640  65.1876170  10.1140130  45.7918660  65.8058190   5.5748030
  45.5510020  66.0732750   4.6878550  46.7321300  65.9763920   5.6298890
  47.9973080  52.2690880   9.3304540  47.9361970  52.8612710  10.0799950
  48.9373460  52.1616840   9.1854800  50.6347640  51.9260940   8.9696830
  51.2488050  52.2440230   8.3077910  51.1797200  51.4409530   9.5892690
  57.0522820  67.8252570   6.3758670  56.5581100  68.2221440   5.6585800
  56.4436110  67.2001780   6.7695950  41.1568900  50.6055200   9.0835890
  41.7051890  50.4243250   8.3202000  41.2224210  49.8149310   9.6192200
  41.9300660  67.1960850   7.0936090  41.3360980  67.0645550   7.8326130
  41.9224500  66.3598990   6.6278190  51.3755680  50.4893080   5.2966120
  50.5015520  50.8228190   5.0939050  51.2666430  50.0166260   6.1217990
  52.2827660  52.6963950   6.6807840  51.9541020  51.8815710   6.3009570
  53.2309960  52.6533760   6.5573530  54.7362270  68.4675990   3.6545410
  54.2765240  69.2191800   3.2803430  54.1074730  67.7482460   3.5960210
  41.5612890  64.5619230   6.0444130  40.8346950  63.9424520   5.9770080
  41.6222040  64.9559840   5.1742210  45.1657990  66.7764230   2.8293540
  45.6823010  66.1651590   2.3041800  45.8155370  67.2793010   3.3204550
  47.9053490  67.6672720   3.6562520  48.1931300  67.4127020   2.7795530
  48.4176710  67.1150080   4.2468090  49.1230500  51.4062920   4.2359030
  48.3402290  51.8808420   4.5155790  48.8293430  50.5017750   4.1272210
  53.6751570  52.1086020   2.2808120  54.1159660  52.0531120   1.4329720
  53.4059160  53.0244030   2.3518300  47.9725850  68.5888820  11.0230720
  48.8993160  68.3533090  11.0666680  47.9576280  69.4160820  10.5416750
  45.1589460  51.2533570  10.7872600  44.8773730  51.7567170  10.0233420
  45.5409160  50.4555320  10.4214730  51.7604920  50.6687150  11.3653070
  51.6470370  50.9881760  12.2604590  52.5774660  51.0699660  11.0690350
  54.5403410  67.8158680  10.8471760  55.3328730  67.3207910  10.6397720
  54.8336560  68.4948820  11.4547370  50.6663070  39.9136130 150.6979220
  50.5857120  38.9990740 150.4270930  50.2527490  40.4103200 149.9918930
  48.7981110  41.6915150 152.5788490  48.0223210  41.2115590 152.8687060
  49.4494040  41.0120800 152.4044650  52.8188540  46.0975340 151.3587620
  52.3570070  45.3262580 151.6874790  53.6314090  46.1241410 151.8640070
  41.2238890  36.9636850 147.2406640  40.3355590  37.3052820 147.1386520
  41.5080080  36.7637170 146.3487470  39.1871900  39.5642500 153.1246340
  39.7588010  38.7964700 153.1249980  39.1873440  39.8631260 152.2152950
  49.0451850  48.3833350 150.9791610  48.4263290  48.8390850 150.4086050
  49.9003630  48.5384810 150.5781310  48.2390100  44.3672340 152.5858650
  48.1698380  43.4262280 152.4247780  49.0009960  44.4573750 153.1581220
  49.2695270  37.1742720 152.8127580  49.6460090  36.3014600 152.7001250
  49.1714780  37.5101420 151.9218020  43.4000280  35.5468350 148.2745020
  43.5067030  36.4472080 148.5813780  42.4892640  35.4986320 147.9839670
  53.0519390  34.6693160 149.7455920  53.8729010  34.1789730 149.7881400
  53.0853470  35.2590820 150.4987760  49.9115200  43.2672590 148.3723520
  49.2932470  43.7322040 147.8086240  50.4238450  43.9600070 148.7893030
  53.2880870  36.6093540 152.5183460  52.5836440  36.8978430 153.0986570
  53.6493030  37.4193650 152.1583020  39.2798400  43.9529120 145.7463150
  38.9026380  44.4416220 145.0148050  39.5371470  44.6254400 146.3769680
  46.8887330  32.3545510 151.2048660  47.1962310  31.7992400 150.4884160
  45.9588030  32.4889970 151.0221650  53.7347810  44.7929020 148.5846290
  53.6244140  43.8503350 148.7095710  53.7316060  45.1544660 149.4709050
  49.2768090  40.4194340 147.9408780  48.3497370  40.3531720 148.1697250
  49.4292910  41.3574470 147.8264020  49.2637170  36.6911340 144.9375940
  48.3240840  36.8525300 145.0228400  49.5820430  37.4097020 144.3911930
  53.3065380  41.9814640 148.4444030  52.6877800  41.6434190 147.7970330
  53.2889830  41.3374400 149.1523220  44.8824730  40.9459080 150.7228510
  44.4781730  40.2336330 150.2274410  44.9687850  40.6012320 151.6116550
  45.3506430  44.6326640 152.8867720  45.0534720  44.0272110 152.2075500
  46.3006250  44.6703950 152.7757080  51.4830080  41.2201450 145.4516780
  51.9223360  40.3823880 145.3054600  52.1958500  41.8530850 145.5380920
  49.5925460  46.1597520 149.4198020  50.0321370  46.9021850 149.0053410
  49.5312350  46.4024090 150.3436980  55.0647220  32.4744260 143.7657820
  54.7519880  32.5671090 144.6656890  55.8259690  33.0525290 143.7155250
  41.5829360  39.8404060 148.2235160  41.4626960  40.5666150 147.6116430
  41.2730250  39.0706970 147.7463070  40.4662360  44.7119390 150.4409980
  40.0590440  44.8533980 149.5863580  41.3575370  44.4279550 150.2381190
  52.2595640  49.1466640 146.7761030  52.0996780  48.8569580 147.6742860
  52.0942350  48.3706770 146.2406260  44.7384020  48.9265170 148.5532650
  44.5626500  48.0100710 148.3400450  43.8839760  49.2852460 148.7930450
  51.9621770  46.6554200 145.3359030  51.2686930  46.6531490 144.6761310
  52.7044630  46.2313520 144.9053200  51.5271700  48.2816910 149.4107520
  51.9828650  47.5006290 149.7246140  51.8664220  48.9923730 149.9548700
  44.0493020  33.1839130 151.6058830  43.6061170  33.9648670 151.2743350
  44.6078010  33.5069020 152.3129770  47.1651840  32.8049830 146.4864660
  46.5406020  32.8009700 147.2117970  47.0781960  31.9380790 146.0900630
  43.8407240  38.3072700 149.3340080  43.6148160  38.0909870 150.2386700
  43.0599770  38.7401160 148.9886050  51.0705000  38.3136070 147.9330730
  50.4713890  39.0371870 147.7494350  51.6184610  38.2512850 147.1507180
  49.6769870  36.9499610 149.9634010  50.0699440  37.2671810 149.1502700
  50.0386720  36.0711490 150.0778530  38.7134040  33.5400410 152.1864210
  38.4247090  34.1103270 152.8989190  39.4579800  33.0604860 152.5495440
  38.9004270  37.4820530 143.3966930  38.8178940  38.4251290 143.5381920
  38.5487330  37.3395440 142.5179280  46.7002400  36.2159560 152.4637280
  46.7038460  35.7749510 151.6141820  47.5953520  36.5376890 152.5709100
  42.5504780  36.0986050 151.4231490  42.2104830  36.5761280 152.1798540
  41.7882100  35.6451170 151.0632590  46.7622550  37.2171640 145.4544040
  46.8835370  37.1758120 146.4029860  46.3771060  38.0795790 145.2990770
  45.7744050  39.5272780 144.8527340  45.2060950  39.0791030 144.2263250
  46.4833050  39.8865560 144.3192490  39.8650860  35.0205030 150.3396160
  39.5797780  34.6560700 151.1774780  39.8029720  34.2885490 149.7259300
  43.3191530  43.5230970 147.1253750  42.5453790  42.9828590 146.9652470
  44.0486160  43.0037580 146.7871510  54.0779510  42.5196330 152.9180140
  54.7978630  43.0151620 152.5276250  53.8761330  41.8414220 152.2734010
  49.5389450  33.9134290 147.0609530  48.7254060  33.4147460 146.9854840
  49.3451400  34.7532540 146.6445880  52.2537840  38.2853940 145.3571690
  53.1417460  38.5971170 145.1823030  52.2242930  37.4126190 144.9652270
  43.3628930  43.1911350 150.7632560  43.8807600  42.3879610 150.7089450
  42.9112950  43.1290490 151.6049390  48.2498430  44.4577630 146.0359860
  48.5914130  45.2019860 145.5403180  47.4211140  44.7708750 146.3984690
  54.5252110  39.5965780 144.8251550  54.4415830  40.0280000 143.9747990
  55.2446300  40.0564130 145.2578370  55.5539360  46.4508040 147.5533680
  54.9115520  45.7963660 147.8277400  55.1670020  46.8563130 146.7774350
  51.1325840  43.7793470 151.4005370  51.4849660  43.1821600 150.7406740
  50.2488170  43.4537700 151.5713620  47.2189120  44.5391160 148.8075780
  47.9060250  45.0860370 149.1883370  46.4321540  45.0831890 148.8425390
  39.3581520  40.1563980 144.2992860  40.2276370  40.4388780 144.5828780
  38.8671840  40.9699850 144.1841670  46.5216330  41.5437190 148.4201140
  46.9779110  42.3542440 148.6461330  46.1704540  41.2260330 149.2519630
  42.4228110  31.8874840 148.8923660  42.2942740  31.8792740 149.8408580
  41.5990130  32.2257930 148.5414670  53.9436740  45.3424500 144.0910030
  53.7174320  44.6254940 144.6834670  53.5532940  45.0936940 143.2531780
  39.7252770  49.3691360 144.8654490  40.0850410  49.9680700 144.2111760
  39.5845110  49.9151250 145.6389520  53.5252990  43.2596440 145.7524190
  53.2374690  43.7209130 146.5402070  54.3205160  42.7994210 146.0208410
  45.7421390  46.7522560 145.6828160  45.7331490  47.4852250 145.0672670
  44.8219750  46.5054140 145.7755120  41.3428030  41.9737450 146.4274920
  40.7355980  42.7136350 146.4370220  41.8177380  42.0636810 145.6013120
  54.2822850  35.0945210 146.9119370  53.6536010  35.1990880 146.1977600
  53.7874770  35.3141990 147.7013250  48.7280990  46.8150800 144.3453350
  48.8292970  46.6114790 143.4155330  47.8282730  46.5609080 144.5501130
  46.2506880  37.3731160 148.3277250  45.5423030  37.8417500 148.7690860
  46.5351360  36.7153170 148.9622440  50.2822310  34.0981820 149.7673040
  50.1590090  34.1167950 148.8182550  51.2306870  34.1460760 149.8871440
  47.3699100  49.3337120 149.0401020  47.6240600  49.2958510 148.1180390
  46.4211580  49.2070450 149.0329270  44.4541900  35.6816240 145.7027960
  45.3032430  36.1186390 145.6368150  44.0873170  35.9936500 146.5300020
  53.3751680  40.2529000 150.6159530  52.4341820  40.2679230 150.7907220
  53.6895750  39.4664960 151.0619830  43.3533320  41.9348600 144.1763490
  44.1196590  41.8229960 144.7388920  43.4308010  41.2386570 143.5240260
  42.0480080  39.3673670 144.8596380  42.1283670  38.4201180 144.9713780
  42.9399830  39.6980550 144.9657040  55.3777260  47.4237850 152.2913790
  55.5024680  48.2469020 152.7637600  56.2442820  47.2128580 151.9437940
  42.8494790  49.5169060 151.9630920  43.5857270  48.9684520 152.2339490
  43.2335710  50.3825070 151.8236910  39.7340270  45.5842630 147.8372430
  38.8080050  45.8263770 147.8277840  40.1996700  46.4116890 147.7157180
  45.9597100  48.6899370 143.7856490  46.7525710  48.9788200 143.3338280
  45.4401450  48.2591540 143.1068970  55.0127270  47.9169500 145.2093230
  54.7268780  47.5034640 144.3947410  54.8146820  48.8457210 145.0893750
  46.4774500  43.9102780 143.6498840  46.3725140  43.2955130 144.3760220
  46.3098720  43.3868670 142.8661850  49.7177230  42.9722810 144.2540830
  49.1687330  43.4192110 144.8983570  50.3396490  42.4672060 144.7778500
  45.3852350  41.9313730 146.1506130  45.8068770  41.7653600 146.9937520
  45.5103190  41.1213960 145.6561270  47.8979990  40.9551340 143.3983230
  48.4185650  40.2400360 143.0324380  48.5448390  41.5937210 143.6983740
  44.2811250  38.0046960 143.0964290  44.0800310  37.1414320 143.4577630
  44.1103300  37.9180320 142.1585890  51.7599560  32.8155190 145.6251170
  52.0401850  31.9723090 145.9810590  50.9865290  33.0478300 146.1389920
  43.0794050  35.1047580 143.0842170  43.3819950  35.1115010 142.1761320
  43.8188640  34.7545440 143.5809830  46.2978980  34.0482200 144.0698370
  45.9500980  33.3706190 143.4900820  46.4991750  33.5871710 144.8841760
  48.4628020  49.0362950 145.6884970  49.3578810  49.3747920 145.7103730
  48.4945650  48.3142360 145.0609250  42.1024180  44.4090000 143.9171970
  42.5399050  44.9519670 144.5729550  42.5871910  43.5836950 143.9268310
  39.3169980  47.1979030 151.3692230  39.6472990  46.3300090 151.1370870
  39.7460980  47.4037550 152.1997190  43.9131900  45.5288040 149.0294200
  43.6127440  45.4053010 149.9298110  43.8069390  44.6696630 148.6209930
  56.6823820  45.3084440 143.7320880  55.8516780  45.3761090 144.2028110
  56.8595650  46.1988560 143.4287740  56.1380280  42.0531920 146.2355080
  56.8999190  42.6228570 146.3414770  56.1534650  41.4859120 147.0063390
  39.6384620  40.5769850 150.4662740  38.9833460  40.3081490 149.8222440
  40.4762570  40.4674330 150.0164720  57.1440250  42.9082020 151.0797010
  57.5149080  42.1249340 150.6732980  57.7842180  43.5971120 150.9014310
  56.1899450  42.3466290 143.3927600  56.4648290  43.2545170 143.2646820
  56.0010190  42.2828820 144.3289590  52.5875060  35.3711140 144.6881230
  53.0059940  35.1842120 143.8477890  52.2811120  34.5190190 144.9984160
  56.0864790  40.2835280 148.3857030  55.7108390  39.5163210 147.9538320
  55.3567910  40.6657980 148.8731960  38.8522700  37.7868780 146.4088070
  37.9486780  38.0498980 146.2339730  39.3363320  38.0579950 145.6288030
  55.3615750  38.5092770 151.6864270  55.8853230  38.0155420 151.0554440
  55.9475170  38.6443130 152.4311840  41.3949910  36.8434320 144.3182450
  42.1041610  36.4217540 143.8329730  40.6789850  36.9109550 143.6865800
  41.0424070  32.8973650 143.3585100  41.7652200  33.4382590 143.6766320
  41.3148590  32.6237070 142.4826640  54.8515720  37.7666120 147.6256680
  55.3474840  37.5336990 148.4105560  54.6531790  36.9277960 147.2094320
  56.2802880  36.4027070 150.1594360  56.1702160  36.2483110 151.0976630
  57.0410470  35.8748010 149.9169770  57.1693150  34.2334990 143.4000500
  58.0942460  34.1016170 143.1918790  57.1468940  34.3127810 144.3536950
  57.2431640  35.0045650 146.0257210  56.4483140  34.9390770 146.5550120
  57.4474920  35.9396290 146.0142560  54.1850060  49.0437200 150.0195600
  54.7809130  48.7221770 149.3430020  54.4428210  48.5709020 150.8108870
  53.6751570  33.3342530 152.4756040  54.1159660  33.2787630 151.6277640
  53.4059160  34.2500540 152.5466220  55.5390140  32.9657770 150.4864860
  55.4778540  32.0218990 150.3395880  56.3182170  33.0737860 151.0318320
  39.8442890  49.1050130 149.4488810  39.6764930  48.4720810 150.1470700
  38.9777400  49.3109530 149.0983000  40.4670910  32.9366910 146.9520670
  41.2250270  33.0495790 146.3784700  40.0048080  33.7736110 146.9064100
  47.0084720  35.0506180 149.9422980  46.1959230  34.6763070 149.6018860
  47.5126360  34.2951260 150.2444170  51.5109700  31.7148630 151.1806050
  52.1139070  32.2868840 151.6554570  50.7702690  32.2788070 150.9579950
  54.6544300  32.1170190 146.4546330  54.8494930  33.0153640 146.7213760
  53.8674170  31.8857270 146.9479280  41.4505590  47.7983360 146.8938950
  40.9253210  48.1791390 146.1900910  41.3750170  48.4234130 147.6148660
  42.8396060  33.4630960 145.4922640  43.3688820  32.6760760 145.3630590
  43.4724380  34.1422150 145.7258170  45.0333900  33.2006100 148.5468030
  44.4036640  32.4993410 148.7138160  44.4939040  33.9610230 148.3301190
  56.2070910  49.3570900 148.2152890  56.3823100  48.6708640 147.5713810
  55.5092480  49.8817950 147.8229560  44.0498560  49.7465740 145.7688200
  44.7817380  49.4625020 145.2212090  44.3092230  49.5079020 146.6587580
  43.2113350  45.8630470 145.7734530  42.5822230  46.3315570 146.3220360
  43.3261180  45.0179690 146.2080720  50.6663070  39.9136130 131.9235730
  50.5857120  38.9990740 131.6527440  50.2527490  40.4103200 131.2175440
  48.7981110  41.6915150 133.8045000  48.0223210  41.2115590 134.0943570
  49.4494040  41.0120800 133.6301160  42.8146940  42.0034960 134.6820760
  41.9831820  41.7483670 135.0817270  43.4227920  42.0745730 135.4178680
  52.8188540  46.0975340 132.5844130  52.3570070  45.3262580 132.9131300
  53.6314090  46.1241410 133.0896580  42.7948200  46.0375050 134.8778780
  43.0976240  45.1472790 134.6989000  43.5391790  46.5945270 134.6501030
  41.2238890  36.9636850 128.4663150  40.3355590  37.3052820 128.3643030
  41.5080080  36.7637170 127.5743980  39.1871900  39.5642500 134.3502850
  39.7588010  38.7964700 134.3506490  39.1873440  39.8631260 133.4409460
  49.0451850  48.3833350 132.2048120  48.4263290  48.8390850 131.6342560
  49.9003630  48.5384810 131.8037820  48.2390100  44.3672340 133.8115160
  48.1698380  43.4262280 133.6504290  49.0009960  44.4573750 134.3837730
  40.4296770  34.9726860 136.1371780  40.2499610  34.0752610 136.4174540
  40.0276850  35.5198730 136.8118730  49.2695270  37.1742720 134.0384090
  49.6460090  36.3014600 133.9257760  49.1714780  37.5101420 133.1474530
  43.4000280  35.5468350 129.5001530  43.5067030  36.4472080 129.8070290
  42.4892640  35.4986320 129.2096180  53.0519390  34.6693160 130.9712430
  53.8729010  34.1789730 131.0137910  53.0853470  35.2590820 131.7244270
  41.0483440  37.4687360 134.7454120  41.7293550  37.7325730 135.3641520
  40.7331490  36.6288230 135.0792130  45.2408010  38.5154720 133.8326710
  45.7486230  39.0135690 134.4731730  45.7721250  37.7389920 133.6566070
  57.3418940  36.6859910 137.5356060  56.6371110  37.0741620 137.0171170
  57.6076860  37.3810200 138.1376990  43.5244110  33.1553280 138.0990130
  43.5262550  33.6725670 137.2936030  42.6948420  32.6783460 138.0760060
  49.9115200  43.2672590 129.5980030  49.2932470  43.7322040 129.0342750
  50.4238450  43.9600070 130.0149540  44.7746960  42.7948460 136.2763630
  44.4416340  43.4217380 136.9184700  44.9513640  43.3210340 135.4965300
  53.2880870  36.6093540 133.7439970  52.5836440  36.8978430 134.3243080
  53.6493030  37.4193650 133.3839530  43.2059440  34.8663240 136.1060580
  43.5476250  35.7105290 135.8114450  42.2675250  35.0146980 136.2225920
  43.9866060  44.7629260 138.0912810  44.6040060  45.4380340 137.8097260
  43.1259180  45.1717240 138.0000310  39.2798400  43.9529120 126.9719660
  38.9026380  44.4416220 126.2404560  39.5371470  44.6254400 127.6026190
  54.9043650  46.2268670 136.0067450  54.2207170  46.8967780 135.9984120
  55.4437940  46.4249320 135.2412310  56.3567790  36.0548330 134.1349180
  55.4092700  36.0887310 134.2664610  56.6817780  36.8687280 134.5198540
  46.8887330  32.3545510 132.4305170  47.1962310  31.7992400 131.7140670
  45.9588030  32.4889970 132.2478160  52.4402390  48.0712800 134.7212630
  52.4529550  47.6675090 133.8534890  51.8877610  48.8460090 134.6174060
  53.7347810  44.7929020 129.8102800  53.6244140  43.8503350 129.9352220
  53.7316060  45.1544660 130.6965560  51.8387830  42.9742640 136.0495240
  52.2556620  42.7602750 135.2148700  52.5627650  43.2315430 136.6203860
  49.2768090  40.4194340 129.1665290  48.3497370  40.3531720 129.3953760
  49.4292910  41.3574470 129.0520530  49.2637170  36.6911340 126.1632450
  48.3240840  36.8525300 126.2484910  49.5820430  37.4097020 125.6168440
  55.7849930  41.3729860 136.1411480  54.9568560  41.4422950 135.6661610
  56.3800410  41.9584170 135.6727310  53.3065380  41.9814640 129.6700540
  52.6877800  41.6434190 129.0226840  53.2889830  41.3374400 130.3779730
  52.7491940  38.1599180 137.0866350  52.3363120  38.9852890 137.3406340
  52.0167890  37.5744220 136.8942710  44.8824730  40.9459080 131.9485020
  44.4781730  40.2336330 131.4530920  44.9687850  40.6012320 132.8373060
  45.3506430  44.6326640 134.1124230  45.0534720  44.0272110 133.4332010
  46.3006250  44.6703950 134.0013590  43.5953350  37.7202290 135.7284060
  44.1467940  37.8297630 134.9537310  44.1096860  38.0939890 136.4439290
  53.4392040  48.2058510 137.7747330  52.9622600  49.0130700 137.5819940
  52.7553830  47.5536840 137.9273540  44.4424860  44.3708330 140.7632030
  43.5453390  44.5948300 141.0105430  44.4677730  44.4943270 139.8143430
  51.4830080  41.2201450 126.6773290  51.9223360  40.3823880 126.5311110
  52.1958500  41.8530850 126.7637430  43.2696080  41.2421650 139.3389400
  43.1303850  42.1144450 139.7076800  42.3877440  40.8994460 139.1937340
  49.5925460  46.1597520 130.6454530  50.0321370  46.9021850 130.2309920
  49.5312350  46.4024090 131.5693490  45.0676430  47.1843350 141.5474550
  45.0391860  47.5886300 140.6802980  44.9041400  46.2553710 141.3846150
  55.0647220  32.4744260 124.9914330  54.7519880  32.5671090 125.8913400
  55.8259690  33.0525290 124.9411760  41.5829360  39.8404060 129.4491670
  41.4626960  40.5666150 128.8372940  41.2730250  39.0706970 128.9719580
  57.0191250  47.9670450 142.8438720  57.4950970  48.4453340 143.5227800
  57.6398410  47.8987940 142.1184220  39.2214730  43.0119200 135.2560310
  39.2995150  43.1467970 134.3116030  39.8356410  42.3035090 135.4488430
  40.4662360  44.7119390 131.6666490  40.0590440  44.8533980 130.8120090
  41.3575370  44.4279550 131.4637700  56.4224500  45.1583300 140.0038730
  56.5487560  44.9195180 139.0855910  56.4645880  44.3267840 140.4760810
  50.2841240  48.8611300 138.5733540  50.7985910  48.7719310 139.3755970
  49.4410320  49.2071000 138.8661450  52.2595640  49.1466640 128.0017540
  52.0996780  48.8569580 128.8999370  52.0942350  48.3706770 127.4662770
  44.7384020  48.9265170 129.7789160  44.5626500  48.0100710 129.5656960
  43.8839760  49.2852460 130.0186960  51.9621770  46.6554200 126.5615540
  51.2686930  46.6531490 125.9017820  52.7044630  46.2313520 126.1309710
  51.5271700  48.2816910 130.6364030  51.9828650  47.5006290 130.9502650
  51.8664220  48.9923730 131.1805210  56.2748510  37.2115760 140.9688470
  55.6592780  37.7195430 140.4403930  55.9544930  36.3114090 140.9114410
  39.2774250  44.0533370 137.7954770  39.4405290  43.5838730 136.9774140
  39.7426700  43.5456930 138.4603610  44.0493020  33.1839130 132.8315340
  43.6061170  33.9648670 132.4999860  44.6078010  33.5069020 133.5386280
  48.3362830  36.0507650 138.4350660  47.8742200  36.2590670 139.2470600
  47.9340940  35.2367000 138.1321330  53.3367340  37.2716600 139.5647320
  52.4860930  36.9722350 139.8856390  53.1769130  37.5158610 138.6531140
  50.4317050  38.7718350 141.6646110  50.7570460  37.9382100 141.3248340
  51.2197380  39.2946870 141.8124440  47.1651840  32.8049830 127.7121170
  46.5406020  32.8009700 128.4374480  47.0781960  31.9380790 127.3157140
  46.0868920  33.7286460 134.6904940  46.3841250  34.6349290 134.6096960
  46.6354480  33.2405240 134.0764510  43.8407240  38.3072700 130.5596590
  43.6148160  38.0909870 131.4643210  43.0599770  38.7401160 130.2142560
  51.0705000  38.3136070 129.1587240  50.4713890  39.0371870 128.9750860
  51.6184610  38.2512850 128.3763690  46.2806450  39.2058280 141.2256860
  46.1850050  38.2653010 141.0757260  47.1238430  39.4273350 140.8304930
  49.6769870  36.9499610 131.1890520  50.0699440  37.2671810 130.3759210
  50.0386720  36.0711490 131.3035040  41.4116990  35.6171950 139.3790640
  41.0180380  36.4647160 139.5863420  40.7235390  34.9798320 139.5699280
  47.9862040  35.7006920 142.4487380  47.2960360  35.5079120 143.0833470
  48.7294340  35.9841560 142.9811680  38.7134040  33.5400410 133.4120720
  38.4247090  34.1103270 134.1245700  39.4579800  33.0604860 133.7751950
  38.9004270  37.4820530 124.6223440  38.8178940  38.4251290 124.7638430
  38.5487330  37.3395440 123.7435790  50.2625010  39.5405360 135.2841300
  49.5306130  40.0492170 135.6331400  49.8649350  38.7235340 134.9830080
  46.7002400  36.2159560 133.6893790  46.7038460  35.7749510 132.8398330
  47.5953520  36.5376890 133.7965610  42.5504780  36.0986050 132.6488000
  42.2104830  36.5761280 133.4055050  41.7882100  35.6451170 132.2889100
  46.7622550  37.2171640 126.6800550  46.8835370  37.1758120 127.6286370
  46.3771060  38.0795790 126.5247280  50.7250920  34.9939040 134.6964240
  50.7423660  35.4447690 135.5406090  50.4766500  34.0944680 134.9097680
  45.7744050  39.5272780 126.0783850  45.2060950  39.0791030 125.4519760
  46.4833050  39.8865560 125.5449000  54.1521670  32.4071220 140.5350620
  54.4767440  31.6760880 141.0608600  54.1878180  32.0884860 139.6331610
  40.8513230  43.4284800 139.9550580  40.4668020  42.7878470 140.5533540
  41.1625420  44.1320920 140.5245310  47.0010370  40.2761340 135.4359200
  47.3680500  39.8019910 136.1820540  46.8115430  41.1502910 135.7767540
  39.8650860  35.0205030 131.5652670  39.5797780  34.6560700 132.4031290
  39.8029720  34.2885490 130.9515810  44.7909740  39.3169980 137.7543410
  44.4866810  40.1961960 137.9793770  45.7456200  39.3769770 137.7900850
  43.3191530  43.5230970 128.3510260  42.5453790  42.9828590 128.1908980
  44.0486160  43.0037580 128.0128020  54.0779510  42.5196330 134.1436650
  54.7978630  43.0151620 133.7532760  53.8761330  41.8414220 133.4990520
  49.5389450  33.9134290 128.2866040  48.7254060  33.4147460 128.2111350
  49.3451400  34.7532540 127.8702390  49.4598310  42.5905390 140.0305650
  49.3935620  41.6701060 139.7763240  48.8303450  42.6880830 140.7450290
  52.2537840  38.2853940 126.5828200  53.1417460  38.5971170 126.4079540
  52.2242930  37.4126190 126.1908780  43.3628930  43.1911350 131.9889070
  43.8807600  42.3879610 131.9345960  42.9112950  43.1290490 132.8305900
  48.2498430  44.4577630 127.2616370  48.5914130  45.2019860 126.7659690
  47.4211140  44.7708750 127.6241200  40.8473470  40.1572720 138.9014770
  40.4888410  40.8226570 139.4888110  40.5528030  39.3256270 139.2727390
  44.0486590  40.6156960 141.7854320  43.7486730  40.7614140 140.8882140
  44.8197830  40.0562250 141.6927710  49.3915040  45.4125960 139.7809450
  49.4059580  44.4806920 139.5628360  48.6840140  45.4985720 140.4199220
  54.5252110  39.5965780 126.0508060  54.4415830  40.0280000 125.2004500
  55.2446300  40.0564130 126.4834880  55.6026250  42.0533300 139.1278030
  54.8774440  42.6462080 138.9307420  56.1301710  42.0456840 138.3291400
  55.5539360  46.4508040 128.7790190  54.9115520  45.7963660 129.0533910
  55.1670020  46.8563130 128.0030860  51.1325840  43.7793470 132.6261880
  51.4849660  43.1821600 131.9663250  50.2488170  43.4537700 132.7970130
  47.2189120  44.5391160 130.0332290  47.9060250  45.0860370 130.4139880
  46.4321540  45.0831890 130.0681900  39.3581520  40.1563980 125.5249370
  40.2276370  40.4388780 125.8085290  38.8671840  40.9699850 125.4098180
  46.5216330  41.5437190 129.6457650  46.9779110  42.3542440 129.8717840
  46.1704540  41.2260330 130.4776140  48.8248940  47.0543530 136.8749950
  49.4691160  47.2602910 137.5523370  49.1878380  46.2931930 136.4220800
  42.4228110  31.8874840 130.1180170  42.2942740  31.8792740 131.0665090
  41.5990130  32.2257930 129.7671180  50.0981020  45.0575880 135.5927400
  50.7403250  44.3569040 135.7059570  50.6230370  45.8374320 135.4124290
  53.9436740  45.3424500 125.3166540  53.7174320  44.6254940 125.9091180
  53.5532940  45.0936940 124.4788290  51.8718640  45.8570780 138.7963460
  52.2074880  46.4437470 139.4741380  50.9518980  45.7263490 139.0261250
  39.7252770  49.3691360 126.0911000  40.0850410  49.9680700 125.4368270
  39.5845110  49.9151250 126.8646030  39.4222040  33.6465960 139.5786870
  38.7080560  33.8462880 140.1839480  39.8417080  32.8705530 139.9501670
  53.5252990  43.2596440 126.9780700  53.2374690  43.7209130 127.7658580
  54.3205160  42.7994210 127.2464920  39.7094630  47.6346220 140.5653400
  39.8185750  46.6940960 140.4248790  39.0575190  47.9000970 139.9167130
  47.7007220  45.9062110 141.9651520  47.3804090  45.1871350 142.5097210
  47.0265580  46.5817180 142.0387580  45.7421390  46.7522560 126.9084670
  45.7331490  47.4852250 126.2929180  44.8219750  46.5054140 127.0011630
  41.3428030  41.9737450 127.6531430  40.7355980  42.7136350 127.6626730
  41.8177380  42.0636810 126.8269630  50.9160820  36.1388270 137.3288320
  51.2841640  35.3183480 137.6567890  50.0559020  36.1990160 137.7443970
  54.2822850  35.0945210 128.1375880  53.6536010  35.1990880 127.4234110
  53.7874770  35.3141990 128.9269760  48.7280990  46.8150800 125.5709860
  48.8292970  46.6114790 124.6411840  47.8282730  46.5609080 125.7757640
  46.2506880  37.3731160 129.5533760  45.5423030  37.8417500 129.9947370
  46.5351360  36.7153170 130.1878950  47.8762810  38.7927860 137.5526290
  48.3748060  39.2673680 138.2178140  48.0185760  37.8691380 137.7596320
  50.2822310  34.0981820 130.9929550  50.1590090  34.1167950 130.0439060
  51.2306870  34.1460760 131.1127950  47.3699100  49.3337120 130.2657530
  47.6240600  49.2958510 129.3436900  46.4211580  49.2070450 130.2585780
  44.4541900  35.6816240 126.9284470  45.3032430  36.1186390 126.8624660
  44.0873170  35.9936500 127.7556530  55.0829670  35.0095820 138.3954680
  54.5803270  35.7501220 138.7348490  55.8986330  35.3979820 138.0791470
  53.3751680  40.2529000 131.8416040  52.4341820  40.2679230 132.0163730
  53.6895750  39.4664960 132.2876340  43.3533320  41.9348600 125.4020000
  44.1196590  41.8229960 125.9645430  43.4308010  41.2386570 124.7496770
  42.0480080  39.3673670 126.0852890  42.1283670  38.4201180 126.1970290
  42.9399830  39.6980550 126.1913550  55.3777260  47.4237850 133.5170300
  55.5024680  48.2469020 133.9894110  56.2442820  47.2128580 133.1694450
  42.8494790  49.5169060 133.1887430  43.5857270  48.9684520 133.4596000
  43.2335710  50.3825070 133.0493420  39.7340270  45.5842630 129.0628940
  38.8080050  45.8263770 129.0534350  40.1996700  46.4116890 128.9413690
  41.8553070  48.7015130 142.3773010  42.6565800  49.0227180 142.7908410
  41.3404890  48.3410710 143.0992920  45.9597100  48.6899370 125.0113000
  46.7525710  48.9788200 124.5594790  45.4401450  48.2591540 124.3325480
  50.6917700  44.8095000 142.3248420  50.0855860  44.8326600 141.5844170
  50.3871810  44.0778040 142.8615670  52.1218070  48.5375290 140.9357830
  53.0739820  48.4533310 140.8858070  51.9746290  49.2017000 141.6091620
  55.0127270  47.9169500 126.4349740  54.7268780  47.5034640 125.6203920
  54.8146820  48.8457210 126.3150260  39.5750880  41.1888590 141.3209060
  40.0789900  40.6095870 141.8925290  38.8358300  41.4728820 141.8585430
  46.4774500  43.9102780 124.8755350  46.3725140  43.2955130 125.6016730
  46.3098720  43.3868670 124.0918360  46.6288820  42.5959580 140.8544580
  45.8634490  43.1644580 140.7699250  46.8104780  42.3035790 139.9612810
  49.7177230  42.9722810 125.4797340  49.1687330  43.4192110 126.1240080
  50.3396490  42.4672060 126.0035010  53.7712170  44.3264910 141.4119600
  54.5121640  44.6640670 140.9087060  53.0084850  44.4956970 140.8589370
  41.6073960  39.3318180 142.2159130  41.6479300  39.0332050 143.1244360
  42.4619460  39.7325790 142.0566650  45.3852350  41.9313730 127.3762640
  45.8068770  41.7653600 128.2194030  45.5103190  41.1213960 126.8817780
  43.5479770  37.9110280 140.1833620  43.0176230  37.4201230 139.5556960
  44.2167840  38.3394480 139.6491550  47.8979990  40.9551340 124.6239740
  48.4185650  40.2400360 124.2580890  48.5448390  41.5937210 124.9240250
  52.4457830  42.3779740 139.9474810  52.8598850  42.5324820 140.7965230
  51.5108830  42.5034960 140.1100590  52.9180000  39.7175900 141.9513960
  53.5000770  38.9628220 141.8634440  53.0941770  40.2483340 141.1745440
  44.0352070  34.8772650 140.2630910  43.9408940  34.2593400 139.5381780
  43.4549460  35.6038940 140.0360820  46.8013510  33.4345890 137.2958300
  46.3530810  33.4570150 136.4503850  46.1678710  33.0364910 137.8928600
  47.2073060  42.3300220 137.9170740  47.6261170  43.1732950 137.7446980
  46.2881690  42.4672260 137.6877520  49.5436960  40.0616400 139.3008580
  49.6633170  39.4657540 140.0403420  50.4030960  40.0986090 138.8809880
  51.8824860  40.6153590 137.8771090  51.3560080  41.1396210 137.2736230
  52.2256200  41.2480980 138.5080820  44.2811250  38.0046960 124.3220800
  44.0800310  37.1414320 124.6834140  44.1103300  37.9180320 123.3842400
  45.0580480  48.6353230 139.0328470  44.5201570  49.3599290 138.7137170
  45.3114440  48.1583570 138.2425810  46.3105730  36.6037750 140.5584400
  46.9005420  36.2953600 141.2462220  45.4925970  36.1317500 140.7144300
  51.1299160  36.2203560 140.7917420  50.4414680  35.5585100 140.7267410
  51.8505180  35.7741830 141.2365880  51.7599560  32.8155190 126.8507680
  52.0401850  31.9723090 127.2067100  50.9865290  33.0478300 127.3646430
  43.0794050  35.1047580 124.3098680  43.3819950  35.1115010 123.4017830
  43.8188640  34.7545440 124.8066340  47.9142690  49.8704440 139.2915120
  47.8401390  50.7739580 139.5987490  47.0121530  49.5516340 139.2637190
  46.2978980  34.0482200 125.2954880  45.9500980  33.3706190 124.7157330
  46.4991750  33.5871710 126.1098270  48.4628020  49.0362950 126.9141480
  49.3578810  49.3747920 126.9360240  48.4945650  48.3142360 126.2865760
  42.1024180  44.4090000 125.1428480  42.5399050  44.9519670 125.7986060
  42.5871910  43.5836950 125.1524820  39.3169980  47.1979030 132.5948740
  39.6472990  46.3300090 132.3627380  39.7460980  47.4037550 133.4253700
  43.9131900  45.5288040 130.2550710  43.6127440  45.4053010 131.1554620
  43.8069390  44.6696630 129.8466440  39.8060190  48.0649620 135.3330370
  39.3691180  48.2450420 136.1654520  40.3737870  48.8224240 135.1912090
  55.4422370  47.5666620 139.6207680  54.8424360  47.6259180 138.8771600
  55.5716270  46.6271600 139.7504530  56.1380280  42.0531920 127.4611590
  56.8999190  42.6228570 127.5671280  56.1534650  41.4859120 128.2319900
  39.6384620  40.5769850 131.6919250  38.9833460  40.3081490 131.0478950
  40.4762570  40.4674330 131.2421230  57.1440250  42.9082020 132.3053520
  57.5149080  42.1249340 131.8989490  57.7842180  43.5971120 132.1270820
  54.1274010  44.2918600 137.7183840  53.3133850  44.7215760 137.9809630
  54.5348210  44.9037010 137.1052890  56.1899450  42.3466290 124.6184110
  56.4648290  43.2545170 124.4903330  56.0010190  42.2828820 125.5546100
  52.5875060  35.3711140 125.9137740  53.0059940  35.1842120 125.0734400
  52.2811120  34.5190190 126.2240670  56.0864790  40.2835280 129.6113540
  55.7108390  39.5163210 129.1794830  55.3567910  40.6657980 130.0988470
  40.6760550  40.9622420 136.2322590  41.0433590  40.8749820 137.1118610
  40.1071370  40.1988970 136.1329450  55.4764410  39.4306800 139.2453060
  55.2450500  39.2019550 138.3451010  55.7368960  40.3506350 139.1997950
  40.2276550  37.8731510 140.1381010  39.3332600  37.8398270 140.4774720
  40.7674100  38.0718300 140.9032260  53.9152480  34.6563230 142.0232760
  54.7922660  34.6646630 142.4066760  53.9273320  33.9194070 141.4125110
  38.8522700  37.7868780 127.6344580  37.9486780  38.0498980 127.4596240
  39.3363320  38.0579950 126.8544540  55.3615750  38.5092770 132.9120780
  55.8853230  38.0155420 132.2810950  55.9475170  38.6443130 133.6568350
  55.5405470  38.5932640 136.4340330  54.5908180  38.5596180 136.5485320
  55.7218480  39.5032750 136.1990100  41.3949910  36.8434320 125.5438960
  42.1041610  36.4217540 125.0586240  40.6789850  36.9109550 124.9122310
  41.0424070  32.8973650 124.5841610  41.7652200  33.4382590 124.9022830
  41.3148590  32.6237070 123.7083150  54.8515720  37.7666120 128.8513190
  55.3474840  37.5336990 129.6362070  54.6531790  36.9277960 128.4350830
  40.7316260  32.1479840 134.4864230  41.3792450  31.5977220 134.0459390
  41.1518100  32.4022990 135.3080040  56.2802880  36.4027070 131.3850870
  56.1702160  36.2483110 132.3233140  57.0410470  35.8748010 131.1426280
  54.6268600  32.3421200 137.8433870  55.2640820  32.9555340 138.2093060
  54.7743490  32.3781860 136.8983100  57.1693150  34.2334990 124.6257010
  58.0942460  34.1016170 124.4175300  57.1468940  34.3127810 125.5793460
  57.2431640  35.0045650 127.2513720  56.4483140  34.9390770 127.7806630
  57.4474920  35.9396290 127.2399070  54.1850060  49.0437200 131.2452110
  54.7809130  48.7221770 130.5686530  54.4428210  48.5709020 132.0365380
  40.4848260  32.3035510 137.2289550  40.1363080  32.7599330 137.9947730
  40.1535960  31.4092640 137.3111980  42.0912630  45.4755110 141.3942740
  42.0482260  45.1048020 142.2757200  42.2223640  46.4132680 141.5344560
  45.7918660  47.0314700 136.9952460  45.5510020  47.2989260 136.1082980
  46.7321300  47.2020430 137.0503320  47.9973080  33.4947390 140.7508970
  47.9361970  34.0869220 141.5004380  48.9373460  33.3873350 140.6059230
  50.6347640  33.1517450 140.3901260  51.2488050  33.4696740 139.7282340
  51.1797200  32.6666040 141.0097120  57.0522820  49.0509080 137.7963100
  56.5581100  49.4477950 137.0790230  56.4436110  48.4258290 138.1900380
  41.1568900  31.8311710 140.5040320  41.7051890  31.6499760 139.7406430
  41.2224210  31.0405820 141.0396630  41.9300660  48.4217360 138.5140520
  41.3360980  48.2902060 139.2530560  41.9224500  47.5855500 138.0482620
  51.3755680  31.7149590 136.7170550  50.5015520  32.0484700 136.5143480
  51.2666430  31.2422770 137.5422420  52.2827660  33.9220460 138.1012270
  51.9541020  33.1072220 137.7214000  53.2309960  33.8790270 137.9777960
  54.7362270  49.6932500 135.0749840  54.2765240  50.4448310 134.7007860
  54.1074730  48.9738970 135.0164640  41.5612890  45.7875740 137.4648560
  40.8346950  45.1681030 137.3974510  41.6222040  46.1816350 136.5946640
  45.1657990  48.0020740 134.2497970  45.6823010  47.3908100 133.7246230
  45.8155370  48.5049520 134.7408980  47.9053490  48.8929230 135.0766950
  48.1931300  48.6383530 134.1999960  48.4176710  48.3406590 135.6672520
  49.1230500  32.6319430 135.6563460  48.3402290  33.1064930 135.9360220
  48.8293430  31.7274260 135.5476640  53.6751570  33.3342530 133.7012550
  54.1159660  33.2787630 132.8534150  53.4059160  34.2500540 133.7722730
  55.5390140  32.9657770 131.7121370  55.4778540  32.0218990 131.5652390
  56.3182170  33.0737860 132.2574830  39.8442890  49.1050130 130.6745320
  39.6764930  48.4720810 131.3727210  38.9777400  49.3109530 130.3239510
  40.4670910  32.9366910 128.1777180  41.2250270  33.0495790 127.6041210
  40.0048080  33.7736110 128.1320610  47.0084720  35.0506180 131.1679490
  46.1959230  34.6763070 130.8275370  47.5126360  34.2951260 131.4700680
  51.5109700  31.7148630 132.4062560  52.1139070  32.2868840 132.8811080
  50.7702690  32.2788070 132.1836460  54.6544300  32.1170190 127.6802840
  54.8494930  33.0153640 127.9470270  53.8674170  31.8857270 128.1735790
  41.4505590  47.7983360 128.1195460  40.9253210  48.1791390 127.4157420
  41.3750170  48.4234130 128.8405170  42.8396060  33.4630960 126.7179150
  43.3688820  32.6760760 126.5887100  43.4724380  34.1422150 126.9514680
  45.0333900  33.2006100 129.7724540  44.4036640  32.4993410 129.9394670
  44.4939040  33.9610230 129.5557700  47.9725850  49.8145330 142.4435150
  48.8993160  49.5789600 142.4871110  47.9576280  50.6417330 141.9621180
  56.2070910  49.3570900 129.4409400  56.3823100  48.6708640 128.7970320
  55.5092480  49.8817950 129.0486070  45.1589460  32.4790080 142.2077030
  44.8773730  32.9823680 141.4437850  45.5409160  31.6811830 141.8419160
  44.0498560  49.7465740 126.9944710  44.7817380  49.4625020 126.4468600
  44.3092230  49.5079020 127.8844090  43.2113350  45.8630470 126.9991040
  42.5822230  46.3315570 127.5476870  43.3261180  45.0179690 127.4337230
  51.7604920  31.8943660 142.7857500  51.6470370  32.2138270 143.6809020
  52.5774660  32.2956170 142.4894780  54.5403410  49.0415190 142.2676190
  55.3328730  48.5464420 142.0602150  54.8336560  49.7205330 142.8751800
  48.7981110  41.6915150 115.0301510  48.0223210  41.2115590 115.3200080
  49.4494040  41.0120800 114.8557670  42.8146940  42.0034960 115.9077270
  41.9831820  41.7483670 116.3073780  43.4227920  42.0745730 116.6435190
  52.8188540  46.0975340 113.8100640  52.3570070  45.3262580 114.1387810
  53.6314090  46.1241410 114.3153090  42.7948200  46.0375050 116.1035290
  43.0976240  45.1472790 115.9245510  43.5391790  46.5945270 115.8757540
  39.1871900  39.5642500 115.5759360  39.7588010  38.7964700 115.5763000
  39.1873440  39.8631260 114.6665970  48.2390100  44.3672340 115.0371670
  48.1698380  43.4262280 114.8760800  49.0009960  44.4573750 115.6094240
  40.4296770  34.9726860 117.3628290  40.2499610  34.0752610 117.6431050
  40.0276850  35.5198730 118.0375240  41.0483440  37.4687360 115.9710630
  41.7293550  37.7325730 116.5898030  40.7331490  36.6288230 116.3048640
  57.3418940  36.6859910 118.7612570  56.6371110  37.0741620 118.2427680
  57.6076860  37.3810200 119.3633500  43.5244110  33.1553280 119.3246640
  43.5262550  33.6725670 118.5192540  42.6948420  32.6783460 119.3016570
  49.9115200  43.2672590 110.8236540  49.2932470  43.7322040 110.2599260
  50.4238450  43.9600070 111.2406050  44.7746960  42.7948460 117.5020140
  44.4416340  43.4217380 118.1441210  44.9513640  43.3210340 116.7221810
  53.2880870  36.6093540 114.9696480  52.5836440  36.8978430 115.5499590
  53.6493030  37.4193650 114.6096040  43.2059440  34.8663240 117.3317090
  43.5476250  35.7105290 117.0370960  42.2675250  35.0146980 117.4482430
  43.9866060  44.7629260 119.3169320  44.6040060  45.4380340 119.0353770
  43.1259180  45.1717240 119.2256820  54.9043650  46.2268670 117.2323960
  54.2207170  46.8967780 117.2240630  55.4437940  46.4249320 116.4668820
  56.3567790  36.0548330 115.3605690  55.4092700  36.0887310 115.4921120
  56.6817780  36.8687280 115.7455050  46.8887330  32.3545510 113.6561680
  47.1962310  31.7992400 112.9397180  45.9588030  32.4889970 113.4734670
  52.4402390  48.0712800 115.9469140  52.4529550  47.6675090 115.0791400
  51.8877610  48.8460090 115.8430570  53.7347810  44.7929020 111.0359310
  53.6244140  43.8503350 111.1608730  53.7316060  45.1544660 111.9222070
  51.8387830  42.9742640 117.2751750  52.2556620  42.7602750 116.4405210
  52.5627650  43.2315430 117.8460370  49.2768090  40.4194340 110.3921800
  48.3497370  40.3531720 110.6210270  49.4292910  41.3574470 110.2777040
  55.7849930  41.3729860 117.3667990  54.9568560  41.4422950 116.8918120
  56.3800410  41.9584170 116.8983820  53.3065380  41.9814640 110.8957050
  52.6877800  41.6434190 110.2483350  53.2889830  41.3374400 111.6036240
  52.7491940  38.1599180 118.3122860  52.3363120  38.9852890 118.5662850
  52.0167890  37.5744220 118.1199220  45.3506430  44.6326640 115.3380740
  45.0534720  44.0272110 114.6588520  46.3006250  44.6703950 115.2270100
  43.5953350  37.7202290 116.9540570  44.1467940  37.8297630 116.1793820
  44.1096860  38.0939890 117.6695800  53.4392040  48.2058510 119.0003840
  52.9622600  49.0130700 118.8076450  52.7553830  47.5536840 119.1530050
  44.4424860  44.3708330 121.9888540  43.5453390  44.5948300 122.2361940
  44.4677730  44.4943270 121.0399940  43.2696080  41.2421650 120.5645910
  43.1303850  42.1144450 120.9333310  42.3877440  40.8994460 120.4193850
  49.5925460  46.1597520 111.8711040  50.0321370  46.9021850 111.4566430
  49.5312350  46.4024090 112.7950000  45.0676430  47.1843350 122.7731060
  45.0391860  47.5886300 121.9059490  44.9041400  46.2553710 122.6102660
  55.0647220  32.4744260 106.2170840  54.7519880  32.5671090 107.1169910
  55.8259690  33.0525290 106.1668270  39.2214730  43.0119200 116.4816820
  39.2995150  43.1467970 115.5372540  39.8356410  42.3035090 116.6744940
  40.4662360  44.7119390 112.8923000  40.0590440  44.8533980 112.0376600
  41.3575370  44.4279550 112.6894210  56.4224500  45.1583300 121.2295240
  56.5487560  44.9195180 120.3112420  56.4645880  44.3267840 121.7017320
  50.2841240  48.8611300 119.7990050  50.7985910  48.7719310 120.6012480
  49.4410320  49.2071000 120.0917960  52.2595640  49.1466640 109.2274050
  52.0996780  48.8569580 110.1255880  52.0942350  48.3706770 108.6919280
  51.9621770  46.6554200 107.7872050  51.2686930  46.6531490 107.1274330
  52.7044630  46.2313520 107.3566220  56.2748510  37.2115760 122.1944980
  55.6592780  37.7195430 121.6660440  55.9544930  36.3114090 122.1370920
  39.2774250  44.0533370 119.0211280  39.4405290  43.5838730 118.2030650
  39.7426700  43.5456930 119.6860120  44.0493020  33.1839130 114.0571850
  43.6061170  33.9648670 113.7256370  44.6078010  33.5069020 114.7642790
  48.3362830  36.0507650 119.6607170  47.8742200  36.2590670 120.4727110
  47.9340940  35.2367000 119.3577840  53.3367340  37.2716600 120.7903830
  52.4860930  36.9722350 121.1112900  53.1769130  37.5158610 119.8787650
  50.4317050  38.7718350 122.8902620  50.7570460  37.9382100 122.5504850
  51.2197380  39.2946870 123.0380950  47.1651840  32.8049830 108.9377680
  46.5406020  32.8009700 109.6630990  47.0781960  31.9380790 108.5413650
  46.0868920  33.7286460 115.9161450  46.3841250  34.6349290 115.8353470
  46.6354480  33.2405240 115.3021020  46.2806450  39.2058280 122.4513370
  46.1850050  38.2653010 122.3013770  47.1238430  39.4273350 122.0561440
  41.4116990  35.6171950 120.6047150  41.0180380  36.4647160 120.8119930
  40.7235390  34.9798320 120.7955790  47.9862040  35.7006920 123.6743890
  47.2960360  35.5079120 124.3089980  48.7294340  35.9841560 124.2068190
  38.7134040  33.5400410 114.6377230  38.4247090  34.1103270 115.3502210
  39.4579800  33.0604860 115.0008460  50.2625010  39.5405360 116.5097810
  49.5306130  40.0492170 116.8587910  49.8649350  38.7235340 116.2086590
  46.7002400  36.2159560 114.9150300  46.7038460  35.7749510 114.0654840
  47.5953520  36.5376890 115.0222120  42.5504780  36.0986050 113.8744510
  42.2104830  36.5761280 114.6311560  41.7882100  35.6451170 113.5145610
  50.7250920  34.9939040 115.9220750  50.7423660  35.4447690 116.7662600
  50.4766500  34.0944680 116.1354190  54.1521670  32.4071220 121.7607130
  54.4767440  31.6760880 122.2865110  54.1878180  32.0884860 120.8588120
  40.8513230  43.4284800 121.1807090  40.4668020  42.7878470 121.7790050
  41.1625420  44.1320920 121.7501820  47.0010370  40.2761340 116.6615710
  47.3680500  39.8019910 117.4077050  46.8115430  41.1502910 117.0024050
  39.8650860  35.0205030 112.7909180  39.5797780  34.6560700 113.6287800
  39.8029720  34.2885490 112.1772320  44.7909740  39.3169980 118.9799920
  44.4866810  40.1961960 119.2050280  45.7456200  39.3769770 119.0157360
  54.0779510  42.5196330 115.3693160  54.7978630  43.0151620 114.9789270
  53.8761330  41.8414220 114.7247030  49.5389450  33.9134290 109.5122550
  48.7254060  33.4147460 109.4367860  49.3451400  34.7532540 109.0958900
  49.4598310  42.5905390 121.2562160  49.3935620  41.6701060 121.0019750
  48.8303450  42.6880830 121.9706800  48.2498430  44.4577630 108.4872880
  48.5914130  45.2019860 107.9916200  47.4211140  44.7708750 108.8497710
  40.8473470  40.1572720 120.1271280  40.4888410  40.8226570 120.7144620
  40.5528030  39.3256270 120.4983900  44.0486590  40.6156960 123.0110830
  43.7486730  40.7614140 122.1138650  44.8197830  40.0562250 122.9184220
  49.3915040  45.4125960 121.0065960  49.4059580  44.4806920 120.7884870
  48.6840140  45.4985720 121.6455730  54.5252110  39.5965780 107.2764570
  54.4415830  40.0280000 106.4261010  55.2446300  40.0564130 107.7091390
  55.6026250  42.0533300 120.3534540  54.8774440  42.6462080 120.1563930
  56.1301710  42.0456840 119.5547910  55.5539360  46.4508040 110.0046700
  54.9115520  45.7963660 110.2790420  55.1670020  46.8563130 109.2287370
  51.1325840  43.7793470 113.8518390  51.4849660  43.1821600 113.1919760
  50.2488170  43.4537700 114.0226640  47.2189120  44.5391160 111.2588800
  47.9060250  45.0860370 111.6396390  46.4321540  45.0831890 111.2938410
  48.8248940  47.0543530 118.1006460  49.4691160  47.2602910 118.7779880
  49.1878380  46.2931930 117.6477310  42.4228110  31.8874840 111.3436680
  42.2942740  31.8792740 112.2921600  41.5990130  32.2257930 110.9927690
  50.0981020  45.0575880 116.8183910  50.7403250  44.3569040 116.9316080
  50.6230370  45.8374320 116.6380800  53.9436740  45.3424500 106.5423050
  53.7174320  44.6254940 107.1347690  53.5532940  45.0936940 105.7044800
  39.7252770  49.3691360 107.3167510  40.0850410  49.9680700 106.6624780
  39.5845110  49.9151250 108.0902540  39.4222040  33.6465960 120.8043380
  38.7080560  33.8462880 121.4095990  39.8417080  32.8705530 121.1758180
  39.7094630  47.6346220 121.7909910  39.8185750  46.6940960 121.6505300
  39.0575190  47.9000970 121.1423640  47.7007220  45.9062110 123.1908030
  47.3804090  45.1871350 123.7353720  47.0265580  46.5817180 123.2644090
  45.7421390  46.7522560 108.1341180  45.7331490  47.4852250 107.5185690
  44.8219750  46.5054140 108.2268140  50.9160820  36.1388270 118.5544830
  51.2841640  35.3183480 118.8824400  50.0559020  36.1990160 118.9700480
  54.2822850  35.0945210 109.3632390  53.6536010  35.1990880 108.6490620
  53.7874770  35.3141990 110.1526270  48.7280990  46.8150800 106.7966370
  48.8292970  46.6114790 105.8668350  47.8282730  46.5609080 107.0014150
  47.8762810  38.7927860 118.7782800  48.3748060  39.2673680 119.4434650
  48.0185760  37.8691380 118.9852830  50.2822310  34.0981820 112.2186060
  50.1590090  34.1167950 111.2695570  51.2306870  34.1460760 112.3384460
  44.4541900  35.6816240 108.1540980  45.3032430  36.1186390 108.0881170
  44.0873170  35.9936500 108.9813040  55.0829670  35.0095820 119.6211190
  54.5803270  35.7501220 119.9605000  55.8986330  35.3979820 119.3047980
  53.3751680  40.2529000 113.0672550  52.4341820  40.2679230 113.2420240
  53.6895750  39.4664960 113.5132850  55.3777260  47.4237850 114.7426810
  55.5024680  48.2469020 115.2150620  56.2442820  47.2128580 114.3950960
  39.7340270  45.5842630 110.2885450  38.8080050  45.8263770 110.2790860
  40.1996700  46.4116890 110.1670200  41.8553070  48.7015130 123.6029520
  42.6565800  49.0227180 124.0164920  41.3404890  48.3410710 124.3249430
  45.9597100  48.6899370 106.2369510  46.7525710  48.9788200 105.7851300
  45.4401450  48.2591540 105.5581990  55.0127270  47.9169500 107.6606250
  54.7268780  47.5034640 106.8460430  54.8146820  48.8457210 107.5406770
  39.5750880  41.1888590 122.5465570  40.0789900  40.6095870 123.1181800
  38.8358300  41.4728820 123.0841940  46.4774500  43.9102780 106.1011860
  46.3725140  43.2955130 106.8273240  46.3098720  43.3868670 105.3174870
  46.6288820  42.5959580 122.0801090  45.8634490  43.1644580 121.9955760
  46.8104780  42.3035790 121.1869320  49.7177230  42.9722810 106.7053850
  49.1687330  43.4192110 107.3496590  50.3396490  42.4672060 107.2291520
  41.6073960  39.3318180 123.4415640  41.6479300  39.0332050 124.3500870
  42.4619460  39.7325790 123.2823160  43.5479770  37.9110280 121.4090130
  43.0176230  37.4201230 120.7813470  44.2167840  38.3394480 120.8748060
  47.8979990  40.9551340 105.8496250  48.4185650  40.2400360 105.4837400
  48.5448390  41.5937210 106.1496760  52.4457830  42.3779740 121.1731320
  52.8598850  42.5324820 122.0221740  51.5108830  42.5034960 121.3357100
  52.9180000  39.7175900 123.1770470  53.5000770  38.9628220 123.0890950
  53.0941770  40.2483340 122.4001950  44.0352070  34.8772650 121.4887420
  43.9408940  34.2593400 120.7638290  43.4549460  35.6038940 121.2617330
  46.8013510  33.4345890 118.5214810  46.3530810  33.4570150 117.6760360
  46.1678710  33.0364910 119.1185110  47.2073060  42.3300220 119.1427250
  47.6261170  43.1732950 118.9703490  46.2881690  42.4672260 118.9134030
  49.5436960  40.0616400 120.5265090  49.6633170  39.4657540 121.2659930
  50.4030960  40.0986090 120.1066390  51.8824860  40.6153590 119.1027600
  51.3560080  41.1396210 118.4992740  52.2256200  41.2480980 119.7337330
  45.0580480  48.6353230 120.2584980  44.5201570  49.3599290 119.9393680
  45.3114440  48.1583570 119.4682320  46.3105730  36.6037750 121.7840910
  46.9005420  36.2953600 122.4718730  45.4925970  36.1317500 121.9400810
  51.1299160  36.2203560 122.0173930  50.4414680  35.5585100 121.9523920
  51.8505180  35.7741830 122.4622390  51.7599560  32.8155190 108.0764190
  52.0401850  31.9723090 108.4323610  50.9865290  33.0478300 108.5902940
  43.0794050  35.1047580 105.5355190  43.3819950  35.1115010 104.6274340
  43.8188640  34.7545440 106.0322850  47.9142690  49.8704440 120.5171630
  47.8401390  50.7739580 120.8244000  47.0121530  49.5516340 120.4893700
  42.1024180  44.4090000 106.3684990  42.5399050  44.9519670 107.0242570
  42.5871910  43.5836950 106.3781330  39.3169980  47.1979030 113.8205250
  39.6472990  46.3300090 113.5883890  39.7460980  47.4037550 114.6510210
  43.9131900  45.5288040 111.4807220  43.6127440  45.4053010 112.3811130
  43.8069390  44.6696630 111.0722950  39.8060190  48.0649620 116.5586880
  39.3691180  48.2450420 117.3911030  40.3737870  48.8224240 116.4168600
  55.4422370  47.5666620 120.8464190  54.8424360  47.6259180 120.1028110
  55.5716270  46.6271600 120.9761040  56.6823820  45.3084440 106.1833900
  55.8516780  45.3761090 106.6541130  56.8595650  46.1988560 105.8800760
  57.1440250  42.9082020 113.5310030  57.5149080  42.1249340 113.1246000
  57.7842180  43.5971120 113.3527330  54.1274010  44.2918600 118.9440350
  53.3133850  44.7215760 119.2066140  54.5348210  44.9037010 118.3309400
  40.6760550  40.9622420 117.4579100  41.0433590  40.8749820 118.3375120
  40.1071370  40.1988970 117.3585960  55.4764410  39.4306800 120.4709570
  55.2450500  39.2019550 119.5707520  55.7368960  40.3506350 120.4254460
  40.2276550  37.8731510 121.3637520  39.3332600  37.8398270 121.7031230
  40.7674100  38.0718300 122.1288770  53.9152480  34.6563230 123.2489270
  54.7922660  34.6646630 123.6323270  53.9273320  33.9194070 122.6381620
  55.5405470  38.5932640 117.6596840  54.5908180  38.5596180 117.7741830
  55.7218480  39.5032750 117.4246610  41.0424070  32.8973650 105.8098120
  41.7652200  33.4382590 106.1279340  41.3148590  32.6237070 104.9339660
  40.7316260  32.1479840 115.7120740  41.3792450  31.5977220 115.2715900
  41.1518100  32.4022990 116.5336550  54.6268600  32.3421200 119.0690380
  55.2640820  32.9555340 119.4349570  54.7743490  32.3781860 118.1239610
  54.1850060  49.0437200 112.4708620  54.7809130  48.7221770 111.7943040
  54.4428210  48.5709020 113.2621890  40.4848260  32.3035510 118.4546060
  40.1363080  32.7599330 119.2204240  40.1535960  31.4092640 118.5368490
  42.0912630  45.4755110 122.6199250  42.0482260  45.1048020 123.5013710
  42.2223640  46.4132680 122.7601070  45.7918660  47.0314700 118.2208970
  45.5510020  47.2989260 117.3339490  46.7321300  47.2020430 118.2759830
  47.9973080  33.4947390 121.9765480  47.9361970  34.0869220 122.7260890
  48.9373460  33.3873350 121.8315740  50.6347640  33.1517450 121.6157770
  51.2488050  33.4696740 120.9538850  51.1797200  32.6666040 122.2353630
  57.0522820  49.0509080 119.0219610  56.5581100  49.4477950 118.3046740
  56.4436110  48.4258290 119.4156890  41.1568900  31.8311710 121.7296830
  41.7051890  31.6499760 120.9662940  41.2224210  31.0405820 122.2653140
  51.3755680  31.7149590 117.9427060  50.5015520  32.0484700 117.7399990
  51.2666430  31.2422770 118.7678930  52.2827660  33.9220460 119.3268780
  51.9541020  33.1072220 118.9470510  53.2309960  33.8790270 119.2034470
  54.7362270  49.6932500 116.3006350  54.2765240  50.4448310 115.9264370
  54.1074730  48.9738970 116.2421150  41.5612890  45.7875740 118.6905070
  40.8346950  45.1681030 118.6231020  41.6222040  46.1816350 117.8203150
  45.1657990  48.0020740 115.4754480  45.6823010  47.3908100 114.9502740
  45.8155370  48.5049520 115.9665490  47.9053490  48.8929230 116.3023460
  48.1931300  48.6383530 115.4256470  48.4176710  48.3406590 116.8929030
  49.1230500  32.6319430 116.8819970  48.3402290  33.1064930 117.1616730
  48.8293430  31.7274260 116.7733150  53.6751570  33.3342530 114.9269060
  54.1159660  33.2787630 114.0790660  53.4059160  34.2500540 114.9979240
  55.5390140  32.9657770 112.9377880  55.4778540  32.0218990 112.7908900
  56.3182170  33.0737860 113.4831340  40.4670910  32.9366910 109.4033690
  41.2250270  33.0495790 108.8297720  40.0048080  33.7736110 109.3577120
  47.0084720  35.0506180 112.3936000  46.1959230  34.6763070 112.0531880
  47.5126360  34.2951260 112.6957190  51.5109700  31.7148630 113.6319070
  52.1139070  32.2868840 114.1067590  50.7702690  32.2788070 113.4092970
  54.6544300  32.1170190 108.9059350  54.8494930  33.0153640 109.1726780
  53.8674170  31.8857270 109.3992300  41.4505590  47.7983360 109.3451970
  40.9253210  48.1791390 108.6413930  41.3750170  48.4234130 110.0661680
  42.8396060  33.4630960 107.9435660  43.3688820  32.6760760 107.8143610
  43.4724380  34.1422150 108.1771190  45.0333900  33.2006100 110.9981050
  44.4036640  32.4993410 111.1651180  44.4939040  33.9610230 110.7814210
  47.9725850  49.8145330 123.6691660  48.8993160  49.5789600 123.7127620
  47.9576280  50.6417330 123.1877690  56.2070910  49.3570900 110.6665910
  56.3823100  48.6708640 110.0226830  55.5092480  49.8817950 110.2742580
  45.1589460  32.4790080 123.4333540  44.8773730  32.9823680 122.6694360
  45.5409160  31.6811830 123.0675670  44.0498560  49.7465740 108.2201220
  44.7817380  49.4625020 107.6725110  44.3092230  49.5079020 109.1100600
  43.2113350  45.8630470 108.2247550  42.5822230  46.3315570 108.7733380
  43.3261180  45.0179690 108.6593740  51.7604920  31.8943660 124.0114010
  51.6470370  32.2138270 124.9065530  52.5774660  32.2956170 123.7151290
  50.6663070  39.9136130  94.3748750  50.5857120  38.9990740  94.1040460
  50.2527490  40.4103200  93.6688460  53.0519390  34.6693160  93.4225450
  53.8729010  34.1789730  93.4650930  53.0853470  35.2590820  94.1757290
  57.3418940  36.6859910  99.9869080  56.6371110  37.0741620  99.4684190
  57.6076860  37.3810200 100.5890010  53.2880870  36.6093540  96.1952990
  52.5836440  36.8978430  96.7756100  53.6493030  37.4193650  95.8352550
  51.8387830  42.9742640  98.5008260  52.2556620  42.7602750  97.6661720
  52.5627650  43.2315430  99.0716880  49.2637170  36.6911340  88.6145470
  48.3240840  36.8525300  88.6997930  49.5820430  37.4097020  88.0681460
  52.7491940  38.1599180  99.5379370  52.3363120  38.9852890  99.7919360
  52.0167890  37.5744220  99.3455730  53.4392040  48.2058510 100.2260350
  52.9622600  49.0130700 100.0332960  52.7553830  47.5536840 100.3786560
  44.4424860  44.3708330 103.2145050  43.5453390  44.5948300 103.4618450
  44.4677730  44.4943270 102.2656450  51.4830080  41.2201450  89.1286310
  51.9223360  40.3823880  88.9824130  52.1958500  41.8530850  89.2150450
  43.2696080  41.2421650 101.7902420  43.1303850  42.1144450 102.1589820
  42.3877440  40.8994460 101.6450360  45.0676430  47.1843350 103.9987570
  45.0391860  47.5886300 103.1316000  44.9041400  46.2553710 103.8359170
  55.0647220  32.4744260  87.4427350  54.7519880  32.5671090  88.3426420
  55.8259690  33.0525290  87.3924780  57.0191250  47.9670450 105.2951740
  57.4950970  48.4453340 105.9740820  57.6398410  47.8987940 104.5697240
  40.4662360  44.7119390  94.1179510  40.0590440  44.8533980  93.2633110
  41.3575370  44.4279550  93.9150720  56.4224500  45.1583300 102.4551750
  56.5487560  44.9195180 101.5368930  56.4645880  44.3267840 102.9273830
  50.2841240  48.8611300 101.0246560  50.7985910  48.7719310 101.8268990
  49.4410320  49.2071000 101.3174470  51.9621770  46.6554200  89.0128560
  51.2686930  46.6531490  88.3530840  52.7044630  46.2313520  88.5822730
  56.2748510  37.2115760 103.4201490  55.6592780  37.7195430 102.8916950
  55.9544930  36.3114090 103.3627430  48.3362830  36.0507650 100.8863680
  47.8742200  36.2590670 101.6983620  47.9340940  35.2367000 100.5834350
  53.3367340  37.2716600 102.0160340  52.4860930  36.9722350 102.3369410
  53.1769130  37.5158610 101.1044160  47.1651840  32.8049830  90.1634190
  46.5406020  32.8009700  90.8887500  47.0781960  31.9380790  89.7670160
  46.2806450  39.2058280 103.6769880  46.1850050  38.2653010 103.5270280
  47.1238430  39.4273350 103.2817950  38.9004270  37.4820530  87.0736460
  38.8178940  38.4251290  87.2151450  38.5487330  37.3395440  86.1948810
  50.2625010  39.5405360  97.7354320  49.5306130  40.0492170  98.0844420
  49.8649350  38.7235340  97.4343100  46.7622550  37.2171640  89.1313570
  46.8835370  37.1758120  90.0799390  46.3771060  38.0795790  88.9760300
  54.1521670  32.4071220 102.9863640  54.4767440  31.6760880 103.5121620
  54.1878180  32.0884860 102.0844630  40.8513230  43.4284800 102.4063600
  40.4668020  42.7878470 103.0046560  41.1625420  44.1320920 102.9758330
  39.8650860  35.0205030  94.0165690  39.5797780  34.6560700  94.8544310
  39.8029720  34.2885490  93.4028830  49.5389450  33.9134290  90.7379060
  48.7254060  33.4147460  90.6624370  49.3451400  34.7532540  90.3215410
  49.4598310  42.5905390 102.4818670  49.3935620  41.6701060 102.2276260
  48.8303450  42.6880830 103.1963310  52.2537840  38.2853940  89.0341220
  53.1417460  38.5971170  88.8592560  52.2242930  37.4126190  88.6421800
  44.0486590  40.6156960 104.2367340  43.7486730  40.7614140 103.3395160
  44.8197830  40.0562250 104.1440730  49.3915040  45.4125960 102.2322470
  49.4059580  44.4806920 102.0141380  48.6840140  45.4985720 102.8712240
  54.5252110  39.5965780  88.5021080  54.4415830  40.0280000  87.6517520
  55.2446300  40.0564130  88.9347900  55.6026250  42.0533300 101.5791050
  54.8774440  42.6462080 101.3820440  56.1301710  42.0456840 100.7804420
  48.8248940  47.0543530  99.3262970  49.4691160  47.2602910 100.0036390
  49.1878380  46.2931930  98.8733820  42.4228110  31.8874840  92.5693190
  42.2942740  31.8792740  93.5178110  41.5990130  32.2257930  92.2184200
  53.9436740  45.3424500  87.7679560  53.7174320  44.6254940  88.3604200
  53.5532940  45.0936940  86.9301310  51.8718640  45.8570780 101.2476480
  52.2074880  46.4437470 101.9254400  50.9518980  45.7263490 101.4774270
  39.7252770  49.3691360  88.5424020  40.0850410  49.9680700  87.8881290
  39.5845110  49.9151250  89.3159050  47.7007220  45.9062110 104.4164540
  47.3804090  45.1871350 104.9610230  47.0265580  46.5817180 104.4900600
  45.7421390  46.7522560  89.3597690  45.7331490  47.4852250  88.7442200
  44.8219750  46.5054140  89.4524650  54.2822850  35.0945210  90.5888900
  53.6536010  35.1990880  89.8747130  53.7874770  35.3141990  91.3782780
  48.7280990  46.8150800  88.0222880  48.8292970  46.6114790  87.0924860
  47.8282730  46.5609080  88.2270660  47.8762810  38.7927860 100.0039310
  48.3748060  39.2673680 100.6691160  48.0185760  37.8691380 100.2109340
  55.0829670  35.0095820 100.8467700  54.5803270  35.7501220 101.1861510
  55.8986330  35.3979820 100.5304490  42.8494790  49.5169060  95.6400450
  43.5857270  48.9684520  95.9109020  43.2335710  50.3825070  95.5006440
  39.7340270  45.5842630  91.5141960  38.8080050  45.8263770  91.5047370
  40.1996700  46.4116890  91.3926710  41.8553070  48.7015130 104.8286030
  42.6565800  49.0227180 105.2421430  41.3404890  48.3410710 105.5505940
  45.9597100  48.6899370  87.4626020  46.7525710  48.9788200  87.0107810
  45.4401450  48.2591540  86.7838500  50.6917700  44.8095000 104.7761440
  50.0855860  44.8326600 104.0357190  50.3871810  44.0778040 105.3128690
  52.1218070  48.5375290 103.3870850  53.0739820  48.4533310 103.3371090
  51.9746290  49.2017000 104.0604640  55.0127270  47.9169500  88.8862760
  54.7268780  47.5034640  88.0716940  54.8146820  48.8457210  88.7663280
  46.4774500  43.9102780  87.3268370  46.3725140  43.2955130  88.0529750
  46.3098720  43.3868670  86.5431380  46.6288820  42.5959580 103.3057600
  45.8634490  43.1644580 103.2212270  46.8104780  42.3035790 102.4125830
  49.7177230  42.9722810  87.9310360  49.1687330  43.4192110  88.5753100
  50.3396490  42.4672060  88.4548030  53.7712170  44.3264910 103.8632620
  54.5121640  44.6640670 103.3600080  53.0084850  44.4956970 103.3102390
  43.5479770  37.9110280 102.6346640  43.0176230  37.4201230 102.0069980
  44.2167840  38.3394480 102.1004570  47.8979990  40.9551340  87.0752760
  48.4185650  40.2400360  86.7093910  48.5448390  41.5937210  87.3753270
  52.4457830  42.3779740 102.3987830  52.8598850  42.5324820 103.2478250
  51.5108830  42.5034960 102.5613610  49.5436960  40.0616400 101.7521600
  49.6633170  39.4657540 102.4916440  50.4030960  40.0986090 101.3322900
  51.8824860  40.6153590 100.3284110  51.3560080  41.1396210  99.7249250
  52.2256200  41.2480980 100.9593840  44.2811250  38.0046960  86.7733820
  44.0800310  37.1414320  87.1347160  44.1103300  37.9180320  85.8355420
  45.0580480  48.6353230 101.4841490  44.5201570  49.3599290 101.1650190
  45.3114440  48.1583570 100.6938830  46.3105730  36.6037750 103.0097420
  46.9005420  36.2953600 103.6975240  45.4925970  36.1317500 103.1657320
  51.1299160  36.2203560 103.2430440  50.4414680  35.5585100 103.1780430
  51.8505180  35.7741830 103.6878900  51.7599560  32.8155190  89.3020700
  52.0401850  31.9723090  89.6580120  50.9865290  33.0478300  89.8159450
  43.0794050  35.1047580  86.7611700  43.3819950  35.1115010  85.8530850
  43.8188640  34.7545440  87.2579360  47.9142690  49.8704440 101.7428140
  47.8401390  50.7739580 102.0500510  47.0121530  49.5516340 101.7150210
  46.2978980  34.0482200  87.7467900  45.9500980  33.3706190  87.1670350
  46.4991750  33.5871710  88.5611290  48.4628020  49.0362950  89.3654500
  49.3578810  49.3747920  89.3873260  48.4945650  48.3142360  88.7378780
  42.1024180  44.4090000  87.5941500  42.5399050  44.9519670  88.2499080
  42.5871910  43.5836950  87.6037840  39.3169980  47.1979030  95.0461760
  39.6472990  46.3300090  94.8140400  39.7460980  47.4037550  95.8766720
  39.8060190  48.0649620  97.7843390  39.3691180  48.2450420  98.6167540
  40.3737870  48.8224240  97.6425110  55.4422370  47.5666620 102.0720700
  54.8424360  47.6259180 101.3284620  55.5716270  46.6271600 102.2017550
  56.6823820  45.3084440  87.4090410  55.8516780  45.3761090  87.8797640
  56.8595650  46.1988560  87.1057270  54.1274010  44.2918600 100.1696860
  53.3133850  44.7215760 100.4322650  54.5348210  44.9037010  99.5565910
  52.5875060  35.3711140  88.3650760  53.0059940  35.1842120  87.5247420
  52.2811120  34.5190190  88.6753690  55.4764410  39.4306800 101.6966080
  55.2450500  39.2019550 100.7964030  55.7368960  40.3506350 101.6510970
  53.9152480  34.6563230 104.4745780  54.7922660  34.6646630 104.8579780
  53.9273320  33.9194070 103.8638130  41.3949910  36.8434320  87.9951980
  42.1041610  36.4217540  87.5099260  40.6789850  36.9109550  87.3635330
  41.0424070  32.8973650  87.0354630  41.7652200  33.4382590  87.3535850
  41.3148590  32.6237070  86.1596170  54.8515720  37.7666120  91.3026210
  55.3474840  37.5336990  92.0875090  54.6531790  36.9277960  90.8863850
  54.6268600  32.3421200 100.2946890  55.2640820  32.9555340 100.6606080
  54.7743490  32.3781860  99.3496120  57.1693150  34.2334990  87.0770030
  58.0942460  34.1016170  86.8688320  57.1468940  34.3127810  88.0306480
  57.2431640  35.0045650  89.7026740  56.4483140  34.9390770  90.2319650
  57.4474920  35.9396290  89.6912090  42.0912630  45.4755110 103.8455760
  42.0482260  45.1048020 104.7270220  42.2223640  46.4132680 103.9857580
  45.7918660  47.0314700  99.4465480  45.5510020  47.2989260  98.5596000
  46.7321300  47.2020430  99.5016340  41.1568900  31.8311710 102.9553340
  41.7051890  31.6499760 102.1919450  41.2224210  31.0405820 103.4909650
  41.9300660  48.4217360 100.9653540  41.3360980  48.2902060 101.7043580
  41.9224500  47.5855500 100.4995640  51.3755680  31.7149590  99.1683570
  50.5015520  32.0484700  98.9656500  51.2666430  31.2422770  99.9935440
  52.2827660  33.9220460 100.5525290  51.9541020  33.1072220 100.1727020
  53.2309960  33.8790270 100.4290980  53.6751570  33.3342530  96.1525570
  54.1159660  33.2787630  95.3047170  53.4059160  34.2500540  96.2235750
  55.5390140  32.9657770  94.1634390  55.4778540  32.0218990  94.0165410
  56.3182170  33.0737860  94.7087850  39.8442890  49.1050130  93.1258340
  39.6764930  48.4720810  93.8240230  38.9777400  49.3109530  92.7752530
  40.4670910  32.9366910  90.6290200  41.2250270  33.0495790  90.0554230
  40.0048080  33.7736110  90.5833630  54.6544300  32.1170190  90.1315860
  54.8494930  33.0153640  90.3983290  53.8674170  31.8857270  90.6248810
  42.8396060  33.4630960  89.1692170  43.3688820  32.6760760  89.0400120
  43.4724380  34.1422150  89.4027700  45.0333900  33.2006100  92.2237560
  44.4036640  32.4993410  92.3907690  44.4939040  33.9610230  92.0070720
  47.9725850  49.8145330 104.8948170  48.8993160  49.5789600 104.9384130
  47.9576280  50.6417330 104.4134200  43.2113350  45.8630470  89.4504060
  42.5822230  46.3315570  89.9989890  43.3261180  45.0179690  89.8850250
  54.5403410  49.0415190 104.7189210  55.3328730  48.5464420 104.5115170
  54.8336560  49.7205330 105.3264820  39.1871900  39.5642500  78.0272380
  39.7588010  38.7964700  78.0276020  39.1873440  39.8631260  77.1178990
  43.4000280  35.5468350  73.1771060  43.5067030  36.4472080  73.4839820
  42.4892640  35.4986320  72.8865710  41.0483440  37.4687360  78.4223650
  41.7293550  37.7325730  79.0411050  40.7331490  36.6288230  78.7561660
  49.9115200  43.2672590  73.2749560  49.2932470  43.7322040  72.7112280
  50.4238450  43.9600070  73.6919070  49.2768090  40.4194340  72.8434820
  48.3497370  40.3531720  73.0723290  49.4292910  41.3574470  72.7290060
  52.7491940  38.1599180  80.7635880  52.3363120  38.9852890  81.0175870
  52.0167890  37.5744220  80.5712240  43.2696080  41.2421650  83.0158930
  43.1303850  42.1144450  83.3846330  42.3877440  40.8994460  82.8706870
  57.0191250  47.9670450  86.5208250  57.4950970  48.4453340  87.1997330
  57.6398410  47.8987940  85.7953750  39.2214730  43.0119200  78.9329840
  39.2995150  43.1467970  77.9885560  39.8356410  42.3035090  79.1257960
  40.4662360  44.7119390  75.3436020  40.0590440  44.8533980  74.4889620
  41.3575370  44.4279550  75.1407230  56.4224500  45.1583300  83.6808260
  56.5487560  44.9195180  82.7625440  56.4645880  44.3267840  84.1530340
  44.7384020  48.9265170  73.4558690  44.5626500  48.0100710  73.2426490
  43.8839760  49.2852460  73.6956490  39.2774250  44.0533370  81.4724300
  39.4405290  43.5838730  80.6543670  39.7426700  43.5456930  82.1373140
  44.0493020  33.1839130  76.5084870  43.6061170  33.9648670  76.1769390
  44.6078010  33.5069020  77.2155810  50.4317050  38.7718350  85.3415640
  50.7570460  37.9382100  85.0017870  51.2197380  39.2946870  85.4893970
  51.0705000  38.3136070  72.8356770  50.4713890  39.0371870  72.6520390
  51.6184610  38.2512850  72.0533220  46.2806450  39.2058280  84.9026390
  46.1850050  38.2653010  84.7526790  47.1238430  39.4273350  84.5074460
  49.6769870  36.9499610  74.8660050  50.0699440  37.2671810  74.0528740
  50.0386720  36.0711490  74.9804570  41.4116990  35.6171950  83.0560170
  41.0180380  36.4647160  83.2632950  40.7235390  34.9798320  83.2468810
  47.9862040  35.7006920  86.1256910  47.2960360  35.5079120  86.7603000
  48.7294340  35.9841560  86.6581210  42.5504780  36.0986050  76.3257530
  42.2104830  36.5761280  77.0824580  41.7882100  35.6451170  75.9658630
  40.8513230  43.4284800  83.6320110  40.4668020  42.7878470  84.2303070
  41.1625420  44.1320920  84.2014840  39.8650860  35.0205030  75.2422200
  39.5797780  34.6560700  76.0800820  39.8029720  34.2885490  74.6285340
  43.3191530  43.5230970  72.0279790  42.5453790  42.9828590  71.8678510
  44.0486160  43.0037580  71.6897550  49.5389450  33.9134290  71.9635570
  48.7254060  33.4147460  71.8880880  49.3451400  34.7532540  71.5471920
  49.4598310  42.5905390  83.7075180  49.3935620  41.6701060  83.4532770
  48.8303450  42.6880830  84.4219820  52.2537840  38.2853940  70.2597730
  53.1417460  38.5971170  70.0849070  52.2242930  37.4126190  69.8678310
  48.2498430  44.4577630  70.9385900  48.5914130  45.2019860  70.4429220
  47.4211140  44.7708750  71.3010730  40.8473470  40.1572720  82.5784300
  40.4888410  40.8226570  83.1657640  40.5528030  39.3256270  82.9496920
  44.0486590  40.6156960  85.4623850  43.7486730  40.7614140  84.5651670
  44.8197830  40.0562250  85.3697240  49.3915040  45.4125960  83.4578980
  49.4059580  44.4806920  83.2397890  48.6840140  45.4985720  84.0968750
  50.0981020  45.0575880  79.2696930  50.7403250  44.3569040  79.3829100
  50.6230370  45.8374320  79.0893820  39.4222040  33.6465960  83.2556400
  38.7080560  33.8462880  83.8609010  39.8417080  32.8705530  83.6271200
  39.7094630  47.6346220  84.2422930  39.8185750  46.6940960  84.1018320
  39.0575190  47.9000970  83.5936660  47.7007220  45.9062110  85.6421050
  47.3804090  45.1871350  86.1866740  47.0265580  46.5817180  85.7157110
  45.7421390  46.7522560  70.5854200  45.7331490  47.4852250  69.9698710
  44.8219750  46.5054140  70.6781160  48.7280990  46.8150800  69.2479390
  48.8292970  46.6114790  68.3181370  47.8282730  46.5609080  69.4527170
  50.2822310  34.0981820  74.6699080  50.1590090  34.1167950  73.7208590
  51.2306870  34.1460760  74.7897480  44.4541900  35.6816240  70.6054000
  45.3032430  36.1186390  70.5394190  44.0873170  35.9936500  71.4326060
  39.7340270  45.5842630  72.7398470  38.8080050  45.8263770  72.7303880
  40.1996700  46.4116890  72.6183220  41.8553070  48.7015130  86.0542540
  42.6565800  49.0227180  86.4677940  41.3404890  48.3410710  86.7762450
  45.9597100  48.6899370  68.6882530  46.7525710  48.9788200  68.2364320
  45.4401450  48.2591540  68.0095010  50.6917700  44.8095000  86.0017950
  50.0855860  44.8326600  85.2613700  50.3871810  44.0778040  86.5385200
  39.5750880  41.1888590  84.9978590  40.0789900  40.6095870  85.5694820
  38.8358300  41.4728820  85.5354960  46.4774500  43.9102780  68.5524880
  46.3725140  43.2955130  69.2786260  46.3098720  43.3868670  67.7687890
  46.6288820  42.5959580  84.5314110  45.8634490  43.1644580  84.4468780
  46.8104780  42.3035790  83.6382340  52.4457830  42.3779740  83.6244340
  52.8598850  42.5324820  84.4734760  51.5108830  42.5034960  83.7870120
  52.9180000  39.7175900  85.6283490  53.5000770  38.9628220  85.5403970
  53.0941770  40.2483340  84.8514970  47.2073060  42.3300220  81.5940270
  47.6261170  43.1732950  81.4216510  46.2881690  42.4672260  81.3647050
  49.5436960  40.0616400  82.9778110  49.6633170  39.4657540  83.7172950
  50.4030960  40.0986090  82.5579410  51.8824860  40.6153590  81.5540620
  51.3560080  41.1396210  80.9505760  52.2256200  41.2480980  82.1850350
  51.7599560  32.8155190  70.5277210  52.0401850  31.9723090  70.8836630
  50.9865290  33.0478300  71.0415960  48.4628020  49.0362950  70.5911010
  49.3578810  49.3747920  70.6129770  48.4945650  48.3142360  69.9635290
  42.1024180  44.4090000  68.8198010  42.5399050  44.9519670  69.4755590
  42.5871910  43.5836950  68.8294350  39.3169980  47.1979030  76.2718270
  39.6472990  46.3300090  76.0396910  39.7460980  47.4037550  77.1023230
  39.8060190  48.0649620  79.0099900  39.3691180  48.2450420  79.8424050
  40.3737870  48.8224240  78.8681620  39.6384620  40.5769850  75.3688780
  38.9833460  40.3081490  74.7248480  40.4762570  40.4674330  74.9190760
  52.5875060  35.3711140  69.5907270  53.0059940  35.1842120  68.7503930
  52.2811120  34.5190190  69.9010200  40.6760550  40.9622420  79.9092120
  41.0433590  40.8749820  80.7888140  40.1071370  40.1988970  79.8098980
  40.2276550  37.8731510  83.8150540  39.3332600  37.8398270  84.1544250
  40.7674100  38.0718300  84.5801790  41.3949910  36.8434320  69.2208490
  42.1041610  36.4217540  68.7355770  40.6789850  36.9109550  68.5891840
  45.7918660  47.0314700  80.6721990  45.5510020  47.2989260  79.7852510
  46.7321300  47.2020430  80.7272850  41.1568900  31.8311710  84.1809850
  41.7051890  31.6499760  83.4175960  41.2224210  31.0405820  84.7166160
  39.8442890  49.1050130  74.3514850  39.6764930  48.4720810  75.0496740
  38.9777400  49.3109530  74.0009040  40.4670910  32.9366910  71.8546710
  41.2250270  33.0495790  71.2810740  40.0048080  33.7736110  71.8090140
  41.4505590  47.7983360  71.7964990  40.9253210  48.1791390  71.0926950
  41.3750170  48.4234130  72.5174700  42.8396060  33.4630960  70.3948680
  43.3688820  32.6760760  70.2656630  43.4724380  34.1422150  70.6284210
  47.9725850  49.8145330  86.1204680  48.8993160  49.5789600  86.1640640
  47.9576280  50.6417330  85.6390710  45.1589460  32.4790080  85.8846560
  44.8773730  32.9823680  85.1207380  45.5409160  31.6811830  85.5188690
  44.0498560  49.7465740  70.6714240  44.7817380  49.4625020  70.1238130
  44.3092230  49.5079020  71.5613620  43.2113350  45.8630470  70.6760570
  42.5822230  46.3315570  71.2246400  43.3261180  45.0179690  71.1106760
  48.7981110  41.6915150  58.7071040  48.0223210  41.2115590  58.9969610
  49.4494040  41.0120800  58.5327200  42.8146940  42.0034960  59.5846800
  41.9831820  41.7483670  59.9843310  43.4227920  42.0745730  60.3204720
  52.8188540  46.0975340  57.4870170  52.3570070  45.3262580  57.8157340
  53.6314090  46.1241410  57.9922620  42.7948200  46.0375050  59.7804820
  43.0976240  45.1472790  59.6015040  43.5391790  46.5945270  59.5527070
  40.4296770  34.9726860  61.0397820  40.2499610  34.0752610  61.3200580
  40.0276850  35.5198730  61.7144770  45.2408010  38.5154720  58.7352750
  45.7486230  39.0135690  59.3757770  45.7721250  37.7389920  58.5592110
  44.7746960  42.7948460  61.1789670  44.4416340  43.4217380  61.8210740
  44.9513640  43.3210340  60.3991340  43.2059440  34.8663240  61.0086620
  43.5476250  35.7105290  60.7140490  42.2675250  35.0146980  61.1251960
  43.9866060  44.7629260  62.9938850  44.6040060  45.4380340  62.7123300
  43.1259180  45.1717240  62.9026350  39.2798400  43.9529120  51.8745700
  38.9026380  44.4416220  51.1430600  39.5371470  44.6254400  52.5052230
  52.4402390  48.0712800  59.6238670  52.4529550  47.6675090  58.7560930
  51.8877610  48.8460090  59.5200100  53.7347810  44.7929020  54.7128840
  53.6244140  43.8503350  54.8378260  53.7316060  45.1544660  55.5991600
  51.8387830  42.9742640  60.9521280  52.2556620  42.7602750  60.1174740
  52.5627650  43.2315430  61.5229900  44.8824730  40.9459080  56.8511060
  44.4781730  40.2336330  56.3556960  44.9687850  40.6012320  57.7399100
  43.5953350  37.7202290  60.6310100  44.1467940  37.8297630  59.8563350
  44.1096860  38.0939890  61.3465330  44.4424860  44.3708330  65.6658070
  43.5453390  44.5948300  65.9131470  44.4677730  44.4943270  64.7169470
  43.2696080  41.2421650  64.2415440  43.1303850  42.1144450  64.6102840
  42.3877440  40.8994460  64.0963380  45.0676430  47.1843350  66.4500590
  45.0391860  47.5886300  65.5829020  44.9041400  46.2553710  66.2872190
  41.5829360  39.8404060  54.3517710  41.4626960  40.5666150  53.7398980
  41.2730250  39.0706970  53.8745620  40.4662360  44.7119390  56.5692530
  40.0590440  44.8533980  55.7146130  41.3575370  44.4279550  56.3663740
  50.2841240  48.8611300  63.4759580  50.7985910  48.7719310  64.2782010
  49.4410320  49.2071000  63.7687490  52.2595640  49.1466640  52.9043580
  52.0996780  48.8569580  53.8025410  52.0942350  48.3706770  52.3688810
  51.9621770  46.6554200  51.4641580  51.2686930  46.6531490  50.8043860
  52.7044630  46.2313520  51.0335750  51.5271700  48.2816910  55.5390070
  51.9828650  47.5006290  55.8528690  51.8664220  48.9923730  56.0831250
  39.2774250  44.0533370  62.6980810  39.4405290  43.5838730  61.8800180
  39.7426700  43.5456930  63.3629650  48.3362830  36.0507650  63.3376700
  47.8742200  36.2590670  64.1496640  47.9340940  35.2367000  63.0347370
  50.4317050  38.7718350  66.5672150  50.7570460  37.9382100  66.2274380
  51.2197380  39.2946870  66.7150480  43.8407240  38.3072700  55.4622630
  43.6148160  38.0909870  56.3669250  43.0599770  38.7401160  55.1168600
  46.2806450  39.2058280  66.1282900  46.1850050  38.2653010  65.9783300
  47.1238430  39.4273350  65.7330970  38.7134040  33.5400410  58.3146760
  38.4247090  34.1103270  59.0271740  39.4579800  33.0604860  58.6777990
  38.9004270  37.4820530  49.5249480  38.8178940  38.4251290  49.6664470
  38.5487330  37.3395440  48.6461830  46.7002400  36.2159560  58.5919830
  46.7038460  35.7749510  57.7424370  47.5953520  36.5376890  58.6991650
  42.5504780  36.0986050  57.5514040  42.2104830  36.5761280  58.3081090
  41.7882100  35.6451170  57.1915140  50.7250920  34.9939040  59.5990280
  50.7423660  35.4447690  60.4432130  50.4766500  34.0944680  59.8123720
  54.1521670  32.4071220  65.4376660  54.4767440  31.6760880  65.9634640
  54.1878180  32.0884860  64.5357650  40.8513230  43.4284800  64.8576620
  40.4668020  42.7878470  65.4559580  41.1625420  44.1320920  65.4271350
  39.8650860  35.0205030  56.4678710  39.5797780  34.6560700  57.3057330
  39.8029720  34.2885490  55.8541850  54.0779510  42.5196330  59.0462690
  54.7978630  43.0151620  58.6558800  53.8761330  41.8414220  58.4016560
  49.4598310  42.5905390  64.9331690  49.3935620  41.6701060  64.6789280
  48.8303450  42.6880830  65.6476330  43.3628930  43.1911350  56.8915110
  43.8807600  42.3879610  56.8372000  42.9112950  43.1290490  57.7331940
  44.0486590  40.6156960  66.6880360  43.7486730  40.7614140  65.7908180
  44.8197830  40.0562250  66.5953750  49.3915040  45.4125960  64.6835490
  49.4059580  44.4806920  64.4654400  48.6840140  45.4985720  65.3225260
  54.5252110  39.5965780  50.9534100  54.4415830  40.0280000  50.1030540
  55.2446300  40.0564130  51.3860920  55.5539360  46.4508040  53.6816230
  54.9115520  45.7963660  53.9559950  55.1670020  46.8563130  52.9056900
  39.3581520  40.1563980  50.4275410  40.2276370  40.4388780  50.7111330
  38.8671840  40.9699850  50.3124220  48.8248940  47.0543530  61.7775990
  49.4691160  47.2602910  62.4549410  49.1878380  46.2931930  61.3246840
  50.0981020  45.0575880  60.4953440  50.7403250  44.3569040  60.6085610
  50.6230370  45.8374320  60.3150330  53.9436740  45.3424500  50.2192580
  53.7174320  44.6254940  50.8117220  53.5532940  45.0936940  49.3814330
  51.8718640  45.8570780  63.6989500  52.2074880  46.4437470  64.3767420
  50.9518980  45.7263490  63.9287290  39.7252770  49.3691360  50.9937040
  40.0850410  49.9680700  50.3394310  39.5845110  49.9151250  51.7672070
  53.5252990  43.2596440  51.8806740  53.2374690  43.7209130  52.6684620
  54.3205160  42.7994210  52.1490960  47.7007220  45.9062110  66.8677560
  47.3804090  45.1871350  67.4123250  47.0265580  46.5817180  66.9413620
  41.3428030  41.9737450  52.5557470  40.7355980  42.7136350  52.5652770
  41.8177380  42.0636810  51.7295670  48.7280990  46.8150800  50.4735900
  48.8292970  46.6114790  49.5437880  47.8282730  46.5609080  50.6783680
  46.2506880  37.3731160  54.4559800  45.5423030  37.8417500  54.8973410
  46.5351360  36.7153170  55.0904990  42.0480080  39.3673670  50.9878930
  42.1283670  38.4201180  51.0996330  42.9399830  39.6980550  51.0939590
  55.3777260  47.4237850  58.4196340  55.5024680  48.2469020  58.8920150
  56.2442820  47.2128580  58.0720490  42.8494790  49.5169060  58.0913470
  43.5857270  48.9684520  58.3622040  43.2335710  50.3825070  57.9519460
  39.7340270  45.5842630  53.9654980  38.8080050  45.8263770  53.9560390
  40.1996700  46.4116890  53.8439730  55.0127270  47.9169500  51.3375780
  54.7268780  47.5034640  50.5229960  54.8146820  48.8457210  51.2176300
  39.5750880  41.1888590  66.2235100  40.0789900  40.6095870  66.7951330
  38.8358300  41.4728820  66.7611470  46.4774500  43.9102780  49.7781390
  46.3725140  43.2955130  50.5042770  46.3098720  43.3868670  48.9944400
  46.6288820  42.5959580  65.7570620  45.8634490  43.1644580  65.6725290
  46.8104780  42.3035790  64.8638850  41.6073960  39.3318180  67.1185170
  41.6479300  39.0332050  68.0270400  42.4619460  39.7325790  66.9592690
  43.5479770  37.9110280  65.0859660  43.0176230  37.4201230  64.4583000
  44.2167840  38.3394480  64.5517590  47.8979990  40.9551340  49.5265780
  48.4185650  40.2400360  49.1606930  48.5448390  41.5937210  49.8266290
  52.9180000  39.7175900  66.8540000  53.5000770  38.9628220  66.7660480
  53.0941770  40.2483340  66.0771480  46.8013510  33.4345890  62.1984340
  46.3530810  33.4570150  61.3529890  46.1678710  33.0364910  62.7954640
  47.2073060  42.3300220  62.8196780  47.6261170  43.1732950  62.6473020
  46.2881690  42.4672260  62.5903560  49.5436960  40.0616400  64.2034620
  49.6633170  39.4657540  64.9429460  50.4030960  40.0986090  63.7835920
  45.0580480  48.6353230  63.9354510  44.5201570  49.3599290  63.6163210
  45.3114440  48.1583570  63.1451850  47.9142690  49.8704440  64.1941160
  47.8401390  50.7739580  64.5013530  47.0121530  49.5516340  64.1663230
  42.1024180  44.4090000  50.0454520  42.5399050  44.9519670  50.7012100
  42.5871910  43.5836950  50.0550860  39.3169980  47.1979030  57.4974780
  39.6472990  46.3300090  57.2653420  39.7460980  47.4037550  58.3279740
  39.8060190  48.0649620  60.2356410  39.3691180  48.2450420  61.0680560
  40.3737870  48.8224240  60.0938130  56.6823820  45.3084440  49.8603430
  55.8516780  45.3761090  50.3310660  56.8595650  46.1988560  49.5570290
  56.1380280  42.0531920  52.3637630  56.8999190  42.6228570  52.4697320
  56.1534650  41.4859120  53.1345940  39.6384620  40.5769850  56.5945290
  38.9833460  40.3081490  55.9504990  40.4762570  40.4674330  56.1447270
  54.1274010  44.2918600  62.6209880  53.3133850  44.7215760  62.8835670
  54.5348210  44.9037010  62.0078930  56.1899450  42.3466290  49.5210150
  56.4648290  43.2545170  49.3929370  56.0010190  42.2828820  50.4572140
  40.2276550  37.8731510  65.0407050  39.3332600  37.8398270  65.3800760
  40.7674100  38.0718300  65.8058300  53.9152480  34.6563230  66.9258800
  54.7922660  34.6646630  67.3092800  53.9273320  33.9194070  66.3151150
  38.8522700  37.7868780  52.5370620  37.9486780  38.0498980  52.3622280
  39.3363320  38.0579950  51.7570580  54.8515720  37.7666120  53.7539230
  55.3474840  37.5336990  54.5388110  54.6531790  36.9277960  53.3376870
  40.7316260  32.1479840  59.3890270  41.3792450  31.5977220  58.9485430
  41.1518100  32.4022990  60.2106080  54.6268600  32.3421200  62.7459910
  55.2640820  32.9555340  63.1119100  54.7743490  32.3781860  61.8009140
  54.1850060  49.0437200  56.1478150  54.7809130  48.7221770  55.4712570
  54.4428210  48.5709020  56.9391420  42.0912630  45.4755110  66.2968780
  42.0482260  45.1048020  67.1783240  42.2223640  46.4132680  66.4370600
  45.7918660  47.0314700  61.8978500  45.5510020  47.2989260  61.0109020
  46.7321300  47.2020430  61.9529360  41.9300660  48.4217360  63.4166560
  41.3360980  48.2902060  64.1556600  41.9224500  47.5855500  62.9508660
  51.3755680  31.7149590  61.6196590  50.5015520  32.0484700  61.4169520
  51.2666430  31.2422770  62.4448460  52.2827660  33.9220460  63.0038310
  51.9541020  33.1072220  62.6240040  53.2309960  33.8790270  62.8804000
  41.5612890  45.7875740  62.3674600  40.8346950  45.1681030  62.3000550
  41.6222040  46.1816350  61.4972680  47.9053490  48.8929230  59.9792990
  48.1931300  48.6383530  59.1026000  48.4176710  48.3406590  60.5698560
  53.6751570  33.3342530  58.6038590  54.1159660  33.2787630  57.7560190
  53.4059160  34.2500540  58.6748770  39.8442890  49.1050130  55.5771360
  39.6764930  48.4720810  56.2753250  38.9777400  49.3109530  55.2265550
  47.0084720  35.0506180  56.0705530  46.1959230  34.6763070  55.7301410
  47.5126360  34.2951260  56.3726720  47.9725850  49.8145330  67.3461190
  48.8993160  49.5789600  67.3897150  47.9576280  50.6417330  66.8647220
  56.2070910  49.3570900  54.3435440  56.3823100  48.6708640  53.6996360
  55.5092480  49.8817950  53.9512110  50.6663070  39.9136130  38.0518280
  50.5857120  38.9990740  37.7809990  50.2527490  40.4103200  37.3457990
  48.7981110  41.6915150  39.9327550  48.0223210  41.2115590  40.2226120
  49.4494040  41.0120800  39.7583710  42.7948200  46.0375050  41.0061330
  43.0976240  45.1472790  40.8271550  43.5391790  46.5945270  40.7783580
  41.2238890  36.9636850  34.5945700  40.3355590  37.3052820  34.4925580
  41.5080080  36.7637170  33.7026530  48.2390100  44.3672340  39.9397710
  48.1698380  43.4262280  39.7786840  49.0009960  44.4573750  40.5120280
  49.2695270  37.1742720  40.1666640  49.6460090  36.3014600  40.0540310
  49.1714780  37.5101420  39.2757080  43.4000280  35.5468350  35.6284080
  43.5067030  36.4472080  35.9352840  42.4892640  35.4986320  35.3378730
  53.0519390  34.6693160  37.0994980  53.8729010  34.1789730  37.1420460
  53.0853470  35.2590820  37.8526820  45.2408010  38.5154720  39.9609260
  45.7486230  39.0135690  40.6014280  45.7721250  37.7389920  39.7848620
  57.3418940  36.6859910  43.6638610  56.6371110  37.0741620  43.1453720
  57.6076860  37.3810200  44.2659540  43.5244110  33.1553280  44.2272680
  43.5262550  33.6725670  43.4218580  42.6948420  32.6783460  44.2042610
  49.9115200  43.2672590  35.7262580  49.2932470  43.7322040  35.1625300
  50.4238450  43.9600070  36.1432090  44.7746960  42.7948460  42.4046180
  44.4416340  43.4217380  43.0467250  44.9513640  43.3210340  41.6247850
  53.2880870  36.6093540  39.8722520  52.5836440  36.8978430  40.4525630
  53.6493030  37.4193650  39.5122080  43.9866060  44.7629260  44.2195360
  44.6040060  45.4380340  43.9379810  43.1259180  45.1717240  44.1282860
  39.2798400  43.9529120  33.1002210  38.9026380  44.4416220  32.3687110
  39.5371470  44.6254400  33.7308740  54.9043650  46.2268670  42.1350000
  54.2207170  46.8967780  42.1266670  55.4437940  46.4249320  41.3694860
  56.3567790  36.0548330  40.2631730  55.4092700  36.0887310  40.3947160
  56.6817780  36.8687280  40.6481090  46.8887330  32.3545510  38.5587720
  47.1962310  31.7992400  37.8423220  45.9588030  32.4889970  38.3760710
  53.7347810  44.7929020  35.9385350  53.6244140  43.8503350  36.0634770
  53.7316060  45.1544660  36.8248110  51.8387830  42.9742640  42.1777790
  52.2556620  42.7602750  41.3431250  52.5627650  43.2315430  42.7486410
  49.2768090  40.4194340  35.2947840  48.3497370  40.3531720  35.5236310
  49.4292910  41.3574470  35.1803080  49.2637170  36.6911340  32.2915000
  48.3240840  36.8525300  32.3767460  49.5820430  37.4097020  31.7450990
  55.7849930  41.3729860  42.2694030  54.9568560  41.4422950  41.7944160
  56.3800410  41.9584170  41.8009860  53.3065380  41.9814640  35.7983090
  52.6877800  41.6434190  35.1509390  53.2889830  41.3374400  36.5062280
  44.8824730  40.9459080  38.0767570  44.4781730  40.2336330  37.5813470
  44.9687850  40.6012320  38.9655610  45.3506430  44.6326640  40.2406780
  45.0534720  44.0272110  39.5614560  46.3006250  44.6703950  40.1296140
  44.4424860  44.3708330  46.8914580  43.5453390  44.5948300  47.1387980
  44.4677730  44.4943270  45.9425980  51.4830080  41.2201450  32.8055840
  51.9223360  40.3823880  32.6593660  52.1958500  41.8530850  32.8919980
  43.2696080  41.2421650  45.4671950  43.1303850  42.1144450  45.8359350
  42.3877440  40.8994460  45.3219890  49.5925460  46.1597520  36.7737080
  50.0321370  46.9021850  36.3592470  49.5312350  46.4024090  37.6976040
  55.0647220  32.4744260  31.1196880  54.7519880  32.5671090  32.0195950
  55.8259690  33.0525290  31.0694310  41.5829360  39.8404060  35.5774220
  41.4626960  40.5666150  34.9655490  41.2730250  39.0706970  35.1002130
  40.4662360  44.7119390  37.7949040  40.0590440  44.8533980  36.9402640
  41.3575370  44.4279550  37.5920250  51.9621770  46.6554200  32.6898090
  51.2686930  46.6531490  32.0300370  52.7044630  46.2313520  32.2592260
  44.0493020  33.1839130  38.9597890  43.6061170  33.9648670  38.6282410
  44.6078010  33.5069020  39.6668830  48.3362830  36.0507650  44.5633210
  47.8742200  36.2590670  45.3753150  47.9340940  35.2367000  44.2603880
  47.1651840  32.8049830  33.8403720  46.5406020  32.8009700  34.5657030
  47.0781960  31.9380790  33.4439690  46.0868920  33.7286460  40.8187490
  46.3841250  34.6349290  40.7379510  46.6354480  33.2405240  40.2047060
  43.8407240  38.3072700  36.6879140  43.6148160  38.0909870  37.5925760
  43.0599770  38.7401160  36.3425110  51.0705000  38.3136070  35.2869790
  50.4713890  39.0371870  35.1033410  51.6184610  38.2512850  34.5046240
  49.6769870  36.9499610  37.3173070  50.0699440  37.2671810  36.5041760
  50.0386720  36.0711490  37.4317590  38.7134040  33.5400410  39.5403270
  38.4247090  34.1103270  40.2528250  39.4579800  33.0604860  39.9034500
  38.9004270  37.4820530  30.7505990  38.8178940  38.4251290  30.8920980
  38.5487330  37.3395440  29.8718340  50.2625010  39.5405360  41.4123850
  49.5306130  40.0492170  41.7613950  49.8649350  38.7235340  41.1112630
  46.7002400  36.2159560  39.8176340  46.7038460  35.7749510  38.9680880
  47.5953520  36.5376890  39.9248160  42.5504780  36.0986050  38.7770550
  42.2104830  36.5761280  39.5337600  41.7882100  35.6451170  38.4171650
  46.7622550  37.2171640  32.8083100  46.8835370  37.1758120  33.7568920
  46.3771060  38.0795790  32.6529830  50.7250920  34.9939040  40.8246790
  50.7423660  35.4447690  41.6688640  50.4766500  34.0944680  41.0380230
  45.7744050  39.5272780  32.2066400  45.2060950  39.0791030  31.5802310
  46.4833050  39.8865560  31.6731550  40.8513230  43.4284800  46.0833130
  40.4668020  42.7878470  46.6816090  41.1625420  44.1320920  46.6527860
  47.0010370  40.2761340  41.5641750  47.3680500  39.8019910  42.3103090
  46.8115430  41.1502910  41.9050090  39.8650860  35.0205030  37.6935220
  39.5797780  34.6560700  38.5313840  39.8029720  34.2885490  37.0798360
  43.3191530  43.5230970  34.4792810  42.5453790  42.9828590  34.3191530
  44.0486160  43.0037580  34.1410570  54.0779510  42.5196330  40.2719200
  54.7978630  43.0151620  39.8815310  53.8761330  41.8414220  39.6273070
  49.5389450  33.9134290  34.4148590  48.7254060  33.4147460  34.3393900
  49.3451400  34.7532540  33.9984940  49.4598310  42.5905390  46.1588200
  49.3935620  41.6701060  45.9045790  48.8303450  42.6880830  46.8732840
  43.3628930  43.1911350  38.1171620  43.8807600  42.3879610  38.0628510
  42.9112950  43.1290490  38.9588450  48.2498430  44.4577630  33.3898920
  48.5914130  45.2019860  32.8942240  47.4211140  44.7708750  33.7523750
  44.0486590  40.6156960  47.9136870  43.7486730  40.7614140  47.0164690
  44.8197830  40.0562250  47.8210260  55.6026250  42.0533300  45.2560580
  54.8774440  42.6462080  45.0589970  56.1301710  42.0456840  44.4573950
  47.2189120  44.5391160  36.1614840  47.9060250  45.0860370  36.5422430
  46.4321540  45.0831890  36.1964450  39.3581520  40.1563980  31.6531920
  40.2276370  40.4388780  31.9367840  38.8671840  40.9699850  31.5380730
  46.5216330  41.5437190  35.7740200  46.9779110  42.3542440  36.0000390
  46.1704540  41.2260330  36.6058690  42.4228110  31.8874840  36.2462720
  42.2942740  31.8792740  37.1947640  41.5990130  32.2257930  35.8953730
  50.0981020  45.0575880  41.7209950  50.7403250  44.3569040  41.8342120
  50.6230370  45.8374320  41.5406840  53.9436740  45.3424500  31.4449090
  53.7174320  44.6254940  32.0373730  53.5532940  45.0936940  30.6070840
  39.7252770  49.3691360  32.2193550  40.0850410  49.9680700  31.5650820
  39.5845110  49.9151250  32.9928580  39.4222040  33.6465960  45.7069420
  38.7080560  33.8462880  46.3122030  39.8417080  32.8705530  46.0784220
  53.5252990  43.2596440  33.1063250  53.2374690  43.7209130  33.8941130
  54.3205160  42.7994210  33.3747470  39.7094630  47.6346220  46.6935950
  39.8185750  46.6940960  46.5531340  39.0575190  47.9000970  46.0449680
  47.7007220  45.9062110  48.0934070  47.3804090  45.1871350  48.6379760
  47.0265580  46.5817180  48.1670130  45.7421390  46.7522560  33.0367220
  45.7331490  47.4852250  32.4211730  44.8219750  46.5054140  33.1294180
  41.3428030  41.9737450  33.7813980  40.7355980  42.7136350  33.7909280
  41.8177380  42.0636810  32.9552180  54.2822850  35.0945210  34.2658430
  53.6536010  35.1990880  33.5516660  53.7874770  35.3141990  35.0552310
  46.2506880  37.3731160  35.6816310  45.5423030  37.8417500  36.1229920
  46.5351360  36.7153170  36.3161500  47.8762810  38.7927860  43.6808840
  48.3748060  39.2673680  44.3460690  48.0185760  37.8691380  43.8878870
  50.2822310  34.0981820  37.1212100  50.1590090  34.1167950  36.1721610
  51.2306870  34.1460760  37.2410500  47.3699100  49.3337120  36.3940080
  47.6240600  49.2958510  35.4719450  46.4211580  49.2070450  36.3868330
  44.4541900  35.6816240  33.0567020  45.3032430  36.1186390  32.9907210
  44.0873170  35.9936500  33.8839080  53.3751680  40.2529000  37.9698590
  52.4341820  40.2679230  38.1446280  53.6895750  39.4664960  38.4158890
  43.3533320  41.9348600  31.5302550  44.1196590  41.8229960  32.0927980
  43.4308010  41.2386570  30.8779320  42.0480080  39.3673670  32.2135440
  42.1283670  38.4201180  32.3252840  42.9399830  39.6980550  32.3196100
  55.3777260  47.4237850  39.6452850  55.5024680  48.2469020  40.1176660
  56.2442820  47.2128580  39.2977000  42.8494790  49.5169060  39.3169980
  43.5857270  48.9684520  39.5878550  43.2335710  50.3825070  39.1775970
  39.7340270  45.5842630  35.1911490  38.8080050  45.8263770  35.1816900
  40.1996700  46.4116890  35.0696240  39.5750880  41.1888590  47.4491610
  40.0789900  40.6095870  48.0207840  38.8358300  41.4728820  47.9867980
  46.4774500  43.9102780  31.0037900  46.3725140  43.2955130  31.7299280
  46.3098720  43.3868670  30.2200910  46.6288820  42.5959580  46.9827130
  45.8634490  43.1644580  46.8981800  46.8104780  42.3035790  46.0895360
  49.7177230  42.9722810  31.6079890  49.1687330  43.4192110  32.2522630
  50.3396490  42.4672060  32.1317560  41.6073960  39.3318180  48.3441680
  41.6479300  39.0332050  49.2526910  42.4619460  39.7325790  48.1849200
  45.3852350  41.9313730  33.5045190  45.8068770  41.7653600  34.3476580
  45.5103190  41.1213960  33.0100330  47.8979990  40.9551340  30.7522290
  48.4185650  40.2400360  30.3863440  48.5448390  41.5937210  31.0522800
  52.4457830  42.3779740  46.0757360  52.8598850  42.5324820  46.9247780
  51.5108830  42.5034960  46.2383140  44.0352070  34.8772650  46.3913460
  43.9408940  34.2593400  45.6664330  43.4549460  35.6038940  46.1643370
  46.8013510  33.4345890  43.4240850  46.3530810  33.4570150  42.5786400
  46.1678710  33.0364910  44.0211150  47.2073060  42.3300220  44.0453290
  47.6261170  43.1732950  43.8729530  46.2881690  42.4672260  43.8160070
  51.8824860  40.6153590  44.0053640  51.3560080  41.1396210  43.4018780
  52.2256200  41.2480980  44.6363370  44.2811250  38.0046960  30.4503350
  44.0800310  37.1414320  30.8116690  44.1103300  37.9180320  29.5124950
  51.7599560  32.8155190  32.9790230  52.0401850  31.9723090  33.3349650
  50.9865290  33.0478300  33.4928980  43.0794050  35.1047580  30.4381230
  43.3819950  35.1115010  29.5300380  43.8188640  34.7545440  30.9348890
  46.2978980  34.0482200  31.4237430  45.9500980  33.3706190  30.8439880
  46.4991750  33.5871710  32.2380820  42.1024180  44.4090000  31.2711030
  42.5399050  44.9519670  31.9268610  42.5871910  43.5836950  31.2807370
  39.3169980  47.1979030  38.7231290  39.6472990  46.3300090  38.4909930
  39.7460980  47.4037550  39.5536250  43.9131900  45.5288040  36.3833260
  43.6127440  45.4053010  37.2837170  43.8069390  44.6696630  35.9748990
  39.8060190  48.0649620  41.4612920  39.3691180  48.2450420  42.2937070
  40.3737870  48.8224240  41.3194640  39.6384620  40.5769850  37.8201800
  38.9833460  40.3081490  37.1761500  40.4762570  40.4674330  37.3703780
  57.1440250  42.9082020  38.4336070  57.5149080  42.1249340  38.0272040
  57.7842180  43.5971120  38.2553370  52.5875060  35.3711140  32.0420290
  53.0059940  35.1842120  31.2016950  52.2811120  34.5190190  32.3523220
  56.0864790  40.2835280  35.7396090  55.7108390  39.5163210  35.3077380
  55.3567910  40.6657980  36.2271020  38.8522700  37.7868780  33.7627130
  37.9486780  38.0498980  33.5878790  39.3363320  38.0579950  32.9827090
  55.3615750  38.5092770  39.0403330  55.8853230  38.0155420  38.4093500
  55.9475170  38.6443130  39.7850900  55.5405470  38.5932640  42.5622880
  54.5908180  38.5596180  42.6767870  55.7218480  39.5032750  42.3272650
  41.3949910  36.8434320  31.6721510  42.1041610  36.4217540  31.1868790
  40.6789850  36.9109550  31.0404860  41.0424070  32.8973650  30.7124160
  41.7652200  33.4382590  31.0305380  41.3148590  32.6237070  29.8365700
  54.8515720  37.7666120  34.9795740  55.3474840  37.5336990  35.7644620
  54.6531790  36.9277960  34.5633380  40.7316260  32.1479840  40.6146780
  41.3792450  31.5977220  40.1741940  41.1518100  32.4022990  41.4362590
  56.2802880  36.4027070  37.5133420  56.1702160  36.2483110  38.4515690
  57.0410470  35.8748010  37.2708830  54.6268600  32.3421200  43.9716420
  55.2640820  32.9555340  44.3375610  54.7743490  32.3781860  43.0265650
  57.1693150  34.2334990  30.7539560  58.0942460  34.1016170  30.5457850
  57.1468940  34.3127810  31.7076010  57.2431640  35.0045650  33.3796270
  56.4483140  34.9390770  33.9089180  57.4474920  35.9396290  33.3681620
  40.4848260  32.3035510  43.3572100  40.1363080  32.7599330  44.1230280
  40.1535960  31.4092640  43.4394530  42.0912630  45.4755110  47.5225290
  42.0482260  45.1048020  48.4039750  42.2223640  46.4132680  47.6627110
  45.7918660  47.0314700  43.1235010  45.5510020  47.2989260  42.2365530
  46.7321300  47.2020430  43.1785870  41.1568900  31.8311710  46.6322870
  41.7051890  31.6499760  45.8688980  41.2224210  31.0405820  47.1679180
  41.9300660  48.4217360  44.6423070  41.3360980  48.2902060  45.3813110
  41.9224500  47.5855500  44.1765170  51.3755680  31.7149590  42.8453100
  50.5015520  32.0484700  42.6426030  51.2666430  31.2422770  43.6704970
  54.7362270  49.6932500  41.2032390  54.2765240  50.4448310  40.8290410
  54.1074730  48.9738970  41.1447190  41.5612890  45.7875740  43.5931110
  40.8346950  45.1681030  43.5257060  41.6222040  46.1816350  42.7229190
  45.1657990  48.0020740  40.3780520  45.6823010  47.3908100  39.8528780
  45.8155370  48.5049520  40.8691530  47.9053490  48.8929230  41.2049500
  48.1931300  48.6383530  40.3282510  48.4176710  48.3406590  41.7955070
  49.1230500  32.6319430  41.7846010  48.3402290  33.1064930  42.0642770
  48.8293430  31.7274260  41.6759190  53.6751570  33.3342530  39.8295100
  54.1159660  33.2787630  38.9816700  53.4059160  34.2500540  39.9005280
  55.5390140  32.9657770  37.8403920  55.4778540  32.0218990  37.6934940
  56.3182170  33.0737860  38.3857380  39.8442890  49.1050130  36.8027870
  39.6764930  48.4720810  37.5009760  38.9777400  49.3109530  36.4522060
  40.4670910  32.9366910  34.3059730  41.2250270  33.0495790  33.7323760
  40.0048080  33.7736110  34.2603160  47.0084720  35.0506180  37.2962040
  46.1959230  34.6763070  36.9557920  47.5126360  34.2951260  37.5983230
  51.5109700  31.7148630  38.5345110  52.1139070  32.2868840  39.0093630
  50.7702690  32.2788070  38.3119010  54.6544300  32.1170190  33.8085390
  54.8494930  33.0153640  34.0752820  53.8674170  31.8857270  34.3018340
  41.4505590  47.7983360  34.2478010  40.9253210  48.1791390  33.5439970
  41.3750170  48.4234130  34.9687720  42.8396060  33.4630960  32.8461700
  43.3688820  32.6760760  32.7169650  43.4724380  34.1422150  33.0797230
  45.0333900  33.2006100  35.9007090  44.4036640  32.4993410  36.0677220
  44.4939040  33.9610230  35.6840250  47.9725850  49.8145330  48.5717700
  48.8993160  49.5789600  48.6153660  47.9576280  50.6417330  48.0903730
  43.2113350  45.8630470  33.1273590  42.5822230  46.3315570  33.6759420
  43.3261180  45.0179690  33.5619780  50.6663070  39.9136130  19.2774790
  50.5857120  38.9990740  19.0066500  50.2527490  40.4103200  18.5714500
  48.7981110  41.6915150  21.1584060  48.0223210  41.2115590  21.4482630
  49.4494040  41.0120800  20.9840220  42.8146940  42.0034960  22.0359820
  41.9831820  41.7483670  22.4356330  43.4227920  42.0745730  22.7717740
  52.8188540  46.0975340  19.9383190  52.3570070  45.3262580  20.2670360
  53.6314090  46.1241410  20.4435640  42.7948200  46.0375050  22.2317840
  43.0976240  45.1472790  22.0528060  43.5391790  46.5945270  22.0040090
  41.2238890  36.9636850  15.8202210  40.3355590  37.3052820  15.7182090
  41.5080080  36.7637170  14.9283040  39.1871900  39.5642500  21.7041910
  39.7588010  38.7964700  21.7045550  39.1873440  39.8631260  20.7948520
  49.0451850  48.3833350  19.5587180  48.4263290  48.8390850  18.9881620
  49.9003630  48.5384810  19.1576880  48.2390100  44.3672340  21.1654220
  48.1698380  43.4262280  21.0043350  49.0009960  44.4573750  21.7376790
  40.4296770  34.9726860  23.4910840  40.2499610  34.0752610  23.7713600
  40.0276850  35.5198730  24.1657790  49.2695270  37.1742720  21.3923150
  49.6460090  36.3014600  21.2796820  49.1714780  37.5101420  20.5013590
  43.4000280  35.5468350  16.8540590  43.5067030  36.4472080  17.1609350
  42.4892640  35.4986320  16.5635240  53.0519390  34.6693160  18.3251490
  53.8729010  34.1789730  18.3676970  53.0853470  35.2590820  19.0783330
  41.0483440  37.4687360  22.0993180  41.7293550  37.7325730  22.7180580
  40.7331490  36.6288230  22.4331190  45.2408010  38.5154720  21.1865770
  45.7486230  39.0135690  21.8270790  45.7721250  37.7389920  21.0105130
  57.3418940  36.6859910  24.8895120  56.6371110  37.0741620  24.3710230
  57.6076860  37.3810200  25.4916050  43.5244110  33.1553280  25.4529190
  43.5262550  33.6725670  24.6475090  42.6948420  32.6783460  25.4299120
  49.9115200  43.2672590  16.9519090  49.2932470  43.7322040  16.3881810
  50.4238450  43.9600070  17.3688600  44.7746960  42.7948460  23.6302690
  44.4416340  43.4217380  24.2723760  44.9513640  43.3210340  22.8504360
  53.2880870  36.6093540  21.0979030  52.5836440  36.8978430  21.6782140
  53.6493030  37.4193650  20.7378590  43.2059440  34.8663240  23.4599640
  43.5476250  35.7105290  23.1653510  42.2675250  35.0146980  23.5764980
  43.9866060  44.7629260  25.4451870  44.6040060  45.4380340  25.1636320
  43.1259180  45.1717240  25.3539370  39.2798400  43.9529120  14.3258720
  38.9026380  44.4416220  13.5943620  39.5371470  44.6254400  14.9565250
  54.9043650  46.2268670  23.3606510  54.2207170  46.8967780  23.3523180
  55.4437940  46.4249320  22.5951370  56.3567790  36.0548330  21.4888240
  55.4092700  36.0887310  21.6203670  56.6817780  36.8687280  21.8737600
  46.8887330  32.3545510  19.7844230  47.1962310  31.7992400  19.0679730
  45.9588030  32.4889970  19.6017220  52.4402390  48.0712800  22.0751690
  52.4529550  47.6675090  21.2073950  51.8877610  48.8460090  21.9713120
  53.7347810  44.7929020  17.1641860  53.6244140  43.8503350  17.2891280
  53.7316060  45.1544660  18.0504620  51.8387830  42.9742640  23.4034300
  52.2556620  42.7602750  22.5687760  52.5627650  43.2315430  23.9742920
  49.2768090  40.4194340  16.5204350  48.3497370  40.3531720  16.7492820
  49.4292910  41.3574470  16.4059590  49.2637170  36.6911340  13.5171510
  48.3240840  36.8525300  13.6023970  49.5820430  37.4097020  12.9707500
  55.7849930  41.3729860  23.4950540  54.9568560  41.4422950  23.0200670
  56.3800410  41.9584170  23.0266370  53.3065380  41.9814640  17.0239600
  52.6877800  41.6434190  16.3765900  53.2889830  41.3374400  17.7318790
  52.7491940  38.1599180  24.4405410  52.3363120  38.9852890  24.6945400
  52.0167890  37.5744220  24.2481770  44.8824730  40.9459080  19.3024080
  44.4781730  40.2336330  18.8069980  44.9687850  40.6012320  20.1912120
  45.3506430  44.6326640  21.4663290  45.0534720  44.0272110  20.7871070
  46.3006250  44.6703950  21.3552650  43.5953350  37.7202290  23.0823120
  44.1467940  37.8297630  22.3076370  44.1096860  38.0939890  23.7978350
  53.4392040  48.2058510  25.1286390  52.9622600  49.0130700  24.9359000
  52.7553830  47.5536840  25.2812600  44.4424860  44.3708330  28.1171090
  43.5453390  44.5948300  28.3644490  44.4677730  44.4943270  27.1682490
  51.4830080  41.2201450  14.0312350  51.9223360  40.3823880  13.8850170
  52.1958500  41.8530850  14.1176490  43.2696080  41.2421650  26.6928460
  43.1303850  42.1144450  27.0615860  42.3877440  40.8994460  26.5476400
  49.5925460  46.1597520  17.9993590  50.0321370  46.9021850  17.5848980
  49.5312350  46.4024090  18.9232550  45.0676430  47.1843350  28.9013610
  45.0391860  47.5886300  28.0342040  44.9041400  46.2553710  28.7385210
  55.0647220  32.4744260  12.3453390  54.7519880  32.5671090  13.2452460
  55.8259690  33.0525290  12.2950820  41.5829360  39.8404060  16.8030730
  41.4626960  40.5666150  16.1912000  41.2730250  39.0706970  16.3258640
  57.0191250  47.9670450  30.1977780  57.4950970  48.4453340  30.8766860
  57.6398410  47.8987940  29.4723280  39.2214730  43.0119200  22.6099370
  39.2995150  43.1467970  21.6655090  39.8356410  42.3035090  22.8027490
  40.4662360  44.7119390  19.0205550  40.0590440  44.8533980  18.1659150
  41.3575370  44.4279550  18.8176760  50.2841240  48.8611300  25.9272600
  50.7985910  48.7719310  26.7295030  49.4410320  49.2071000  26.2200510
  52.2595640  49.1466640  15.3556600  52.0996780  48.8569580  16.2538430
  52.0942350  48.3706770  14.8201830  44.7384020  48.9265170  17.1328220
  44.5626500  48.0100710  16.9196020  43.8839760  49.2852460  17.3726020
  51.9621770  46.6554200  13.9154600  51.2686930  46.6531490  13.2556880
  52.7044630  46.2313520  13.4848770  51.5271700  48.2816910  17.9903090
  51.9828650  47.5006290  18.3041710  51.8664220  48.9923730  18.5344270
  56.2748510  37.2115760  28.3227530  55.6592780  37.7195430  27.7942990
  55.9544930  36.3114090  28.2653470  39.2774250  44.0533370  25.1493830
  39.4405290  43.5838730  24.3313200  39.7426700  43.5456930  25.8142670
  44.0493020  33.1839130  20.1854400  43.6061170  33.9648670  19.8538920
  44.6078010  33.5069020  20.8925340  48.3362830  36.0507650  25.7889720
  47.8742200  36.2590670  26.6009660  47.9340940  35.2367000  25.4860390
  53.3367340  37.2716600  26.9186380  52.4860930  36.9722350  27.2395450
  53.1769130  37.5158610  26.0070200  50.4317050  38.7718350  29.0185170
  50.7570460  37.9382100  28.6787400  51.2197380  39.2946870  29.1663500
  47.1651840  32.8049830  15.0660230  46.5406020  32.8009700  15.7913540
  47.0781960  31.9380790  14.6696200  46.0868920  33.7286460  22.0444000
  46.3841250  34.6349290  21.9636020  46.6354480  33.2405240  21.4303570
  43.8407240  38.3072700  17.9135650  43.6148160  38.0909870  18.8182270
  43.0599770  38.7401160  17.5681620  51.0705000  38.3136070  16.5126300
  50.4713890  39.0371870  16.3289920  51.6184610  38.2512850  15.7302750
  46.2806450  39.2058280  28.5795920  46.1850050  38.2653010  28.4296320
  47.1238430  39.4273350  28.1843990  49.6769870  36.9499610  18.5429580
  50.0699440  37.2671810  17.7298270  50.0386720  36.0711490  18.6574100
  41.4116990  35.6171950  26.7329700  41.0180380  36.4647160  26.9402480
  40.7235390  34.9798320  26.9238340  47.9862040  35.7006920  29.8026440
  47.2960360  35.5079120  30.4372530  48.7294340  35.9841560  30.3350740
  38.7134040  33.5400410  20.7659780  38.4247090  34.1103270  21.4784760
  39.4579800  33.0604860  21.1291010  38.9004270  37.4820530  11.9762500
  38.8178940  38.4251290  12.1177490  38.5487330  37.3395440  11.0974850
  50.2625010  39.5405360  22.6380360  49.5306130  40.0492170  22.9870460
  49.8649350  38.7235340  22.3369140  46.7002400  36.2159560  21.0432850
  46.7038460  35.7749510  20.1937390  47.5953520  36.5376890  21.1504670
  42.5504780  36.0986050  20.0027060  42.2104830  36.5761280  20.7594110
  41.7882100  35.6451170  19.6428160  46.7622550  37.2171640  14.0339610
  46.8835370  37.1758120  14.9825430  46.3771060  38.0795790  13.8786340
  50.7250920  34.9939040  22.0503300  50.7423660  35.4447690  22.8945150
  50.4766500  34.0944680  22.2636740  45.7744050  39.5272780  13.4322910
  45.2060950  39.0791030  12.8058820  46.4833050  39.8865560  12.8988060
  54.1521670  32.4071220  27.8889680  54.4767440  31.6760880  28.4147660
  54.1878180  32.0884860  26.9870670  40.8513230  43.4284800  27.3089640
  40.4668020  42.7878470  27.9072600  41.1625420  44.1320920  27.8784370
  47.0010370  40.2761340  22.7898260  47.3680500  39.8019910  23.5359600
  46.8115430  41.1502910  23.1306600  39.8650860  35.0205030  18.9191730
  39.5797780  34.6560700  19.7570350  39.8029720  34.2885490  18.3054870
  44.7909740  39.3169980  25.1082470  44.4866810  40.1961960  25.3332830
  45.7456200  39.3769770  25.1439910  43.3191530  43.5230970  15.7049320
  42.5453790  42.9828590  15.5448040  44.0486160  43.0037580  15.3667080
  54.0779510  42.5196330  21.4975710  54.7978630  43.0151620  21.1071820
  53.8761330  41.8414220  20.8529580  49.5389450  33.9134290  15.6405100
  48.7254060  33.4147460  15.5650410  49.3451400  34.7532540  15.2241450
  49.4598310  42.5905390  27.3844710  49.3935620  41.6701060  27.1302300
  48.8303450  42.6880830  28.0989350  52.2537840  38.2853940  13.9367260
  53.1417460  38.5971170  13.7618600  52.2242930  37.4126190  13.5447840
  43.3628930  43.1911350  19.3428130  43.8807600  42.3879610  19.2885020
  42.9112950  43.1290490  20.1844960  48.2498430  44.4577630  14.6155430
  48.5914130  45.2019860  14.1198750  47.4211140  44.7708750  14.9780260
  40.8473470  40.1572720  26.2553830  40.4888410  40.8226570  26.8427170
  40.5528030  39.3256270  26.6266450  44.0486590  40.6156960  29.1393380
  43.7486730  40.7614140  28.2421200  44.8197830  40.0562250  29.0466770
  49.3915040  45.4125960  27.1348510  49.4059580  44.4806920  26.9167420
  48.6840140  45.4985720  27.7738280  54.5252110  39.5965780  13.4047120
  54.4415830  40.0280000  12.5543560  55.2446300  40.0564130  13.8373940
  55.5539360  46.4508040  16.1329250  54.9115520  45.7963660  16.4072970
  55.1670020  46.8563130  15.3569920  51.1325840  43.7793470  19.9800940
  51.4849660  43.1821600  19.3202310  50.2488170  43.4537700  20.1509190
  47.2189120  44.5391160  17.3871350  47.9060250  45.0860370  17.7678940
  46.4321540  45.0831890  17.4220960  39.3581520  40.1563980  12.8788430
  40.2276370  40.4388780  13.1624350  38.8671840  40.9699850  12.7637240
  46.5216330  41.5437190  16.9996710  46.9779110  42.3542440  17.2256900
  46.1704540  41.2260330  17.8315200  48.8248940  47.0543530  24.2289010
  49.4691160  47.2602910  24.9062430  49.1878380  46.2931930  23.7759860
  42.4228110  31.8874840  17.4719230  42.2942740  31.8792740  18.4204150
  41.5990130  32.2257930  17.1210240  50.0981020  45.0575880  22.9466460
  50.7403250  44.3569040  23.0598630  50.6230370  45.8374320  22.7663350
  53.9436740  45.3424500  12.6705600  53.7174320  44.6254940  13.2630240
  53.5532940  45.0936940  11.8327350  51.8718640  45.8570780  26.1502520
  52.2074880  46.4437470  26.8280440  50.9518980  45.7263490  26.3800310
  39.7252770  49.3691360  13.4450060  40.0850410  49.9680700  12.7907330
  39.5845110  49.9151250  14.2185090  39.4222040  33.6465960  26.9325930
  38.7080560  33.8462880  27.5378540  39.8417080  32.8705530  27.3040730
  53.5252990  43.2596440  14.3319760  53.2374690  43.7209130  15.1197640
  54.3205160  42.7994210  14.6003980  39.7094630  47.6346220  27.9192460
  39.8185750  46.6940960  27.7787850  39.0575190  47.9000970  27.2706190
  47.7007220  45.9062110  29.3190580  47.3804090  45.1871350  29.8636270
  47.0265580  46.5817180  29.3926640  45.7421390  46.7522560  14.2623730
  45.7331490  47.4852250  13.6468240  44.8219750  46.5054140  14.3550690
  41.3428030  41.9737450  15.0070490  40.7355980  42.7136350  15.0165790
  41.8177380  42.0636810  14.1808690  50.9160820  36.1388270  24.6827380
  51.2841640  35.3183480  25.0106950  50.0559020  36.1990160  25.0983030
  54.2822850  35.0945210  15.4914940  53.6536010  35.1990880  14.7773170
  53.7874770  35.3141990  16.2808820  48.7280990  46.8150800  12.9248920
  48.8292970  46.6114790  11.9950900  47.8282730  46.5609080  13.1296700
  46.2506880  37.3731160  16.9072820  45.5423030  37.8417500  17.3486430
  46.5351360  36.7153170  17.5418010  47.8762810  38.7927860  24.9065350
  48.3748060  39.2673680  25.5717200  48.0185760  37.8691380  25.1135380
  50.2822310  34.0981820  18.3468610  50.1590090  34.1167950  17.3978120
  51.2306870  34.1460760  18.4667010  47.3699100  49.3337120  17.6196590
  47.6240600  49.2958510  16.6975960  46.4211580  49.2070450  17.6124840
  44.4541900  35.6816240  14.2823530  45.3032430  36.1186390  14.2163720
  44.0873170  35.9936500  15.1095590  55.0829670  35.0095820  25.7493740
  54.5803270  35.7501220  26.0887550  55.8986330  35.3979820  25.4330530
  53.3751680  40.2529000  19.1955100  52.4341820  40.2679230  19.3702790
  53.6895750  39.4664960  19.6415400  43.3533320  41.9348600  12.7559060
  44.1196590  41.8229960  13.3184490  43.4308010  41.2386570  12.1035830
  42.0480080  39.3673670  13.4391950  42.1283670  38.4201180  13.5509350
  42.9399830  39.6980550  13.5452610  55.3777260  47.4237850  20.8709360
  55.5024680  48.2469020  21.3433170  56.2442820  47.2128580  20.5233510
  42.8494790  49.5169060  20.5426490  43.5857270  48.9684520  20.8135060
  43.2335710  50.3825070  20.4032480  39.7340270  45.5842630  16.4168000
  38.8080050  45.8263770  16.4073410  40.1996700  46.4116890  16.2952750
  45.9597100  48.6899370  12.3652060  46.7525710  48.9788200  11.9133850
  45.4401450  48.2591540  11.6864540  50.6917700  44.8095000  29.6787480
  50.0855860  44.8326600  28.9383230  50.3871810  44.0778040  30.2154730
  52.1218070  48.5375290  28.2896890  53.0739820  48.4533310  28.2397130
  51.9746290  49.2017000  28.9630680  55.0127270  47.9169500  13.7888800
  54.7268780  47.5034640  12.9742980  54.8146820  48.8457210  13.6689320
  39.5750880  41.1888590  28.6748120  40.0789900  40.6095870  29.2464350
  38.8358300  41.4728820  29.2124490  46.4774500  43.9102780  12.2294410
  46.3725140  43.2955130  12.9555790  46.3098720  43.3868670  11.4457420
  46.6288820  42.5959580  28.2083640  45.8634490  43.1644580  28.1238310
  46.8104780  42.3035790  27.3151870  49.7177230  42.9722810  12.8336400
  49.1687330  43.4192110  13.4779140  50.3396490  42.4672060  13.3574070
  53.7712170  44.3264910  28.7658660  54.5121640  44.6640670  28.2626120
  53.0084850  44.4956970  28.2128430  41.6073960  39.3318180  29.5698190
  41.6479300  39.0332050  30.4783420  42.4619460  39.7325790  29.4105710
  45.3852350  41.9313730  14.7301700  45.8068770  41.7653600  15.5733090
  45.5103190  41.1213960  14.2356840  43.5479770  37.9110280  27.5372680
  43.0176230  37.4201230  26.9096020  44.2167840  38.3394480  27.0030610
  47.8979990  40.9551340  11.9778800  48.4185650  40.2400360  11.6119950
  48.5448390  41.5937210  12.2779310  52.4457830  42.3779740  27.3013870
  52.8598850  42.5324820  28.1504290  51.5108830  42.5034960  27.4639650
  44.0352070  34.8772650  27.6169970  43.9408940  34.2593400  26.8920840
  43.4549460  35.6038940  27.3899880  46.8013510  33.4345890  24.6497360
  46.3530810  33.4570150  23.8042910  46.1678710  33.0364910  25.2467660
  47.2073060  42.3300220  25.2709800  47.6261170  43.1732950  25.0986040
  46.2881690  42.4672260  25.0416580  49.5436960  40.0616400  26.6547640
  49.6633170  39.4657540  27.3942480  50.4030960  40.0986090  26.2348940
  51.8824860  40.6153590  25.2310150  51.3560080  41.1396210  24.6275290
  52.2256200  41.2480980  25.8619880  44.2811250  38.0046960  11.6759860
  44.0800310  37.1414320  12.0373200  44.1103300  37.9180320  10.7381460
  45.0580480  48.6353230  26.3867530  44.5201570  49.3599290  26.0676230
  45.3114440  48.1583570  25.5964870  46.3105730  36.6037750  27.9123460
  46.9005420  36.2953600  28.6001280  45.4925970  36.1317500  28.0683360
  51.1299160  36.2203560  28.1456480  50.4414680  35.5585100  28.0806470
  51.8505180  35.7741830  28.5904940  51.7599560  32.8155190  14.2046740
  52.0401850  31.9723090  14.5606160  50.9865290  33.0478300  14.7185490
  43.0794050  35.1047580  11.6637740  43.3819950  35.1115010  10.7556890
  43.8188640  34.7545440  12.1605400  47.9142690  49.8704440  26.6454180
  47.8401390  50.7739580  26.9526550  47.0121530  49.5516340  26.6176250
  46.2978980  34.0482200  12.6493940  45.9500980  33.3706190  12.0696390
  46.4991750  33.5871710  13.4637330  48.4628020  49.0362950  14.2680540
  49.3578810  49.3747920  14.2899300  48.4945650  48.3142360  13.6404820
  42.1024180  44.4090000  12.4967540  42.5399050  44.9519670  13.1525120
  42.5871910  43.5836950  12.5063880  39.3169980  47.1979030  19.9487800
  39.6472990  46.3300090  19.7166440  39.7460980  47.4037550  20.7792760
  43.9131900  45.5288040  17.6089770  43.6127440  45.4053010  18.5093680
  43.8069390  44.6696630  17.2005500  39.8060190  48.0649620  22.6869430
  39.3691180  48.2450420  23.5193580  40.3737870  48.8224240  22.5451150
  55.4422370  47.5666620  26.9746740  54.8424360  47.6259180  26.2310660
  55.5716270  46.6271600  27.1043590  56.6823820  45.3084440  12.3116450
  55.8516780  45.3761090  12.7823680  56.8595650  46.1988560  12.0083310
  56.1380280  42.0531920  14.8150650  56.8999190  42.6228570  14.9210340
  56.1534650  41.4859120  15.5858960  39.6384620  40.5769850  19.0458310
  38.9833460  40.3081490  18.4018010  40.4762570  40.4674330  18.5960290
  57.1440250  42.9082020  19.6592580  57.5149080  42.1249340  19.2528550
  57.7842180  43.5971120  19.4809880  54.1274010  44.2918600  25.0722900
  53.3133850  44.7215760  25.3348690  54.5348210  44.9037010  24.4591950
  56.1899450  42.3466290  11.9723170  56.4648290  43.2545170  11.8442390
  56.0010190  42.2828820  12.9085160  52.5875060  35.3711140  13.2676800
  53.0059940  35.1842120  12.4273460  52.2811120  34.5190190  13.5779730
  56.0864790  40.2835280  16.9652600  55.7108390  39.5163210  16.5333890
  55.3567910  40.6657980  17.4527530  40.6760550  40.9622420  23.5861650
  41.0433590  40.8749820  24.4657670  40.1071370  40.1988970  23.4868510
  40.2276550  37.8731510  27.4920070  39.3332600  37.8398270  27.8313780
  40.7674100  38.0718300  28.2571320  53.9152480  34.6563230  29.3771820
  54.7922660  34.6646630  29.7605820  53.9273320  33.9194070  28.7664170
  38.8522700  37.7868780  14.9883640  37.9486780  38.0498980  14.8135300
  39.3363320  38.0579950  14.2083600  55.3615750  38.5092770  20.2659840
  55.8853230  38.0155420  19.6350010  55.9475170  38.6443130  21.0107410
  55.5405470  38.5932640  23.7879390  54.5908180  38.5596180  23.9024380
  55.7218480  39.5032750  23.5529160  41.3949910  36.8434320  12.8978020
  42.1041610  36.4217540  12.4125300  40.6789850  36.9109550  12.2661370
  41.0424070  32.8973650  11.9380670  41.7652200  33.4382590  12.2561890
  41.3148590  32.6237070  11.0622210  54.8515720  37.7666120  16.2052250
  55.3474840  37.5336990  16.9901130  54.6531790  36.9277960  15.7889890
  40.7316260  32.1479840  21.8403290  41.3792450  31.5977220  21.3998450
  41.1518100  32.4022990  22.6619100  56.2802880  36.4027070  18.7389930
  56.1702160  36.2483110  19.6772200  57.0410470  35.8748010  18.4965340
  54.6268600  32.3421200  25.1972930  55.2640820  32.9555340  25.5632120
  54.7743490  32.3781860  24.2522160  57.1693150  34.2334990  11.9796070
  58.0942460  34.1016170  11.7714360  57.1468940  34.3127810  12.9332520
  57.2431640  35.0045650  14.6052780  56.4483140  34.9390770  15.1345690
  57.4474920  35.9396290  14.5938130  54.1850060  49.0437200  18.5991170
  54.7809130  48.7221770  17.9225590  54.4428210  48.5709020  19.3904440
  40.4848260  32.3035510  24.5828610  40.1363080  32.7599330  25.3486790
  40.1535960  31.4092640  24.6651040  42.0912630  45.4755110  28.7481800
  42.0482260  45.1048020  29.6296260  42.2223640  46.4132680  28.8883620
  45.7918660  47.0314700  24.3491520  45.5510020  47.2989260  23.4622040
  46.7321300  47.2020430  24.4042380  47.9973080  33.4947390  28.1048030
  47.9361970  34.0869220  28.8543440  48.9373460  33.3873350  27.9598290
  50.6347640  33.1517450  27.7440320  51.2488050  33.4696740  27.0821400
  51.1797200  32.6666040  28.3636180  41.1568900  31.8311710  27.8579380
  41.7051890  31.6499760  27.0945490  41.2224210  31.0405820  28.3935690
  41.9300660  48.4217360  25.8679580  41.3360980  48.2902060  26.6069620
  41.9224500  47.5855500  25.4021680  51.3755680  31.7149590  24.0709610
  50.5015520  32.0484700  23.8682540  51.2666430  31.2422770  24.8961480
  52.2827660  33.9220460  25.4551330  51.9541020  33.1072220  25.0753060
  53.2309960  33.8790270  25.3317020  41.5612890  45.7875740  24.8187620
  40.8346950  45.1681030  24.7513570  41.6222040  46.1816350  23.9485700
  45.1657990  48.0020740  21.6037030  45.6823010  47.3908100  21.0785290
  45.8155370  48.5049520  22.0948040  47.9053490  48.8929230  22.4306010
  48.1931300  48.6383530  21.5539020  48.4176710  48.3406590  23.0211580
  49.1230500  32.6319430  23.0102520  48.3402290  33.1064930  23.2899280
  48.8293430  31.7274260  22.9015700  53.6751570  33.3342530  21.0551610
  54.1159660  33.2787630  20.2073210  53.4059160  34.2500540  21.1261790
  55.5390140  32.9657770  19.0660430  55.4778540  32.0218990  18.9191450
  56.3182170  33.0737860  19.6113890  39.8442890  49.1050130  18.0284380
  39.6764930  48.4720810  18.7266270  38.9777400  49.3109530  17.6778570
  40.4670910  32.9366910  15.5316240  41.2250270  33.0495790  14.9580270
  40.0048080  33.7736110  15.4859670  47.0084720  35.0506180  18.5218550
  46.1959230  34.6763070  18.1814430  47.5126360  34.2951260  18.8239740
  51.5109700  31.7148630  19.7601620  52.1139070  32.2868840  20.2350140
  50.7702690  32.2788070  19.5375520  54.6544300  32.1170190  15.0341900
  54.8494930  33.0153640  15.3009330  53.8674170  31.8857270  15.5274850
  41.4505590  47.7983360  15.4734520  40.9253210  48.1791390  14.7696480
  41.3750170  48.4234130  16.1944230  42.8396060  33.4630960  14.0718210
  43.3688820  32.6760760  13.9426160  43.4724380  34.1422150  14.3053740
  45.0333900  33.2006100  17.1263600  44.4036640  32.4993410  17.2933730
  44.4939040  33.9610230  16.9096760  56.2070910  49.3570900  16.7948460
  56.3823100  48.6708640  16.1509380  55.5092480  49.8817950  16.4025130
  45.1589460  32.4790080  29.5616090  44.8773730  32.9823680  28.7976910
  45.5409160  31.6811830  29.1958220  44.0498560  49.7465740  14.3483770
  44.7817380  49.4625020  13.8007660  44.3092230  49.5079020  15.2383150
  43.2113350  45.8630470  14.3530100  42.5822230  46.3315570  14.9015930
  43.3261180  45.0179690  14.7876290  51.7604920  31.8943660  30.1396560
  51.6470370  32.2138270  31.0348080  52.5774660  32.2956170  29.8433840
  54.5403410  49.0415190  29.6215250  55.3328730  48.5464420  29.4141210
  54.8336560  49.7205330  30.2290860  48.7981110  41.6915150   2.3840570
  48.0223210  41.2115590   2.6739140  49.4494040  41.0120800   2.2096730
  42.8146940  42.0034960   3.2616330  41.9831820  41.7483670   3.6612840
  43.4227920  42.0745730   3.9974250  42.7948200  46.0375050   3.4574350
  43.0976240  45.1472790   3.2784570  43.5391790  46.5945270   3.2296600
  39.1871900  39.5642500   2.9298420  39.7588010  38.7964700   2.9302060
  39.1873440  39.8631260   2.0205030  48.2390100  44.3672340   2.3910730
  48.1698380  43.4262280   2.2299860  49.0009960  44.4573750   2.9633300
  40.4296770  34.9726860   4.7167350  40.2499610  34.0752610   4.9970110
  40.0276850  35.5198730   5.3914300  49.2695270  37.1742720   2.6179660
  49.6460090  36.3014600   2.5053330  49.1714780  37.5101420   1.7270100
  41.0483440  37.4687360   3.3249690  41.7293550  37.7325730   3.9437090
  40.7331490  36.6288230   3.6587700  45.2408010  38.5154720   2.4122280
  45.7486230  39.0135690   3.0527300  45.7721250  37.7389920   2.2361640
  57.3418940  36.6859910   6.1151630  56.6371110  37.0741620   5.5966740
  57.6076860  37.3810200   6.7172560  43.5244110  33.1553280   6.6785700
  43.5262550  33.6725670   5.8731600  42.6948420  32.6783460   6.6555630
  44.7746960  42.7948460   4.8559200  44.4416340  43.4217380   5.4980270
  44.9513640  43.3210340   4.0760870  53.2880870  36.6093540   2.3235540
  52.5836440  36.8978430   2.9038650  53.6493030  37.4193650   1.9635100
  43.2059440  34.8663240   4.6856150  43.5476250  35.7105290   4.3910020
  42.2675250  35.0146980   4.8021490  43.9866060  44.7629260   6.6708380
  44.6040060  45.4380340   6.3892830  43.1259180  45.1717240   6.5795880
  54.9043650  46.2268670   4.5863020  54.2207170  46.8967780   4.5779690
  55.4437940  46.4249320   3.8207880  56.3567790  36.0548330   2.7144750
  55.4092700  36.0887310   2.8460180  56.6817780  36.8687280   3.0994110
  52.4402390  48.0712800   3.3008200  52.4529550  47.6675090   2.4330460
  51.8877610  48.8460090   3.1969630  51.8387830  42.9742640   4.6290810
  52.2556620  42.7602750   3.7944270  52.5627650  43.2315430   5.1999430
  55.7849930  41.3729860   4.7207050  54.9568560  41.4422950   4.2457180
  56.3800410  41.9584170   4.2522880  52.7491940  38.1599180   5.6661920
  52.3363120  38.9852890   5.9201910  52.0167890  37.5744220   5.4738280
  45.3506430  44.6326640   2.6919800  45.0534720  44.0272110   2.0127580
  46.3006250  44.6703950   2.5809160  43.5953350  37.7202290   4.3079630
  44.1467940  37.8297630   3.5332880  44.1096860  38.0939890   5.0234860
  53.4392040  48.2058510   6.3542900  52.9622600  49.0130700   6.1615510
  52.7553830  47.5536840   6.5069110  44.4424860  44.3708330   9.3427600
  43.5453390  44.5948300   9.5901000  44.4677730  44.4943270   8.3939000
  43.2696080  41.2421650   7.9184970  43.1303850  42.1144450   8.2872370
  42.3877440  40.8994460   7.7732910  45.0676430  47.1843350  10.1270120
  45.0391860  47.5886300   9.2598550  44.9041400  46.2553710   9.9641720
  57.0191250  47.9670450  11.4234290  57.4950970  48.4453340  12.1023370
  57.6398410  47.8987940  10.6979790  39.2214730  43.0119200   3.8355880
  39.2995150  43.1467970   2.8911600  39.8356410  42.3035090   4.0284000
  56.4224500  45.1583300   8.5834300  56.5487560  44.9195180   7.6651480
  56.4645880  44.3267840   9.0556380  50.2841240  48.8611300   7.1529110
  50.7985910  48.7719310   7.9551540  49.4410320  49.2071000   7.4457020
  56.2748510  37.2115760   9.5484040  55.6592780  37.7195430   9.0199500
  55.9544930  36.3114090   9.4909980  39.2774250  44.0533370   6.3750340
  39.4405290  43.5838730   5.5569710  39.7426700  43.5456930   7.0399180
  48.3362830  36.0507650   7.0146230  47.8742200  36.2590670   7.8266170
  47.9340940  35.2367000   6.7116900  53.3367340  37.2716600   8.1442890
  52.4860930  36.9722350   8.4651960  53.1769130  37.5158610   7.2326710
  50.4317050  38.7718350  10.2441680  50.7570460  37.9382100   9.9043910
  51.2197380  39.2946870  10.3920010  46.0868920  33.7286460   3.2700510
  46.3841250  34.6349290   3.1892530  46.6354480  33.2405240   2.6560080
  46.2806450  39.2058280   9.8052430  46.1850050  38.2653010   9.6552830
  47.1238430  39.4273350   9.4100500  41.4116990  35.6171950   7.9586210
  41.0180380  36.4647160   8.1658990  40.7235390  34.9798320   8.1494850
  47.9862040  35.7006920  11.0282950  47.2960360  35.5079120  11.6629040
  48.7294340  35.9841560  11.5607250  38.7134040  33.5400410   1.9916290
  38.4247090  34.1103270   2.7041270  39.4579800  33.0604860   2.3547520
  50.2625010  39.5405360   3.8636870  49.5306130  40.0492170   4.2126970
  49.8649350  38.7235340   3.5625650  46.7002400  36.2159560   2.2689360
  46.7038460  35.7749510   1.4193900  47.5953520  36.5376890   2.3761180
  50.7250920  34.9939040   3.2759810  50.7423660  35.4447690   4.1201660
  50.4766500  34.0944680   3.4893250  54.1521670  32.4071220   9.1146190
  54.4767440  31.6760880   9.6404170  54.1878180  32.0884860   8.2127180
  40.8513230  43.4284800   8.5346150  40.4668020  42.7878470   9.1329110
  41.1625420  44.1320920   9.1040880  47.0010370  40.2761340   4.0154770
  47.3680500  39.8019910   4.7616110  46.8115430  41.1502910   4.3563110
  44.7909740  39.3169980   6.3338980  44.4866810  40.1961960   6.5589340
  45.7456200  39.3769770   6.3696420  54.0779510  42.5196330   2.7232220
  54.7978630  43.0151620   2.3328330  53.8761330  41.8414220   2.0786090
  49.4598310  42.5905390   8.6101220  49.3935620  41.6701060   8.3558810
  48.8303450  42.6880830   9.3245860  40.8473470  40.1572720   7.4810340
  40.4888410  40.8226570   8.0683680  40.5528030  39.3256270   7.8522960
  44.0486590  40.6156960  10.3649890  43.7486730  40.7614140   9.4677710
  44.8197830  40.0562250  10.2723280  49.3915040  45.4125960   8.3605020
  49.4059580  44.4806920   8.1423930  48.6840140  45.4985720   8.9994790
  55.6026250  42.0533300   7.7073600  54.8774440  42.6462080   7.5102990
  56.1301710  42.0456840   6.9086970  48.8248940  47.0543530   5.4545520
  49.4691160  47.2602910   6.1318940  49.1878380  46.2931930   5.0016370
  50.0981020  45.0575880   4.1722970  50.7403250  44.3569040   4.2855140
  50.6230370  45.8374320   3.9919860  51.8718640  45.8570780   7.3759030
  52.2074880  46.4437470   8.0536950  50.9518980  45.7263490   7.6056820
  39.4222040  33.6465960   8.1582440  38.7080560  33.8462880   8.7635050
  39.8417080  32.8705530   8.5297240  39.7094630  47.6346220   9.1448970
  39.8185750  46.6940960   9.0044360  39.0575190  47.9000970   8.4962700
  47.7007220  45.9062110  10.5447090  47.3804090  45.1871350  11.0892780
  47.0265580  46.5817180  10.6183150  50.9160820  36.1388270   5.9083890
  51.2841640  35.3183480   6.2363460  50.0559020  36.1990160   6.3239540
  47.8762810  38.7927860   6.1321860  48.3748060  39.2673680   6.7973710
  48.0185760  37.8691380   6.3391890  55.0829670  35.0095820   6.9750250
  54.5803270  35.7501220   7.3144060  55.8986330  35.3979820   6.6587040
  55.3777260  47.4237850   2.0965870  55.5024680  48.2469020   2.5689680
  56.2442820  47.2128580   1.7490020  42.8494790  49.5169060   1.7683000
  43.5857270  48.9684520   2.0391570  43.2335710  50.3825070   1.6288990
  41.8553070  48.7015130  10.9568580  42.6565800  49.0227180  11.3703980
  41.3404890  48.3410710  11.6788490  50.6917700  44.8095000  10.9043990
  50.0855860  44.8326600  10.1639740  50.3871810  44.0778040  11.4411240
  52.1218070  48.5375290   9.5153400  53.0739820  48.4533310   9.4653640
  51.9746290  49.2017000  10.1887190  39.5750880  41.1888590   9.9004630
  40.0789900  40.6095870  10.4720860  38.8358300  41.4728820  10.4381000
  46.6288820  42.5959580   9.4340150  45.8634490  43.1644580   9.3494820
  46.8104780  42.3035790   8.5408380  53.7712170  44.3264910   9.9915170
  54.5121640  44.6640670   9.4882630  53.0084850  44.4956970   9.4384940
  41.6073960  39.3318180  10.7954700  41.6479300  39.0332050  11.7039930
  42.4619460  39.7325790  10.6362220  43.5479770  37.9110280   8.7629190
  43.0176230  37.4201230   8.1352530  44.2167840  38.3394480   8.2287120
  52.4457830  42.3779740   8.5270380  52.8598850  42.5324820   9.3760800
  51.5108830  42.5034960   8.6896160  52.9180000  39.7175900  10.5309530
  53.5000770  38.9628220  10.4430010  53.0941770  40.2483340   9.7541010
  44.0352070  34.8772650   8.8426480  43.9408940  34.2593400   8.1177350
  43.4549460  35.6038940   8.6156390  46.8013510  33.4345890   5.8753870
  46.3530810  33.4570150   5.0299420  46.1678710  33.0364910   6.4724170
  47.2073060  42.3300220   6.4966310  47.6261170  43.1732950   6.3242550
  46.2881690  42.4672260   6.2673090  49.5436960  40.0616400   7.8804150
  49.6633170  39.4657540   8.6198990  50.4030960  40.0986090   7.4605450
  51.8824860  40.6153590   6.4566660  51.3560080  41.1396210   5.8531800
  52.2256200  41.2480980   7.0876390  45.0580480  48.6353230   7.6124040
  44.5201570  49.3599290   7.2932740  45.3114440  48.1583570   6.8221380
  46.3105730  36.6037750   9.1379970  46.9005420  36.2953600   9.8257790
  45.4925970  36.1317500   9.2939870  51.1299160  36.2203560   9.3712990
  50.4414680  35.5585100   9.3062980  51.8505180  35.7741830   9.8161450
  47.9142690  49.8704440   7.8710690  47.8401390  50.7739580   8.1783060
  47.0121530  49.5516340   7.8432760  39.8060190  48.0649620   3.9125940
  39.3691180  48.2450420   4.7450090  40.3737870  48.8224240   3.7707660
  55.4422370  47.5666620   8.2003250  54.8424360  47.6259180   7.4567170
  55.5716270  46.6271600   8.3300100  54.1274010  44.2918600   6.2979410
  53.3133850  44.7215760   6.5605200  54.5348210  44.9037010   5.6848460
  40.6760550  40.9622420   4.8118160  41.0433590  40.8749820   5.6914180
  40.1071370  40.1988970   4.7125020  55.4764410  39.4306800   7.8248630
  55.2450500  39.2019550   6.9246580  55.7368960  40.3506350   7.7793520
  40.2276550  37.8731510   8.7176580  39.3332600  37.8398270   9.0570290
  40.7674100  38.0718300   9.4827830  53.9152480  34.6563230  10.6028330
  54.7922660  34.6646630  10.9862330  53.9273320  33.9194070   9.9920680
  55.5405470  38.5932640   5.0135900  54.5908180  38.5596180   5.1280890
  55.7218480  39.5032750   4.7785670  40.7316260  32.1479840   3.0659800
  41.3792450  31.5977220   2.6254960  41.1518100  32.4022990   3.8875610
  54.6268600  32.3421200   6.4229440  55.2640820  32.9555340   6.7888630
  54.7743490  32.3781860   5.4778670  40.4848260  32.3035510   5.8085120
  40.1363080  32.7599330   6.5743300  40.1535960  31.4092640   5.8907550
  42.0912630  45.4755110   9.9738310  42.0482260  45.1048020  10.8552770
  42.2223640  46.4132680  10.1140130  45.7918660  47.0314700   5.5748030
  45.5510020  47.2989260   4.6878550  46.7321300  47.2020430   5.6298890
  47.9973080  33.4947390   9.3304540  47.9361970  34.0869220  10.0799950
  48.9373460  33.3873350   9.1854800  50.6347640  33.1517450   8.9696830
  51.2488050  33.4696740   8.3077910  51.1797200  32.6666040   9.5892690
  57.0522820  49.0509080   6.3758670  56.5581100  49.4477950   5.6585800
  56.4436110  48.4258290   6.7695950  41.1568900  31.8311710   9.0835890
  41.7051890  31.6499760   8.3202000  41.2224210  31.0405820   9.6192200
  41.9300660  48.4217360   7.0936090  41.3360980  48.2902060   7.8326130
  41.9224500  47.5855500   6.6278190  51.3755680  31.7149590   5.2966120
  50.5015520  32.0484700   5.0939050  51.2666430  31.2422770   6.1217990
  52.2827660  33.9220460   6.6807840  51.9541020  33.1072220   6.3009570
  53.2309960  33.8790270   6.5573530  54.7362270  49.6932500   3.6545410
  54.2765240  50.4448310   3.2803430  54.1074730  48.9738970   3.5960210
  41.5612890  45.7875740   6.0444130  40.8346950  45.1681030   5.9770080
  41.6222040  46.1816350   5.1742210  45.1657990  48.0020740   2.8293540
  45.6823010  47.3908100   2.3041800  45.8155370  48.5049520   3.3204550
  47.9053490  48.8929230   3.6562520  48.1931300  48.6383530   2.7795530
  48.4176710  48.3406590   4.2468090  49.1230500  32.6319430   4.2359030
  48.3402290  33.1064930   4.5155790  48.8293430  31.7274260   4.1272210
  53.6751570  33.3342530   2.2808120  54.1159660  33.2787630   1.4329720
  53.4059160  34.2500540   2.3518300  47.9725850  49.8145330  11.0230720
  48.8993160  49.5789600  11.0666680  47.9576280  50.6417330  10.5416750
  45.1589460  32.4790080  10.7872600  44.8773730  32.9823680  10.0233420
  45.5409160  31.6811830  10.4214730  51.7604920  31.8943660  11.3653070
  51.6470370  32.2138270  12.2604590  52.5774660  32.2956170  11.0690350
  54.5403410  49.0415190  10.8471760  55.3328730  48.5464420  10.6397720
  54.8336560  49.7205330  11.4547370  50.6663070  21.1392640 150.6979220
  50.5857120  20.2247250 150.4270930  50.2527490  21.6359710 149.9918930
  48.7981110  22.9171660 152.5788490  48.0223210  22.4372100 152.8687060
  49.4494040  22.2377310 152.4044650  52.8188540  27.3231850 151.3587620
  52.3570070  26.5519090 151.6874790  53.6314090  27.3497920 151.8640070
  41.2238890  18.1893360 147.2406640  40.3355590  18.5309330 147.1386520
  41.5080080  17.9893680 146.3487470  39.1871900  20.7899010 153.1246340
  39.7588010  20.0221210 153.1249980  39.1873440  21.0887770 152.2152950
  49.0451850  29.6089860 150.9791610  48.4263290  30.0647360 150.4086050
  49.9003630  29.7641320 150.5781310  48.2390100  25.5928850 152.5858650
  48.1698380  24.6518790 152.4247780  49.0009960  25.6830260 153.1581220
  49.2695270  18.3999230 152.8127580  49.6460090  17.5271110 152.7001250
  49.1714780  18.7357930 151.9218020  43.4000280  16.7724860 148.2745020
  43.5067030  17.6728590 148.5813780  42.4892640  16.7242830 147.9839670
  53.0519390  15.8949670 149.7455920  53.8729010  15.4046240 149.7881400
  53.0853470  16.4847330 150.4987760  49.9115200  24.4929100 148.3723520
  49.2932470  24.9578550 147.8086240  50.4238450  25.1856580 148.7893030
  53.2880870  17.8350050 152.5183460  52.5836440  18.1234940 153.0986570
  53.6493030  18.6450160 152.1583020  39.2798400  25.1785630 145.7463150
  38.9026380  25.6672730 145.0148050  39.5371470  25.8510910 146.3769680
  46.8887330  13.5802020 151.2048660  47.1962310  13.0248910 150.4884160
  45.9588030  13.7146480 151.0221650  53.7347810  26.0185530 148.5846290
  53.6244140  25.0759860 148.7095710  53.7316060  26.3801170 149.4709050
  49.2768090  21.6450850 147.9408780  48.3497370  21.5788230 148.1697250
  49.4292910  22.5830980 147.8264020  49.2637170  17.9167850 144.9375940
  48.3240840  18.0781810 145.0228400  49.5820430  18.6353530 144.3911930
  53.3065380  23.2071150 148.4444030  52.6877800  22.8690700 147.7970330
  53.2889830  22.5630910 149.1523220  44.8824730  22.1715590 150.7228510
  44.4781730  21.4592840 150.2274410  44.9687850  21.8268830 151.6116550
  45.3506430  25.8583150 152.8867720  45.0534720  25.2528620 152.2075500
  46.3006250  25.8960460 152.7757080  51.4830080  22.4457960 145.4516780
  51.9223360  21.6080390 145.3054600  52.1958500  23.0787360 145.5380920
  49.5925460  27.3854030 149.4198020  50.0321370  28.1278360 149.0053410
  49.5312350  27.6280600 150.3436980  55.0647220  13.7000770 143.7657820
  54.7519880  13.7927600 144.6656890  55.8259690  14.2781800 143.7155250
  41.5829360  21.0660570 148.2235160  41.4626960  21.7922660 147.6116430
  41.2730250  20.2963480 147.7463070  40.4662360  25.9375900 150.4409980
  40.0590440  26.0790490 149.5863580  41.3575370  25.6536060 150.2381190
  52.2595640  30.3723150 146.7761030  52.0996780  30.0826090 147.6742860
  52.0942350  29.5963280 146.2406260  44.7384020  30.1521680 148.5532650
  44.5626500  29.2357220 148.3400450  43.8839760  30.5108970 148.7930450
  51.9621770  27.8810710 145.3359030  51.2686930  27.8788000 144.6761310
  52.7044630  27.4570030 144.9053200  51.5271700  29.5073420 149.4107520
  51.9828650  28.7262800 149.7246140  51.8664220  30.2180240 149.9548700
  44.0493020  14.4095640 151.6058830  43.6061170  15.1905180 151.2743350
  44.6078010  14.7325530 152.3129770  47.1651840  14.0306340 146.4864660
  46.5406020  14.0266210 147.2117970  47.0781960  13.1637300 146.0900630
  43.8407240  19.5329210 149.3340080  43.6148160  19.3166380 150.2386700
  43.0599770  19.9657670 148.9886050  51.0705000  19.5392580 147.9330730
  50.4713890  20.2628380 147.7494350  51.6184610  19.4769360 147.1507180
  49.6769870  18.1756120 149.9634010  50.0699440  18.4928320 149.1502700
  50.0386720  17.2968000 150.0778530  38.7134040  14.7656920 152.1864210
  38.4247090  15.3359780 152.8989190  39.4579800  14.2861370 152.5495440
  38.9004270  18.7077040 143.3966930  38.8178940  19.6507800 143.5381920
  38.5487330  18.5651950 142.5179280  46.7002400  17.4416070 152.4637280
  46.7038460  17.0006020 151.6141820  47.5953520  17.7633400 152.5709100
  42.5504780  17.3242560 151.4231490  42.2104830  17.8017790 152.1798540
  41.7882100  16.8707680 151.0632590  46.7622550  18.4428150 145.4544040
  46.8835370  18.4014630 146.4029860  46.3771060  19.3052300 145.2990770
  45.7744050  20.7529290 144.8527340  45.2060950  20.3047540 144.2263250
  46.4833050  21.1122070 144.3192490  39.8650860  16.2461540 150.3396160
  39.5797780  15.8817210 151.1774780  39.8029720  15.5142000 149.7259300
  43.3191530  24.7487480 147.1253750  42.5453790  24.2085100 146.9652470
  44.0486160  24.2294090 146.7871510  54.0779510  23.7452840 152.9180140
  54.7978630  24.2408130 152.5276250  53.8761330  23.0670730 152.2734010
  49.5389450  15.1390800 147.0609530  48.7254060  14.6403970 146.9854840
  49.3451400  15.9789050 146.6445880  52.2537840  19.5110450 145.3571690
  53.1417460  19.8227680 145.1823030  52.2242930  18.6382700 144.9652270
  43.3628930  24.4167860 150.7632560  43.8807600  23.6136120 150.7089450
  42.9112950  24.3547000 151.6049390  48.2498430  25.6834140 146.0359860
  48.5914130  26.4276370 145.5403180  47.4211140  25.9965260 146.3984690
  54.5252110  20.8222290 144.8251550  54.4415830  21.2536510 143.9747990
  55.2446300  21.2820640 145.2578370  55.5539360  27.6764550 147.5533680
  54.9115520  27.0220170 147.8277400  55.1670020  28.0819640 146.7774350
  51.1325840  25.0049980 151.4005370  51.4849660  24.4078110 150.7406740
  50.2488170  24.6794210 151.5713620  47.2189120  25.7647670 148.8075780
  47.9060250  26.3116880 149.1883370  46.4321540  26.3088400 148.8425390
  39.3581520  21.3820490 144.2992860  40.2276370  21.6645290 144.5828780
  38.8671840  22.1956360 144.1841670  46.5216330  22.7693700 148.4201140
  46.9779110  23.5798950 148.6461330  46.1704540  22.4516840 149.2519630
  42.4228110  13.1131350 148.8923660  42.2942740  13.1049250 149.8408580
  41.5990130  13.4514440 148.5414670  53.9436740  26.5681010 144.0910030
  53.7174320  25.8511450 144.6834670  53.5532940  26.3193450 143.2531780
  39.7252770  30.5947870 144.8654490  40.0850410  31.1937210 144.2111760
  39.5845110  31.1407760 145.6389520  53.5252990  24.4852950 145.7524190
  53.2374690  24.9465640 146.5402070  54.3205160  24.0250720 146.0208410
  45.7421390  27.9779070 145.6828160  45.7331490  28.7108760 145.0672670
  44.8219750  27.7310650 145.7755120  41.3428030  23.1993960 146.4274920
  40.7355980  23.9392860 146.4370220  41.8177380  23.2893320 145.6013120
  54.2822850  16.3201720 146.9119370  53.6536010  16.4247390 146.1977600
  53.7874770  16.5398500 147.7013250  48.7280990  28.0407310 144.3453350
  48.8292970  27.8371300 143.4155330  47.8282730  27.7865590 144.5501130
  46.2506880  18.5987670 148.3277250  45.5423030  19.0674010 148.7690860
  46.5351360  17.9409680 148.9622440  50.2822310  15.3238330 149.7673040
  50.1590090  15.3424460 148.8182550  51.2306870  15.3717270 149.8871440
  47.3699100  30.5593630 149.0401020  47.6240600  30.5215020 148.1180390
  46.4211580  30.4326960 149.0329270  44.4541900  16.9072750 145.7027960
  45.3032430  17.3442900 145.6368150  44.0873170  17.2193010 146.5300020
  53.3751680  21.4785510 150.6159530  52.4341820  21.4935740 150.7907220
  53.6895750  20.6921470 151.0619830  43.3533320  23.1605110 144.1763490
  44.1196590  23.0486470 144.7388920  43.4308010  22.4643080 143.5240260
  42.0480080  20.5930180 144.8596380  42.1283670  19.6457690 144.9713780
  42.9399830  20.9237060 144.9657040  55.3777260  28.6494360 152.2913790
  55.5024680  29.4725530 152.7637600  56.2442820  28.4385090 151.9437940
  42.8494790  30.7425570 151.9630920  43.5857270  30.1941030 152.2339490
  43.2335710  31.6081580 151.8236910  39.7340270  26.8099140 147.8372430
  38.8080050  27.0520280 147.8277840  40.1996700  27.6373400 147.7157180
  45.9597100  29.9155880 143.7856490  46.7525710  30.2044710 143.3338280
  45.4401450  29.4848050 143.1068970  55.0127270  29.1426010 145.2093230
  54.7268780  28.7291150 144.3947410  54.8146820  30.0713720 145.0893750
  46.4774500  25.1359290 143.6498840  46.3725140  24.5211640 144.3760220
  46.3098720  24.6125180 142.8661850  49.7177230  24.1979320 144.2540830
  49.1687330  24.6448620 144.8983570  50.3396490  23.6928570 144.7778500
  45.3852350  23.1570240 146.1506130  45.8068770  22.9910110 146.9937520
  45.5103190  22.3470470 145.6561270  47.8979990  22.1807850 143.3983230
  48.4185650  21.4656870 143.0324380  48.5448390  22.8193720 143.6983740
  44.2811250  19.2303470 143.0964290  44.0800310  18.3670830 143.4577630
  44.1103300  19.1436830 142.1585890  51.7599560  14.0411700 145.6251170
  52.0401850  13.1979600 145.9810590  50.9865290  14.2734810 146.1389920
  43.0794050  16.3304090 143.0842170  43.3819950  16.3371520 142.1761320
  43.8188640  15.9801950 143.5809830  46.2978980  15.2738710 144.0698370
  45.9500980  14.5962700 143.4900820  46.4991750  14.8128220 144.8841760
  48.4628020  30.2619460 145.6884970  49.3578810  30.6004430 145.7103730
  48.4945650  29.5398870 145.0609250  42.1024180  25.6346510 143.9171970
  42.5399050  26.1776180 144.5729550  42.5871910  24.8093460 143.9268310
  39.3169980  28.4235540 151.3692230  39.6472990  27.5556600 151.1370870
  39.7460980  28.6294060 152.1997190  43.9131900  26.7544550 149.0294200
  43.6127440  26.6309520 149.9298110  43.8069390  25.8953140 148.6209930
  56.6823820  26.5340950 143.7320880  55.8516780  26.6017600 144.2028110
  56.8595650  27.4245070 143.4287740  56.1380280  23.2788430 146.2355080
  56.8999190  23.8485080 146.3414770  56.1534650  22.7115630 147.0063390
  39.6384620  21.8026360 150.4662740  38.9833460  21.5338000 149.8222440
  40.4762570  21.6930840 150.0164720  57.1440250  24.1338530 151.0797010
  57.5149080  23.3505850 150.6732980  57.7842180  24.8227630 150.9014310
  56.1899450  23.5722800 143.3927600  56.4648290  24.4801680 143.2646820
  56.0010190  23.5085330 144.3289590  52.5875060  16.5967650 144.6881230
  53.0059940  16.4098630 143.8477890  52.2811120  15.7446700 144.9984160
  56.0864790  21.5091790 148.3857030  55.7108390  20.7419720 147.9538320
  55.3567910  21.8914490 148.8731960  38.8522700  19.0125290 146.4088070
  37.9486780  19.2755490 146.2339730  39.3363320  19.2836460 145.6288030
  55.3615750  19.7349280 151.6864270  55.8853230  19.2411930 151.0554440
  55.9475170  19.8699640 152.4311840  41.3949910  18.0690830 144.3182450
  42.1041610  17.6474050 143.8329730  40.6789850  18.1366060 143.6865800
  41.0424070  14.1230160 143.3585100  41.7652200  14.6639100 143.6766320
  41.3148590  13.8493580 142.4826640  54.8515720  18.9922630 147.6256680
  55.3474840  18.7593500 148.4105560  54.6531790  18.1534470 147.2094320
  56.2802880  17.6283580 150.1594360  56.1702160  17.4739620 151.0976630
  57.0410470  17.1004520 149.9169770  57.1693150  15.4591500 143.4000500
  58.0942460  15.3272680 143.1918790  57.1468940  15.5384320 144.3536950
  57.2431640  16.2302160 146.0257210  56.4483140  16.1647280 146.5550120
  57.4474920  17.1652800 146.0142560  54.1850060  30.2693710 150.0195600
  54.7809130  29.9478280 149.3430020  54.4428210  29.7965530 150.8108870
  53.6751570  14.5599040 152.4756040  54.1159660  14.5044140 151.6277640
  53.4059160  15.4757050 152.5466220  55.5390140  14.1914280 150.4864860
  55.4778540  13.2475500 150.3395880  56.3182170  14.2994370 151.0318320
  39.8442890  30.3306640 149.4488810  39.6764930  29.6977320 150.1470700
  38.9777400  30.5366040 149.0983000  40.4670910  14.1623420 146.9520670
  41.2250270  14.2752300 146.3784700  40.0048080  14.9992620 146.9064100
  47.0084720  16.2762690 149.9422980  46.1959230  15.9019580 149.6018860
  47.5126360  15.5207770 150.2444170  51.5109700  12.9405140 151.1806050
  52.1139070  13.5125350 151.6554570  50.7702690  13.5044580 150.9579950
  54.6544300  13.3426700 146.4546330  54.8494930  14.2410150 146.7213760
  53.8674170  13.1113780 146.9479280  41.4505590  29.0239870 146.8938950
  40.9253210  29.4047900 146.1900910  41.3750170  29.6490640 147.6148660
  42.8396060  14.6887470 145.4922640  43.3688820  13.9017270 145.3630590
  43.4724380  15.3678660 145.7258170  45.0333900  14.4262610 148.5468030
  44.4036640  13.7249920 148.7138160  44.4939040  15.1866740 148.3301190
  56.2070910  30.5827410 148.2152890  56.3823100  29.8965150 147.5713810
  55.5092480  31.1074460 147.8229560  44.0498560  30.9722250 145.7688200
  44.7817380  30.6881530 145.2212090  44.3092230  30.7335530 146.6587580
  43.2113350  27.0886980 145.7734530  42.5822230  27.5572080 146.3220360
  43.3261180  26.2436200 146.2080720  50.6663070  21.1392640 131.9235730
  50.5857120  20.2247250 131.6527440  50.2527490  21.6359710 131.2175440
  48.7981110  22.9171660 133.8045000  48.0223210  22.4372100 134.0943570
  49.4494040  22.2377310 133.6301160  42.8146940  23.2291470 134.6820760
  41.9831820  22.9740180 135.0817270  43.4227920  23.3002240 135.4178680
  52.8188540  27.3231850 132.5844130  52.3570070  26.5519090 132.9131300
  53.6314090  27.3497920 133.0896580  42.7948200  27.2631560 134.8778780
  43.0976240  26.3729300 134.6989000  43.5391790  27.8201780 134.6501030
  41.2238890  18.1893360 128.4663150  40.3355590  18.5309330 128.3643030
  41.5080080  17.9893680 127.5743980  39.1871900  20.7899010 134.3502850
  39.7588010  20.0221210 134.3506490  39.1873440  21.0887770 133.4409460
  49.0451850  29.6089860 132.2048120  48.4263290  30.0647360 131.6342560
  49.9003630  29.7641320 131.8037820  48.2390100  25.5928850 133.8115160
  48.1698380  24.6518790 133.6504290  49.0009960  25.6830260 134.3837730
  40.4296770  16.1983370 136.1371780  40.2499610  15.3009120 136.4174540
  40.0276850  16.7455240 136.8118730  49.2695270  18.3999230 134.0384090
  49.6460090  17.5271110 133.9257760  49.1714780  18.7357930 133.1474530
  43.4000280  16.7724860 129.5001530  43.5067030  17.6728590 129.8070290
  42.4892640  16.7242830 129.2096180  53.0519390  15.8949670 130.9712430
  53.8729010  15.4046240 131.0137910  53.0853470  16.4847330 131.7244270
  41.0483440  18.6943870 134.7454120  41.7293550  18.9582240 135.3641520
  40.7331490  17.8544740 135.0792130  45.2408010  19.7411230 133.8326710
  45.7486230  20.2392200 134.4731730  45.7721250  18.9646430 133.6566070
  57.3418940  17.9116420 137.5356060  56.6371110  18.2998130 137.0171170
  57.6076860  18.6066710 138.1376990  43.5244110  14.3809790 138.0990130
  43.5262550  14.8982180 137.2936030  42.6948420  13.9039970 138.0760060
  49.9115200  24.4929100 129.5980030  49.2932470  24.9578550 129.0342750
  50.4238450  25.1856580 130.0149540  44.7746960  24.0204970 136.2763630
  44.4416340  24.6473890 136.9184700  44.9513640  24.5466850 135.4965300
  53.2880870  17.8350050 133.7439970  52.5836440  18.1234940 134.3243080
  53.6493030  18.6450160 133.3839530  43.2059440  16.0919750 136.1060580
  43.5476250  16.9361800 135.8114450  42.2675250  16.2403490 136.2225920
  43.9866060  25.9885770 138.0912810  44.6040060  26.6636850 137.8097260
  43.1259180  26.3973750 138.0000310  39.2798400  25.1785630 126.9719660
  38.9026380  25.6672730 126.2404560  39.5371470  25.8510910 127.6026190
  54.9043650  27.4525180 136.0067450  54.2207170  28.1224290 135.9984120
  55.4437940  27.6505830 135.2412310  56.3567790  17.2804840 134.1349180
  55.4092700  17.3143820 134.2664610  56.6817780  18.0943790 134.5198540
  46.8887330  13.5802020 132.4305170  47.1962310  13.0248910 131.7140670
  45.9588030  13.7146480 132.2478160  52.4402390  29.2969310 134.7212630
  52.4529550  28.8931600 133.8534890  51.8877610  30.0716600 134.6174060
  53.7347810  26.0185530 129.8102800  53.6244140  25.0759860 129.9352220
  53.7316060  26.3801170 130.6965560  51.8387830  24.1999150 136.0495240
  52.2556620  23.9859260 135.2148700  52.5627650  24.4571940 136.6203860
  49.2768090  21.6450850 129.1665290  48.3497370  21.5788230 129.3953760
  49.4292910  22.5830980 129.0520530  49.2637170  17.9167850 126.1632450
  48.3240840  18.0781810 126.2484910  49.5820430  18.6353530 125.6168440
  55.7849930  22.5986370 136.1411480  54.9568560  22.6679460 135.6661610
  56.3800410  23.1840680 135.6727310  53.3065380  23.2071150 129.6700540
  52.6877800  22.8690700 129.0226840  53.2889830  22.5630910 130.3779730
  52.7491940  19.3855690 137.0866350  52.3363120  20.2109400 137.3406340
  52.0167890  18.8000730 136.8942710  44.8824730  22.1715590 131.9485020
  44.4781730  21.4592840 131.4530920  44.9687850  21.8268830 132.8373060
  45.3506430  25.8583150 134.1124230  45.0534720  25.2528620 133.4332010
  46.3006250  25.8960460 134.0013590  43.5953350  18.9458800 135.7284060
  44.1467940  19.0554140 134.9537310  44.1096860  19.3196400 136.4439290
  53.4392040  29.4315020 137.7747330  52.9622600  30.2387210 137.5819940
  52.7553830  28.7793350 137.9273540  44.4424860  25.5964840 140.7632030
  43.5453390  25.8204810 141.0105430  44.4677730  25.7199780 139.8143430
  51.4830080  22.4457960 126.6773290  51.9223360  21.6080390 126.5311110
  52.1958500  23.0787360 126.7637430  43.2696080  22.4678160 139.3389400
  43.1303850  23.3400960 139.7076800  42.3877440  22.1250970 139.1937340
  49.5925460  27.3854030 130.6454530  50.0321370  28.1278360 130.2309920
  49.5312350  27.6280600 131.5693490  45.0676430  28.4099860 141.5474550
  45.0391860  28.8142810 140.6802980  44.9041400  27.4810220 141.3846150
  55.0647220  13.7000770 124.9914330  54.7519880  13.7927600 125.8913400
  55.8259690  14.2781800 124.9411760  41.5829360  21.0660570 129.4491670
  41.4626960  21.7922660 128.8372940  41.2730250  20.2963480 128.9719580
  57.0191250  29.1926960 142.8438720  57.4950970  29.6709850 143.5227800
  57.6398410  29.1244450 142.1184220  39.2214730  24.2375710 135.2560310
  39.2995150  24.3724480 134.3116030  39.8356410  23.5291600 135.4488430
  40.4662360  25.9375900 131.6666490  40.0590440  26.0790490 130.8120090
  41.3575370  25.6536060 131.4637700  56.4224500  26.3839810 140.0038730
  56.5487560  26.1451690 139.0855910  56.4645880  25.5524350 140.4760810
  50.2841240  30.0867810 138.5733540  50.7985910  29.9975820 139.3755970
  49.4410320  30.4327510 138.8661450  52.2595640  30.3723150 128.0017540
  52.0996780  30.0826090 128.8999370  52.0942350  29.5963280 127.4662770
  44.7384020  30.1521680 129.7789160  44.5626500  29.2357220 129.5656960
  43.8839760  30.5108970 130.0186960  51.9621770  27.8810710 126.5615540
  51.2686930  27.8788000 125.9017820  52.7044630  27.4570030 126.1309710
  51.5271700  29.5073420 130.6364030  51.9828650  28.7262800 130.9502650
  51.8664220  30.2180240 131.1805210  56.2748510  18.4372270 140.9688470
  55.6592780  18.9451940 140.4403930  55.9544930  17.5370600 140.9114410
  39.2774250  25.2789880 137.7954770  39.4405290  24.8095240 136.9774140
  39.7426700  24.7713440 138.4603610  44.0493020  14.4095640 132.8315340
  43.6061170  15.1905180 132.4999860  44.6078010  14.7325530 133.5386280
  48.3362830  17.2764160 138.4350660  47.8742200  17.4847180 139.2470600
  47.9340940  16.4623510 138.1321330  53.3367340  18.4973110 139.5647320
  52.4860930  18.1978860 139.8856390  53.1769130  18.7415120 138.6531140
  50.4317050  19.9974860 141.6646110  50.7570460  19.1638610 141.3248340
  51.2197380  20.5203380 141.8124440  47.1651840  14.0306340 127.7121170
  46.5406020  14.0266210 128.4374480  47.0781960  13.1637300 127.3157140
  46.0868920  14.9542970 134.6904940  46.3841250  15.8605800 134.6096960
  46.6354480  14.4661750 134.0764510  43.8407240  19.5329210 130.5596590
  43.6148160  19.3166380 131.4643210  43.0599770  19.9657670 130.2142560
  51.0705000  19.5392580 129.1587240  50.4713890  20.2628380 128.9750860
  51.6184610  19.4769360 128.3763690  46.2806450  20.4314790 141.2256860
  46.1850050  19.4909520 141.0757260  47.1238430  20.6529860 140.8304930
  49.6769870  18.1756120 131.1890520  50.0699440  18.4928320 130.3759210
  50.0386720  17.2968000 131.3035040  41.4116990  16.8428460 139.3790640
  41.0180380  17.6903670 139.5863420  40.7235390  16.2054830 139.5699280
  47.9862040  16.9263430 142.4487380  47.2960360  16.7335630 143.0833470
  48.7294340  17.2098070 142.9811680  38.7134040  14.7656920 133.4120720
  38.4247090  15.3359780 134.1245700  39.4579800  14.2861370 133.7751950
  38.9004270  18.7077040 124.6223440  38.8178940  19.6507800 124.7638430
  38.5487330  18.5651950 123.7435790  50.2625010  20.7661870 135.2841300
  49.5306130  21.2748680 135.6331400  49.8649350  19.9491850 134.9830080
  46.7002400  17.4416070 133.6893790  46.7038460  17.0006020 132.8398330
  47.5953520  17.7633400 133.7965610  42.5504780  17.3242560 132.6488000
  42.2104830  17.8017790 133.4055050  41.7882100  16.8707680 132.2889100
  46.7622550  18.4428150 126.6800550  46.8835370  18.4014630 127.6286370
  46.3771060  19.3052300 126.5247280  50.7250920  16.2195550 134.6964240
  50.7423660  16.6704200 135.5406090  50.4766500  15.3201190 134.9097680
  45.7744050  20.7529290 126.0783850  45.2060950  20.3047540 125.4519760
  46.4833050  21.1122070 125.5449000  54.1521670  13.6327730 140.5350620
  54.4767440  12.9017390 141.0608600  54.1878180  13.3141370 139.6331610
  40.8513230  24.6541310 139.9550580  40.4668020  24.0134980 140.5533540
  41.1625420  25.3577430 140.5245310  47.0010370  21.5017850 135.4359200
  47.3680500  21.0276420 136.1820540  46.8115430  22.3759420 135.7767540
  39.8650860  16.2461540 131.5652670  39.5797780  15.8817210 132.4031290
  39.8029720  15.5142000 130.9515810  44.7909740  20.5426490 137.7543410
  44.4866810  21.4218470 137.9793770  45.7456200  20.6026280 137.7900850
  43.3191530  24.7487480 128.3510260  42.5453790  24.2085100 128.1908980
  44.0486160  24.2294090 128.0128020  54.0779510  23.7452840 134.1436650
  54.7978630  24.2408130 133.7532760  53.8761330  23.0670730 133.4990520
  49.5389450  15.1390800 128.2866040  48.7254060  14.6403970 128.2111350
  49.3451400  15.9789050 127.8702390  49.4598310  23.8161900 140.0305650
  49.3935620  22.8957570 139.7763240  48.8303450  23.9137340 140.7450290
  52.2537840  19.5110450 126.5828200  53.1417460  19.8227680 126.4079540
  52.2242930  18.6382700 126.1908780  43.3628930  24.4167860 131.9889070
  43.8807600  23.6136120 131.9345960  42.9112950  24.3547000 132.8305900
  48.2498430  25.6834140 127.2616370  48.5914130  26.4276370 126.7659690
  47.4211140  25.9965260 127.6241200  40.8473470  21.3829230 138.9014770
  40.4888410  22.0483080 139.4888110  40.5528030  20.5512780 139.2727390
  44.0486590  21.8413470 141.7854320  43.7486730  21.9870650 140.8882140
  44.8197830  21.2818760 141.6927710  49.3915040  26.6382470 139.7809450
  49.4059580  25.7063430 139.5628360  48.6840140  26.7242230 140.4199220
  54.5252110  20.8222290 126.0508060  54.4415830  21.2536510 125.2004500
  55.2446300  21.2820640 126.4834880  55.6026250  23.2789810 139.1278030
  54.8774440  23.8718590 138.9307420  56.1301710  23.2713350 138.3291400
  55.5539360  27.6764550 128.7790190  54.9115520  27.0220170 129.0533910
  55.1670020  28.0819640 128.0030860  51.1325840  25.0049980 132.6261880
  51.4849660  24.4078110 131.9663250  50.2488170  24.6794210 132.7970130
  47.2189120  25.7647670 130.0332290  47.9060250  26.3116880 130.4139880
  46.4321540  26.3088400 130.0681900  39.3581520  21.3820490 125.5249370
  40.2276370  21.6645290 125.8085290  38.8671840  22.1956360 125.4098180
  46.5216330  22.7693700 129.6457650  46.9779110  23.5798950 129.8717840
  46.1704540  22.4516840 130.4776140  48.8248940  28.2800040 136.8749950
  49.4691160  28.4859420 137.5523370  49.1878380  27.5188440 136.4220800
  42.4228110  13.1131350 130.1180170  42.2942740  13.1049250 131.0665090
  41.5990130  13.4514440 129.7671180  50.0981020  26.2832390 135.5927400
  50.7403250  25.5825550 135.7059570  50.6230370  27.0630830 135.4124290
  53.9436740  26.5681010 125.3166540  53.7174320  25.8511450 125.9091180
  53.5532940  26.3193450 124.4788290  51.8718640  27.0827290 138.7963460
  52.2074880  27.6693980 139.4741380  50.9518980  26.9520000 139.0261250
  39.7252770  30.5947870 126.0911000  40.0850410  31.1937210 125.4368270
  39.5845110  31.1407760 126.8646030  39.4222040  14.8722470 139.5786870
  38.7080560  15.0719390 140.1839480  39.8417080  14.0962040 139.9501670
  53.5252990  24.4852950 126.9780700  53.2374690  24.9465640 127.7658580
  54.3205160  24.0250720 127.2464920  39.7094630  28.8602730 140.5653400
  39.8185750  27.9197470 140.4248790  39.0575190  29.1257480 139.9167130
  47.7007220  27.1318620 141.9651520  47.3804090  26.4127860 142.5097210
  47.0265580  27.8073690 142.0387580  45.7421390  27.9779070 126.9084670
  45.7331490  28.7108760 126.2929180  44.8219750  27.7310650 127.0011630
  41.3428030  23.1993960 127.6531430  40.7355980  23.9392860 127.6626730
  41.8177380  23.2893320 126.8269630  50.9160820  17.3644780 137.3288320
  51.2841640  16.5439990 137.6567890  50.0559020  17.4246670 137.7443970
  54.2822850  16.3201720 128.1375880  53.6536010  16.4247390 127.4234110
  53.7874770  16.5398500 128.9269760  48.7280990  28.0407310 125.5709860
  48.8292970  27.8371300 124.6411840  47.8282730  27.7865590 125.7757640
  46.2506880  18.5987670 129.5533760  45.5423030  19.0674010 129.9947370
  46.5351360  17.9409680 130.1878950  47.8762810  20.0184370 137.5526290
  48.3748060  20.4930190 138.2178140  48.0185760  19.0947890 137.7596320
  50.2822310  15.3238330 130.9929550  50.1590090  15.3424460 130.0439060
  51.2306870  15.3717270 131.1127950  47.3699100  30.5593630 130.2657530
  47.6240600  30.5215020 129.3436900  46.4211580  30.4326960 130.2585780
  44.4541900  16.9072750 126.9284470  45.3032430  17.3442900 126.8624660
  44.0873170  17.2193010 127.7556530  55.0829670  16.2352330 138.3954680
  54.5803270  16.9757730 138.7348490  55.8986330  16.6236330 138.0791470
  53.3751680  21.4785510 131.8416040  52.4341820  21.4935740 132.0163730
  53.6895750  20.6921470 132.2876340  43.3533320  23.1605110 125.4020000
  44.1196590  23.0486470 125.9645430  43.4308010  22.4643080 124.7496770
  42.0480080  20.5930180 126.0852890  42.1283670  19.6457690 126.1970290
  42.9399830  20.9237060 126.1913550  55.3777260  28.6494360 133.5170300
  55.5024680  29.4725530 133.9894110  56.2442820  28.4385090 133.1694450
  42.8494790  30.7425570 133.1887430  43.5857270  30.1941030 133.4596000
  43.2335710  31.6081580 133.0493420  39.7340270  26.8099140 129.0628940
  38.8080050  27.0520280 129.0534350  40.1996700  27.6373400 128.9413690
  41.8553070  29.9271640 142.3773010  42.6565800  30.2483690 142.7908410
  41.3404890  29.5667220 143.0992920  45.9597100  29.9155880 125.0113000
  46.7525710  30.2044710 124.5594790  45.4401450  29.4848050 124.3325480
  50.6917700  26.0351510 142.3248420  50.0855860  26.0583110 141.5844170
  50.3871810  25.3034550 142.8615670  52.1218070  29.7631800 140.9357830
  53.0739820  29.6789820 140.8858070  51.9746290  30.4273510 141.6091620
  55.0127270  29.1426010 126.4349740  54.7268780  28.7291150 125.6203920
  54.8146820  30.0713720 126.3150260  39.5750880  22.4145100 141.3209060
  40.0789900  21.8352380 141.8925290  38.8358300  22.6985330 141.8585430
  46.4774500  25.1359290 124.8755350  46.3725140  24.5211640 125.6016730
  46.3098720  24.6125180 124.0918360  46.6288820  23.8216090 140.8544580
  45.8634490  24.3901090 140.7699250  46.8104780  23.5292300 139.9612810
  49.7177230  24.1979320 125.4797340  49.1687330  24.6448620 126.1240080
  50.3396490  23.6928570 126.0035010  53.7712170  25.5521420 141.4119600
  54.5121640  25.8897180 140.9087060  53.0084850  25.7213480 140.8589370
  41.6073960  20.5574690 142.2159130  41.6479300  20.2588560 143.1244360
  42.4619460  20.9582300 142.0566650  45.3852350  23.1570240 127.3762640
  45.8068770  22.9910110 128.2194030  45.5103190  22.3470470 126.8817780
  43.5479770  19.1366790 140.1833620  43.0176230  18.6457740 139.5556960
  44.2167840  19.5650990 139.6491550  47.8979990  22.1807850 124.6239740
  48.4185650  21.4656870 124.2580890  48.5448390  22.8193720 124.9240250
  52.4457830  23.6036250 139.9474810  52.8598850  23.7581330 140.7965230
  51.5108830  23.7291470 140.1100590  52.9180000  20.9432410 141.9513960
  53.5000770  20.1884730 141.8634440  53.0941770  21.4739850 141.1745440
  44.0352070  16.1029160 140.2630910  43.9408940  15.4849910 139.5381780
  43.4549460  16.8295450 140.0360820  46.8013510  14.6602400 137.2958300
  46.3530810  14.6826660 136.4503850  46.1678710  14.2621420 137.8928600
  47.2073060  23.5556730 137.9170740  47.6261170  24.3989460 137.7446980
  46.2881690  23.6928770 137.6877520  49.5436960  21.2872910 139.3008580
  49.6633170  20.6914050 140.0403420  50.4030960  21.3242600 138.8809880
  51.8824860  21.8410100 137.8771090  51.3560080  22.3652720 137.2736230
  52.2256200  22.4737490 138.5080820  44.2811250  19.2303470 124.3220800
  44.0800310  18.3670830 124.6834140  44.1103300  19.1436830 123.3842400
  45.0580480  29.8609740 139.0328470  44.5201570  30.5855800 138.7137170
  45.3114440  29.3840080 138.2425810  46.3105730  17.8294260 140.5584400
  46.9005420  17.5210110 141.2462220  45.4925970  17.3574010 140.7144300
  51.1299160  17.4460070 140.7917420  50.4414680  16.7841610 140.7267410
  51.8505180  16.9998340 141.2365880  51.7599560  14.0411700 126.8507680
  52.0401850  13.1979600 127.2067100  50.9865290  14.2734810 127.3646430
  43.0794050  16.3304090 124.3098680  43.3819950  16.3371520 123.4017830
  43.8188640  15.9801950 124.8066340  47.9142690  31.0960950 139.2915120
  47.8401390  31.9996090 139.5987490  47.0121530  30.7772850 139.2637190
  46.2978980  15.2738710 125.2954880  45.9500980  14.5962700 124.7157330
  46.4991750  14.8128220 126.1098270  48.4628020  30.2619460 126.9141480
  49.3578810  30.6004430 126.9360240  48.4945650  29.5398870 126.2865760
  42.1024180  25.6346510 125.1428480  42.5399050  26.1776180 125.7986060
  42.5871910  24.8093460 125.1524820  39.3169980  28.4235540 132.5948740
  39.6472990  27.5556600 132.3627380  39.7460980  28.6294060 133.4253700
  43.9131900  26.7544550 130.2550710  43.6127440  26.6309520 131.1554620
  43.8069390  25.8953140 129.8466440  39.8060190  29.2906130 135.3330370
  39.3691180  29.4706930 136.1654520  40.3737870  30.0480750 135.1912090
  55.4422370  28.7923130 139.6207680  54.8424360  28.8515690 138.8771600
  55.5716270  27.8528110 139.7504530  56.6823820  26.5340950 124.9577390
  55.8516780  26.6017600 125.4284620  56.8595650  27.4245070 124.6544250
  56.1380280  23.2788430 127.4611590  56.8999190  23.8485080 127.5671280
  56.1534650  22.7115630 128.2319900  39.6384620  21.8026360 131.6919250
  38.9833460  21.5338000 131.0478950  40.4762570  21.6930840 131.2421230
  57.1440250  24.1338530 132.3053520  57.5149080  23.3505850 131.8989490
  57.7842180  24.8227630 132.1270820  54.1274010  25.5175110 137.7183840
  53.3133850  25.9472270 137.9809630  54.5348210  26.1293520 137.1052890
  56.1899450  23.5722800 124.6184110  56.4648290  24.4801680 124.4903330
  56.0010190  23.5085330 125.5546100  52.5875060  16.5967650 125.9137740
  53.0059940  16.4098630 125.0734400  52.2811120  15.7446700 126.2240670
  56.0864790  21.5091790 129.6113540  55.7108390  20.7419720 129.1794830
  55.3567910  21.8914490 130.0988470  40.6760550  22.1878930 136.2322590
  41.0433590  22.1006330 137.1118610  40.1071370  21.4245480 136.1329450
  55.4764410  20.6563310 139.2453060  55.2450500  20.4276060 138.3451010
  55.7368960  21.5762860 139.1997950  40.2276550  19.0988020 140.1381010
  39.3332600  19.0654780 140.4774720  40.7674100  19.2974810 140.9032260
  53.9152480  15.8819740 142.0232760  54.7922660  15.8903140 142.4066760
  53.9273320  15.1450580 141.4125110  38.8522700  19.0125290 127.6344580
  37.9486780  19.2755490 127.4596240  39.3363320  19.2836460 126.8544540
  55.3615750  19.7349280 132.9120780  55.8853230  19.2411930 132.2810950
  55.9475170  19.8699640 133.6568350  55.5405470  19.8189150 136.4340330
  54.5908180  19.7852690 136.5485320  55.7218480  20.7289260 136.1990100
  41.3949910  18.0690830 125.5438960  42.1041610  17.6474050 125.0586240
  40.6789850  18.1366060 124.9122310  41.0424070  14.1230160 124.5841610
  41.7652200  14.6639100 124.9022830  41.3148590  13.8493580 123.7083150
  54.8515720  18.9922630 128.8513190  55.3474840  18.7593500 129.6362070
  54.6531790  18.1534470 128.4350830  40.7316260  13.3736350 134.4864230
  41.3792450  12.8233730 134.0459390  41.1518100  13.6279500 135.3080040
  56.2802880  17.6283580 131.3850870  56.1702160  17.4739620 132.3233140
  57.0410470  17.1004520 131.1426280  54.6268600  13.5677710 137.8433870
  55.2640820  14.1811850 138.2093060  54.7743490  13.6038370 136.8983100
  57.1693150  15.4591500 124.6257010  58.0942460  15.3272680 124.4175300
  57.1468940  15.5384320 125.5793460  57.2431640  16.2302160 127.2513720
  56.4483140  16.1647280 127.7806630  57.4474920  17.1652800 127.2399070
  54.1850060  30.2693710 131.2452110  54.7809130  29.9478280 130.5686530
  54.4428210  29.7965530 132.0365380  40.4848260  13.5292020 137.2289550
  40.1363080  13.9855840 137.9947730  40.1535960  12.6349150 137.3111980
  42.0912630  26.7011620 141.3942740  42.0482260  26.3304530 142.2757200
  42.2223640  27.6389190 141.5344560  45.7918660  28.2571210 136.9952460
  45.5510020  28.5245770 136.1082980  46.7321300  28.4276940 137.0503320
  47.9973080  14.7203900 140.7508970  47.9361970  15.3125730 141.5004380
  48.9373460  14.6129860 140.6059230  50.6347640  14.3773960 140.3901260
  51.2488050  14.6953250 139.7282340  51.1797200  13.8922550 141.0097120
  57.0522820  30.2765590 137.7963100  56.5581100  30.6734460 137.0790230
  56.4436110  29.6514800 138.1900380  41.1568900  13.0568220 140.5040320
  41.7051890  12.8756270 139.7406430  41.2224210  12.2662330 141.0396630
  41.9300660  29.6473870 138.5140520  41.3360980  29.5158570 139.2530560
  41.9224500  28.8112010 138.0482620  51.3755680  12.9406100 136.7170550
  50.5015520  13.2741210 136.5143480  51.2666430  12.4679280 137.5422420
  52.2827660  15.1476970 138.1012270  51.9541020  14.3328730 137.7214000
  53.2309960  15.1046780 137.9777960  54.7362270  30.9189010 135.0749840
  54.2765240  31.6704820 134.7007860  54.1074730  30.1995480 135.0164640
  41.5612890  27.0132250 137.4648560  40.8346950  26.3937540 137.3974510
  41.6222040  27.4072860 136.5946640  45.1657990  29.2277250 134.2497970
  45.6823010  28.6164610 133.7246230  45.8155370  29.7306030 134.7408980
  47.9053490  30.1185740 135.0766950  48.1931300  29.8640040 134.1999960
  48.4176710  29.5663100 135.6672520  49.1230500  13.8575940 135.6563460
  48.3402290  14.3321440 135.9360220  48.8293430  12.9530770 135.5476640
  53.6751570  14.5599040 133.7012550  54.1159660  14.5044140 132.8534150
  53.4059160  15.4757050 133.7722730  55.5390140  14.1914280 131.7121370
  55.4778540  13.2475500 131.5652390  56.3182170  14.2994370 132.2574830
  39.8442890  30.3306640 130.6745320  39.6764930  29.6977320 131.3727210
  38.9777400  30.5366040 130.3239510  40.4670910  14.1623420 128.1777180
  41.2250270  14.2752300 127.6041210  40.0048080  14.9992620 128.1320610
  47.0084720  16.2762690 131.1679490  46.1959230  15.9019580 130.8275370
  47.5126360  15.5207770 131.4700680  51.5109700  12.9405140 132.4062560
  52.1139070  13.5125350 132.8811080  50.7702690  13.5044580 132.1836460
  54.6544300  13.3426700 127.6802840  54.8494930  14.2410150 127.9470270
  53.8674170  13.1113780 128.1735790  41.4505590  29.0239870 128.1195460
  40.9253210  29.4047900 127.4157420  41.3750170  29.6490640 128.8405170
  42.8396060  14.6887470 126.7179150  43.3688820  13.9017270 126.5887100
  43.4724380  15.3678660 126.9514680  45.0333900  14.4262610 129.7724540
  44.4036640  13.7249920 129.9394670  44.4939040  15.1866740 129.5557700
  47.9725850  31.0401840 142.4435150  48.8993160  30.8046110 142.4871110
  47.9576280  31.8673840 141.9621180  56.2070910  30.5827410 129.4409400
  56.3823100  29.8965150 128.7970320  55.5092480  31.1074460 129.0486070
  45.1589460  13.7046590 142.2077030  44.8773730  14.2080190 141.4437850
  45.5409160  12.9068340 141.8419160  44.0498560  30.9722250 126.9944710
  44.7817380  30.6881530 126.4468600  44.3092230  30.7335530 127.8844090
  43.2113350  27.0886980 126.9991040  42.5822230  27.5572080 127.5476870
  43.3261180  26.2436200 127.4337230  51.7604920  13.1200170 142.7857500
  51.6470370  13.4394780 143.6809020  52.5774660  13.5212680 142.4894780
  54.5403410  30.2671700 142.2676190  55.3328730  29.7720930 142.0602150
  54.8336560  30.9461840 142.8751800  50.6663070  21.1392640 113.1492240
  50.5857120  20.2247250 112.8783950  50.2527490  21.6359710 112.4431950
  48.7981110  22.9171660 115.0301510  48.0223210  22.4372100 115.3200080
  49.4494040  22.2377310 114.8557670  42.8146940  23.2291470 115.9077270
  41.9831820  22.9740180 116.3073780  43.4227920  23.3002240 116.6435190
  52.8188540  27.3231850 113.8100640  52.3570070  26.5519090 114.1387810
  53.6314090  27.3497920 114.3153090  42.7948200  27.2631560 116.1035290
  43.0976240  26.3729300 115.9245510  43.5391790  27.8201780 115.8757540
  41.2238890  18.1893360 109.6919660  40.3355590  18.5309330 109.5899540
  41.5080080  17.9893680 108.8000490  39.1871900  20.7899010 115.5759360
  39.7588010  20.0221210 115.5763000  39.1873440  21.0887770 114.6665970
  49.0451850  29.6089860 113.4304630  48.4263290  30.0647360 112.8599070
  49.9003630  29.7641320 113.0294330  48.2390100  25.5928850 115.0371670
  48.1698380  24.6518790 114.8760800  49.0009960  25.6830260 115.6094240
  40.4296770  16.1983370 117.3628290  40.2499610  15.3009120 117.6431050
  40.0276850  16.7455240 118.0375240  49.2695270  18.3999230 115.2640600
  49.6460090  17.5271110 115.1514270  49.1714780  18.7357930 114.3731040
  43.4000280  16.7724860 110.7258040  43.5067030  17.6728590 111.0326800
  42.4892640  16.7242830 110.4352690  53.0519390  15.8949670 112.1968940
  53.8729010  15.4046240 112.2394420  53.0853470  16.4847330 112.9500780
  41.0483440  18.6943870 115.9710630  41.7293550  18.9582240 116.5898030
  40.7331490  17.8544740 116.3048640  45.2408010  19.7411230 115.0583220
  45.7486230  20.2392200 115.6988240  45.7721250  18.9646430 114.8822580
  57.3418940  17.9116420 118.7612570  56.6371110  18.2998130 118.2427680
  57.6076860  18.6066710 119.3633500  43.5244110  14.3809790 119.3246640
  43.5262550  14.8982180 118.5192540  42.6948420  13.9039970 119.3016570
  49.9115200  24.4929100 110.8236540  49.2932470  24.9578550 110.2599260
  50.4238450  25.1856580 111.2406050  44.7746960  24.0204970 117.5020140
  44.4416340  24.6473890 118.1441210  44.9513640  24.5466850 116.7221810
  53.2880870  17.8350050 114.9696480  52.5836440  18.1234940 115.5499590
  53.6493030  18.6450160 114.6096040  43.2059440  16.0919750 117.3317090
  43.5476250  16.9361800 117.0370960  42.2675250  16.2403490 117.4482430
  43.9866060  25.9885770 119.3169320  44.6040060  26.6636850 119.0353770
  43.1259180  26.3973750 119.2256820  39.2798400  25.1785630 108.1976170
  38.9026380  25.6672730 107.4661070  39.5371470  25.8510910 108.8282700
  54.9043650  27.4525180 117.2323960  54.2207170  28.1224290 117.2240630
  55.4437940  27.6505830 116.4668820  56.3567790  17.2804840 115.3605690
  55.4092700  17.3143820 115.4921120  56.6817780  18.0943790 115.7455050
  46.8887330  13.5802020 113.6561680  47.1962310  13.0248910 112.9397180
  45.9588030  13.7146480 113.4734670  52.4402390  29.2969310 115.9469140
  52.4529550  28.8931600 115.0791400  51.8877610  30.0716600 115.8430570
  53.7347810  26.0185530 111.0359310  53.6244140  25.0759860 111.1608730
  53.7316060  26.3801170 111.9222070  51.8387830  24.1999150 117.2751750
  52.2556620  23.9859260 116.4405210  52.5627650  24.4571940 117.8460370
  49.2768090  21.6450850 110.3921800  48.3497370  21.5788230 110.6210270
  49.4292910  22.5830980 110.2777040  49.2637170  17.9167850 107.3888960
  48.3240840  18.0781810 107.4741420  49.5820430  18.6353530 106.8424950
  55.7849930  22.5986370 117.3667990  54.9568560  22.6679460 116.8918120
  56.3800410  23.1840680 116.8983820  53.3065380  23.2071150 110.8957050
  52.6877800  22.8690700 110.2483350  53.2889830  22.5630910 111.6036240
  52.7491940  19.3855690 118.3122860  52.3363120  20.2109400 118.5662850
  52.0167890  18.8000730 118.1199220  44.8824730  22.1715590 113.1741530
  44.4781730  21.4592840 112.6787430  44.9687850  21.8268830 114.0629570
  45.3506430  25.8583150 115.3380740  45.0534720  25.2528620 114.6588520
  46.3006250  25.8960460 115.2270100  43.5953350  18.9458800 116.9540570
  44.1467940  19.0554140 116.1793820  44.1096860  19.3196400 117.6695800
  53.4392040  29.4315020 119.0003840  52.9622600  30.2387210 118.8076450
  52.7553830  28.7793350 119.1530050  44.4424860  25.5964840 121.9888540
  43.5453390  25.8204810 122.2361940  44.4677730  25.7199780 121.0399940
  51.4830080  22.4457960 107.9029800  51.9223360  21.6080390 107.7567620
  52.1958500  23.0787360 107.9893940  43.2696080  22.4678160 120.5645910
  43.1303850  23.3400960 120.9333310  42.3877440  22.1250970 120.4193850
  49.5925460  27.3854030 111.8711040  50.0321370  28.1278360 111.4566430
  49.5312350  27.6280600 112.7950000  45.0676430  28.4099860 122.7731060
  45.0391860  28.8142810 121.9059490  44.9041400  27.4810220 122.6102660
  55.0647220  13.7000770 106.2170840  54.7519880  13.7927600 107.1169910
  55.8259690  14.2781800 106.1668270  41.5829360  21.0660570 110.6748180
  41.4626960  21.7922660 110.0629450  41.2730250  20.2963480 110.1976090
  57.0191250  29.1926960 124.0695230  57.4950970  29.6709850 124.7484310
  57.6398410  29.1244450 123.3440730  39.2214730  24.2375710 116.4816820
  39.2995150  24.3724480 115.5372540  39.8356410  23.5291600 116.6744940
  40.4662360  25.9375900 112.8923000  40.0590440  26.0790490 112.0376600
  41.3575370  25.6536060 112.6894210  56.4224500  26.3839810 121.2295240
  56.5487560  26.1451690 120.3112420  56.4645880  25.5524350 121.7017320
  50.2841240  30.0867810 119.7990050  50.7985910  29.9975820 120.6012480
  49.4410320  30.4327510 120.0917960  52.2595640  30.3723150 109.2274050
  52.0996780  30.0826090 110.1255880  52.0942350  29.5963280 108.6919280
  44.7384020  30.1521680 111.0045670  44.5626500  29.2357220 110.7913470
  43.8839760  30.5108970 111.2443470  51.9621770  27.8810710 107.7872050
  51.2686930  27.8788000 107.1274330  52.7044630  27.4570030 107.3566220
  51.5271700  29.5073420 111.8620540  51.9828650  28.7262800 112.1759160
  51.8664220  30.2180240 112.4061720  56.2748510  18.4372270 122.1944980
  55.6592780  18.9451940 121.6660440  55.9544930  17.5370600 122.1370920
  39.2774250  25.2789880 119.0211280  39.4405290  24.8095240 118.2030650
  39.7426700  24.7713440 119.6860120  44.0493020  14.4095640 114.0571850
  43.6061170  15.1905180 113.7256370  44.6078010  14.7325530 114.7642790
  48.3362830  17.2764160 119.6607170  47.8742200  17.4847180 120.4727110
  47.9340940  16.4623510 119.3577840  53.3367340  18.4973110 120.7903830
  52.4860930  18.1978860 121.1112900  53.1769130  18.7415120 119.8787650
  50.4317050  19.9974860 122.8902620  50.7570460  19.1638610 122.5504850
  51.2197380  20.5203380 123.0380950  47.1651840  14.0306340 108.9377680
  46.5406020  14.0266210 109.6630990  47.0781960  13.1637300 108.5413650
  46.0868920  14.9542970 115.9161450  46.3841250  15.8605800 115.8353470
  46.6354480  14.4661750 115.3021020  43.8407240  19.5329210 111.7853100
  43.6148160  19.3166380 112.6899720  43.0599770  19.9657670 111.4399070
  51.0705000  19.5392580 110.3843750  50.4713890  20.2628380 110.2007370
  51.6184610  19.4769360 109.6020200  46.2806450  20.4314790 122.4513370
  46.1850050  19.4909520 122.3013770  47.1238430  20.6529860 122.0561440
  49.6769870  18.1756120 112.4147030  50.0699440  18.4928320 111.6015720
  50.0386720  17.2968000 112.5291550  41.4116990  16.8428460 120.6047150
  41.0180380  17.6903670 120.8119930  40.7235390  16.2054830 120.7955790
  47.9862040  16.9263430 123.6743890  47.2960360  16.7335630 124.3089980
  48.7294340  17.2098070 124.2068190  38.7134040  14.7656920 114.6377230
  38.4247090  15.3359780 115.3502210  39.4579800  14.2861370 115.0008460
  38.9004270  18.7077040 105.8479950  38.8178940  19.6507800 105.9894940
  38.5487330  18.5651950 104.9692300  50.2625010  20.7661870 116.5097810
  49.5306130  21.2748680 116.8587910  49.8649350  19.9491850 116.2086590
  46.7002400  17.4416070 114.9150300  46.7038460  17.0006020 114.0654840
  47.5953520  17.7633400 115.0222120  42.5504780  17.3242560 113.8744510
  42.2104830  17.8017790 114.6311560  41.7882100  16.8707680 113.5145610
  46.7622550  18.4428150 107.9057060  46.8835370  18.4014630 108.8542880
  46.3771060  19.3052300 107.7503790  50.7250920  16.2195550 115.9220750
  50.7423660  16.6704200 116.7662600  50.4766500  15.3201190 116.1354190
  45.7744050  20.7529290 107.3040360  45.2060950  20.3047540 106.6776270
  46.4833050  21.1122070 106.7705510  54.1521670  13.6327730 121.7607130
  54.4767440  12.9017390 122.2865110  54.1878180  13.3141370 120.8588120
  40.8513230  24.6541310 121.1807090  40.4668020  24.0134980 121.7790050
  41.1625420  25.3577430 121.7501820  47.0010370  21.5017850 116.6615710
  47.3680500  21.0276420 117.4077050  46.8115430  22.3759420 117.0024050
  39.8650860  16.2461540 112.7909180  39.5797780  15.8817210 113.6287800
  39.8029720  15.5142000 112.1772320  44.7909740  20.5426490 118.9799920
  44.4866810  21.4218470 119.2050280  45.7456200  20.6026280 119.0157360
  43.3191530  24.7487480 109.5766770  42.5453790  24.2085100 109.4165490
  44.0486160  24.2294090 109.2384530  54.0779510  23.7452840 115.3693160
  54.7978630  24.2408130 114.9789270  53.8761330  23.0670730 114.7247030
  49.5389450  15.1390800 109.5122550  48.7254060  14.6403970 109.4367860
  49.3451400  15.9789050 109.0958900  49.4598310  23.8161900 121.2562160
  49.3935620  22.8957570 121.0019750  48.8303450  23.9137340 121.9706800
  52.2537840  19.5110450 107.8084710  53.1417460  19.8227680 107.6336050
  52.2242930  18.6382700 107.4165290  43.3628930  24.4167860 113.2145580
  43.8807600  23.6136120 113.1602470  42.9112950  24.3547000 114.0562410
  48.2498430  25.6834140 108.4872880  48.5914130  26.4276370 107.9916200
  47.4211140  25.9965260 108.8497710  40.8473470  21.3829230 120.1271280
  40.4888410  22.0483080 120.7144620  40.5528030  20.5512780 120.4983900
  44.0486590  21.8413470 123.0110830  43.7486730  21.9870650 122.1138650
  44.8197830  21.2818760 122.9184220  49.3915040  26.6382470 121.0065960
  49.4059580  25.7063430 120.7884870  48.6840140  26.7242230 121.6455730
  54.5252110  20.8222290 107.2764570  54.4415830  21.2536510 106.4261010
  55.2446300  21.2820640 107.7091390  55.6026250  23.2789810 120.3534540
  54.8774440  23.8718590 120.1563930  56.1301710  23.2713350 119.5547910
  55.5539360  27.6764550 110.0046700  54.9115520  27.0220170 110.2790420
  55.1670020  28.0819640 109.2287370  51.1325840  25.0049980 113.8518390
  51.4849660  24.4078110 113.1919760  50.2488170  24.6794210 114.0226640
  47.2189120  25.7647670 111.2588800  47.9060250  26.3116880 111.6396390
  46.4321540  26.3088400 111.2938410  39.3581520  21.3820490 106.7505880
  40.2276370  21.6645290 107.0341800  38.8671840  22.1956360 106.6354690
  46.5216330  22.7693700 110.8714160  46.9779110  23.5798950 111.0974350
  46.1704540  22.4516840 111.7032650  48.8248940  28.2800040 118.1006460
  49.4691160  28.4859420 118.7779880  49.1878380  27.5188440 117.6477310
  42.4228110  13.1131350 111.3436680  42.2942740  13.1049250 112.2921600
  41.5990130  13.4514440 110.9927690  50.0981020  26.2832390 116.8183910
  50.7403250  25.5825550 116.9316080  50.6230370  27.0630830 116.6380800
  53.9436740  26.5681010 106.5423050  53.7174320  25.8511450 107.1347690
  53.5532940  26.3193450 105.7044800  51.8718640  27.0827290 120.0219970
  52.2074880  27.6693980 120.6997890  50.9518980  26.9520000 120.2517760
  39.7252770  30.5947870 107.3167510  40.0850410  31.1937210 106.6624780
  39.5845110  31.1407760 108.0902540  39.4222040  14.8722470 120.8043380
  38.7080560  15.0719390 121.4095990  39.8417080  14.0962040 121.1758180
  53.5252990  24.4852950 108.2037210  53.2374690  24.9465640 108.9915090
  54.3205160  24.0250720 108.4721430  39.7094630  28.8602730 121.7909910
  39.8185750  27.9197470 121.6505300  39.0575190  29.1257480 121.1423640
  47.7007220  27.1318620 123.1908030  47.3804090  26.4127860 123.7353720
  47.0265580  27.8073690 123.2644090  45.7421390  27.9779070 108.1341180
  45.7331490  28.7108760 107.5185690  44.8219750  27.7310650 108.2268140
  41.3428030  23.1993960 108.8787940  40.7355980  23.9392860 108.8883240
  41.8177380  23.2893320 108.0526140  50.9160820  17.3644780 118.5544830
  51.2841640  16.5439990 118.8824400  50.0559020  17.4246670 118.9700480
  54.2822850  16.3201720 109.3632390  53.6536010  16.4247390 108.6490620
  53.7874770  16.5398500 110.1526270  48.7280990  28.0407310 106.7966370
  48.8292970  27.8371300 105.8668350  47.8282730  27.7865590 107.0014150
  46.2506880  18.5987670 110.7790270  45.5423030  19.0674010 111.2203880
  46.5351360  17.9409680 111.4135460  47.8762810  20.0184370 118.7782800
  48.3748060  20.4930190 119.4434650  48.0185760  19.0947890 118.9852830
  50.2822310  15.3238330 112.2186060  50.1590090  15.3424460 111.2695570
  51.2306870  15.3717270 112.3384460  47.3699100  30.5593630 111.4914040
  47.6240600  30.5215020 110.5693410  46.4211580  30.4326960 111.4842290
  44.4541900  16.9072750 108.1540980  45.3032430  17.3442900 108.0881170
  44.0873170  17.2193010 108.9813040  55.0829670  16.2352330 119.6211190
  54.5803270  16.9757730 119.9605000  55.8986330  16.6236330 119.3047980
  53.3751680  21.4785510 113.0672550  52.4341820  21.4935740 113.2420240
  53.6895750  20.6921470 113.5132850  43.3533320  23.1605110 106.6276510
  44.1196590  23.0486470 107.1901940  43.4308010  22.4643080 105.9753280
  42.0480080  20.5930180 107.3109400  42.1283670  19.6457690 107.4226800
  42.9399830  20.9237060 107.4170060  55.3777260  28.6494360 114.7426810
  55.5024680  29.4725530 115.2150620  56.2442820  28.4385090 114.3950960
  42.8494790  30.7425570 114.4143940  43.5857270  30.1941030 114.6852510
  43.2335710  31.6081580 114.2749930  39.7340270  26.8099140 110.2885450
  38.8080050  27.0520280 110.2790860  40.1996700  27.6373400 110.1670200
  41.8553070  29.9271640 123.6029520  42.6565800  30.2483690 124.0164920
  41.3404890  29.5667220 124.3249430  45.9597100  29.9155880 106.2369510
  46.7525710  30.2044710 105.7851300  45.4401450  29.4848050 105.5581990
  50.6917700  26.0351510 123.5504930  50.0855860  26.0583110 122.8100680
  50.3871810  25.3034550 124.0872180  52.1218070  29.7631800 122.1614340
  53.0739820  29.6789820 122.1114580  51.9746290  30.4273510 122.8348130
  55.0127270  29.1426010 107.6606250  54.7268780  28.7291150 106.8460430
  54.8146820  30.0713720 107.5406770  39.5750880  22.4145100 122.5465570
  40.0789900  21.8352380 123.1181800  38.8358300  22.6985330 123.0841940
  46.4774500  25.1359290 106.1011860  46.3725140  24.5211640 106.8273240
  46.3098720  24.6125180 105.3174870  46.6288820  23.8216090 122.0801090
  45.8634490  24.3901090 121.9955760  46.8104780  23.5292300 121.1869320
  49.7177230  24.1979320 106.7053850  49.1687330  24.6448620 107.3496590
  50.3396490  23.6928570 107.2291520  53.7712170  25.5521420 122.6376110
  54.5121640  25.8897180 122.1343570  53.0084850  25.7213480 122.0845880
  41.6073960  20.5574690 123.4415640  41.6479300  20.2588560 124.3500870
  42.4619460  20.9582300 123.2823160  45.3852350  23.1570240 108.6019150
  45.8068770  22.9910110 109.4450540  45.5103190  22.3470470 108.1074290
  43.5479770  19.1366790 121.4090130  43.0176230  18.6457740 120.7813470
  44.2167840  19.5650990 120.8748060  47.8979990  22.1807850 105.8496250
  48.4185650  21.4656870 105.4837400  48.5448390  22.8193720 106.1496760
  52.4457830  23.6036250 121.1731320  52.8598850  23.7581330 122.0221740
  51.5108830  23.7291470 121.3357100  52.9180000  20.9432410 123.1770470
  53.5000770  20.1884730 123.0890950  53.0941770  21.4739850 122.4001950
  44.0352070  16.1029160 121.4887420  43.9408940  15.4849910 120.7638290
  43.4549460  16.8295450 121.2617330  46.8013510  14.6602400 118.5214810
  46.3530810  14.6826660 117.6760360  46.1678710  14.2621420 119.1185110
  47.2073060  23.5556730 119.1427250  47.6261170  24.3989460 118.9703490
  46.2881690  23.6928770 118.9134030  49.5436960  21.2872910 120.5265090
  49.6633170  20.6914050 121.2659930  50.4030960  21.3242600 120.1066390
  51.8824860  21.8410100 119.1027600  51.3560080  22.3652720 118.4992740
  52.2256200  22.4737490 119.7337330  44.2811250  19.2303470 105.5477310
  44.0800310  18.3670830 105.9090650  44.1103300  19.1436830 104.6098910
  45.0580480  29.8609740 120.2584980  44.5201570  30.5855800 119.9393680
  45.3114440  29.3840080 119.4682320  46.3105730  17.8294260 121.7840910
  46.9005420  17.5210110 122.4718730  45.4925970  17.3574010 121.9400810
  51.1299160  17.4460070 122.0173930  50.4414680  16.7841610 121.9523920
  51.8505180  16.9998340 122.4622390  51.7599560  14.0411700 108.0764190
  52.0401850  13.1979600 108.4323610  50.9865290  14.2734810 108.5902940
  43.0794050  16.3304090 105.5355190  43.3819950  16.3371520 104.6274340
  43.8188640  15.9801950 106.0322850  47.9142690  31.0960950 120.5171630
  47.8401390  31.9996090 120.8244000  47.0121530  30.7772850 120.4893700
  46.2978980  15.2738710 106.5211390  45.9500980  14.5962700 105.9413840
  46.4991750  14.8128220 107.3354780  48.4628020  30.2619460 108.1397990
  49.3578810  30.6004430 108.1616750  48.4945650  29.5398870 107.5122270
  42.1024180  25.6346510 106.3684990  42.5399050  26.1776180 107.0242570
  42.5871910  24.8093460 106.3781330  39.3169980  28.4235540 113.8205250
  39.6472990  27.5556600 113.5883890  39.7460980  28.6294060 114.6510210
  43.9131900  26.7544550 111.4807220  43.6127440  26.6309520 112.3811130
  43.8069390  25.8953140 111.0722950  39.8060190  29.2906130 116.5586880
  39.3691180  29.4706930 117.3911030  40.3737870  30.0480750 116.4168600
  55.4422370  28.7923130 120.8464190  54.8424360  28.8515690 120.1028110
  55.5716270  27.8528110 120.9761040  56.6823820  26.5340950 106.1833900
  55.8516780  26.6017600 106.6541130  56.8595650  27.4245070 105.8800760
  56.1380280  23.2788430 108.6868100  56.8999190  23.8485080 108.7927790
  56.1534650  22.7115630 109.4576410  39.6384620  21.8026360 112.9175760
  38.9833460  21.5338000 112.2735460  40.4762570  21.6930840 112.4677740
  57.1440250  24.1338530 113.5310030  57.5149080  23.3505850 113.1246000
  57.7842180  24.8227630 113.3527330  54.1274010  25.5175110 118.9440350
  53.3133850  25.9472270 119.2066140  54.5348210  26.1293520 118.3309400
  56.1899450  23.5722800 105.8440620  56.4648290  24.4801680 105.7159840
  56.0010190  23.5085330 106.7802610  52.5875060  16.5967650 107.1394250
  53.0059940  16.4098630 106.2990910  52.2811120  15.7446700 107.4497180
  56.0864790  21.5091790 110.8370050  55.7108390  20.7419720 110.4051340
  55.3567910  21.8914490 111.3244980  40.6760550  22.1878930 117.4579100
  41.0433590  22.1006330 118.3375120  40.1071370  21.4245480 117.3585960
  55.4764410  20.6563310 120.4709570  55.2450500  20.4276060 119.5707520
  55.7368960  21.5762860 120.4254460  40.2276550  19.0988020 121.3637520
  39.3332600  19.0654780 121.7031230  40.7674100  19.2974810 122.1288770
  53.9152480  15.8819740 123.2489270  54.7922660  15.8903140 123.6323270
  53.9273320  15.1450580 122.6381620  38.8522700  19.0125290 108.8601090
  37.9486780  19.2755490 108.6852750  39.3363320  19.2836460 108.0801050
  55.3615750  19.7349280 114.1377290  55.8853230  19.2411930 113.5067460
  55.9475170  19.8699640 114.8824860  55.5405470  19.8189150 117.6596840
  54.5908180  19.7852690 117.7741830  55.7218480  20.7289260 117.4246610
  41.3949910  18.0690830 106.7695470  42.1041610  17.6474050 106.2842750
  40.6789850  18.1366060 106.1378820  41.0424070  14.1230160 105.8098120
  41.7652200  14.6639100 106.1279340  41.3148590  13.8493580 104.9339660
  54.8515720  18.9922630 110.0769700  55.3474840  18.7593500 110.8618580
  54.6531790  18.1534470 109.6607340  40.7316260  13.3736350 115.7120740
  41.3792450  12.8233730 115.2715900  41.1518100  13.6279500 116.5336550
  56.2802880  17.6283580 112.6107380  56.1702160  17.4739620 113.5489650
  57.0410470  17.1004520 112.3682790  54.6268600  13.5677710 119.0690380
  55.2640820  14.1811850 119.4349570  54.7743490  13.6038370 118.1239610
  57.1693150  15.4591500 105.8513520  58.0942460  15.3272680 105.6431810
  57.1468940  15.5384320 106.8049970  57.2431640  16.2302160 108.4770230
  56.4483140  16.1647280 109.0063140  57.4474920  17.1652800 108.4655580
  54.1850060  30.2693710 112.4708620  54.7809130  29.9478280 111.7943040
  54.4428210  29.7965530 113.2621890  40.4848260  13.5292020 118.4546060
  40.1363080  13.9855840 119.2204240  40.1535960  12.6349150 118.5368490
  42.0912630  26.7011620 122.6199250  42.0482260  26.3304530 123.5013710
  42.2223640  27.6389190 122.7601070  45.7918660  28.2571210 118.2208970
  45.5510020  28.5245770 117.3339490  46.7321300  28.4276940 118.2759830
  47.9973080  14.7203900 121.9765480  47.9361970  15.3125730 122.7260890
  48.9373460  14.6129860 121.8315740  50.6347640  14.3773960 121.6157770
  51.2488050  14.6953250 120.9538850  51.1797200  13.8922550 122.2353630
  57.0522820  30.2765590 119.0219610  56.5581100  30.6734460 118.3046740
  56.4436110  29.6514800 119.4156890  41.1568900  13.0568220 121.7296830
  41.7051890  12.8756270 120.9662940  41.2224210  12.2662330 122.2653140
  41.9300660  29.6473870 119.7397030  41.3360980  29.5158570 120.4787070
  41.9224500  28.8112010 119.2739130  51.3755680  12.9406100 117.9427060
  50.5015520  13.2741210 117.7399990  51.2666430  12.4679280 118.7678930
  52.2827660  15.1476970 119.3268780  51.9541020  14.3328730 118.9470510
  53.2309960  15.1046780 119.2034470  54.7362270  30.9189010 116.3006350
  54.2765240  31.6704820 115.9264370  54.1074730  30.1995480 116.2421150
  41.5612890  27.0132250 118.6905070  40.8346950  26.3937540 118.6231020
  41.6222040  27.4072860 117.8203150  45.1657990  29.2277250 115.4754480
  45.6823010  28.6164610 114.9502740  45.8155370  29.7306030 115.9665490
  47.9053490  30.1185740 116.3023460  48.1931300  29.8640040 115.4256470
  48.4176710  29.5663100 116.8929030  49.1230500  13.8575940 116.8819970
  48.3402290  14.3321440 117.1616730  48.8293430  12.9530770 116.7733150
  53.6751570  14.5599040 114.9269060  54.1159660  14.5044140 114.0790660
  53.4059160  15.4757050 114.9979240  55.5390140  14.1914280 112.9377880
  55.4778540  13.2475500 112.7908900  56.3182170  14.2994370 113.4831340
  39.8442890  30.3306640 111.9001830  39.6764930  29.6977320 112.5983720
  38.9777400  30.5366040 111.5496020  40.4670910  14.1623420 109.4033690
  41.2250270  14.2752300 108.8297720  40.0048080  14.9992620 109.3577120
  47.0084720  16.2762690 112.3936000  46.1959230  15.9019580 112.0531880
  47.5126360  15.5207770 112.6957190  51.5109700  12.9405140 113.6319070
  52.1139070  13.5125350 114.1067590  50.7702690  13.5044580 113.4092970
  54.6544300  13.3426700 108.9059350  54.8494930  14.2410150 109.1726780
  53.8674170  13.1113780 109.3992300  41.4505590  29.0239870 109.3451970
  40.9253210  29.4047900 108.6413930  41.3750170  29.6490640 110.0661680
  42.8396060  14.6887470 107.9435660  43.3688820  13.9017270 107.8143610
  43.4724380  15.3678660 108.1771190  45.0333900  14.4262610 110.9981050
  44.4036640  13.7249920 111.1651180  44.4939040  15.1866740 110.7814210
  47.9725850  31.0401840 123.6691660  48.8993160  30.8046110 123.7127620
  47.9576280  31.8673840 123.1877690  56.2070910  30.5827410 110.6665910
  56.3823100  29.8965150 110.0226830  55.5092480  31.1074460 110.2742580
  45.1589460  13.7046590 123.4333540  44.8773730  14.2080190 122.6694360
  45.5409160  12.9068340 123.0675670  44.0498560  30.9722250 108.2201220
  44.7817380  30.6881530 107.6725110  44.3092230  30.7335530 109.1100600
  43.2113350  27.0886980 108.2247550  42.5822230  27.5572080 108.7733380
  43.3261180  26.2436200 108.6593740  51.7604920  13.1200170 124.0114010
  51.6470370  13.4394780 124.9065530  52.5774660  13.5212680 123.7151290
  54.5403410  30.2671700 123.4932700  55.3328730  29.7720930 123.2858660
  54.8336560  30.9461840 124.1008310  50.6663070  21.1392640  94.3748750
  50.5857120  20.2247250  94.1040460  50.2527490  21.6359710  93.6688460
  48.7981110  22.9171660  96.2558020  48.0223210  22.4372100  96.5456590
  49.4494040  22.2377310  96.0814180  42.8146940  23.2291470  97.1333780
  41.9831820  22.9740180  97.5330290  43.4227920  23.3002240  97.8691700
  42.7948200  27.2631560  97.3291800  43.0976240  26.3729300  97.1502020
  43.5391790  27.8201780  97.1014050  41.2238890  18.1893360  90.9176170
  40.3355590  18.5309330  90.8156050  41.5080080  17.9893680  90.0257000
  39.1871900  20.7899010  96.8015870  39.7588010  20.0221210  96.8019510
  39.1873440  21.0887770  95.8922480  49.0451850  29.6089860  94.6561140
  48.4263290  30.0647360  94.0855580  49.9003630  29.7641320  94.2550840
  48.2390100  25.5928850  96.2628180  48.1698380  24.6518790  96.1017310
  49.0009960  25.6830260  96.8350750  40.4296770  16.1983370  98.5884800
  40.2499610  15.3009120  98.8687560  40.0276850  16.7455240  99.2631750
  49.2695270  18.3999230  96.4897110  49.6460090  17.5271110  96.3770780
  49.1714780  18.7357930  95.5987550  43.4000280  16.7724860  91.9514550
  43.5067030  17.6728590  92.2583310  42.4892640  16.7242830  91.6609200
  53.0519390  15.8949670  93.4225450  53.8729010  15.4046240  93.4650930
  53.0853470  16.4847330  94.1757290  41.0483440  18.6943870  97.1967140
  41.7293550  18.9582240  97.8154540  40.7331490  17.8544740  97.5305150
  45.2408010  19.7411230  96.2839730  45.7486230  20.2392200  96.9244750
  45.7721250  18.9646430  96.1079090  57.3418940  17.9116420  99.9869080
  56.6371110  18.2998130  99.4684190  57.6076860  18.6066710 100.5890010
  43.5244110  14.3809790 100.5503150  43.5262550  14.8982180  99.7449050
  42.6948420  13.9039970 100.5273080  49.9115200  24.4929100  92.0493050
  49.2932470  24.9578550  91.4855770  50.4238450  25.1856580  92.4662560
  44.7746960  24.0204970  98.7276650  44.4416340  24.6473890  99.3697720
  44.9513640  24.5466850  97.9478320  53.2880870  17.8350050  96.1952990
  52.5836440  18.1234940  96.7756100  53.6493030  18.6450160  95.8352550
  43.2059440  16.0919750  98.5573600  43.5476250  16.9361800  98.2627470
  42.2675250  16.2403490  98.6738940  43.9866060  25.9885770 100.5425830
  44.6040060  26.6636850 100.2610280  43.1259180  26.3973750 100.4513330
  39.2798400  25.1785630  89.4232680  38.9026380  25.6672730  88.6917580
  39.5371470  25.8510910  90.0539210  54.9043650  27.4525180  98.4580470
  54.2207170  28.1224290  98.4497140  55.4437940  27.6505830  97.6925330
  56.3567790  17.2804840  96.5862200  55.4092700  17.3143820  96.7177630
  56.6817780  18.0943790  96.9711560  46.8887330  13.5802020  94.8818190
  47.1962310  13.0248910  94.1653690  45.9588030  13.7146480  94.6991180
  52.4402390  29.2969310  97.1725650  52.4529550  28.8931600  96.3047910
  51.8877610  30.0716600  97.0687080  49.2768090  21.6450850  91.6178310
  48.3497370  21.5788230  91.8466780  49.4292910  22.5830980  91.5033550
  49.2637170  17.9167850  88.6145470  48.3240840  18.0781810  88.6997930
  49.5820430  18.6353530  88.0681460  52.7491940  19.3855690  99.5379370
  52.3363120  20.2109400  99.7919360  52.0167890  18.8000730  99.3455730
  44.8824730  22.1715590  94.3998040  44.4781730  21.4592840  93.9043940
  44.9687850  21.8268830  95.2886080  45.3506430  25.8583150  96.5637250
  45.0534720  25.2528620  95.8845030  46.3006250  25.8960460  96.4526610
  43.5953350  18.9458800  98.1797080  44.1467940  19.0554140  97.4050330
  44.1096860  19.3196400  98.8952310  53.4392040  29.4315020 100.2260350
  52.9622600  30.2387210 100.0332960  52.7553830  28.7793350 100.3786560
  44.4424860  25.5964840 103.2145050  43.5453390  25.8204810 103.4618450
  44.4677730  25.7199780 102.2656450  43.2696080  22.4678160 101.7902420
  43.1303850  23.3400960 102.1589820  42.3877440  22.1250970 101.6450360
  49.5925460  27.3854030  93.0967550  50.0321370  28.1278360  92.6822940
  49.5312350  27.6280600  94.0206510  55.0647220  13.7000770  87.4427350
  54.7519880  13.7927600  88.3426420  55.8259690  14.2781800  87.3924780
  41.5829360  21.0660570  91.9004690  41.4626960  21.7922660  91.2885960
  41.2730250  20.2963480  91.4232600  57.0191250  29.1926960 105.2951740
  57.4950970  29.6709850 105.9740820  57.6398410  29.1244450 104.5697240
  39.2214730  24.2375710  97.7073330  39.2995150  24.3724480  96.7629050
  39.8356410  23.5291600  97.9001450  40.4662360  25.9375900  94.1179510
  40.0590440  26.0790490  93.2633110  41.3575370  25.6536060  93.9150720
  56.4224500  26.3839810 102.4551750  56.5487560  26.1451690 101.5368930
  56.4645880  25.5524350 102.9273830  52.2595640  30.3723150  90.4530560
  52.0996780  30.0826090  91.3512390  52.0942350  29.5963280  89.9175790
  44.7384020  30.1521680  92.2302180  44.5626500  29.2357220  92.0169980
  43.8839760  30.5108970  92.4699980  51.9621770  27.8810710  89.0128560
  51.2686930  27.8788000  88.3530840  52.7044630  27.4570030  88.5822730
  51.5271700  29.5073420  93.0877050  51.9828650  28.7262800  93.4015670
  51.8664220  30.2180240  93.6318230  56.2748510  18.4372270 103.4201490
  55.6592780  18.9451940 102.8916950  55.9544930  17.5370600 103.3627430
  39.2774250  25.2789880 100.2467790  39.4405290  24.8095240  99.4287160
  39.7426700  24.7713440 100.9116630  44.0493020  14.4095640  95.2828360
  43.6061170  15.1905180  94.9512880  44.6078010  14.7325530  95.9899300
  48.3362830  17.2764160 100.8863680  47.8742200  17.4847180 101.6983620
  47.9340940  16.4623510 100.5834350  53.3367340  18.4973110 102.0160340
  52.4860930  18.1978860 102.3369410  53.1769130  18.7415120 101.1044160
  50.4317050  19.9974860 104.1159130  50.7570460  19.1638610 103.7761360
  51.2197380  20.5203380 104.2637460  47.1651840  14.0306340  90.1634190
  46.5406020  14.0266210  90.8887500  47.0781960  13.1637300  89.7670160
  46.0868920  14.9542970  97.1417960  46.3841250  15.8605800  97.0609980
  46.6354480  14.4661750  96.5277530  43.8407240  19.5329210  93.0109610
  43.6148160  19.3166380  93.9156230  43.0599770  19.9657670  92.6655580
  51.0705000  19.5392580  91.6100260  50.4713890  20.2628380  91.4263880
  51.6184610  19.4769360  90.8276710  46.2806450  20.4314790 103.6769880
  46.1850050  19.4909520 103.5270280  47.1238430  20.6529860 103.2817950
  49.6769870  18.1756120  93.6403540  50.0699440  18.4928320  92.8272230
  50.0386720  17.2968000  93.7548060  41.4116990  16.8428460 101.8303660
  41.0180380  17.6903670 102.0376440  40.7235390  16.2054830 102.0212300
  47.9862040  16.9263430 104.9000400  47.2960360  16.7335630 105.5346490
  48.7294340  17.2098070 105.4324700  38.7134040  14.7656920  95.8633740
  38.4247090  15.3359780  96.5758720  39.4579800  14.2861370  96.2264970
  38.9004270  18.7077040  87.0736460  38.8178940  19.6507800  87.2151450
  38.5487330  18.5651950  86.1948810  50.2625010  20.7661870  97.7354320
  49.5306130  21.2748680  98.0844420  49.8649350  19.9491850  97.4343100
  46.7002400  17.4416070  96.1406810  46.7038460  17.0006020  95.2911350
  47.5953520  17.7633400  96.2478630  42.5504780  17.3242560  95.1001020
  42.2104830  17.8017790  95.8568070  41.7882100  16.8707680  94.7402120
  46.7622550  18.4428150  89.1313570  46.8835370  18.4014630  90.0799390
  46.3771060  19.3052300  88.9760300  50.7250920  16.2195550  97.1477260
  50.7423660  16.6704200  97.9919110  50.4766500  15.3201190  97.3610700
  45.7744050  20.7529290  88.5296870  45.2060950  20.3047540  87.9032780
  46.4833050  21.1122070  87.9962020  54.1521670  13.6327730 102.9863640
  54.4767440  12.9017390 103.5121620  54.1878180  13.3141370 102.0844630
  40.8513230  24.6541310 102.4063600  40.4668020  24.0134980 103.0046560
  41.1625420  25.3577430 102.9758330  47.0010370  21.5017850  97.8872220
  47.3680500  21.0276420  98.6333560  46.8115430  22.3759420  98.2280560
  39.8650860  16.2461540  94.0165690  39.5797780  15.8817210  94.8544310
  39.8029720  15.5142000  93.4028830  44.7909740  20.5426490 100.2056430
  44.4866810  21.4218470 100.4306790  45.7456200  20.6026280 100.2413870
  43.3191530  24.7487480  90.8023280  42.5453790  24.2085100  90.6422000
  44.0486160  24.2294090  90.4641040  49.5389450  15.1390800  90.7379060
  48.7254060  14.6403970  90.6624370  49.3451400  15.9789050  90.3215410
  49.4598310  23.8161900 102.4818670  49.3935620  22.8957570 102.2276260
  48.8303450  23.9137340 103.1963310  43.3628930  24.4167860  94.4402090
  43.8807600  23.6136120  94.3858980  42.9112950  24.3547000  95.2818920
  48.2498430  25.6834140  89.7129390  48.5914130  26.4276370  89.2172710
  47.4211140  25.9965260  90.0754220  40.8473470  21.3829230 101.3527790
  40.4888410  22.0483080 101.9401130  40.5528030  20.5512780 101.7240410
  44.0486590  21.8413470 104.2367340  43.7486730  21.9870650 103.3395160
  44.8197830  21.2818760 104.1440730  49.3915040  26.6382470 102.2322470
  49.4059580  25.7063430 102.0141380  48.6840140  26.7242230 102.8712240
  55.6026250  23.2789810 101.5791050  54.8774440  23.8718590 101.3820440
  56.1301710  23.2713350 100.7804420  51.1325840  25.0049980  95.0774900
  51.4849660  24.4078110  94.4176270  50.2488170  24.6794210  95.2483150
  47.2189120  25.7647670  92.4845310  47.9060250  26.3116880  92.8652900
  46.4321540  26.3088400  92.5194920  39.3581520  21.3820490  87.9762390
  40.2276370  21.6645290  88.2598310  38.8671840  22.1956360  87.8611200
  46.5216330  22.7693700  92.0970670  46.9779110  23.5798950  92.3230860
  46.1704540  22.4516840  92.9289160  42.4228110  13.1131350  92.5693190
  42.2942740  13.1049250  93.5178110  41.5990130  13.4514440  92.2184200
  50.0981020  26.2832390  98.0440420  50.7403250  25.5825550  98.1572590
  50.6230370  27.0630830  97.8637310  51.8718640  27.0827290 101.2476480
  52.2074880  27.6693980 101.9254400  50.9518980  26.9520000 101.4774270
  39.7252770  30.5947870  88.5424020  40.0850410  31.1937210  87.8881290
  39.5845110  31.1407760  89.3159050  39.4222040  14.8722470 102.0299890
  38.7080560  15.0719390 102.6352500  39.8417080  14.0962040 102.4014690
  39.7094630  28.8602730 103.0166420  39.8185750  27.9197470 102.8761810
  39.0575190  29.1257480 102.3680150  47.7007220  27.1318620 104.4164540
  47.3804090  26.4127860 104.9610230  47.0265580  27.8073690 104.4900600
  45.7421390  27.9779070  89.3597690  45.7331490  28.7108760  88.7442200
  44.8219750  27.7310650  89.4524650  41.3428030  23.1993960  90.1044450
  40.7355980  23.9392860  90.1139750  41.8177380  23.2893320  89.2782650
  50.9160820  17.3644780  99.7801340  51.2841640  16.5439990 100.1080910
  50.0559020  17.4246670 100.1956990  54.2822850  16.3201720  90.5888900
  53.6536010  16.4247390  89.8747130  53.7874770  16.5398500  91.3782780
  48.7280990  28.0407310  88.0222880  48.8292970  27.8371300  87.0924860
  47.8282730  27.7865590  88.2270660  46.2506880  18.5987670  92.0046780
  45.5423030  19.0674010  92.4460390  46.5351360  17.9409680  92.6391970
  47.8762810  20.0184370 100.0039310  48.3748060  20.4930190 100.6691160
  48.0185760  19.0947890 100.2109340  50.2822310  15.3238330  93.4442570
  50.1590090  15.3424460  92.4952080  51.2306870  15.3717270  93.5640970
  47.3699100  30.5593630  92.7170550  47.6240600  30.5215020  91.7949920
  46.4211580  30.4326960  92.7098800  44.4541900  16.9072750  89.3797490
  45.3032430  17.3442900  89.3137680  44.0873170  17.2193010  90.2069550
  55.0829670  16.2352330 100.8467700  54.5803270  16.9757730 101.1861510
  55.8986330  16.6236330 100.5304490  53.3751680  21.4785510  94.2929060
  52.4341820  21.4935740  94.4676750  53.6895750  20.6921470  94.7389360
  43.3533320  23.1605110  87.8533020  44.1196590  23.0486470  88.4158450
  43.4308010  22.4643080  87.2009790  42.0480080  20.5930180  88.5365910
  42.1283670  19.6457690  88.6483310  42.9399830  20.9237060  88.6426570
  39.7340270  26.8099140  91.5141960  38.8080050  27.0520280  91.5047370
  40.1996700  27.6373400  91.3926710  41.8553070  29.9271640 104.8286030
  42.6565800  30.2483690 105.2421430  41.3404890  29.5667220 105.5505940
  45.9597100  29.9155880  87.4626020  46.7525710  30.2044710  87.0107810
  45.4401450  29.4848050  86.7838500  50.6917700  26.0351510 104.7761440
  50.0855860  26.0583110 104.0357190  50.3871810  25.3034550 105.3128690
  55.0127270  29.1426010  88.8862760  54.7268780  28.7291150  88.0716940
  54.8146820  30.0713720  88.7663280  39.5750880  22.4145100 103.7722080
  40.0789900  21.8352380 104.3438310  38.8358300  22.6985330 104.3098450
  46.4774500  25.1359290  87.3268370  46.3725140  24.5211640  88.0529750
  46.3098720  24.6125180  86.5431380  46.6288820  23.8216090 103.3057600
  45.8634490  24.3901090 103.2212270  46.8104780  23.5292300 102.4125830
  49.7177230  24.1979320  87.9310360  49.1687330  24.6448620  88.5753100
  50.3396490  23.6928570  88.4548030  53.7712170  25.5521420 103.8632620
  54.5121640  25.8897180 103.3600080  53.0084850  25.7213480 103.3102390
  41.6073960  20.5574690 104.6672150  41.6479300  20.2588560 105.5757380
  42.4619460  20.9582300 104.5079670  45.3852350  23.1570240  89.8275660
  45.8068770  22.9910110  90.6707050  45.5103190  22.3470470  89.3330800
  43.5479770  19.1366790 102.6346640  43.0176230  18.6457740 102.0069980
  44.2167840  19.5650990 102.1004570  47.8979990  22.1807850  87.0752760
  48.4185650  21.4656870  86.7093910  48.5448390  22.8193720  87.3753270
  52.4457830  23.6036250 102.3987830  52.8598850  23.7581330 103.2478250
  51.5108830  23.7291470 102.5613610  52.9180000  20.9432410 104.4026980
  53.5000770  20.1884730 104.3147460  53.0941770  21.4739850 103.6258460
  44.0352070  16.1029160 102.7143930  43.9408940  15.4849910 101.9894800
  43.4549460  16.8295450 102.4873840  46.8013510  14.6602400  99.7471320
  46.3530810  14.6826660  98.9016870  46.1678710  14.2621420 100.3441620
  47.2073060  23.5556730 100.3683760  47.6261170  24.3989460 100.1960000
  46.2881690  23.6928770 100.1390540  49.5436960  21.2872910 101.7521600
  49.6633170  20.6914050 102.4916440  50.4030960  21.3242600 101.3322900
  44.2811250  19.2303470  86.7733820  44.0800310  18.3670830  87.1347160
  44.1103300  19.1436830  85.8355420  46.3105730  17.8294260 103.0097420
  46.9005420  17.5210110 103.6975240  45.4925970  17.3574010 103.1657320
  51.1299160  17.4460070 103.2430440  50.4414680  16.7841610 103.1780430
  51.8505180  16.9998340 103.6878900  51.7599560  14.0411700  89.3020700
  52.0401850  13.1979600  89.6580120  50.9865290  14.2734810  89.8159450
  43.0794050  16.3304090  86.7611700  43.3819950  16.3371520  85.8530850
  43.8188640  15.9801950  87.2579360  46.2978980  15.2738710  87.7467900
  45.9500980  14.5962700  87.1670350  46.4991750  14.8128220  88.5611290
  48.4628020  30.2619460  89.3654500  49.3578810  30.6004430  89.3873260
  48.4945650  29.5398870  88.7378780  42.1024180  25.6346510  87.5941500
  42.5399050  26.1776180  88.2499080  42.5871910  24.8093460  87.6037840
  39.3169980  28.4235540  95.0461760  39.6472990  27.5556600  94.8140400
  39.7460980  28.6294060  95.8766720  43.9131900  26.7544550  92.7063730
  43.6127440  26.6309520  93.6067640  43.8069390  25.8953140  92.2979460
  39.8060190  29.2906130  97.7843390  39.3691180  29.4706930  98.6167540
  40.3737870  30.0480750  97.6425110  55.4422370  28.7923130 102.0720700
  54.8424360  28.8515690 101.3284620  55.5716270  27.8528110 102.2017550
  39.6384620  21.8026360  94.1432270  38.9833460  21.5338000  93.4991970
  40.4762570  21.6930840  93.6934250  52.5875060  16.5967650  88.3650760
  53.0059940  16.4098630  87.5247420  52.2811120  15.7446700  88.6753690
  40.6760550  22.1878930  98.6835610  41.0433590  22.1006330  99.5631630
  40.1071370  21.4245480  98.5842470  55.4764410  20.6563310 101.6966080
  55.2450500  20.4276060 100.7964030  55.7368960  21.5762860 101.6510970
  40.2276550  19.0988020 102.5894030  39.3332600  19.0654780 102.9287740
  40.7674100  19.2974810 103.3545280  53.9152480  15.8819740 104.4745780
  54.7922660  15.8903140 104.8579780  53.9273320  15.1450580 103.8638130
  38.8522700  19.0125290  90.0857600  37.9486780  19.2755490  89.9109260
  39.3363320  19.2836460  89.3057560  55.3615750  19.7349280  95.3633800
  55.8853230  19.2411930  94.7323970  55.9475170  19.8699640  96.1081370
  55.5405470  19.8189150  98.8853350  54.5908180  19.7852690  98.9998340
  55.7218480  20.7289260  98.6503120  41.3949910  18.0690830  87.9951980
  42.1041610  17.6474050  87.5099260  40.6789850  18.1366060  87.3635330
  41.0424070  14.1230160  87.0354630  41.7652200  14.6639100  87.3535850
  41.3148590  13.8493580  86.1596170  54.8515720  18.9922630  91.3026210
  55.3474840  18.7593500  92.0875090  54.6531790  18.1534470  90.8863850
  40.7316260  13.3736350  96.9377250  41.3792450  12.8233730  96.4972410
  41.1518100  13.6279500  97.7593060  56.2802880  17.6283580  93.8363890
  56.1702160  17.4739620  94.7746160  57.0410470  17.1004520  93.5939300
  54.6268600  13.5677710 100.2946890  55.2640820  14.1811850 100.6606080
  54.7743490  13.6038370  99.3496120  57.1693150  15.4591500  87.0770030
  58.0942460  15.3272680  86.8688320  57.1468940  15.5384320  88.0306480
  57.2431640  16.2302160  89.7026740  56.4483140  16.1647280  90.2319650
  57.4474920  17.1652800  89.6912090  40.4848260  13.5292020  99.6802570
  40.1363080  13.9855840 100.4460750  40.1535960  12.6349150  99.7625000
  42.0912630  26.7011620 103.8455760  42.0482260  26.3304530 104.7270220
  42.2223640  27.6389190 103.9857580  47.9973080  14.7203900 103.2021990
  47.9361970  15.3125730 103.9517400  48.9373460  14.6129860 103.0572250
  50.6347640  14.3773960 102.8414280  51.2488050  14.6953250 102.1795360
  51.1797200  13.8922550 103.4610140  57.0522820  30.2765590 100.2476120
  56.5581100  30.6734460  99.5303250  56.4436110  29.6514800 100.6413400
  41.1568900  13.0568220 102.9553340  41.7051890  12.8756270 102.1919450
  41.2224210  12.2662330 103.4909650  41.9300660  29.6473870 100.9653540
  41.3360980  29.5158570 101.7043580  41.9224500  28.8112010 100.4995640
  51.3755680  12.9406100  99.1683570  50.5015520  13.2741210  98.9656500
  51.2666430  12.4679280  99.9935440  52.2827660  15.1476970 100.5525290
  51.9541020  14.3328730 100.1727020  53.2309960  15.1046780 100.4290980
  54.7362270  30.9189010  97.5262860  54.2765240  31.6704820  97.1520880
  54.1074730  30.1995480  97.4677660  41.5612890  27.0132250  99.9161580
  40.8346950  26.3937540  99.8487530  41.6222040  27.4072860  99.0459660
  49.1230500  13.8575940  98.1076480  48.3402290  14.3321440  98.3873240
  48.8293430  12.9530770  97.9989660  53.6751570  14.5599040  96.1525570
  54.1159660  14.5044140  95.3047170  53.4059160  15.4757050  96.2235750
  55.5390140  14.1914280  94.1634390  55.4778540  13.2475500  94.0165410
  56.3182170  14.2994370  94.7087850  39.8442890  30.3306640  93.1258340
  39.6764930  29.6977320  93.8240230  38.9777400  30.5366040  92.7752530
  40.4670910  14.1623420  90.6290200  41.2250270  14.2752300  90.0554230
  40.0048080  14.9992620  90.5833630  47.0084720  16.2762690  93.6192510
  46.1959230  15.9019580  93.2788390  47.5126360  15.5207770  93.9213700
  51.5109700  12.9405140  94.8575580  52.1139070  13.5125350  95.3324100
  50.7702690  13.5044580  94.6349480  54.6544300  13.3426700  90.1315860
  54.8494930  14.2410150  90.3983290  53.8674170  13.1113780  90.6248810
  41.4505590  29.0239870  90.5708480  40.9253210  29.4047900  89.8670440
  41.3750170  29.6490640  91.2918190  42.8396060  14.6887470  89.1692170
  43.3688820  13.9017270  89.0400120  43.4724380  15.3678660  89.4027700
  45.0333900  14.4262610  92.2237560  44.4036640  13.7249920  92.3907690
  44.4939040  15.1866740  92.0070720  56.2070910  30.5827410  91.8922420
  56.3823100  29.8965150  91.2483340  55.5092480  31.1074460  91.4999090
  45.1589460  13.7046590 104.6590050  44.8773730  14.2080190 103.8950870
  45.5409160  12.9068340 104.2932180  44.0498560  30.9722250  89.4457730
  44.7817380  30.6881530  88.8981620  44.3092230  30.7335530  90.3357110
  43.2113350  27.0886980  89.4504060  42.5822230  27.5572080  89.9989890
  43.3261180  26.2436200  89.8850250  51.7604920  13.1200170 105.2370520
  51.6470370  13.4394780 106.1322040  52.5774660  13.5212680 104.9407800
  54.5403410  30.2671700 104.7189210  55.3328730  29.7720930 104.5115170
  54.8336560  30.9461840 105.3264820  50.6663070  21.1392640  75.6005260
  50.5857120  20.2247250  75.3296970  50.2527490  21.6359710  74.8944970
  42.8146940  23.2291470  78.3590290  41.9831820  22.9740180  78.7586800
  43.4227920  23.3002240  79.0948210  41.2238890  18.1893360  72.1432680
  40.3355590  18.5309330  72.0412560  41.5080080  17.9893680  71.2513510
  39.1871900  20.7899010  78.0272380  39.7588010  20.0221210  78.0276020
  39.1873440  21.0887770  77.1178990  40.4296770  16.1983370  79.8141310
  40.2499610  15.3009120  80.0944070  40.0276850  16.7455240  80.4888260
  49.2695270  18.3999230  77.7153620  49.6460090  17.5271110  77.6027290
  49.1714780  18.7357930  76.8244060  43.4000280  16.7724860  73.1771060
  43.5067030  17.6728590  73.4839820  42.4892640  16.7242830  72.8865710
  53.0519390  15.8949670  74.6481960  53.8729010  15.4046240  74.6907440
  53.0853470  16.4847330  75.4013800  41.0483440  18.6943870  78.4223650
  41.7293550  18.9582240  79.0411050  40.7331490  17.8544740  78.7561660
  45.2408010  19.7411230  77.5096240  45.7486230  20.2392200  78.1501260
  45.7721250  18.9646430  77.3335600  57.3418940  17.9116420  81.2125590
  56.6371110  18.2998130  80.6940700  57.6076860  18.6066710  81.8146520
  43.5244110  14.3809790  81.7759660  43.5262550  14.8982180  80.9705560
  42.6948420  13.9039970  81.7529590  44.7746960  24.0204970  79.9533160
  44.4416340  24.6473890  80.5954230  44.9513640  24.5466850  79.1734830
  53.2880870  17.8350050  77.4209500  52.5836440  18.1234940  78.0012610
  53.6493030  18.6450160  77.0609060  43.2059440  16.0919750  79.7830110
  43.5476250  16.9361800  79.4883980  42.2675250  16.2403490  79.8995450
  43.9866060  25.9885770  81.7682340  44.6040060  26.6636850  81.4866790
  43.1259180  26.3973750  81.6769840  54.9043650  27.4525180  79.6836980
  54.2207170  28.1224290  79.6753650  55.4437940  27.6505830  78.9181840
  56.3567790  17.2804840  77.8118710  55.4092700  17.3143820  77.9434140
  56.6817780  18.0943790  78.1968070  46.8887330  13.5802020  76.1074700
  47.1962310  13.0248910  75.3910200  45.9588030  13.7146480  75.9247690
  49.2637170  17.9167850  69.8401980  48.3240840  18.0781810  69.9254440
  49.5820430  18.6353530  69.2937970  52.7491940  19.3855690  80.7635880
  52.3363120  20.2109400  81.0175870  52.0167890  18.8000730  80.5712240
  44.8824730  22.1715590  75.6254550  44.4781730  21.4592840  75.1300450
  44.9687850  21.8268830  76.5142590  45.3506430  25.8583150  77.7893760
  45.0534720  25.2528620  77.1101540  46.3006250  25.8960460  77.6783120
  43.5953350  18.9458800  79.4053590  44.1467940  19.0554140  78.6306840
  44.1096860  19.3196400  80.1208820  44.4424860  25.5964840  84.4401560
  43.5453390  25.8204810  84.6874960  44.4677730  25.7199780  83.4912960
  43.2696080  22.4678160  83.0158930  43.1303850  23.3400960  83.3846330
  42.3877440  22.1250970  82.8706870  45.0676430  28.4099860  85.2244080
  45.0391860  28.8142810  84.3572510  44.9041400  27.4810220  85.0615680
  55.0647220  13.7000770  68.6683860  54.7519880  13.7927600  69.5682930
  55.8259690  14.2781800  68.6181290  41.5829360  21.0660570  73.1261200
  41.4626960  21.7922660  72.5142470  41.2730250  20.2963480  72.6489110
  57.0191250  29.1926960  86.5208250  57.4950970  29.6709850  87.1997330
  57.6398410  29.1244450  85.7953750  39.2214730  24.2375710  78.9329840
  39.2995150  24.3724480  77.9885560  39.8356410  23.5291600  79.1257960
  39.2774250  25.2789880  81.4724300  39.4405290  24.8095240  80.6543670
  39.7426700  24.7713440  82.1373140  44.0493020  14.4095640  76.5084870
  43.6061170  15.1905180  76.1769390  44.6078010  14.7325530  77.2155810
  48.3362830  17.2764160  82.1120190  47.8742200  17.4847180  82.9240130
  47.9340940  16.4623510  81.8090860  53.3367340  18.4973110  83.2416850
  52.4860930  18.1978860  83.5625920  53.1769130  18.7415120  82.3300670
  47.1651840  14.0306340  71.3890700  46.5406020  14.0266210  72.1144010
  47.0781960  13.1637300  70.9926670  46.0868920  14.9542970  78.3674470
  46.3841250  15.8605800  78.2866490  46.6354480  14.4661750  77.7534040
  43.8407240  19.5329210  74.2366120  43.6148160  19.3166380  75.1412740
  43.0599770  19.9657670  73.8912090  46.2806450  20.4314790  84.9026390
  46.1850050  19.4909520  84.7526790  47.1238430  20.6529860  84.5074460
  49.6769870  18.1756120  74.8660050  50.0699440  18.4928320  74.0528740
  50.0386720  17.2968000  74.9804570  41.4116990  16.8428460  83.0560170
  41.0180380  17.6903670  83.2632950  40.7235390  16.2054830  83.2468810
  47.9862040  16.9263430  86.1256910  47.2960360  16.7335630  86.7603000
  48.7294340  17.2098070  86.6581210  38.7134040  14.7656920  77.0890250
  38.4247090  15.3359780  77.8015230  39.4579800  14.2861370  77.4521480
  38.9004270  18.7077040  68.2992970  38.8178940  19.6507800  68.4407960
  38.5487330  18.5651950  67.4205320  50.2625010  20.7661870  78.9610830
  49.5306130  21.2748680  79.3100930  49.8649350  19.9491850  78.6599610
  46.7002400  17.4416070  77.3663320  46.7038460  17.0006020  76.5167860
  47.5953520  17.7633400  77.4735140  42.5504780  17.3242560  76.3257530
  42.2104830  17.8017790  77.0824580  41.7882100  16.8707680  75.9658630
  46.7622550  18.4428150  70.3570080  46.8835370  18.4014630  71.3055900
  46.3771060  19.3052300  70.2016810  50.7250920  16.2195550  78.3733770
  50.7423660  16.6704200  79.2175620  50.4766500  15.3201190  78.5867210
  45.7744050  20.7529290  69.7553380  45.2060950  20.3047540  69.1289290
  46.4833050  21.1122070  69.2218530  54.1521670  13.6327730  84.2120150
  54.4767440  12.9017390  84.7378130  54.1878180  13.3141370  83.3101140
  40.8513230  24.6541310  83.6320110  40.4668020  24.0134980  84.2303070
  41.1625420  25.3577430  84.2014840  47.0010370  21.5017850  79.1128730
  47.3680500  21.0276420  79.8590070  46.8115430  22.3759420  79.4537070
  39.8650860  16.2461540  75.2422200  39.5797780  15.8817210  76.0800820
  39.8029720  15.5142000  74.6285340  44.7909740  20.5426490  81.4312940
  44.4866810  21.4218470  81.6563300  45.7456200  20.6026280  81.4670380
  49.5389450  15.1390800  71.9635570  48.7254060  14.6403970  71.8880880
  49.3451400  15.9789050  71.5471920  49.4598310  23.8161900  83.7075180
  49.3935620  22.8957570  83.4532770  48.8303450  23.9137340  84.4219820
  40.8473470  21.3829230  82.5784300  40.4888410  22.0483080  83.1657640
  40.5528030  20.5512780  82.9496920  44.0486590  21.8413470  85.4623850
  43.7486730  21.9870650  84.5651670  44.8197830  21.2818760  85.3697240
  49.3915040  26.6382470  83.4578980  49.4059580  25.7063430  83.2397890
  48.6840140  26.7242230  84.0968750  55.5539360  27.6764550  72.4559720
  54.9115520  27.0220170  72.7303440  55.1670020  28.0819640  71.6800390
  39.3581520  21.3820490  69.2018900  40.2276370  21.6645290  69.4854820
  38.8671840  22.1956360  69.0867710  42.4228110  13.1131350  73.7949700
  42.2942740  13.1049250  74.7434620  41.5990130  13.4514440  73.4440710
  39.4222040  14.8722470  83.2556400  38.7080560  15.0719390  83.8609010
  39.8417080  14.0962040  83.6271200  39.7094630  28.8602730  84.2422930
  39.8185750  27.9197470  84.1018320  39.0575190  29.1257480  83.5936660
  47.7007220  27.1318620  85.6421050  47.3804090  26.4127860  86.1866740
  47.0265580  27.8073690  85.7157110  50.9160820  17.3644780  81.0057850
  51.2841640  16.5439990  81.3337420  50.0559020  17.4246670  81.4213500
  54.2822850  16.3201720  71.8145410  53.6536010  16.4247390  71.1003640
  53.7874770  16.5398500  72.6039290  46.2506880  18.5987670  73.2303290
  45.5423030  19.0674010  73.6716900  46.5351360  17.9409680  73.8648480
  47.8762810  20.0184370  81.2295820  48.3748060  20.4930190  81.8947670
  48.0185760  19.0947890  81.4365850  50.2822310  15.3238330  74.6699080
  50.1590090  15.3424460  73.7208590  51.2306870  15.3717270  74.7897480
  44.4541900  16.9072750  70.6054000  45.3032430  17.3442900  70.5394190
  44.0873170  17.2193010  71.4326060  55.0829670  16.2352330  82.0724210
  54.5803270  16.9757730  82.4118020  55.8986330  16.6236330  81.7561000
  53.3751680  21.4785510  75.5185570  52.4341820  21.4935740  75.6933260
  53.6895750  20.6921470  75.9645870  42.0480080  20.5930180  69.7622420
  42.1283670  19.6457690  69.8739820  42.9399830  20.9237060  69.8683080
  55.3777260  28.6494360  77.1939830  55.5024680  29.4725530  77.6663640
  56.2442820  28.4385090  76.8463980  41.8553070  29.9271640  86.0542540
  42.6565800  30.2483690  86.4677940  41.3404890  29.5667220  86.7762450
  50.6917700  26.0351510  86.0017950  50.0855860  26.0583110  85.2613700
  50.3871810  25.3034550  86.5385200  55.0127270  29.1426010  70.1119270
  54.7268780  28.7291150  69.2973450  54.8146820  30.0713720  69.9919790
  39.5750880  22.4145100  84.9978590  40.0789900  21.8352380  85.5694820
  38.8358300  22.6985330  85.5354960  46.6288820  23.8216090  84.5314110
  45.8634490  24.3901090  84.4468780  46.8104780  23.5292300  83.6382340
  41.6073960  20.5574690  85.8928660  41.6479300  20.2588560  86.8013890
  42.4619460  20.9582300  85.7336180  43.5479770  19.1366790  83.8603150
  43.0176230  18.6457740  83.2326490  44.2167840  19.5650990  83.3261080
  44.0352070  16.1029160  83.9400440  43.9408940  15.4849910  83.2151310
  43.4549460  16.8295450  83.7130350  46.8013510  14.6602400  80.9727830
  46.3530810  14.6826660  80.1273380  46.1678710  14.2621420  81.5698130
  47.2073060  23.5556730  81.5940270  47.6261170  24.3989460  81.4216510
  46.2881690  23.6928770  81.3647050  49.5436960  21.2872910  82.9778110
  49.6633170  20.6914050  83.7172950  50.4030960  21.3242600  82.5579410
  51.8824860  21.8410100  81.5540620  51.3560080  22.3652720  80.9505760
  52.2256200  22.4737490  82.1850350  44.2811250  19.2303470  67.9990330
  44.0800310  18.3670830  68.3603670  44.1103300  19.1436830  67.0611930
  46.3105730  17.8294260  84.2353930  46.9005420  17.5210110  84.9231750
  45.4925970  17.3574010  84.3913830  51.1299160  17.4460070  84.4686950
  50.4414680  16.7841610  84.4036940  51.8505180  16.9998340  84.9135410
  51.7599560  14.0411700  70.5277210  52.0401850  13.1979600  70.8836630
  50.9865290  14.2734810  71.0415960  43.0794050  16.3304090  67.9868210
  43.3819950  16.3371520  67.0787360  43.8188640  15.9801950  68.4835870
  46.2978980  15.2738710  68.9724410  45.9500980  14.5962700  68.3926860
  46.4991750  14.8128220  69.7867800  55.4422370  28.7923130  83.2977210
  54.8424360  28.8515690  82.5541130  55.5716270  27.8528110  83.4274060
  39.6384620  21.8026360  75.3688780  38.9833460  21.5338000  74.7248480
  40.4762570  21.6930840  74.9190760  54.1274010  25.5175110  81.3953370
  53.3133850  25.9472270  81.6579160  54.5348210  26.1293520  80.7822420
  52.5875060  16.5967650  69.5907270  53.0059940  16.4098630  68.7503930
  52.2811120  15.7446700  69.9010200  56.0864790  21.5091790  73.2883070
  55.7108390  20.7419720  72.8564360  55.3567910  21.8914490  73.7758000
  40.6760550  22.1878930  79.9092120  41.0433590  22.1006330  80.7888140
  40.1071370  21.4245480  79.8098980  40.2276550  19.0988020  83.8150540
  39.3332600  19.0654780  84.1544250  40.7674100  19.2974810  84.5801790
  53.9152480  15.8819740  85.7002290  54.7922660  15.8903140  86.0836290
  53.9273320  15.1450580  85.0894640  38.8522700  19.0125290  71.3114110
  37.9486780  19.2755490  71.1365770  39.3363320  19.2836460  70.5314070
  55.3615750  19.7349280  76.5890310  55.8853230  19.2411930  75.9580480
  55.9475170  19.8699640  77.3337880  55.5405470  19.8189150  80.1109860
  54.5908180  19.7852690  80.2254850  55.7218480  20.7289260  79.8759630
  41.3949910  18.0690830  69.2208490  42.1041610  17.6474050  68.7355770
  40.6789850  18.1366060  68.5891840  41.0424070  14.1230160  68.2611140
  41.7652200  14.6639100  68.5792360  41.3148590  13.8493580  67.3852680
  54.8515720  18.9922630  72.5282720  55.3474840  18.7593500  73.3131600
  54.6531790  18.1534470  72.1120360  40.7316260  13.3736350  78.1633760
  41.3792450  12.8233730  77.7228920  41.1518100  13.6279500  78.9849570
  56.2802880  17.6283580  75.0620400  56.1702160  17.4739620  76.0002670
  57.0410470  17.1004520  74.8195810  54.6268600  13.5677710  81.5203400
  55.2640820  14.1811850  81.8862590  54.7743490  13.6038370  80.5752630
  57.1693150  15.4591500  68.3026540  58.0942460  15.3272680  68.0944830
  57.1468940  15.5384320  69.2562990  40.4848260  13.5292020  80.9059080
  40.1363080  13.9855840  81.6717260  40.1535960  12.6349150  80.9881510
  42.0912630  26.7011620  85.0712270  42.0482260  26.3304530  85.9526730
  42.2223640  27.6389190  85.2114090  45.7918660  28.2571210  80.6721990
  45.5510020  28.5245770  79.7852510  46.7321300  28.4276940  80.7272850
  47.9973080  14.7203900  84.4278500  47.9361970  15.3125730  85.1773910
  48.9373460  14.6129860  84.2828760  50.6347640  14.3773960  84.0670790
  51.2488050  14.6953250  83.4051870  51.1797200  13.8922550  84.6866650
  57.0522820  30.2765590  81.4732630  56.5581100  30.6734460  80.7559760
  56.4436110  29.6514800  81.8669910  41.1568900  13.0568220  84.1809850
  41.7051890  12.8756270  83.4175960  41.2224210  12.2662330  84.7166160
  51.3755680  12.9406100  80.3940080  50.5015520  13.2741210  80.1913010
  51.2666430  12.4679280  81.2191950  52.2827660  15.1476970  81.7781800
  51.9541020  14.3328730  81.3983530  53.2309960  15.1046780  81.6547490
  41.5612890  27.0132250  81.1418090  40.8346950  26.3937540  81.0744040
  41.6222040  27.4072860  80.2716170  45.1657990  29.2277250  77.9267500
  45.6823010  28.6164610  77.4015760  45.8155370  29.7306030  78.4178510
  47.9053490  30.1185740  78.7536480  48.1931300  29.8640040  77.8769490
  48.4176710  29.5663100  79.3442050  49.1230500  13.8575940  79.3332990
  48.3402290  14.3321440  79.6129750  48.8293430  12.9530770  79.2246170
  53.6751570  14.5599040  77.3782080  54.1159660  14.5044140  76.5303680
  53.4059160  15.4757050  77.4492260  55.5390140  14.1914280  75.3890900
  55.4778540  13.2475500  75.2421920  56.3182170  14.2994370  75.9344360
  40.4670910  14.1623420  71.8546710  41.2250270  14.2752300  71.2810740
  40.0048080  14.9992620  71.8090140  47.0084720  16.2762690  74.8449020
  46.1959230  15.9019580  74.5044900  47.5126360  15.5207770  75.1470210
  51.5109700  12.9405140  76.0832090  52.1139070  13.5125350  76.5580610
  50.7702690  13.5044580  75.8605990  54.6544300  13.3426700  71.3572370
  54.8494930  14.2410150  71.6239800  53.8674170  13.1113780  71.8505320
  42.8396060  14.6887470  70.3948680  43.3688820  13.9017270  70.2656630
  43.4724380  15.3678660  70.6284210  45.0333900  14.4262610  73.4494070
  44.4036640  13.7249920  73.6164200  44.4939040  15.1866740  73.2327230
  47.9725850  31.0401840  86.1204680  48.8993160  30.8046110  86.1640640
  47.9576280  31.8673840  85.6390710  45.1589460  13.7046590  85.8846560
  44.8773730  14.2080190  85.1207380  45.5409160  12.9068340  85.5188690
  51.7604920  13.1200170  86.4627030  51.6470370  13.4394780  87.3578550
  52.5774660  13.5212680  86.1664310  54.5403410  30.2671700  85.9445720
  55.3328730  29.7720930  85.7371680  54.8336560  30.9461840  86.5521330
  50.6663070  21.1392640  56.8261770  50.5857120  20.2247250  56.5553480
  50.2527490  21.6359710  56.1201480  48.7981110  22.9171660  58.7071040
  48.0223210  22.4372100  58.9969610  49.4494040  22.2377310  58.5327200
  42.8146940  23.2291470  59.5846800  41.9831820  22.9740180  59.9843310
  43.4227920  23.3002240  60.3204720  42.7948200  27.2631560  59.7804820
  43.0976240  26.3729300  59.6015040  43.5391790  27.8201780  59.5527070
  41.2238890  18.1893360  53.3689190  40.3355590  18.5309330  53.2669070
  41.5080080  17.9893680  52.4770020  39.1871900  20.7899010  59.2528890
  39.7588010  20.0221210  59.2532530  39.1873440  21.0887770  58.3435500
  48.2390100  25.5928850  58.7141200  48.1698380  24.6518790  58.5530330
  49.0009960  25.6830260  59.2863770  40.4296770  16.1983370  61.0397820
  40.2499610  15.3009120  61.3200580  40.0276850  16.7455240  61.7144770
  49.2695270  18.3999230  58.9410130  49.6460090  17.5271110  58.8283800
  49.1714780  18.7357930  58.0500570  43.4000280  16.7724860  54.4027570
  43.5067030  17.6728590  54.7096330  42.4892640  16.7242830  54.1122220
  53.0519390  15.8949670  55.8738470  53.8729010  15.4046240  55.9163950
  53.0853470  16.4847330  56.6270310  41.0483440  18.6943870  59.6480160
  41.7293550  18.9582240  60.2667560  40.7331490  17.8544740  59.9818170
  45.2408010  19.7411230  58.7352750  45.7486230  20.2392200  59.3757770
  45.7721250  18.9646430  58.5592110  57.3418940  17.9116420  62.4382100
  56.6371110  18.2998130  61.9197210  57.6076860  18.6066710  63.0403030
  43.5244110  14.3809790  63.0016170  43.5262550  14.8982180  62.1962070
  42.6948420  13.9039970  62.9786100  49.9115200  24.4929100  54.5006070
  49.2932470  24.9578550  53.9368790  50.4238450  25.1856580  54.9175580
  44.7746960  24.0204970  61.1789670  44.4416340  24.6473890  61.8210740
  44.9513640  24.5466850  60.3991340  53.2880870  17.8350050  58.6466010
  52.5836440  18.1234940  59.2269120  53.6493030  18.6450160  58.2865570
  43.2059440  16.0919750  61.0086620  43.5476250  16.9361800  60.7140490
  42.2675250  16.2403490  61.1251960  43.9866060  25.9885770  62.9938850
  44.6040060  26.6636850  62.7123300  43.1259180  26.3973750  62.9026350
  39.2798400  25.1785630  51.8745700  38.9026380  25.6672730  51.1430600
  39.5371470  25.8510910  52.5052230  56.3567790  17.2804840  59.0375220
  55.4092700  17.3143820  59.1690650  56.6817780  18.0943790  59.4224580
  46.8887330  13.5802020  57.3331210  47.1962310  13.0248910  56.6166710
  45.9588030  13.7146480  57.1504200  52.4402390  29.2969310  59.6238670
  52.4529550  28.8931600  58.7560930  51.8877610  30.0716600  59.5200100
  51.8387830  24.1999150  60.9521280  52.2556620  23.9859260  60.1174740
  52.5627650  24.4571940  61.5229900  49.2768090  21.6450850  54.0691330
  48.3497370  21.5788230  54.2979800  49.4292910  22.5830980  53.9546570
  49.2637170  17.9167850  51.0658490  48.3240840  18.0781810  51.1510950
  49.5820430  18.6353530  50.5194480  53.3065380  23.2071150  54.5726580
  52.6877800  22.8690700  53.9252880  53.2889830  22.5630910  55.2805770
  52.7491940  19.3855690  61.9892390  52.3363120  20.2109400  62.2432380
  52.0167890  18.8000730  61.7968750  44.8824730  22.1715590  56.8511060
  44.4781730  21.4592840  56.3556960  44.9687850  21.8268830  57.7399100
  45.3506430  25.8583150  59.0150270  45.0534720  25.2528620  58.3358050
  46.3006250  25.8960460  58.9039630  43.5953350  18.9458800  60.6310100
  44.1467940  19.0554140  59.8563350  44.1096860  19.3196400  61.3465330
  53.4392040  29.4315020  62.6773370  52.9622600  30.2387210  62.4845980
  52.7553830  28.7793350  62.8299580  51.4830080  22.4457960  51.5799330
  51.9223360  21.6080390  51.4337150  52.1958500  23.0787360  51.6663470
  43.2696080  22.4678160  64.2415440  43.1303850  23.3400960  64.6102840
  42.3877440  22.1250970  64.0963380  55.0647220  13.7000770  49.8940370
  54.7519880  13.7927600  50.7939440  55.8259690  14.2781800  49.8437800
  41.5829360  21.0660570  54.3517710  41.4626960  21.7922660  53.7398980
  41.2730250  20.2963480  53.8745620  57.0191250  29.1926960  67.7464760
  57.4950970  29.6709850  68.4253840  57.6398410  29.1244450  67.0210260
  39.2214730  24.2375710  60.1586350  39.2995150  24.3724480  59.2142070
  39.8356410  23.5291600  60.3514470  40.4662360  25.9375900  56.5692530
  40.0590440  26.0790490  55.7146130  41.3575370  25.6536060  56.3663740
  56.4224500  26.3839810  64.9064770  56.5487560  26.1451690  63.9881950
  56.4645880  25.5524350  65.3786850  56.2748510  18.4372270  65.8714510
  55.6592780  18.9451940  65.3429970  55.9544930  17.5370600  65.8140450
  39.2774250  25.2789880  62.6980810  39.4405290  24.8095240  61.8800180
  39.7426700  24.7713440  63.3629650  44.0493020  14.4095640  57.7341380
  43.6061170  15.1905180  57.4025900  44.6078010  14.7325530  58.4412320
  48.3362830  17.2764160  63.3376700  47.8742200  17.4847180  64.1496640
  47.9340940  16.4623510  63.0347370  53.3367340  18.4973110  64.4673360
  52.4860930  18.1978860  64.7882430  53.1769130  18.7415120  63.5557180
  50.4317050  19.9974860  66.5672150  50.7570460  19.1638610  66.2274380
  51.2197380  20.5203380  66.7150480  47.1651840  14.0306340  52.6147210
  46.5406020  14.0266210  53.3400520  47.0781960  13.1637300  52.2183180
  46.0868920  14.9542970  59.5930980  46.3841250  15.8605800  59.5123000
  46.6354480  14.4661750  58.9790550  43.8407240  19.5329210  55.4622630
  43.6148160  19.3166380  56.3669250  43.0599770  19.9657670  55.1168600
  51.0705000  19.5392580  54.0613280  50.4713890  20.2628380  53.8776900
  51.6184610  19.4769360  53.2789730  46.2806450  20.4314790  66.1282900
  46.1850050  19.4909520  65.9783300  47.1238430  20.6529860  65.7330970
  49.6769870  18.1756120  56.0916560  50.0699440  18.4928320  55.2785250
  50.0386720  17.2968000  56.2061080  41.4116990  16.8428460  64.2816680
  41.0180380  17.6903670  64.4889460  40.7235390  16.2054830  64.4725320
  47.9862040  16.9263430  67.3513420  47.2960360  16.7335630  67.9859510
  48.7294340  17.2098070  67.8837720  38.7134040  14.7656920  58.3146760
  38.4247090  15.3359780  59.0271740  39.4579800  14.2861370  58.6777990
  38.9004270  18.7077040  49.5249480  38.8178940  19.6507800  49.6664470
  38.5487330  18.5651950  48.6461830  50.2625010  20.7661870  60.1867340
  49.5306130  21.2748680  60.5357440  49.8649350  19.9491850  59.8856120
  46.7002400  17.4416070  58.5919830  46.7038460  17.0006020  57.7424370
  47.5953520  17.7633400  58.6991650  42.5504780  17.3242560  57.5514040
  42.2104830  17.8017790  58.3081090  41.7882100  16.8707680  57.1915140
  46.7622550  18.4428150  51.5826590  46.8835370  18.4014630  52.5312410
  46.3771060  19.3052300  51.4273320  50.7250920  16.2195550  59.5990280
  50.7423660  16.6704200  60.4432130  50.4766500  15.3201190  59.8123720
  45.7744050  20.7529290  50.9809890  45.2060950  20.3047540  50.3545800
  46.4833050  21.1122070  50.4475040  54.1521670  13.6327730  65.4376660
  54.4767440  12.9017390  65.9634640  54.1878180  13.3141370  64.5357650
  40.8513230  24.6541310  64.8576620  40.4668020  24.0134980  65.4559580
  41.1625420  25.3577430  65.4271350  47.0010370  21.5017850  60.3385240
  47.3680500  21.0276420  61.0846580  46.8115430  22.3759420  60.6793580
  39.8650860  16.2461540  56.4678710  39.5797780  15.8817210  57.3057330
  39.8029720  15.5142000  55.8541850  44.7909740  20.5426490  62.6569450
  44.4866810  21.4218470  62.8819810  45.7456200  20.6026280  62.6926890
  43.3191530  24.7487480  53.2536300  42.5453790  24.2085100  53.0935020
  44.0486160  24.2294090  52.9154060  49.5389450  15.1390800  53.1892080
  48.7254060  14.6403970  53.1137390  49.3451400  15.9789050  52.7728430
  49.4598310  23.8161900  64.9331690  49.3935620  22.8957570  64.6789280
  48.8303450  23.9137340  65.6476330  52.2537840  19.5110450  51.4854240
  53.1417460  19.8227680  51.3105580  52.2242930  18.6382700  51.0934820
  43.3628930  24.4167860  56.8915110  43.8807600  23.6136120  56.8372000
  42.9112950  24.3547000  57.7331940  48.2498430  25.6834140  52.1642410
  48.5914130  26.4276370  51.6685730  47.4211140  25.9965260  52.5267240
  40.8473470  21.3829230  63.8040810  40.4888410  22.0483080  64.3914150
  40.5528030  20.5512780  64.1753430  44.0486590  21.8413470  66.6880360
  43.7486730  21.9870650  65.7908180  44.8197830  21.2818760  66.5953750
  54.5252110  20.8222290  50.9534100  54.4415830  21.2536510  50.1030540
  55.2446300  21.2820640  51.3860920  55.6026250  23.2789810  64.0304070
  54.8774440  23.8718590  63.8333460  56.1301710  23.2713350  63.2317440
  51.1325840  25.0049980  57.5287920  51.4849660  24.4078110  56.8689290
  50.2488170  24.6794210  57.6996170  39.3581520  21.3820490  50.4275410
  40.2276370  21.6645290  50.7111330  38.8671840  22.1956360  50.3124220
  46.5216330  22.7693700  54.5483690  46.9779110  23.5798950  54.7743880
  46.1704540  22.4516840  55.3802180  48.8248940  28.2800040  61.7775990
  49.4691160  28.4859420  62.4549410  49.1878380  27.5188440  61.3246840
  42.4228110  13.1131350  55.0206210  42.2942740  13.1049250  55.9691130
  41.5990130  13.4514440  54.6697220  50.0981020  26.2832390  60.4953440
  50.7403250  25.5825550  60.6085610  50.6230370  27.0630830  60.3150330
  53.9436740  26.5681010  50.2192580  53.7174320  25.8511450  50.8117220
  53.5532940  26.3193450  49.3814330  51.8718640  27.0827290  63.6989500
  52.2074880  27.6693980  64.3767420  50.9518980  26.9520000  63.9287290
  39.4222040  14.8722470  64.4812910  38.7080560  15.0719390  65.0865520
  39.8417080  14.0962040  64.8527710  53.5252990  24.4852950  51.8806740
  53.2374690  24.9465640  52.6684620  54.3205160  24.0250720  52.1490960
  39.7094630  28.8602730  65.4679440  39.8185750  27.9197470  65.3274830
  39.0575190  29.1257480  64.8193170  45.7421390  27.9779070  51.8110710
  45.7331490  28.7108760  51.1955220  44.8219750  27.7310650  51.9037670
  41.3428030  23.1993960  52.5557470  40.7355980  23.9392860  52.5652770
  41.8177380  23.2893320  51.7295670  50.9160820  17.3644780  62.2314360
  51.2841640  16.5439990  62.5593930  50.0559020  17.4246670  62.6470010
  54.2822850  16.3201720  53.0401920  53.6536010  16.4247390  52.3260150
  53.7874770  16.5398500  53.8295800  46.2506880  18.5987670  54.4559800
  45.5423030  19.0674010  54.8973410  46.5351360  17.9409680  55.0904990
  47.8762810  20.0184370  62.4552330  48.3748060  20.4930190  63.1204180
  48.0185760  19.0947890  62.6622360  50.2822310  15.3238330  55.8955590
  50.1590090  15.3424460  54.9465100  51.2306870  15.3717270  56.0153990
  44.4541900  16.9072750  51.8310510  45.3032430  17.3442900  51.7650700
  44.0873170  17.2193010  52.6582570  55.0829670  16.2352330  63.2980720
  54.5803270  16.9757730  63.6374530  55.8986330  16.6236330  62.9817510
  53.3751680  21.4785510  56.7442080  52.4341820  21.4935740  56.9189770
  53.6895750  20.6921470  57.1902380  43.3533320  23.1605110  50.3046040
  44.1196590  23.0486470  50.8671470  43.4308010  22.4643080  49.6522810
  42.0480080  20.5930180  50.9878930  42.1283670  19.6457690  51.0996330
  42.9399830  20.9237060  51.0939590  39.7340270  26.8099140  53.9654980
  38.8080050  27.0520280  53.9560390  40.1996700  27.6373400  53.8439730
  45.9597100  29.9155880  49.9139040  46.7525710  30.2044710  49.4620830
  45.4401450  29.4848050  49.2351520  52.1218070  29.7631800  65.8383870
  53.0739820  29.6789820  65.7884110  51.9746290  30.4273510  66.5117660
  55.0127270  29.1426010  51.3375780  54.7268780  28.7291150  50.5229960
  54.8146820  30.0713720  51.2176300  39.5750880  22.4145100  66.2235100
  40.0789900  21.8352380  66.7951330  38.8358300  22.6985330  66.7611470
  46.4774500  25.1359290  49.7781390  46.3725140  24.5211640  50.5042770
  46.3098720  24.6125180  48.9944400  49.7177230  24.1979320  50.3823380
  49.1687330  24.6448620  51.0266120  50.3396490  23.6928570  50.9061050
  41.6073960  20.5574690  67.1185170  41.6479300  20.2588560  68.0270400
  42.4619460  20.9582300  66.9592690  45.3852350  23.1570240  52.2788680
  45.8068770  22.9910110  53.1220070  45.5103190  22.3470470  51.7843820
  43.5479770  19.1366790  65.0859660  43.0176230  18.6457740  64.4583000
  44.2167840  19.5650990  64.5517590  47.8979990  22.1807850  49.5265780
  48.4185650  21.4656870  49.1606930  48.5448390  22.8193720  49.8266290
  52.4457830  23.6036250  64.8500850  52.8598850  23.7581330  65.6991270
  51.5108830  23.7291470  65.0126630  52.9180000  20.9432410  66.8540000
  53.5000770  20.1884730  66.7660480  53.0941770  21.4739850  66.0771480
  44.0352070  16.1029160  65.1656950  43.9408940  15.4849910  64.4407820
  43.4549460  16.8295450  64.9386860  46.8013510  14.6602400  62.1984340
  46.3530810  14.6826660  61.3529890  46.1678710  14.2621420  62.7954640
  47.2073060  23.5556730  62.8196780  47.6261170  24.3989460  62.6473020
  46.2881690  23.6928770  62.5903560  49.5436960  21.2872910  64.2034620
  49.6633170  20.6914050  64.9429460  50.4030960  21.3242600  63.7835920
  51.8824860  21.8410100  62.7797130  51.3560080  22.3652720  62.1762270
  52.2256200  22.4737490  63.4106860  44.2811250  19.2303470  49.2246840
  44.0800310  18.3670830  49.5860180  44.1103300  19.1436830  48.2868440
  46.3105730  17.8294260  65.4610440  46.9005420  17.5210110  66.1488260
  45.4925970  17.3574010  65.6170340  51.1299160  17.4460070  65.6943460
  50.4414680  16.7841610  65.6293450  51.8505180  16.9998340  66.1391920
  51.7599560  14.0411700  51.7533720  52.0401850  13.1979600  52.1093140
  50.9865290  14.2734810  52.2672470  43.0794050  16.3304090  49.2124720
  43.3819950  16.3371520  48.3043870  43.8188640  15.9801950  49.7092380
  46.2978980  15.2738710  50.1980920  45.9500980  14.5962700  49.6183370
  46.4991750  14.8128220  51.0124310  42.1024180  25.6346510  50.0454520
  42.5399050  26.1776180  50.7012100  42.5871910  24.8093460  50.0550860
  39.3169980  28.4235540  57.4974780  39.6472990  27.5556600  57.2653420
  39.7460980  28.6294060  58.3279740  39.8060190  29.2906130  60.2356410
  39.3691180  29.4706930  61.0680560  40.3737870  30.0480750  60.0938130
  55.4422370  28.7923130  64.5233720  54.8424360  28.8515690  63.7797640
  55.5716270  27.8528110  64.6530570  56.6823820  26.5340950  49.8603430
  55.8516780  26.6017600  50.3310660  56.8595650  27.4245070  49.5570290
  39.6384620  21.8026360  56.5945290  38.9833460  21.5338000  55.9504990
  40.4762570  21.6930840  56.1447270  56.1899450  23.5722800  49.5210150
  56.4648290  24.4801680  49.3929370  56.0010190  23.5085330  50.4572140
  52.5875060  16.5967650  50.8163780  53.0059940  16.4098630  49.9760440
  52.2811120  15.7446700  51.1266710  56.0864790  21.5091790  54.5139580
  55.7108390  20.7419720  54.0820870  55.3567910  21.8914490  55.0014510
  40.6760550  22.1878930  61.1348630  41.0433590  22.1006330  62.0144650
  40.1071370  21.4245480  61.0355490  55.4764410  20.6563310  64.1479100
  55.2450500  20.4276060  63.2477050  55.7368960  21.5762860  64.1023990
  40.2276550  19.0988020  65.0407050  39.3332600  19.0654780  65.3800760
  40.7674100  19.2974810  65.8058300  53.9152480  15.8819740  66.9258800
  54.7922660  15.8903140  67.3092800  53.9273320  15.1450580  66.3151150
  38.8522700  19.0125290  52.5370620  37.9486780  19.2755490  52.3622280
  39.3363320  19.2836460  51.7570580  55.3615750  19.7349280  57.8146820
  55.8853230  19.2411930  57.1836990  55.9475170  19.8699640  58.5594390
  55.5405470  19.8189150  61.3366370  54.5908180  19.7852690  61.4511360
  55.7218480  20.7289260  61.1016140  41.3949910  18.0690830  50.4465000
  42.1041610  17.6474050  49.9612280  40.6789850  18.1366060  49.8148350
  41.0424070  14.1230160  49.4867650  41.7652200  14.6639100  49.8048870
  41.3148590  13.8493580  48.6109190  54.8515720  18.9922630  53.7539230
  55.3474840  18.7593500  54.5388110  54.6531790  18.1534470  53.3376870
  40.7316260  13.3736350  59.3890270  41.3792450  12.8233730  58.9485430
  41.1518100  13.6279500  60.2106080  56.2802880  17.6283580  56.2876910
  56.1702160  17.4739620  57.2259180  57.0410470  17.1004520  56.0452320
  54.6268600  13.5677710  62.7459910  55.2640820  14.1811850  63.1119100
  54.7743490  13.6038370  61.8009140  57.1693150  15.4591500  49.5283050
  58.0942460  15.3272680  49.3201340  57.1468940  15.5384320  50.4819500
  57.2431640  16.2302160  52.1539760  56.4483140  16.1647280  52.6832670
  57.4474920  17.1652800  52.1425110  40.4848260  13.5292020  62.1315590
  40.1363080  13.9855840  62.8973770  40.1535960  12.6349150  62.2138020
  47.9973080  14.7203900  65.6535010  47.9361970  15.3125730  66.4030420
  48.9373460  14.6129860  65.5085270  50.6347640  14.3773960  65.2927300
  51.2488050  14.6953250  64.6308380  51.1797200  13.8922550  65.9123160
  57.0522820  30.2765590  62.6989140  56.5581100  30.6734460  61.9816270
  56.4436110  29.6514800  63.0926420  41.1568900  13.0568220  65.4066360
  41.7051890  12.8756270  64.6432470  41.2224210  12.2662330  65.9422670
  51.3755680  12.9406100  61.6196590  50.5015520  13.2741210  61.4169520
  51.2666430  12.4679280  62.4448460  52.2827660  15.1476970  63.0038310
  51.9541020  14.3328730  62.6240040  53.2309960  15.1046780  62.8804000
  54.7362270  30.9189010  59.9775880  54.2765240  31.6704820  59.6033900
  54.1074730  30.1995480  59.9190680  41.5612890  27.0132250  62.3674600
  40.8346950  26.3937540  62.3000550  41.6222040  27.4072860  61.4972680
  49.1230500  13.8575940  60.5589500  48.3402290  14.3321440  60.8386260
  48.8293430  12.9530770  60.4502680  53.6751570  14.5599040  58.6038590
  54.1159660  14.5044140  57.7560190  53.4059160  15.4757050  58.6748770
  55.5390140  14.1914280  56.6147410  55.4778540  13.2475500  56.4678430
  56.3182170  14.2994370  57.1600870  39.8442890  30.3306640  55.5771360
  39.6764930  29.6977320  56.2753250  38.9777400  30.5366040  55.2265550
  40.4670910  14.1623420  53.0803220  41.2250270  14.2752300  52.5067250
  40.0048080  14.9992620  53.0346650  47.0084720  16.2762690  56.0705530
  46.1959230  15.9019580  55.7301410  47.5126360  15.5207770  56.3726720
  51.5109700  12.9405140  57.3088600  52.1139070  13.5125350  57.7837120
  50.7702690  13.5044580  57.0862500  54.6544300  13.3426700  52.5828880
  54.8494930  14.2410150  52.8496310  53.8674170  13.1113780  53.0761830
  42.8396060  14.6887470  51.6205190  43.3688820  13.9017270  51.4913140
  43.4724380  15.3678660  51.8540720  45.0333900  14.4262610  54.6750580
  44.4036640  13.7249920  54.8420710  44.4939040  15.1866740  54.4583740
  45.1589460  13.7046590  67.1103070  44.8773730  14.2080190  66.3463890
  45.5409160  12.9068340  66.7445200  43.2113350  27.0886980  51.9017080
  42.5822230  27.5572080  52.4502910  43.3261180  26.2436200  52.3363270
  51.7604920  13.1200170  67.6883540  51.6470370  13.4394780  68.5835060
  52.5774660  13.5212680  67.3920820  54.5403410  30.2671700  67.1702230
  55.3328730  29.7720930  66.9628190  54.8336560  30.9461840  67.7777840
  50.6663070  21.1392640  38.0518280  50.5857120  20.2247250  37.7809990
  50.2527490  21.6359710  37.3457990  48.7981110  22.9171660  39.9327550
  48.0223210  22.4372100  40.2226120  49.4494040  22.2377310  39.7583710
  42.8146940  23.2291470  40.8103310  41.9831820  22.9740180  41.2099820
  43.4227920  23.3002240  41.5461230  52.8188540  27.3231850  38.7126680
  52.3570070  26.5519090  39.0413850  53.6314090  27.3497920  39.2179130
  42.7948200  27.2631560  41.0061330  43.0976240  26.3729300  40.8271550
  43.5391790  27.8201780  40.7783580  41.2238890  18.1893360  34.5945700
  40.3355590  18.5309330  34.4925580  41.5080080  17.9893680  33.7026530
  39.1871900  20.7899010  40.4785400  39.7588010  20.0221210  40.4789040
  39.1873440  21.0887770  39.5692010  49.0451850  29.6089860  38.3330670
  48.4263290  30.0647360  37.7625110  49.9003630  29.7641320  37.9320370
  48.2390100  25.5928850  39.9397710  48.1698380  24.6518790  39.7786840
  49.0009960  25.6830260  40.5120280  40.4296770  16.1983370  42.2654330
  40.2499610  15.3009120  42.5457090  40.0276850  16.7455240  42.9401280
  49.2695270  18.3999230  40.1666640  49.6460090  17.5271110  40.0540310
  49.1714780  18.7357930  39.2757080  43.4000280  16.7724860  35.6284080
  43.5067030  17.6728590  35.9352840  42.4892640  16.7242830  35.3378730
  53.0519390  15.8949670  37.0994980  53.8729010  15.4046240  37.1420460
  53.0853470  16.4847330  37.8526820  41.0483440  18.6943870  40.8736670
  41.7293550  18.9582240  41.4924070  40.7331490  17.8544740  41.2074680
  45.2408010  19.7411230  39.9609260  45.7486230  20.2392200  40.6014280
  45.7721250  18.9646430  39.7848620  57.3418940  17.9116420  43.6638610
  56.6371110  18.2998130  43.1453720  57.6076860  18.6066710  44.2659540
  43.5244110  14.3809790  44.2272680  43.5262550  14.8982180  43.4218580
  42.6948420  13.9039970  44.2042610  49.9115200  24.4929100  35.7262580
  49.2932470  24.9578550  35.1625300  50.4238450  25.1856580  36.1432090
  44.7746960  24.0204970  42.4046180  44.4416340  24.6473890  43.0467250
  44.9513640  24.5466850  41.6247850  53.2880870  17.8350050  39.8722520
  52.5836440  18.1234940  40.4525630  53.6493030  18.6450160  39.5122080
  43.2059440  16.0919750  42.2343130  43.5476250  16.9361800  41.9397000
  42.2675250  16.2403490  42.3508470  43.9866060  25.9885770  44.2195360
  44.6040060  26.6636850  43.9379810  43.1259180  26.3973750  44.1282860
  39.2798400  25.1785630  33.1002210  38.9026380  25.6672730  32.3687110
  39.5371470  25.8510910  33.7308740  54.9043650  27.4525180  42.1350000
  54.2207170  28.1224290  42.1266670  55.4437940  27.6505830  41.3694860
  56.3567790  17.2804840  40.2631730  55.4092700  17.3143820  40.3947160
  56.6817780  18.0943790  40.6481090  46.8887330  13.5802020  38.5587720
  47.1962310  13.0248910  37.8423220  45.9588030  13.7146480  38.3760710
  52.4402390  29.2969310  40.8495180  52.4529550  28.8931600  39.9817440
  51.8877610  30.0716600  40.7456610  53.7347810  26.0185530  35.9385350
  53.6244140  25.0759860  36.0634770  53.7316060  26.3801170  36.8248110
  51.8387830  24.1999150  42.1777790  52.2556620  23.9859260  41.3431250
  52.5627650  24.4571940  42.7486410  49.2768090  21.6450850  35.2947840
  48.3497370  21.5788230  35.5236310  49.4292910  22.5830980  35.1803080
  49.2637170  17.9167850  32.2915000  48.3240840  18.0781810  32.3767460
  49.5820430  18.6353530  31.7450990  55.7849930  22.5986370  42.2694030
  54.9568560  22.6679460  41.7944160  56.3800410  23.1840680  41.8009860
  53.3065380  23.2071150  35.7983090  52.6877800  22.8690700  35.1509390
  53.2889830  22.5630910  36.5062280  52.7491940  19.3855690  43.2148900
  52.3363120  20.2109400  43.4688890  52.0167890  18.8000730  43.0225260
  44.8824730  22.1715590  38.0767570  44.4781730  21.4592840  37.5813470
  44.9687850  21.8268830  38.9655610  45.3506430  25.8583150  40.2406780
  45.0534720  25.2528620  39.5614560  46.3006250  25.8960460  40.1296140
  43.5953350  18.9458800  41.8566610  44.1467940  19.0554140  41.0819860
  44.1096860  19.3196400  42.5721840  53.4392040  29.4315020  43.9029880
  52.9622600  30.2387210  43.7102490  52.7553830  28.7793350  44.0556090
  44.4424860  25.5964840  46.8914580  43.5453390  25.8204810  47.1387980
  44.4677730  25.7199780  45.9425980  51.4830080  22.4457960  32.8055840
  51.9223360  21.6080390  32.6593660  52.1958500  23.0787360  32.8919980
  43.2696080  22.4678160  45.4671950  43.1303850  23.3400960  45.8359350
  42.3877440  22.1250970  45.3219890  49.5925460  27.3854030  36.7737080
  50.0321370  28.1278360  36.3592470  49.5312350  27.6280600  37.6976040
  45.0676430  28.4099860  47.6757100  45.0391860  28.8142810  46.8085530
  44.9041400  27.4810220  47.5128700  55.0647220  13.7000770  31.1196880
  54.7519880  13.7927600  32.0195950  55.8259690  14.2781800  31.0694310
  41.5829360  21.0660570  35.5774220  41.4626960  21.7922660  34.9655490
  41.2730250  20.2963480  35.1002130  57.0191250  29.1926960  48.9721270
  57.4950970  29.6709850  49.6510350  57.6398410  29.1244450  48.2466770
  39.2214730  24.2375710  41.3842860  39.2995150  24.3724480  40.4398580
  39.8356410  23.5291600  41.5770980  40.4662360  25.9375900  37.7949040
  40.0590440  26.0790490  36.9402640  41.3575370  25.6536060  37.5920250
  56.4224500  26.3839810  46.1321280  56.5487560  26.1451690  45.2138460
  56.4645880  25.5524350  46.6043360  50.2841240  30.0867810  44.7016090
  50.7985910  29.9975820  45.5038520  49.4410320  30.4327510  44.9944000
  52.2595640  30.3723150  34.1300090  52.0996780  30.0826090  35.0281920
  52.0942350  29.5963280  33.5945320  44.7384020  30.1521680  35.9071710
  44.5626500  29.2357220  35.6939510  43.8839760  30.5108970  36.1469510
  51.9621770  27.8810710  32.6898090  51.2686930  27.8788000  32.0300370
  52.7044630  27.4570030  32.2592260  51.5271700  29.5073420  36.7646580
  51.9828650  28.7262800  37.0785200  51.8664220  30.2180240  37.3087760
  56.2748510  18.4372270  47.0971020  55.6592780  18.9451940  46.5686480
  55.9544930  17.5370600  47.0396960  39.2774250  25.2789880  43.9237320
  39.4405290  24.8095240  43.1056690  39.7426700  24.7713440  44.5886160
  44.0493020  14.4095640  38.9597890  43.6061170  15.1905180  38.6282410
  44.6078010  14.7325530  39.6668830  48.3362830  17.2764160  44.5633210
  47.8742200  17.4847180  45.3753150  47.9340940  16.4623510  44.2603880
  53.3367340  18.4973110  45.6929870  52.4860930  18.1978860  46.0138940
  53.1769130  18.7415120  44.7813690  50.4317050  19.9974860  47.7928660
  50.7570460  19.1638610  47.4530890  51.2197380  20.5203380  47.9406990
  47.1651840  14.0306340  33.8403720  46.5406020  14.0266210  34.5657030
  47.0781960  13.1637300  33.4439690  46.0868920  14.9542970  40.8187490
  46.3841250  15.8605800  40.7379510  46.6354480  14.4661750  40.2047060
  43.8407240  19.5329210  36.6879140  43.6148160  19.3166380  37.5925760
  43.0599770  19.9657670  36.3425110  51.0705000  19.5392580  35.2869790
  50.4713890  20.2628380  35.1033410  51.6184610  19.4769360  34.5046240
  46.2806450  20.4314790  47.3539410  46.1850050  19.4909520  47.2039810
  47.1238430  20.6529860  46.9587480  49.6769870  18.1756120  37.3173070
  50.0699440  18.4928320  36.5041760  50.0386720  17.2968000  37.4317590
  41.4116990  16.8428460  45.5073190  41.0180380  17.6903670  45.7145970
  40.7235390  16.2054830  45.6981830  47.9862040  16.9263430  48.5769930
  47.2960360  16.7335630  49.2116020  48.7294340  17.2098070  49.1094230
  38.7134040  14.7656920  39.5403270  38.4247090  15.3359780  40.2528250
  39.4579800  14.2861370  39.9034500  38.9004270  18.7077040  30.7505990
  38.8178940  19.6507800  30.8920980  38.5487330  18.5651950  29.8718340
  50.2625010  20.7661870  41.4123850  49.5306130  21.2748680  41.7613950
  49.8649350  19.9491850  41.1112630  46.7002400  17.4416070  39.8176340
  46.7038460  17.0006020  38.9680880  47.5953520  17.7633400  39.9248160
  42.5504780  17.3242560  38.7770550  42.2104830  17.8017790  39.5337600
  41.7882100  16.8707680  38.4171650  46.7622550  18.4428150  32.8083100
  46.8835370  18.4014630  33.7568920  46.3771060  19.3052300  32.6529830
  50.7250920  16.2195550  40.8246790  50.7423660  16.6704200  41.6688640
  50.4766500  15.3201190  41.0380230  45.7744050  20.7529290  32.2066400
  45.2060950  20.3047540  31.5802310  46.4833050  21.1122070  31.6731550
  54.1521670  13.6327730  46.6633170  54.4767440  12.9017390  47.1891150
  54.1878180  13.3141370  45.7614160  40.8513230  24.6541310  46.0833130
  40.4668020  24.0134980  46.6816090  41.1625420  25.3577430  46.6527860
  47.0010370  21.5017850  41.5641750  47.3680500  21.0276420  42.3103090
  46.8115430  22.3759420  41.9050090  39.8650860  16.2461540  37.6935220
  39.5797780  15.8817210  38.5313840  39.8029720  15.5142000  37.0798360
  44.7909740  20.5426490  43.8825960  44.4866810  21.4218470  44.1076320
  45.7456200  20.6026280  43.9183400  43.3191530  24.7487480  34.4792810
  42.5453790  24.2085100  34.3191530  44.0486160  24.2294090  34.1410570
  54.0779510  23.7452840  40.2719200  54.7978630  24.2408130  39.8815310
  53.8761330  23.0670730  39.6273070  49.5389450  15.1390800  34.4148590
  48.7254060  14.6403970  34.3393900  49.3451400  15.9789050  33.9984940
  49.4598310  23.8161900  46.1588200  49.3935620  22.8957570  45.9045790
  48.8303450  23.9137340  46.8732840  52.2537840  19.5110450  32.7110750
  53.1417460  19.8227680  32.5362090  52.2242930  18.6382700  32.3191330
  43.3628930  24.4167860  38.1171620  43.8807600  23.6136120  38.0628510
  42.9112950  24.3547000  38.9588450  48.2498430  25.6834140  33.3898920
  48.5914130  26.4276370  32.8942240  47.4211140  25.9965260  33.7523750
  40.8473470  21.3829230  45.0297320  40.4888410  22.0483080  45.6170660
  40.5528030  20.5512780  45.4009940  44.0486590  21.8413470  47.9136870
  43.7486730  21.9870650  47.0164690  44.8197830  21.2818760  47.8210260
  49.3915040  26.6382470  45.9092000  49.4059580  25.7063430  45.6910910
  48.6840140  26.7242230  46.5481770  54.5252110  20.8222290  32.1790610
  54.4415830  21.2536510  31.3287050  55.2446300  21.2820640  32.6117430
  55.6026250  23.2789810  45.2560580  54.8774440  23.8718590  45.0589970
  56.1301710  23.2713350  44.4573950  55.5539360  27.6764550  34.9072740
  54.9115520  27.0220170  35.1816460  55.1670020  28.0819640  34.1313410
  51.1325840  25.0049980  38.7544430  51.4849660  24.4078110  38.0945800
  50.2488170  24.6794210  38.9252680  47.2189120  25.7647670  36.1614840
  47.9060250  26.3116880  36.5422430  46.4321540  26.3088400  36.1964450
  39.3581520  21.3820490  31.6531920  40.2276370  21.6645290  31.9367840
  38.8671840  22.1956360  31.5380730  46.5216330  22.7693700  35.7740200
  46.9779110  23.5798950  36.0000390  46.1704540  22.4516840  36.6058690
  48.8248940  28.2800040  43.0032500  49.4691160  28.4859420  43.6805920
  49.1878380  27.5188440  42.5503350  42.4228110  13.1131350  36.2462720
  42.2942740  13.1049250  37.1947640  41.5990130  13.4514440  35.8953730
  50.0981020  26.2832390  41.7209950  50.7403250  25.5825550  41.8342120
  50.6230370  27.0630830  41.5406840  53.9436740  26.5681010  31.4449090
  53.7174320  25.8511450  32.0373730  53.5532940  26.3193450  30.6070840
  51.8718640  27.0827290  44.9246010  52.2074880  27.6693980  45.6023930
  50.9518980  26.9520000  45.1543800  39.7252770  30.5947870  32.2193550
  40.0850410  31.1937210  31.5650820  39.5845110  31.1407760  32.9928580
  39.4222040  14.8722470  45.7069420  38.7080560  15.0719390  46.3122030
  39.8417080  14.0962040  46.0784220  53.5252990  24.4852950  33.1063250
  53.2374690  24.9465640  33.8941130  54.3205160  24.0250720  33.3747470
  39.7094630  28.8602730  46.6935950  39.8185750  27.9197470  46.5531340
  39.0575190  29.1257480  46.0449680  47.7007220  27.1318620  48.0934070
  47.3804090  26.4127860  48.6379760  47.0265580  27.8073690  48.1670130
  45.7421390  27.9779070  33.0367220  45.7331490  28.7108760  32.4211730
  44.8219750  27.7310650  33.1294180  41.3428030  23.1993960  33.7813980
  40.7355980  23.9392860  33.7909280  41.8177380  23.2893320  32.9552180
  50.9160820  17.3644780  43.4570870  51.2841640  16.5439990  43.7850440
  50.0559020  17.4246670  43.8726520  54.2822850  16.3201720  34.2658430
  53.6536010  16.4247390  33.5516660  53.7874770  16.5398500  35.0552310
  48.7280990  28.0407310  31.6992410  48.8292970  27.8371300  30.7694390
  47.8282730  27.7865590  31.9040190  46.2506880  18.5987670  35.6816310
  45.5423030  19.0674010  36.1229920  46.5351360  17.9409680  36.3161500
  47.8762810  20.0184370  43.6808840  48.3748060  20.4930190  44.3460690
  48.0185760  19.0947890  43.8878870  50.2822310  15.3238330  37.1212100
  50.1590090  15.3424460  36.1721610  51.2306870  15.3717270  37.2410500
  47.3699100  30.5593630  36.3940080  47.6240600  30.5215020  35.4719450
  46.4211580  30.4326960  36.3868330  44.4541900  16.9072750  33.0567020
  45.3032430  17.3442900  32.9907210  44.0873170  17.2193010  33.8839080
  55.0829670  16.2352330  44.5237230  54.5803270  16.9757730  44.8631040
  55.8986330  16.6236330  44.2074020  53.3751680  21.4785510  37.9698590
  52.4341820  21.4935740  38.1446280  53.6895750  20.6921470  38.4158890
  43.3533320  23.1605110  31.5302550  44.1196590  23.0486470  32.0927980
  43.4308010  22.4643080  30.8779320  42.0480080  20.5930180  32.2135440
  42.1283670  19.6457690  32.3252840  42.9399830  20.9237060  32.3196100
  55.3777260  28.6494360  39.6452850  55.5024680  29.4725530  40.1176660
  56.2442820  28.4385090  39.2977000  42.8494790  30.7425570  39.3169980
  43.5857270  30.1941030  39.5878550  43.2335710  31.6081580  39.1775970
  39.7340270  26.8099140  35.1911490  38.8080050  27.0520280  35.1816900
  40.1996700  27.6373400  35.0696240  41.8553070  29.9271640  48.5055560
  42.6565800  30.2483690  48.9190960  41.3404890  29.5667220  49.2275470
  45.9597100  29.9155880  31.1395550  46.7525710  30.2044710  30.6877340
  45.4401450  29.4848050  30.4608030  50.6917700  26.0351510  48.4530970
  50.0855860  26.0583110  47.7126720  50.3871810  25.3034550  48.9898220
  55.0127270  29.1426010  32.5632290  54.7268780  28.7291150  31.7486470
  54.8146820  30.0713720  32.4432810  39.5750880  22.4145100  47.4491610
  40.0789900  21.8352380  48.0207840  38.8358300  22.6985330  47.9867980
  46.4774500  25.1359290  31.0037900  46.3725140  24.5211640  31.7299280
  46.3098720  24.6125180  30.2200910  46.6288820  23.8216090  46.9827130
  45.8634490  24.3901090  46.8981800  46.8104780  23.5292300  46.0895360
  49.7177230  24.1979320  31.6079890  49.1687330  24.6448620  32.2522630
  50.3396490  23.6928570  32.1317560  53.7712170  25.5521420  47.5402150
  54.5121640  25.8897180  47.0369610  53.0084850  25.7213480  46.9871920
  41.6073960  20.5574690  48.3441680  41.6479300  20.2588560  49.2526910
  42.4619460  20.9582300  48.1849200  45.3852350  23.1570240  33.5045190
  45.8068770  22.9910110  34.3476580  45.5103190  22.3470470  33.0100330
  43.5479770  19.1366790  46.3116170  43.0176230  18.6457740  45.6839510
  44.2167840  19.5650990  45.7774100  47.8979990  22.1807850  30.7522290
  48.4185650  21.4656870  30.3863440  48.5448390  22.8193720  31.0522800
  52.4457830  23.6036250  46.0757360  52.8598850  23.7581330  46.9247780
  51.5108830  23.7291470  46.2383140  52.9180000  20.9432410  48.0796510
  53.5000770  20.1884730  47.9916990  53.0941770  21.4739850  47.3027990
  44.0352070  16.1029160  46.3913460  43.9408940  15.4849910  45.6664330
  43.4549460  16.8295450  46.1643370  46.8013510  14.6602400  43.4240850
  46.3530810  14.6826660  42.5786400  46.1678710  14.2621420  44.0211150
  47.2073060  23.5556730  44.0453290  47.6261170  24.3989460  43.8729530
  46.2881690  23.6928770  43.8160070  49.5436960  21.2872910  45.4291130
  49.6633170  20.6914050  46.1685970  50.4030960  21.3242600  45.0092430
  51.8824860  21.8410100  44.0053640  51.3560080  22.3652720  43.4018780
  52.2256200  22.4737490  44.6363370  44.2811250  19.2303470  30.4503350
  44.0800310  18.3670830  30.8116690  44.1103300  19.1436830  29.5124950
  45.0580480  29.8609740  45.1611020  44.5201570  30.5855800  44.8419720
  45.3114440  29.3840080  44.3708360  46.3105730  17.8294260  46.6866950
  46.9005420  17.5210110  47.3744770  45.4925970  17.3574010  46.8426850
  51.1299160  17.4460070  46.9199970  50.4414680  16.7841610  46.8549960
  51.8505180  16.9998340  47.3648430  51.7599560  14.0411700  32.9790230
  52.0401850  13.1979600  33.3349650  50.9865290  14.2734810  33.4928980
  43.0794050  16.3304090  30.4381230  43.3819950  16.3371520  29.5300380
  43.8188640  15.9801950  30.9348890  47.9142690  31.0960950  45.4197670
  47.8401390  31.9996090  45.7270040  47.0121530  30.7772850  45.3919740
  46.2978980  15.2738710  31.4237430  45.9500980  14.5962700  30.8439880
  46.4991750  14.8128220  32.2380820  48.4628020  30.2619460  33.0424030
  49.3578810  30.6004430  33.0642790  48.4945650  29.5398870  32.4148310
  42.1024180  25.6346510  31.2711030  42.5399050  26.1776180  31.9268610
  42.5871910  24.8093460  31.2807370  39.3169980  28.4235540  38.7231290
  39.6472990  27.5556600  38.4909930  39.7460980  28.6294060  39.5536250
  43.9131900  26.7544550  36.3833260  43.6127440  26.6309520  37.2837170
  43.8069390  25.8953140  35.9748990  39.8060190  29.2906130  41.4612920
  39.3691180  29.4706930  42.2937070  40.3737870  30.0480750  41.3194640
  55.4422370  28.7923130  45.7490230  54.8424360  28.8515690  45.0054150
  55.5716270  27.8528110  45.8787080  56.6823820  26.5340950  31.0859940
  55.8516780  26.6017600  31.5567170  56.8595650  27.4245070  30.7826800
  56.1380280  23.2788430  33.5894140  56.8999190  23.8485080  33.6953830
  56.1534650  22.7115630  34.3602450  39.6384620  21.8026360  37.8201800
  38.9833460  21.5338000  37.1761500  40.4762570  21.6930840  37.3703780
  57.1440250  24.1338530  38.4336070  57.5149080  23.3505850  38.0272040
  57.7842180  24.8227630  38.2553370  54.1274010  25.5175110  43.8466390
  53.3133850  25.9472270  44.1092180  54.5348210  26.1293520  43.2335440
  56.1899450  23.5722800  30.7466660  56.4648290  24.4801680  30.6185880
  56.0010190  23.5085330  31.6828650  52.5875060  16.5967650  32.0420290
  53.0059940  16.4098630  31.2016950  52.2811120  15.7446700  32.3523220
  56.0864790  21.5091790  35.7396090  55.7108390  20.7419720  35.3077380
  55.3567910  21.8914490  36.2271020  40.6760550  22.1878930  42.3605140
  41.0433590  22.1006330  43.2401160  40.1071370  21.4245480  42.2612000
  55.4764410  20.6563310  45.3735610  55.2450500  20.4276060  44.4733560
  55.7368960  21.5762860  45.3280500  40.2276550  19.0988020  46.2663560
  39.3332600  19.0654780  46.6057270  40.7674100  19.2974810  47.0314810
  53.9152480  15.8819740  48.1515310  54.7922660  15.8903140  48.5349310
  53.9273320  15.1450580  47.5407660  38.8522700  19.0125290  33.7627130
  37.9486780  19.2755490  33.5878790  39.3363320  19.2836460  32.9827090
  55.3615750  19.7349280  39.0403330  55.8853230  19.2411930  38.4093500
  55.9475170  19.8699640  39.7850900  55.5405470  19.8189150  42.5622880
  54.5908180  19.7852690  42.6767870  55.7218480  20.7289260  42.3272650
  41.3949910  18.0690830  31.6721510  42.1041610  17.6474050  31.1868790
  40.6789850  18.1366060  31.0404860  41.0424070  14.1230160  30.7124160
  41.7652200  14.6639100  31.0305380  41.3148590  13.8493580  29.8365700
  54.8515720  18.9922630  34.9795740  55.3474840  18.7593500  35.7644620
  54.6531790  18.1534470  34.5633380  40.7316260  13.3736350  40.6146780
  41.3792450  12.8233730  40.1741940  41.1518100  13.6279500  41.4362590
  56.2802880  17.6283580  37.5133420  56.1702160  17.4739620  38.4515690
  57.0410470  17.1004520  37.2708830  54.6268600  13.5677710  43.9716420
  55.2640820  14.1811850  44.3375610  54.7743490  13.6038370  43.0265650
  57.1693150  15.4591500  30.7539560  58.0942460  15.3272680  30.5457850
  57.1468940  15.5384320  31.7076010  57.2431640  16.2302160  33.3796270
  56.4483140  16.1647280  33.9089180  57.4474920  17.1652800  33.3681620
  54.1850060  30.2693710  37.3734660  54.7809130  29.9478280  36.6969080
  54.4428210  29.7965530  38.1647930  40.4848260  13.5292020  43.3572100
  40.1363080  13.9855840  44.1230280  40.1535960  12.6349150  43.4394530
  42.0912630  26.7011620  47.5225290  42.0482260  26.3304530  48.4039750
  42.2223640  27.6389190  47.6627110  45.7918660  28.2571210  43.1235010
  45.5510020  28.5245770  42.2365530  46.7321300  28.4276940  43.1785870
  47.9973080  14.7203900  46.8791520  47.9361970  15.3125730  47.6286930
  48.9373460  14.6129860  46.7341780  50.6347640  14.3773960  46.5183810
  51.2488050  14.6953250  45.8564890  51.1797200  13.8922550  47.1379670
  57.0522820  30.2765590  43.9245650  56.5581100  30.6734460  43.2072780
  56.4436110  29.6514800  44.3182930  41.1568900  13.0568220  46.6322870
  41.7051890  12.8756270  45.8688980  41.2224210  12.2662330  47.1679180
  41.9300660  29.6473870  44.6423070  41.3360980  29.5158570  45.3813110
  41.9224500  28.8112010  44.1765170  51.3755680  12.9406100  42.8453100
  50.5015520  13.2741210  42.6426030  51.2666430  12.4679280  43.6704970
  52.2827660  15.1476970  44.2294820  51.9541020  14.3328730  43.8496550
  53.2309960  15.1046780  44.1060510  54.7362270  30.9189010  41.2032390
  54.2765240  31.6704820  40.8290410  54.1074730  30.1995480  41.1447190
  41.5612890  27.0132250  43.5931110  40.8346950  26.3937540  43.5257060
  41.6222040  27.4072860  42.7229190  45.1657990  29.2277250  40.3780520
  45.6823010  28.6164610  39.8528780  45.8155370  29.7306030  40.8691530
  47.9053490  30.1185740  41.2049500  48.1931300  29.8640040  40.3282510
  48.4176710  29.5663100  41.7955070  49.1230500  13.8575940  41.7846010
  48.3402290  14.3321440  42.0642770  48.8293430  12.9530770  41.6759190
  53.6751570  14.5599040  39.8295100  54.1159660  14.5044140  38.9816700
  53.4059160  15.4757050  39.9005280  55.5390140  14.1914280  37.8403920
  55.4778540  13.2475500  37.6934940  56.3182170  14.2994370  38.3857380
  39.8442890  30.3306640  36.8027870  39.6764930  29.6977320  37.5009760
  38.9777400  30.5366040  36.4522060  40.4670910  14.1623420  34.3059730
  41.2250270  14.2752300  33.7323760  40.0048080  14.9992620  34.2603160
  47.0084720  16.2762690  37.2962040  46.1959230  15.9019580  36.9557920
  47.5126360  15.5207770  37.5983230  51.5109700  12.9405140  38.5345110
  52.1139070  13.5125350  39.0093630  50.7702690  13.5044580  38.3119010
  54.6544300  13.3426700  33.8085390  54.8494930  14.2410150  34.0752820
  53.8674170  13.1113780  34.3018340  41.4505590  29.0239870  34.2478010
  40.9253210  29.4047900  33.5439970  41.3750170  29.6490640  34.9687720
  42.8396060  14.6887470  32.8461700  43.3688820  13.9017270  32.7169650
  43.4724380  15.3678660  33.0797230  45.0333900  14.4262610  35.9007090
  44.4036640  13.7249920  36.0677220  44.4939040  15.1866740  35.6840250
  56.2070910  30.5827410  35.5691950  56.3823100  29.8965150  34.9252870
  55.5092480  31.1074460  35.1768620  45.1589460  13.7046590  48.3359580
  44.8773730  14.2080190  47.5720400  45.5409160  12.9068340  47.9701710
  44.0498560  30.9722250  33.1227260  44.7817380  30.6881530  32.5751150
  44.3092230  30.7335530  34.0126640  43.2113350  27.0886980  33.1273590
  42.5822230  27.5572080  33.6759420  43.3261180  26.2436200  33.5619780
  51.7604920  13.1200170  48.9140050  51.6470370  13.4394780  49.8091570
  52.5774660  13.5212680  48.6177330  50.6663070  21.1392640  19.2774790
  50.5857120  20.2247250  19.0066500  50.2527490  21.6359710  18.5714500
  48.7981110  22.9171660  21.1584060  48.0223210  22.4372100  21.4482630
  49.4494040  22.2377310  20.9840220  42.8146940  23.2291470  22.0359820
  41.9831820  22.9740180  22.4356330  43.4227920  23.3002240  22.7717740
  52.8188540  27.3231850  19.9383190  52.3570070  26.5519090  20.2670360
  53.6314090  27.3497920  20.4435640  42.7948200  27.2631560  22.2317840
  43.0976240  26.3729300  22.0528060  43.5391790  27.8201780  22.0040090
  41.2238890  18.1893360  15.8202210  40.3355590  18.5309330  15.7182090
  41.5080080  17.9893680  14.9283040  39.1871900  20.7899010  21.7041910
  39.7588010  20.0221210  21.7045550  39.1873440  21.0887770  20.7948520
  49.0451850  29.6089860  19.5587180  48.4263290  30.0647360  18.9881620
  49.9003630  29.7641320  19.1576880  48.2390100  25.5928850  21.1654220
  48.1698380  24.6518790  21.0043350  49.0009960  25.6830260  21.7376790
  40.4296770  16.1983370  23.4910840  40.2499610  15.3009120  23.7713600
  40.0276850  16.7455240  24.1657790  49.2695270  18.3999230  21.3923150
  49.6460090  17.5271110  21.2796820  49.1714780  18.7357930  20.5013590
  43.4000280  16.7724860  16.8540590  43.5067030  17.6728590  17.1609350
  42.4892640  16.7242830  16.5635240  53.0519390  15.8949670  18.3251490
  53.8729010  15.4046240  18.3676970  53.0853470  16.4847330  19.0783330
  41.0483440  18.6943870  22.0993180  41.7293550  18.9582240  22.7180580
  40.7331490  17.8544740  22.4331190  45.2408010  19.7411230  21.1865770
  45.7486230  20.2392200  21.8270790  45.7721250  18.9646430  21.0105130
  57.3418940  17.9116420  24.8895120  56.6371110  18.2998130  24.3710230
  57.6076860  18.6066710  25.4916050  43.5244110  14.3809790  25.4529190
  43.5262550  14.8982180  24.6475090  42.6948420  13.9039970  25.4299120
  49.9115200  24.4929100  16.9519090  49.2932470  24.9578550  16.3881810
  50.4238450  25.1856580  17.3688600  44.7746960  24.0204970  23.6302690
  44.4416340  24.6473890  24.2723760  44.9513640  24.5466850  22.8504360
  53.2880870  17.8350050  21.0979030  52.5836440  18.1234940  21.6782140
  53.6493030  18.6450160  20.7378590  43.2059440  16.0919750  23.4599640
  43.5476250  16.9361800  23.1653510  42.2675250  16.2403490  23.5764980
  43.9866060  25.9885770  25.4451870  44.6040060  26.6636850  25.1636320
  43.1259180  26.3973750  25.3539370  39.2798400  25.1785630  14.3258720
  38.9026380  25.6672730  13.5943620  39.5371470  25.8510910  14.9565250
  54.9043650  27.4525180  23.3606510  54.2207170  28.1224290  23.3523180
  55.4437940  27.6505830  22.5951370  56.3567790  17.2804840  21.4888240
  55.4092700  17.3143820  21.6203670  56.6817780  18.0943790  21.8737600
  46.8887330  13.5802020  19.7844230  47.1962310  13.0248910  19.0679730
  45.9588030  13.7146480  19.6017220  52.4402390  29.2969310  22.0751690
  52.4529550  28.8931600  21.2073950  51.8877610  30.0716600  21.9713120
  53.7347810  26.0185530  17.1641860  53.6244140  25.0759860  17.2891280
  53.7316060  26.3801170  18.0504620  51.8387830  24.1999150  23.4034300
  52.2556620  23.9859260  22.5687760  52.5627650  24.4571940  23.9742920
  49.2768090  21.6450850  16.5204350  48.3497370  21.5788230  16.7492820
  49.4292910  22.5830980  16.4059590  49.2637170  17.9167850  13.5171510
  48.3240840  18.0781810  13.6023970  49.5820430  18.6353530  12.9707500
  55.7849930  22.5986370  23.4950540  54.9568560  22.6679460  23.0200670
  56.3800410  23.1840680  23.0266370  53.3065380  23.2071150  17.0239600
  52.6877800  22.8690700  16.3765900  53.2889830  22.5630910  17.7318790
  52.7491940  19.3855690  24.4405410  52.3363120  20.2109400  24.6945400
  52.0167890  18.8000730  24.2481770  44.8824730  22.1715590  19.3024080
  44.4781730  21.4592840  18.8069980  44.9687850  21.8268830  20.1912120
  45.3506430  25.8583150  21.4663290  45.0534720  25.2528620  20.7871070
  46.3006250  25.8960460  21.3552650  43.5953350  18.9458800  23.0823120
  44.1467940  19.0554140  22.3076370  44.1096860  19.3196400  23.7978350
  53.4392040  29.4315020  25.1286390  52.9622600  30.2387210  24.9359000
  52.7553830  28.7793350  25.2812600  44.4424860  25.5964840  28.1171090
  43.5453390  25.8204810  28.3644490  44.4677730  25.7199780  27.1682490
  51.4830080  22.4457960  14.0312350  51.9223360  21.6080390  13.8850170
  52.1958500  23.0787360  14.1176490  43.2696080  22.4678160  26.6928460
  43.1303850  23.3400960  27.0615860  42.3877440  22.1250970  26.5476400
  49.5925460  27.3854030  17.9993590  50.0321370  28.1278360  17.5848980
  49.5312350  27.6280600  18.9232550  45.0676430  28.4099860  28.9013610
  45.0391860  28.8142810  28.0342040  44.9041400  27.4810220  28.7385210
  55.0647220  13.7000770  12.3453390  54.7519880  13.7927600  13.2452460
  55.8259690  14.2781800  12.2950820  41.5829360  21.0660570  16.8030730
  41.4626960  21.7922660  16.1912000  41.2730250  20.2963480  16.3258640
  57.0191250  29.1926960  30.1977780  57.4950970  29.6709850  30.8766860
  57.6398410  29.1244450  29.4723280  39.2214730  24.2375710  22.6099370
  39.2995150  24.3724480  21.6655090  39.8356410  23.5291600  22.8027490
  40.4662360  25.9375900  19.0205550  40.0590440  26.0790490  18.1659150
  41.3575370  25.6536060  18.8176760  56.4224500  26.3839810  27.3577790
  56.5487560  26.1451690  26.4394970  56.4645880  25.5524350  27.8299870
  50.2841240  30.0867810  25.9272600  50.7985910  29.9975820  26.7295030
  49.4410320  30.4327510  26.2200510  52.2595640  30.3723150  15.3556600
  52.0996780  30.0826090  16.2538430  52.0942350  29.5963280  14.8201830
  44.7384020  30.1521680  17.1328220  44.5626500  29.2357220  16.9196020
  43.8839760  30.5108970  17.3726020  51.9621770  27.8810710  13.9154600
  51.2686930  27.8788000  13.2556880  52.7044630  27.4570030  13.4848770
  51.5271700  29.5073420  17.9903090  51.9828650  28.7262800  18.3041710
  51.8664220  30.2180240  18.5344270  56.2748510  18.4372270  28.3227530
  55.6592780  18.9451940  27.7942990  55.9544930  17.5370600  28.2653470
  39.2774250  25.2789880  25.1493830  39.4405290  24.8095240  24.3313200
  39.7426700  24.7713440  25.8142670  44.0493020  14.4095640  20.1854400
  43.6061170  15.1905180  19.8538920  44.6078010  14.7325530  20.8925340
  48.3362830  17.2764160  25.7889720  47.8742200  17.4847180  26.6009660
  47.9340940  16.4623510  25.4860390  53.3367340  18.4973110  26.9186380
  52.4860930  18.1978860  27.2395450  53.1769130  18.7415120  26.0070200
  50.4317050  19.9974860  29.0185170  50.7570460  19.1638610  28.6787400
  51.2197380  20.5203380  29.1663500  47.1651840  14.0306340  15.0660230
  46.5406020  14.0266210  15.7913540  47.0781960  13.1637300  14.6696200
  46.0868920  14.9542970  22.0444000  46.3841250  15.8605800  21.9636020
  46.6354480  14.4661750  21.4303570  43.8407240  19.5329210  17.9135650
  43.6148160  19.3166380  18.8182270  43.0599770  19.9657670  17.5681620
  51.0705000  19.5392580  16.5126300  50.4713890  20.2628380  16.3289920
  51.6184610  19.4769360  15.7302750  46.2806450  20.4314790  28.5795920
  46.1850050  19.4909520  28.4296320  47.1238430  20.6529860  28.1843990
  49.6769870  18.1756120  18.5429580  50.0699440  18.4928320  17.7298270
  50.0386720  17.2968000  18.6574100  41.4116990  16.8428460  26.7329700
  41.0180380  17.6903670  26.9402480  40.7235390  16.2054830  26.9238340
  47.9862040  16.9263430  29.8026440  47.2960360  16.7335630  30.4372530
  48.7294340  17.2098070  30.3350740  38.7134040  14.7656920  20.7659780
  38.4247090  15.3359780  21.4784760  39.4579800  14.2861370  21.1291010
  38.9004270  18.7077040  11.9762500  38.8178940  19.6507800  12.1177490
  38.5487330  18.5651950  11.0974850  50.2625010  20.7661870  22.6380360
  49.5306130  21.2748680  22.9870460  49.8649350  19.9491850  22.3369140
  46.7002400  17.4416070  21.0432850  46.7038460  17.0006020  20.1937390
  47.5953520  17.7633400  21.1504670  42.5504780  17.3242560  20.0027060
  42.2104830  17.8017790  20.7594110  41.7882100  16.8707680  19.6428160
  46.7622550  18.4428150  14.0339610  46.8835370  18.4014630  14.9825430
  46.3771060  19.3052300  13.8786340  50.7250920  16.2195550  22.0503300
  50.7423660  16.6704200  22.8945150  50.4766500  15.3201190  22.2636740
  45.7744050  20.7529290  13.4322910  45.2060950  20.3047540  12.8058820
  46.4833050  21.1122070  12.8988060  54.1521670  13.6327730  27.8889680
  54.4767440  12.9017390  28.4147660  54.1878180  13.3141370  26.9870670
  40.8513230  24.6541310  27.3089640  40.4668020  24.0134980  27.9072600
  41.1625420  25.3577430  27.8784370  47.0010370  21.5017850  22.7898260
  47.3680500  21.0276420  23.5359600  46.8115430  22.3759420  23.1306600
  39.8650860  16.2461540  18.9191730  39.5797780  15.8817210  19.7570350
  39.8029720  15.5142000  18.3054870  44.7909740  20.5426490  25.1082470
  44.4866810  21.4218470  25.3332830  45.7456200  20.6026280  25.1439910
  43.3191530  24.7487480  15.7049320  42.5453790  24.2085100  15.5448040
  44.0486160  24.2294090  15.3667080  54.0779510  23.7452840  21.4975710
  54.7978630  24.2408130  21.1071820  53.8761330  23.0670730  20.8529580
  49.5389450  15.1390800  15.6405100  48.7254060  14.6403970  15.5650410
  49.3451400  15.9789050  15.2241450  49.4598310  23.8161900  27.3844710
  49.3935620  22.8957570  27.1302300  48.8303450  23.9137340  28.0989350
  52.2537840  19.5110450  13.9367260  53.1417460  19.8227680  13.7618600
  52.2242930  18.6382700  13.5447840  43.3628930  24.4167860  19.3428130
  43.8807600  23.6136120  19.2885020  42.9112950  24.3547000  20.1844960
  48.2498430  25.6834140  14.6155430  48.5914130  26.4276370  14.1198750
  47.4211140  25.9965260  14.9780260  40.8473470  21.3829230  26.2553830
  40.4888410  22.0483080  26.8427170  40.5528030  20.5512780  26.6266450
  44.0486590  21.8413470  29.1393380  43.7486730  21.9870650  28.2421200
  44.8197830  21.2818760  29.0466770  49.3915040  26.6382470  27.1348510
  49.4059580  25.7063430  26.9167420  48.6840140  26.7242230  27.7738280
  54.5252110  20.8222290  13.4047120  54.4415830  21.2536510  12.5543560
  55.2446300  21.2820640  13.8373940  55.6026250  23.2789810  26.4817090
  54.8774440  23.8718590  26.2846480  56.1301710  23.2713350  25.6830460
  55.5539360  27.6764550  16.1329250  54.9115520  27.0220170  16.4072970
  55.1670020  28.0819640  15.3569920  51.1325840  25.0049980  19.9800940
  51.4849660  24.4078110  19.3202310  50.2488170  24.6794210  20.1509190
  47.2189120  25.7647670  17.3871350  47.9060250  26.3116880  17.7678940
  46.4321540  26.3088400  17.4220960  39.3581520  21.3820490  12.8788430
  40.2276370  21.6645290  13.1624350  38.8671840  22.1956360  12.7637240
  46.5216330  22.7693700  16.9996710  46.9779110  23.5798950  17.2256900
  46.1704540  22.4516840  17.8315200  48.8248940  28.2800040  24.2289010
  49.4691160  28.4859420  24.9062430  49.1878380  27.5188440  23.7759860
  42.4228110  13.1131350  17.4719230  42.2942740  13.1049250  18.4204150
  41.5990130  13.4514440  17.1210240  50.0981020  26.2832390  22.9466460
  50.7403250  25.5825550  23.0598630  50.6230370  27.0630830  22.7663350
  53.9436740  26.5681010  12.6705600  53.7174320  25.8511450  13.2630240
  53.5532940  26.3193450  11.8327350  51.8718640  27.0827290  26.1502520
  52.2074880  27.6693980  26.8280440  50.9518980  26.9520000  26.3800310
  39.7252770  30.5947870  13.4450060  40.0850410  31.1937210  12.7907330
  39.5845110  31.1407760  14.2185090  39.4222040  14.8722470  26.9325930
  38.7080560  15.0719390  27.5378540  39.8417080  14.0962040  27.3040730
  53.5252990  24.4852950  14.3319760  53.2374690  24.9465640  15.1197640
  54.3205160  24.0250720  14.6003980  39.7094630  28.8602730  27.9192460
  39.8185750  27.9197470  27.7787850  39.0575190  29.1257480  27.2706190
  47.7007220  27.1318620  29.3190580  47.3804090  26.4127860  29.8636270
  47.0265580  27.8073690  29.3926640  45.7421390  27.9779070  14.2623730
  45.7331490  28.7108760  13.6468240  44.8219750  27.7310650  14.3550690
  41.3428030  23.1993960  15.0070490  40.7355980  23.9392860  15.0165790
  41.8177380  23.2893320  14.1808690  50.9160820  17.3644780  24.6827380
  51.2841640  16.5439990  25.0106950  50.0559020  17.4246670  25.0983030
  54.2822850  16.3201720  15.4914940  53.6536010  16.4247390  14.7773170
  53.7874770  16.5398500  16.2808820  48.7280990  28.0407310  12.9248920
  48.8292970  27.8371300  11.9950900  47.8282730  27.7865590  13.1296700
  46.2506880  18.5987670  16.9072820  45.5423030  19.0674010  17.3486430
  46.5351360  17.9409680  17.5418010  47.8762810  20.0184370  24.9065350
  48.3748060  20.4930190  25.5717200  48.0185760  19.0947890  25.1135380
  50.2822310  15.3238330  18.3468610  50.1590090  15.3424460  17.3978120
  51.2306870  15.3717270  18.4667010  47.3699100  30.5593630  17.6196590
  47.6240600  30.5215020  16.6975960  46.4211580  30.4326960  17.6124840
  44.4541900  16.9072750  14.2823530  45.3032430  17.3442900  14.2163720
  44.0873170  17.2193010  15.1095590  55.0829670  16.2352330  25.7493740
  54.5803270  16.9757730  26.0887550  55.8986330  16.6236330  25.4330530
  53.3751680  21.4785510  19.1955100  52.4341820  21.4935740  19.3702790
  53.6895750  20.6921470  19.6415400  43.3533320  23.1605110  12.7559060
  44.1196590  23.0486470  13.3184490  43.4308010  22.4643080  12.1035830
  42.0480080  20.5930180  13.4391950  42.1283670  19.6457690  13.5509350
  42.9399830  20.9237060  13.5452610  55.3777260  28.6494360  20.8709360
  55.5024680  29.4725530  21.3433170  56.2442820  28.4385090  20.5233510
  42.8494790  30.7425570  20.5426490  43.5857270  30.1941030  20.8135060
  43.2335710  31.6081580  20.4032480  39.7340270  26.8099140  16.4168000
  38.8080050  27.0520280  16.4073410  40.1996700  27.6373400  16.2952750
  41.8553070  29.9271640  29.7312070  42.6565800  30.2483690  30.1447470
  41.3404890  29.5667220  30.4531980  45.9597100  29.9155880  12.3652060
  46.7525710  30.2044710  11.9133850  45.4401450  29.4848050  11.6864540
  50.6917700  26.0351510  29.6787480  50.0855860  26.0583110  28.9383230
  50.3871810  25.3034550  30.2154730  52.1218070  29.7631800  28.2896890
  53.0739820  29.6789820  28.2397130  51.9746290  30.4273510  28.9630680
  55.0127270  29.1426010  13.7888800  54.7268780  28.7291150  12.9742980
  54.8146820  30.0713720  13.6689320  39.5750880  22.4145100  28.6748120
  40.0789900  21.8352380  29.2464350  38.8358300  22.6985330  29.2124490
  46.4774500  25.1359290  12.2294410  46.3725140  24.5211640  12.9555790
  46.3098720  24.6125180  11.4457420  46.6288820  23.8216090  28.2083640
  45.8634490  24.3901090  28.1238310  46.8104780  23.5292300  27.3151870
  49.7177230  24.1979320  12.8336400  49.1687330  24.6448620  13.4779140
  50.3396490  23.6928570  13.3574070  53.7712170  25.5521420  28.7658660
  54.5121640  25.8897180  28.2626120  53.0084850  25.7213480  28.2128430
  41.6073960  20.5574690  29.5698190  41.6479300  20.2588560  30.4783420
  42.4619460  20.9582300  29.4105710  45.3852350  23.1570240  14.7301700
  45.8068770  22.9910110  15.5733090  45.5103190  22.3470470  14.2356840
  43.5479770  19.1366790  27.5372680  43.0176230  18.6457740  26.9096020
  44.2167840  19.5650990  27.0030610  47.8979990  22.1807850  11.9778800
  48.4185650  21.4656870  11.6119950  48.5448390  22.8193720  12.2779310
  52.4457830  23.6036250  27.3013870  52.8598850  23.7581330  28.1504290
  51.5108830  23.7291470  27.4639650  52.9180000  20.9432410  29.3053020
  53.5000770  20.1884730  29.2173500  53.0941770  21.4739850  28.5284500
  44.0352070  16.1029160  27.6169970  43.9408940  15.4849910  26.8920840
  43.4549460  16.8295450  27.3899880  46.8013510  14.6602400  24.6497360
  46.3530810  14.6826660  23.8042910  46.1678710  14.2621420  25.2467660
  47.2073060  23.5556730  25.2709800  47.6261170  24.3989460  25.0986040
  46.2881690  23.6928770  25.0416580  49.5436960  21.2872910  26.6547640
  49.6633170  20.6914050  27.3942480  50.4030960  21.3242600  26.2348940
  51.8824860  21.8410100  25.2310150  51.3560080  22.3652720  24.6275290
  52.2256200  22.4737490  25.8619880  44.2811250  19.2303470  11.6759860
  44.0800310  18.3670830  12.0373200  44.1103300  19.1436830  10.7381460
  45.0580480  29.8609740  26.3867530  44.5201570  30.5855800  26.0676230
  45.3114440  29.3840080  25.5964870  46.3105730  17.8294260  27.9123460
  46.9005420  17.5210110  28.6001280  45.4925970  17.3574010  28.0683360
  51.1299160  17.4460070  28.1456480  50.4414680  16.7841610  28.0806470
  51.8505180  16.9998340  28.5904940  51.7599560  14.0411700  14.2046740
  52.0401850  13.1979600  14.5606160  50.9865290  14.2734810  14.7185490
  43.0794050  16.3304090  11.6637740  43.3819950  16.3371520  10.7556890
  43.8188640  15.9801950  12.1605400  47.9142690  31.0960950  26.6454180
  47.8401390  31.9996090  26.9526550  47.0121530  30.7772850  26.6176250
  46.2978980  15.2738710  12.6493940  45.9500980  14.5962700  12.0696390
  46.4991750  14.8128220  13.4637330  48.4628020  30.2619460  14.2680540
  49.3578810  30.6004430  14.2899300  48.4945650  29.5398870  13.6404820
  42.1024180  25.6346510  12.4967540  42.5399050  26.1776180  13.1525120
  42.5871910  24.8093460  12.5063880  39.3169980  28.4235540  19.9487800
  39.6472990  27.5556600  19.7166440  39.7460980  28.6294060  20.7792760
  43.9131900  26.7544550  17.6089770  43.6127440  26.6309520  18.5093680
  43.8069390  25.8953140  17.2005500  39.8060190  29.2906130  22.6869430
  39.3691180  29.4706930  23.5193580  40.3737870  30.0480750  22.5451150
  55.4422370  28.7923130  26.9746740  54.8424360  28.8515690  26.2310660
  55.5716270  27.8528110  27.1043590  56.6823820  26.5340950  12.3116450
  55.8516780  26.6017600  12.7823680  56.8595650  27.4245070  12.0083310
  56.1380280  23.2788430  14.8150650  56.8999190  23.8485080  14.9210340
  56.1534650  22.7115630  15.5858960  39.6384620  21.8026360  19.0458310
  38.9833460  21.5338000  18.4018010  40.4762570  21.6930840  18.5960290
  57.1440250  24.1338530  19.6592580  57.5149080  23.3505850  19.2528550
  57.7842180  24.8227630  19.4809880  54.1274010  25.5175110  25.0722900
  53.3133850  25.9472270  25.3348690  54.5348210  26.1293520  24.4591950
  56.1899450  23.5722800  11.9723170  56.4648290  24.4801680  11.8442390
  56.0010190  23.5085330  12.9085160  52.5875060  16.5967650  13.2676800
  53.0059940  16.4098630  12.4273460  52.2811120  15.7446700  13.5779730
  56.0864790  21.5091790  16.9652600  55.7108390  20.7419720  16.5333890
  55.3567910  21.8914490  17.4527530  40.6760550  22.1878930  23.5861650
  41.0433590  22.1006330  24.4657670  40.1071370  21.4245480  23.4868510
  55.4764410  20.6563310  26.5992120  55.2450500  20.4276060  25.6990070
  55.7368960  21.5762860  26.5537010  40.2276550  19.0988020  27.4920070
  39.3332600  19.0654780  27.8313780  40.7674100  19.2974810  28.2571320
  53.9152480  15.8819740  29.3771820  54.7922660  15.8903140  29.7605820
  53.9273320  15.1450580  28.7664170  38.8522700  19.0125290  14.9883640
  37.9486780  19.2755490  14.8135300  39.3363320  19.2836460  14.2083600
  55.3615750  19.7349280  20.2659840  55.8853230  19.2411930  19.6350010
  55.9475170  19.8699640  21.0107410  55.5405470  19.8189150  23.7879390
  54.5908180  19.7852690  23.9024380  55.7218480  20.7289260  23.5529160
  41.3949910  18.0690830  12.8978020  42.1041610  17.6474050  12.4125300
  40.6789850  18.1366060  12.2661370  41.0424070  14.1230160  11.9380670
  41.7652200  14.6639100  12.2561890  41.3148590  13.8493580  11.0622210
  54.8515720  18.9922630  16.2052250  55.3474840  18.7593500  16.9901130
  54.6531790  18.1534470  15.7889890  40.7316260  13.3736350  21.8403290
  41.3792450  12.8233730  21.3998450  41.1518100  13.6279500  22.6619100
  56.2802880  17.6283580  18.7389930  56.1702160  17.4739620  19.6772200
  57.0410470  17.1004520  18.4965340  54.6268600  13.5677710  25.1972930
  55.2640820  14.1811850  25.5632120  54.7743490  13.6038370  24.2522160
  57.1693150  15.4591500  11.9796070  58.0942460  15.3272680  11.7714360
  57.1468940  15.5384320  12.9332520  57.2431640  16.2302160  14.6052780
  56.4483140  16.1647280  15.1345690  57.4474920  17.1652800  14.5938130
  54.1850060  30.2693710  18.5991170  54.7809130  29.9478280  17.9225590
  54.4428210  29.7965530  19.3904440  40.4848260  13.5292020  24.5828610
  40.1363080  13.9855840  25.3486790  40.1535960  12.6349150  24.6651040
  42.0912630  26.7011620  28.7481800  42.0482260  26.3304530  29.6296260
  42.2223640  27.6389190  28.8883620  45.7918660  28.2571210  24.3491520
  45.5510020  28.5245770  23.4622040  46.7321300  28.4276940  24.4042380
  47.9973080  14.7203900  28.1048030  47.9361970  15.3125730  28.8543440
  48.9373460  14.6129860  27.9598290  50.6347640  14.3773960  27.7440320
  51.2488050  14.6953250  27.0821400  51.1797200  13.8922550  28.3636180
  57.0522820  30.2765590  25.1502160  56.5581100  30.6734460  24.4329290
  56.4436110  29.6514800  25.5439440  41.1568900  13.0568220  27.8579380
  41.7051890  12.8756270  27.0945490  41.2224210  12.2662330  28.3935690
  41.9300660  29.6473870  25.8679580  41.3360980  29.5158570  26.6069620
  41.9224500  28.8112010  25.4021680  51.3755680  12.9406100  24.0709610
  50.5015520  13.2741210  23.8682540  51.2666430  12.4679280  24.8961480
  52.2827660  15.1476970  25.4551330  51.9541020  14.3328730  25.0753060
  53.2309960  15.1046780  25.3317020  54.7362270  30.9189010  22.4288900
  54.2765240  31.6704820  22.0546920  54.1074730  30.1995480  22.3703700
  41.5612890  27.0132250  24.8187620  40.8346950  26.3937540  24.7513570
  41.6222040  27.4072860  23.9485700  45.1657990  29.2277250  21.6037030
  45.6823010  28.6164610  21.0785290  45.8155370  29.7306030  22.0948040
  47.9053490  30.1185740  22.4306010  48.1931300  29.8640040  21.5539020
  48.4176710  29.5663100  23.0211580  49.1230500  13.8575940  23.0102520
  48.3402290  14.3321440  23.2899280  48.8293430  12.9530770  22.9015700
  53.6751570  14.5599040  21.0551610  54.1159660  14.5044140  20.2073210
  53.4059160  15.4757050  21.1261790  55.5390140  14.1914280  19.0660430
  55.4778540  13.2475500  18.9191450  56.3182170  14.2994370  19.6113890
  39.8442890  30.3306640  18.0284380  39.6764930  29.6977320  18.7266270
  38.9777400  30.5366040  17.6778570  40.4670910  14.1623420  15.5316240
  41.2250270  14.2752300  14.9580270  40.0048080  14.9992620  15.4859670
  47.0084720  16.2762690  18.5218550  46.1959230  15.9019580  18.1814430
  47.5126360  15.5207770  18.8239740  51.5109700  12.9405140  19.7601620
  52.1139070  13.5125350  20.2350140  50.7702690  13.5044580  19.5375520
  54.6544300  13.3426700  15.0341900  54.8494930  14.2410150  15.3009330
  53.8674170  13.1113780  15.5274850  41.4505590  29.0239870  15.4734520
  40.9253210  29.4047900  14.7696480  41.3750170  29.6490640  16.1944230
  42.8396060  14.6887470  14.0718210  43.3688820  13.9017270  13.9426160
  43.4724380  15.3678660  14.3053740  45.0333900  14.4262610  17.1263600
  44.4036640  13.7249920  17.2933730  44.4939040  15.1866740  16.9096760
  47.9725850  31.0401840  29.7974210  48.8993160  30.8046110  29.8410170
  47.9576280  31.8673840  29.3160240  56.2070910  30.5827410  16.7948460
  56.3823100  29.8965150  16.1509380  55.5092480  31.1074460  16.4025130
  45.1589460  13.7046590  29.5616090  44.8773730  14.2080190  28.7976910
  45.5409160  12.9068340  29.1958220  44.0498560  30.9722250  14.3483770
  44.7817380  30.6881530  13.8007660  44.3092230  30.7335530  15.2383150
  43.2113350  27.0886980  14.3530100  42.5822230  27.5572080  14.9015930
  43.3261180  26.2436200  14.7876290  51.7604920  13.1200170  30.1396560
  51.6470370  13.4394780  31.0348080  52.5774660  13.5212680  29.8433840
  54.5403410  30.2671700  29.6215250  55.3328730  29.7720930  29.4141210
  54.8336560  30.9461840  30.2290860  48.7981110  22.9171660   2.3840570
  48.0223210  22.4372100   2.6739140  49.4494040  22.2377310   2.2096730
  42.8146940  23.2291470   3.2616330  41.9831820  22.9740180   3.6612840
  43.4227920  23.3002240   3.9974250  42.7948200  27.2631560   3.4574350
  43.0976240  26.3729300   3.2784570  43.5391790  27.8201780   3.2296600
  39.1871900  20.7899010   2.9298420  39.7588010  20.0221210   2.9302060
  39.1873440  21.0887770   2.0205030  48.2390100  25.5928850   2.3910730
  48.1698380  24.6518790   2.2299860  49.0009960  25.6830260   2.9633300
  40.4296770  16.1983370   4.7167350  40.2499610  15.3009120   4.9970110
  40.0276850  16.7455240   5.3914300  49.2695270  18.3999230   2.6179660
  49.6460090  17.5271110   2.5053330  49.1714780  18.7357930   1.7270100
  41.0483440  18.6943870   3.3249690  41.7293550  18.9582240   3.9437090
  40.7331490  17.8544740   3.6587700  45.2408010  19.7411230   2.4122280
  45.7486230  20.2392200   3.0527300  45.7721250  18.9646430   2.2361640
  57.3418940  17.9116420   6.1151630  56.6371110  18.2998130   5.5966740
  57.6076860  18.6066710   6.7172560  43.5244110  14.3809790   6.6785700
  43.5262550  14.8982180   5.8731600  42.6948420  13.9039970   6.6555630
  44.7746960  24.0204970   4.8559200  44.4416340  24.6473890   5.4980270
  44.9513640  24.5466850   4.0760870  53.2880870  17.8350050   2.3235540
  52.5836440  18.1234940   2.9038650  53.6493030  18.6450160   1.9635100
  43.2059440  16.0919750   4.6856150  43.5476250  16.9361800   4.3910020
  42.2675250  16.2403490   4.8021490  43.9866060  25.9885770   6.6708380
  44.6040060  26.6636850   6.3892830  43.1259180  26.3973750   6.5795880
  54.9043650  27.4525180   4.5863020  54.2207170  28.1224290   4.5779690
  55.4437940  27.6505830   3.8207880  56.3567790  17.2804840   2.7144750
  55.4092700  17.3143820   2.8460180  56.6817780  18.0943790   3.0994110
  52.4402390  29.2969310   3.3008200  52.4529550  28.8931600   2.4330460
  51.8877610  30.0716600   3.1969630  51.8387830  24.1999150   4.6290810
  52.2556620  23.9859260   3.7944270  52.5627650  24.4571940   5.1999430
  55.7849930  22.5986370   4.7207050  54.9568560  22.6679460   4.2457180
  56.3800410  23.1840680   4.2522880  52.7491940  19.3855690   5.6661920
  52.3363120  20.2109400   5.9201910  52.0167890  18.8000730   5.4738280
  45.3506430  25.8583150   2.6919800  45.0534720  25.2528620   2.0127580
  46.3006250  25.8960460   2.5809160  43.5953350  18.9458800   4.3079630
  44.1467940  19.0554140   3.5332880  44.1096860  19.3196400   5.0234860
  53.4392040  29.4315020   6.3542900  52.9622600  30.2387210   6.1615510
  52.7553830  28.7793350   6.5069110  44.4424860  25.5964840   9.3427600
  43.5453390  25.8204810   9.5901000  44.4677730  25.7199780   8.3939000
  43.2696080  22.4678160   7.9184970  43.1303850  23.3400960   8.2872370
  42.3877440  22.1250970   7.7732910  45.0676430  28.4099860  10.1270120
  45.0391860  28.8142810   9.2598550  44.9041400  27.4810220   9.9641720
  57.0191250  29.1926960  11.4234290  57.4950970  29.6709850  12.1023370
  57.6398410  29.1244450  10.6979790  39.2214730  24.2375710   3.8355880
  39.2995150  24.3724480   2.8911600  39.8356410  23.5291600   4.0284000
  56.4224500  26.3839810   8.5834300  56.5487560  26.1451690   7.6651480
  56.4645880  25.5524350   9.0556380  50.2841240  30.0867810   7.1529110
  50.7985910  29.9975820   7.9551540  49.4410320  30.4327510   7.4457020
  56.2748510  18.4372270   9.5484040  55.6592780  18.9451940   9.0199500
  55.9544930  17.5370600   9.4909980  39.2774250  25.2789880   6.3750340
  39.4405290  24.8095240   5.5569710  39.7426700  24.7713440   7.0399180
  48.3362830  17.2764160   7.0146230  47.8742200  17.4847180   7.8266170
  47.9340940  16.4623510   6.7116900  53.3367340  18.4973110   8.1442890
  52.4860930  18.1978860   8.4651960  53.1769130  18.7415120   7.2326710
  50.4317050  19.9974860  10.2441680  50.7570460  19.1638610   9.9043910
  51.2197380  20.5203380  10.3920010  46.0868920  14.9542970   3.2700510
  46.3841250  15.8605800   3.1892530  46.6354480  14.4661750   2.6560080
  46.2806450  20.4314790   9.8052430  46.1850050  19.4909520   9.6552830
  47.1238430  20.6529860   9.4100500  41.4116990  16.8428460   7.9586210
  41.0180380  17.6903670   8.1658990  40.7235390  16.2054830   8.1494850
  47.9862040  16.9263430  11.0282950  47.2960360  16.7335630  11.6629040
  48.7294340  17.2098070  11.5607250  38.7134040  14.7656920   1.9916290
  38.4247090  15.3359780   2.7041270  39.4579800  14.2861370   2.3547520
  50.2625010  20.7661870   3.8636870  49.5306130  21.2748680   4.2126970
  49.8649350  19.9491850   3.5625650  46.7002400  17.4416070   2.2689360
  46.7038460  17.0006020   1.4193900  47.5953520  17.7633400   2.3761180
  50.7250920  16.2195550   3.2759810  50.7423660  16.6704200   4.1201660
  50.4766500  15.3201190   3.4893250  54.1521670  13.6327730   9.1146190
  54.4767440  12.9017390   9.6404170  54.1878180  13.3141370   8.2127180
  40.8513230  24.6541310   8.5346150  40.4668020  24.0134980   9.1329110
  41.1625420  25.3577430   9.1040880  47.0010370  21.5017850   4.0154770
  47.3680500  21.0276420   4.7616110  46.8115430  22.3759420   4.3563110
  44.7909740  20.5426490   6.3338980  44.4866810  21.4218470   6.5589340
  45.7456200  20.6026280   6.3696420  54.0779510  23.7452840   2.7232220
  54.7978630  24.2408130   2.3328330  53.8761330  23.0670730   2.0786090
  49.4598310  23.8161900   8.6101220  49.3935620  22.8957570   8.3558810
  48.8303450  23.9137340   9.3245860  40.8473470  21.3829230   7.4810340
  40.4888410  22.0483080   8.0683680  40.5528030  20.5512780   7.8522960
  44.0486590  21.8413470  10.3649890  43.7486730  21.9870650   9.4677710
  44.8197830  21.2818760  10.2723280  49.3915040  26.6382470   8.3605020
  49.4059580  25.7063430   8.1423930  48.6840140  26.7242230   8.9994790
  55.6026250  23.2789810   7.7073600  54.8774440  23.8718590   7.5102990
  56.1301710  23.2713350   6.9086970  48.8248940  28.2800040   5.4545520
  49.4691160  28.4859420   6.1318940  49.1878380  27.5188440   5.0016370
  50.0981020  26.2832390   4.1722970  50.7403250  25.5825550   4.2855140
  50.6230370  27.0630830   3.9919860  51.8718640  27.0827290   7.3759030
  52.2074880  27.6693980   8.0536950  50.9518980  26.9520000   7.6056820
  39.4222040  14.8722470   8.1582440  38.7080560  15.0719390   8.7635050
  39.8417080  14.0962040   8.5297240  39.7094630  28.8602730   9.1448970
  39.8185750  27.9197470   9.0044360  39.0575190  29.1257480   8.4962700
  47.7007220  27.1318620  10.5447090  47.3804090  26.4127860  11.0892780
  47.0265580  27.8073690  10.6183150  50.9160820  17.3644780   5.9083890
  51.2841640  16.5439990   6.2363460  50.0559020  17.4246670   6.3239540
  47.8762810  20.0184370   6.1321860  48.3748060  20.4930190   6.7973710
  48.0185760  19.0947890   6.3391890  55.0829670  16.2352330   6.9750250
  54.5803270  16.9757730   7.3144060  55.8986330  16.6236330   6.6587040
  55.3777260  28.6494360   2.0965870  55.5024680  29.4725530   2.5689680
  56.2442820  28.4385090   1.7490020  42.8494790  30.7425570   1.7683000
  43.5857270  30.1941030   2.0391570  43.2335710  31.6081580   1.6288990
  41.8553070  29.9271640  10.9568580  42.6565800  30.2483690  11.3703980
  41.3404890  29.5667220  11.6788490  50.6917700  26.0351510  10.9043990
  50.0855860  26.0583110  10.1639740  50.3871810  25.3034550  11.4411240
  52.1218070  29.7631800   9.5153400  53.0739820  29.6789820   9.4653640
  51.9746290  30.4273510  10.1887190  39.5750880  22.4145100   9.9004630
  40.0789900  21.8352380  10.4720860  38.8358300  22.6985330  10.4381000
  46.6288820  23.8216090   9.4340150  45.8634490  24.3901090   9.3494820
  46.8104780  23.5292300   8.5408380  53.7712170  25.5521420   9.9915170
  54.5121640  25.8897180   9.4882630  53.0084850  25.7213480   9.4384940
  41.6073960  20.5574690  10.7954700  41.6479300  20.2588560  11.7039930
  42.4619460  20.9582300  10.6362220  43.5479770  19.1366790   8.7629190
  43.0176230  18.6457740   8.1352530  44.2167840  19.5650990   8.2287120
  52.4457830  23.6036250   8.5270380  52.8598850  23.7581330   9.3760800
  51.5108830  23.7291470   8.6896160  52.9180000  20.9432410  10.5309530
  53.5000770  20.1884730  10.4430010  53.0941770  21.4739850   9.7541010
  44.0352070  16.1029160   8.8426480  43.9408940  15.4849910   8.1177350
  43.4549460  16.8295450   8.6156390  46.8013510  14.6602400   5.8753870
  46.3530810  14.6826660   5.0299420  46.1678710  14.2621420   6.4724170
  47.2073060  23.5556730   6.4966310  47.6261170  24.3989460   6.3242550
  46.2881690  23.6928770   6.2673090  49.5436960  21.2872910   7.8804150
  49.6633170  20.6914050   8.6198990  50.4030960  21.3242600   7.4605450
  51.8824860  21.8410100   6.4566660  51.3560080  22.3652720   5.8531800
  52.2256200  22.4737490   7.0876390  45.0580480  29.8609740   7.6124040
  44.5201570  30.5855800   7.2932740  45.3114440  29.3840080   6.8221380
  46.3105730  17.8294260   9.1379970  46.9005420  17.5210110   9.8257790
  45.4925970  17.3574010   9.2939870  51.1299160  17.4460070   9.3712990
  50.4414680  16.7841610   9.3062980  51.8505180  16.9998340   9.8161450
  47.9142690  31.0960950   7.8710690  47.8401390  31.9996090   8.1783060
  47.0121530  30.7772850   7.8432760  39.8060190  29.2906130   3.9125940
  39.3691180  29.4706930   4.7450090  40.3737870  30.0480750   3.7707660
  55.4422370  28.7923130   8.2003250  54.8424360  28.8515690   7.4567170
  55.5716270  27.8528110   8.3300100  54.1274010  25.5175110   6.2979410
  53.3133850  25.9472270   6.5605200  54.5348210  26.1293520   5.6848460
  40.6760550  22.1878930   4.8118160  41.0433590  22.1006330   5.6914180
  40.1071370  21.4245480   4.7125020  55.4764410  20.6563310   7.8248630
  55.2450500  20.4276060   6.9246580  55.7368960  21.5762860   7.7793520
  40.2276550  19.0988020   8.7176580  39.3332600  19.0654780   9.0570290
  40.7674100  19.2974810   9.4827830  53.9152480  15.8819740  10.6028330
  54.7922660  15.8903140  10.9862330  53.9273320  15.1450580   9.9920680
  55.5405470  19.8189150   5.0135900  54.5908180  19.7852690   5.1280890
  55.7218480  20.7289260   4.7785670  40.7316260  13.3736350   3.0659800
  41.3792450  12.8233730   2.6254960  41.1518100  13.6279500   3.8875610
  54.6268600  13.5677710   6.4229440  55.2640820  14.1811850   6.7888630
  54.7743490  13.6038370   5.4778670  40.4848260  13.5292020   5.8085120
  40.1363080  13.9855840   6.5743300  40.1535960  12.6349150   5.8907550
  42.0912630  26.7011620   9.9738310  42.0482260  26.3304530  10.8552770
  42.2223640  27.6389190  10.1140130  45.7918660  28.2571210   5.5748030
  45.5510020  28.5245770   4.6878550  46.7321300  28.4276940   5.6298890
  47.9973080  14.7203900   9.3304540  47.9361970  15.3125730  10.0799950
  48.9373460  14.6129860   9.1854800  50.6347640  14.3773960   8.9696830
  51.2488050  14.6953250   8.3077910  51.1797200  13.8922550   9.5892690
  57.0522820  30.2765590   6.3758670  56.5581100  30.6734460   5.6585800
  56.4436110  29.6514800   6.7695950  41.1568900  13.0568220   9.0835890
  41.7051890  12.8756270   8.3202000  41.2224210  12.2662330   9.6192200
  41.9300660  29.6473870   7.0936090  41.3360980  29.5158570   7.8326130
  41.9224500  28.8112010   6.6278190  51.3755680  12.9406100   5.2966120
  50.5015520  13.2741210   5.0939050  51.2666430  12.4679280   6.1217990
  52.2827660  15.1476970   6.6807840  51.9541020  14.3328730   6.3009570
  53.2309960  15.1046780   6.5573530  54.7362270  30.9189010   3.6545410
  54.2765240  31.6704820   3.2803430  54.1074730  30.1995480   3.5960210
  41.5612890  27.0132250   6.0444130  40.8346950  26.3937540   5.9770080
  41.6222040  27.4072860   5.1742210  45.1657990  29.2277250   2.8293540
  45.6823010  28.6164610   2.3041800  45.8155370  29.7306030   3.3204550
  47.9053490  30.1185740   3.6562520  48.1931300  29.8640040   2.7795530
  48.4176710  29.5663100   4.2468090  49.1230500  13.8575940   4.2359030
  48.3402290  14.3321440   4.5155790  48.8293430  12.9530770   4.1272210
  53.6751570  14.5599040   2.2808120  54.1159660  14.5044140   1.4329720
  53.4059160  15.4757050   2.3518300  47.9725850  31.0401840  11.0230720
  48.8993160  30.8046110  11.0666680  47.9576280  31.8673840  10.5416750
  45.1589460  13.7046590  10.7872600  44.8773730  14.2080190  10.0233420
  45.5409160  12.9068340  10.4214730  51.7604920  13.1200170  11.3653070
  51.6470370  13.4394780  12.2604590  52.5774660  13.5212680  11.0690350
  54.5403410  30.2671700  10.8471760  55.3328730  29.7720930  10.6397720
  54.8336560  30.9461840  11.4547370  50.6663070   2.3649150 150.6979220
  50.5857120   1.4503760 150.4270930  50.2527490   2.8616220 149.9918930
  48.7981110   4.1428170 152.5788490  48.0223210   3.6628610 152.8687060
  49.4494040   3.4633820 152.4044650  52.8188540   8.5488360 151.3587620
  52.3570070   7.7775600 151.6874790  53.6314090   8.5754430 151.8640070
  49.0451850  10.8346370 150.9791610  48.4263290  11.2903870 150.4086050
  49.9003630  10.9897830 150.5781310  48.2390100   6.8185360 152.5858650
  48.1698380   5.8775300 152.4247780  49.0009960   6.9086770 153.1581220
  49.9115200   5.7185610 148.3723520  49.2932470   6.1835060 147.8086240
  50.4238450   6.4113090 148.7893030  39.2798400   6.4042140 145.7463150
  38.9026380   6.8929240 145.0148050  39.5371470   7.0767420 146.3769680
  53.7347810   7.2442040 148.5846290  53.6244140   6.3016370 148.7095710
  53.7316060   7.6057680 149.4709050  49.2768090   2.8707360 147.9408780
  48.3497370   2.8044740 148.1697250  49.4292910   3.8087490 147.8264020
  53.3065380   4.4327660 148.4444030  52.6877800   4.0947210 147.7970330
  53.2889830   3.7887420 149.1523220  44.8824730   3.3972100 150.7228510
  44.4781730   2.6849350 150.2274410  44.9687850   3.0525340 151.6116550
  45.3506430   7.0839660 152.8867720  45.0534720   6.4785130 152.2075500
  46.3006250   7.1216970 152.7757080  51.4830080   3.6714470 145.4516780
  51.9223360   2.8336900 145.3054600  52.1958500   4.3043870 145.5380920
  49.5925460   8.6110540 149.4198020  50.0321370   9.3534870 149.0053410
  49.5312350   8.8537110 150.3436980  41.5829360   2.2917080 148.2235160
  41.4626960   3.0179170 147.6116430  41.2730250   1.5219990 147.7463070
  40.4662360   7.1632410 150.4409980  40.0590440   7.3047000 149.5863580
  41.3575370   6.8792570 150.2381190  52.2595640  11.5979660 146.7761030
  52.0996780  11.3082600 147.6742860  52.0942350  10.8219790 146.2406260
  44.7384020  11.3778190 148.5532650  44.5626500  10.4613730 148.3400450
  43.8839760  11.7365480 148.7930450  51.9621770   9.1067220 145.3359030
  51.2686930   9.1044510 144.6761310  52.7044630   8.6826540 144.9053200
  51.5271700  10.7329930 149.4107520  51.9828650   9.9519310 149.7246140
  51.8664220  11.4436750 149.9548700  45.7744050   1.9785800 144.8527340
  45.2060950   1.5304050 144.2263250  46.4833050   2.3378580 144.3192490
  43.3191530   5.9743990 147.1253750  42.5453790   5.4341610 146.9652470
  44.0486160   5.4550600 146.7871510  54.0779510   4.9709350 152.9180140
  54.7978630   5.4664640 152.5276250  53.8761330   4.2927240 152.2734010
  43.3628930   5.6424370 150.7632560  43.8807600   4.8392630 150.7089450
  42.9112950   5.5803510 151.6049390  48.2498430   6.9090650 146.0359860
  48.5914130   7.6532880 145.5403180  47.4211140   7.2221770 146.3984690
  54.5252110   2.0478800 144.8251550  54.4415830   2.4793020 143.9747990
  55.2446300   2.5077150 145.2578370  55.5539360   8.9021060 147.5533680
  54.9115520   8.2476680 147.8277400  55.1670020   9.3076150 146.7774350
  51.1325840   6.2306490 151.4005370  51.4849660   5.6334620 150.7406740
  50.2488170   5.9050720 151.5713620  47.2189120   6.9904180 148.8075780
  47.9060250   7.5373390 149.1883370  46.4321540   7.5344910 148.8425390
  39.3581520   2.6077000 144.2992860  40.2276370   2.8901800 144.5828780
  38.8671840   3.4212870 144.1841670  46.5216330   3.9950210 148.4201140
  46.9779110   4.8055460 148.6461330  46.1704540   3.6773350 149.2519630
  53.9436740   7.7937520 144.0910030  53.7174320   7.0767960 144.6834670
  53.5532940   7.5449960 143.2531780  39.7252770  11.8204380 144.8654490
  40.0850410  12.4193720 144.2111760  39.5845110  12.3664270 145.6389520
  53.5252990   5.7109460 145.7524190  53.2374690   6.1722150 146.5402070
  54.3205160   5.2507230 146.0208410  45.7421390   9.2035580 145.6828160
  45.7331490   9.9365270 145.0672670  44.8219750   8.9567160 145.7755120
  41.3428030   4.4250470 146.4274920  40.7355980   5.1649370 146.4370220
  41.8177380   4.5149830 145.6013120  48.7280990   9.2663820 144.3453350
  48.8292970   9.0627810 143.4155330  47.8282730   9.0122100 144.5501130
  47.3699100  11.7850140 149.0401020  47.6240600  11.7471530 148.1180390
  46.4211580  11.6583470 149.0329270  53.3751680   2.7042020 150.6159530
  52.4341820   2.7192250 150.7907220  53.6895750   1.9177980 151.0619830
  43.3533320   4.3861620 144.1763490  44.1196590   4.2742980 144.7388920
  43.4308010   3.6899590 143.5240260  55.3777260   9.8750870 152.2913790
  55.5024680  10.6982040 152.7637600  56.2442820   9.6641600 151.9437940
  42.8494790  11.9682080 151.9630920  43.5857270  11.4197540 152.2339490
  43.2335710  12.8338090 151.8236910  39.7340270   8.0355650 147.8372430
  38.8080050   8.2776790 147.8277840  40.1996700   8.8629910 147.7157180
  45.9597100  11.1412390 143.7856490  46.7525710  11.4301220 143.3338280
  45.4401450  10.7104560 143.1068970  55.0127270  10.3682520 145.2093230
  54.7268780   9.9547660 144.3947410  54.8146820  11.2970230 145.0893750
  46.4774500   6.3615800 143.6498840  46.3725140   5.7468150 144.3760220
  46.3098720   5.8381690 142.8661850  49.7177230   5.4235830 144.2540830
  49.1687330   5.8705130 144.8983570  50.3396490   4.9185080 144.7778500
  45.3852350   4.3826750 146.1506130  45.8068770   4.2166620 146.9937520
  45.5103190   3.5726980 145.6561270  47.8979990   3.4064360 143.3983230
  48.4185650   2.6913380 143.0324380  48.5448390   4.0450230 143.6983740
  48.4628020  11.4875970 145.6884970  49.3578810  11.8260940 145.7103730
  48.4945650  10.7655380 145.0609250  42.1024180   6.8603020 143.9171970
  42.5399050   7.4032690 144.5729550  42.5871910   6.0349970 143.9268310
  39.3169980   9.6492050 151.3692230  39.6472990   8.7813110 151.1370870
  39.7460980   9.8550570 152.1997190  43.9131900   7.9801060 149.0294200
  43.6127440   7.8566030 149.9298110  43.8069390   7.1209650 148.6209930
  56.6823820   7.7597460 143.7320880  55.8516780   7.8274110 144.2028110
  56.8595650   8.6501580 143.4287740  56.1380280   4.5044940 146.2355080
  56.8999190   5.0741590 146.3414770  56.1534650   3.9372140 147.0063390
  39.6384620   3.0282870 150.4662740  38.9833460   2.7594510 149.8222440
  40.4762570   2.9187350 150.0164720  57.1440250   5.3595040 151.0797010
  57.5149080   4.5762360 150.6732980  57.7842180   6.0484140 150.9014310
  56.1899450   4.7979310 143.3927600  56.4648290   5.7058190 143.2646820
  56.0010190   4.7341840 144.3289590  56.0864790   2.7348300 148.3857030
  55.7108390   1.9676230 147.9538320  55.3567910   3.1171000 148.8731960
  54.1850060  11.4950220 150.0195600  54.7809130  11.1734790 149.3430020
  54.4428210  11.0222040 150.8108870  39.8442890  11.5563150 149.4488810
  39.6764930  10.9233830 150.1470700  38.9777400  11.7622550 149.0983000
  41.4505590  10.2496380 146.8938950  40.9253210  10.6304410 146.1900910
  41.3750170  10.8747150 147.6148660  56.2070910  11.8083920 148.2152890
  56.3823100  11.1221660 147.5713810  55.5092480  12.3330970 147.8229560
  44.0498560  12.1978760 145.7688200  44.7817380  11.9138040 145.2212090
  44.3092230  11.9592040 146.6587580  43.2113350   8.3143490 145.7734530
  42.5822230   8.7828590 146.3220360  43.3261180   7.4692710 146.2080720
  50.6663070   2.3649150 131.9235730  50.5857120   1.4503760 131.6527440
  50.2527490   2.8616220 131.2175440  48.7981110   4.1428170 133.8045000
  48.0223210   3.6628610 134.0943570  49.4494040   3.4633820 133.6301160
  42.8146940   4.4547980 134.6820760  41.9831820   4.1996690 135.0817270
  43.4227920   4.5258750 135.4178680  52.8188540   8.5488360 132.5844130
  52.3570070   7.7775600 132.9131300  53.6314090   8.5754430 133.0896580
  42.7948200   8.4888070 134.8778780  43.0976240   7.5985810 134.6989000
  43.5391790   9.0458290 134.6501030  49.0451850  10.8346370 132.2048120
  48.4263290  11.2903870 131.6342560  49.9003630  10.9897830 131.8037820
  48.2390100   6.8185360 133.8115160  48.1698380   5.8775300 133.6504290
  49.0009960   6.9086770 134.3837730  49.9115200   5.7185610 129.5980030
  49.2932470   6.1835060 129.0342750  50.4238450   6.4113090 130.0149540
  44.7746960   5.2461480 136.2763630  44.4416340   5.8730400 136.9184700
  44.9513640   5.7723360 135.4965300  43.9866060   7.2142280 138.0912810
  44.6040060   7.8893360 137.8097260  43.1259180   7.6230260 138.0000310
  39.2798400   6.4042140 126.9719660  38.9026380   6.8929240 126.2404560
  39.5371470   7.0767420 127.6026190  54.9043650   8.6781690 136.0067450
  54.2207170   9.3480800 135.9984120  55.4437940   8.8762340 135.2412310
  52.4402390  10.5225820 134.7212630  52.4529550  10.1188110 133.8534890
  51.8877610  11.2973110 134.6174060  53.7347810   7.2442040 129.8102800
  53.6244140   6.3016370 129.9352220  53.7316060   7.6057680 130.6965560
  51.8387830   5.4255660 136.0495240  52.2556620   5.2115770 135.2148700
  52.5627650   5.6828450 136.6203860  49.2768090   2.8707360 129.1665290
  48.3497370   2.8044740 129.3953760  49.4292910   3.8087490 129.0520530
  55.7849930   3.8242880 136.1411480  54.9568560   3.8935970 135.6661610
  56.3800410   4.4097190 135.6727310  53.3065380   4.4327660 129.6700540
  52.6877800   4.0947210 129.0226840  53.2889830   3.7887420 130.3779730
  44.8824730   3.3972100 131.9485020  44.4781730   2.6849350 131.4530920
  44.9687850   3.0525340 132.8373060  45.3506430   7.0839660 134.1124230
  45.0534720   6.4785130 133.4332010  46.3006250   7.1216970 134.0013590
  53.4392040  10.6571530 137.7747330  52.9622600  11.4643720 137.5819940
  52.7553830  10.0049860 137.9273540  44.4424860   6.8221350 140.7632030
  43.5453390   7.0461320 141.0105430  44.4677730   6.9456290 139.8143430
  51.4830080   3.6714470 126.6773290  51.9223360   2.8336900 126.5311110
  52.1958500   4.3043870 126.7637430  43.2696080   3.6934670 139.3389400
  43.1303850   4.5657470 139.7076800  42.3877440   3.3507480 139.1937340
  49.5925460   8.6110540 130.6454530  50.0321370   9.3534870 130.2309920
  49.5312350   8.8537110 131.5693490  45.0676430   9.6356370 141.5474550
  45.0391860  10.0399320 140.6802980  44.9041400   8.7066730 141.3846150
  41.5829360   2.2917080 129.4491670  41.4626960   3.0179170 128.8372940
  41.2730250   1.5219990 128.9719580  57.0191250  10.4183470 142.8438720
  57.4950970  10.8966360 143.5227800  57.6398410  10.3500960 142.1184220
  39.2214730   5.4632220 135.2560310  39.2995150   5.5980990 134.3116030
  39.8356410   4.7548110 135.4488430  40.4662360   7.1632410 131.6666490
  40.0590440   7.3047000 130.8120090  41.3575370   6.8792570 131.4637700
  56.4224500   7.6096320 140.0038730  56.5487560   7.3708200 139.0855910
  56.4645880   6.7780860 140.4760810  50.2841240  11.3124320 138.5733540
  50.7985910  11.2232330 139.3755970  49.4410320  11.6584020 138.8661450
  52.2595640  11.5979660 128.0017540  52.0996780  11.3082600 128.8999370
  52.0942350  10.8219790 127.4662770  44.7384020  11.3778190 129.7789160
  44.5626500  10.4613730 129.5656960  43.8839760  11.7365480 130.0186960
  51.9621770   9.1067220 126.5615540  51.2686930   9.1044510 125.9017820
  52.7044630   8.6826540 126.1309710  51.5271700  10.7329930 130.6364030
  51.9828650   9.9519310 130.9502650  51.8664220  11.4436750 131.1805210
  39.2774250   6.5046390 137.7954770  39.4405290   6.0351750 136.9774140
  39.7426700   5.9969950 138.4603610  45.7744050   1.9785800 126.0783850
  45.2060950   1.5304050 125.4519760  46.4833050   2.3378580 125.5449000
  40.8513230   5.8797820 139.9550580  40.4668020   5.2391490 140.5533540
  41.1625420   6.5833940 140.5245310  47.0010370   2.7274360 135.4359200
  47.3680500   2.2532930 136.1820540  46.8115430   3.6015930 135.7767540
  44.7909740   1.7683000 137.7543410  44.4866810   2.6474980 137.9793770
  45.7456200   1.8282790 137.7900850  43.3191530   5.9743990 128.3510260
  42.5453790   5.4341610 128.1908980  44.0486160   5.4550600 128.0128020
  54.0779510   4.9709350 134.1436650  54.7978630   5.4664640 133.7532760
  53.8761330   4.2927240 133.4990520  49.4598310   5.0418410 140.0305650
  49.3935620   4.1214080 139.7763240  48.8303450   5.1393850 140.7450290
  43.3628930   5.6424370 131.9889070  43.8807600   4.8392630 131.9345960
  42.9112950   5.5803510 132.8305900  48.2498430   6.9090650 127.2616370
  48.5914130   7.6532880 126.7659690  47.4211140   7.2221770 127.6241200
  40.8473470   2.6085740 138.9014770  40.4888410   3.2739590 139.4888110
  40.5528030   1.7769290 139.2727390  44.0486590   3.0669980 141.7854320
  43.7486730   3.2127160 140.8882140  44.8197830   2.5075270 141.6927710
  49.3915040   7.8638980 139.7809450  49.4059580   6.9319940 139.5628360
  48.6840140   7.9498740 140.4199220  54.5252110   2.0478800 126.0508060
  54.4415830   2.4793020 125.2004500  55.2446300   2.5077150 126.4834880
  55.6026250   4.5046320 139.1278030  54.8774440   5.0975100 138.9307420
  56.1301710   4.4969860 138.3291400  55.5539360   8.9021060 128.7790190
  54.9115520   8.2476680 129.0533910  55.1670020   9.3076150 128.0030860
  51.1325840   6.2306490 132.6261880  51.4849660   5.6334620 131.9663250
  50.2488170   5.9050720 132.7970130  47.2189120   6.9904180 130.0332290
  47.9060250   7.5373390 130.4139880  46.4321540   7.5344910 130.0681900
  39.3581520   2.6077000 125.5249370  40.2276370   2.8901800 125.8085290
  38.8671840   3.4212870 125.4098180  46.5216330   3.9950210 129.6457650
  46.9779110   4.8055460 129.8717840  46.1704540   3.6773350 130.4776140
  48.8248940   9.5056550 136.8749950  49.4691160   9.7115930 137.5523370
  49.1878380   8.7444950 136.4220800  50.0981020   7.5088900 135.5927400
  50.7403250   6.8082060 135.7059570  50.6230370   8.2887340 135.4124290
  53.9436740   7.7937520 125.3166540  53.7174320   7.0767960 125.9091180
  53.5532940   7.5449960 124.4788290  51.8718640   8.3083800 138.7963460
  52.2074880   8.8950490 139.4741380  50.9518980   8.1776510 139.0261250
  39.7252770  11.8204380 126.0911000  40.0850410  12.4193720 125.4368270
  39.5845110  12.3664270 126.8646030  53.5252990   5.7109460 126.9780700
  53.2374690   6.1722150 127.7658580  54.3205160   5.2507230 127.2464920
  39.7094630  10.0859240 140.5653400  39.8185750   9.1453980 140.4248790
  39.0575190  10.3513990 139.9167130  47.7007220   8.3575130 141.9651520
  47.3804090   7.6384370 142.5097210  47.0265580   9.0330200 142.0387580
  45.7421390   9.2035580 126.9084670  45.7331490   9.9365270 126.2929180
  44.8219750   8.9567160 127.0011630  41.3428030   4.4250470 127.6531430
  40.7355980   5.1649370 127.6626730  41.8177380   4.5149830 126.8269630
  48.7280990   9.2663820 125.5709860  48.8292970   9.0627810 124.6411840
  47.8282730   9.0122100 125.7757640  47.3699100  11.7850140 130.2657530
  47.6240600  11.7471530 129.3436900  46.4211580  11.6583470 130.2585780
  53.3751680   2.7042020 131.8416040  52.4341820   2.7192250 132.0163730
  53.6895750   1.9177980 132.2876340  43.3533320   4.3861620 125.4020000
  44.1196590   4.2742980 125.9645430  43.4308010   3.6899590 124.7496770
  55.3777260   9.8750870 133.5170300  55.5024680  10.6982040 133.9894110
  56.2442820   9.6641600 133.1694450  42.8494790  11.9682080 133.1887430
  43.5857270  11.4197540 133.4596000  43.2335710  12.8338090 133.0493420
  39.7340270   8.0355650 129.0628940  38.8080050   8.2776790 129.0534350
  40.1996700   8.8629910 128.9413690  41.8553070  11.1528150 142.3773010
  42.6565800  11.4740200 142.7908410  41.3404890  10.7923730 143.0992920
  45.9597100  11.1412390 125.0113000  46.7525710  11.4301220 124.5594790
  45.4401450  10.7104560 124.3325480  50.6917700   7.2608020 142.3248420
  50.0855860   7.2839620 141.5844170  50.3871810   6.5291060 142.8615670
  52.1218070  10.9888310 140.9357830  53.0739820  10.9046330 140.8858070
  51.9746290  11.6530020 141.6091620  55.0127270  10.3682520 126.4349740
  54.7268780   9.9547660 125.6203920  54.8146820  11.2970230 126.3150260
  39.5750880   3.6401610 141.3209060  40.0789900   3.0608890 141.8925290
  38.8358300   3.9241840 141.8585430  46.4774500   6.3615800 124.8755350
  46.3725140   5.7468150 125.6016730  46.3098720   5.8381690 124.0918360
  46.6288820   5.0472600 140.8544580  45.8634490   5.6157600 140.7699250
  46.8104780   4.7548810 139.9612810  49.7177230   5.4235830 125.4797340
  49.1687330   5.8705130 126.1240080  50.3396490   4.9185080 126.0035010
  53.7712170   6.7777930 141.4119600  54.5121640   7.1153690 140.9087060
  53.0084850   6.9469990 140.8589370  41.6073960   1.7831200 142.2159130
  41.6479300   1.4845070 143.1244360  42.4619460   2.1838810 142.0566650
  45.3852350   4.3826750 127.3762640  45.8068770   4.2166620 128.2194030
  45.5103190   3.5726980 126.8817780  47.8979990   3.4064360 124.6239740
  48.4185650   2.6913380 124.2580890  48.5448390   4.0450230 124.9240250
  52.4457830   4.8292760 139.9474810  52.8598850   4.9837840 140.7965230
  51.5108830   4.9547980 140.1100590  52.9180000   2.1688920 141.9513960
  53.5000770   1.4141240 141.8634440  53.0941770   2.6996360 141.1745440
  47.2073060   4.7813240 137.9170740  47.6261170   5.6245970 137.7446980
  46.2881690   4.9185280 137.6877520  49.5436960   2.5129420 139.3008580
  49.6633170   1.9170560 140.0403420  50.4030960   2.5499110 138.8809880
  51.8824860   3.0666610 137.8771090  51.3560080   3.5909230 137.2736230
  52.2256200   3.6994000 138.5080820  45.0580480  11.0866250 139.0328470
  44.5201570  11.8112310 138.7137170  45.3114440  10.6096590 138.2425810
  47.9142690  12.3217460 139.2915120  47.8401390  13.2252600 139.5987490
  47.0121530  12.0029360 139.2637190  48.4628020  11.4875970 126.9141480
  49.3578810  11.8260940 126.9360240  48.4945650  10.7655380 126.2865760
  42.1024180   6.8603020 125.1428480  42.5399050   7.4032690 125.7986060
  42.5871910   6.0349970 125.1524820  39.3169980   9.6492050 132.5948740
  39.6472990   8.7813110 132.3627380  39.7460980   9.8550570 133.4253700
  43.9131900   7.9801060 130.2550710  43.6127440   7.8566030 131.1554620
  43.8069390   7.1209650 129.8466440  39.8060190  10.5162640 135.3330370
  39.3691180  10.6963440 136.1654520  40.3737870  11.2737260 135.1912090
  55.4422370  10.0179640 139.6207680  54.8424360  10.0772200 138.8771600
  55.5716270   9.0784620 139.7504530  56.6823820   7.7597460 124.9577390
  55.8516780   7.8274110 125.4284620  56.8595650   8.6501580 124.6544250
  56.1380280   4.5044940 127.4611590  56.8999190   5.0741590 127.5671280
  56.1534650   3.9372140 128.2319900  39.6384620   3.0282870 131.6919250
  38.9833460   2.7594510 131.0478950  40.4762570   2.9187350 131.2421230
  57.1440250   5.3595040 132.3053520  57.5149080   4.5762360 131.8989490
  57.7842180   6.0484140 132.1270820  54.1274010   6.7431620 137.7183840
  53.3133850   7.1728780 137.9809630  54.5348210   7.3550030 137.1052890
  56.1899450   4.7979310 124.6184110  56.4648290   5.7058190 124.4903330
  56.0010190   4.7341840 125.5546100  56.0864790   2.7348300 129.6113540
  55.7108390   1.9676230 129.1794830  55.3567910   3.1171000 130.0988470
  40.6760550   3.4135440 136.2322590  41.0433590   3.3262840 137.1118610
  40.1071370   2.6501990 136.1329450  55.4764410   1.8819820 139.2453060
  55.2450500   1.6532570 138.3451010  55.7368960   2.8019370 139.1997950
  54.1850060  11.4950220 131.2452110  54.7809130  11.1734790 130.5686530
  54.4428210  11.0222040 132.0365380  42.0912630   7.9268130 141.3942740
  42.0482260   7.5561040 142.2757200  42.2223640   8.8645700 141.5344560
  45.7918660   9.4827720 136.9952460  45.5510020   9.7502280 136.1082980
  46.7321300   9.6533450 137.0503320  57.0522820  11.5022100 137.7963100
  56.5581100  11.8990970 137.0790230  56.4436110  10.8771310 138.1900380
  41.9300660  10.8730380 138.5140520  41.3360980  10.7415080 139.2530560
  41.9224500  10.0368520 138.0482620  54.7362270  12.1445520 135.0749840
  54.2765240  12.8961330 134.7007860  54.1074730  11.4251990 135.0164640
  41.5612890   8.2388760 137.4648560  40.8346950   7.6194050 137.3974510
  41.6222040   8.6329370 136.5946640  45.1657990  10.4533760 134.2497970
  45.6823010   9.8421120 133.7246230  45.8155370  10.9562540 134.7408980
  47.9053490  11.3442250 135.0766950  48.1931300  11.0896550 134.1999960
  48.4176710  10.7919610 135.6672520  39.8442890  11.5563150 130.6745320
  39.6764930  10.9233830 131.3727210  38.9777400  11.7622550 130.3239510
  41.4505590  10.2496380 128.1195460  40.9253210  10.6304410 127.4157420
  41.3750170  10.8747150 128.8405170  47.9725850  12.2658350 142.4435150
  48.8993160  12.0302620 142.4871110  47.9576280  13.0930350 141.9621180
  56.2070910  11.8083920 129.4409400  56.3823100  11.1221660 128.7970320
  55.5092480  12.3330970 129.0486070  44.0498560  12.1978760 126.9944710
  44.7817380  11.9138040 126.4468600  44.3092230  11.9592040 127.8844090
  43.2113350   8.3143490 126.9991040  42.5822230   8.7828590 127.5476870
  43.3261180   7.4692710 127.4337230  54.5403410  11.4928210 142.2676190
  55.3328730  10.9977440 142.0602150  54.8336560  12.1718350 142.8751800
  50.6663070   2.3649150 113.1492240  50.5857120   1.4503760 112.8783950
  50.2527490   2.8616220 112.4431950  48.7981110   4.1428170 115.0301510
  48.0223210   3.6628610 115.3200080  49.4494040   3.4633820 114.8557670
  42.8146940   4.4547980 115.9077270  41.9831820   4.1996690 116.3073780
  43.4227920   4.5258750 116.6435190  52.8188540   8.5488360 113.8100640
  52.3570070   7.7775600 114.1387810  53.6314090   8.5754430 114.3153090
  42.7948200   8.4888070 116.1035290  43.0976240   7.5985810 115.9245510
  43.5391790   9.0458290 115.8757540  49.0451850  10.8346370 113.4304630
  48.4263290  11.2903870 112.8599070  49.9003630  10.9897830 113.0294330
  48.2390100   6.8185360 115.0371670  48.1698380   5.8775300 114.8760800
  49.0009960   6.9086770 115.6094240  49.9115200   5.7185610 110.8236540
  49.2932470   6.1835060 110.2599260  50.4238450   6.4113090 111.2406050
  44.7746960   5.2461480 117.5020140  44.4416340   5.8730400 118.1441210
  44.9513640   5.7723360 116.7221810  43.9866060   7.2142280 119.3169320
  44.6040060   7.8893360 119.0353770  43.1259180   7.6230260 119.2256820
  39.2798400   6.4042140 108.1976170  38.9026380   6.8929240 107.4661070
  39.5371470   7.0767420 108.8282700  54.9043650   8.6781690 117.2323960
  54.2207170   9.3480800 117.2240630  55.4437940   8.8762340 116.4668820
  52.4402390  10.5225820 115.9469140  52.4529550  10.1188110 115.0791400
  51.8877610  11.2973110 115.8430570  53.7347810   7.2442040 111.0359310
  53.6244140   6.3016370 111.1608730  53.7316060   7.6057680 111.9222070
  51.8387830   5.4255660 117.2751750  52.2556620   5.2115770 116.4405210
  52.5627650   5.6828450 117.8460370  49.2768090   2.8707360 110.3921800
  48.3497370   2.8044740 110.6210270  49.4292910   3.8087490 110.2777040
  55.7849930   3.8242880 117.3667990  54.9568560   3.8935970 116.8918120
  56.3800410   4.4097190 116.8983820  53.3065380   4.4327660 110.8957050
  52.6877800   4.0947210 110.2483350  53.2889830   3.7887420 111.6036240
  44.8824730   3.3972100 113.1741530  44.4781730   2.6849350 112.6787430
  44.9687850   3.0525340 114.0629570  45.3506430   7.0839660 115.3380740
  45.0534720   6.4785130 114.6588520  46.3006250   7.1216970 115.2270100
  53.4392040  10.6571530 119.0003840  52.9622600  11.4643720 118.8076450
  52.7553830  10.0049860 119.1530050  44.4424860   6.8221350 121.9888540
  43.5453390   7.0461320 122.2361940  44.4677730   6.9456290 121.0399940
  51.4830080   3.6714470 107.9029800  51.9223360   2.8336900 107.7567620
  52.1958500   4.3043870 107.9893940  43.2696080   3.6934670 120.5645910
  43.1303850   4.5657470 120.9333310  42.3877440   3.3507480 120.4193850
  49.5925460   8.6110540 111.8711040  50.0321370   9.3534870 111.4566430
  49.5312350   8.8537110 112.7950000  45.0676430   9.6356370 122.7731060
  45.0391860  10.0399320 121.9059490  44.9041400   8.7066730 122.6102660
  41.5829360   2.2917080 110.6748180  41.4626960   3.0179170 110.0629450
  41.2730250   1.5219990 110.1976090  57.0191250  10.4183470 124.0695230
  57.4950970  10.8966360 124.7484310  57.6398410  10.3500960 123.3440730
  39.2214730   5.4632220 116.4816820  39.2995150   5.5980990 115.5372540
  39.8356410   4.7548110 116.6744940  40.4662360   7.1632410 112.8923000
  40.0590440   7.3047000 112.0376600  41.3575370   6.8792570 112.6894210
  56.4224500   7.6096320 121.2295240  56.5487560   7.3708200 120.3112420
  56.4645880   6.7780860 121.7017320  50.2841240  11.3124320 119.7990050
  50.7985910  11.2232330 120.6012480  49.4410320  11.6584020 120.0917960
  52.2595640  11.5979660 109.2274050  52.0996780  11.3082600 110.1255880
  52.0942350  10.8219790 108.6919280  44.7384020  11.3778190 111.0045670
  44.5626500  10.4613730 110.7913470  43.8839760  11.7365480 111.2443470
  51.9621770   9.1067220 107.7872050  51.2686930   9.1044510 107.1274330
  52.7044630   8.6826540 107.3566220  51.5271700  10.7329930 111.8620540
  51.9828650   9.9519310 112.1759160  51.8664220  11.4436750 112.4061720
  39.2774250   6.5046390 119.0211280  39.4405290   6.0351750 118.2030650
  39.7426700   5.9969950 119.6860120  45.7744050   1.9785800 107.3040360
  45.2060950   1.5304050 106.6776270  46.4833050   2.3378580 106.7705510
  40.8513230   5.8797820 121.1807090  40.4668020   5.2391490 121.7790050
  41.1625420   6.5833940 121.7501820  47.0010370   2.7274360 116.6615710
  47.3680500   2.2532930 117.4077050  46.8115430   3.6015930 117.0024050
  44.7909740   1.7683000 118.9799920  44.4866810   2.6474980 119.2050280
  45.7456200   1.8282790 119.0157360  43.3191530   5.9743990 109.5766770
  42.5453790   5.4341610 109.4165490  44.0486160   5.4550600 109.2384530
  54.0779510   4.9709350 115.3693160  54.7978630   5.4664640 114.9789270
  53.8761330   4.2927240 114.7247030  49.4598310   5.0418410 121.2562160
  49.3935620   4.1214080 121.0019750  48.8303450   5.1393850 121.9706800
  43.3628930   5.6424370 113.2145580  43.8807600   4.8392630 113.1602470
  42.9112950   5.5803510 114.0562410  48.2498430   6.9090650 108.4872880
  48.5914130   7.6532880 107.9916200  47.4211140   7.2221770 108.8497710
  40.8473470   2.6085740 120.1271280  40.4888410   3.2739590 120.7144620
  40.5528030   1.7769290 120.4983900  44.0486590   3.0669980 123.0110830
  43.7486730   3.2127160 122.1138650  44.8197830   2.5075270 122.9184220
  49.3915040   7.8638980 121.0065960  49.4059580   6.9319940 120.7884870
  48.6840140   7.9498740 121.6455730  54.5252110   2.0478800 107.2764570
  54.4415830   2.4793020 106.4261010  55.2446300   2.5077150 107.7091390
  55.6026250   4.5046320 120.3534540  54.8774440   5.0975100 120.1563930
  56.1301710   4.4969860 119.5547910  55.5539360   8.9021060 110.0046700
  54.9115520   8.2476680 110.2790420  55.1670020   9.3076150 109.2287370
  51.1325840   6.2306490 113.8518390  51.4849660   5.6334620 113.1919760
  50.2488170   5.9050720 114.0226640  47.2189120   6.9904180 111.2588800
  47.9060250   7.5373390 111.6396390  46.4321540   7.5344910 111.2938410
  39.3581520   2.6077000 106.7505880  40.2276370   2.8901800 107.0341800
  38.8671840   3.4212870 106.6354690  46.5216330   3.9950210 110.8714160
  46.9779110   4.8055460 111.0974350  46.1704540   3.6773350 111.7032650
  48.8248940   9.5056550 118.1006460  49.4691160   9.7115930 118.7779880
  49.1878380   8.7444950 117.6477310  50.0981020   7.5088900 116.8183910
  50.7403250   6.8082060 116.9316080  50.6230370   8.2887340 116.6380800
  53.9436740   7.7937520 106.5423050  53.7174320   7.0767960 107.1347690
  53.5532940   7.5449960 105.7044800  51.8718640   8.3083800 120.0219970
  52.2074880   8.8950490 120.6997890  50.9518980   8.1776510 120.2517760
  39.7252770  11.8204380 107.3167510  40.0850410  12.4193720 106.6624780
  39.5845110  12.3664270 108.0902540  53.5252990   5.7109460 108.2037210
  53.2374690   6.1722150 108.9915090  54.3205160   5.2507230 108.4721430
  39.7094630  10.0859240 121.7909910  39.8185750   9.1453980 121.6505300
  39.0575190  10.3513990 121.1423640  47.7007220   8.3575130 123.1908030
  47.3804090   7.6384370 123.7353720  47.0265580   9.0330200 123.2644090
  45.7421390   9.2035580 108.1341180  45.7331490   9.9365270 107.5185690
  44.8219750   8.9567160 108.2268140  41.3428030   4.4250470 108.8787940
  40.7355980   5.1649370 108.8883240  41.8177380   4.5149830 108.0526140
  48.7280990   9.2663820 106.7966370  48.8292970   9.0627810 105.8668350
  47.8282730   9.0122100 107.0014150  47.3699100  11.7850140 111.4914040
  47.6240600  11.7471530 110.5693410  46.4211580  11.6583470 111.4842290
  53.3751680   2.7042020 113.0672550  52.4341820   2.7192250 113.2420240
  53.6895750   1.9177980 113.5132850  43.3533320   4.3861620 106.6276510
  44.1196590   4.2742980 107.1901940  43.4308010   3.6899590 105.9753280
  55.3777260   9.8750870 114.7426810  55.5024680  10.6982040 115.2150620
  56.2442820   9.6641600 114.3950960  42.8494790  11.9682080 114.4143940
  43.5857270  11.4197540 114.6852510  43.2335710  12.8338090 114.2749930
  39.7340270   8.0355650 110.2885450  38.8080050   8.2776790 110.2790860
  40.1996700   8.8629910 110.1670200  41.8553070  11.1528150 123.6029520
  42.6565800  11.4740200 124.0164920  41.3404890  10.7923730 124.3249430
  45.9597100  11.1412390 106.2369510  46.7525710  11.4301220 105.7851300
  45.4401450  10.7104560 105.5581990  50.6917700   7.2608020 123.5504930
  50.0855860   7.2839620 122.8100680  50.3871810   6.5291060 124.0872180
  52.1218070  10.9888310 122.1614340  53.0739820  10.9046330 122.1114580
  51.9746290  11.6530020 122.8348130  55.0127270  10.3682520 107.6606250
  54.7268780   9.9547660 106.8460430  54.8146820  11.2970230 107.5406770
  39.5750880   3.6401610 122.5465570  40.0789900   3.0608890 123.1181800
  38.8358300   3.9241840 123.0841940  46.4774500   6.3615800 106.1011860
  46.3725140   5.7468150 106.8273240  46.3098720   5.8381690 105.3174870
  46.6288820   5.0472600 122.0801090  45.8634490   5.6157600 121.9955760
  46.8104780   4.7548810 121.1869320  49.7177230   5.4235830 106.7053850
  49.1687330   5.8705130 107.3496590  50.3396490   4.9185080 107.2291520
  53.7712170   6.7777930 122.6376110  54.5121640   7.1153690 122.1343570
  53.0084850   6.9469990 122.0845880  41.6073960   1.7831200 123.4415640
  41.6479300   1.4845070 124.3500870  42.4619460   2.1838810 123.2823160
  45.3852350   4.3826750 108.6019150  45.8068770   4.2166620 109.4450540
  45.5103190   3.5726980 108.1074290  47.8979990   3.4064360 105.8496250
  48.4185650   2.6913380 105.4837400  48.5448390   4.0450230 106.1496760
  52.4457830   4.8292760 121.1731320  52.8598850   4.9837840 122.0221740
  51.5108830   4.9547980 121.3357100  52.9180000   2.1688920 123.1770470
  53.5000770   1.4141240 123.0890950  53.0941770   2.6996360 122.4001950
  47.2073060   4.7813240 119.1427250  47.6261170   5.6245970 118.9703490
  46.2881690   4.9185280 118.9134030  49.5436960   2.5129420 120.5265090
  49.6633170   1.9170560 121.2659930  50.4030960   2.5499110 120.1066390
  51.8824860   3.0666610 119.1027600  51.3560080   3.5909230 118.4992740
  52.2256200   3.6994000 119.7337330  45.0580480  11.0866250 120.2584980
  44.5201570  11.8112310 119.9393680  45.3114440  10.6096590 119.4682320
  47.9142690  12.3217460 120.5171630  47.8401390  13.2252600 120.8244000
  47.0121530  12.0029360 120.4893700  48.4628020  11.4875970 108.1397990
  49.3578810  11.8260940 108.1616750  48.4945650  10.7655380 107.5122270
  42.1024180   6.8603020 106.3684990  42.5399050   7.4032690 107.0242570
  42.5871910   6.0349970 106.3781330  39.3169980   9.6492050 113.8205250
  39.6472990   8.7813110 113.5883890  39.7460980   9.8550570 114.6510210
  43.9131900   7.9801060 111.4807220  43.6127440   7.8566030 112.3811130
  43.8069390   7.1209650 111.0722950  39.8060190  10.5162640 116.5586880
  39.3691180  10.6963440 117.3911030  40.3737870  11.2737260 116.4168600
  55.4422370  10.0179640 120.8464190  54.8424360  10.0772200 120.1028110
  55.5716270   9.0784620 120.9761040  56.6823820   7.7597460 106.1833900
  55.8516780   7.8274110 106.6541130  56.8595650   8.6501580 105.8800760
  56.1380280   4.5044940 108.6868100  56.8999190   5.0741590 108.7927790
  56.1534650   3.9372140 109.4576410  39.6384620   3.0282870 112.9175760
  38.9833460   2.7594510 112.2735460  40.4762570   2.9187350 112.4677740
  57.1440250   5.3595040 113.5310030  57.5149080   4.5762360 113.1246000
  57.7842180   6.0484140 113.3527330  54.1274010   6.7431620 118.9440350
  53.3133850   7.1728780 119.2066140  54.5348210   7.3550030 118.3309400
  56.1899450   4.7979310 105.8440620  56.4648290   5.7058190 105.7159840
  56.0010190   4.7341840 106.7802610  56.0864790   2.7348300 110.8370050
  55.7108390   1.9676230 110.4051340  55.3567910   3.1171000 111.3244980
  40.6760550   3.4135440 117.4579100  41.0433590   3.3262840 118.3375120
  40.1071370   2.6501990 117.3585960  55.4764410   1.8819820 120.4709570
  55.2450500   1.6532570 119.5707520  55.7368960   2.8019370 120.4254460
  54.1850060  11.4950220 112.4708620  54.7809130  11.1734790 111.7943040
  54.4428210  11.0222040 113.2621890  42.0912630   7.9268130 122.6199250
  42.0482260   7.5561040 123.5013710  42.2223640   8.8645700 122.7601070
  45.7918660   9.4827720 118.2208970  45.5510020   9.7502280 117.3339490
  46.7321300   9.6533450 118.2759830  57.0522820  11.5022100 119.0219610
  56.5581100  11.8990970 118.3046740  56.4436110  10.8771310 119.4156890
  41.9300660  10.8730380 119.7397030  41.3360980  10.7415080 120.4787070
  41.9224500  10.0368520 119.2739130  54.7362270  12.1445520 116.3006350
  54.2765240  12.8961330 115.9264370  54.1074730  11.4251990 116.2421150
  41.5612890   8.2388760 118.6905070  40.8346950   7.6194050 118.6231020
  41.6222040   8.6329370 117.8203150  45.1657990  10.4533760 115.4754480
  45.6823010   9.8421120 114.9502740  45.8155370  10.9562540 115.9665490
  47.9053490  11.3442250 116.3023460  48.1931300  11.0896550 115.4256470
  48.4176710  10.7919610 116.8929030  39.8442890  11.5563150 111.9001830
  39.6764930  10.9233830 112.5983720  38.9777400  11.7622550 111.5496020
  41.4505590  10.2496380 109.3451970  40.9253210  10.6304410 108.6413930
  41.3750170  10.8747150 110.0661680  47.9725850  12.2658350 123.6691660
  48.8993160  12.0302620 123.7127620  47.9576280  13.0930350 123.1877690
  56.2070910  11.8083920 110.6665910  56.3823100  11.1221660 110.0226830
  55.5092480  12.3330970 110.2742580  44.0498560  12.1978760 108.2201220
  44.7817380  11.9138040 107.6725110  44.3092230  11.9592040 109.1100600
  43.2113350   8.3143490 108.2247550  42.5822230   8.7828590 108.7733380
  43.3261180   7.4692710 108.6593740  54.5403410  11.4928210 123.4932700
  55.3328730  10.9977440 123.2858660  54.8336560  12.1718350 124.1008310
  50.6663070   2.3649150  94.3748750  50.5857120   1.4503760  94.1040460
  50.2527490   2.8616220  93.6688460  48.7981110   4.1428170  96.2558020
  48.0223210   3.6628610  96.5456590  49.4494040   3.4633820  96.0814180
  42.8146940   4.4547980  97.1333780  41.9831820   4.1996690  97.5330290
  43.4227920   4.5258750  97.8691700  52.8188540   8.5488360  95.0357150
  52.3570070   7.7775600  95.3644320  53.6314090   8.5754430  95.5409600
  42.7948200   8.4888070  97.3291800  43.0976240   7.5985810  97.1502020
  43.5391790   9.0458290  97.1014050  49.0451850  10.8346370  94.6561140
  48.4263290  11.2903870  94.0855580  49.9003630  10.9897830  94.2550840
  48.2390100   6.8185360  96.2628180  48.1698380   5.8775300  96.1017310
  49.0009960   6.9086770  96.8350750  49.9115200   5.7185610  92.0493050
  49.2932470   6.1835060  91.4855770  50.4238450   6.4113090  92.4662560
  44.7746960   5.2461480  98.7276650  44.4416340   5.8730400  99.3697720
  44.9513640   5.7723360  97.9478320  43.9866060   7.2142280 100.5425830
  44.6040060   7.8893360 100.2610280  43.1259180   7.6230260 100.4513330
  39.2798400   6.4042140  89.4232680  38.9026380   6.8929240  88.6917580
  39.5371470   7.0767420  90.0539210  54.9043650   8.6781690  98.4580470
  54.2207170   9.3480800  98.4497140  55.4437940   8.8762340  97.6925330
  52.4402390  10.5225820  97.1725650  52.4529550  10.1188110  96.3047910
  51.8877610  11.2973110  97.0687080  53.7347810   7.2442040  92.2615820
  53.6244140   6.3016370  92.3865240  53.7316060   7.6057680  93.1478580
  51.8387830   5.4255660  98.5008260  52.2556620   5.2115770  97.6661720
  52.5627650   5.6828450  99.0716880  49.2768090   2.8707360  91.6178310
  48.3497370   2.8044740  91.8466780  49.4292910   3.8087490  91.5033550
  55.7849930   3.8242880  98.5924500  54.9568560   3.8935970  98.1174630
  56.3800410   4.4097190  98.1240330  53.3065380   4.4327660  92.1213560
  52.6877800   4.0947210  91.4739860  53.2889830   3.7887420  92.8292750
  44.8824730   3.3972100  94.3998040  44.4781730   2.6849350  93.9043940
  44.9687850   3.0525340  95.2886080  45.3506430   7.0839660  96.5637250
  45.0534720   6.4785130  95.8845030  46.3006250   7.1216970  96.4526610
  53.4392040  10.6571530 100.2260350  52.9622600  11.4643720 100.0332960
  52.7553830  10.0049860 100.3786560  44.4424860   6.8221350 103.2145050
  43.5453390   7.0461320 103.4618450  44.4677730   6.9456290 102.2656450
  51.4830080   3.6714470  89.1286310  51.9223360   2.8336900  88.9824130
  52.1958500   4.3043870  89.2150450  43.2696080   3.6934670 101.7902420
  43.1303850   4.5657470 102.1589820  42.3877440   3.3507480 101.6450360
  49.5925460   8.6110540  93.0967550  50.0321370   9.3534870  92.6822940
  49.5312350   8.8537110  94.0206510  45.0676430   9.6356370 103.9987570
  45.0391860  10.0399320 103.1316000  44.9041400   8.7066730 103.8359170
  41.5829360   2.2917080  91.9004690  41.4626960   3.0179170  91.2885960
  41.2730250   1.5219990  91.4232600  57.0191250  10.4183470 105.2951740
  57.4950970  10.8966360 105.9740820  57.6398410  10.3500960 104.5697240
  39.2214730   5.4632220  97.7073330  39.2995150   5.5980990  96.7629050
  39.8356410   4.7548110  97.9001450  40.4662360   7.1632410  94.1179510
  40.0590440   7.3047000  93.2633110  41.3575370   6.8792570  93.9150720
  56.4224500   7.6096320 102.4551750  56.5487560   7.3708200 101.5368930
  56.4645880   6.7780860 102.9273830  50.2841240  11.3124320 101.0246560
  50.7985910  11.2232330 101.8268990  49.4410320  11.6584020 101.3174470
  52.2595640  11.5979660  90.4530560  52.0996780  11.3082600  91.3512390
  52.0942350  10.8219790  89.9175790  44.7384020  11.3778190  92.2302180
  44.5626500  10.4613730  92.0169980  43.8839760  11.7365480  92.4699980
  51.9621770   9.1067220  89.0128560  51.2686930   9.1044510  88.3530840
  52.7044630   8.6826540  88.5822730  51.5271700  10.7329930  93.0877050
  51.9828650   9.9519310  93.4015670  51.8664220  11.4436750  93.6318230
  39.2774250   6.5046390 100.2467790  39.4405290   6.0351750  99.4287160
  39.7426700   5.9969950 100.9116630  45.7744050   1.9785800  88.5296870
  45.2060950   1.5304050  87.9032780  46.4833050   2.3378580  87.9962020
  40.8513230   5.8797820 102.4063600  40.4668020   5.2391490 103.0046560
  41.1625420   6.5833940 102.9758330  47.0010370   2.7274360  97.8872220
  47.3680500   2.2532930  98.6333560  46.8115430   3.6015930  98.2280560
  44.7909740   1.7683000 100.2056430  44.4866810   2.6474980 100.4306790
  45.7456200   1.8282790 100.2413870  43.3191530   5.9743990  90.8023280
  42.5453790   5.4341610  90.6422000  44.0486160   5.4550600  90.4641040
  54.0779510   4.9709350  96.5949670  54.7978630   5.4664640  96.2045780
  53.8761330   4.2927240  95.9503540  49.4598310   5.0418410 102.4818670
  49.3935620   4.1214080 102.2276260  48.8303450   5.1393850 103.1963310
  43.3628930   5.6424370  94.4402090  43.8807600   4.8392630  94.3858980
  42.9112950   5.5803510  95.2818920  48.2498430   6.9090650  89.7129390
  48.5914130   7.6532880  89.2172710  47.4211140   7.2221770  90.0754220
  40.8473470   2.6085740 101.3527790  40.4888410   3.2739590 101.9401130
  40.5528030   1.7769290 101.7240410  44.0486590   3.0669980 104.2367340
  43.7486730   3.2127160 103.3395160  44.8197830   2.5075270 104.1440730
  49.3915040   7.8638980 102.2322470  49.4059580   6.9319940 102.0141380
  48.6840140   7.9498740 102.8712240  54.5252110   2.0478800  88.5021080
  54.4415830   2.4793020  87.6517520  55.2446300   2.5077150  88.9347900
  55.6026250   4.5046320 101.5791050  54.8774440   5.0975100 101.3820440
  56.1301710   4.4969860 100.7804420  55.5539360   8.9021060  91.2303210
  54.9115520   8.2476680  91.5046930  55.1670020   9.3076150  90.4543880
  51.1325840   6.2306490  95.0774900  51.4849660   5.6334620  94.4176270
  50.2488170   5.9050720  95.2483150  47.2189120   6.9904180  92.4845310
  47.9060250   7.5373390  92.8652900  46.4321540   7.5344910  92.5194920
  39.3581520   2.6077000  87.9762390  40.2276370   2.8901800  88.2598310
  38.8671840   3.4212870  87.8611200  46.5216330   3.9950210  92.0970670
  46.9779110   4.8055460  92.3230860  46.1704540   3.6773350  92.9289160
  48.8248940   9.5056550  99.3262970  49.4691160   9.7115930 100.0036390
  49.1878380   8.7444950  98.8733820  50.0981020   7.5088900  98.0440420
  50.7403250   6.8082060  98.1572590  50.6230370   8.2887340  97.8637310
  53.9436740   7.7937520  87.7679560  53.7174320   7.0767960  88.3604200
  53.5532940   7.5449960  86.9301310  51.8718640   8.3083800 101.2476480
  52.2074880   8.8950490 101.9254400  50.9518980   8.1776510 101.4774270
  39.7252770  11.8204380  88.5424020  40.0850410  12.4193720  87.8881290
  39.5845110  12.3664270  89.3159050  53.5252990   5.7109460  89.4293720
  53.2374690   6.1722150  90.2171600  54.3205160   5.2507230  89.6977940
  39.7094630  10.0859240 103.0166420  39.8185750   9.1453980 102.8761810
  39.0575190  10.3513990 102.3680150  47.7007220   8.3575130 104.4164540
  47.3804090   7.6384370 104.9610230  47.0265580   9.0330200 104.4900600
  45.7421390   9.2035580  89.3597690  45.7331490   9.9365270  88.7442200
  44.8219750   8.9567160  89.4524650  41.3428030   4.4250470  90.1044450
  40.7355980   5.1649370  90.1139750  41.8177380   4.5149830  89.2782650
  48.7280990   9.2663820  88.0222880  48.8292970   9.0627810  87.0924860
  47.8282730   9.0122100  88.2270660  47.3699100  11.7850140  92.7170550
  47.6240600  11.7471530  91.7949920  46.4211580  11.6583470  92.7098800
  53.3751680   2.7042020  94.2929060  52.4341820   2.7192250  94.4676750
  53.6895750   1.9177980  94.7389360  43.3533320   4.3861620  87.8533020
  44.1196590   4.2742980  88.4158450  43.4308010   3.6899590  87.2009790
  55.3777260   9.8750870  95.9683320  55.5024680  10.6982040  96.4407130
  56.2442820   9.6641600  95.6207470  42.8494790  11.9682080  95.6400450
  43.5857270  11.4197540  95.9109020  43.2335710  12.8338090  95.5006440
  39.7340270   8.0355650  91.5141960  38.8080050   8.2776790  91.5047370
  40.1996700   8.8629910  91.3926710  41.8553070  11.1528150 104.8286030
  42.6565800  11.4740200 105.2421430  41.3404890  10.7923730 105.5505940
  45.9597100  11.1412390  87.4626020  46.7525710  11.4301220  87.0107810
  45.4401450  10.7104560  86.7838500  50.6917700   7.2608020 104.7761440
  50.0855860   7.2839620 104.0357190  50.3871810   6.5291060 105.3128690
  52.1218070  10.9888310 103.3870850  53.0739820  10.9046330 103.3371090
  51.9746290  11.6530020 104.0604640  55.0127270  10.3682520  88.8862760
  54.7268780   9.9547660  88.0716940  54.8146820  11.2970230  88.7663280
  39.5750880   3.6401610 103.7722080  40.0789900   3.0608890 104.3438310
  38.8358300   3.9241840 104.3098450  46.4774500   6.3615800  87.3268370
  46.3725140   5.7468150  88.0529750  46.3098720   5.8381690  86.5431380
  46.6288820   5.0472600 103.3057600  45.8634490   5.6157600 103.2212270
  46.8104780   4.7548810 102.4125830  49.7177230   5.4235830  87.9310360
  49.1687330   5.8705130  88.5753100  50.3396490   4.9185080  88.4548030
  53.7712170   6.7777930 103.8632620  54.5121640   7.1153690 103.3600080
  53.0084850   6.9469990 103.3102390  41.6073960   1.7831200 104.6672150
  41.6479300   1.4845070 105.5757380  42.4619460   2.1838810 104.5079670
  45.3852350   4.3826750  89.8275660  45.8068770   4.2166620  90.6707050
  45.5103190   3.5726980  89.3330800  47.8979990   3.4064360  87.0752760
  48.4185650   2.6913380  86.7093910  48.5448390   4.0450230  87.3753270
  52.4457830   4.8292760 102.3987830  52.8598850   4.9837840 103.2478250
  51.5108830   4.9547980 102.5613610  52.9180000   2.1688920 104.4026980
  53.5000770   1.4141240 104.3147460  53.0941770   2.6996360 103.6258460
  47.2073060   4.7813240 100.3683760  47.6261170   5.6245970 100.1960000
  46.2881690   4.9185280 100.1390540  49.5436960   2.5129420 101.7521600
  49.6633170   1.9170560 102.4916440  50.4030960   2.5499110 101.3322900
  51.8824860   3.0666610 100.3284110  51.3560080   3.5909230  99.7249250
  52.2256200   3.6994000 100.9593840  45.0580480  11.0866250 101.4841490
  44.5201570  11.8112310 101.1650190  45.3114440  10.6096590 100.6938830
  47.9142690  12.3217460 101.7428140  47.8401390  13.2252600 102.0500510
  47.0121530  12.0029360 101.7150210  48.4628020  11.4875970  89.3654500
  49.3578810  11.8260940  89.3873260  48.4945650  10.7655380  88.7378780
  42.1024180   6.8603020  87.5941500  42.5399050   7.4032690  88.2499080
  42.5871910   6.0349970  87.6037840  39.3169980   9.6492050  95.0461760
  39.6472990   8.7813110  94.8140400  39.7460980   9.8550570  95.8766720
  43.9131900   7.9801060  92.7063730  43.6127440   7.8566030  93.6067640
  43.8069390   7.1209650  92.2979460  39.8060190  10.5162640  97.7843390
  39.3691180  10.6963440  98.6167540  40.3737870  11.2737260  97.6425110
  55.4422370  10.0179640 102.0720700  54.8424360  10.0772200 101.3284620
  55.5716270   9.0784620 102.2017550  56.6823820   7.7597460  87.4090410
  55.8516780   7.8274110  87.8797640  56.8595650   8.6501580  87.1057270
  56.1380280   4.5044940  89.9124610  56.8999190   5.0741590  90.0184300
  56.1534650   3.9372140  90.6832920  39.6384620   3.0282870  94.1432270
  38.9833460   2.7594510  93.4991970  40.4762570   2.9187350  93.6934250
  57.1440250   5.3595040  94.7566540  57.5149080   4.5762360  94.3502510
  57.7842180   6.0484140  94.5783840  54.1274010   6.7431620 100.1696860
  53.3133850   7.1728780 100.4322650  54.5348210   7.3550030  99.5565910
  56.1899450   4.7979310  87.0697130  56.4648290   5.7058190  86.9416350
  56.0010190   4.7341840  88.0059120  56.0864790   2.7348300  92.0626560
  55.7108390   1.9676230  91.6307850  55.3567910   3.1171000  92.5501490
  40.6760550   3.4135440  98.6835610  41.0433590   3.3262840  99.5631630
  40.1071370   2.6501990  98.5842470  55.4764410   1.8819820 101.6966080
  55.2450500   1.6532570 100.7964030  55.7368960   2.8019370 101.6510970
  54.1850060  11.4950220  93.6965130  54.7809130  11.1734790  93.0199550
  54.4428210  11.0222040  94.4878400  42.0912630   7.9268130 103.8455760
  42.0482260   7.5561040 104.7270220  42.2223640   8.8645700 103.9857580
  45.7918660   9.4827720  99.4465480  45.5510020   9.7502280  98.5596000
  46.7321300   9.6533450  99.5016340  57.0522820  11.5022100 100.2476120
  56.5581100  11.8990970  99.5303250  56.4436110  10.8771310 100.6413400
  41.9300660  10.8730380 100.9653540  41.3360980  10.7415080 101.7043580
  41.9224500  10.0368520 100.4995640  54.7362270  12.1445520  97.5262860
  54.2765240  12.8961330  97.1520880  54.1074730  11.4251990  97.4677660
  41.5612890   8.2388760  99.9161580  40.8346950   7.6194050  99.8487530
  41.6222040   8.6329370  99.0459660  45.1657990  10.4533760  96.7010990
  45.6823010   9.8421120  96.1759250  45.8155370  10.9562540  97.1922000
  47.9053490  11.3442250  97.5279970  48.1931300  11.0896550  96.6512980
  48.4176710  10.7919610  98.1185540  39.8442890  11.5563150  93.1258340
  39.6764930  10.9233830  93.8240230  38.9777400  11.7622550  92.7752530
  41.4505590  10.2496380  90.5708480  40.9253210  10.6304410  89.8670440
  41.3750170  10.8747150  91.2918190  47.9725850  12.2658350 104.8948170
  48.8993160  12.0302620 104.9384130  47.9576280  13.0930350 104.4134200
  56.2070910  11.8083920  91.8922420  56.3823100  11.1221660  91.2483340
  55.5092480  12.3330970  91.4999090  44.0498560  12.1978760  89.4457730
  44.7817380  11.9138040  88.8981620  44.3092230  11.9592040  90.3357110
  43.2113350   8.3143490  89.4504060  42.5822230   8.7828590  89.9989890
  43.3261180   7.4692710  89.8850250  54.5403410  11.4928210 104.7189210
  55.3328730  10.9977440 104.5115170  54.8336560  12.1718350 105.3264820
  50.6663070   2.3649150  75.6005260  50.5857120   1.4503760  75.3296970
  50.2527490   2.8616220  74.8944970  48.7981110   4.1428170  77.4814530
  48.0223210   3.6628610  77.7713100  49.4494040   3.4633820  77.3070690
  42.8146940   4.4547980  78.3590290  41.9831820   4.1996690  78.7586800
  43.4227920   4.5258750  79.0948210  52.8188540   8.5488360  76.2613660
  52.3570070   7.7775600  76.5900830  53.6314090   8.5754430  76.7666110
  42.7948200   8.4888070  78.5548310  43.0976240   7.5985810  78.3758530
  43.5391790   9.0458290  78.3270560  49.0451850  10.8346370  75.8817650
  48.4263290  11.2903870  75.3112090  49.9003630  10.9897830  75.4807350
  48.2390100   6.8185360  77.4884690  48.1698380   5.8775300  77.3273820
  49.0009960   6.9086770  78.0607260  49.9115200   5.7185610  73.2749560
  49.2932470   6.1835060  72.7112280  50.4238450   6.4113090  73.6919070
  44.7746960   5.2461480  79.9533160  44.4416340   5.8730400  80.5954230
  44.9513640   5.7723360  79.1734830  43.9866060   7.2142280  81.7682340
  44.6040060   7.8893360  81.4866790  43.1259180   7.6230260  81.6769840
  39.2798400   6.4042140  70.6489190  38.9026380   6.8929240  69.9174090
  39.5371470   7.0767420  71.2795720  54.9043650   8.6781690  79.6836980
  54.2207170   9.3480800  79.6753650  55.4437940   8.8762340  78.9181840
  52.4402390  10.5225820  78.3982160  52.4529550  10.1188110  77.5304420
  51.8877610  11.2973110  78.2943590  53.7347810   7.2442040  73.4872330
  53.6244140   6.3016370  73.6121750  53.7316060   7.6057680  74.3735090
  51.8387830   5.4255660  79.7264770  52.2556620   5.2115770  78.8918230
  52.5627650   5.6828450  80.2973390  49.2768090   2.8707360  72.8434820
  48.3497370   2.8044740  73.0723290  49.4292910   3.8087490  72.7290060
  55.7849930   3.8242880  79.8181010  54.9568560   3.8935970  79.3431140
  56.3800410   4.4097190  79.3496840  53.3065380   4.4327660  73.3470070
  52.6877800   4.0947210  72.6996370  53.2889830   3.7887420  74.0549260
  44.8824730   3.3972100  75.6254550  44.4781730   2.6849350  75.1300450
  44.9687850   3.0525340  76.5142590  45.3506430   7.0839660  77.7893760
  45.0534720   6.4785130  77.1101540  46.3006250   7.1216970  77.6783120
  53.4392040  10.6571530  81.4516860  52.9622600  11.4643720  81.2589470
  52.7553830  10.0049860  81.6043070  44.4424860   6.8221350  84.4401560
  43.5453390   7.0461320  84.6874960  44.4677730   6.9456290  83.4912960
  51.4830080   3.6714470  70.3542820  51.9223360   2.8336900  70.2080640
  52.1958500   4.3043870  70.4406960  43.2696080   3.6934670  83.0158930
  43.1303850   4.5657470  83.3846330  42.3877440   3.3507480  82.8706870
  49.5925460   8.6110540  74.3224060  50.0321370   9.3534870  73.9079450
  49.5312350   8.8537110  75.2463020  45.0676430   9.6356370  85.2244080
  45.0391860  10.0399320  84.3572510  44.9041400   8.7066730  85.0615680
  41.5829360   2.2917080  73.1261200  41.4626960   3.0179170  72.5142470
  41.2730250   1.5219990  72.6489110  57.0191250  10.4183470  86.5208250
  57.4950970  10.8966360  87.1997330  57.6398410  10.3500960  85.7953750
  39.2214730   5.4632220  78.9329840  39.2995150   5.5980990  77.9885560
  39.8356410   4.7548110  79.1257960  40.4662360   7.1632410  75.3436020
  40.0590440   7.3047000  74.4889620  41.3575370   6.8792570  75.1407230
  56.4224500   7.6096320  83.6808260  56.5487560   7.3708200  82.7625440
  56.4645880   6.7780860  84.1530340  50.2841240  11.3124320  82.2503070
  50.7985910  11.2232330  83.0525500  49.4410320  11.6584020  82.5430980
  52.2595640  11.5979660  71.6787070  52.0996780  11.3082600  72.5768900
  52.0942350  10.8219790  71.1432300  44.7384020  11.3778190  73.4558690
  44.5626500  10.4613730  73.2426490  43.8839760  11.7365480  73.6956490
  51.9621770   9.1067220  70.2385070  51.2686930   9.1044510  69.5787350
  52.7044630   8.6826540  69.8079240  51.5271700  10.7329930  74.3133560
  51.9828650   9.9519310  74.6272180  51.8664220  11.4436750  74.8574740
  39.2774250   6.5046390  81.4724300  39.4405290   6.0351750  80.6543670
  39.7426700   5.9969950  82.1373140  45.7744050   1.9785800  69.7553380
  45.2060950   1.5304050  69.1289290  46.4833050   2.3378580  69.2218530
  40.8513230   5.8797820  83.6320110  40.4668020   5.2391490  84.2303070
  41.1625420   6.5833940  84.2014840  47.0010370   2.7274360  79.1128730
  47.3680500   2.2532930  79.8590070  46.8115430   3.6015930  79.4537070
  44.7909740   1.7683000  81.4312940  44.4866810   2.6474980  81.6563300
  45.7456200   1.8282790  81.4670380  43.3191530   5.9743990  72.0279790
  42.5453790   5.4341610  71.8678510  44.0486160   5.4550600  71.6897550
  54.0779510   4.9709350  77.8206180  54.7978630   5.4664640  77.4302290
  53.8761330   4.2927240  77.1760050  49.4598310   5.0418410  83.7075180
  49.3935620   4.1214080  83.4532770  48.8303450   5.1393850  84.4219820
  43.3628930   5.6424370  75.6658600  43.8807600   4.8392630  75.6115490
  42.9112950   5.5803510  76.5075430  48.2498430   6.9090650  70.9385900
  48.5914130   7.6532880  70.4429220  47.4211140   7.2221770  71.3010730
  40.8473470   2.6085740  82.5784300  40.4888410   3.2739590  83.1657640
  40.5528030   1.7769290  82.9496920  44.0486590   3.0669980  85.4623850
  43.7486730   3.2127160  84.5651670  44.8197830   2.5075270  85.3697240
  49.3915040   7.8638980  83.4578980  49.4059580   6.9319940  83.2397890
  48.6840140   7.9498740  84.0968750  54.5252110   2.0478800  69.7277590
  54.4415830   2.4793020  68.8774030  55.2446300   2.5077150  70.1604410
  55.6026250   4.5046320  82.8047560  54.8774440   5.0975100  82.6076950
  56.1301710   4.4969860  82.0060930  55.5539360   8.9021060  72.4559720
  54.9115520   8.2476680  72.7303440  55.1670020   9.3076150  71.6800390
  51.1325840   6.2306490  76.3031410  51.4849660   5.6334620  75.6432780
  50.2488170   5.9050720  76.4739660  47.2189120   6.9904180  73.7101820
  47.9060250   7.5373390  74.0909410  46.4321540   7.5344910  73.7451430
  39.3581520   2.6077000  69.2018900  40.2276370   2.8901800  69.4854820
  38.8671840   3.4212870  69.0867710  46.5216330   3.9950210  73.3227180
  46.9779110   4.8055460  73.5487370  46.1704540   3.6773350  74.1545670
  48.8248940   9.5056550  80.5519480  49.4691160   9.7115930  81.2292900
  49.1878380   8.7444950  80.0990330  50.0981020   7.5088900  79.2696930
  50.7403250   6.8082060  79.3829100  50.6230370   8.2887340  79.0893820
  53.9436740   7.7937520  68.9936070  53.7174320   7.0767960  69.5860710
  53.5532940   7.5449960  68.1557820  51.8718640   8.3083800  82.4732990
  52.2074880   8.8950490  83.1510910  50.9518980   8.1776510  82.7030780
  39.7252770  11.8204380  69.7680530  40.0850410  12.4193720  69.1137800
  39.5845110  12.3664270  70.5415560  53.5252990   5.7109460  70.6550230
  53.2374690   6.1722150  71.4428110  54.3205160   5.2507230  70.9234450
  39.7094630  10.0859240  84.2422930  39.8185750   9.1453980  84.1018320
  39.0575190  10.3513990  83.5936660  47.7007220   8.3575130  85.6421050
  47.3804090   7.6384370  86.1866740  47.0265580   9.0330200  85.7157110
  45.7421390   9.2035580  70.5854200  45.7331490   9.9365270  69.9698710
  44.8219750   8.9567160  70.6781160  41.3428030   4.4250470  71.3300960
  40.7355980   5.1649370  71.3396260  41.8177380   4.5149830  70.5039160
  48.7280990   9.2663820  69.2479390  48.8292970   9.0627810  68.3181370
  47.8282730   9.0122100  69.4527170  47.3699100  11.7850140  73.9427060
  47.6240600  11.7471530  73.0206430  46.4211580  11.6583470  73.9355310
  53.3751680   2.7042020  75.5185570  52.4341820   2.7192250  75.6933260
  53.6895750   1.9177980  75.9645870  43.3533320   4.3861620  69.0789530
  44.1196590   4.2742980  69.6414960  43.4308010   3.6899590  68.4266300
  55.3777260   9.8750870  77.1939830  55.5024680  10.6982040  77.6663640
  56.2442820   9.6641600  76.8463980  42.8494790  11.9682080  76.8656960
  43.5857270  11.4197540  77.1365530  43.2335710  12.8338090  76.7262950
  39.7340270   8.0355650  72.7398470  38.8080050   8.2776790  72.7303880
  40.1996700   8.8629910  72.6183220  41.8553070  11.1528150  86.0542540
  42.6565800  11.4740200  86.4677940  41.3404890  10.7923730  86.7762450
  45.9597100  11.1412390  68.6882530  46.7525710  11.4301220  68.2364320
  45.4401450  10.7104560  68.0095010  50.6917700   7.2608020  86.0017950
  50.0855860   7.2839620  85.2613700  50.3871810   6.5291060  86.5385200
  52.1218070  10.9888310  84.6127360  53.0739820  10.9046330  84.5627600
  51.9746290  11.6530020  85.2861150  55.0127270  10.3682520  70.1119270
  54.7268780   9.9547660  69.2973450  54.8146820  11.2970230  69.9919790
  39.5750880   3.6401610  84.9978590  40.0789900   3.0608890  85.5694820
  38.8358300   3.9241840  85.5354960  46.4774500   6.3615800  68.5524880
  46.3725140   5.7468150  69.2786260  46.3098720   5.8381690  67.7687890
  46.6288820   5.0472600  84.5314110  45.8634490   5.6157600  84.4468780
  46.8104780   4.7548810  83.6382340  49.7177230   5.4235830  69.1566870
  49.1687330   5.8705130  69.8009610  50.3396490   4.9185080  69.6804540
  53.7712170   6.7777930  85.0889130  54.5121640   7.1153690  84.5856590
  53.0084850   6.9469990  84.5358900  41.6073960   1.7831200  85.8928660
  41.6479300   1.4845070  86.8013890  42.4619460   2.1838810  85.7336180
  45.3852350   4.3826750  71.0532170  45.8068770   4.2166620  71.8963560
  45.5103190   3.5726980  70.5587310  47.8979990   3.4064360  68.3009270
  48.4185650   2.6913380  67.9350420  48.5448390   4.0450230  68.6009780
  52.4457830   4.8292760  83.6244340  52.8598850   4.9837840  84.4734760
  51.5108830   4.9547980  83.7870120  52.9180000   2.1688920  85.6283490
  53.5000770   1.4141240  85.5403970  53.0941770   2.6996360  84.8514970
  47.2073060   4.7813240  81.5940270  47.6261170   5.6245970  81.4216510
  46.2881690   4.9185280  81.3647050  49.5436960   2.5129420  82.9778110
  49.6633170   1.9170560  83.7172950  50.4030960   2.5499110  82.5579410
  51.8824860   3.0666610  81.5540620  51.3560080   3.5909230  80.9505760
  52.2256200   3.6994000  82.1850350  45.0580480  11.0866250  82.7098000
  44.5201570  11.8112310  82.3906700  45.3114440  10.6096590  81.9195340
  47.9142690  12.3217460  82.9684650  47.8401390  13.2252600  83.2757020
  47.0121530  12.0029360  82.9406720  48.4628020  11.4875970  70.5911010
  49.3578810  11.8260940  70.6129770  48.4945650  10.7655380  69.9635290
  42.1024180   6.8603020  68.8198010  42.5399050   7.4032690  69.4755590
  42.5871910   6.0349970  68.8294350  39.3169980   9.6492050  76.2718270
  39.6472990   8.7813110  76.0396910  39.7460980   9.8550570  77.1023230
  43.9131900   7.9801060  73.9320240  43.6127440   7.8566030  74.8324150
  43.8069390   7.1209650  73.5235970  39.8060190  10.5162640  79.0099900
  39.3691180  10.6963440  79.8424050  40.3737870  11.2737260  78.8681620
  55.4422370  10.0179640  83.2977210  54.8424360  10.0772200  82.5541130
  55.5716270   9.0784620  83.4274060  56.6823820   7.7597460  68.6346920
  55.8516780   7.8274110  69.1054150  56.8595650   8.6501580  68.3313780
  56.1380280   4.5044940  71.1381120  56.8999190   5.0741590  71.2440810
  56.1534650   3.9372140  71.9089430  39.6384620   3.0282870  75.3688780
  38.9833460   2.7594510  74.7248480  40.4762570   2.9187350  74.9190760
  57.1440250   5.3595040  75.9823050  57.5149080   4.5762360  75.5759020
  57.7842180   6.0484140  75.8040350  54.1274010   6.7431620  81.3953370
  53.3133850   7.1728780  81.6579160  54.5348210   7.3550030  80.7822420
  56.1899450   4.7979310  68.2953640  56.4648290   5.7058190  68.1672860
  56.0010190   4.7341840  69.2315630  56.0864790   2.7348300  73.2883070
  55.7108390   1.9676230  72.8564360  55.3567910   3.1171000  73.7758000
  40.6760550   3.4135440  79.9092120  41.0433590   3.3262840  80.7888140
  40.1071370   2.6501990  79.8098980  55.4764410   1.8819820  82.9222590
  55.2450500   1.6532570  82.0220540  55.7368960   2.8019370  82.8767480
  54.1850060  11.4950220  74.9221640  54.7809130  11.1734790  74.2456060
  54.4428210  11.0222040  75.7134910  42.0912630   7.9268130  85.0712270
  42.0482260   7.5561040  85.9526730  42.2223640   8.8645700  85.2114090
  45.7918660   9.4827720  80.6721990  45.5510020   9.7502280  79.7852510
  46.7321300   9.6533450  80.7272850  57.0522820  11.5022100  81.4732630
  56.5581100  11.8990970  80.7559760  56.4436110  10.8771310  81.8669910
  41.9300660  10.8730380  82.1910050  41.3360980  10.7415080  82.9300090
  41.9224500  10.0368520  81.7252150  54.7362270  12.1445520  78.7519370
  54.2765240  12.8961330  78.3777390  54.1074730  11.4251990  78.6934170
  41.5612890   8.2388760  81.1418090  40.8346950   7.6194050  81.0744040
  41.6222040   8.6329370  80.2716170  45.1657990  10.4533760  77.9267500
  45.6823010   9.8421120  77.4015760  45.8155370  10.9562540  78.4178510
  47.9053490  11.3442250  78.7536480  48.1931300  11.0896550  77.8769490
  48.4176710  10.7919610  79.3442050  39.8442890  11.5563150  74.3514850
  39.6764930  10.9233830  75.0496740  38.9777400  11.7622550  74.0009040
  41.4505590  10.2496380  71.7964990  40.9253210  10.6304410  71.0926950
  41.3750170  10.8747150  72.5174700  47.9725850  12.2658350  86.1204680
  48.8993160  12.0302620  86.1640640  47.9576280  13.0930350  85.6390710
  56.2070910  11.8083920  73.1178930  56.3823100  11.1221660  72.4739850
  55.5092480  12.3330970  72.7255600  44.0498560  12.1978760  70.6714240
  44.7817380  11.9138040  70.1238130  44.3092230  11.9592040  71.5613620
  43.2113350   8.3143490  70.6760570  42.5822230   8.7828590  71.2246400
  43.3261180   7.4692710  71.1106760  54.5403410  11.4928210  85.9445720
  55.3328730  10.9977440  85.7371680  54.8336560  12.1718350  86.5521330
  50.6663070   2.3649150  56.8261770  50.5857120   1.4503760  56.5553480
  50.2527490   2.8616220  56.1201480  48.7981110   4.1428170  58.7071040
  48.0223210   3.6628610  58.9969610  49.4494040   3.4633820  58.5327200
  42.8146940   4.4547980  59.5846800  41.9831820   4.1996690  59.9843310
  43.4227920   4.5258750  60.3204720  52.8188540   8.5488360  57.4870170
  52.3570070   7.7775600  57.8157340  53.6314090   8.5754430  57.9922620
  42.7948200   8.4888070  59.7804820  43.0976240   7.5985810  59.6015040
  43.5391790   9.0458290  59.5527070  49.0451850  10.8346370  57.1074160
  48.4263290  11.2903870  56.5368600  49.9003630  10.9897830  56.7063860
  48.2390100   6.8185360  58.7141200  48.1698380   5.8775300  58.5530330
  49.0009960   6.9086770  59.2863770  49.9115200   5.7185610  54.5006070
  49.2932470   6.1835060  53.9368790  50.4238450   6.4113090  54.9175580
  44.7746960   5.2461480  61.1789670  44.4416340   5.8730400  61.8210740
  44.9513640   5.7723360  60.3991340  43.9866060   7.2142280  62.9938850
  44.6040060   7.8893360  62.7123300  43.1259180   7.6230260  62.9026350
  39.2798400   6.4042140  51.8745700  38.9026380   6.8929240  51.1430600
  39.5371470   7.0767420  52.5052230  54.9043650   8.6781690  60.9093490
  54.2207170   9.3480800  60.9010160  55.4437940   8.8762340  60.1438350
  52.4402390  10.5225820  59.6238670  52.4529550  10.1188110  58.7560930
  51.8877610  11.2973110  59.5200100  53.7347810   7.2442040  54.7128840
  53.6244140   6.3016370  54.8378260  53.7316060   7.6057680  55.5991600
  51.8387830   5.4255660  60.9521280  52.2556620   5.2115770  60.1174740
  52.5627650   5.6828450  61.5229900  49.2768090   2.8707360  54.0691330
  48.3497370   2.8044740  54.2979800  49.4292910   3.8087490  53.9546570
  55.7849930   3.8242880  61.0437520  54.9568560   3.8935970  60.5687650
  56.3800410   4.4097190  60.5753350  53.3065380   4.4327660  54.5726580
  52.6877800   4.0947210  53.9252880  53.2889830   3.7887420  55.2805770
  44.8824730   3.3972100  56.8511060  44.4781730   2.6849350  56.3556960
  44.9687850   3.0525340  57.7399100  45.3506430   7.0839660  59.0150270
  45.0534720   6.4785130  58.3358050  46.3006250   7.1216970  58.9039630
  53.4392040  10.6571530  62.6773370  52.9622600  11.4643720  62.4845980
  52.7553830  10.0049860  62.8299580  44.4424860   6.8221350  65.6658070
  43.5453390   7.0461320  65.9131470  44.4677730   6.9456290  64.7169470
  51.4830080   3.6714470  51.5799330  51.9223360   2.8336900  51.4337150
  52.1958500   4.3043870  51.6663470  43.2696080   3.6934670  64.2415440
  43.1303850   4.5657470  64.6102840  42.3877440   3.3507480  64.0963380
  49.5925460   8.6110540  55.5480570  50.0321370   9.3534870  55.1335960
  49.5312350   8.8537110  56.4719530  45.0676430   9.6356370  66.4500590
  45.0391860  10.0399320  65.5829020  44.9041400   8.7066730  66.2872190
  41.5829360   2.2917080  54.3517710  41.4626960   3.0179170  53.7398980
  41.2730250   1.5219990  53.8745620  57.0191250  10.4183470  67.7464760
  57.4950970  10.8966360  68.4253840  57.6398410  10.3500960  67.0210260
  39.2214730   5.4632220  60.1586350  39.2995150   5.5980990  59.2142070
  39.8356410   4.7548110  60.3514470  40.4662360   7.1632410  56.5692530
  40.0590440   7.3047000  55.7146130  41.3575370   6.8792570  56.3663740
  56.4224500   7.6096320  64.9064770  56.5487560   7.3708200  63.9881950
  56.4645880   6.7780860  65.3786850  50.2841240  11.3124320  63.4759580
  50.7985910  11.2232330  64.2782010  49.4410320  11.6584020  63.7687490
  52.2595640  11.5979660  52.9043580  52.0996780  11.3082600  53.8025410
  52.0942350  10.8219790  52.3688810  44.7384020  11.3778190  54.6815200
  44.5626500  10.4613730  54.4683000  43.8839760  11.7365480  54.9213000
  51.9621770   9.1067220  51.4641580  51.2686930   9.1044510  50.8043860
  52.7044630   8.6826540  51.0335750  51.5271700  10.7329930  55.5390070
  51.9828650   9.9519310  55.8528690  51.8664220  11.4436750  56.0831250
  39.2774250   6.5046390  62.6980810  39.4405290   6.0351750  61.8800180
  39.7426700   5.9969950  63.3629650  45.7744050   1.9785800  50.9809890
  45.2060950   1.5304050  50.3545800  46.4833050   2.3378580  50.4475040
  40.8513230   5.8797820  64.8576620  40.4668020   5.2391490  65.4559580
  41.1625420   6.5833940  65.4271350  47.0010370   2.7274360  60.3385240
  47.3680500   2.2532930  61.0846580  46.8115430   3.6015930  60.6793580
  44.7909740   1.7683000  62.6569450  44.4866810   2.6474980  62.8819810
  45.7456200   1.8282790  62.6926890  43.3191530   5.9743990  53.2536300
  42.5453790   5.4341610  53.0935020  44.0486160   5.4550600  52.9154060
  54.0779510   4.9709350  59.0462690  54.7978630   5.4664640  58.6558800
  53.8761330   4.2927240  58.4016560  49.4598310   5.0418410  64.9331690
  49.3935620   4.1214080  64.6789280  48.8303450   5.1393850  65.6476330
  43.3628930   5.6424370  56.8915110  43.8807600   4.8392630  56.8372000
  42.9112950   5.5803510  57.7331940  48.2498430   6.9090650  52.1642410
  48.5914130   7.6532880  51.6685730  47.4211140   7.2221770  52.5267240
  40.8473470   2.6085740  63.8040810  40.4888410   3.2739590  64.3914150
  40.5528030   1.7769290  64.1753430  44.0486590   3.0669980  66.6880360
  43.7486730   3.2127160  65.7908180  44.8197830   2.5075270  66.5953750
  49.3915040   7.8638980  64.6835490  49.4059580   6.9319940  64.4654400
  48.6840140   7.9498740  65.3225260  54.5252110   2.0478800  50.9534100
  54.4415830   2.4793020  50.1030540  55.2446300   2.5077150  51.3860920
  55.6026250   4.5046320  64.0304070  54.8774440   5.0975100  63.8333460
  56.1301710   4.4969860  63.2317440  55.5539360   8.9021060  53.6816230
  54.9115520   8.2476680  53.9559950  55.1670020   9.3076150  52.9056900
  51.1325840   6.2306490  57.5287920  51.4849660   5.6334620  56.8689290
  50.2488170   5.9050720  57.6996170  47.2189120   6.9904180  54.9358330
  47.9060250   7.5373390  55.3165920  46.4321540   7.5344910  54.9707940
  39.3581520   2.6077000  50.4275410  40.2276370   2.8901800  50.7111330
  38.8671840   3.4212870  50.3124220  46.5216330   3.9950210  54.5483690
  46.9779110   4.8055460  54.7743880  46.1704540   3.6773350  55.3802180
  48.8248940   9.5056550  61.7775990  49.4691160   9.7115930  62.4549410
  49.1878380   8.7444950  61.3246840  50.0981020   7.5088900  60.4953440
  50.7403250   6.8082060  60.6085610  50.6230370   8.2887340  60.3150330
  53.9436740   7.7937520  50.2192580  53.7174320   7.0767960  50.8117220
  53.5532940   7.5449960  49.3814330  51.8718640   8.3083800  63.6989500
  52.2074880   8.8950490  64.3767420  50.9518980   8.1776510  63.9287290
  39.7252770  11.8204380  50.9937040  40.0850410  12.4193720  50.3394310
  39.5845110  12.3664270  51.7672070  53.5252990   5.7109460  51.8806740
  53.2374690   6.1722150  52.6684620  54.3205160   5.2507230  52.1490960
  39.7094630  10.0859240  65.4679440  39.8185750   9.1453980  65.3274830
  39.0575190  10.3513990  64.8193170  47.7007220   8.3575130  66.8677560
  47.3804090   7.6384370  67.4123250  47.0265580   9.0330200  66.9413620
  45.7421390   9.2035580  51.8110710  45.7331490   9.9365270  51.1955220
  44.8219750   8.9567160  51.9037670  41.3428030   4.4250470  52.5557470
  40.7355980   5.1649370  52.5652770  41.8177380   4.5149830  51.7295670
  48.7280990   9.2663820  50.4735900  48.8292970   9.0627810  49.5437880
  47.8282730   9.0122100  50.6783680  47.3699100  11.7850140  55.1683570
  47.6240600  11.7471530  54.2462940  46.4211580  11.6583470  55.1611820
  53.3751680   2.7042020  56.7442080  52.4341820   2.7192250  56.9189770
  53.6895750   1.9177980  57.1902380  43.3533320   4.3861620  50.3046040
  44.1196590   4.2742980  50.8671470  43.4308010   3.6899590  49.6522810
  55.3777260   9.8750870  58.4196340  55.5024680  10.6982040  58.8920150
  56.2442820   9.6641600  58.0720490  42.8494790  11.9682080  58.0913470
  43.5857270  11.4197540  58.3622040  43.2335710  12.8338090  57.9519460
  39.7340270   8.0355650  53.9654980  38.8080050   8.2776790  53.9560390
  40.1996700   8.8629910  53.8439730  41.8553070  11.1528150  67.2799050
  42.6565800  11.4740200  67.6934450  41.3404890  10.7923730  68.0018960
  45.9597100  11.1412390  49.9139040  46.7525710  11.4301220  49.4620830
  45.4401450  10.7104560  49.2351520  50.6917700   7.2608020  67.2274460
  50.0855860   7.2839620  66.4870210  50.3871810   6.5291060  67.7641710
  52.1218070  10.9888310  65.8383870  53.0739820  10.9046330  65.7884110
  51.9746290  11.6530020  66.5117660  55.0127270  10.3682520  51.3375780
  54.7268780   9.9547660  50.5229960  54.8146820  11.2970230  51.2176300
  39.5750880   3.6401610  66.2235100  40.0789900   3.0608890  66.7951330
  38.8358300   3.9241840  66.7611470  46.4774500   6.3615800  49.7781390
  46.3725140   5.7468150  50.5042770  46.3098720   5.8381690  48.9944400
  46.6288820   5.0472600  65.7570620  45.8634490   5.6157600  65.6725290
  46.8104780   4.7548810  64.8638850  49.7177230   5.4235830  50.3823380
  49.1687330   5.8705130  51.0266120  50.3396490   4.9185080  50.9061050
  53.7712170   6.7777930  66.3145640  54.5121640   7.1153690  65.8113100
  53.0084850   6.9469990  65.7615410  41.6073960   1.7831200  67.1185170
  41.6479300   1.4845070  68.0270400  42.4619460   2.1838810  66.9592690
  45.3852350   4.3826750  52.2788680  45.8068770   4.2166620  53.1220070
  45.5103190   3.5726980  51.7843820  47.8979990   3.4064360  49.5265780
  48.4185650   2.6913380  49.1606930  48.5448390   4.0450230  49.8266290
  52.4457830   4.8292760  64.8500850  52.8598850   4.9837840  65.6991270
  51.5108830   4.9547980  65.0126630  52.9180000   2.1688920  66.8540000
  53.5000770   1.4141240  66.7660480  53.0941770   2.6996360  66.0771480
  47.2073060   4.7813240  62.8196780  47.6261170   5.6245970  62.6473020
  46.2881690   4.9185280  62.5903560  49.5436960   2.5129420  64.2034620
  49.6633170   1.9170560  64.9429460  50.4030960   2.5499110  63.7835920
  51.8824860   3.0666610  62.7797130  51.3560080   3.5909230  62.1762270
  52.2256200   3.6994000  63.4106860  45.0580480  11.0866250  63.9354510
  44.5201570  11.8112310  63.6163210  45.3114440  10.6096590  63.1451850
  47.9142690  12.3217460  64.1941160  47.8401390  13.2252600  64.5013530
  47.0121530  12.0029360  64.1663230  48.4628020  11.4875970  51.8167520
  49.3578810  11.8260940  51.8386280  48.4945650  10.7655380  51.1891800
  42.1024180   6.8603020  50.0454520  42.5399050   7.4032690  50.7012100
  42.5871910   6.0349970  50.0550860  39.3169980   9.6492050  57.4974780
  39.6472990   8.7813110  57.2653420  39.7460980   9.8550570  58.3279740
  43.9131900   7.9801060  55.1576750  43.6127440   7.8566030  56.0580660
  43.8069390   7.1209650  54.7492480  39.8060190  10.5162640  60.2356410
  39.3691180  10.6963440  61.0680560  40.3737870  11.2737260  60.0938130
  55.4422370  10.0179640  64.5233720  54.8424360  10.0772200  63.7797640
  55.5716270   9.0784620  64.6530570  56.6823820   7.7597460  49.8603430
  55.8516780   7.8274110  50.3310660  56.8595650   8.6501580  49.5570290
  56.1380280   4.5044940  52.3637630  56.8999190   5.0741590  52.4697320
  56.1534650   3.9372140  53.1345940  39.6384620   3.0282870  56.5945290
  38.9833460   2.7594510  55.9504990  40.4762570   2.9187350  56.1447270
  57.1440250   5.3595040  57.2079560  57.5149080   4.5762360  56.8015530
  57.7842180   6.0484140  57.0296860  54.1274010   6.7431620  62.6209880
  53.3133850   7.1728780  62.8835670  54.5348210   7.3550030  62.0078930
  56.1899450   4.7979310  49.5210150  56.4648290   5.7058190  49.3929370
  56.0010190   4.7341840  50.4572140  56.0864790   2.7348300  54.5139580
  55.7108390   1.9676230  54.0820870  55.3567910   3.1171000  55.0014510
  40.6760550   3.4135440  61.1348630  41.0433590   3.3262840  62.0144650
  40.1071370   2.6501990  61.0355490  55.4764410   1.8819820  64.1479100
  55.2450500   1.6532570  63.2477050  55.7368960   2.8019370  64.1023990
  54.1850060  11.4950220  56.1478150  54.7809130  11.1734790  55.4712570
  54.4428210  11.0222040  56.9391420  42.0912630   7.9268130  66.2968780
  42.0482260   7.5561040  67.1783240  42.2223640   8.8645700  66.4370600
  45.7918660   9.4827720  61.8978500  45.5510020   9.7502280  61.0109020
  46.7321300   9.6533450  61.9529360  57.0522820  11.5022100  62.6989140
  56.5581100  11.8990970  61.9816270  56.4436110  10.8771310  63.0926420
  41.9300660  10.8730380  63.4166560  41.3360980  10.7415080  64.1556600
  41.9224500  10.0368520  62.9508660  54.7362270  12.1445520  59.9775880
  54.2765240  12.8961330  59.6033900  54.1074730  11.4251990  59.9190680
  41.5612890   8.2388760  62.3674600  40.8346950   7.6194050  62.3000550
  41.6222040   8.6329370  61.4972680  45.1657990  10.4533760  59.1524010
  45.6823010   9.8421120  58.6272270  45.8155370  10.9562540  59.6435020
  47.9053490  11.3442250  59.9792990  48.1931300  11.0896550  59.1026000
  48.4176710  10.7919610  60.5698560  39.8442890  11.5563150  55.5771360
  39.6764930  10.9233830  56.2753250  38.9777400  11.7622550  55.2265550
  41.4505590  10.2496380  53.0221500  40.9253210  10.6304410  52.3183460
  41.3750170  10.8747150  53.7431210  47.9725850  12.2658350  67.3461190
  48.8993160  12.0302620  67.3897150  47.9576280  13.0930350  66.8647220
  56.2070910  11.8083920  54.3435440  56.3823100  11.1221660  53.6996360
  55.5092480  12.3330970  53.9512110  44.0498560  12.1978760  51.8970750
  44.7817380  11.9138040  51.3494640  44.3092230  11.9592040  52.7870130
  43.2113350   8.3143490  51.9017080  42.5822230   8.7828590  52.4502910
  43.3261180   7.4692710  52.3363270  54.5403410  11.4928210  67.1702230
  55.3328730  10.9977440  66.9628190  54.8336560  12.1718350  67.7777840
  50.6663070   2.3649150  38.0518280  50.5857120   1.4503760  37.7809990
  50.2527490   2.8616220  37.3457990  48.7981110   4.1428170  39.9327550
  48.0223210   3.6628610  40.2226120  49.4494040   3.4633820  39.7583710
  42.8146940   4.4547980  40.8103310  41.9831820   4.1996690  41.2099820
  43.4227920   4.5258750  41.5461230  52.8188540   8.5488360  38.7126680
  52.3570070   7.7775600  39.0413850  53.6314090   8.5754430  39.2179130
  42.7948200   8.4888070  41.0061330  43.0976240   7.5985810  40.8271550
  43.5391790   9.0458290  40.7783580  49.0451850  10.8346370  38.3330670
  48.4263290  11.2903870  37.7625110  49.9003630  10.9897830  37.9320370
  48.2390100   6.8185360  39.9397710  48.1698380   5.8775300  39.7786840
  49.0009960   6.9086770  40.5120280  49.9115200   5.7185610  35.7262580
  49.2932470   6.1835060  35.1625300  50.4238450   6.4113090  36.1432090
  44.7746960   5.2461480  42.4046180  44.4416340   5.8730400  43.0467250
  44.9513640   5.7723360  41.6247850  43.9866060   7.2142280  44.2195360
  44.6040060   7.8893360  43.9379810  43.1259180   7.6230260  44.1282860
  39.2798400   6.4042140  33.1002210  38.9026380   6.8929240  32.3687110
  39.5371470   7.0767420  33.7308740  54.9043650   8.6781690  42.1350000
  54.2207170   9.3480800  42.1266670  55.4437940   8.8762340  41.3694860
  52.4402390  10.5225820  40.8495180  52.4529550  10.1188110  39.9817440
  51.8877610  11.2973110  40.7456610  53.7347810   7.2442040  35.9385350
  53.6244140   6.3016370  36.0634770  53.7316060   7.6057680  36.8248110
  51.8387830   5.4255660  42.1777790  52.2556620   5.2115770  41.3431250
  52.5627650   5.6828450  42.7486410  49.2768090   2.8707360  35.2947840
  48.3497370   2.8044740  35.5236310  49.4292910   3.8087490  35.1803080
  55.7849930   3.8242880  42.2694030  54.9568560   3.8935970  41.7944160
  56.3800410   4.4097190  41.8009860  53.3065380   4.4327660  35.7983090
  52.6877800   4.0947210  35.1509390  53.2889830   3.7887420  36.5062280
  44.8824730   3.3972100  38.0767570  44.4781730   2.6849350  37.5813470
  44.9687850   3.0525340  38.9655610  45.3506430   7.0839660  40.2406780
  45.0534720   6.4785130  39.5614560  46.3006250   7.1216970  40.1296140
  53.4392040  10.6571530  43.9029880  52.9622600  11.4643720  43.7102490
  52.7553830  10.0049860  44.0556090  44.4424860   6.8221350  46.8914580
  43.5453390   7.0461320  47.1387980  44.4677730   6.9456290  45.9425980
  51.4830080   3.6714470  32.8055840  51.9223360   2.8336900  32.6593660
  52.1958500   4.3043870  32.8919980  43.2696080   3.6934670  45.4671950
  43.1303850   4.5657470  45.8359350  42.3877440   3.3507480  45.3219890
  49.5925460   8.6110540  36.7737080  50.0321370   9.3534870  36.3592470
  49.5312350   8.8537110  37.6976040  45.0676430   9.6356370  47.6757100
  45.0391860  10.0399320  46.8085530  44.9041400   8.7066730  47.5128700
  41.5829360   2.2917080  35.5774220  41.4626960   3.0179170  34.9655490
  41.2730250   1.5219990  35.1002130  57.0191250  10.4183470  48.9721270
  57.4950970  10.8966360  49.6510350  57.6398410  10.3500960  48.2466770
  39.2214730   5.4632220  41.3842860  39.2995150   5.5980990  40.4398580
  39.8356410   4.7548110  41.5770980  40.4662360   7.1632410  37.7949040
  40.0590440   7.3047000  36.9402640  41.3575370   6.8792570  37.5920250
  56.4224500   7.6096320  46.1321280  56.5487560   7.3708200  45.2138460
  56.4645880   6.7780860  46.6043360  50.2841240  11.3124320  44.7016090
  50.7985910  11.2232330  45.5038520  49.4410320  11.6584020  44.9944000
  52.2595640  11.5979660  34.1300090  52.0996780  11.3082600  35.0281920
  52.0942350  10.8219790  33.5945320  44.7384020  11.3778190  35.9071710
  44.5626500  10.4613730  35.6939510  43.8839760  11.7365480  36.1469510
  51.9621770   9.1067220  32.6898090  51.2686930   9.1044510  32.0300370
  52.7044630   8.6826540  32.2592260  51.5271700  10.7329930  36.7646580
  51.9828650   9.9519310  37.0785200  51.8664220  11.4436750  37.3087760
  39.2774250   6.5046390  43.9237320  39.4405290   6.0351750  43.1056690
  39.7426700   5.9969950  44.5886160  45.7744050   1.9785800  32.2066400
  45.2060950   1.5304050  31.5802310  46.4833050   2.3378580  31.6731550
  40.8513230   5.8797820  46.0833130  40.4668020   5.2391490  46.6816090
  41.1625420   6.5833940  46.6527860  47.0010370   2.7274360  41.5641750
  47.3680500   2.2532930  42.3103090  46.8115430   3.6015930  41.9050090
  44.7909740   1.7683000  43.8825960  44.4866810   2.6474980  44.1076320
  45.7456200   1.8282790  43.9183400  43.3191530   5.9743990  34.4792810
  42.5453790   5.4341610  34.3191530  44.0486160   5.4550600  34.1410570
  54.0779510   4.9709350  40.2719200  54.7978630   5.4664640  39.8815310
  53.8761330   4.2927240  39.6273070  49.4598310   5.0418410  46.1588200
  49.3935620   4.1214080  45.9045790  48.8303450   5.1393850  46.8732840
  43.3628930   5.6424370  38.1171620  43.8807600   4.8392630  38.0628510
  42.9112950   5.5803510  38.9588450  48.2498430   6.9090650  33.3898920
  48.5914130   7.6532880  32.8942240  47.4211140   7.2221770  33.7523750
  40.8473470   2.6085740  45.0297320  40.4888410   3.2739590  45.6170660
  40.5528030   1.7769290  45.4009940  44.0486590   3.0669980  47.9136870
  43.7486730   3.2127160  47.0164690  44.8197830   2.5075270  47.8210260
  49.3915040   7.8638980  45.9092000  49.4059580   6.9319940  45.6910910
  48.6840140   7.9498740  46.5481770  54.5252110   2.0478800  32.1790610
  54.4415830   2.4793020  31.3287050  55.2446300   2.5077150  32.6117430
  55.6026250   4.5046320  45.2560580  54.8774440   5.0975100  45.0589970
  56.1301710   4.4969860  44.4573950  55.5539360   8.9021060  34.9072740
  54.9115520   8.2476680  35.1816460  55.1670020   9.3076150  34.1313410
  51.1325840   6.2306490  38.7544430  51.4849660   5.6334620  38.0945800
  50.2488170   5.9050720  38.9252680  47.2189120   6.9904180  36.1614840
  47.9060250   7.5373390  36.5422430  46.4321540   7.5344910  36.1964450
  39.3581520   2.6077000  31.6531920  40.2276370   2.8901800  31.9367840
  38.8671840   3.4212870  31.5380730  46.5216330   3.9950210  35.7740200
  46.9779110   4.8055460  36.0000390  46.1704540   3.6773350  36.6058690
  48.8248940   9.5056550  43.0032500  49.4691160   9.7115930  43.6805920
  49.1878380   8.7444950  42.5503350  50.0981020   7.5088900  41.7209950
  50.7403250   6.8082060  41.8342120  50.6230370   8.2887340  41.5406840
  53.9436740   7.7937520  31.4449090  53.7174320   7.0767960  32.0373730
  53.5532940   7.5449960  30.6070840  51.8718640   8.3083800  44.9246010
  52.2074880   8.8950490  45.6023930  50.9518980   8.1776510  45.1543800
  39.7252770  11.8204380  32.2193550  40.0850410  12.4193720  31.5650820
  39.5845110  12.3664270  32.9928580  53.5252990   5.7109460  33.1063250
  53.2374690   6.1722150  33.8941130  54.3205160   5.2507230  33.3747470
  39.7094630  10.0859240  46.6935950  39.8185750   9.1453980  46.5531340
  39.0575190  10.3513990  46.0449680  47.7007220   8.3575130  48.0934070
  47.3804090   7.6384370  48.6379760  47.0265580   9.0330200  48.1670130
  45.7421390   9.2035580  33.0367220  45.7331490   9.9365270  32.4211730
  44.8219750   8.9567160  33.1294180  41.3428030   4.4250470  33.7813980
  40.7355980   5.1649370  33.7909280  41.8177380   4.5149830  32.9552180
  48.7280990   9.2663820  31.6992410  48.8292970   9.0627810  30.7694390
  47.8282730   9.0122100  31.9040190  47.3699100  11.7850140  36.3940080
  47.6240600  11.7471530  35.4719450  46.4211580  11.6583470  36.3868330
  53.3751680   2.7042020  37.9698590  52.4341820   2.7192250  38.1446280
  53.6895750   1.9177980  38.4158890  43.3533320   4.3861620  31.5302550
  44.1196590   4.2742980  32.0927980  43.4308010   3.6899590  30.8779320
  55.3777260   9.8750870  39.6452850  55.5024680  10.6982040  40.1176660
  56.2442820   9.6641600  39.2977000  42.8494790  11.9682080  39.3169980
  43.5857270  11.4197540  39.5878550  43.2335710  12.8338090  39.1775970
  39.7340270   8.0355650  35.1911490  38.8080050   8.2776790  35.1816900
  40.1996700   8.8629910  35.0696240  41.8553070  11.1528150  48.5055560
  42.6565800  11.4740200  48.9190960  41.3404890  10.7923730  49.2275470
  45.9597100  11.1412390  31.1395550  46.7525710  11.4301220  30.6877340
  45.4401450  10.7104560  30.4608030  50.6917700   7.2608020  48.4530970
  50.0855860   7.2839620  47.7126720  50.3871810   6.5291060  48.9898220
  52.1218070  10.9888310  47.0640380  53.0739820  10.9046330  47.0140620
  51.9746290  11.6530020  47.7374170  55.0127270  10.3682520  32.5632290
  54.7268780   9.9547660  31.7486470  54.8146820  11.2970230  32.4432810
  39.5750880   3.6401610  47.4491610  40.0789900   3.0608890  48.0207840
  38.8358300   3.9241840  47.9867980  46.4774500   6.3615800  31.0037900
  46.3725140   5.7468150  31.7299280  46.3098720   5.8381690  30.2200910
  46.6288820   5.0472600  46.9827130  45.8634490   5.6157600  46.8981800
  46.8104780   4.7548810  46.0895360  49.7177230   5.4235830  31.6079890
  49.1687330   5.8705130  32.2522630  50.3396490   4.9185080  32.1317560
  53.7712170   6.7777930  47.5402150  54.5121640   7.1153690  47.0369610
  53.0084850   6.9469990  46.9871920  41.6073960   1.7831200  48.3441680
  41.6479300   1.4845070  49.2526910  42.4619460   2.1838810  48.1849200
  45.3852350   4.3826750  33.5045190  45.8068770   4.2166620  34.3476580
  45.5103190   3.5726980  33.0100330  47.8979990   3.4064360  30.7522290
  48.4185650   2.6913380  30.3863440  48.5448390   4.0450230  31.0522800
  52.4457830   4.8292760  46.0757360  52.8598850   4.9837840  46.9247780
  51.5108830   4.9547980  46.2383140  52.9180000   2.1688920  48.0796510
  53.5000770   1.4141240  47.9916990  53.0941770   2.6996360  47.3027990
  47.2073060   4.7813240  44.0453290  47.6261170   5.6245970  43.8729530
  46.2881690   4.9185280  43.8160070  49.5436960   2.5129420  45.4291130
  49.6633170   1.9170560  46.1685970  50.4030960   2.5499110  45.0092430
  51.8824860   3.0666610  44.0053640  51.3560080   3.5909230  43.4018780
  52.2256200   3.6994000  44.6363370  45.0580480  11.0866250  45.1611020
  44.5201570  11.8112310  44.8419720  45.3114440  10.6096590  44.3708360
  47.9142690  12.3217460  45.4197670  47.8401390  13.2252600  45.7270040
  47.0121530  12.0029360  45.3919740  48.4628020  11.4875970  33.0424030
  49.3578810  11.8260940  33.0642790  48.4945650  10.7655380  32.4148310
  42.1024180   6.8603020  31.2711030  42.5399050   7.4032690  31.9268610
  42.5871910   6.0349970  31.2807370  39.3169980   9.6492050  38.7231290
  39.6472990   8.7813110  38.4909930  39.7460980   9.8550570  39.5536250
  43.9131900   7.9801060  36.3833260  43.6127440   7.8566030  37.2837170
  43.8069390   7.1209650  35.9748990  39.8060190  10.5162640  41.4612920
  39.3691180  10.6963440  42.2937070  40.3737870  11.2737260  41.3194640
  55.4422370  10.0179640  45.7490230  54.8424360  10.0772200  45.0054150
  55.5716270   9.0784620  45.8787080  56.6823820   7.7597460  31.0859940
  55.8516780   7.8274110  31.5567170  56.8595650   8.6501580  30.7826800
  56.1380280   4.5044940  33.5894140  56.8999190   5.0741590  33.6953830
  56.1534650   3.9372140  34.3602450  39.6384620   3.0282870  37.8201800
  38.9833460   2.7594510  37.1761500  40.4762570   2.9187350  37.3703780
  57.1440250   5.3595040  38.4336070  57.5149080   4.5762360  38.0272040
  57.7842180   6.0484140  38.2553370  54.1274010   6.7431620  43.8466390
  53.3133850   7.1728780  44.1092180  54.5348210   7.3550030  43.2335440
  56.1899450   4.7979310  30.7466660  56.4648290   5.7058190  30.6185880
  56.0010190   4.7341840  31.6828650  56.0864790   2.7348300  35.7396090
  55.7108390   1.9676230  35.3077380  55.3567910   3.1171000  36.2271020
  40.6760550   3.4135440  42.3605140  41.0433590   3.3262840  43.2401160
  40.1071370   2.6501990  42.2612000  55.4764410   1.8819820  45.3735610
  55.2450500   1.6532570  44.4733560  55.7368960   2.8019370  45.3280500
  54.1850060  11.4950220  37.3734660  54.7809130  11.1734790  36.6969080
  54.4428210  11.0222040  38.1647930  42.0912630   7.9268130  47.5225290
  42.0482260   7.5561040  48.4039750  42.2223640   8.8645700  47.6627110
  45.7918660   9.4827720  43.1235010  45.5510020   9.7502280  42.2365530
  46.7321300   9.6533450  43.1785870  57.0522820  11.5022100  43.9245650
  56.5581100  11.8990970  43.2072780  56.4436110  10.8771310  44.3182930
  41.9300660  10.8730380  44.6423070  41.3360980  10.7415080  45.3813110
  41.9224500  10.0368520  44.1765170  54.7362270  12.1445520  41.2032390
  54.2765240  12.8961330  40.8290410  54.1074730  11.4251990  41.1447190
  41.5612890   8.2388760  43.5931110  40.8346950   7.6194050  43.5257060
  41.6222040   8.6329370  42.7229190  45.1657990  10.4533760  40.3780520
  45.6823010   9.8421120  39.8528780  45.8155370  10.9562540  40.8691530
  47.9053490  11.3442250  41.2049500  48.1931300  11.0896550  40.3282510
  48.4176710  10.7919610  41.7955070  39.8442890  11.5563150  36.8027870
  39.6764930  10.9233830  37.5009760  38.9777400  11.7622550  36.4522060
  41.4505590  10.2496380  34.2478010  40.9253210  10.6304410  33.5439970
  41.3750170  10.8747150  34.9687720  47.9725850  12.2658350  48.5717700
  48.8993160  12.0302620  48.6153660  47.9576280  13.0930350  48.0903730
  56.2070910  11.8083920  35.5691950  56.3823100  11.1221660  34.9252870
  55.5092480  12.3330970  35.1768620  44.0498560  12.1978760  33.1227260
  44.7817380  11.9138040  32.5751150  44.3092230  11.9592040  34.0126640
  43.2113350   8.3143490  33.1273590  42.5822230   8.7828590  33.6759420
  43.3261180   7.4692710  33.5619780  54.5403410  11.4928210  48.3958740
  55.3328730  10.9977440  48.1884700  54.8336560  12.1718350  49.0034350
  50.6663070   2.3649150  19.2774790  50.5857120   1.4503760  19.0066500
  50.2527490   2.8616220  18.5714500  48.7981110   4.1428170  21.1584060
  48.0223210   3.6628610  21.4482630  49.4494040   3.4633820  20.9840220
  42.8146940   4.4547980  22.0359820  41.9831820   4.1996690  22.4356330
  43.4227920   4.5258750  22.7717740  52.8188540   8.5488360  19.9383190
  52.3570070   7.7775600  20.2670360  53.6314090   8.5754430  20.4435640
  42.7948200   8.4888070  22.2317840  43.0976240   7.5985810  22.0528060
  43.5391790   9.0458290  22.0040090  49.0451850  10.8346370  19.5587180
  48.4263290  11.2903870  18.9881620  49.9003630  10.9897830  19.1576880
  48.2390100   6.8185360  21.1654220  48.1698380   5.8775300  21.0043350
  49.0009960   6.9086770  21.7376790  49.9115200   5.7185610  16.9519090
  49.2932470   6.1835060  16.3881810  50.4238450   6.4113090  17.3688600
  44.7746960   5.2461480  23.6302690  44.4416340   5.8730400  24.2723760
  44.9513640   5.7723360  22.8504360  43.9866060   7.2142280  25.4451870
  44.6040060   7.8893360  25.1636320  43.1259180   7.6230260  25.3539370
  39.2798400   6.4042140  14.3258720  38.9026380   6.8929240  13.5943620
  39.5371470   7.0767420  14.9565250  54.9043650   8.6781690  23.3606510
  54.2207170   9.3480800  23.3523180  55.4437940   8.8762340  22.5951370
  52.4402390  10.5225820  22.0751690  52.4529550  10.1188110  21.2073950
  51.8877610  11.2973110  21.9713120  53.7347810   7.2442040  17.1641860
  53.6244140   6.3016370  17.2891280  53.7316060   7.6057680  18.0504620
  51.8387830   5.4255660  23.4034300  52.2556620   5.2115770  22.5687760
  52.5627650   5.6828450  23.9742920  49.2768090   2.8707360  16.5204350
  48.3497370   2.8044740  16.7492820  49.4292910   3.8087490  16.4059590
  55.7849930   3.8242880  23.4950540  54.9568560   3.8935970  23.0200670
  56.3800410   4.4097190  23.0266370  53.3065380   4.4327660  17.0239600
  52.6877800   4.0947210  16.3765900  53.2889830   3.7887420  17.7318790
  44.8824730   3.3972100  19.3024080  44.4781730   2.6849350  18.8069980
  44.9687850   3.0525340  20.1912120  45.3506430   7.0839660  21.4663290
  45.0534720   6.4785130  20.7871070  46.3006250   7.1216970  21.3552650
  53.4392040  10.6571530  25.1286390  52.9622600  11.4643720  24.9359000
  52.7553830  10.0049860  25.2812600  44.4424860   6.8221350  28.1171090
  43.5453390   7.0461320  28.3644490  44.4677730   6.9456290  27.1682490
  51.4830080   3.6714470  14.0312350  51.9223360   2.8336900  13.8850170
  52.1958500   4.3043870  14.1176490  43.2696080   3.6934670  26.6928460
  43.1303850   4.5657470  27.0615860  42.3877440   3.3507480  26.5476400
  49.5925460   8.6110540  17.9993590  50.0321370   9.3534870  17.5848980
  49.5312350   8.8537110  18.9232550  45.0676430   9.6356370  28.9013610
  45.0391860  10.0399320  28.0342040  44.9041400   8.7066730  28.7385210
  41.5829360   2.2917080  16.8030730  41.4626960   3.0179170  16.1912000
  41.2730250   1.5219990  16.3258640  57.0191250  10.4183470  30.1977780
  57.4950970  10.8966360  30.8766860  57.6398410  10.3500960  29.4723280
  39.2214730   5.4632220  22.6099370  39.2995150   5.5980990  21.6655090
  39.8356410   4.7548110  22.8027490  40.4662360   7.1632410  19.0205550
  40.0590440   7.3047000  18.1659150  41.3575370   6.8792570  18.8176760
  56.4224500   7.6096320  27.3577790  56.5487560   7.3708200  26.4394970
  56.4645880   6.7780860  27.8299870  50.2841240  11.3124320  25.9272600
  50.7985910  11.2232330  26.7295030  49.4410320  11.6584020  26.2200510
  52.2595640  11.5979660  15.3556600  52.0996780  11.3082600  16.2538430
  52.0942350  10.8219790  14.8201830  44.7384020  11.3778190  17.1328220
  44.5626500  10.4613730  16.9196020  43.8839760  11.7365480  17.3726020
  51.9621770   9.1067220  13.9154600  51.2686930   9.1044510  13.2556880
  52.7044630   8.6826540  13.4848770  51.5271700  10.7329930  17.9903090
  51.9828650   9.9519310  18.3041710  51.8664220  11.4436750  18.5344270
  39.2774250   6.5046390  25.1493830  39.4405290   6.0351750  24.3313200
  39.7426700   5.9969950  25.8142670  45.7744050   1.9785800  13.4322910
  45.2060950   1.5304050  12.8058820  46.4833050   2.3378580  12.8988060
  40.8513230   5.8797820  27.3089640  40.4668020   5.2391490  27.9072600
  41.1625420   6.5833940  27.8784370  47.0010370   2.7274360  22.7898260
  47.3680500   2.2532930  23.5359600  46.8115430   3.6015930  23.1306600
  44.7909740   1.7683000  25.1082470  44.4866810   2.6474980  25.3332830
  45.7456200   1.8282790  25.1439910  43.3191530   5.9743990  15.7049320
  42.5453790   5.4341610  15.5448040  44.0486160   5.4550600  15.3667080
  54.0779510   4.9709350  21.4975710  54.7978630   5.4664640  21.1071820
  53.8761330   4.2927240  20.8529580  49.4598310   5.0418410  27.3844710
  49.3935620   4.1214080  27.1302300  48.8303450   5.1393850  28.0989350
  43.3628930   5.6424370  19.3428130  43.8807600   4.8392630  19.2885020
  42.9112950   5.5803510  20.1844960  48.2498430   6.9090650  14.6155430
  48.5914130   7.6532880  14.1198750  47.4211140   7.2221770  14.9780260
  40.8473470   2.6085740  26.2553830  40.4888410   3.2739590  26.8427170
  40.5528030   1.7769290  26.6266450  44.0486590   3.0669980  29.1393380
  43.7486730   3.2127160  28.2421200  44.8197830   2.5075270  29.0466770
  49.3915040   7.8638980  27.1348510  49.4059580   6.9319940  26.9167420
  48.6840140   7.9498740  27.7738280  54.5252110   2.0478800  13.4047120
  54.4415830   2.4793020  12.5543560  55.2446300   2.5077150  13.8373940
  55.6026250   4.5046320  26.4817090  54.8774440   5.0975100  26.2846480
  56.1301710   4.4969860  25.6830460  55.5539360   8.9021060  16.1329250
  54.9115520   8.2476680  16.4072970  55.1670020   9.3076150  15.3569920
  51.1325840   6.2306490  19.9800940  51.4849660   5.6334620  19.3202310
  50.2488170   5.9050720  20.1509190  47.2189120   6.9904180  17.3871350
  47.9060250   7.5373390  17.7678940  46.4321540   7.5344910  17.4220960
  39.3581520   2.6077000  12.8788430  40.2276370   2.8901800  13.1624350
  38.8671840   3.4212870  12.7637240  46.5216330   3.9950210  16.9996710
  46.9779110   4.8055460  17.2256900  46.1704540   3.6773350  17.8315200
  48.8248940   9.5056550  24.2289010  49.4691160   9.7115930  24.9062430
  49.1878380   8.7444950  23.7759860  50.0981020   7.5088900  22.9466460
  50.7403250   6.8082060  23.0598630  50.6230370   8.2887340  22.7663350
  53.9436740   7.7937520  12.6705600  53.7174320   7.0767960  13.2630240
  53.5532940   7.5449960  11.8327350  51.8718640   8.3083800  26.1502520
  52.2074880   8.8950490  26.8280440  50.9518980   8.1776510  26.3800310
  39.7252770  11.8204380  13.4450060  40.0850410  12.4193720  12.7907330
  39.5845110  12.3664270  14.2185090  53.5252990   5.7109460  14.3319760
  53.2374690   6.1722150  15.1197640  54.3205160   5.2507230  14.6003980
  39.7094630  10.0859240  27.9192460  39.8185750   9.1453980  27.7787850
  39.0575190  10.3513990  27.2706190  47.7007220   8.3575130  29.3190580
  47.3804090   7.6384370  29.8636270  47.0265580   9.0330200  29.3926640
  45.7421390   9.2035580  14.2623730  45.7331490   9.9365270  13.6468240
  44.8219750   8.9567160  14.3550690  41.3428030   4.4250470  15.0070490
  40.7355980   5.1649370  15.0165790  41.8177380   4.5149830  14.1808690
  48.7280990   9.2663820  12.9248920  48.8292970   9.0627810  11.9950900
  47.8282730   9.0122100  13.1296700  47.3699100  11.7850140  17.6196590
  47.6240600  11.7471530  16.6975960  46.4211580  11.6583470  17.6124840
  53.3751680   2.7042020  19.1955100  52.4341820   2.7192250  19.3702790
  53.6895750   1.9177980  19.6415400  43.3533320   4.3861620  12.7559060
  44.1196590   4.2742980  13.3184490  43.4308010   3.6899590  12.1035830
  55.3777260   9.8750870  20.8709360  55.5024680  10.6982040  21.3433170
  56.2442820   9.6641600  20.5233510  42.8494790  11.9682080  20.5426490
  43.5857270  11.4197540  20.8135060  43.2335710  12.8338090  20.4032480
  39.7340270   8.0355650  16.4168000  38.8080050   8.2776790  16.4073410
  40.1996700   8.8629910  16.2952750  41.8553070  11.1528150  29.7312070
  42.6565800  11.4740200  30.1447470  41.3404890  10.7923730  30.4531980
  45.9597100  11.1412390  12.3652060  46.7525710  11.4301220  11.9133850
  45.4401450  10.7104560  11.6864540  50.6917700   7.2608020  29.6787480
  50.0855860   7.2839620  28.9383230  50.3871810   6.5291060  30.2154730
  52.1218070  10.9888310  28.2896890  53.0739820  10.9046330  28.2397130
  51.9746290  11.6530020  28.9630680  55.0127270  10.3682520  13.7888800
  54.7268780   9.9547660  12.9742980  54.8146820  11.2970230  13.6689320
  39.5750880   3.6401610  28.6748120  40.0789900   3.0608890  29.2464350
  38.8358300   3.9241840  29.2124490  46.4774500   6.3615800  12.2294410
  46.3725140   5.7468150  12.9555790  46.3098720   5.8381690  11.4457420
  46.6288820   5.0472600  28.2083640  45.8634490   5.6157600  28.1238310
  46.8104780   4.7548810  27.3151870  49.7177230   5.4235830  12.8336400
  49.1687330   5.8705130  13.4779140  50.3396490   4.9185080  13.3574070
  53.7712170   6.7777930  28.7658660  54.5121640   7.1153690  28.2626120
  53.0084850   6.9469990  28.2128430  41.6073960   1.7831200  29.5698190
  41.6479300   1.4845070  30.4783420  42.4619460   2.1838810  29.4105710
  45.3852350   4.3826750  14.7301700  45.8068770   4.2166620  15.5733090
  45.5103190   3.5726980  14.2356840  47.8979990   3.4064360  11.9778800
  48.4185650   2.6913380  11.6119950  48.5448390   4.0450230  12.2779310
  52.4457830   4.8292760  27.3013870  52.8598850   4.9837840  28.1504290
  51.5108830   4.9547980  27.4639650  52.9180000   2.1688920  29.3053020
  53.5000770   1.4141240  29.2173500  53.0941770   2.6996360  28.5284500
  47.2073060   4.7813240  25.2709800  47.6261170   5.6245970  25.0986040
  46.2881690   4.9185280  25.0416580  49.5436960   2.5129420  26.6547640
  49.6633170   1.9170560  27.3942480  50.4030960   2.5499110  26.2348940
  51.8824860   3.0666610  25.2310150  51.3560080   3.5909230  24.6275290
  52.2256200   3.6994000  25.8619880  45.0580480  11.0866250  26.3867530
  44.5201570  11.8112310  26.0676230  45.3114440  10.6096590  25.5964870
  47.9142690  12.3217460  26.6454180  47.8401390  13.2252600  26.9526550
  47.0121530  12.0029360  26.6176250  48.4628020  11.4875970  14.2680540
  49.3578810  11.8260940  14.2899300  48.4945650  10.7655380  13.6404820
  42.1024180   6.8603020  12.4967540  42.5399050   7.4032690  13.1525120
  42.5871910   6.0349970  12.5063880  39.3169980   9.6492050  19.9487800
  39.6472990   8.7813110  19.7166440  39.7460980   9.8550570  20.7792760
  43.9131900   7.9801060  17.6089770  43.6127440   7.8566030  18.5093680
  43.8069390   7.1209650  17.2005500  39.8060190  10.5162640  22.6869430
  39.3691180  10.6963440  23.5193580  40.3737870  11.2737260  22.5451150
  55.4422370  10.0179640  26.9746740  54.8424360  10.0772200  26.2310660
  55.5716270   9.0784620  27.1043590  56.6823820   7.7597460  12.3116450
  55.8516780   7.8274110  12.7823680  56.8595650   8.6501580  12.0083310
  56.1380280   4.5044940  14.8150650  56.8999190   5.0741590  14.9210340
  56.1534650   3.9372140  15.5858960  39.6384620   3.0282870  19.0458310
  38.9833460   2.7594510  18.4018010  40.4762570   2.9187350  18.5960290
  57.1440250   5.3595040  19.6592580  57.5149080   4.5762360  19.2528550
  57.7842180   6.0484140  19.4809880  54.1274010   6.7431620  25.0722900
  53.3133850   7.1728780  25.3348690  54.5348210   7.3550030  24.4591950
  56.1899450   4.7979310  11.9723170  56.4648290   5.7058190  11.8442390
  56.0010190   4.7341840  12.9085160  56.0864790   2.7348300  16.9652600
  55.7108390   1.9676230  16.5333890  55.3567910   3.1171000  17.4527530
  40.6760550   3.4135440  23.5861650  41.0433590   3.3262840  24.4657670
  40.1071370   2.6501990  23.4868510  55.4764410   1.8819820  26.5992120
  55.2450500   1.6532570  25.6990070  55.7368960   2.8019370  26.5537010
  54.1850060  11.4950220  18.5991170  54.7809130  11.1734790  17.9225590
  54.4428210  11.0222040  19.3904440  42.0912630   7.9268130  28.7481800
  42.0482260   7.5561040  29.6296260  42.2223640   8.8645700  28.8883620
  45.7918660   9.4827720  24.3491520  45.5510020   9.7502280  23.4622040
  46.7321300   9.6533450  24.4042380  57.0522820  11.5022100  25.1502160
  56.5581100  11.8990970  24.4329290  56.4436110  10.8771310  25.5439440
  41.9300660  10.8730380  25.8679580  41.3360980  10.7415080  26.6069620
  41.9224500  10.0368520  25.4021680  54.7362270  12.1445520  22.4288900
  54.2765240  12.8961330  22.0546920  54.1074730  11.4251990  22.3703700
  41.5612890   8.2388760  24.8187620  40.8346950   7.6194050  24.7513570
  41.6222040   8.6329370  23.9485700  45.1657990  10.4533760  21.6037030
  45.6823010   9.8421120  21.0785290  45.8155370  10.9562540  22.0948040
  47.9053490  11.3442250  22.4306010  48.1931300  11.0896550  21.5539020
  48.4176710  10.7919610  23.0211580  39.8442890  11.5563150  18.0284380
  39.6764930  10.9233830  18.7266270  38.9777400  11.7622550  17.6778570
  41.4505590  10.2496380  15.4734520  40.9253210  10.6304410  14.7696480
  41.3750170  10.8747150  16.1944230  47.9725850  12.2658350  29.7974210
  48.8993160  12.0302620  29.8410170  47.9576280  13.0930350  29.3160240
  56.2070910  11.8083920  16.7948460  56.3823100  11.1221660  16.1509380
  55.5092480  12.3330970  16.4025130  44.0498560  12.1978760  14.3483770
  44.7817380  11.9138040  13.8007660  44.3092230  11.9592040  15.2383150
  43.2113350   8.3143490  14.3530100  42.5822230   8.7828590  14.9015930
  43.3261180   7.4692710  14.7876290  54.5403410  11.4928210  29.6215250
  55.3328730  10.9977440  29.4141210  54.8336560  12.1718350  30.2290860
  48.7981110   4.1428170   2.3840570  48.0223210   3.6628610   2.6739140
  49.4494040   3.4633820   2.2096730  42.8146940   4.4547980   3.2616330
  41.9831820   4.1996690   3.6612840  43.4227920   4.5258750   3.9974250
  42.7948200   8.4888070   3.4574350  43.0976240   7.5985810   3.2784570
  43.5391790   9.0458290   3.2296600  48.2390100   6.8185360   2.3910730
  48.1698380   5.8775300   2.2299860  49.0009960   6.9086770   2.9633300
  44.7746960   5.2461480   4.8559200  44.4416340   5.8730400   5.4980270
  44.9513640   5.7723360   4.0760870  43.9866060   7.2142280   6.6708380
  44.6040060   7.8893360   6.3892830  43.1259180   7.6230260   6.5795880
  54.9043650   8.6781690   4.5863020  54.2207170   9.3480800   4.5779690
  55.4437940   8.8762340   3.8207880  52.4402390  10.5225820   3.3008200
  52.4529550  10.1188110   2.4330460  51.8877610  11.2973110   3.1969630
  51.8387830   5.4255660   4.6290810  52.2556620   5.2115770   3.7944270
  52.5627650   5.6828450   5.1999430  55.7849930   3.8242880   4.7207050
  54.9568560   3.8935970   4.2457180  56.3800410   4.4097190   4.2522880
  45.3506430   7.0839660   2.6919800  45.0534720   6.4785130   2.0127580
  46.3006250   7.1216970   2.5809160  53.4392040  10.6571530   6.3542900
  52.9622600  11.4643720   6.1615510  52.7553830  10.0049860   6.5069110
  44.4424860   6.8221350   9.3427600  43.5453390   7.0461320   9.5901000
  44.4677730   6.9456290   8.3939000  43.2696080   3.6934670   7.9184970
  43.1303850   4.5657470   8.2872370  42.3877440   3.3507480   7.7732910
  45.0676430   9.6356370  10.1270120  45.0391860  10.0399320   9.2598550
  44.9041400   8.7066730   9.9641720  57.0191250  10.4183470  11.4234290
  57.4950970  10.8966360  12.1023370  57.6398410  10.3500960  10.6979790
  39.2214730   5.4632220   3.8355880  39.2995150   5.5980990   2.8911600
  39.8356410   4.7548110   4.0284000  56.4224500   7.6096320   8.5834300
  56.5487560   7.3708200   7.6651480  56.4645880   6.7780860   9.0556380
  50.2841240  11.3124320   7.1529110  50.7985910  11.2232330   7.9551540
  49.4410320  11.6584020   7.4457020  39.2774250   6.5046390   6.3750340
  39.4405290   6.0351750   5.5569710  39.7426700   5.9969950   7.0399180
  40.8513230   5.8797820   8.5346150  40.4668020   5.2391490   9.1329110
  41.1625420   6.5833940   9.1040880  47.0010370   2.7274360   4.0154770
  47.3680500   2.2532930   4.7616110  46.8115430   3.6015930   4.3563110
  44.7909740   1.7683000   6.3338980  44.4866810   2.6474980   6.5589340
  45.7456200   1.8282790   6.3696420  54.0779510   4.9709350   2.7232220
  54.7978630   5.4664640   2.3328330  53.8761330   4.2927240   2.0786090
  49.4598310   5.0418410   8.6101220  49.3935620   4.1214080   8.3558810
  48.8303450   5.1393850   9.3245860  40.8473470   2.6085740   7.4810340
  40.4888410   3.2739590   8.0683680  40.5528030   1.7769290   7.8522960
  44.0486590   3.0669980  10.3649890  43.7486730   3.2127160   9.4677710
  44.8197830   2.5075270  10.2723280  49.3915040   7.8638980   8.3605020
  49.4059580   6.9319940   8.1423930  48.6840140   7.9498740   8.9994790
  55.6026250   4.5046320   7.7073600  54.8774440   5.0975100   7.5102990
  56.1301710   4.4969860   6.9086970  48.8248940   9.5056550   5.4545520
  49.4691160   9.7115930   6.1318940  49.1878380   8.7444950   5.0016370
  50.0981020   7.5088900   4.1722970  50.7403250   6.8082060   4.2855140
  50.6230370   8.2887340   3.9919860  51.8718640   8.3083800   7.3759030
  52.2074880   8.8950490   8.0536950  50.9518980   8.1776510   7.6056820
  39.7094630  10.0859240   9.1448970  39.8185750   9.1453980   9.0044360
  39.0575190  10.3513990   8.4962700  47.7007220   8.3575130  10.5447090
  47.3804090   7.6384370  11.0892780  47.0265580   9.0330200  10.6183150
  55.3777260   9.8750870   2.0965870  55.5024680  10.6982040   2.5689680
  56.2442820   9.6641600   1.7490020  42.8494790  11.9682080   1.7683000
  43.5857270  11.4197540   2.0391570  43.2335710  12.8338090   1.6288990
  41.8553070  11.1528150  10.9568580  42.6565800  11.4740200  11.3703980
  41.3404890  10.7923730  11.6788490  50.6917700   7.2608020  10.9043990
  50.0855860   7.2839620  10.1639740  50.3871810   6.5291060  11.4411240
  52.1218070  10.9888310   9.5153400  53.0739820  10.9046330   9.4653640
  51.9746290  11.6530020  10.1887190  39.5750880   3.6401610   9.9004630
  40.0789900   3.0608890  10.4720860  38.8358300   3.9241840  10.4381000
  46.6288820   5.0472600   9.4340150  45.8634490   5.6157600   9.3494820
  46.8104780   4.7548810   8.5408380  53.7712170   6.7777930   9.9915170
  54.5121640   7.1153690   9.4882630  53.0084850   6.9469990   9.4384940
  41.6073960   1.7831200  10.7954700  41.6479300   1.4845070  11.7039930
  42.4619460   2.1838810  10.6362220  52.4457830   4.8292760   8.5270380
  52.8598850   4.9837840   9.3760800  51.5108830   4.9547980   8.6896160
  52.9180000   2.1688920  10.5309530  53.5000770   1.4141240  10.4430010
  53.0941770   2.6996360   9.7541010  47.2073060   4.7813240   6.4966310
  47.6261170   5.6245970   6.3242550  46.2881690   4.9185280   6.2673090
  49.5436960   2.5129420   7.8804150  49.6633170   1.9170560   8.6198990
  50.4030960   2.5499110   7.4605450  51.8824860   3.0666610   6.4566660
  51.3560080   3.5909230   5.8531800  52.2256200   3.6994000   7.0876390
  45.0580480  11.0866250   7.6124040  44.5201570  11.8112310   7.2932740
  45.3114440  10.6096590   6.8221380  47.9142690  12.3217460   7.8710690
  47.8401390  13.2252600   8.1783060  47.0121530  12.0029360   7.8432760
  39.8060190  10.5162640   3.9125940  39.3691180  10.6963440   4.7450090
  40.3737870  11.2737260   3.7707660  55.4422370  10.0179640   8.2003250
  54.8424360  10.0772200   7.4567170  55.5716270   9.0784620   8.3300100
  54.1274010   6.7431620   6.2979410  53.3133850   7.1728780   6.5605200
  54.5348210   7.3550030   5.6848460  40.6760550   3.4135440   4.8118160
  41.0433590   3.3262840   5.6914180  40.1071370   2.6501990   4.7125020
  55.4764410   1.8819820   7.8248630  55.2450500   1.6532570   6.9246580
  55.7368960   2.8019370   7.7793520  42.0912630   7.9268130   9.9738310
  42.0482260   7.5561040  10.8552770  42.2223640   8.8645700  10.1140130
  45.7918660   9.4827720   5.5748030  45.5510020   9.7502280   4.6878550
  46.7321300   9.6533450   5.6298890  57.0522820  11.5022100   6.3758670
  56.5581100  11.8990970   5.6585800  56.4436110  10.8771310   6.7695950
  41.9300660  10.8730380   7.0936090  41.3360980  10.7415080   7.8326130
  41.9224500  10.0368520   6.6278190  54.7362270  12.1445520   3.6545410
  54.2765240  12.8961330   3.2803430  54.1074730  11.4251990   3.5960210
  41.5612890   8.2388760   6.0444130  40.8346950   7.6194050   5.9770080
  41.6222040   8.6329370   5.1742210  45.1657990  10.4533760   2.8293540
  45.6823010   9.8421120   2.3041800  45.8155370  10.9562540   3.3204550
  47.9053490  11.3442250   3.6562520  48.1931300  11.0896550   2.7795530
  48.4176710  10.7919610   4.2468090  47.9725850  12.2658350  11.0230720
  48.8993160  12.0302620  11.0666680  47.9576280  13.0930350  10.5416750
  54.5403410  11.4928210  10.8471760  55.3328730  10.9977440  10.6397720
  54.8336560  12.1718350  11.4547370  31.8919580 152.5597070 150.6979220
  31.8113630 151.6451680 150.4270930  31.4784000 153.0564140 149.9918930
  30.0237620 154.3376090 152.5788490  29.2479720 153.8576530 152.8687060
  30.6750550 153.6581740 152.4044650  22.4495400 149.6097790 147.2406640
  21.5612100 149.9513760 147.1386520  22.7336590 149.4098110 146.3487470
  20.4128410 152.2103440 153.1246340  20.9844520 151.4425640 153.1249980
  20.4129950 152.5092200 152.2152950  30.4951780 149.8203660 152.8127580
  30.8716600 148.9475540 152.7001250  30.3971290 150.1562360 151.9218020
  24.6256790 148.1929290 148.2745020  24.7323540 149.0933020 148.5813780
  23.7149150 148.1447260 147.9839670  34.2775900 147.3154100 149.7455920
  35.0985520 146.8250670 149.7881400  34.3109980 147.9051760 150.4987760
  34.5137380 149.2554480 152.5183460  33.8092950 149.5439370 153.0986570
  34.8749540 150.0654590 152.1583020  28.1143840 145.0006450 151.2048660
  28.4218820 144.4453340 150.4884160  27.1844540 145.1350910 151.0221650
  30.5024600 153.0655280 147.9408780  29.5753880 152.9992660 148.1697250
  30.6549420 154.0035410 147.8264020  30.4893680 149.3372280 144.9375940
  29.5497350 149.4986240 145.0228400  30.8076940 150.0557960 144.3911930
  34.5321890 154.6275580 148.4444030  33.9134310 154.2895130 147.7970330
  34.5146340 153.9835340 149.1523220  26.1081240 153.5920020 150.7228510
  25.7038240 152.8797270 150.2274410  26.1944360 153.2473260 151.6116550
  32.7086590 153.8662390 145.4516780  33.1479870 153.0284820 145.3054600
  33.4215010 154.4991790 145.5380920  36.2903730 145.1205200 143.7657820
  35.9776390 145.2132030 144.6656890  37.0516200 145.6986230 143.7155250
  22.8085870 152.4865000 148.2235160  22.6883470 153.2127090 147.6116430
  22.4986760 151.7167910 147.7463070  25.2749530 145.8300070 151.6058830
  24.8317680 146.6109610 151.2743350  25.8334520 146.1529960 152.3129770
  28.3908350 145.4510770 146.4864660  27.7662530 145.4470640 147.2117970
  28.3038470 144.5841730 146.0900630  25.0663750 150.9533640 149.3340080
  24.8404670 150.7370810 150.2386700  24.2856280 151.3862100 148.9886050
  32.2961510 150.9597010 147.9330730  31.6970400 151.6832810 147.7494350
  32.8441120 150.8973790 147.1507180  30.9026380 149.5960550 149.9634010
  31.2955950 149.9132750 149.1502700  31.2643230 148.7172430 150.0778530
  19.9390550 146.1861350 152.1864210  19.6503600 146.7564210 152.8989190
  20.6836310 145.7065800 152.5495440  20.1260780 150.1281470 143.3966930
  20.0435450 151.0712230 143.5381920  19.7743840 149.9856380 142.5179280
  27.9258910 148.8620500 152.4637280  27.9294970 148.4210450 151.6141820
  28.8210030 149.1837830 152.5709100  23.7761290 148.7446990 151.4231490
  23.4361340 149.2222220 152.1798540  23.0138610 148.2912110 151.0632590
  27.9879060 149.8632580 145.4544040  28.1091880 149.8219060 146.4029860
  27.6027570 150.7256730 145.2990770  27.0000560 152.1733720 144.8527340
  26.4317460 151.7251970 144.2263250  27.7089560 152.5326500 144.3192490
  21.0907370 147.6665970 150.3396160  20.8054290 147.3021640 151.1774780
  21.0286230 146.9346430 149.7259300  30.7645960 146.5595230 147.0609530
  29.9510570 146.0608400 146.9854840  30.5707910 147.3993480 146.6445880
  33.4794350 150.9314880 145.3571690  34.3673970 151.2432110 145.1823030
  33.4499440 150.0587130 144.9652270  35.7508620 152.2426720 144.8251550
  35.6672340 152.6740940 143.9747990  36.4702810 152.7025070 145.2578370
  20.5838030 152.8024920 144.2992860  21.4532880 153.0849720 144.5828780
  20.0928350 153.6160790 144.1841670  27.7472840 154.1898130 148.4201140
  28.2035620 155.0003380 148.6461330  27.3961050 153.8721270 149.2519630
  23.6484620 144.5335780 148.8923660  23.5199250 144.5253680 149.8408580
  22.8246640 144.8718870 148.5414670  35.5079360 147.7406150 146.9119370
  34.8792520 147.8451820 146.1977600  35.0131280 147.9602930 147.7013250
  27.4763390 150.0192100 148.3277250  26.7679540 150.4878440 148.7690860
  27.7607870 149.3614110 148.9622440  31.5078820 146.7442760 149.7673040
  31.3846600 146.7628890 148.8182550  32.4563380 146.7921700 149.8871440
  25.6798410 148.3277180 145.7027960  26.5288940 148.7647330 145.6368150
  25.3129680 148.6397440 146.5300020  34.6008190 152.8989940 150.6159530
  33.6598330 152.9140170 150.7907220  34.9152260 152.1125900 151.0619830
  24.5789830 154.5809540 144.1763490  25.3453100 154.4690900 144.7388920
  24.6564520 153.8847510 143.5240260  23.2736590 152.0134610 144.8596380
  23.3540180 151.0662120 144.9713780  24.1656340 152.3441490 144.9657040
  26.6108860 154.5774670 146.1506130  27.0325280 154.4114540 146.9937520
  26.7359700 153.7674900 145.6561270  29.1236500 153.6012280 143.3983230
  29.6442160 152.8861300 143.0324380  29.7704900 154.2398150 143.6983740
  25.5067760 150.6507900 143.0964290  25.3056820 149.7875260 143.4577630
  25.3359810 150.5641260 142.1585890  32.9856070 145.4616130 145.6251170
  33.2658360 144.6184030 145.9810590  32.2121800 145.6939240 146.1389920
  24.3050560 147.7508520 143.0842170  24.6076460 147.7575950 142.1761320
  25.0445150 147.4006380 143.5809830  27.5235490 146.6943140 144.0698370
  27.1757490 146.0167130 143.4900820  27.7248260 146.2332650 144.8841760
  20.8641130 153.2230790 150.4662740  20.2089970 152.9542430 149.8222440
  21.7019080 153.1135270 150.0164720  33.8131570 148.0172080 144.6881230
  34.2316450 147.8303060 143.8477890  33.5067630 147.1651130 144.9984160
  37.3121300 152.9296220 148.3857030  36.9364900 152.1624150 147.9538320
  36.5824420 153.3118920 148.8731960  20.0779210 150.4329720 146.4088070
  19.1743290 150.6959920 146.2339730  20.5619830 150.7040890 145.6288030
  36.5872260 151.1553710 151.6864270  37.1109740 150.6616360 151.0554440
  37.1731680 151.2904070 152.4311840  22.6206420 149.4895260 144.3182450
  23.3298120 149.0678480 143.8329730  21.9046360 149.5570490 143.6865800
  22.2680580 145.5434590 143.3585100  22.9908710 146.0843530 143.6766320
  22.5405100 145.2698010 142.4826640  36.0772230 150.4127060 147.6256680
  36.5731350 150.1797930 148.4105560  35.8788300 149.5738900 147.2094320
  37.5059390 149.0488010 150.1594360  37.3958670 148.8944050 151.0976630
  38.2666980 148.5208950 149.9169770  38.3949660 146.8795930 143.4000500
  39.3198970 146.7477110 143.1918790  38.3725450 146.9588750 144.3536950
  38.4688150 147.6506590 146.0257210  37.6739650 147.5851710 146.5550120
  38.6731430 148.5857230 146.0142560  34.9008080 145.9803470 152.4756040
  35.3416170 145.9248570 151.6277640  34.6315670 146.8961480 152.5466220
  36.7646650 145.6118710 150.4864860  36.7035050 144.6679930 150.3395880
  37.5438680 145.7198800 151.0318320  21.6927420 145.5827850 146.9520670
  22.4506780 145.6956730 146.3784700  21.2304590 146.4197050 146.9064100
  28.2341230 147.6967120 149.9422980  27.4215740 147.3224010 149.6018860
  28.7382870 146.9412200 150.2444170  32.7366210 144.3609570 151.1806050
  33.3395580 144.9329780 151.6554570  31.9959200 144.9249010 150.9579950
  35.8800810 144.7631130 146.4546330  36.0751440 145.6614580 146.7213760
  35.0930680 144.5318210 146.9479280  24.0652570 146.1091900 145.4922640
  24.5945330 145.3221700 145.3630590  24.6980890 146.7883090 145.7258170
  26.2590410 145.8467040 148.5468030  25.6293150 145.1454350 148.7138160
  25.7195550 146.6071170 148.3301190  31.8919580 152.5597070 131.9235730
  31.8113630 151.6451680 131.6527440  31.4784000 153.0564140 131.2175440
  30.0237620 154.3376090 133.8045000  29.2479720 153.8576530 134.0943570
  30.6750550 153.6581740 133.6301160  24.0403450 154.6495900 134.6820760
  23.2088330 154.3944610 135.0817270  24.6484430 154.7206670 135.4178680
  22.4495400 149.6097790 128.4663150  21.5612100 149.9513760 128.3643030
  22.7336590 149.4098110 127.5743980  20.4128410 152.2103440 134.3502850
  20.9844520 151.4425640 134.3506490  20.4129950 152.5092200 133.4409460
  21.6553280 147.6187800 136.1371780  21.4756120 146.7213550 136.4174540
  21.2533360 148.1659670 136.8118730  30.4951780 149.8203660 134.0384090
  30.8716600 148.9475540 133.9257760  30.3971290 150.1562360 133.1474530
  24.6256790 148.1929290 129.5001530  24.7323540 149.0933020 129.8070290
  23.7149150 148.1447260 129.2096180  34.2775900 147.3154100 130.9712430
  35.0985520 146.8250670 131.0137910  34.3109980 147.9051760 131.7244270
  22.2739950 150.1148300 134.7454120  22.9550060 150.3786670 135.3641520
  21.9588000 149.2749170 135.0792130  26.4664520 151.1615660 133.8326710
  26.9742740 151.6596630 134.4731730  26.9977760 150.3850860 133.6566070
  38.5675450 149.3320850 137.5356060  37.8627620 149.7202560 137.0171170
  38.8333370 150.0271140 138.1376990  24.7500620 145.8014220 138.0990130
  24.7519060 146.3186610 137.2936030  23.9204930 145.3244400 138.0760060
  34.5137380 149.2554480 133.7439970  33.8092950 149.5439370 134.3243080
  34.8749540 150.0654590 133.3839530  24.4315950 147.5124180 136.1060580
  24.7732760 148.3566230 135.8114450  23.4931760 147.6607920 136.2225920
  37.5824300 148.7009270 134.1349180  36.6349210 148.7348250 134.2664610
  37.9074290 149.5148220 134.5198540  28.1143840 145.0006450 132.4305170
  28.4218820 144.4453340 131.7140670  27.1844540 145.1350910 132.2478160
  30.5024600 153.0655280 129.1665290  29.5753880 152.9992660 129.3953760
  30.6549420 154.0035410 129.0520530  30.4893680 149.3372280 126.1632450
  29.5497350 149.4986240 126.2484910  30.8076940 150.0557960 125.6168440
  37.0106440 154.0190800 136.1411480  36.1825070 154.0883890 135.6661610
  37.6056920 154.6045110 135.6727310  34.5321890 154.6275580 129.6700540
  33.9134310 154.2895130 129.0226840  34.5146340 153.9835340 130.3779730
  33.9748450 150.8060120 137.0866350  33.5619630 151.6313830 137.3406340
  33.2424400 150.2205160 136.8942710  26.1081240 153.5920020 131.9485020
  25.7038240 152.8797270 131.4530920  26.1944360 153.2473260 132.8373060
  24.8209860 150.3663230 135.7284060  25.3724450 150.4758570 134.9537310
  25.3353370 150.7400830 136.4439290  32.7086590 153.8662390 126.6773290
  33.1479870 153.0284820 126.5311110  33.4215010 154.4991790 126.7637430
  24.4952590 153.8882590 139.3389400  24.3560360 154.7605390 139.7076800
  23.6133950 153.5455400 139.1937340  36.2903730 145.1205200 124.9914330
  35.9776390 145.2132030 125.8913400  37.0516200 145.6986230 124.9411760
  22.8085870 152.4865000 129.4491670  22.6883470 153.2127090 128.8372940
  22.4986760 151.7167910 128.9719580  37.5005020 149.8576700 140.9688470
  36.8849290 150.3656370 140.4403930  37.1801440 148.9575030 140.9114410
  25.2749530 145.8300070 132.8315340  24.8317680 146.6109610 132.4999860
  25.8334520 146.1529960 133.5386280  29.5619340 148.6968590 138.4350660
  29.0998710 148.9051610 139.2470600  29.1597450 147.8827940 138.1321330
  34.5623850 149.9177540 139.5647320  33.7117440 149.6183290 139.8856390
  34.4025640 150.1619550 138.6531140  31.6573560 151.4179290 141.6646110
  31.9826970 150.5843040 141.3248340  32.4453890 151.9407810 141.8124440
  28.3908350 145.4510770 127.7121170  27.7662530 145.4470640 128.4374480
  28.3038470 144.5841730 127.3157140  27.3125430 146.3747400 134.6904940
  27.6097760 147.2810230 134.6096960  27.8610990 145.8866180 134.0764510
  25.0663750 150.9533640 130.5596590  24.8404670 150.7370810 131.4643210
  24.2856280 151.3862100 130.2142560  32.2961510 150.9597010 129.1587240
  31.6970400 151.6832810 128.9750860  32.8441120 150.8973790 128.3763690
  27.5062960 151.8519220 141.2256860  27.4106560 150.9113950 141.0757260
  28.3494940 152.0734290 140.8304930  30.9026380 149.5960550 131.1890520
  31.2955950 149.9132750 130.3759210  31.2643230 148.7172430 131.3035040
  22.6373500 148.2632890 139.3790640  22.2436890 149.1108100 139.5863420
  21.9491900 147.6259260 139.5699280  29.2118550 148.3467860 142.4487380
  28.5216870 148.1540060 143.0833470  29.9550850 148.6302500 142.9811680
  19.9390550 146.1861350 133.4120720  19.6503600 146.7564210 134.1245700
  20.6836310 145.7065800 133.7751950  20.1260780 150.1281470 124.6223440
  20.0435450 151.0712230 124.7638430  19.7743840 149.9856380 123.7435790
  31.4881520 152.1866300 135.2841300  30.7562640 152.6953110 135.6331400
  31.0905860 151.3696280 134.9830080  27.9258910 148.8620500 133.6893790
  27.9294970 148.4210450 132.8398330  28.8210030 149.1837830 133.7965610
  23.7761290 148.7446990 132.6488000  23.4361340 149.2222220 133.4055050
  23.0138610 148.2912110 132.2889100  27.9879060 149.8632580 126.6800550
  28.1091880 149.8219060 127.6286370  27.6027570 150.7256730 126.5247280
  31.9507430 147.6399980 134.6964240  31.9680170 148.0908630 135.5406090
  31.7023010 146.7405620 134.9097680  27.0000560 152.1733720 126.0783850
  26.4317460 151.7251970 125.4519760  27.7089560 152.5326500 125.5449000
  35.3778180 145.0532160 140.5350620  35.7023950 144.3221820 141.0608600
  35.4134690 144.7345800 139.6331610  28.2266880 152.9222280 135.4359200
  28.5937010 152.4480850 136.1820540  28.0371940 153.7963850 135.7767540
  21.0907370 147.6665970 131.5652670  20.8054290 147.3021640 132.4031290
  21.0286230 146.9346430 130.9515810  26.0166250 151.9630920 137.7543410
  25.7123320 152.8422900 137.9793770  26.9712710 152.0230710 137.7900850
  30.7645960 146.5595230 128.2866040  29.9510570 146.0608400 128.2111350
  30.5707910 147.3993480 127.8702390  33.4794350 150.9314880 126.5828200
  34.3673970 151.2432110 126.4079540  33.4499440 150.0587130 126.1908780
  22.0729980 152.8033660 138.9014770  21.7144920 153.4687510 139.4888110
  21.7784540 151.9717210 139.2727390  25.2743100 153.2617900 141.7854320
  24.9743240 153.4075080 140.8882140  26.0454340 152.7023190 141.6927710
  35.7508620 152.2426720 126.0508060  35.6672340 152.6740940 125.2004500
  36.4702810 152.7025070 126.4834880  20.5838030 152.8024920 125.5249370
  21.4532880 153.0849720 125.8085290  20.0928350 153.6160790 125.4098180
  27.7472840 154.1898130 129.6457650  28.2035620 155.0003380 129.8717840
  27.3961050 153.8721270 130.4776140  23.6484620 144.5335780 130.1180170
  23.5199250 144.5253680 131.0665090  22.8246640 144.8718870 129.7671180
  20.6478550 146.2926900 139.5786870  19.9337070 146.4923820 140.1839480
  21.0673590 145.5166470 139.9501670  32.1417330 148.7849210 137.3288320
  32.5098150 147.9644420 137.6567890  31.2815530 148.8451100 137.7443970
  35.5079360 147.7406150 128.1375880  34.8792520 147.8451820 127.4234110
  35.0131280 147.9602930 128.9269760  27.4763390 150.0192100 129.5533760
  26.7679540 150.4878440 129.9947370  27.7607870 149.3614110 130.1878950
  29.1019320 151.4388800 137.5526290  29.6004570 151.9134620 138.2178140
  29.2442270 150.5152320 137.7596320  31.5078820 146.7442760 130.9929550
  31.3846600 146.7628890 130.0439060  32.4563380 146.7921700 131.1127950
  25.6798410 148.3277180 126.9284470  26.5288940 148.7647330 126.8624660
  25.3129680 148.6397440 127.7556530  36.3086180 147.6556760 138.3954680
  35.8059780 148.3962160 138.7348490  37.1242840 148.0440760 138.0791470
  34.6008190 152.8989940 131.8416040  33.6598330 152.9140170 132.0163730
  34.9152260 152.1125900 132.2876340  24.5789830 154.5809540 125.4020000
  25.3453100 154.4690900 125.9645430  24.6564520 153.8847510 124.7496770
  23.2736590 152.0134610 126.0852890  23.3540180 151.0662120 126.1970290
  24.1656340 152.3441490 126.1913550  20.8007390 153.8349530 141.3209060
  21.3046410 153.2556810 141.8925290  20.0614810 154.1189760 141.8585430
  22.8330470 151.9779120 142.2159130  22.8735810 151.6792990 143.1244360
  23.6875970 152.3786730 142.0566650  26.6108860 154.5774670 127.3762640
  27.0325280 154.4114540 128.2194030  26.7359700 153.7674900 126.8817780
  24.7736280 150.5571220 140.1833620  24.2432740 150.0662170 139.5556960
  25.4424350 150.9855420 139.6491550  29.1236500 153.6012280 124.6239740
  29.6442160 152.8861300 124.2580890  29.7704900 154.2398150 124.9240250
  34.1436510 152.3636840 141.9513960  34.7257280 151.6089160 141.8634440
  34.3198280 152.8944280 141.1745440  25.2608580 147.5233590 140.2630910
  25.1665450 146.9054340 139.5381780  24.6805970 148.2499880 140.0360820
  28.0270020 146.0806830 137.2958300  27.5787320 146.1031090 136.4503850
  27.3935220 145.6825850 137.8928600  30.7693470 152.7077340 139.3008580
  30.8889680 152.1118480 140.0403420  31.6287470 152.7447030 138.8809880
  33.1081370 153.2614530 137.8771090  32.5816590 153.7857150 137.2736230
  33.4512710 153.8941920 138.5080820  25.5067760 150.6507900 124.3220800
  25.3056820 149.7875260 124.6834140  25.3359810 150.5641260 123.3842400
  27.5362240 149.2498690 140.5584400  28.1261930 148.9414540 141.2462220
  26.7182480 148.7778440 140.7144300  32.3555670 148.8664500 140.7917420
  31.6671190 148.2046040 140.7267410  33.0761690 148.4202770 141.2365880
  32.9856070 145.4616130 126.8507680  33.2658360 144.6184030 127.2067100
  32.2121800 145.6939240 127.3646430  24.3050560 147.7508520 124.3098680
  24.6076460 147.7575950 123.4017830  25.0445150 147.4006380 124.8066340
  27.5235490 146.6943140 125.2954880  27.1757490 146.0167130 124.7157330
  27.7248260 146.2332650 126.1098270  20.8641130 153.2230790 131.6919250
  20.2089970 152.9542430 131.0478950  21.7019080 153.1135270 131.2421230
  33.8131570 148.0172080 125.9137740  34.2316450 147.8303060 125.0734400
  33.5067630 147.1651130 126.2240670  37.3121300 152.9296220 129.6113540
  36.9364900 152.1624150 129.1794830  36.5824420 153.3118920 130.0988470
  21.9017060 153.6083360 136.2322590  22.2690100 153.5210760 137.1118610
  21.3327880 152.8449910 136.1329450  36.7020920 152.0767740 139.2453060
  36.4707010 151.8480490 138.3451010  36.9625470 152.9967290 139.1997950
  21.4533060 150.5192450 140.1381010  20.5589110 150.4859210 140.4774720
  21.9930610 150.7179240 140.9032260  35.1408990 147.3024170 142.0232760
  36.0179170 147.3107570 142.4066760  35.1529830 146.5655010 141.4125110
  20.0779210 150.4329720 127.6344580  19.1743290 150.6959920 127.4596240
  20.5619830 150.7040890 126.8544540  36.5872260 151.1553710 132.9120780
  37.1109740 150.6616360 132.2810950  37.1731680 151.2904070 133.6568350
  36.7661980 151.2393580 136.4340330  35.8164690 151.2057120 136.5485320
  36.9474990 152.1493690 136.1990100  22.6206420 149.4895260 125.5438960
  23.3298120 149.0678480 125.0586240  21.9046360 149.5570490 124.9122310
  22.2680580 145.5434590 124.5841610  22.9908710 146.0843530 124.9022830
  22.5405100 145.2698010 123.7083150  36.0772230 150.4127060 128.8513190
  36.5731350 150.1797930 129.6362070  35.8788300 149.5738900 128.4350830
  21.9572770 144.7940780 134.4864230  22.6048960 144.2438160 134.0459390
  22.3774610 145.0483930 135.3080040  37.5059390 149.0488010 131.3850870
  37.3958670 148.8944050 132.3233140  38.2666980 148.5208950 131.1426280
  35.8525110 144.9882140 137.8433870  36.4897330 145.6016280 138.2093060
  36.0000000 145.0242800 136.8983100  38.3949660 146.8795930 124.6257010
  39.3198970 146.7477110 124.4175300  38.3725450 146.9588750 125.5793460
  38.4688150 147.6506590 127.2513720  37.6739650 147.5851710 127.7806630
  38.6731430 148.5857230 127.2399070  21.7104770 144.9496450 137.2289550
  21.3619590 145.4060270 137.9947730  21.3792470 144.0553580 137.3111980
  29.2229590 146.1408330 140.7508970  29.1618480 146.7330160 141.5004380
  30.1629970 146.0334290 140.6059230  31.8604150 145.7978390 140.3901260
  32.4744560 146.1157680 139.7282340  32.4053710 145.3126980 141.0097120
  22.3825410 144.4772650 140.5040320  22.9308400 144.2960700 139.7406430
  22.4480720 143.6866760 141.0396630  32.6012190 144.3610530 136.7170550
  31.7272030 144.6945640 136.5143480  32.4922940 143.8883710 137.5422420
  33.5084170 146.5681400 138.1012270  33.1797530 145.7533160 137.7214000
  34.4566470 146.5251210 137.9777960  30.3487010 145.2780370 135.6563460
  29.5658800 145.7525870 135.9360220  30.0549940 144.3735200 135.5476640
  34.9008080 145.9803470 133.7012550  35.3416170 145.9248570 132.8534150
  34.6315670 146.8961480 133.7722730  36.7646650 145.6118710 131.7121370
  36.7035050 144.6679930 131.5652390  37.5438680 145.7198800 132.2574830
  21.6927420 145.5827850 128.1777180  22.4506780 145.6956730 127.6041210
  21.2304590 146.4197050 128.1320610  28.2341230 147.6967120 131.1679490
  27.4215740 147.3224010 130.8275370  28.7382870 146.9412200 131.4700680
  32.7366210 144.3609570 132.4062560  33.3395580 144.9329780 132.8811080
  31.9959200 144.9249010 132.1836460  35.8800810 144.7631130 127.6802840
  36.0751440 145.6614580 127.9470270  35.0930680 144.5318210 128.1735790
  24.0652570 146.1091900 126.7179150  24.5945330 145.3221700 126.5887100
  24.6980890 146.7883090 126.9514680  26.2590410 145.8467040 129.7724540
  25.6293150 145.1454350 129.9394670  25.7195550 146.6071170 129.5557700
  26.3845970 145.1251020 142.2077030  26.1030240 145.6284620 141.4437850
  26.7665670 144.3272770 141.8419160  32.9861430 144.5404600 142.7857500
  32.8726880 144.8599210 143.6809020  33.8031170 144.9417110 142.4894780
  31.8919580 152.5597070 113.1492240  31.8113630 151.6451680 112.8783950
  31.4784000 153.0564140 112.4431950  30.0237620 154.3376090 115.0301510
  29.2479720 153.8576530 115.3200080  30.6750550 153.6581740 114.8557670
  24.0403450 154.6495900 115.9077270  23.2088330 154.3944610 116.3073780
  24.6484430 154.7206670 116.6435190  22.4495400 149.6097790 109.6919660
  21.5612100 149.9513760 109.5899540  22.7336590 149.4098110 108.8000490
  20.4128410 152.2103440 115.5759360  20.9844520 151.4425640 115.5763000
  20.4129950 152.5092200 114.6665970  21.6553280 147.6187800 117.3628290
  21.4756120 146.7213550 117.6431050  21.2533360 148.1659670 118.0375240
  30.4951780 149.8203660 115.2640600  30.8716600 148.9475540 115.1514270
  30.3971290 150.1562360 114.3731040  24.6256790 148.1929290 110.7258040
  24.7323540 149.0933020 111.0326800  23.7149150 148.1447260 110.4352690
  34.2775900 147.3154100 112.1968940  35.0985520 146.8250670 112.2394420
  34.3109980 147.9051760 112.9500780  22.2739950 150.1148300 115.9710630
  22.9550060 150.3786670 116.5898030  21.9588000 149.2749170 116.3048640
  26.4664520 151.1615660 115.0583220  26.9742740 151.6596630 115.6988240
  26.9977760 150.3850860 114.8822580  38.5675450 149.3320850 118.7612570
  37.8627620 149.7202560 118.2427680  38.8333370 150.0271140 119.3633500
  24.7500620 145.8014220 119.3246640  24.7519060 146.3186610 118.5192540
  23.9204930 145.3244400 119.3016570  34.5137380 149.2554480 114.9696480
  33.8092950 149.5439370 115.5499590  34.8749540 150.0654590 114.6096040
  24.4315950 147.5124180 117.3317090  24.7732760 148.3566230 117.0370960
  23.4931760 147.6607920 117.4482430  37.5824300 148.7009270 115.3605690
  36.6349210 148.7348250 115.4921120  37.9074290 149.5148220 115.7455050
  28.1143840 145.0006450 113.6561680  28.4218820 144.4453340 112.9397180
  27.1844540 145.1350910 113.4734670  30.5024600 153.0655280 110.3921800
  29.5753880 152.9992660 110.6210270  30.6549420 154.0035410 110.2777040
  30.4893680 149.3372280 107.3888960  29.5497350 149.4986240 107.4741420
  30.8076940 150.0557960 106.8424950  37.0106440 154.0190800 117.3667990
  36.1825070 154.0883890 116.8918120  37.6056920 154.6045110 116.8983820
  34.5321890 154.6275580 110.8957050  33.9134310 154.2895130 110.2483350
  34.5146340 153.9835340 111.6036240  33.9748450 150.8060120 118.3122860
  33.5619630 151.6313830 118.5662850  33.2424400 150.2205160 118.1199220
  26.1081240 153.5920020 113.1741530  25.7038240 152.8797270 112.6787430
  26.1944360 153.2473260 114.0629570  24.8209860 150.3663230 116.9540570
  25.3724450 150.4758570 116.1793820  25.3353370 150.7400830 117.6695800
  32.7086590 153.8662390 107.9029800  33.1479870 153.0284820 107.7567620
  33.4215010 154.4991790 107.9893940  24.4952590 153.8882590 120.5645910
  24.3560360 154.7605390 120.9333310  23.6133950 153.5455400 120.4193850
  36.2903730 145.1205200 106.2170840  35.9776390 145.2132030 107.1169910
  37.0516200 145.6986230 106.1668270  22.8085870 152.4865000 110.6748180
  22.6883470 153.2127090 110.0629450  22.4986760 151.7167910 110.1976090
  37.5005020 149.8576700 122.1944980  36.8849290 150.3656370 121.6660440
  37.1801440 148.9575030 122.1370920  25.2749530 145.8300070 114.0571850
  24.8317680 146.6109610 113.7256370  25.8334520 146.1529960 114.7642790
  29.5619340 148.6968590 119.6607170  29.0998710 148.9051610 120.4727110
  29.1597450 147.8827940 119.3577840  34.5623850 149.9177540 120.7903830
  33.7117440 149.6183290 121.1112900  34.4025640 150.1619550 119.8787650
  31.6573560 151.4179290 122.8902620  31.9826970 150.5843040 122.5504850
  32.4453890 151.9407810 123.0380950  28.3908350 145.4510770 108.9377680
  27.7662530 145.4470640 109.6630990  28.3038470 144.5841730 108.5413650
  27.3125430 146.3747400 115.9161450  27.6097760 147.2810230 115.8353470
  27.8610990 145.8866180 115.3021020  25.0663750 150.9533640 111.7853100
  24.8404670 150.7370810 112.6899720  24.2856280 151.3862100 111.4399070
  32.2961510 150.9597010 110.3843750  31.6970400 151.6832810 110.2007370
  32.8441120 150.8973790 109.6020200  27.5062960 151.8519220 122.4513370
  27.4106560 150.9113950 122.3013770  28.3494940 152.0734290 122.0561440
  30.9026380 149.5960550 112.4147030  31.2955950 149.9132750 111.6015720
  31.2643230 148.7172430 112.5291550  22.6373500 148.2632890 120.6047150
  22.2436890 149.1108100 120.8119930  21.9491900 147.6259260 120.7955790
  29.2118550 148.3467860 123.6743890  28.5216870 148.1540060 124.3089980
  29.9550850 148.6302500 124.2068190  19.9390550 146.1861350 114.6377230
  19.6503600 146.7564210 115.3502210  20.6836310 145.7065800 115.0008460
  20.1260780 150.1281470 105.8479950  20.0435450 151.0712230 105.9894940
  19.7743840 149.9856380 104.9692300  31.4881520 152.1866300 116.5097810
  30.7562640 152.6953110 116.8587910  31.0905860 151.3696280 116.2086590
  27.9258910 148.8620500 114.9150300  27.9294970 148.4210450 114.0654840
  28.8210030 149.1837830 115.0222120  23.7761290 148.7446990 113.8744510
  23.4361340 149.2222220 114.6311560  23.0138610 148.2912110 113.5145610
  27.9879060 149.8632580 107.9057060  28.1091880 149.8219060 108.8542880
  27.6027570 150.7256730 107.7503790  31.9507430 147.6399980 115.9220750
  31.9680170 148.0908630 116.7662600  31.7023010 146.7405620 116.1354190
  27.0000560 152.1733720 107.3040360  26.4317460 151.7251970 106.6776270
  27.7089560 152.5326500 106.7705510  35.3778180 145.0532160 121.7607130
  35.7023950 144.3221820 122.2865110  35.4134690 144.7345800 120.8588120
  28.2266880 152.9222280 116.6615710  28.5937010 152.4480850 117.4077050
  28.0371940 153.7963850 117.0024050  21.0907370 147.6665970 112.7909180
  20.8054290 147.3021640 113.6287800  21.0286230 146.9346430 112.1772320
  26.0166250 151.9630920 118.9799920  25.7123320 152.8422900 119.2050280
  26.9712710 152.0230710 119.0157360  30.7645960 146.5595230 109.5122550
  29.9510570 146.0608400 109.4367860  30.5707910 147.3993480 109.0958900
  33.4794350 150.9314880 107.8084710  34.3673970 151.2432110 107.6336050
  33.4499440 150.0587130 107.4165290  22.0729980 152.8033660 120.1271280
  21.7144920 153.4687510 120.7144620  21.7784540 151.9717210 120.4983900
  25.2743100 153.2617900 123.0110830  24.9743240 153.4075080 122.1138650
  26.0454340 152.7023190 122.9184220  35.7508620 152.2426720 107.2764570
  35.6672340 152.6740940 106.4261010  36.4702810 152.7025070 107.7091390
  20.5838030 152.8024920 106.7505880  21.4532880 153.0849720 107.0341800
  20.0928350 153.6160790 106.6354690  27.7472840 154.1898130 110.8714160
  28.2035620 155.0003380 111.0974350  27.3961050 153.8721270 111.7032650
  23.6484620 144.5335780 111.3436680  23.5199250 144.5253680 112.2921600
  22.8246640 144.8718870 110.9927690  20.6478550 146.2926900 120.8043380
  19.9337070 146.4923820 121.4095990  21.0673590 145.5166470 121.1758180
  32.1417330 148.7849210 118.5544830  32.5098150 147.9644420 118.8824400
  31.2815530 148.8451100 118.9700480  35.5079360 147.7406150 109.3632390
  34.8792520 147.8451820 108.6490620  35.0131280 147.9602930 110.1526270
  27.4763390 150.0192100 110.7790270  26.7679540 150.4878440 111.2203880
  27.7607870 149.3614110 111.4135460  29.1019320 151.4388800 118.7782800
  29.6004570 151.9134620 119.4434650  29.2442270 150.5152320 118.9852830
  31.5078820 146.7442760 112.2186060  31.3846600 146.7628890 111.2695570
  32.4563380 146.7921700 112.3384460  25.6798410 148.3277180 108.1540980
  26.5288940 148.7647330 108.0881170  25.3129680 148.6397440 108.9813040
  36.3086180 147.6556760 119.6211190  35.8059780 148.3962160 119.9605000
  37.1242840 148.0440760 119.3047980  34.6008190 152.8989940 113.0672550
  33.6598330 152.9140170 113.2420240  34.9152260 152.1125900 113.5132850
  24.5789830 154.5809540 106.6276510  25.3453100 154.4690900 107.1901940
  24.6564520 153.8847510 105.9753280  23.2736590 152.0134610 107.3109400
  23.3540180 151.0662120 107.4226800  24.1656340 152.3441490 107.4170060
  20.8007390 153.8349530 122.5465570  21.3046410 153.2556810 123.1181800
  20.0614810 154.1189760 123.0841940  22.8330470 151.9779120 123.4415640
  22.8735810 151.6792990 124.3500870  23.6875970 152.3786730 123.2823160
  26.6108860 154.5774670 108.6019150  27.0325280 154.4114540 109.4450540
  26.7359700 153.7674900 108.1074290  24.7736280 150.5571220 121.4090130
  24.2432740 150.0662170 120.7813470  25.4424350 150.9855420 120.8748060
  29.1236500 153.6012280 105.8496250  29.6442160 152.8861300 105.4837400
  29.7704900 154.2398150 106.1496760  34.1436510 152.3636840 123.1770470
  34.7257280 151.6089160 123.0890950  34.3198280 152.8944280 122.4001950
  25.2608580 147.5233590 121.4887420  25.1665450 146.9054340 120.7638290
  24.6805970 148.2499880 121.2617330  28.0270020 146.0806830 118.5214810
  27.5787320 146.1031090 117.6760360  27.3935220 145.6825850 119.1185110
  30.7693470 152.7077340 120.5265090  30.8889680 152.1118480 121.2659930
  31.6287470 152.7447030 120.1066390  33.1081370 153.2614530 119.1027600
  32.5816590 153.7857150 118.4992740  33.4512710 153.8941920 119.7337330
  25.5067760 150.6507900 105.5477310  25.3056820 149.7875260 105.9090650
  25.3359810 150.5641260 104.6098910  27.5362240 149.2498690 121.7840910
  28.1261930 148.9414540 122.4718730  26.7182480 148.7778440 121.9400810
  32.3555670 148.8664500 122.0173930  31.6671190 148.2046040 121.9523920
  33.0761690 148.4202770 122.4622390  32.9856070 145.4616130 108.0764190
  33.2658360 144.6184030 108.4323610  32.2121800 145.6939240 108.5902940
  24.3050560 147.7508520 105.5355190  24.6076460 147.7575950 104.6274340
  25.0445150 147.4006380 106.0322850  27.5235490 146.6943140 106.5211390
  27.1757490 146.0167130 105.9413840  27.7248260 146.2332650 107.3354780
  20.8641130 153.2230790 112.9175760  20.2089970 152.9542430 112.2735460
  21.7019080 153.1135270 112.4677740  33.8131570 148.0172080 107.1394250
  34.2316450 147.8303060 106.2990910  33.5067630 147.1651130 107.4497180
  37.3121300 152.9296220 110.8370050  36.9364900 152.1624150 110.4051340
  36.5824420 153.3118920 111.3244980  21.9017060 153.6083360 117.4579100
  22.2690100 153.5210760 118.3375120  21.3327880 152.8449910 117.3585960
  36.7020920 152.0767740 120.4709570  36.4707010 151.8480490 119.5707520
  36.9625470 152.9967290 120.4254460  21.4533060 150.5192450 121.3637520
  20.5589110 150.4859210 121.7031230  21.9930610 150.7179240 122.1288770
  35.1408990 147.3024170 123.2489270  36.0179170 147.3107570 123.6323270
  35.1529830 146.5655010 122.6381620  20.0779210 150.4329720 108.8601090
  19.1743290 150.6959920 108.6852750  20.5619830 150.7040890 108.0801050
  36.5872260 151.1553710 114.1377290  37.1109740 150.6616360 113.5067460
  37.1731680 151.2904070 114.8824860  36.7661980 151.2393580 117.6596840
  35.8164690 151.2057120 117.7741830  36.9474990 152.1493690 117.4246610
  22.6206420 149.4895260 106.7695470  23.3298120 149.0678480 106.2842750
  21.9046360 149.5570490 106.1378820  22.2680580 145.5434590 105.8098120
  22.9908710 146.0843530 106.1279340  22.5405100 145.2698010 104.9339660
  36.0772230 150.4127060 110.0769700  36.5731350 150.1797930 110.8618580
  35.8788300 149.5738900 109.6607340  21.9572770 144.7940780 115.7120740
  22.6048960 144.2438160 115.2715900  22.3774610 145.0483930 116.5336550
  37.5059390 149.0488010 112.6107380  37.3958670 148.8944050 113.5489650
  38.2666980 148.5208950 112.3682790  35.8525110 144.9882140 119.0690380
  36.4897330 145.6016280 119.4349570  36.0000000 145.0242800 118.1239610
  38.3949660 146.8795930 105.8513520  39.3198970 146.7477110 105.6431810
  38.3725450 146.9588750 106.8049970  38.4688150 147.6506590 108.4770230
  37.6739650 147.5851710 109.0063140  38.6731430 148.5857230 108.4655580
  21.7104770 144.9496450 118.4546060  21.3619590 145.4060270 119.2204240
  21.3792470 144.0553580 118.5368490  29.2229590 146.1408330 121.9765480
  29.1618480 146.7330160 122.7260890  30.1629970 146.0334290 121.8315740
  31.8604150 145.7978390 121.6157770  32.4744560 146.1157680 120.9538850
  32.4053710 145.3126980 122.2353630  22.3825410 144.4772650 121.7296830
  22.9308400 144.2960700 120.9662940  22.4480720 143.6866760 122.2653140
  32.6012190 144.3610530 117.9427060  31.7272030 144.6945640 117.7399990
  32.4922940 143.8883710 118.7678930  33.5084170 146.5681400 119.3268780
  33.1797530 145.7533160 118.9470510  34.4566470 146.5251210 119.2034470
  30.3487010 145.2780370 116.8819970  29.5658800 145.7525870 117.1616730
  30.0549940 144.3735200 116.7733150  34.9008080 145.9803470 114.9269060
  35.3416170 145.9248570 114.0790660  34.6315670 146.8961480 114.9979240
  36.7646650 145.6118710 112.9377880  36.7035050 144.6679930 112.7908900
  37.5438680 145.7198800 113.4831340  21.6927420 145.5827850 109.4033690
  22.4506780 145.6956730 108.8297720  21.2304590 146.4197050 109.3577120
  28.2341230 147.6967120 112.3936000  27.4215740 147.3224010 112.0531880
  28.7382870 146.9412200 112.6957190  32.7366210 144.3609570 113.6319070
  33.3395580 144.9329780 114.1067590  31.9959200 144.9249010 113.4092970
  35.8800810 144.7631130 108.9059350  36.0751440 145.6614580 109.1726780
  35.0930680 144.5318210 109.3992300  24.0652570 146.1091900 107.9435660
  24.5945330 145.3221700 107.8143610  24.6980890 146.7883090 108.1771190
  26.2590410 145.8467040 110.9981050  25.6293150 145.1454350 111.1651180
  25.7195550 146.6071170 110.7814210  26.3845970 145.1251020 123.4333540
  26.1030240 145.6284620 122.6694360  26.7665670 144.3272770 123.0675670
  32.9861430 144.5404600 124.0114010  32.8726880 144.8599210 124.9065530
  33.8031170 144.9417110 123.7151290  31.8919580 152.5597070  94.3748750
  31.8113630 151.6451680  94.1040460  31.4784000 153.0564140  93.6688460
  30.0237620 154.3376090  96.2558020  29.2479720 153.8576530  96.5456590
  30.6750550 153.6581740  96.0814180  24.0403450 154.6495900  97.1333780
  23.2088330 154.3944610  97.5330290  24.6484430 154.7206670  97.8691700
  22.4495400 149.6097790  90.9176170  21.5612100 149.9513760  90.8156050
  22.7336590 149.4098110  90.0257000  20.4128410 152.2103440  96.8015870
  20.9844520 151.4425640  96.8019510  20.4129950 152.5092200  95.8922480
  21.6553280 147.6187800  98.5884800  21.4756120 146.7213550  98.8687560
  21.2533360 148.1659670  99.2631750  30.4951780 149.8203660  96.4897110
  30.8716600 148.9475540  96.3770780  30.3971290 150.1562360  95.5987550
  24.6256790 148.1929290  91.9514550  24.7323540 149.0933020  92.2583310
  23.7149150 148.1447260  91.6609200  34.2775900 147.3154100  93.4225450
  35.0985520 146.8250670  93.4650930  34.3109980 147.9051760  94.1757290
  22.2739950 150.1148300  97.1967140  22.9550060 150.3786670  97.8154540
  21.9588000 149.2749170  97.5305150  26.4664520 151.1615660  96.2839730
  26.9742740 151.6596630  96.9244750  26.9977760 150.3850860  96.1079090
  38.5675450 149.3320850  99.9869080  37.8627620 149.7202560  99.4684190
  38.8333370 150.0271140 100.5890010  24.7500620 145.8014220 100.5503150
  24.7519060 146.3186610  99.7449050  23.9204930 145.3244400 100.5273080
  34.5137380 149.2554480  96.1952990  33.8092950 149.5439370  96.7756100
  34.8749540 150.0654590  95.8352550  24.4315950 147.5124180  98.5573600
  24.7732760 148.3566230  98.2627470  23.4931760 147.6607920  98.6738940
  37.5824300 148.7009270  96.5862200  36.6349210 148.7348250  96.7177630
  37.9074290 149.5148220  96.9711560  28.1143840 145.0006450  94.8818190
  28.4218820 144.4453340  94.1653690  27.1844540 145.1350910  94.6991180
  30.5024600 153.0655280  91.6178310  29.5753880 152.9992660  91.8466780
  30.6549420 154.0035410  91.5033550  30.4893680 149.3372280  88.6145470
  29.5497350 149.4986240  88.6997930  30.8076940 150.0557960  88.0681460
  37.0106440 154.0190800  98.5924500  36.1825070 154.0883890  98.1174630
  37.6056920 154.6045110  98.1240330  34.5321890 154.6275580  92.1213560
  33.9134310 154.2895130  91.4739860  34.5146340 153.9835340  92.8292750
  33.9748450 150.8060120  99.5379370  33.5619630 151.6313830  99.7919360
  33.2424400 150.2205160  99.3455730  26.1081240 153.5920020  94.3998040
  25.7038240 152.8797270  93.9043940  26.1944360 153.2473260  95.2886080
  24.8209860 150.3663230  98.1797080  25.3724450 150.4758570  97.4050330
  25.3353370 150.7400830  98.8952310  32.7086590 153.8662390  89.1286310
  33.1479870 153.0284820  88.9824130  33.4215010 154.4991790  89.2150450
  24.4952590 153.8882590 101.7902420  24.3560360 154.7605390 102.1589820
  23.6133950 153.5455400 101.6450360  36.2903730 145.1205200  87.4427350
  35.9776390 145.2132030  88.3426420  37.0516200 145.6986230  87.3924780
  22.8085870 152.4865000  91.9004690  22.6883470 153.2127090  91.2885960
  22.4986760 151.7167910  91.4232600  37.5005020 149.8576700 103.4201490
  36.8849290 150.3656370 102.8916950  37.1801440 148.9575030 103.3627430
  25.2749530 145.8300070  95.2828360  24.8317680 146.6109610  94.9512880
  25.8334520 146.1529960  95.9899300  29.5619340 148.6968590 100.8863680
  29.0998710 148.9051610 101.6983620  29.1597450 147.8827940 100.5834350
  34.5623850 149.9177540 102.0160340  33.7117440 149.6183290 102.3369410
  34.4025640 150.1619550 101.1044160  31.6573560 151.4179290 104.1159130
  31.9826970 150.5843040 103.7761360  32.4453890 151.9407810 104.2637460
  28.3908350 145.4510770  90.1634190  27.7662530 145.4470640  90.8887500
  28.3038470 144.5841730  89.7670160  27.3125430 146.3747400  97.1417960
  27.6097760 147.2810230  97.0609980  27.8610990 145.8866180  96.5277530
  25.0663750 150.9533640  93.0109610  24.8404670 150.7370810  93.9156230
  24.2856280 151.3862100  92.6655580  32.2961510 150.9597010  91.6100260
  31.6970400 151.6832810  91.4263880  32.8441120 150.8973790  90.8276710
  27.5062960 151.8519220 103.6769880  27.4106560 150.9113950 103.5270280
  28.3494940 152.0734290 103.2817950  30.9026380 149.5960550  93.6403540
  31.2955950 149.9132750  92.8272230  31.2643230 148.7172430  93.7548060
  22.6373500 148.2632890 101.8303660  22.2436890 149.1108100 102.0376440
  21.9491900 147.6259260 102.0212300  29.2118550 148.3467860 104.9000400
  28.5216870 148.1540060 105.5346490  29.9550850 148.6302500 105.4324700
  19.9390550 146.1861350  95.8633740  19.6503600 146.7564210  96.5758720
  20.6836310 145.7065800  96.2264970  20.1260780 150.1281470  87.0736460
  20.0435450 151.0712230  87.2151450  19.7743840 149.9856380  86.1948810
  31.4881520 152.1866300  97.7354320  30.7562640 152.6953110  98.0844420
  31.0905860 151.3696280  97.4343100  27.9258910 148.8620500  96.1406810
  27.9294970 148.4210450  95.2911350  28.8210030 149.1837830  96.2478630
  23.7761290 148.7446990  95.1001020  23.4361340 149.2222220  95.8568070
  23.0138610 148.2912110  94.7402120  27.9879060 149.8632580  89.1313570
  28.1091880 149.8219060  90.0799390  27.6027570 150.7256730  88.9760300
  31.9507430 147.6399980  97.1477260  31.9680170 148.0908630  97.9919110
  31.7023010 146.7405620  97.3610700  27.0000560 152.1733720  88.5296870
  26.4317460 151.7251970  87.9032780  27.7089560 152.5326500  87.9962020
  35.3778180 145.0532160 102.9863640  35.7023950 144.3221820 103.5121620
  35.4134690 144.7345800 102.0844630  28.2266880 152.9222280  97.8872220
  28.5937010 152.4480850  98.6333560  28.0371940 153.7963850  98.2280560
  21.0907370 147.6665970  94.0165690  20.8054290 147.3021640  94.8544310
  21.0286230 146.9346430  93.4028830  26.0166250 151.9630920 100.2056430
  25.7123320 152.8422900 100.4306790  26.9712710 152.0230710 100.2413870
  30.7645960 146.5595230  90.7379060  29.9510570 146.0608400  90.6624370
  30.5707910 147.3993480  90.3215410  33.4794350 150.9314880  89.0341220
  34.3673970 151.2432110  88.8592560  33.4499440 150.0587130  88.6421800
  22.0729980 152.8033660 101.3527790  21.7144920 153.4687510 101.9401130
  21.7784540 151.9717210 101.7240410  25.2743100 153.2617900 104.2367340
  24.9743240 153.4075080 103.3395160  26.0454340 152.7023190 104.1440730
  35.7508620 152.2426720  88.5021080  35.6672340 152.6740940  87.6517520
  36.4702810 152.7025070  88.9347900  20.5838030 152.8024920  87.9762390
  21.4532880 153.0849720  88.2598310  20.0928350 153.6160790  87.8611200
  27.7472840 154.1898130  92.0970670  28.2035620 155.0003380  92.3230860
  27.3961050 153.8721270  92.9289160  23.6484620 144.5335780  92.5693190
  23.5199250 144.5253680  93.5178110  22.8246640 144.8718870  92.2184200
  20.6478550 146.2926900 102.0299890  19.9337070 146.4923820 102.6352500
  21.0673590 145.5166470 102.4014690  32.1417330 148.7849210  99.7801340
  32.5098150 147.9644420 100.1080910  31.2815530 148.8451100 100.1956990
  35.5079360 147.7406150  90.5888900  34.8792520 147.8451820  89.8747130
  35.0131280 147.9602930  91.3782780  27.4763390 150.0192100  92.0046780
  26.7679540 150.4878440  92.4460390  27.7607870 149.3614110  92.6391970
  29.1019320 151.4388800 100.0039310  29.6004570 151.9134620 100.6691160
  29.2442270 150.5152320 100.2109340  31.5078820 146.7442760  93.4442570
  31.3846600 146.7628890  92.4952080  32.4563380 146.7921700  93.5640970
  25.6798410 148.3277180  89.3797490  26.5288940 148.7647330  89.3137680
  25.3129680 148.6397440  90.2069550  36.3086180 147.6556760 100.8467700
  35.8059780 148.3962160 101.1861510  37.1242840 148.0440760 100.5304490
  34.6008190 152.8989940  94.2929060  33.6598330 152.9140170  94.4676750
  34.9152260 152.1125900  94.7389360  24.5789830 154.5809540  87.8533020
  25.3453100 154.4690900  88.4158450  24.6564520 153.8847510  87.2009790
  23.2736590 152.0134610  88.5365910  23.3540180 151.0662120  88.6483310
  24.1656340 152.3441490  88.6426570  20.8007390 153.8349530 103.7722080
  21.3046410 153.2556810 104.3438310  20.0614810 154.1189760 104.3098450
  22.8330470 151.9779120 104.6672150  22.8735810 151.6792990 105.5757380
  23.6875970 152.3786730 104.5079670  26.6108860 154.5774670  89.8275660
  27.0325280 154.4114540  90.6707050  26.7359700 153.7674900  89.3330800
  24.7736280 150.5571220 102.6346640  24.2432740 150.0662170 102.0069980
  25.4424350 150.9855420 102.1004570  29.1236500 153.6012280  87.0752760
  29.6442160 152.8861300  86.7093910  29.7704900 154.2398150  87.3753270
  34.1436510 152.3636840 104.4026980  34.7257280 151.6089160 104.3147460
  34.3198280 152.8944280 103.6258460  25.2608580 147.5233590 102.7143930
  25.1665450 146.9054340 101.9894800  24.6805970 148.2499880 102.4873840
  28.0270020 146.0806830  99.7471320  27.5787320 146.1031090  98.9016870
  27.3935220 145.6825850 100.3441620  30.7693470 152.7077340 101.7521600
  30.8889680 152.1118480 102.4916440  31.6287470 152.7447030 101.3322900
  33.1081370 153.2614530 100.3284110  32.5816590 153.7857150  99.7249250
  33.4512710 153.8941920 100.9593840  25.5067760 150.6507900  86.7733820
  25.3056820 149.7875260  87.1347160  25.3359810 150.5641260  85.8355420
  27.5362240 149.2498690 103.0097420  28.1261930 148.9414540 103.6975240
  26.7182480 148.7778440 103.1657320  32.3555670 148.8664500 103.2430440
  31.6671190 148.2046040 103.1780430  33.0761690 148.4202770 103.6878900
  32.9856070 145.4616130  89.3020700  33.2658360 144.6184030  89.6580120
  32.2121800 145.6939240  89.8159450  24.3050560 147.7508520  86.7611700
  24.6076460 147.7575950  85.8530850  25.0445150 147.4006380  87.2579360
  27.5235490 146.6943140  87.7467900  27.1757490 146.0167130  87.1670350
  27.7248260 146.2332650  88.5611290  20.8641130 153.2230790  94.1432270
  20.2089970 152.9542430  93.4991970  21.7019080 153.1135270  93.6934250
  33.8131570 148.0172080  88.3650760  34.2316450 147.8303060  87.5247420
  33.5067630 147.1651130  88.6753690  37.3121300 152.9296220  92.0626560
  36.9364900 152.1624150  91.6307850  36.5824420 153.3118920  92.5501490
  21.9017060 153.6083360  98.6835610  22.2690100 153.5210760  99.5631630
  21.3327880 152.8449910  98.5842470  36.7020920 152.0767740 101.6966080
  36.4707010 151.8480490 100.7964030  36.9625470 152.9967290 101.6510970
  21.4533060 150.5192450 102.5894030  20.5589110 150.4859210 102.9287740
  21.9930610 150.7179240 103.3545280  35.1408990 147.3024170 104.4745780
  36.0179170 147.3107570 104.8579780  35.1529830 146.5655010 103.8638130
  20.0779210 150.4329720  90.0857600  19.1743290 150.6959920  89.9109260
  20.5619830 150.7040890  89.3057560  36.5872260 151.1553710  95.3633800
  37.1109740 150.6616360  94.7323970  37.1731680 151.2904070  96.1081370
  36.7661980 151.2393580  98.8853350  35.8164690 151.2057120  98.9998340
  36.9474990 152.1493690  98.6503120  22.6206420 149.4895260  87.9951980
  23.3298120 149.0678480  87.5099260  21.9046360 149.5570490  87.3635330
  22.2680580 145.5434590  87.0354630  22.9908710 146.0843530  87.3535850
  22.5405100 145.2698010  86.1596170  36.0772230 150.4127060  91.3026210
  36.5731350 150.1797930  92.0875090  35.8788300 149.5738900  90.8863850
  21.9572770 144.7940780  96.9377250  22.6048960 144.2438160  96.4972410
  22.3774610 145.0483930  97.7593060  37.5059390 149.0488010  93.8363890
  37.3958670 148.8944050  94.7746160  38.2666980 148.5208950  93.5939300
  35.8525110 144.9882140 100.2946890  36.4897330 145.6016280 100.6606080
  36.0000000 145.0242800  99.3496120  38.3949660 146.8795930  87.0770030
  39.3198970 146.7477110  86.8688320  38.3725450 146.9588750  88.0306480
  38.4688150 147.6506590  89.7026740  37.6739650 147.5851710  90.2319650
  38.6731430 148.5857230  89.6912090  21.7104770 144.9496450  99.6802570
  21.3619590 145.4060270 100.4460750  21.3792470 144.0553580  99.7625000
  29.2229590 146.1408330 103.2021990  29.1618480 146.7330160 103.9517400
  30.1629970 146.0334290 103.0572250  31.8604150 145.7978390 102.8414280
  32.4744560 146.1157680 102.1795360  32.4053710 145.3126980 103.4610140
  22.3825410 144.4772650 102.9553340  22.9308400 144.2960700 102.1919450
  22.4480720 143.6866760 103.4909650  32.6012190 144.3610530  99.1683570
  31.7272030 144.6945640  98.9656500  32.4922940 143.8883710  99.9935440
  33.5084170 146.5681400 100.5525290  33.1797530 145.7533160 100.1727020
  34.4566470 146.5251210 100.4290980  30.3487010 145.2780370  98.1076480
  29.5658800 145.7525870  98.3873240  30.0549940 144.3735200  97.9989660
  34.9008080 145.9803470  96.1525570  35.3416170 145.9248570  95.3047170
  34.6315670 146.8961480  96.2235750  36.7646650 145.6118710  94.1634390
  36.7035050 144.6679930  94.0165410  37.5438680 145.7198800  94.7087850
  21.6927420 145.5827850  90.6290200  22.4506780 145.6956730  90.0554230
  21.2304590 146.4197050  90.5833630  28.2341230 147.6967120  93.6192510
  27.4215740 147.3224010  93.2788390  28.7382870 146.9412200  93.9213700
  32.7366210 144.3609570  94.8575580  33.3395580 144.9329780  95.3324100
  31.9959200 144.9249010  94.6349480  35.8800810 144.7631130  90.1315860
  36.0751440 145.6614580  90.3983290  35.0930680 144.5318210  90.6248810
  24.0652570 146.1091900  89.1692170  24.5945330 145.3221700  89.0400120
  24.6980890 146.7883090  89.4027700  26.2590410 145.8467040  92.2237560
  25.6293150 145.1454350  92.3907690  25.7195550 146.6071170  92.0070720
  26.3845970 145.1251020 104.6590050  26.1030240 145.6284620 103.8950870
  26.7665670 144.3272770 104.2932180  32.9861430 144.5404600 105.2370520
  32.8726880 144.8599210 106.1322040  33.8031170 144.9417110 104.9407800
  31.8919580 152.5597070  75.6005260  31.8113630 151.6451680  75.3296970
  31.4784000 153.0564140  74.8944970  30.0237620 154.3376090  77.4814530
  29.2479720 153.8576530  77.7713100  30.6750550 153.6581740  77.3070690
  24.0403450 154.6495900  78.3590290  23.2088330 154.3944610  78.7586800
  24.6484430 154.7206670  79.0948210  22.4495400 149.6097790  72.1432680
  21.5612100 149.9513760  72.0412560  22.7336590 149.4098110  71.2513510
  20.4128410 152.2103440  78.0272380  20.9844520 151.4425640  78.0276020
  20.4129950 152.5092200  77.1178990  21.6553280 147.6187800  79.8141310
  21.4756120 146.7213550  80.0944070  21.2533360 148.1659670  80.4888260
  30.4951780 149.8203660  77.7153620  30.8716600 148.9475540  77.6027290
  30.3971290 150.1562360  76.8244060  24.6256790 148.1929290  73.1771060
  24.7323540 149.0933020  73.4839820  23.7149150 148.1447260  72.8865710
  34.2775900 147.3154100  74.6481960  35.0985520 146.8250670  74.6907440
  34.3109980 147.9051760  75.4013800  22.2739950 150.1148300  78.4223650
  22.9550060 150.3786670  79.0411050  21.9588000 149.2749170  78.7561660
  26.4664520 151.1615660  77.5096240  26.9742740 151.6596630  78.1501260
  26.9977760 150.3850860  77.3335600  38.5675450 149.3320850  81.2125590
  37.8627620 149.7202560  80.6940700  38.8333370 150.0271140  81.8146520
  24.7500620 145.8014220  81.7759660  24.7519060 146.3186610  80.9705560
  23.9204930 145.3244400  81.7529590  34.5137380 149.2554480  77.4209500
  33.8092950 149.5439370  78.0012610  34.8749540 150.0654590  77.0609060
  24.4315950 147.5124180  79.7830110  24.7732760 148.3566230  79.4883980
  23.4931760 147.6607920  79.8995450  37.5824300 148.7009270  77.8118710
  36.6349210 148.7348250  77.9434140  37.9074290 149.5148220  78.1968070
  28.1143840 145.0006450  76.1074700  28.4218820 144.4453340  75.3910200
  27.1844540 145.1350910  75.9247690  30.5024600 153.0655280  72.8434820
  29.5753880 152.9992660  73.0723290  30.6549420 154.0035410  72.7290060
  30.4893680 149.3372280  69.8401980  29.5497350 149.4986240  69.9254440
  30.8076940 150.0557960  69.2937970  37.0106440 154.0190800  79.8181010
  36.1825070 154.0883890  79.3431140  37.6056920 154.6045110  79.3496840
  34.5321890 154.6275580  73.3470070  33.9134310 154.2895130  72.6996370
  34.5146340 153.9835340  74.0549260  33.9748450 150.8060120  80.7635880
  33.5619630 151.6313830  81.0175870  33.2424400 150.2205160  80.5712240
  26.1081240 153.5920020  75.6254550  25.7038240 152.8797270  75.1300450
  26.1944360 153.2473260  76.5142590  24.8209860 150.3663230  79.4053590
  25.3724450 150.4758570  78.6306840  25.3353370 150.7400830  80.1208820
  32.7086590 153.8662390  70.3542820  33.1479870 153.0284820  70.2080640
  33.4215010 154.4991790  70.4406960  24.4952590 153.8882590  83.0158930
  24.3560360 154.7605390  83.3846330  23.6133950 153.5455400  82.8706870
  36.2903730 145.1205200  68.6683860  35.9776390 145.2132030  69.5682930
  37.0516200 145.6986230  68.6181290  22.8085870 152.4865000  73.1261200
  22.6883470 153.2127090  72.5142470  22.4986760 151.7167910  72.6489110
  37.5005020 149.8576700  84.6458000  36.8849290 150.3656370  84.1173460
  37.1801440 148.9575030  84.5883940  25.2749530 145.8300070  76.5084870
  24.8317680 146.6109610  76.1769390  25.8334520 146.1529960  77.2155810
  29.5619340 148.6968590  82.1120190  29.0998710 148.9051610  82.9240130
  29.1597450 147.8827940  81.8090860  34.5623850 149.9177540  83.2416850
  33.7117440 149.6183290  83.5625920  34.4025640 150.1619550  82.3300670
  31.6573560 151.4179290  85.3415640  31.9826970 150.5843040  85.0017870
  32.4453890 151.9407810  85.4893970  28.3908350 145.4510770  71.3890700
  27.7662530 145.4470640  72.1144010  28.3038470 144.5841730  70.9926670
  27.3125430 146.3747400  78.3674470  27.6097760 147.2810230  78.2866490
  27.8610990 145.8866180  77.7534040  25.0663750 150.9533640  74.2366120
  24.8404670 150.7370810  75.1412740  24.2856280 151.3862100  73.8912090
  32.2961510 150.9597010  72.8356770  31.6970400 151.6832810  72.6520390
  32.8441120 150.8973790  72.0533220  27.5062960 151.8519220  84.9026390
  27.4106560 150.9113950  84.7526790  28.3494940 152.0734290  84.5074460
  30.9026380 149.5960550  74.8660050  31.2955950 149.9132750  74.0528740
  31.2643230 148.7172430  74.9804570  22.6373500 148.2632890  83.0560170
  22.2436890 149.1108100  83.2632950  21.9491900 147.6259260  83.2468810
  29.2118550 148.3467860  86.1256910  28.5216870 148.1540060  86.7603000
  29.9550850 148.6302500  86.6581210  19.9390550 146.1861350  77.0890250
  19.6503600 146.7564210  77.8015230  20.6836310 145.7065800  77.4521480
  20.1260780 150.1281470  68.2992970  20.0435450 151.0712230  68.4407960
  19.7743840 149.9856380  67.4205320  31.4881520 152.1866300  78.9610830
  30.7562640 152.6953110  79.3100930  31.0905860 151.3696280  78.6599610
  27.9258910 148.8620500  77.3663320  27.9294970 148.4210450  76.5167860
  28.8210030 149.1837830  77.4735140  23.7761290 148.7446990  76.3257530
  23.4361340 149.2222220  77.0824580  23.0138610 148.2912110  75.9658630
  27.9879060 149.8632580  70.3570080  28.1091880 149.8219060  71.3055900
  27.6027570 150.7256730  70.2016810  31.9507430 147.6399980  78.3733770
  31.9680170 148.0908630  79.2175620  31.7023010 146.7405620  78.5867210
  27.0000560 152.1733720  69.7553380  26.4317460 151.7251970  69.1289290
  27.7089560 152.5326500  69.2218530  35.3778180 145.0532160  84.2120150
  35.7023950 144.3221820  84.7378130  35.4134690 144.7345800  83.3101140
  28.2266880 152.9222280  79.1128730  28.5937010 152.4480850  79.8590070
  28.0371940 153.7963850  79.4537070  21.0907370 147.6665970  75.2422200
  20.8054290 147.3021640  76.0800820  21.0286230 146.9346430  74.6285340
  26.0166250 151.9630920  81.4312940  25.7123320 152.8422900  81.6563300
  26.9712710 152.0230710  81.4670380  30.7645960 146.5595230  71.9635570
  29.9510570 146.0608400  71.8880880  30.5707910 147.3993480  71.5471920
  33.4794350 150.9314880  70.2597730  34.3673970 151.2432110  70.0849070
  33.4499440 150.0587130  69.8678310  22.0729980 152.8033660  82.5784300
  21.7144920 153.4687510  83.1657640  21.7784540 151.9717210  82.9496920
  25.2743100 153.2617900  85.4623850  24.9743240 153.4075080  84.5651670
  26.0454340 152.7023190  85.3697240  35.7508620 152.2426720  69.7277590
  35.6672340 152.6740940  68.8774030  36.4702810 152.7025070  70.1604410
  20.5838030 152.8024920  69.2018900  21.4532880 153.0849720  69.4854820
  20.0928350 153.6160790  69.0867710  27.7472840 154.1898130  73.3227180
  28.2035620 155.0003380  73.5487370  27.3961050 153.8721270  74.1545670
  23.6484620 144.5335780  73.7949700  23.5199250 144.5253680  74.7434620
  22.8246640 144.8718870  73.4440710  20.6478550 146.2926900  83.2556400
  19.9337070 146.4923820  83.8609010  21.0673590 145.5166470  83.6271200
  32.1417330 148.7849210  81.0057850  32.5098150 147.9644420  81.3337420
  31.2815530 148.8451100  81.4213500  35.5079360 147.7406150  71.8145410
  34.8792520 147.8451820  71.1003640  35.0131280 147.9602930  72.6039290
  27.4763390 150.0192100  73.2303290  26.7679540 150.4878440  73.6716900
  27.7607870 149.3614110  73.8648480  29.1019320 151.4388800  81.2295820
  29.6004570 151.9134620  81.8947670  29.2442270 150.5152320  81.4365850
  31.5078820 146.7442760  74.6699080  31.3846600 146.7628890  73.7208590
  32.4563380 146.7921700  74.7897480  25.6798410 148.3277180  70.6054000
  26.5288940 148.7647330  70.5394190  25.3129680 148.6397440  71.4326060
  36.3086180 147.6556760  82.0724210  35.8059780 148.3962160  82.4118020
  37.1242840 148.0440760  81.7561000  34.6008190 152.8989940  75.5185570
  33.6598330 152.9140170  75.6933260  34.9152260 152.1125900  75.9645870
  24.5789830 154.5809540  69.0789530  25.3453100 154.4690900  69.6414960
  24.6564520 153.8847510  68.4266300  23.2736590 152.0134610  69.7622420
  23.3540180 151.0662120  69.8739820  24.1656340 152.3441490  69.8683080
  20.8007390 153.8349530  84.9978590  21.3046410 153.2556810  85.5694820
  20.0614810 154.1189760  85.5354960  22.8330470 151.9779120  85.8928660
  22.8735810 151.6792990  86.8013890  23.6875970 152.3786730  85.7336180
  26.6108860 154.5774670  71.0532170  27.0325280 154.4114540  71.8963560
  26.7359700 153.7674900  70.5587310  24.7736280 150.5571220  83.8603150
  24.2432740 150.0662170  83.2326490  25.4424350 150.9855420  83.3261080
  29.1236500 153.6012280  68.3009270  29.6442160 152.8861300  67.9350420
  29.7704900 154.2398150  68.6009780  34.1436510 152.3636840  85.6283490
  34.7257280 151.6089160  85.5403970  34.3198280 152.8944280  84.8514970
  25.2608580 147.5233590  83.9400440  25.1665450 146.9054340  83.2151310
  24.6805970 148.2499880  83.7130350  28.0270020 146.0806830  80.9727830
  27.5787320 146.1031090  80.1273380  27.3935220 145.6825850  81.5698130
  30.7693470 152.7077340  82.9778110  30.8889680 152.1118480  83.7172950
  31.6287470 152.7447030  82.5579410  33.1081370 153.2614530  81.5540620
  32.5816590 153.7857150  80.9505760  33.4512710 153.8941920  82.1850350
  25.5067760 150.6507900  67.9990330  25.3056820 149.7875260  68.3603670
  25.3359810 150.5641260  67.0611930  27.5362240 149.2498690  84.2353930
  28.1261930 148.9414540  84.9231750  26.7182480 148.7778440  84.3913830
  32.3555670 148.8664500  84.4686950  31.6671190 148.2046040  84.4036940
  33.0761690 148.4202770  84.9135410  32.9856070 145.4616130  70.5277210
  33.2658360 144.6184030  70.8836630  32.2121800 145.6939240  71.0415960
  24.3050560 147.7508520  67.9868210  24.6076460 147.7575950  67.0787360
  25.0445150 147.4006380  68.4835870  27.5235490 146.6943140  68.9724410
  27.1757490 146.0167130  68.3926860  27.7248260 146.2332650  69.7867800
  20.8641130 153.2230790  75.3688780  20.2089970 152.9542430  74.7248480
  21.7019080 153.1135270  74.9190760  33.8131570 148.0172080  69.5907270
  34.2316450 147.8303060  68.7503930  33.5067630 147.1651130  69.9010200
  37.3121300 152.9296220  73.2883070  36.9364900 152.1624150  72.8564360
  36.5824420 153.3118920  73.7758000  21.9017060 153.6083360  79.9092120
  22.2690100 153.5210760  80.7888140  21.3327880 152.8449910  79.8098980
  36.7020920 152.0767740  82.9222590  36.4707010 151.8480490  82.0220540
  36.9625470 152.9967290  82.8767480  21.4533060 150.5192450  83.8150540
  20.5589110 150.4859210  84.1544250  21.9930610 150.7179240  84.5801790
  35.1408990 147.3024170  85.7002290  36.0179170 147.3107570  86.0836290
  35.1529830 146.5655010  85.0894640  20.0779210 150.4329720  71.3114110
  19.1743290 150.6959920  71.1365770  20.5619830 150.7040890  70.5314070
  36.5872260 151.1553710  76.5890310  37.1109740 150.6616360  75.9580480
  37.1731680 151.2904070  77.3337880  36.7661980 151.2393580  80.1109860
  35.8164690 151.2057120  80.2254850  36.9474990 152.1493690  79.8759630
  22.6206420 149.4895260  69.2208490  23.3298120 149.0678480  68.7355770
  21.9046360 149.5570490  68.5891840  22.2680580 145.5434590  68.2611140
  22.9908710 146.0843530  68.5792360  22.5405100 145.2698010  67.3852680
  36.0772230 150.4127060  72.5282720  36.5731350 150.1797930  73.3131600
  35.8788300 149.5738900  72.1120360  21.9572770 144.7940780  78.1633760
  22.6048960 144.2438160  77.7228920  22.3774610 145.0483930  78.9849570
  37.5059390 149.0488010  75.0620400  37.3958670 148.8944050  76.0002670
  38.2666980 148.5208950  74.8195810  35.8525110 144.9882140  81.5203400
  36.4897330 145.6016280  81.8862590  36.0000000 145.0242800  80.5752630
  38.3949660 146.8795930  68.3026540  39.3198970 146.7477110  68.0944830
  38.3725450 146.9588750  69.2562990  38.4688150 147.6506590  70.9283250
  37.6739650 147.5851710  71.4576160  38.6731430 148.5857230  70.9168600
  21.7104770 144.9496450  80.9059080  21.3619590 145.4060270  81.6717260
  21.3792470 144.0553580  80.9881510  29.2229590 146.1408330  84.4278500
  29.1618480 146.7330160  85.1773910  30.1629970 146.0334290  84.2828760
  31.8604150 145.7978390  84.0670790  32.4744560 146.1157680  83.4051870
  32.4053710 145.3126980  84.6866650  22.3825410 144.4772650  84.1809850
  22.9308400 144.2960700  83.4175960  22.4480720 143.6866760  84.7166160
  32.6012190 144.3610530  80.3940080  31.7272030 144.6945640  80.1913010
  32.4922940 143.8883710  81.2191950  33.5084170 146.5681400  81.7781800
  33.1797530 145.7533160  81.3983530  34.4566470 146.5251210  81.6547490
  30.3487010 145.2780370  79.3332990  29.5658800 145.7525870  79.6129750
  30.0549940 144.3735200  79.2246170  34.9008080 145.9803470  77.3782080
  35.3416170 145.9248570  76.5303680  34.6315670 146.8961480  77.4492260
  36.7646650 145.6118710  75.3890900  36.7035050 144.6679930  75.2421920
  37.5438680 145.7198800  75.9344360  21.6927420 145.5827850  71.8546710
  22.4506780 145.6956730  71.2810740  21.2304590 146.4197050  71.8090140
  28.2341230 147.6967120  74.8449020  27.4215740 147.3224010  74.5044900
  28.7382870 146.9412200  75.1470210  32.7366210 144.3609570  76.0832090
  33.3395580 144.9329780  76.5580610  31.9959200 144.9249010  75.8605990
  35.8800810 144.7631130  71.3572370  36.0751440 145.6614580  71.6239800
  35.0930680 144.5318210  71.8505320  24.0652570 146.1091900  70.3948680
  24.5945330 145.3221700  70.2656630  24.6980890 146.7883090  70.6284210
  26.2590410 145.8467040  73.4494070  25.6293150 145.1454350  73.6164200
  25.7195550 146.6071170  73.2327230  26.3845970 145.1251020  85.8846560
  26.1030240 145.6284620  85.1207380  26.7665670 144.3272770  85.5188690
  32.9861430 144.5404600  86.4627030  32.8726880 144.8599210  87.3578550
  33.8031170 144.9417110  86.1664310  31.8919580 152.5597070  56.8261770
  31.8113630 151.6451680  56.5553480  31.4784000 153.0564140  56.1201480
  30.0237620 154.3376090  58.7071040  29.2479720 153.8576530  58.9969610
  30.6750550 153.6581740  58.5327200  24.0403450 154.6495900  59.5846800
  23.2088330 154.3944610  59.9843310  24.6484430 154.7206670  60.3204720
  22.4495400 149.6097790  53.3689190  21.5612100 149.9513760  53.2669070
  22.7336590 149.4098110  52.4770020  20.4128410 152.2103440  59.2528890
  20.9844520 151.4425640  59.2532530  20.4129950 152.5092200  58.3435500
  21.6553280 147.6187800  61.0397820  21.4756120 146.7213550  61.3200580
  21.2533360 148.1659670  61.7144770  30.4951780 149.8203660  58.9410130
  30.8716600 148.9475540  58.8283800  30.3971290 150.1562360  58.0500570
  24.6256790 148.1929290  54.4027570  24.7323540 149.0933020  54.7096330
  23.7149150 148.1447260  54.1122220  34.2775900 147.3154100  55.8738470
  35.0985520 146.8250670  55.9163950  34.3109980 147.9051760  56.6270310
  22.2739950 150.1148300  59.6480160  22.9550060 150.3786670  60.2667560
  21.9588000 149.2749170  59.9818170  26.4664520 151.1615660  58.7352750
  26.9742740 151.6596630  59.3757770  26.9977760 150.3850860  58.5592110
  38.5675450 149.3320850  62.4382100  37.8627620 149.7202560  61.9197210
  38.8333370 150.0271140  63.0403030  24.7500620 145.8014220  63.0016170
  24.7519060 146.3186610  62.1962070  23.9204930 145.3244400  62.9786100
  34.5137380 149.2554480  58.6466010  33.8092950 149.5439370  59.2269120
  34.8749540 150.0654590  58.2865570  24.4315950 147.5124180  61.0086620
  24.7732760 148.3566230  60.7140490  23.4931760 147.6607920  61.1251960
  37.5824300 148.7009270  59.0375220  36.6349210 148.7348250  59.1690650
  37.9074290 149.5148220  59.4224580  28.1143840 145.0006450  57.3331210
  28.4218820 144.4453340  56.6166710  27.1844540 145.1350910  57.1504200
  30.5024600 153.0655280  54.0691330  29.5753880 152.9992660  54.2979800
  30.6549420 154.0035410  53.9546570  30.4893680 149.3372280  51.0658490
  29.5497350 149.4986240  51.1510950  30.8076940 150.0557960  50.5194480
  37.0106440 154.0190800  61.0437520  36.1825070 154.0883890  60.5687650
  37.6056920 154.6045110  60.5753350  34.5321890 154.6275580  54.5726580
  33.9134310 154.2895130  53.9252880  34.5146340 153.9835340  55.2805770
  33.9748450 150.8060120  61.9892390  33.5619630 151.6313830  62.2432380
  33.2424400 150.2205160  61.7968750  26.1081240 153.5920020  56.8511060
  25.7038240 152.8797270  56.3556960  26.1944360 153.2473260  57.7399100
  24.8209860 150.3663230  60.6310100  25.3724450 150.4758570  59.8563350
  25.3353370 150.7400830  61.3465330  32.7086590 153.8662390  51.5799330
  33.1479870 153.0284820  51.4337150  33.4215010 154.4991790  51.6663470
  24.4952590 153.8882590  64.2415440  24.3560360 154.7605390  64.6102840
  23.6133950 153.5455400  64.0963380  36.2903730 145.1205200  49.8940370
  35.9776390 145.2132030  50.7939440  37.0516200 145.6986230  49.8437800
  22.8085870 152.4865000  54.3517710  22.6883470 153.2127090  53.7398980
  22.4986760 151.7167910  53.8745620  37.5005020 149.8576700  65.8714510
  36.8849290 150.3656370  65.3429970  37.1801440 148.9575030  65.8140450
  25.2749530 145.8300070  57.7341380  24.8317680 146.6109610  57.4025900
  25.8334520 146.1529960  58.4412320  29.5619340 148.6968590  63.3376700
  29.0998710 148.9051610  64.1496640  29.1597450 147.8827940  63.0347370
  34.5623850 149.9177540  64.4673360  33.7117440 149.6183290  64.7882430
  34.4025640 150.1619550  63.5557180  31.6573560 151.4179290  66.5672150
  31.9826970 150.5843040  66.2274380  32.4453890 151.9407810  66.7150480
  28.3908350 145.4510770  52.6147210  27.7662530 145.4470640  53.3400520
  28.3038470 144.5841730  52.2183180  27.3125430 146.3747400  59.5930980
  27.6097760 147.2810230  59.5123000  27.8610990 145.8866180  58.9790550
  25.0663750 150.9533640  55.4622630  24.8404670 150.7370810  56.3669250
  24.2856280 151.3862100  55.1168600  32.2961510 150.9597010  54.0613280
  31.6970400 151.6832810  53.8776900  32.8441120 150.8973790  53.2789730
  27.5062960 151.8519220  66.1282900  27.4106560 150.9113950  65.9783300
  28.3494940 152.0734290  65.7330970  30.9026380 149.5960550  56.0916560
  31.2955950 149.9132750  55.2785250  31.2643230 148.7172430  56.2061080
  22.6373500 148.2632890  64.2816680  22.2436890 149.1108100  64.4889460
  21.9491900 147.6259260  64.4725320  29.2118550 148.3467860  67.3513420
  28.5216870 148.1540060  67.9859510  29.9550850 148.6302500  67.8837720
  19.9390550 146.1861350  58.3146760  19.6503600 146.7564210  59.0271740
  20.6836310 145.7065800  58.6777990  20.1260780 150.1281470  49.5249480
  20.0435450 151.0712230  49.6664470  19.7743840 149.9856380  48.6461830
  31.4881520 152.1866300  60.1867340  30.7562640 152.6953110  60.5357440
  31.0905860 151.3696280  59.8856120  27.9258910 148.8620500  58.5919830
  27.9294970 148.4210450  57.7424370  28.8210030 149.1837830  58.6991650
  23.7761290 148.7446990  57.5514040  23.4361340 149.2222220  58.3081090
  23.0138610 148.2912110  57.1915140  27.9879060 149.8632580  51.5826590
  28.1091880 149.8219060  52.5312410  27.6027570 150.7256730  51.4273320
  31.9507430 147.6399980  59.5990280  31.9680170 148.0908630  60.4432130
  31.7023010 146.7405620  59.8123720  27.0000560 152.1733720  50.9809890
  26.4317460 151.7251970  50.3545800  27.7089560 152.5326500  50.4475040
  35.3778180 145.0532160  65.4376660  35.7023950 144.3221820  65.9634640
  35.4134690 144.7345800  64.5357650  28.2266880 152.9222280  60.3385240
  28.5937010 152.4480850  61.0846580  28.0371940 153.7963850  60.6793580
  21.0907370 147.6665970  56.4678710  20.8054290 147.3021640  57.3057330
  21.0286230 146.9346430  55.8541850  26.0166250 151.9630920  62.6569450
  25.7123320 152.8422900  62.8819810  26.9712710 152.0230710  62.6926890
  30.7645960 146.5595230  53.1892080  29.9510570 146.0608400  53.1137390
  30.5707910 147.3993480  52.7728430  33.4794350 150.9314880  51.4854240
  34.3673970 151.2432110  51.3105580  33.4499440 150.0587130  51.0934820
  22.0729980 152.8033660  63.8040810  21.7144920 153.4687510  64.3914150
  21.7784540 151.9717210  64.1753430  25.2743100 153.2617900  66.6880360
  24.9743240 153.4075080  65.7908180  26.0454340 152.7023190  66.5953750
  35.7508620 152.2426720  50.9534100  35.6672340 152.6740940  50.1030540
  36.4702810 152.7025070  51.3860920  20.5838030 152.8024920  50.4275410
  21.4532880 153.0849720  50.7111330  20.0928350 153.6160790  50.3124220
  27.7472840 154.1898130  54.5483690  28.2035620 155.0003380  54.7743880
  27.3961050 153.8721270  55.3802180  23.6484620 144.5335780  55.0206210
  23.5199250 144.5253680  55.9691130  22.8246640 144.8718870  54.6697220
  20.6478550 146.2926900  64.4812910  19.9337070 146.4923820  65.0865520
  21.0673590 145.5166470  64.8527710  32.1417330 148.7849210  62.2314360
  32.5098150 147.9644420  62.5593930  31.2815530 148.8451100  62.6470010
  35.5079360 147.7406150  53.0401920  34.8792520 147.8451820  52.3260150
  35.0131280 147.9602930  53.8295800  27.4763390 150.0192100  54.4559800
  26.7679540 150.4878440  54.8973410  27.7607870 149.3614110  55.0904990
  29.1019320 151.4388800  62.4552330  29.6004570 151.9134620  63.1204180
  29.2442270 150.5152320  62.6622360  31.5078820 146.7442760  55.8955590
  31.3846600 146.7628890  54.9465100  32.4563380 146.7921700  56.0153990
  25.6798410 148.3277180  51.8310510  26.5288940 148.7647330  51.7650700
  25.3129680 148.6397440  52.6582570  36.3086180 147.6556760  63.2980720
  35.8059780 148.3962160  63.6374530  37.1242840 148.0440760  62.9817510
  34.6008190 152.8989940  56.7442080  33.6598330 152.9140170  56.9189770
  34.9152260 152.1125900  57.1902380  24.5789830 154.5809540  50.3046040
  25.3453100 154.4690900  50.8671470  24.6564520 153.8847510  49.6522810
  23.2736590 152.0134610  50.9878930  23.3540180 151.0662120  51.0996330
  24.1656340 152.3441490  51.0939590  20.8007390 153.8349530  66.2235100
  21.3046410 153.2556810  66.7951330  20.0614810 154.1189760  66.7611470
  22.8330470 151.9779120  67.1185170  22.8735810 151.6792990  68.0270400
  23.6875970 152.3786730  66.9592690  26.6108860 154.5774670  52.2788680
  27.0325280 154.4114540  53.1220070  26.7359700 153.7674900  51.7843820
  24.7736280 150.5571220  65.0859660  24.2432740 150.0662170  64.4583000
  25.4424350 150.9855420  64.5517590  29.1236500 153.6012280  49.5265780
  29.6442160 152.8861300  49.1606930  29.7704900 154.2398150  49.8266290
  34.1436510 152.3636840  66.8540000  34.7257280 151.6089160  66.7660480
  34.3198280 152.8944280  66.0771480  25.2608580 147.5233590  65.1656950
  25.1665450 146.9054340  64.4407820  24.6805970 148.2499880  64.9386860
  28.0270020 146.0806830  62.1984340  27.5787320 146.1031090  61.3529890
  27.3935220 145.6825850  62.7954640  30.7693470 152.7077340  64.2034620
  30.8889680 152.1118480  64.9429460  31.6287470 152.7447030  63.7835920
  33.1081370 153.2614530  62.7797130  32.5816590 153.7857150  62.1762270
  33.4512710 153.8941920  63.4106860  25.5067760 150.6507900  49.2246840
  25.3056820 149.7875260  49.5860180  25.3359810 150.5641260  48.2868440
  27.5362240 149.2498690  65.4610440  28.1261930 148.9414540  66.1488260
  26.7182480 148.7778440  65.6170340  32.3555670 148.8664500  65.6943460
  31.6671190 148.2046040  65.6293450  33.0761690 148.4202770  66.1391920
  32.9856070 145.4616130  51.7533720  33.2658360 144.6184030  52.1093140
  32.2121800 145.6939240  52.2672470  24.3050560 147.7508520  49.2124720
  24.6076460 147.7575950  48.3043870  25.0445150 147.4006380  49.7092380
  27.5235490 146.6943140  50.1980920  27.1757490 146.0167130  49.6183370
  27.7248260 146.2332650  51.0124310  20.8641130 153.2230790  56.5945290
  20.2089970 152.9542430  55.9504990  21.7019080 153.1135270  56.1447270
  33.8131570 148.0172080  50.8163780  34.2316450 147.8303060  49.9760440
  33.5067630 147.1651130  51.1266710  37.3121300 152.9296220  54.5139580
  36.9364900 152.1624150  54.0820870  36.5824420 153.3118920  55.0014510
  21.9017060 153.6083360  61.1348630  22.2690100 153.5210760  62.0144650
  21.3327880 152.8449910  61.0355490  36.7020920 152.0767740  64.1479100
  36.4707010 151.8480490  63.2477050  36.9625470 152.9967290  64.1023990
  21.4533060 150.5192450  65.0407050  20.5589110 150.4859210  65.3800760
  21.9930610 150.7179240  65.8058300  35.1408990 147.3024170  66.9258800
  36.0179170 147.3107570  67.3092800  35.1529830 146.5655010  66.3151150
  20.0779210 150.4329720  52.5370620  19.1743290 150.6959920  52.3622280
  20.5619830 150.7040890  51.7570580  36.5872260 151.1553710  57.8146820
  37.1109740 150.6616360  57.1836990  37.1731680 151.2904070  58.5594390
  36.7661980 151.2393580  61.3366370  35.8164690 151.2057120  61.4511360
  36.9474990 152.1493690  61.1016140  22.6206420 149.4895260  50.4465000
  23.3298120 149.0678480  49.9612280  21.9046360 149.5570490  49.8148350
  22.2680580 145.5434590  49.4867650  22.9908710 146.0843530  49.8048870
  22.5405100 145.2698010  48.6109190  36.0772230 150.4127060  53.7539230
  36.5731350 150.1797930  54.5388110  35.8788300 149.5738900  53.3376870
  21.9572770 144.7940780  59.3890270  22.6048960 144.2438160  58.9485430
  22.3774610 145.0483930  60.2106080  37.5059390 149.0488010  56.2876910
  37.3958670 148.8944050  57.2259180  38.2666980 148.5208950  56.0452320
  35.8525110 144.9882140  62.7459910  36.4897330 145.6016280  63.1119100
  36.0000000 145.0242800  61.8009140  38.3949660 146.8795930  49.5283050
  39.3198970 146.7477110  49.3201340  38.3725450 146.9588750  50.4819500
  38.4688150 147.6506590  52.1539760  37.6739650 147.5851710  52.6832670
  38.6731430 148.5857230  52.1425110  21.7104770 144.9496450  62.1315590
  21.3619590 145.4060270  62.8973770  21.3792470 144.0553580  62.2138020
  29.2229590 146.1408330  65.6535010  29.1618480 146.7330160  66.4030420
  30.1629970 146.0334290  65.5085270  31.8604150 145.7978390  65.2927300
  32.4744560 146.1157680  64.6308380  32.4053710 145.3126980  65.9123160
  22.3825410 144.4772650  65.4066360  22.9308400 144.2960700  64.6432470
  22.4480720 143.6866760  65.9422670  32.6012190 144.3610530  61.6196590
  31.7272030 144.6945640  61.4169520  32.4922940 143.8883710  62.4448460
  33.5084170 146.5681400  63.0038310  33.1797530 145.7533160  62.6240040
  34.4566470 146.5251210  62.8804000  30.3487010 145.2780370  60.5589500
  29.5658800 145.7525870  60.8386260  30.0549940 144.3735200  60.4502680
  34.9008080 145.9803470  58.6038590  35.3416170 145.9248570  57.7560190
  34.6315670 146.8961480  58.6748770  36.7646650 145.6118710  56.6147410
  36.7035050 144.6679930  56.4678430  37.5438680 145.7198800  57.1600870
  21.6927420 145.5827850  53.0803220  22.4506780 145.6956730  52.5067250
  21.2304590 146.4197050  53.0346650  28.2341230 147.6967120  56.0705530
  27.4215740 147.3224010  55.7301410  28.7382870 146.9412200  56.3726720
  32.7366210 144.3609570  57.3088600  33.3395580 144.9329780  57.7837120
  31.9959200 144.9249010  57.0862500  35.8800810 144.7631130  52.5828880
  36.0751440 145.6614580  52.8496310  35.0930680 144.5318210  53.0761830
  24.0652570 146.1091900  51.6205190  24.5945330 145.3221700  51.4913140
  24.6980890 146.7883090  51.8540720  26.2590410 145.8467040  54.6750580
  25.6293150 145.1454350  54.8420710  25.7195550 146.6071170  54.4583740
  26.3845970 145.1251020  67.1103070  26.1030240 145.6284620  66.3463890
  26.7665670 144.3272770  66.7445200  32.9861430 144.5404600  67.6883540
  32.8726880 144.8599210  68.5835060  33.8031170 144.9417110  67.3920820
  31.8919580 152.5597070  38.0518280  31.8113630 151.6451680  37.7809990
  31.4784000 153.0564140  37.3457990  30.0237620 154.3376090  39.9327550
  29.2479720 153.8576530  40.2226120  30.6750550 153.6581740  39.7583710
  24.0403450 154.6495900  40.8103310  23.2088330 154.3944610  41.2099820
  24.6484430 154.7206670  41.5461230  22.4495400 149.6097790  34.5945700
  21.5612100 149.9513760  34.4925580  22.7336590 149.4098110  33.7026530
  20.4128410 152.2103440  40.4785400  20.9844520 151.4425640  40.4789040
  20.4129950 152.5092200  39.5692010  21.6553280 147.6187800  42.2654330
  21.4756120 146.7213550  42.5457090  21.2533360 148.1659670  42.9401280
  30.4951780 149.8203660  40.1666640  30.8716600 148.9475540  40.0540310
  30.3971290 150.1562360  39.2757080  24.6256790 148.1929290  35.6284080
  24.7323540 149.0933020  35.9352840  23.7149150 148.1447260  35.3378730
  34.2775900 147.3154100  37.0994980  35.0985520 146.8250670  37.1420460
  34.3109980 147.9051760  37.8526820  22.2739950 150.1148300  40.8736670
  22.9550060 150.3786670  41.4924070  21.9588000 149.2749170  41.2074680
  26.4664520 151.1615660  39.9609260  26.9742740 151.6596630  40.6014280
  26.9977760 150.3850860  39.7848620  38.5675450 149.3320850  43.6638610
  37.8627620 149.7202560  43.1453720  38.8333370 150.0271140  44.2659540
  24.7500620 145.8014220  44.2272680  24.7519060 146.3186610  43.4218580
  23.9204930 145.3244400  44.2042610  34.5137380 149.2554480  39.8722520
  33.8092950 149.5439370  40.4525630  34.8749540 150.0654590  39.5122080
  24.4315950 147.5124180  42.2343130  24.7732760 148.3566230  41.9397000
  23.4931760 147.6607920  42.3508470  37.5824300 148.7009270  40.2631730
  36.6349210 148.7348250  40.3947160  37.9074290 149.5148220  40.6481090
  28.1143840 145.0006450  38.5587720  28.4218820 144.4453340  37.8423220
  27.1844540 145.1350910  38.3760710  30.5024600 153.0655280  35.2947840
  29.5753880 152.9992660  35.5236310  30.6549420 154.0035410  35.1803080
  30.4893680 149.3372280  32.2915000  29.5497350 149.4986240  32.3767460
  30.8076940 150.0557960  31.7450990  37.0106440 154.0190800  42.2694030
  36.1825070 154.0883890  41.7944160  37.6056920 154.6045110  41.8009860
  34.5321890 154.6275580  35.7983090  33.9134310 154.2895130  35.1509390
  34.5146340 153.9835340  36.5062280  33.9748450 150.8060120  43.2148900
  33.5619630 151.6313830  43.4688890  33.2424400 150.2205160  43.0225260
  26.1081240 153.5920020  38.0767570  25.7038240 152.8797270  37.5813470
  26.1944360 153.2473260  38.9655610  24.8209860 150.3663230  41.8566610
  25.3724450 150.4758570  41.0819860  25.3353370 150.7400830  42.5721840
  32.7086590 153.8662390  32.8055840  33.1479870 153.0284820  32.6593660
  33.4215010 154.4991790  32.8919980  24.4952590 153.8882590  45.4671950
  24.3560360 154.7605390  45.8359350  23.6133950 153.5455400  45.3219890
  36.2903730 145.1205200  31.1196880  35.9776390 145.2132030  32.0195950
  37.0516200 145.6986230  31.0694310  22.8085870 152.4865000  35.5774220
  22.6883470 153.2127090  34.9655490  22.4986760 151.7167910  35.1002130
  37.5005020 149.8576700  47.0971020  36.8849290 150.3656370  46.5686480
  37.1801440 148.9575030  47.0396960  25.2749530 145.8300070  38.9597890
  24.8317680 146.6109610  38.6282410  25.8334520 146.1529960  39.6668830
  29.5619340 148.6968590  44.5633210  29.0998710 148.9051610  45.3753150
  29.1597450 147.8827940  44.2603880  34.5623850 149.9177540  45.6929870
  33.7117440 149.6183290  46.0138940  34.4025640 150.1619550  44.7813690
  31.6573560 151.4179290  47.7928660  31.9826970 150.5843040  47.4530890
  32.4453890 151.9407810  47.9406990  28.3908350 145.4510770  33.8403720
  27.7662530 145.4470640  34.5657030  28.3038470 144.5841730  33.4439690
  27.3125430 146.3747400  40.8187490  27.6097760 147.2810230  40.7379510
  27.8610990 145.8866180  40.2047060  25.0663750 150.9533640  36.6879140
  24.8404670 150.7370810  37.5925760  24.2856280 151.3862100  36.3425110
  32.2961510 150.9597010  35.2869790  31.6970400 151.6832810  35.1033410
  32.8441120 150.8973790  34.5046240  27.5062960 151.8519220  47.3539410
  27.4106560 150.9113950  47.2039810  28.3494940 152.0734290  46.9587480
  30.9026380 149.5960550  37.3173070  31.2955950 149.9132750  36.5041760
  31.2643230 148.7172430  37.4317590  22.6373500 148.2632890  45.5073190
  22.2436890 149.1108100  45.7145970  21.9491900 147.6259260  45.6981830
  29.2118550 148.3467860  48.5769930  28.5216870 148.1540060  49.2116020
  29.9550850 148.6302500  49.1094230  19.9390550 146.1861350  39.5403270
  19.6503600 146.7564210  40.2528250  20.6836310 145.7065800  39.9034500
  20.1260780 150.1281470  30.7505990  20.0435450 151.0712230  30.8920980
  19.7743840 149.9856380  29.8718340  31.4881520 152.1866300  41.4123850
  30.7562640 152.6953110  41.7613950  31.0905860 151.3696280  41.1112630
  27.9258910 148.8620500  39.8176340  27.9294970 148.4210450  38.9680880
  28.8210030 149.1837830  39.9248160  23.7761290 148.7446990  38.7770550
  23.4361340 149.2222220  39.5337600  23.0138610 148.2912110  38.4171650
  27.9879060 149.8632580  32.8083100  28.1091880 149.8219060  33.7568920
  27.6027570 150.7256730  32.6529830  31.9507430 147.6399980  40.8246790
  31.9680170 148.0908630  41.6688640  31.7023010 146.7405620  41.0380230
  27.0000560 152.1733720  32.2066400  26.4317460 151.7251970  31.5802310
  27.7089560 152.5326500  31.6731550  35.3778180 145.0532160  46.6633170
  35.7023950 144.3221820  47.1891150  35.4134690 144.7345800  45.7614160
  28.2266880 152.9222280  41.5641750  28.5937010 152.4480850  42.3103090
  28.0371940 153.7963850  41.9050090  21.0907370 147.6665970  37.6935220
  20.8054290 147.3021640  38.5313840  21.0286230 146.9346430  37.0798360
  26.0166250 151.9630920  43.8825960  25.7123320 152.8422900  44.1076320
  26.9712710 152.0230710  43.9183400  30.7645960 146.5595230  34.4148590
  29.9510570 146.0608400  34.3393900  30.5707910 147.3993480  33.9984940
  33.4794350 150.9314880  32.7110750  34.3673970 151.2432110  32.5362090
  33.4499440 150.0587130  32.3191330  22.0729980 152.8033660  45.0297320
  21.7144920 153.4687510  45.6170660  21.7784540 151.9717210  45.4009940
  25.2743100 153.2617900  47.9136870  24.9743240 153.4075080  47.0164690
  26.0454340 152.7023190  47.8210260  35.7508620 152.2426720  32.1790610
  35.6672340 152.6740940  31.3287050  36.4702810 152.7025070  32.6117430
  20.5838030 152.8024920  31.6531920  21.4532880 153.0849720  31.9367840
  20.0928350 153.6160790  31.5380730  27.7472840 154.1898130  35.7740200
  28.2035620 155.0003380  36.0000390  27.3961050 153.8721270  36.6058690
  23.6484620 144.5335780  36.2462720  23.5199250 144.5253680  37.1947640
  22.8246640 144.8718870  35.8953730  20.6478550 146.2926900  45.7069420
  19.9337070 146.4923820  46.3122030  21.0673590 145.5166470  46.0784220
  32.1417330 148.7849210  43.4570870  32.5098150 147.9644420  43.7850440
  31.2815530 148.8451100  43.8726520  35.5079360 147.7406150  34.2658430
  34.8792520 147.8451820  33.5516660  35.0131280 147.9602930  35.0552310
  27.4763390 150.0192100  35.6816310  26.7679540 150.4878440  36.1229920
  27.7607870 149.3614110  36.3161500  29.1019320 151.4388800  43.6808840
  29.6004570 151.9134620  44.3460690  29.2442270 150.5152320  43.8878870
  31.5078820 146.7442760  37.1212100  31.3846600 146.7628890  36.1721610
  32.4563380 146.7921700  37.2410500  25.6798410 148.3277180  33.0567020
  26.5288940 148.7647330  32.9907210  25.3129680 148.6397440  33.8839080
  36.3086180 147.6556760  44.5237230  35.8059780 148.3962160  44.8631040
  37.1242840 148.0440760  44.2074020  34.6008190 152.8989940  37.9698590
  33.6598330 152.9140170  38.1446280  34.9152260 152.1125900  38.4158890
  24.5789830 154.5809540  31.5302550  25.3453100 154.4690900  32.0927980
  24.6564520 153.8847510  30.8779320  23.2736590 152.0134610  32.2135440
  23.3540180 151.0662120  32.3252840  24.1656340 152.3441490  32.3196100
  20.8007390 153.8349530  47.4491610  21.3046410 153.2556810  48.0207840
  20.0614810 154.1189760  47.9867980  22.8330470 151.9779120  48.3441680
  22.8735810 151.6792990  49.2526910  23.6875970 152.3786730  48.1849200
  26.6108860 154.5774670  33.5045190  27.0325280 154.4114540  34.3476580
  26.7359700 153.7674900  33.0100330  24.7736280 150.5571220  46.3116170
  24.2432740 150.0662170  45.6839510  25.4424350 150.9855420  45.7774100
  29.1236500 153.6012280  30.7522290  29.6442160 152.8861300  30.3863440
  29.7704900 154.2398150  31.0522800  34.1436510 152.3636840  48.0796510
  34.7257280 151.6089160  47.9916990  34.3198280 152.8944280  47.3027990
  25.2608580 147.5233590  46.3913460  25.1665450 146.9054340  45.6664330
  24.6805970 148.2499880  46.1643370  28.0270020 146.0806830  43.4240850
  27.5787320 146.1031090  42.5786400  27.3935220 145.6825850  44.0211150
  30.7693470 152.7077340  45.4291130  30.8889680 152.1118480  46.1685970
  31.6287470 152.7447030  45.0092430  33.1081370 153.2614530  44.0053640
  32.5816590 153.7857150  43.4018780  33.4512710 153.8941920  44.6363370
  25.5067760 150.6507900  30.4503350  25.3056820 149.7875260  30.8116690
  25.3359810 150.5641260  29.5124950  27.5362240 149.2498690  46.6866950
  28.1261930 148.9414540  47.3744770  26.7182480 148.7778440  46.8426850
  32.3555670 148.8664500  46.9199970  31.6671190 148.2046040  46.8549960
  33.0761690 148.4202770  47.3648430  32.9856070 145.4616130  32.9790230
  33.2658360 144.6184030  33.3349650  32.2121800 145.6939240  33.4928980
  24.3050560 147.7508520  30.4381230  24.6076460 147.7575950  29.5300380
  25.0445150 147.4006380  30.9348890  27.5235490 146.6943140  31.4237430
  27.1757490 146.0167130  30.8439880  27.7248260 146.2332650  32.2380820
  20.8641130 153.2230790  37.8201800  20.2089970 152.9542430  37.1761500
  21.7019080 153.1135270  37.3703780  33.8131570 148.0172080  32.0420290
  34.2316450 147.8303060  31.2016950  33.5067630 147.1651130  32.3523220
  37.3121300 152.9296220  35.7396090  36.9364900 152.1624150  35.3077380
  36.5824420 153.3118920  36.2271020  21.9017060 153.6083360  42.3605140
  22.2690100 153.5210760  43.2401160  21.3327880 152.8449910  42.2612000
  36.7020920 152.0767740  45.3735610  36.4707010 151.8480490  44.4733560
  36.9625470 152.9967290  45.3280500  21.4533060 150.5192450  46.2663560
  20.5589110 150.4859210  46.6057270  21.9930610 150.7179240  47.0314810
  35.1408990 147.3024170  48.1515310  36.0179170 147.3107570  48.5349310
  35.1529830 146.5655010  47.5407660  20.0779210 150.4329720  33.7627130
  19.1743290 150.6959920  33.5878790  20.5619830 150.7040890  32.9827090
  36.5872260 151.1553710  39.0403330  37.1109740 150.6616360  38.4093500
  37.1731680 151.2904070  39.7850900  36.7661980 151.2393580  42.5622880
  35.8164690 151.2057120  42.6767870  36.9474990 152.1493690  42.3272650
  22.6206420 149.4895260  31.6721510  23.3298120 149.0678480  31.1868790
  21.9046360 149.5570490  31.0404860  22.2680580 145.5434590  30.7124160
  22.9908710 146.0843530  31.0305380  22.5405100 145.2698010  29.8365700
  36.0772230 150.4127060  34.9795740  36.5731350 150.1797930  35.7644620
  35.8788300 149.5738900  34.5633380  21.9572770 144.7940780  40.6146780
  22.6048960 144.2438160  40.1741940  22.3774610 145.0483930  41.4362590
  37.5059390 149.0488010  37.5133420  37.3958670 148.8944050  38.4515690
  38.2666980 148.5208950  37.2708830  35.8525110 144.9882140  43.9716420
  36.4897330 145.6016280  44.3375610  36.0000000 145.0242800  43.0265650
  38.3949660 146.8795930  30.7539560  39.3198970 146.7477110  30.5457850
  38.3725450 146.9588750  31.7076010  38.4688150 147.6506590  33.3796270
  37.6739650 147.5851710  33.9089180  38.6731430 148.5857230  33.3681620
  21.7104770 144.9496450  43.3572100  21.3619590 145.4060270  44.1230280
  21.3792470 144.0553580  43.4394530  29.2229590 146.1408330  46.8791520
  29.1618480 146.7330160  47.6286930  30.1629970 146.0334290  46.7341780
  31.8604150 145.7978390  46.5183810  32.4744560 146.1157680  45.8564890
  32.4053710 145.3126980  47.1379670  22.3825410 144.4772650  46.6322870
  22.9308400 144.2960700  45.8688980  22.4480720 143.6866760  47.1679180
  32.6012190 144.3610530  42.8453100  31.7272030 144.6945640  42.6426030
  32.4922940 143.8883710  43.6704970  33.5084170 146.5681400  44.2294820
  33.1797530 145.7533160  43.8496550  34.4566470 146.5251210  44.1060510
  30.3487010 145.2780370  41.7846010  29.5658800 145.7525870  42.0642770
  30.0549940 144.3735200  41.6759190  34.9008080 145.9803470  39.8295100
  35.3416170 145.9248570  38.9816700  34.6315670 146.8961480  39.9005280
  36.7646650 145.6118710  37.8403920  36.7035050 144.6679930  37.6934940
  37.5438680 145.7198800  38.3857380  21.6927420 145.5827850  34.3059730
  22.4506780 145.6956730  33.7323760  21.2304590 146.4197050  34.2603160
  28.2341230 147.6967120  37.2962040  27.4215740 147.3224010  36.9557920
  28.7382870 146.9412200  37.5983230  32.7366210 144.3609570  38.5345110
  33.3395580 144.9329780  39.0093630  31.9959200 144.9249010  38.3119010
  35.8800810 144.7631130  33.8085390  36.0751440 145.6614580  34.0752820
  35.0930680 144.5318210  34.3018340  24.0652570 146.1091900  32.8461700
  24.5945330 145.3221700  32.7169650  24.6980890 146.7883090  33.0797230
  26.2590410 145.8467040  35.9007090  25.6293150 145.1454350  36.0677220
  25.7195550 146.6071170  35.6840250  26.3845970 145.1251020  48.3359580
  26.1030240 145.6284620  47.5720400  26.7665670 144.3272770  47.9701710
  32.9861430 144.5404600  48.9140050  32.8726880 144.8599210  49.8091570
  33.8031170 144.9417110  48.6177330  31.8919580 152.5597070  19.2774790
  31.8113630 151.6451680  19.0066500  31.4784000 153.0564140  18.5714500
  30.0237620 154.3376090  21.1584060  29.2479720 153.8576530  21.4482630
  30.6750550 153.6581740  20.9840220  24.0403450 154.6495900  22.0359820
  23.2088330 154.3944610  22.4356330  24.6484430 154.7206670  22.7717740
  22.4495400 149.6097790  15.8202210  21.5612100 149.9513760  15.7182090
  22.7336590 149.4098110  14.9283040  20.4128410 152.2103440  21.7041910
  20.9844520 151.4425640  21.7045550  20.4129950 152.5092200  20.7948520
  21.6553280 147.6187800  23.4910840  21.4756120 146.7213550  23.7713600
  21.2533360 148.1659670  24.1657790  30.4951780 149.8203660  21.3923150
  30.8716600 148.9475540  21.2796820  30.3971290 150.1562360  20.5013590
  24.6256790 148.1929290  16.8540590  24.7323540 149.0933020  17.1609350
  23.7149150 148.1447260  16.5635240  34.2775900 147.3154100  18.3251490
  35.0985520 146.8250670  18.3676970  34.3109980 147.9051760  19.0783330
  22.2739950 150.1148300  22.0993180  22.9550060 150.3786670  22.7180580
  21.9588000 149.2749170  22.4331190  26.4664520 151.1615660  21.1865770
  26.9742740 151.6596630  21.8270790  26.9977760 150.3850860  21.0105130
  38.5675450 149.3320850  24.8895120  37.8627620 149.7202560  24.3710230
  38.8333370 150.0271140  25.4916050  24.7500620 145.8014220  25.4529190
  24.7519060 146.3186610  24.6475090  23.9204930 145.3244400  25.4299120
  34.5137380 149.2554480  21.0979030  33.8092950 149.5439370  21.6782140
  34.8749540 150.0654590  20.7378590  24.4315950 147.5124180  23.4599640
  24.7732760 148.3566230  23.1653510  23.4931760 147.6607920  23.5764980
  37.5824300 148.7009270  21.4888240  36.6349210 148.7348250  21.6203670
  37.9074290 149.5148220  21.8737600  28.1143840 145.0006450  19.7844230
  28.4218820 144.4453340  19.0679730  27.1844540 145.1350910  19.6017220
  30.5024600 153.0655280  16.5204350  29.5753880 152.9992660  16.7492820
  30.6549420 154.0035410  16.4059590  30.4893680 149.3372280  13.5171510
  29.5497350 149.4986240  13.6023970  30.8076940 150.0557960  12.9707500
  37.0106440 154.0190800  23.4950540  36.1825070 154.0883890  23.0200670
  37.6056920 154.6045110  23.0266370  34.5321890 154.6275580  17.0239600
  33.9134310 154.2895130  16.3765900  34.5146340 153.9835340  17.7318790
  33.9748450 150.8060120  24.4405410  33.5619630 151.6313830  24.6945400
  33.2424400 150.2205160  24.2481770  26.1081240 153.5920020  19.3024080
  25.7038240 152.8797270  18.8069980  26.1944360 153.2473260  20.1912120
  24.8209860 150.3663230  23.0823120  25.3724450 150.4758570  22.3076370
  25.3353370 150.7400830  23.7978350  32.7086590 153.8662390  14.0312350
  33.1479870 153.0284820  13.8850170  33.4215010 154.4991790  14.1176490
  24.4952590 153.8882590  26.6928460  24.3560360 154.7605390  27.0615860
  23.6133950 153.5455400  26.5476400  36.2903730 145.1205200  12.3453390
  35.9776390 145.2132030  13.2452460  37.0516200 145.6986230  12.2950820
  22.8085870 152.4865000  16.8030730  22.6883470 153.2127090  16.1912000
  22.4986760 151.7167910  16.3258640  37.5005020 149.8576700  28.3227530
  36.8849290 150.3656370  27.7942990  37.1801440 148.9575030  28.2653470
  25.2749530 145.8300070  20.1854400  24.8317680 146.6109610  19.8538920
  25.8334520 146.1529960  20.8925340  29.5619340 148.6968590  25.7889720
  29.0998710 148.9051610  26.6009660  29.1597450 147.8827940  25.4860390
  34.5623850 149.9177540  26.9186380  33.7117440 149.6183290  27.2395450
  34.4025640 150.1619550  26.0070200  31.6573560 151.4179290  29.0185170
  31.9826970 150.5843040  28.6787400  32.4453890 151.9407810  29.1663500
  28.3908350 145.4510770  15.0660230  27.7662530 145.4470640  15.7913540
  28.3038470 144.5841730  14.6696200  27.3125430 146.3747400  22.0444000
  27.6097760 147.2810230  21.9636020  27.8610990 145.8866180  21.4303570
  25.0663750 150.9533640  17.9135650  24.8404670 150.7370810  18.8182270
  24.2856280 151.3862100  17.5681620  32.2961510 150.9597010  16.5126300
  31.6970400 151.6832810  16.3289920  32.8441120 150.8973790  15.7302750
  27.5062960 151.8519220  28.5795920  27.4106560 150.9113950  28.4296320
  28.3494940 152.0734290  28.1843990  30.9026380 149.5960550  18.5429580
  31.2955950 149.9132750  17.7298270  31.2643230 148.7172430  18.6574100
  22.6373500 148.2632890  26.7329700  22.2436890 149.1108100  26.9402480
  21.9491900 147.6259260  26.9238340  29.2118550 148.3467860  29.8026440
  28.5216870 148.1540060  30.4372530  29.9550850 148.6302500  30.3350740
  19.9390550 146.1861350  20.7659780  19.6503600 146.7564210  21.4784760
  20.6836310 145.7065800  21.1291010  20.1260780 150.1281470  11.9762500
  20.0435450 151.0712230  12.1177490  19.7743840 149.9856380  11.0974850
  31.4881520 152.1866300  22.6380360  30.7562640 152.6953110  22.9870460
  31.0905860 151.3696280  22.3369140  27.9258910 148.8620500  21.0432850
  27.9294970 148.4210450  20.1937390  28.8210030 149.1837830  21.1504670
  23.7761290 148.7446990  20.0027060  23.4361340 149.2222220  20.7594110
  23.0138610 148.2912110  19.6428160  27.9879060 149.8632580  14.0339610
  28.1091880 149.8219060  14.9825430  27.6027570 150.7256730  13.8786340
  31.9507430 147.6399980  22.0503300  31.9680170 148.0908630  22.8945150
  31.7023010 146.7405620  22.2636740  27.0000560 152.1733720  13.4322910
  26.4317460 151.7251970  12.8058820  27.7089560 152.5326500  12.8988060
  35.3778180 145.0532160  27.8889680  35.7023950 144.3221820  28.4147660
  35.4134690 144.7345800  26.9870670  28.2266880 152.9222280  22.7898260
  28.5937010 152.4480850  23.5359600  28.0371940 153.7963850  23.1306600
  21.0907370 147.6665970  18.9191730  20.8054290 147.3021640  19.7570350
  21.0286230 146.9346430  18.3054870  26.0166250 151.9630920  25.1082470
  25.7123320 152.8422900  25.3332830  26.9712710 152.0230710  25.1439910
  30.7645960 146.5595230  15.6405100  29.9510570 146.0608400  15.5650410
  30.5707910 147.3993480  15.2241450  33.4794350 150.9314880  13.9367260
  34.3673970 151.2432110  13.7618600  33.4499440 150.0587130  13.5447840
  22.0729980 152.8033660  26.2553830  21.7144920 153.4687510  26.8427170
  21.7784540 151.9717210  26.6266450  25.2743100 153.2617900  29.1393380
  24.9743240 153.4075080  28.2421200  26.0454340 152.7023190  29.0466770
  35.7508620 152.2426720  13.4047120  35.6672340 152.6740940  12.5543560
  36.4702810 152.7025070  13.8373940  20.5838030 152.8024920  12.8788430
  21.4532880 153.0849720  13.1624350  20.0928350 153.6160790  12.7637240
  27.7472840 154.1898130  16.9996710  28.2035620 155.0003380  17.2256900
  27.3961050 153.8721270  17.8315200  23.6484620 144.5335780  17.4719230
  23.5199250 144.5253680  18.4204150  22.8246640 144.8718870  17.1210240
  20.6478550 146.2926900  26.9325930  19.9337070 146.4923820  27.5378540
  21.0673590 145.5166470  27.3040730  32.1417330 148.7849210  24.6827380
  32.5098150 147.9644420  25.0106950  31.2815530 148.8451100  25.0983030
  35.5079360 147.7406150  15.4914940  34.8792520 147.8451820  14.7773170
  35.0131280 147.9602930  16.2808820  27.4763390 150.0192100  16.9072820
  26.7679540 150.4878440  17.3486430  27.7607870 149.3614110  17.5418010
  29.1019320 151.4388800  24.9065350  29.6004570 151.9134620  25.5717200
  29.2442270 150.5152320  25.1135380  31.5078820 146.7442760  18.3468610
  31.3846600 146.7628890  17.3978120  32.4563380 146.7921700  18.4667010
  25.6798410 148.3277180  14.2823530  26.5288940 148.7647330  14.2163720
  25.3129680 148.6397440  15.1095590  36.3086180 147.6556760  25.7493740
  35.8059780 148.3962160  26.0887550  37.1242840 148.0440760  25.4330530
  34.6008190 152.8989940  19.1955100  33.6598330 152.9140170  19.3702790
  34.9152260 152.1125900  19.6415400  24.5789830 154.5809540  12.7559060
  25.3453100 154.4690900  13.3184490  24.6564520 153.8847510  12.1035830
  23.2736590 152.0134610  13.4391950  23.3540180 151.0662120  13.5509350
  24.1656340 152.3441490  13.5452610  20.8007390 153.8349530  28.6748120
  21.3046410 153.2556810  29.2464350  20.0614810 154.1189760  29.2124490
  22.8330470 151.9779120  29.5698190  22.8735810 151.6792990  30.4783420
  23.6875970 152.3786730  29.4105710  26.6108860 154.5774670  14.7301700
  27.0325280 154.4114540  15.5733090  26.7359700 153.7674900  14.2356840
  24.7736280 150.5571220  27.5372680  24.2432740 150.0662170  26.9096020
  25.4424350 150.9855420  27.0030610  29.1236500 153.6012280  11.9778800
  29.6442160 152.8861300  11.6119950  29.7704900 154.2398150  12.2779310
  34.1436510 152.3636840  29.3053020  34.7257280 151.6089160  29.2173500
  34.3198280 152.8944280  28.5284500  25.2608580 147.5233590  27.6169970
  25.1665450 146.9054340  26.8920840  24.6805970 148.2499880  27.3899880
  28.0270020 146.0806830  24.6497360  27.5787320 146.1031090  23.8042910
  27.3935220 145.6825850  25.2467660  30.7693470 152.7077340  26.6547640
  30.8889680 152.1118480  27.3942480  31.6287470 152.7447030  26.2348940
  33.1081370 153.2614530  25.2310150  32.5816590 153.7857150  24.6275290
  33.4512710 153.8941920  25.8619880  25.5067760 150.6507900  11.6759860
  25.3056820 149.7875260  12.0373200  25.3359810 150.5641260  10.7381460
  27.5362240 149.2498690  27.9123460  28.1261930 148.9414540  28.6001280
  26.7182480 148.7778440  28.0683360  32.3555670 148.8664500  28.1456480
  31.6671190 148.2046040  28.0806470  33.0761690 148.4202770  28.5904940
  32.9856070 145.4616130  14.2046740  33.2658360 144.6184030  14.5606160
  32.2121800 145.6939240  14.7185490  24.3050560 147.7508520  11.6637740
  24.6076460 147.7575950  10.7556890  25.0445150 147.4006380  12.1605400
  27.5235490 146.6943140  12.6493940  27.1757490 146.0167130  12.0696390
  27.7248260 146.2332650  13.4637330  20.8641130 153.2230790  19.0458310
  20.2089970 152.9542430  18.4018010  21.7019080 153.1135270  18.5960290
  33.8131570 148.0172080  13.2676800  34.2316450 147.8303060  12.4273460
  33.5067630 147.1651130  13.5779730  37.3121300 152.9296220  16.9652600
  36.9364900 152.1624150  16.5333890  36.5824420 153.3118920  17.4527530
  21.9017060 153.6083360  23.5861650  22.2690100 153.5210760  24.4657670
  21.3327880 152.8449910  23.4868510  36.7020920 152.0767740  26.5992120
  36.4707010 151.8480490  25.6990070  36.9625470 152.9967290  26.5537010
  21.4533060 150.5192450  27.4920070  20.5589110 150.4859210  27.8313780
  21.9930610 150.7179240  28.2571320  35.1408990 147.3024170  29.3771820
  36.0179170 147.3107570  29.7605820  35.1529830 146.5655010  28.7664170
  20.0779210 150.4329720  14.9883640  19.1743290 150.6959920  14.8135300
  20.5619830 150.7040890  14.2083600  36.5872260 151.1553710  20.2659840
  37.1109740 150.6616360  19.6350010  37.1731680 151.2904070  21.0107410
  36.7661980 151.2393580  23.7879390  35.8164690 151.2057120  23.9024380
  36.9474990 152.1493690  23.5529160  22.6206420 149.4895260  12.8978020
  23.3298120 149.0678480  12.4125300  21.9046360 149.5570490  12.2661370
  22.2680580 145.5434590  11.9380670  22.9908710 146.0843530  12.2561890
  22.5405100 145.2698010  11.0622210  36.0772230 150.4127060  16.2052250
  36.5731350 150.1797930  16.9901130  35.8788300 149.5738900  15.7889890
  21.9572770 144.7940780  21.8403290  22.6048960 144.2438160  21.3998450
  22.3774610 145.0483930  22.6619100  37.5059390 149.0488010  18.7389930
  37.3958670 148.8944050  19.6772200  38.2666980 148.5208950  18.4965340
  35.8525110 144.9882140  25.1972930  36.4897330 145.6016280  25.5632120
  36.0000000 145.0242800  24.2522160  38.3949660 146.8795930  11.9796070
  39.3198970 146.7477110  11.7714360  38.3725450 146.9588750  12.9332520
  38.4688150 147.6506590  14.6052780  37.6739650 147.5851710  15.1345690
  38.6731430 148.5857230  14.5938130  21.7104770 144.9496450  24.5828610
  21.3619590 145.4060270  25.3486790  21.3792470 144.0553580  24.6651040
  29.2229590 146.1408330  28.1048030  29.1618480 146.7330160  28.8543440
  30.1629970 146.0334290  27.9598290  31.8604150 145.7978390  27.7440320
  32.4744560 146.1157680  27.0821400  32.4053710 145.3126980  28.3636180
  22.3825410 144.4772650  27.8579380  22.9308400 144.2960700  27.0945490
  22.4480720 143.6866760  28.3935690  32.6012190 144.3610530  24.0709610
  31.7272030 144.6945640  23.8682540  32.4922940 143.8883710  24.8961480
  33.5084170 146.5681400  25.4551330  33.1797530 145.7533160  25.0753060
  34.4566470 146.5251210  25.3317020  30.3487010 145.2780370  23.0102520
  29.5658800 145.7525870  23.2899280  30.0549940 144.3735200  22.9015700
  34.9008080 145.9803470  21.0551610  35.3416170 145.9248570  20.2073210
  34.6315670 146.8961480  21.1261790  36.7646650 145.6118710  19.0660430
  36.7035050 144.6679930  18.9191450  37.5438680 145.7198800  19.6113890
  21.6927420 145.5827850  15.5316240  22.4506780 145.6956730  14.9580270
  21.2304590 146.4197050  15.4859670  28.2341230 147.6967120  18.5218550
  27.4215740 147.3224010  18.1814430  28.7382870 146.9412200  18.8239740
  32.7366210 144.3609570  19.7601620  33.3395580 144.9329780  20.2350140
  31.9959200 144.9249010  19.5375520  35.8800810 144.7631130  15.0341900
  36.0751440 145.6614580  15.3009330  35.0930680 144.5318210  15.5274850
  24.0652570 146.1091900  14.0718210  24.5945330 145.3221700  13.9426160
  24.6980890 146.7883090  14.3053740  26.2590410 145.8467040  17.1263600
  25.6293150 145.1454350  17.2933730  25.7195550 146.6071170  16.9096760
  26.3845970 145.1251020  29.5616090  26.1030240 145.6284620  28.7976910
  26.7665670 144.3272770  29.1958220  32.9861430 144.5404600  30.1396560
  32.8726880 144.8599210  31.0348080  33.8031170 144.9417110  29.8433840
  30.0237620 154.3376090   2.3840570  29.2479720 153.8576530   2.6739140
  30.6750550 153.6581740   2.2096730  24.0403450 154.6495900   3.2616330
  23.2088330 154.3944610   3.6612840  24.6484430 154.7206670   3.9974250
  20.4128410 152.2103440   2.9298420  20.9844520 151.4425640   2.9302060
  20.4129950 152.5092200   2.0205030  21.6553280 147.6187800   4.7167350
  21.4756120 146.7213550   4.9970110  21.2533360 148.1659670   5.3914300
  30.4951780 149.8203660   2.6179660  30.8716600 148.9475540   2.5053330
  30.3971290 150.1562360   1.7270100  22.2739950 150.1148300   3.3249690
  22.9550060 150.3786670   3.9437090  21.9588000 149.2749170   3.6587700
  26.4664520 151.1615660   2.4122280  26.9742740 151.6596630   3.0527300
  26.9977760 150.3850860   2.2361640  38.5675450 149.3320850   6.1151630
  37.8627620 149.7202560   5.5966740  38.8333370 150.0271140   6.7172560
  24.7500620 145.8014220   6.6785700  24.7519060 146.3186610   5.8731600
  23.9204930 145.3244400   6.6555630  34.5137380 149.2554480   2.3235540
  33.8092950 149.5439370   2.9038650  34.8749540 150.0654590   1.9635100
  24.4315950 147.5124180   4.6856150  24.7732760 148.3566230   4.3910020
  23.4931760 147.6607920   4.8021490  37.5824300 148.7009270   2.7144750
  36.6349210 148.7348250   2.8460180  37.9074290 149.5148220   3.0994110
  37.0106440 154.0190800   4.7207050  36.1825070 154.0883890   4.2457180
  37.6056920 154.6045110   4.2522880  33.9748450 150.8060120   5.6661920
  33.5619630 151.6313830   5.9201910  33.2424400 150.2205160   5.4738280
  24.8209860 150.3663230   4.3079630  25.3724450 150.4758570   3.5332880
  25.3353370 150.7400830   5.0234860  24.4952590 153.8882590   7.9184970
  24.3560360 154.7605390   8.2872370  23.6133950 153.5455400   7.7732910
  37.5005020 149.8576700   9.5484040  36.8849290 150.3656370   9.0199500
  37.1801440 148.9575030   9.4909980  29.5619340 148.6968590   7.0146230
  29.0998710 148.9051610   7.8266170  29.1597450 147.8827940   6.7116900
  34.5623850 149.9177540   8.1442890  33.7117440 149.6183290   8.4651960
  34.4025640 150.1619550   7.2326710  31.6573560 151.4179290  10.2441680
  31.9826970 150.5843040   9.9043910  32.4453890 151.9407810  10.3920010
  27.3125430 146.3747400   3.2700510  27.6097760 147.2810230   3.1892530
  27.8610990 145.8866180   2.6560080  27.5062960 151.8519220   9.8052430
  27.4106560 150.9113950   9.6552830  28.3494940 152.0734290   9.4100500
  22.6373500 148.2632890   7.9586210  22.2436890 149.1108100   8.1658990
  21.9491900 147.6259260   8.1494850  29.2118550 148.3467860  11.0282950
  28.5216870 148.1540060  11.6629040  29.9550850 148.6302500  11.5607250
  19.9390550 146.1861350   1.9916290  19.6503600 146.7564210   2.7041270
  20.6836310 145.7065800   2.3547520  31.4881520 152.1866300   3.8636870
  30.7562640 152.6953110   4.2126970  31.0905860 151.3696280   3.5625650
  27.9258910 148.8620500   2.2689360  27.9294970 148.4210450   1.4193900
  28.8210030 149.1837830   2.3761180  31.9507430 147.6399980   3.2759810
  31.9680170 148.0908630   4.1201660  31.7023010 146.7405620   3.4893250
  35.3778180 145.0532160   9.1146190  35.7023950 144.3221820   9.6404170
  35.4134690 144.7345800   8.2127180  28.2266880 152.9222280   4.0154770
  28.5937010 152.4480850   4.7616110  28.0371940 153.7963850   4.3563110
  26.0166250 151.9630920   6.3338980  25.7123320 152.8422900   6.5589340
  26.9712710 152.0230710   6.3696420  22.0729980 152.8033660   7.4810340
  21.7144920 153.4687510   8.0683680  21.7784540 151.9717210   7.8522960
  25.2743100 153.2617900  10.3649890  24.9743240 153.4075080   9.4677710
  26.0454340 152.7023190  10.2723280  20.6478550 146.2926900   8.1582440
  19.9337070 146.4923820   8.7635050  21.0673590 145.5166470   8.5297240
  32.1417330 148.7849210   5.9083890  32.5098150 147.9644420   6.2363460
  31.2815530 148.8451100   6.3239540  29.1019320 151.4388800   6.1321860
  29.6004570 151.9134620   6.7973710  29.2442270 150.5152320   6.3391890
  36.3086180 147.6556760   6.9750250  35.8059780 148.3962160   7.3144060
  37.1242840 148.0440760   6.6587040  20.8007390 153.8349530   9.9004630
  21.3046410 153.2556810  10.4720860  20.0614810 154.1189760  10.4381000
  22.8330470 151.9779120  10.7954700  22.8735810 151.6792990  11.7039930
  23.6875970 152.3786730  10.6362220  24.7736280 150.5571220   8.7629190
  24.2432740 150.0662170   8.1352530  25.4424350 150.9855420   8.2287120
  34.1436510 152.3636840  10.5309530  34.7257280 151.6089160  10.4430010
  34.3198280 152.8944280   9.7541010  25.2608580 147.5233590   8.8426480
  25.1665450 146.9054340   8.1177350  24.6805970 148.2499880   8.6156390
  28.0270020 146.0806830   5.8753870  27.5787320 146.1031090   5.0299420
  27.3935220 145.6825850   6.4724170  30.7693470 152.7077340   7.8804150
  30.8889680 152.1118480   8.6198990  31.6287470 152.7447030   7.4605450
  33.1081370 153.2614530   6.4566660  32.5816590 153.7857150   5.8531800
  33.4512710 153.8941920   7.0876390  27.5362240 149.2498690   9.1379970
  28.1261930 148.9414540   9.8257790  26.7182480 148.7778440   9.2939870
  32.3555670 148.8664500   9.3712990  31.6671190 148.2046040   9.3062980
  33.0761690 148.4202770   9.8161450  21.9017060 153.6083360   4.8118160
  22.2690100 153.5210760   5.6914180  21.3327880 152.8449910   4.7125020
  36.7020920 152.0767740   7.8248630  36.4707010 151.8480490   6.9246580
  36.9625470 152.9967290   7.7793520  21.4533060 150.5192450   8.7176580
  20.5589110 150.4859210   9.0570290  21.9930610 150.7179240   9.4827830
  35.1408990 147.3024170  10.6028330  36.0179170 147.3107570  10.9862330
  35.1529830 146.5655010   9.9920680  36.7661980 151.2393580   5.0135900
  35.8164690 151.2057120   5.1280890  36.9474990 152.1493690   4.7785670
  21.9572770 144.7940780   3.0659800  22.6048960 144.2438160   2.6254960
  22.3774610 145.0483930   3.8875610  35.8525110 144.9882140   6.4229440
  36.4897330 145.6016280   6.7888630  36.0000000 145.0242800   5.4778670
  21.7104770 144.9496450   5.8085120  21.3619590 145.4060270   6.5743300
  21.3792470 144.0553580   5.8907550  29.2229590 146.1408330   9.3304540
  29.1618480 146.7330160  10.0799950  30.1629970 146.0334290   9.1854800
  31.8604150 145.7978390   8.9696830  32.4744560 146.1157680   8.3077910
  32.4053710 145.3126980   9.5892690  22.3825410 144.4772650   9.0835890
  22.9308400 144.2960700   8.3202000  22.4480720 143.6866760   9.6192200
  32.6012190 144.3610530   5.2966120  31.7272030 144.6945640   5.0939050
  32.4922940 143.8883710   6.1217990  33.5084170 146.5681400   6.6807840
  33.1797530 145.7533160   6.3009570  34.4566470 146.5251210   6.5573530
  30.3487010 145.2780370   4.2359030  29.5658800 145.7525870   4.5155790
  30.0549940 144.3735200   4.1272210  34.9008080 145.9803470   2.2808120
  35.3416170 145.9248570   1.4329720  34.6315670 146.8961480   2.3518300
  26.3845970 145.1251020  10.7872600  26.1030240 145.6284620  10.0233420
  26.7665670 144.3272770  10.4214730  32.9861430 144.5404600  11.3653070
  32.8726880 144.8599210  12.2604590  33.8031170 144.9417110  11.0690350
  31.8919580 133.7853580 150.6979220  31.8113630 132.8708190 150.4270930
  31.4784000 134.2820650 149.9918930  30.0237620 135.5632600 152.5788490
  29.2479720 135.0833040 152.8687060  30.6750550 134.8838250 152.4044650
  34.0445050 139.9692790 151.3587620  33.5826580 139.1980030 151.6874790
  34.8570600 139.9958860 151.8640070  22.4495400 130.8354300 147.2406640
  21.5612100 131.1770270 147.1386520  22.7336590 130.6354620 146.3487470
  20.4128410 133.4359950 153.1246340  20.9844520 132.6682150 153.1249980
  20.4129950 133.7348710 152.2152950  30.2708360 142.2550800 150.9791610
  29.6519800 142.7108300 150.4086050  31.1260140 142.4102260 150.5781310
  29.4646610 138.2389790 152.5858650  29.3954890 137.2979730 152.4247780
  30.2266470 138.3291200 153.1581220  30.4951780 131.0460170 152.8127580
  30.8716600 130.1732050 152.7001250  30.3971290 131.3818870 151.9218020
  24.6256790 129.4185800 148.2745020  24.7323540 130.3189530 148.5813780
  23.7149150 129.3703770 147.9839670  34.2775900 128.5410610 149.7455920
  35.0985520 128.0507180 149.7881400  34.3109980 129.1308270 150.4987760
  31.1371710 137.1390040 148.3723520  30.5188980 137.6039490 147.8086240
  31.6494960 137.8317520 148.7893030  34.5137380 130.4810990 152.5183460
  33.8092950 130.7695880 153.0986570  34.8749540 131.2911100 152.1583020
  20.5054910 137.8246570 145.7463150  20.1282890 138.3133670 145.0148050
  20.7627980 138.4971850 146.3769680  28.1143840 126.2262960 151.2048660
  28.4218820 125.6709850 150.4884160  27.1844540 126.3607420 151.0221650
  34.9604320 138.6646470 148.5846290  34.8500650 137.7220800 148.7095710
  34.9572570 139.0262110 149.4709050  30.5024600 134.2911790 147.9408780
  29.5753880 134.2249170 148.1697250  30.6549420 135.2291920 147.8264020
  30.4893680 130.5628790 144.9375940  29.5497350 130.7242750 145.0228400
  30.8076940 131.2814470 144.3911930  34.5321890 135.8532090 148.4444030
  33.9134310 135.5151640 147.7970330  34.5146340 135.2091850 149.1523220
  26.1081240 134.8176530 150.7228510  25.7038240 134.1053780 150.2274410
  26.1944360 134.4729770 151.6116550  26.5762940 138.5044090 152.8867720
  26.2791230 137.8989560 152.2075500  27.5262760 138.5421400 152.7757080
  32.7086590 135.0918900 145.4516780  33.1479870 134.2541330 145.3054600
  33.4215010 135.7248300 145.5380920  30.8181970 140.0314970 149.4198020
  31.2577880 140.7739300 149.0053410  30.7568860 140.2741540 150.3436980
  36.2903730 126.3461710 143.7657820  35.9776390 126.4388540 144.6656890
  37.0516200 126.9242740 143.7155250  22.8085870 133.7121510 148.2235160
  22.6883470 134.4383600 147.6116430  22.4986760 132.9424420 147.7463070
  21.6918870 138.5836840 150.4409980  21.2846950 138.7251430 149.5863580
  22.5831880 138.2997000 150.2381190  33.4852150 143.0184090 146.7761030
  33.3253290 142.7287030 147.6742860  33.3198860 142.2424220 146.2406260
  25.9640530 142.7982620 148.5532650  25.7883010 141.8818160 148.3400450
  25.1096270 143.1569910 148.7930450  33.1878280 140.5271650 145.3359030
  32.4943440 140.5248940 144.6761310  33.9301140 140.1030970 144.9053200
  32.7528210 142.1534360 149.4107520  33.2085160 141.3723740 149.7246140
  33.0920730 142.8641180 149.9548700  25.2749530 127.0556580 151.6058830
  24.8317680 127.8366120 151.2743350  25.8334520 127.3786470 152.3129770
  28.3908350 126.6767280 146.4864660  27.7662530 126.6727150 147.2117970
  28.3038470 125.8098240 146.0900630  25.0663750 132.1790150 149.3340080
  24.8404670 131.9627320 150.2386700  24.2856280 132.6118610 148.9886050
  32.2961510 132.1853520 147.9330730  31.6970400 132.9089320 147.7494350
  32.8441120 132.1230300 147.1507180  30.9026380 130.8217060 149.9634010
  31.2955950 131.1389260 149.1502700  31.2643230 129.9428940 150.0778530
  19.9390550 127.4117860 152.1864210  19.6503600 127.9820720 152.8989190
  20.6836310 126.9322310 152.5495440  20.1260780 131.3537980 143.3966930
  20.0435450 132.2968740 143.5381920  19.7743840 131.2112890 142.5179280
  27.9258910 130.0877010 152.4637280  27.9294970 129.6466960 151.6141820
  28.8210030 130.4094340 152.5709100  23.7761290 129.9703500 151.4231490
  23.4361340 130.4478730 152.1798540  23.0138610 129.5168620 151.0632590
  27.9879060 131.0889090 145.4544040  28.1091880 131.0475570 146.4029860
  27.6027570 131.9513240 145.2990770  27.0000560 133.3990230 144.8527340
  26.4317460 132.9508480 144.2263250  27.7089560 133.7583010 144.3192490
  21.0907370 128.8922480 150.3396160  20.8054290 128.5278150 151.1774780
  21.0286230 128.1602940 149.7259300  24.5448040 137.3948420 147.1253750
  23.7710300 136.8546040 146.9652470  25.2742670 136.8755030 146.7871510
  35.3036020 136.3913780 152.9180140  36.0235140 136.8869070 152.5276250
  35.1017840 135.7131670 152.2734010  30.7645960 127.7851740 147.0609530
  29.9510570 127.2864910 146.9854840  30.5707910 128.6249990 146.6445880
  33.4794350 132.1571390 145.3571690  34.3673970 132.4688620 145.1823030
  33.4499440 131.2843640 144.9652270  24.5885440 137.0628800 150.7632560
  25.1064110 136.2597060 150.7089450  24.1369460 137.0007940 151.6049390
  29.4754940 138.3295080 146.0359860  29.8170640 139.0737310 145.5403180
  28.6467650 138.6426200 146.3984690  35.7508620 133.4683230 144.8251550
  35.6672340 133.8997450 143.9747990  36.4702810 133.9281580 145.2578370
  36.7795870 140.3225490 147.5533680  36.1372030 139.6681110 147.8277400
  36.3926530 140.7280580 146.7774350  32.3582350 137.6510920 151.4005370
  32.7106170 137.0539050 150.7406740  31.4744680 137.3255150 151.5713620
  28.4445630 138.4108610 148.8075780  29.1316760 138.9577820 149.1883370
  27.6578050 138.9549340 148.8425390  20.5838030 134.0281430 144.2992860
  21.4532880 134.3106230 144.5828780  20.0928350 134.8417300 144.1841670
  27.7472840 135.4154640 148.4201140  28.2035620 136.2259890 148.6461330
  27.3961050 135.0977780 149.2519630  23.6484620 125.7592290 148.8923660
  23.5199250 125.7510190 149.8408580  22.8246640 126.0975380 148.5414670
  35.1693250 139.2141950 144.0910030  34.9430830 138.4972390 144.6834670
  34.7789450 138.9654390 143.2531780  20.9509280 143.2408810 144.8654490
  21.3106920 143.8398150 144.2111760  20.8101620 143.7868700 145.6389520
  34.7509500 137.1313890 145.7524190  34.4631200 137.5926580 146.5402070
  35.5461670 136.6711660 146.0208410  26.9677900 140.6240010 145.6828160
  26.9588000 141.3569700 145.0672670  26.0476260 140.3771590 145.7755120
  22.5684540 135.8454900 146.4274920  21.9612490 136.5853800 146.4370220
  23.0433890 135.9354260 145.6013120  35.5079360 128.9662660 146.9119370
  34.8792520 129.0708330 146.1977600  35.0131280 129.1859440 147.7013250
  29.9537500 140.6868250 144.3453350  30.0549480 140.4832240 143.4155330
  29.0539240 140.4326530 144.5501130  27.4763390 131.2448610 148.3277250
  26.7679540 131.7134950 148.7690860  27.7607870 130.5870620 148.9622440
  31.5078820 127.9699270 149.7673040  31.3846600 127.9885400 148.8182550
  32.4563380 128.0178210 149.8871440  28.5955610 143.2054570 149.0401020
  28.8497110 143.1675960 148.1180390  27.6468090 143.0787900 149.0329270
  25.6798410 129.5533690 145.7027960  26.5288940 129.9903840 145.6368150
  25.3129680 129.8653950 146.5300020  34.6008190 134.1246450 150.6159530
  33.6598330 134.1396680 150.7907220  34.9152260 133.3382410 151.0619830
  24.5789830 135.8066050 144.1763490  25.3453100 135.6947410 144.7388920
  24.6564520 135.1104020 143.5240260  23.2736590 133.2391120 144.8596380
  23.3540180 132.2918630 144.9713780  24.1656340 133.5698000 144.9657040
  36.6033770 141.2955300 152.2913790  36.7281190 142.1186470 152.7637600
  37.4699330 141.0846030 151.9437940  24.0751300 143.3886510 151.9630920
  24.8113780 142.8401970 152.2339490  24.4592220 144.2542520 151.8236910
  20.9596780 139.4560080 147.8372430  20.0336560 139.6981220 147.8277840
  21.4253210 140.2834340 147.7157180  27.1853610 142.5616820 143.7856490
  27.9782220 142.8505650 143.3338280  26.6657960 142.1308990 143.1068970
  36.2383780 141.7886950 145.2093230  35.9525290 141.3752090 144.3947410
  36.0403330 142.7174660 145.0893750  27.7031010 137.7820230 143.6498840
  27.5981650 137.1672580 144.3760220  27.5355230 137.2586120 142.8661850
  30.9433740 136.8440260 144.2540830  30.3943840 137.2909560 144.8983570
  31.5653000 136.3389510 144.7778500  26.6108860 135.8031180 146.1506130
  27.0325280 135.6371050 146.9937520  26.7359700 134.9931410 145.6561270
  29.1236500 134.8268790 143.3983230  29.6442160 134.1117810 143.0324380
  29.7704900 135.4654660 143.6983740  25.5067760 131.8764410 143.0964290
  25.3056820 131.0131770 143.4577630  25.3359810 131.7897770 142.1585890
  32.9856070 126.6872640 145.6251170  33.2658360 125.8440540 145.9810590
  32.2121800 126.9195750 146.1389920  24.3050560 128.9765030 143.0842170
  24.6076460 128.9832460 142.1761320  25.0445150 128.6262890 143.5809830
  27.5235490 127.9199650 144.0698370  27.1757490 127.2423640 143.4900820
  27.7248260 127.4589160 144.8841760  29.6884530 142.9080400 145.6884970
  30.5835320 143.2465370 145.7103730  29.7202160 142.1859810 145.0609250
  23.3280690 138.2807450 143.9171970  23.7655560 138.8237120 144.5729550
  23.8128420 137.4554400 143.9268310  20.5426490 141.0696480 151.3692230
  20.8729500 140.2017540 151.1370870  20.9717490 141.2755000 152.1997190
  25.1388410 139.4005490 149.0294200  24.8383950 139.2770460 149.9298110
  25.0325900 138.5414080 148.6209930  37.9080330 139.1801890 143.7320880
  37.0773290 139.2478540 144.2028110  38.0852160 140.0706010 143.4287740
  37.3636790 135.9249370 146.2355080  38.1255700 136.4946020 146.3414770
  37.3791160 135.3576570 147.0063390  20.8641130 134.4487300 150.4662740
  20.2089970 134.1798940 149.8222440  21.7019080 134.3391780 150.0164720
  38.3696760 136.7799470 151.0797010  38.7405590 135.9966790 150.6732980
  39.0098690 137.4688570 150.9014310  37.4155960 136.2183740 143.3927600
  37.6904800 137.1262620 143.2646820  37.2266700 136.1546270 144.3289590
  33.8131570 129.2428590 144.6881230  34.2316450 129.0559570 143.8477890
  33.5067630 128.3907640 144.9984160  37.3121300 134.1552730 148.3857030
  36.9364900 133.3880660 147.9538320  36.5824420 134.5375430 148.8731960
  20.0779210 131.6586230 146.4088070  19.1743290 131.9216430 146.2339730
  20.5619830 131.9297400 145.6288030  36.5872260 132.3810220 151.6864270
  37.1109740 131.8872870 151.0554440  37.1731680 132.5160580 152.4311840
  22.6206420 130.7151770 144.3182450  23.3298120 130.2934990 143.8329730
  21.9046360 130.7827000 143.6865800  22.2680580 126.7691100 143.3585100
  22.9908710 127.3100040 143.6766320  22.5405100 126.4954520 142.4826640
  36.0772230 131.6383570 147.6256680  36.5731350 131.4054440 148.4105560
  35.8788300 130.7995410 147.2094320  37.5059390 130.2744520 150.1594360
  37.3958670 130.1200560 151.0976630  38.2666980 129.7465460 149.9169770
  38.3949660 128.1052440 143.4000500  39.3198970 127.9733620 143.1918790
  38.3725450 128.1845260 144.3536950  38.4688150 128.8763100 146.0257210
  37.6739650 128.8108220 146.5550120  38.6731430 129.8113740 146.0142560
  35.4106570 142.9154650 150.0195600  36.0065640 142.5939220 149.3430020
  35.6684720 142.4426470 150.8108870  34.9008080 127.2059980 152.4756040
  35.3416170 127.1505080 151.6277640  34.6315670 128.1217990 152.5466220
  36.7646650 126.8375220 150.4864860  36.7035050 125.8936440 150.3395880
  37.5438680 126.9455310 151.0318320  21.0699400 142.9767580 149.4488810
  20.9021440 142.3438260 150.1470700  20.2033910 143.1826980 149.0983000
  21.6927420 126.8084360 146.9520670  22.4506780 126.9213240 146.3784700
  21.2304590 127.6453560 146.9064100  28.2341230 128.9223630 149.9422980
  27.4215740 128.5480520 149.6018860  28.7382870 128.1668710 150.2444170
  32.7366210 125.5866080 151.1806050  33.3395580 126.1586290 151.6554570
  31.9959200 126.1505520 150.9579950  35.8800810 125.9887640 146.4546330
  36.0751440 126.8871090 146.7213760  35.0930680 125.7574720 146.9479280
  22.6762100 141.6700810 146.8938950  22.1509720 142.0508840 146.1900910
  22.6006680 142.2951580 147.6148660  24.0652570 127.3348410 145.4922640
  24.5945330 126.5478210 145.3630590  24.6980890 128.0139600 145.7258170
  26.2590410 127.0723550 148.5468030  25.6293150 126.3710860 148.7138160
  25.7195550 127.8327680 148.3301190  37.4327420 143.2288350 148.2152890
  37.6079610 142.5426090 147.5713810  36.7348990 143.7535400 147.8229560
  25.2755070 143.6183190 145.7688200  26.0073890 143.3342470 145.2212090
  25.5348740 143.3796470 146.6587580  24.4369860 139.7347920 145.7734530
  23.8078740 140.2033020 146.3220360  24.5517690 138.8897140 146.2080720
  31.8919580 133.7853580 131.9235730  31.8113630 132.8708190 131.6527440
  31.4784000 134.2820650 131.2175440  30.0237620 135.5632600 133.8045000
  29.2479720 135.0833040 134.0943570  30.6750550 134.8838250 133.6301160
  24.0403450 135.8752410 134.6820760  23.2088330 135.6201120 135.0817270
  24.6484430 135.9463180 135.4178680  34.0445050 139.9692790 132.5844130
  33.5826580 139.1980030 132.9131300  34.8570600 139.9958860 133.0896580
  24.0204710 139.9092500 134.8778780  24.3232750 139.0190240 134.6989000
  24.7648300 140.4662720 134.6501030  22.4495400 130.8354300 128.4663150
  21.5612100 131.1770270 128.3643030  22.7336590 130.6354620 127.5743980
  20.4128410 133.4359950 134.3502850  20.9844520 132.6682150 134.3506490
  20.4129950 133.7348710 133.4409460  30.2708360 142.2550800 132.2048120
  29.6519800 142.7108300 131.6342560  31.1260140 142.4102260 131.8037820
  29.4646610 138.2389790 133.8115160  29.3954890 137.2979730 133.6504290
  30.2266470 138.3291200 134.3837730  21.6553280 128.8444310 136.1371780
  21.4756120 127.9470060 136.4174540  21.2533360 129.3916180 136.8118730
  30.4951780 131.0460170 134.0384090  30.8716600 130.1732050 133.9257760
  30.3971290 131.3818870 133.1474530  24.6256790 129.4185800 129.5001530
  24.7323540 130.3189530 129.8070290  23.7149150 129.3703770 129.2096180
  34.2775900 128.5410610 130.9712430  35.0985520 128.0507180 131.0137910
  34.3109980 129.1308270 131.7244270  22.2739950 131.3404810 134.7454120
  22.9550060 131.6043180 135.3641520  21.9588000 130.5005680 135.0792130
  26.4664520 132.3872170 133.8326710  26.9742740 132.8853140 134.4731730
  26.9977760 131.6107370 133.6566070  38.5675450 130.5577360 137.5356060
  37.8627620 130.9459070 137.0171170  38.8333370 131.2527650 138.1376990
  24.7500620 127.0270730 138.0990130  24.7519060 127.5443120 137.2936030
  23.9204930 126.5500910 138.0760060  31.1371710 137.1390040 129.5980030
  30.5188980 137.6039490 129.0342750  31.6494960 137.8317520 130.0149540
  26.0003470 136.6665910 136.2763630  25.6672850 137.2934830 136.9184700
  26.1770150 137.1927790 135.4965300  34.5137380 130.4810990 133.7439970
  33.8092950 130.7695880 134.3243080  34.8749540 131.2911100 133.3839530
  24.4315950 128.7380690 136.1060580  24.7732760 129.5822740 135.8114450
  23.4931760 128.8864430 136.2225920  25.2122570 138.6346710 138.0912810
  25.8296570 139.3097790 137.8097260  24.3515690 139.0434690 138.0000310
  20.5054910 137.8246570 126.9719660  20.1282890 138.3133670 126.2404560
  20.7627980 138.4971850 127.6026190  36.1300160 140.0986120 136.0067450
  35.4463680 140.7685230 135.9984120  36.6694450 140.2966770 135.2412310
  37.5824300 129.9265780 134.1349180  36.6349210 129.9604760 134.2664610
  37.9074290 130.7404730 134.5198540  28.1143840 126.2262960 132.4305170
  28.4218820 125.6709850 131.7140670  27.1844540 126.3607420 132.2478160
  33.6658900 141.9430250 134.7212630  33.6786060 141.5392540 133.8534890
  33.1134120 142.7177540 134.6174060  34.9604320 138.6646470 129.8102800
  34.8500650 137.7220800 129.9352220  34.9572570 139.0262110 130.6965560
  33.0644340 136.8460090 136.0495240  33.4813130 136.6320200 135.2148700
  33.7884160 137.1032880 136.6203860  30.5024600 134.2911790 129.1665290
  29.5753880 134.2249170 129.3953760  30.6549420 135.2291920 129.0520530
  30.4893680 130.5628790 126.1632450  29.5497350 130.7242750 126.2484910
  30.8076940 131.2814470 125.6168440  37.0106440 135.2447310 136.1411480
  36.1825070 135.3140400 135.6661610  37.6056920 135.8301620 135.6727310
  34.5321890 135.8532090 129.6700540  33.9134310 135.5151640 129.0226840
  34.5146340 135.2091850 130.3779730  33.9748450 132.0316630 137.0866350
  33.5619630 132.8570340 137.3406340  33.2424400 131.4461670 136.8942710
  26.1081240 134.8176530 131.9485020  25.7038240 134.1053780 131.4530920
  26.1944360 134.4729770 132.8373060  26.5762940 138.5044090 134.1124230
  26.2791230 137.8989560 133.4332010  27.5262760 138.5421400 134.0013590
  24.8209860 131.5919740 135.7284060  25.3724450 131.7015080 134.9537310
  25.3353370 131.9657340 136.4439290  34.6648550 142.0775960 137.7747330
  34.1879110 142.8848150 137.5819940  33.9810340 141.4254290 137.9273540
  25.6681370 138.2425780 140.7632030  24.7709900 138.4665750 141.0105430
  25.6934240 138.3660720 139.8143430  32.7086590 135.0918900 126.6773290
  33.1479870 134.2541330 126.5311110  33.4215010 135.7248300 126.7637430
  24.4952590 135.1139100 139.3389400  24.3560360 135.9861900 139.7076800
  23.6133950 134.7711910 139.1937340  30.8181970 140.0314970 130.6454530
  31.2577880 140.7739300 130.2309920  30.7568860 140.2741540 131.5693490
  26.2932940 141.0560800 141.5474550  26.2648370 141.4603750 140.6802980
  26.1297910 140.1271160 141.3846150  36.2903730 126.3461710 124.9914330
  35.9776390 126.4388540 125.8913400  37.0516200 126.9242740 124.9411760
  22.8085870 133.7121510 129.4491670  22.6883470 134.4383600 128.8372940
  22.4986760 132.9424420 128.9719580  38.2447760 141.8387900 142.8438720
  38.7207480 142.3170790 143.5227800  38.8654920 141.7705390 142.1184220
  20.4471240 136.8836650 135.2560310  20.5251660 137.0185420 134.3116030
  21.0612920 136.1752540 135.4488430  21.6918870 138.5836840 131.6666490
  21.2846950 138.7251430 130.8120090  22.5831880 138.2997000 131.4637700
  37.6481010 139.0300750 140.0038730  37.7744070 138.7912630 139.0855910
  37.6902390 138.1985290 140.4760810  31.5097750 142.7328750 138.5733540
  32.0242420 142.6436760 139.3755970  30.6666830 143.0788450 138.8661450
  33.4852150 143.0184090 128.0017540  33.3253290 142.7287030 128.8999370
  33.3198860 142.2424220 127.4662770  25.9640530 142.7982620 129.7789160
  25.7883010 141.8818160 129.5656960  25.1096270 143.1569910 130.0186960
  33.1878280 140.5271650 126.5615540  32.4943440 140.5248940 125.9017820
  33.9301140 140.1030970 126.1309710  32.7528210 142.1534360 130.6364030
  33.2085160 141.3723740 130.9502650  33.0920730 142.8641180 131.1805210
  37.5005020 131.0833210 140.9688470  36.8849290 131.5912880 140.4403930
  37.1801440 130.1831540 140.9114410  20.5030760 137.9250820 137.7954770
  20.6661800 137.4556180 136.9774140  20.9683210 137.4174380 138.4603610
  25.2749530 127.0556580 132.8315340  24.8317680 127.8366120 132.4999860
  25.8334520 127.3786470 133.5386280  29.5619340 129.9225100 138.4350660
  29.0998710 130.1308120 139.2470600  29.1597450 129.1084450 138.1321330
  34.5623850 131.1434050 139.5647320  33.7117440 130.8439800 139.8856390
  34.4025640 131.3876060 138.6531140  31.6573560 132.6435800 141.6646110
  31.9826970 131.8099550 141.3248340  32.4453890 133.1664320 141.8124440
  28.3908350 126.6767280 127.7121170  27.7662530 126.6727150 128.4374480
  28.3038470 125.8098240 127.3157140  27.3125430 127.6003910 134.6904940
  27.6097760 128.5066740 134.6096960  27.8610990 127.1122690 134.0764510
  25.0663750 132.1790150 130.5596590  24.8404670 131.9627320 131.4643210
  24.2856280 132.6118610 130.2142560  32.2961510 132.1853520 129.1587240
  31.6970400 132.9089320 128.9750860  32.8441120 132.1230300 128.3763690
  27.5062960 133.0775730 141.2256860  27.4106560 132.1370460 141.0757260
  28.3494940 133.2990800 140.8304930  30.9026380 130.8217060 131.1890520
  31.2955950 131.1389260 130.3759210  31.2643230 129.9428940 131.3035040
  22.6373500 129.4889400 139.3790640  22.2436890 130.3364610 139.5863420
  21.9491900 128.8515770 139.5699280  29.2118550 129.5724370 142.4487380
  28.5216870 129.3796570 143.0833470  29.9550850 129.8559010 142.9811680
  19.9390550 127.4117860 133.4120720  19.6503600 127.9820720 134.1245700
  20.6836310 126.9322310 133.7751950  20.1260780 131.3537980 124.6223440
  20.0435450 132.2968740 124.7638430  19.7743840 131.2112890 123.7435790
  31.4881520 133.4122810 135.2841300  30.7562640 133.9209620 135.6331400
  31.0905860 132.5952790 134.9830080  27.9258910 130.0877010 133.6893790
  27.9294970 129.6466960 132.8398330  28.8210030 130.4094340 133.7965610
  23.7761290 129.9703500 132.6488000  23.4361340 130.4478730 133.4055050
  23.0138610 129.5168620 132.2889100  27.9879060 131.0889090 126.6800550
  28.1091880 131.0475570 127.6286370  27.6027570 131.9513240 126.5247280
  31.9507430 128.8656490 134.6964240  31.9680170 129.3165140 135.5406090
  31.7023010 127.9662130 134.9097680  27.0000560 133.3990230 126.0783850
  26.4317460 132.9508480 125.4519760  27.7089560 133.7583010 125.5449000
  35.3778180 126.2788670 140.5350620  35.7023950 125.5478330 141.0608600
  35.4134690 125.9602310 139.6331610  22.0769740 137.3002250 139.9550580
  21.6924530 136.6595920 140.5533540  22.3881930 138.0038370 140.5245310
  28.2266880 134.1478790 135.4359200  28.5937010 133.6737360 136.1820540
  28.0371940 135.0220360 135.7767540  21.0907370 128.8922480 131.5652670
  20.8054290 128.5278150 132.4031290  21.0286230 128.1602940 130.9515810
  26.0166250 133.1887430 137.7543410  25.7123320 134.0679410 137.9793770
  26.9712710 133.2487220 137.7900850  24.5448040 137.3948420 128.3510260
  23.7710300 136.8546040 128.1908980  25.2742670 136.8755030 128.0128020
  35.3036020 136.3913780 134.1436650  36.0235140 136.8869070 133.7532760
  35.1017840 135.7131670 133.4990520  30.7645960 127.7851740 128.2866040
  29.9510570 127.2864910 128.2111350  30.5707910 128.6249990 127.8702390
  30.6854820 136.4622840 140.0305650  30.6192130 135.5418510 139.7763240
  30.0559960 136.5598280 140.7450290  33.4794350 132.1571390 126.5828200
  34.3673970 132.4688620 126.4079540  33.4499440 131.2843640 126.1908780
  24.5885440 137.0628800 131.9889070  25.1064110 136.2597060 131.9345960
  24.1369460 137.0007940 132.8305900  29.4754940 138.3295080 127.2616370
  29.8170640 139.0737310 126.7659690  28.6467650 138.6426200 127.6241200
  22.0729980 134.0290170 138.9014770  21.7144920 134.6944020 139.4888110
  21.7784540 133.1973720 139.2727390  25.2743100 134.4874410 141.7854320
  24.9743240 134.6331590 140.8882140  26.0454340 133.9279700 141.6927710
  30.6171550 139.2843410 139.7809450  30.6316090 138.3524370 139.5628360
  29.9096650 139.3703170 140.4199220  35.7508620 133.4683230 126.0508060
  35.6672340 133.8997450 125.2004500  36.4702810 133.9281580 126.4834880
  36.8282760 135.9250750 139.1278030  36.1030950 136.5179530 138.9307420
  37.3558220 135.9174290 138.3291400  36.7795870 140.3225490 128.7790190
  36.1372030 139.6681110 129.0533910  36.3926530 140.7280580 128.0030860
  32.3582350 137.6510920 132.6261880  32.7106170 137.0539050 131.9663250
  31.4744680 137.3255150 132.7970130  28.4445630 138.4108610 130.0332290
  29.1316760 138.9577820 130.4139880  27.6578050 138.9549340 130.0681900
  20.5838030 134.0281430 125.5249370  21.4532880 134.3106230 125.8085290
  20.0928350 134.8417300 125.4098180  27.7472840 135.4154640 129.6457650
  28.2035620 136.2259890 129.8717840  27.3961050 135.0977780 130.4776140
  30.0505450 140.9260980 136.8749950  30.6947670 141.1320360 137.5523370
  30.4134890 140.1649380 136.4220800  23.6484620 125.7592290 130.1180170
  23.5199250 125.7510190 131.0665090  22.8246640 126.0975380 129.7671180
  31.3237530 138.9293330 135.5927400  31.9659760 138.2286490 135.7059570
  31.8486880 139.7091770 135.4124290  35.1693250 139.2141950 125.3166540
  34.9430830 138.4972390 125.9091180  34.7789450 138.9654390 124.4788290
  33.0975150 139.7288230 138.7963460  33.4331390 140.3154920 139.4741380
  32.1775490 139.5980940 139.0261250  20.9509280 143.2408810 126.0911000
  21.3106920 143.8398150 125.4368270  20.8101620 143.7868700 126.8646030
  20.6478550 127.5183410 139.5786870  19.9337070 127.7180330 140.1839480
  21.0673590 126.7422980 139.9501670  34.7509500 137.1313890 126.9780700
  34.4631200 137.5926580 127.7658580  35.5461670 136.6711660 127.2464920
  20.9351140 141.5063670 140.5653400  21.0442260 140.5658410 140.4248790
  20.2831700 141.7718420 139.9167130  28.9263730 139.7779560 141.9651520
  28.6060600 139.0588800 142.5097210  28.2522090 140.4534630 142.0387580
  26.9677900 140.6240010 126.9084670  26.9588000 141.3569700 126.2929180
  26.0476260 140.3771590 127.0011630  22.5684540 135.8454900 127.6531430
  21.9612490 136.5853800 127.6626730  23.0433890 135.9354260 126.8269630
  32.1417330 130.0105720 137.3288320  32.5098150 129.1900930 137.6567890
  31.2815530 130.0707610 137.7443970  35.5079360 128.9662660 128.1375880
  34.8792520 129.0708330 127.4234110  35.0131280 129.1859440 128.9269760
  29.9537500 140.6868250 125.5709860  30.0549480 140.4832240 124.6411840
  29.0539240 140.4326530 125.7757640  27.4763390 131.2448610 129.5533760
  26.7679540 131.7134950 129.9947370  27.7607870 130.5870620 130.1878950
  29.1019320 132.6645310 137.5526290  29.6004570 133.1391130 138.2178140
  29.2442270 131.7408830 137.7596320  31.5078820 127.9699270 130.9929550
  31.3846600 127.9885400 130.0439060  32.4563380 128.0178210 131.1127950
  28.5955610 143.2054570 130.2657530  28.8497110 143.1675960 129.3436900
  27.6468090 143.0787900 130.2585780  25.6798410 129.5533690 126.9284470
  26.5288940 129.9903840 126.8624660  25.3129680 129.8653950 127.7556530
  36.3086180 128.8813270 138.3954680  35.8059780 129.6218670 138.7348490
  37.1242840 129.2697270 138.0791470  34.6008190 134.1246450 131.8416040
  33.6598330 134.1396680 132.0163730  34.9152260 133.3382410 132.2876340
  24.5789830 135.8066050 125.4020000  25.3453100 135.6947410 125.9645430
  24.6564520 135.1104020 124.7496770  23.2736590 133.2391120 126.0852890
  23.3540180 132.2918630 126.1970290  24.1656340 133.5698000 126.1913550
  36.6033770 141.2955300 133.5170300  36.7281190 142.1186470 133.9894110
  37.4699330 141.0846030 133.1694450  24.0751300 143.3886510 133.1887430
  24.8113780 142.8401970 133.4596000  24.4592220 144.2542520 133.0493420
  20.9596780 139.4560080 129.0628940  20.0336560 139.6981220 129.0534350
  21.4253210 140.2834340 128.9413690  23.0809580 142.5732580 142.3773010
  23.8822310 142.8944630 142.7908410  22.5661400 142.2128160 143.0992920
  27.1853610 142.5616820 125.0113000  27.9782220 142.8505650 124.5594790
  26.6657960 142.1308990 124.3325480  31.9174210 138.6812450 142.3248420
  31.3112370 138.7044050 141.5844170  31.6128320 137.9495490 142.8615670
  33.3474580 142.4092740 140.9357830  34.2996330 142.3250760 140.8858070
  33.2002800 143.0734450 141.6091620  36.2383780 141.7886950 126.4349740
  35.9525290 141.3752090 125.6203920  36.0403330 142.7174660 126.3150260
  20.8007390 135.0606040 141.3209060  21.3046410 134.4813320 141.8925290
  20.0614810 135.3446270 141.8585430  27.7031010 137.7820230 124.8755350
  27.5981650 137.1672580 125.6016730  27.5355230 137.2586120 124.0918360
  27.8545330 136.4677030 140.8544580  27.0891000 137.0362030 140.7699250
  28.0361290 136.1753240 139.9612810  30.9433740 136.8440260 125.4797340
  30.3943840 137.2909560 126.1240080  31.5653000 136.3389510 126.0035010
  34.9968680 138.1982360 141.4119600  35.7378150 138.5358120 140.9087060
  34.2341360 138.3674420 140.8589370  22.8330470 133.2035630 142.2159130
  22.8735810 132.9049500 143.1244360  23.6875970 133.6043240 142.0566650
  26.6108860 135.8031180 127.3762640  27.0325280 135.6371050 128.2194030
  26.7359700 134.9931410 126.8817780  24.7736280 131.7827730 140.1833620
  24.2432740 131.2918680 139.5556960  25.4424350 132.2111930 139.6491550
  29.1236500 134.8268790 124.6239740  29.6442160 134.1117810 124.2580890
  29.7704900 135.4654660 124.9240250  33.6714340 136.2497190 139.9474810
  34.0855360 136.4042270 140.7965230  32.7365340 136.3752410 140.1100590
  34.1436510 133.5893350 141.9513960  34.7257280 132.8345670 141.8634440
  34.3198280 134.1200790 141.1745440  25.2608580 128.7490100 140.2630910
  25.1665450 128.1310850 139.5381780  24.6805970 129.4756390 140.0360820
  28.0270020 127.3063340 137.2958300  27.5787320 127.3287600 136.4503850
  27.3935220 126.9082360 137.8928600  28.4329570 136.2017670 137.9170740
  28.8517680 137.0450400 137.7446980  27.5138200 136.3389710 137.6877520
  30.7693470 133.9333850 139.3008580  30.8889680 133.3374990 140.0403420
  31.6287470 133.9703540 138.8809880  33.1081370 134.4871040 137.8771090
  32.5816590 135.0113660 137.2736230  33.4512710 135.1198430 138.5080820
  25.5067760 131.8764410 124.3220800  25.3056820 131.0131770 124.6834140
  25.3359810 131.7897770 123.3842400  26.2836990 142.5070680 139.0328470
  25.7458080 143.2316740 138.7137170  26.5370950 142.0301020 138.2425810
  27.5362240 130.4755200 140.5584400  28.1261930 130.1671050 141.2462220
  26.7182480 130.0034950 140.7144300  32.3555670 130.0921010 140.7917420
  31.6671190 129.4302550 140.7267410  33.0761690 129.6459280 141.2365880
  32.9856070 126.6872640 126.8507680  33.2658360 125.8440540 127.2067100
  32.2121800 126.9195750 127.3646430  24.3050560 128.9765030 124.3098680
  24.6076460 128.9832460 123.4017830  25.0445150 128.6262890 124.8066340
  29.1399200 143.7421890 139.2915120  29.0657900 144.6457030 139.5987490
  28.2378040 143.4233790 139.2637190  27.5235490 127.9199650 125.2954880
  27.1757490 127.2423640 124.7157330  27.7248260 127.4589160 126.1098270
  29.6884530 142.9080400 126.9141480  30.5835320 143.2465370 126.9360240
  29.7202160 142.1859810 126.2865760  23.3280690 138.2807450 125.1428480
  23.7655560 138.8237120 125.7986060  23.8128420 137.4554400 125.1524820
  20.5426490 141.0696480 132.5948740  20.8729500 140.2017540 132.3627380
  20.9717490 141.2755000 133.4253700  25.1388410 139.4005490 130.2550710
  24.8383950 139.2770460 131.1554620  25.0325900 138.5414080 129.8466440
  21.0316700 141.9367070 135.3330370  20.5947690 142.1167870 136.1654520
  21.5994380 142.6941690 135.1912090  36.6678880 141.4384070 139.6207680
  36.0680870 141.4976630 138.8771600  36.7972780 140.4989050 139.7504530
  37.9080330 139.1801890 124.9577390  37.0773290 139.2478540 125.4284620
  38.0852160 140.0706010 124.6544250  37.3636790 135.9249370 127.4611590
  38.1255700 136.4946020 127.5671280  37.3791160 135.3576570 128.2319900
  20.8641130 134.4487300 131.6919250  20.2089970 134.1798940 131.0478950
  21.7019080 134.3391780 131.2421230  38.3696760 136.7799470 132.3053520
  38.7405590 135.9966790 131.8989490  39.0098690 137.4688570 132.1270820
  35.3530520 138.1636050 137.7183840  34.5390360 138.5933210 137.9809630
  35.7604720 138.7754460 137.1052890  37.4155960 136.2183740 124.6184110
  37.6904800 137.1262620 124.4903330  37.2266700 136.1546270 125.5546100
  33.8131570 129.2428590 125.9137740  34.2316450 129.0559570 125.0734400
  33.5067630 128.3907640 126.2240670  37.3121300 134.1552730 129.6113540
  36.9364900 133.3880660 129.1794830  36.5824420 134.5375430 130.0988470
  21.9017060 134.8339870 136.2322590  22.2690100 134.7467270 137.1118610
  21.3327880 134.0706420 136.1329450  36.7020920 133.3024250 139.2453060
  36.4707010 133.0737000 138.3451010  36.9625470 134.2223800 139.1997950
  21.4533060 131.7448960 140.1381010  20.5589110 131.7115720 140.4774720
  21.9930610 131.9435750 140.9032260  35.1408990 128.5280680 142.0232760
  36.0179170 128.5364080 142.4066760  35.1529830 127.7911520 141.4125110
  20.0779210 131.6586230 127.6344580  19.1743290 131.9216430 127.4596240
  20.5619830 131.9297400 126.8544540  36.5872260 132.3810220 132.9120780
  37.1109740 131.8872870 132.2810950  37.1731680 132.5160580 133.6568350
  36.7661980 132.4650090 136.4340330  35.8164690 132.4313630 136.5485320
  36.9474990 133.3750200 136.1990100  22.6206420 130.7151770 125.5438960
  23.3298120 130.2934990 125.0586240  21.9046360 130.7827000 124.9122310
  22.2680580 126.7691100 124.5841610  22.9908710 127.3100040 124.9022830
  22.5405100 126.4954520 123.7083150  36.0772230 131.6383570 128.8513190
  36.5731350 131.4054440 129.6362070  35.8788300 130.7995410 128.4350830
  21.9572770 126.0197290 134.4864230  22.6048960 125.4694670 134.0459390
  22.3774610 126.2740440 135.3080040  37.5059390 130.2744520 131.3850870
  37.3958670 130.1200560 132.3233140  38.2666980 129.7465460 131.1426280
  35.8525110 126.2138650 137.8433870  36.4897330 126.8272790 138.2093060
  36.0000000 126.2499310 136.8983100  38.3949660 128.1052440 124.6257010
  39.3198970 127.9733620 124.4175300  38.3725450 128.1845260 125.5793460
  38.4688150 128.8763100 127.2513720  37.6739650 128.8108220 127.7806630
  38.6731430 129.8113740 127.2399070  35.4106570 142.9154650 131.2452110
  36.0065640 142.5939220 130.5686530  35.6684720 142.4426470 132.0365380
  21.7104770 126.1752960 137.2289550  21.3619590 126.6316780 137.9947730
  21.3792470 125.2810090 137.3111980  23.3169140 139.3472560 141.3942740
  23.2738770 138.9765470 142.2757200  23.4480150 140.2850130 141.5344560
  27.0175170 140.9032150 136.9952460  26.7766530 141.1706710 136.1082980
  27.9577810 141.0737880 137.0503320  29.2229590 127.3664840 140.7508970
  29.1618480 127.9586670 141.5004380  30.1629970 127.2590800 140.6059230
  31.8604150 127.0234900 140.3901260  32.4744560 127.3414190 139.7282340
  32.4053710 126.5383490 141.0097120  38.2779330 142.9226530 137.7963100
  37.7837610 143.3195400 137.0790230  37.6692620 142.2975740 138.1900380
  22.3825410 125.7029160 140.5040320  22.9308400 125.5217210 139.7406430
  22.4480720 124.9123270 141.0396630  23.1557170 142.2934810 138.5140520
  22.5617490 142.1619510 139.2530560  23.1481010 141.4572950 138.0482620
  32.6012190 125.5867040 136.7170550  31.7272030 125.9202150 136.5143480
  32.4922940 125.1140220 137.5422420  33.5084170 127.7937910 138.1012270
  33.1797530 126.9789670 137.7214000  34.4566470 127.7507720 137.9777960
  35.9618780 143.5649950 135.0749840  35.5021750 144.3165760 134.7007860
  35.3331240 142.8456420 135.0164640  22.7869400 139.6593190 137.4648560
  22.0603460 139.0398480 137.3974510  22.8478550 140.0533800 136.5946640
  26.3914500 141.8738190 134.2497970  26.9079520 141.2625550 133.7246230
  27.0411880 142.3766970 134.7408980  29.1310000 142.7646680 135.0766950
  29.4187810 142.5100980 134.1999960  29.6433220 142.2124040 135.6672520
  30.3487010 126.5036880 135.6563460  29.5658800 126.9782380 135.9360220
  30.0549940 125.5991710 135.5476640  34.9008080 127.2059980 133.7012550
  35.3416170 127.1505080 132.8534150  34.6315670 128.1217990 133.7722730
  36.7646650 126.8375220 131.7121370  36.7035050 125.8936440 131.5652390
  37.5438680 126.9455310 132.2574830  21.0699400 142.9767580 130.6745320
  20.9021440 142.3438260 131.3727210  20.2033910 143.1826980 130.3239510
  21.6927420 126.8084360 128.1777180  22.4506780 126.9213240 127.6041210
  21.2304590 127.6453560 128.1320610  28.2341230 128.9223630 131.1679490
  27.4215740 128.5480520 130.8275370  28.7382870 128.1668710 131.4700680
  32.7366210 125.5866080 132.4062560  33.3395580 126.1586290 132.8811080
  31.9959200 126.1505520 132.1836460  35.8800810 125.9887640 127.6802840
  36.0751440 126.8871090 127.9470270  35.0930680 125.7574720 128.1735790
  22.6762100 141.6700810 128.1195460  22.1509720 142.0508840 127.4157420
  22.6006680 142.2951580 128.8405170  24.0652570 127.3348410 126.7179150
  24.5945330 126.5478210 126.5887100  24.6980890 128.0139600 126.9514680
  26.2590410 127.0723550 129.7724540  25.6293150 126.3710860 129.9394670
  25.7195550 127.8327680 129.5557700  29.1982360 143.6862780 142.4435150
  30.1249670 143.4507050 142.4871110  29.1832790 144.5134780 141.9621180
  37.4327420 143.2288350 129.4409400  37.6079610 142.5426090 128.7970320
  36.7348990 143.7535400 129.0486070  26.3845970 126.3507530 142.2077030
  26.1030240 126.8541130 141.4437850  26.7665670 125.5529280 141.8419160
  25.2755070 143.6183190 126.9944710  26.0073890 143.3342470 126.4468600
  25.5348740 143.3796470 127.8844090  24.4369860 139.7347920 126.9991040
  23.8078740 140.2033020 127.5476870  24.5517690 138.8897140 127.4337230
  32.9861430 125.7661110 142.7857500  32.8726880 126.0855720 143.6809020
  33.8031170 126.1673620 142.4894780  35.7659920 142.9132640 142.2676190
  36.5585240 142.4181870 142.0602150  36.0593070 143.5922780 142.8751800
  31.8919580 133.7853580 113.1492240  31.8113630 132.8708190 112.8783950
  31.4784000 134.2820650 112.4431950  30.0237620 135.5632600 115.0301510
  29.2479720 135.0833040 115.3200080  30.6750550 134.8838250 114.8557670
  24.0403450 135.8752410 115.9077270  23.2088330 135.6201120 116.3073780
  24.6484430 135.9463180 116.6435190  34.0445050 139.9692790 113.8100640
  33.5826580 139.1980030 114.1387810  34.8570600 139.9958860 114.3153090
  24.0204710 139.9092500 116.1035290  24.3232750 139.0190240 115.9245510
  24.7648300 140.4662720 115.8757540  22.4495400 130.8354300 109.6919660
  21.5612100 131.1770270 109.5899540  22.7336590 130.6354620 108.8000490
  20.4128410 133.4359950 115.5759360  20.9844520 132.6682150 115.5763000
  20.4129950 133.7348710 114.6665970  30.2708360 142.2550800 113.4304630
  29.6519800 142.7108300 112.8599070  31.1260140 142.4102260 113.0294330
  29.4646610 138.2389790 115.0371670  29.3954890 137.2979730 114.8760800
  30.2266470 138.3291200 115.6094240  21.6553280 128.8444310 117.3628290
  21.4756120 127.9470060 117.6431050  21.2533360 129.3916180 118.0375240
  30.4951780 131.0460170 115.2640600  30.8716600 130.1732050 115.1514270
  30.3971290 131.3818870 114.3731040  24.6256790 129.4185800 110.7258040
  24.7323540 130.3189530 111.0326800  23.7149150 129.3703770 110.4352690
  34.2775900 128.5410610 112.1968940  35.0985520 128.0507180 112.2394420
  34.3109980 129.1308270 112.9500780  22.2739950 131.3404810 115.9710630
  22.9550060 131.6043180 116.5898030  21.9588000 130.5005680 116.3048640
  26.4664520 132.3872170 115.0583220  26.9742740 132.8853140 115.6988240
  26.9977760 131.6107370 114.8822580  38.5675450 130.5577360 118.7612570
  37.8627620 130.9459070 118.2427680  38.8333370 131.2527650 119.3633500
  24.7500620 127.0270730 119.3246640  24.7519060 127.5443120 118.5192540
  23.9204930 126.5500910 119.3016570  31.1371710 137.1390040 110.8236540
  30.5188980 137.6039490 110.2599260  31.6494960 137.8317520 111.2406050
  26.0003470 136.6665910 117.5020140  25.6672850 137.2934830 118.1441210
  26.1770150 137.1927790 116.7221810  34.5137380 130.4810990 114.9696480
  33.8092950 130.7695880 115.5499590  34.8749540 131.2911100 114.6096040
  24.4315950 128.7380690 117.3317090  24.7732760 129.5822740 117.0370960
  23.4931760 128.8864430 117.4482430  25.2122570 138.6346710 119.3169320
  25.8296570 139.3097790 119.0353770  24.3515690 139.0434690 119.2256820
  20.5054910 137.8246570 108.1976170  20.1282890 138.3133670 107.4661070
  20.7627980 138.4971850 108.8282700  36.1300160 140.0986120 117.2323960
  35.4463680 140.7685230 117.2240630  36.6694450 140.2966770 116.4668820
  37.5824300 129.9265780 115.3605690  36.6349210 129.9604760 115.4921120
  37.9074290 130.7404730 115.7455050  28.1143840 126.2262960 113.6561680
  28.4218820 125.6709850 112.9397180  27.1844540 126.3607420 113.4734670
  33.6658900 141.9430250 115.9469140  33.6786060 141.5392540 115.0791400
  33.1134120 142.7177540 115.8430570  34.9604320 138.6646470 111.0359310
  34.8500650 137.7220800 111.1608730  34.9572570 139.0262110 111.9222070
  33.0644340 136.8460090 117.2751750  33.4813130 136.6320200 116.4405210
  33.7884160 137.1032880 117.8460370  30.5024600 134.2911790 110.3921800
  29.5753880 134.2249170 110.6210270  30.6549420 135.2291920 110.2777040
  30.4893680 130.5628790 107.3888960  29.5497350 130.7242750 107.4741420
  30.8076940 131.2814470 106.8424950  37.0106440 135.2447310 117.3667990
  36.1825070 135.3140400 116.8918120  37.6056920 135.8301620 116.8983820
  34.5321890 135.8532090 110.8957050  33.9134310 135.5151640 110.2483350
  34.5146340 135.2091850 111.6036240  33.9748450 132.0316630 118.3122860
  33.5619630 132.8570340 118.5662850  33.2424400 131.4461670 118.1199220
  26.1081240 134.8176530 113.1741530  25.7038240 134.1053780 112.6787430
  26.1944360 134.4729770 114.0629570  26.5762940 138.5044090 115.3380740
  26.2791230 137.8989560 114.6588520  27.5262760 138.5421400 115.2270100
  24.8209860 131.5919740 116.9540570  25.3724450 131.7015080 116.1793820
  25.3353370 131.9657340 117.6695800  34.6648550 142.0775960 119.0003840
  34.1879110 142.8848150 118.8076450  33.9810340 141.4254290 119.1530050
  25.6681370 138.2425780 121.9888540  24.7709900 138.4665750 122.2361940
  25.6934240 138.3660720 121.0399940  32.7086590 135.0918900 107.9029800
  33.1479870 134.2541330 107.7567620  33.4215010 135.7248300 107.9893940
  24.4952590 135.1139100 120.5645910  24.3560360 135.9861900 120.9333310
  23.6133950 134.7711910 120.4193850  30.8181970 140.0314970 111.8711040
  31.2577880 140.7739300 111.4566430  30.7568860 140.2741540 112.7950000
  26.2932940 141.0560800 122.7731060  26.2648370 141.4603750 121.9059490
  26.1297910 140.1271160 122.6102660  36.2903730 126.3461710 106.2170840
  35.9776390 126.4388540 107.1169910  37.0516200 126.9242740 106.1668270
  22.8085870 133.7121510 110.6748180  22.6883470 134.4383600 110.0629450
  22.4986760 132.9424420 110.1976090  38.2447760 141.8387900 124.0695230
  38.7207480 142.3170790 124.7484310  38.8654920 141.7705390 123.3440730
  20.4471240 136.8836650 116.4816820  20.5251660 137.0185420 115.5372540
  21.0612920 136.1752540 116.6744940  21.6918870 138.5836840 112.8923000
  21.2846950 138.7251430 112.0376600  22.5831880 138.2997000 112.6894210
  37.6481010 139.0300750 121.2295240  37.7744070 138.7912630 120.3112420
  37.6902390 138.1985290 121.7017320  31.5097750 142.7328750 119.7990050
  32.0242420 142.6436760 120.6012480  30.6666830 143.0788450 120.0917960
  33.4852150 143.0184090 109.2274050  33.3253290 142.7287030 110.1255880
  33.3198860 142.2424220 108.6919280  25.9640530 142.7982620 111.0045670
  25.7883010 141.8818160 110.7913470  25.1096270 143.1569910 111.2443470
  33.1878280 140.5271650 107.7872050  32.4943440 140.5248940 107.1274330
  33.9301140 140.1030970 107.3566220  32.7528210 142.1534360 111.8620540
  33.2085160 141.3723740 112.1759160  33.0920730 142.8641180 112.4061720
  37.5005020 131.0833210 122.1944980  36.8849290 131.5912880 121.6660440
  37.1801440 130.1831540 122.1370920  20.5030760 137.9250820 119.0211280
  20.6661800 137.4556180 118.2030650  20.9683210 137.4174380 119.6860120
  25.2749530 127.0556580 114.0571850  24.8317680 127.8366120 113.7256370
  25.8334520 127.3786470 114.7642790  29.5619340 129.9225100 119.6607170
  29.0998710 130.1308120 120.4727110  29.1597450 129.1084450 119.3577840
  34.5623850 131.1434050 120.7903830  33.7117440 130.8439800 121.1112900
  34.4025640 131.3876060 119.8787650  31.6573560 132.6435800 122.8902620
  31.9826970 131.8099550 122.5504850  32.4453890 133.1664320 123.0380950
  28.3908350 126.6767280 108.9377680  27.7662530 126.6727150 109.6630990
  28.3038470 125.8098240 108.5413650  27.3125430 127.6003910 115.9161450
  27.6097760 128.5066740 115.8353470  27.8610990 127.1122690 115.3021020
  25.0663750 132.1790150 111.7853100  24.8404670 131.9627320 112.6899720
  24.2856280 132.6118610 111.4399070  32.2961510 132.1853520 110.3843750
  31.6970400 132.9089320 110.2007370  32.8441120 132.1230300 109.6020200
  27.5062960 133.0775730 122.4513370  27.4106560 132.1370460 122.3013770
  28.3494940 133.2990800 122.0561440  30.9026380 130.8217060 112.4147030
  31.2955950 131.1389260 111.6015720  31.2643230 129.9428940 112.5291550
  22.6373500 129.4889400 120.6047150  22.2436890 130.3364610 120.8119930
  21.9491900 128.8515770 120.7955790  29.2118550 129.5724370 123.6743890
  28.5216870 129.3796570 124.3089980  29.9550850 129.8559010 124.2068190
  19.9390550 127.4117860 114.6377230  19.6503600 127.9820720 115.3502210
  20.6836310 126.9322310 115.0008460  20.1260780 131.3537980 105.8479950
  20.0435450 132.2968740 105.9894940  19.7743840 131.2112890 104.9692300
  31.4881520 133.4122810 116.5097810  30.7562640 133.9209620 116.8587910
  31.0905860 132.5952790 116.2086590  27.9258910 130.0877010 114.9150300
  27.9294970 129.6466960 114.0654840  28.8210030 130.4094340 115.0222120
  23.7761290 129.9703500 113.8744510  23.4361340 130.4478730 114.6311560
  23.0138610 129.5168620 113.5145610  27.9879060 131.0889090 107.9057060
  28.1091880 131.0475570 108.8542880  27.6027570 131.9513240 107.7503790
  31.9507430 128.8656490 115.9220750  31.9680170 129.3165140 116.7662600
  31.7023010 127.9662130 116.1354190  27.0000560 133.3990230 107.3040360
  26.4317460 132.9508480 106.6776270  27.7089560 133.7583010 106.7705510
  35.3778180 126.2788670 121.7607130  35.7023950 125.5478330 122.2865110
  35.4134690 125.9602310 120.8588120  22.0769740 137.3002250 121.1807090
  21.6924530 136.6595920 121.7790050  22.3881930 138.0038370 121.7501820
  28.2266880 134.1478790 116.6615710  28.5937010 133.6737360 117.4077050
  28.0371940 135.0220360 117.0024050  21.0907370 128.8922480 112.7909180
  20.8054290 128.5278150 113.6287800  21.0286230 128.1602940 112.1772320
  26.0166250 133.1887430 118.9799920  25.7123320 134.0679410 119.2050280
  26.9712710 133.2487220 119.0157360  24.5448040 137.3948420 109.5766770
  23.7710300 136.8546040 109.4165490  25.2742670 136.8755030 109.2384530
  35.3036020 136.3913780 115.3693160  36.0235140 136.8869070 114.9789270
  35.1017840 135.7131670 114.7247030  30.7645960 127.7851740 109.5122550
  29.9510570 127.2864910 109.4367860  30.5707910 128.6249990 109.0958900
  30.6854820 136.4622840 121.2562160  30.6192130 135.5418510 121.0019750
  30.0559960 136.5598280 121.9706800  33.4794350 132.1571390 107.8084710
  34.3673970 132.4688620 107.6336050  33.4499440 131.2843640 107.4165290
  24.5885440 137.0628800 113.2145580  25.1064110 136.2597060 113.1602470
  24.1369460 137.0007940 114.0562410  29.4754940 138.3295080 108.4872880
  29.8170640 139.0737310 107.9916200  28.6467650 138.6426200 108.8497710
  22.0729980 134.0290170 120.1271280  21.7144920 134.6944020 120.7144620
  21.7784540 133.1973720 120.4983900  25.2743100 134.4874410 123.0110830
  24.9743240 134.6331590 122.1138650  26.0454340 133.9279700 122.9184220
  30.6171550 139.2843410 121.0065960  30.6316090 138.3524370 120.7884870
  29.9096650 139.3703170 121.6455730  35.7508620 133.4683230 107.2764570
  35.6672340 133.8997450 106.4261010  36.4702810 133.9281580 107.7091390
  36.8282760 135.9250750 120.3534540  36.1030950 136.5179530 120.1563930
  37.3558220 135.9174290 119.5547910  36.7795870 140.3225490 110.0046700
  36.1372030 139.6681110 110.2790420  36.3926530 140.7280580 109.2287370
  32.3582350 137.6510920 113.8518390  32.7106170 137.0539050 113.1919760
  31.4744680 137.3255150 114.0226640  28.4445630 138.4108610 111.2588800
  29.1316760 138.9577820 111.6396390  27.6578050 138.9549340 111.2938410
  20.5838030 134.0281430 106.7505880  21.4532880 134.3106230 107.0341800
  20.0928350 134.8417300 106.6354690  27.7472840 135.4154640 110.8714160
  28.2035620 136.2259890 111.0974350  27.3961050 135.0977780 111.7032650
  30.0505450 140.9260980 118.1006460  30.6947670 141.1320360 118.7779880
  30.4134890 140.1649380 117.6477310  23.6484620 125.7592290 111.3436680
  23.5199250 125.7510190 112.2921600  22.8246640 126.0975380 110.9927690
  31.3237530 138.9293330 116.8183910  31.9659760 138.2286490 116.9316080
  31.8486880 139.7091770 116.6380800  35.1693250 139.2141950 106.5423050
  34.9430830 138.4972390 107.1347690  34.7789450 138.9654390 105.7044800
  33.0975150 139.7288230 120.0219970  33.4331390 140.3154920 120.6997890
  32.1775490 139.5980940 120.2517760  20.9509280 143.2408810 107.3167510
  21.3106920 143.8398150 106.6624780  20.8101620 143.7868700 108.0902540
  20.6478550 127.5183410 120.8043380  19.9337070 127.7180330 121.4095990
  21.0673590 126.7422980 121.1758180  34.7509500 137.1313890 108.2037210
  34.4631200 137.5926580 108.9915090  35.5461670 136.6711660 108.4721430
  20.9351140 141.5063670 121.7909910  21.0442260 140.5658410 121.6505300
  20.2831700 141.7718420 121.1423640  28.9263730 139.7779560 123.1908030
  28.6060600 139.0588800 123.7353720  28.2522090 140.4534630 123.2644090
  26.9677900 140.6240010 108.1341180  26.9588000 141.3569700 107.5185690
  26.0476260 140.3771590 108.2268140  22.5684540 135.8454900 108.8787940
  21.9612490 136.5853800 108.8883240  23.0433890 135.9354260 108.0526140
  32.1417330 130.0105720 118.5544830  32.5098150 129.1900930 118.8824400
  31.2815530 130.0707610 118.9700480  35.5079360 128.9662660 109.3632390
  34.8792520 129.0708330 108.6490620  35.0131280 129.1859440 110.1526270
  29.9537500 140.6868250 106.7966370  30.0549480 140.4832240 105.8668350
  29.0539240 140.4326530 107.0014150  27.4763390 131.2448610 110.7790270
  26.7679540 131.7134950 111.2203880  27.7607870 130.5870620 111.4135460
  29.1019320 132.6645310 118.7782800  29.6004570 133.1391130 119.4434650
  29.2442270 131.7408830 118.9852830  31.5078820 127.9699270 112.2186060
  31.3846600 127.9885400 111.2695570  32.4563380 128.0178210 112.3384460
  28.5955610 143.2054570 111.4914040  28.8497110 143.1675960 110.5693410
  27.6468090 143.0787900 111.4842290  25.6798410 129.5533690 108.1540980
  26.5288940 129.9903840 108.0881170  25.3129680 129.8653950 108.9813040
  36.3086180 128.8813270 119.6211190  35.8059780 129.6218670 119.9605000
  37.1242840 129.2697270 119.3047980  34.6008190 134.1246450 113.0672550
  33.6598330 134.1396680 113.2420240  34.9152260 133.3382410 113.5132850
  24.5789830 135.8066050 106.6276510  25.3453100 135.6947410 107.1901940
  24.6564520 135.1104020 105.9753280  23.2736590 133.2391120 107.3109400
  23.3540180 132.2918630 107.4226800  24.1656340 133.5698000 107.4170060
  36.6033770 141.2955300 114.7426810  36.7281190 142.1186470 115.2150620
  37.4699330 141.0846030 114.3950960  24.0751300 143.3886510 114.4143940
  24.8113780 142.8401970 114.6852510  24.4592220 144.2542520 114.2749930
  20.9596780 139.4560080 110.2885450  20.0336560 139.6981220 110.2790860
  21.4253210 140.2834340 110.1670200  23.0809580 142.5732580 123.6029520
  23.8822310 142.8944630 124.0164920  22.5661400 142.2128160 124.3249430
  27.1853610 142.5616820 106.2369510  27.9782220 142.8505650 105.7851300
  26.6657960 142.1308990 105.5581990  31.9174210 138.6812450 123.5504930
  31.3112370 138.7044050 122.8100680  31.6128320 137.9495490 124.0872180
  33.3474580 142.4092740 122.1614340  34.2996330 142.3250760 122.1114580
  33.2002800 143.0734450 122.8348130  36.2383780 141.7886950 107.6606250
  35.9525290 141.3752090 106.8460430  36.0403330 142.7174660 107.5406770
  20.8007390 135.0606040 122.5465570  21.3046410 134.4813320 123.1181800
  20.0614810 135.3446270 123.0841940  27.7031010 137.7820230 106.1011860
  27.5981650 137.1672580 106.8273240  27.5355230 137.2586120 105.3174870
  27.8545330 136.4677030 122.0801090  27.0891000 137.0362030 121.9955760
  28.0361290 136.1753240 121.1869320  30.9433740 136.8440260 106.7053850
  30.3943840 137.2909560 107.3496590  31.5653000 136.3389510 107.2291520
  34.9968680 138.1982360 122.6376110  35.7378150 138.5358120 122.1343570
  34.2341360 138.3674420 122.0845880  22.8330470 133.2035630 123.4415640
  22.8735810 132.9049500 124.3500870  23.6875970 133.6043240 123.2823160
  26.6108860 135.8031180 108.6019150  27.0325280 135.6371050 109.4450540
  26.7359700 134.9931410 108.1074290  24.7736280 131.7827730 121.4090130
  24.2432740 131.2918680 120.7813470  25.4424350 132.2111930 120.8748060
  29.1236500 134.8268790 105.8496250  29.6442160 134.1117810 105.4837400
  29.7704900 135.4654660 106.1496760  33.6714340 136.2497190 121.1731320
  34.0855360 136.4042270 122.0221740  32.7365340 136.3752410 121.3357100
  34.1436510 133.5893350 123.1770470  34.7257280 132.8345670 123.0890950
  34.3198280 134.1200790 122.4001950  25.2608580 128.7490100 121.4887420
  25.1665450 128.1310850 120.7638290  24.6805970 129.4756390 121.2617330
  28.0270020 127.3063340 118.5214810  27.5787320 127.3287600 117.6760360
  27.3935220 126.9082360 119.1185110  28.4329570 136.2017670 119.1427250
  28.8517680 137.0450400 118.9703490  27.5138200 136.3389710 118.9134030
  30.7693470 133.9333850 120.5265090  30.8889680 133.3374990 121.2659930
  31.6287470 133.9703540 120.1066390  33.1081370 134.4871040 119.1027600
  32.5816590 135.0113660 118.4992740  33.4512710 135.1198430 119.7337330
  25.5067760 131.8764410 105.5477310  25.3056820 131.0131770 105.9090650
  25.3359810 131.7897770 104.6098910  26.2836990 142.5070680 120.2584980
  25.7458080 143.2316740 119.9393680  26.5370950 142.0301020 119.4682320
  27.5362240 130.4755200 121.7840910  28.1261930 130.1671050 122.4718730
  26.7182480 130.0034950 121.9400810  32.3555670 130.0921010 122.0173930
  31.6671190 129.4302550 121.9523920  33.0761690 129.6459280 122.4622390
  32.9856070 126.6872640 108.0764190  33.2658360 125.8440540 108.4323610
  32.2121800 126.9195750 108.5902940  24.3050560 128.9765030 105.5355190
  24.6076460 128.9832460 104.6274340  25.0445150 128.6262890 106.0322850
  29.1399200 143.7421890 120.5171630  29.0657900 144.6457030 120.8244000
  28.2378040 143.4233790 120.4893700  27.5235490 127.9199650 106.5211390
  27.1757490 127.2423640 105.9413840  27.7248260 127.4589160 107.3354780
  29.6884530 142.9080400 108.1397990  30.5835320 143.2465370 108.1616750
  29.7202160 142.1859810 107.5122270  23.3280690 138.2807450 106.3684990
  23.7655560 138.8237120 107.0242570  23.8128420 137.4554400 106.3781330
  20.5426490 141.0696480 113.8205250  20.8729500 140.2017540 113.5883890
  20.9717490 141.2755000 114.6510210  25.1388410 139.4005490 111.4807220
  24.8383950 139.2770460 112.3811130  25.0325900 138.5414080 111.0722950
  21.0316700 141.9367070 116.5586880  20.5947690 142.1167870 117.3911030
  21.5994380 142.6941690 116.4168600  36.6678880 141.4384070 120.8464190
  36.0680870 141.4976630 120.1028110  36.7972780 140.4989050 120.9761040
  37.9080330 139.1801890 106.1833900  37.0773290 139.2478540 106.6541130
  38.0852160 140.0706010 105.8800760  37.3636790 135.9249370 108.6868100
  38.1255700 136.4946020 108.7927790  37.3791160 135.3576570 109.4576410
  20.8641130 134.4487300 112.9175760  20.2089970 134.1798940 112.2735460
  21.7019080 134.3391780 112.4677740  38.3696760 136.7799470 113.5310030
  38.7405590 135.9966790 113.1246000  39.0098690 137.4688570 113.3527330
  35.3530520 138.1636050 118.9440350  34.5390360 138.5933210 119.2066140
  35.7604720 138.7754460 118.3309400  37.4155960 136.2183740 105.8440620
  37.6904800 137.1262620 105.7159840  37.2266700 136.1546270 106.7802610
  33.8131570 129.2428590 107.1394250  34.2316450 129.0559570 106.2990910
  33.5067630 128.3907640 107.4497180  37.3121300 134.1552730 110.8370050
  36.9364900 133.3880660 110.4051340  36.5824420 134.5375430 111.3244980
  21.9017060 134.8339870 117.4579100  22.2690100 134.7467270 118.3375120
  21.3327880 134.0706420 117.3585960  36.7020920 133.3024250 120.4709570
  36.4707010 133.0737000 119.5707520  36.9625470 134.2223800 120.4254460
  21.4533060 131.7448960 121.3637520  20.5589110 131.7115720 121.7031230
  21.9930610 131.9435750 122.1288770  35.1408990 128.5280680 123.2489270
  36.0179170 128.5364080 123.6323270  35.1529830 127.7911520 122.6381620
  20.0779210 131.6586230 108.8601090  19.1743290 131.9216430 108.6852750
  20.5619830 131.9297400 108.0801050  36.5872260 132.3810220 114.1377290
  37.1109740 131.8872870 113.5067460  37.1731680 132.5160580 114.8824860
  36.7661980 132.4650090 117.6596840  35.8164690 132.4313630 117.7741830
  36.9474990 133.3750200 117.4246610  22.6206420 130.7151770 106.7695470
  23.3298120 130.2934990 106.2842750  21.9046360 130.7827000 106.1378820
  22.2680580 126.7691100 105.8098120  22.9908710 127.3100040 106.1279340
  22.5405100 126.4954520 104.9339660  36.0772230 131.6383570 110.0769700
  36.5731350 131.4054440 110.8618580  35.8788300 130.7995410 109.6607340
  21.9572770 126.0197290 115.7120740  22.6048960 125.4694670 115.2715900
  22.3774610 126.2740440 116.5336550  37.5059390 130.2744520 112.6107380
  37.3958670 130.1200560 113.5489650  38.2666980 129.7465460 112.3682790
  35.8525110 126.2138650 119.0690380  36.4897330 126.8272790 119.4349570
  36.0000000 126.2499310 118.1239610  38.4688150 128.8763100 108.4770230
  37.6739650 128.8108220 109.0063140  38.6731430 129.8113740 108.4655580
  35.4106570 142.9154650 112.4708620  36.0065640 142.5939220 111.7943040
  35.6684720 142.4426470 113.2621890  21.7104770 126.1752960 118.4546060
  21.3619590 126.6316780 119.2204240  21.3792470 125.2810090 118.5368490
  23.3169140 139.3472560 122.6199250  23.2738770 138.9765470 123.5013710
  23.4480150 140.2850130 122.7601070  27.0175170 140.9032150 118.2208970
  26.7766530 141.1706710 117.3339490  27.9577810 141.0737880 118.2759830
  29.2229590 127.3664840 121.9765480  29.1618480 127.9586670 122.7260890
  30.1629970 127.2590800 121.8315740  31.8604150 127.0234900 121.6157770
  32.4744560 127.3414190 120.9538850  32.4053710 126.5383490 122.2353630
  38.2779330 142.9226530 119.0219610  37.7837610 143.3195400 118.3046740
  37.6692620 142.2975740 119.4156890  22.3825410 125.7029160 121.7296830
  22.9308400 125.5217210 120.9662940  22.4480720 124.9123270 122.2653140
  23.1557170 142.2934810 119.7397030  22.5617490 142.1619510 120.4787070
  23.1481010 141.4572950 119.2739130  32.6012190 125.5867040 117.9427060
  31.7272030 125.9202150 117.7399990  32.4922940 125.1140220 118.7678930
  33.5084170 127.7937910 119.3268780  33.1797530 126.9789670 118.9470510
  34.4566470 127.7507720 119.2034470  35.9618780 143.5649950 116.3006350
  35.5021750 144.3165760 115.9264370  35.3331240 142.8456420 116.2421150
  22.7869400 139.6593190 118.6905070  22.0603460 139.0398480 118.6231020
  22.8478550 140.0533800 117.8203150  26.3914500 141.8738190 115.4754480
  26.9079520 141.2625550 114.9502740  27.0411880 142.3766970 115.9665490
  29.1310000 142.7646680 116.3023460  29.4187810 142.5100980 115.4256470
  29.6433220 142.2124040 116.8929030  30.3487010 126.5036880 116.8819970
  29.5658800 126.9782380 117.1616730  30.0549940 125.5991710 116.7733150
  34.9008080 127.2059980 114.9269060  35.3416170 127.1505080 114.0790660
  34.6315670 128.1217990 114.9979240  36.7646650 126.8375220 112.9377880
  36.7035050 125.8936440 112.7908900  37.5438680 126.9455310 113.4831340
  21.0699400 142.9767580 111.9001830  20.9021440 142.3438260 112.5983720
  20.2033910 143.1826980 111.5496020  21.6927420 126.8084360 109.4033690
  22.4506780 126.9213240 108.8297720  21.2304590 127.6453560 109.3577120
  28.2341230 128.9223630 112.3936000  27.4215740 128.5480520 112.0531880
  28.7382870 128.1668710 112.6957190  32.7366210 125.5866080 113.6319070
  33.3395580 126.1586290 114.1067590  31.9959200 126.1505520 113.4092970
  35.8800810 125.9887640 108.9059350  36.0751440 126.8871090 109.1726780
  35.0930680 125.7574720 109.3992300  22.6762100 141.6700810 109.3451970
  22.1509720 142.0508840 108.6413930  22.6006680 142.2951580 110.0661680
  24.0652570 127.3348410 107.9435660  24.5945330 126.5478210 107.8143610
  24.6980890 128.0139600 108.1771190  26.2590410 127.0723550 110.9981050
  25.6293150 126.3710860 111.1651180  25.7195550 127.8327680 110.7814210
  29.1982360 143.6862780 123.6691660  30.1249670 143.4507050 123.7127620
  29.1832790 144.5134780 123.1877690  37.4327420 143.2288350 110.6665910
  37.6079610 142.5426090 110.0226830  36.7348990 143.7535400 110.2742580
  26.3845970 126.3507530 123.4333540  26.1030240 126.8541130 122.6694360
  26.7665670 125.5529280 123.0675670  25.2755070 143.6183190 108.2201220
  26.0073890 143.3342470 107.6725110  25.5348740 143.3796470 109.1100600
  24.4369860 139.7347920 108.2247550  23.8078740 140.2033020 108.7733380
  24.5517690 138.8897140 108.6593740  32.9861430 125.7661110 124.0114010
  32.8726880 126.0855720 124.9065530  33.8031170 126.1673620 123.7151290
  35.7659920 142.9132640 123.4932700  36.5585240 142.4181870 123.2858660
  36.0593070 143.5922780 124.1008310  31.8919580 133.7853580  94.3748750
  31.8113630 132.8708190  94.1040460  31.4784000 134.2820650  93.6688460
  30.0237620 135.5632600  96.2558020  29.2479720 135.0833040  96.5456590
  30.6750550 134.8838250  96.0814180  24.0403450 135.8752410  97.1333780
  23.2088330 135.6201120  97.5330290  24.6484430 135.9463180  97.8691700
  34.0445050 139.9692790  95.0357150  33.5826580 139.1980030  95.3644320
  34.8570600 139.9958860  95.5409600  24.0204710 139.9092500  97.3291800
  24.3232750 139.0190240  97.1502020  24.7648300 140.4662720  97.1014050
  22.4495400 130.8354300  90.9176170  21.5612100 131.1770270  90.8156050
  22.7336590 130.6354620  90.0257000  20.4128410 133.4359950  96.8015870
  20.9844520 132.6682150  96.8019510  20.4129950 133.7348710  95.8922480
  30.2708360 142.2550800  94.6561140  29.6519800 142.7108300  94.0855580
  31.1260140 142.4102260  94.2550840  29.4646610 138.2389790  96.2628180
  29.3954890 137.2979730  96.1017310  30.2266470 138.3291200  96.8350750
  21.6553280 128.8444310  98.5884800  21.4756120 127.9470060  98.8687560
  21.2533360 129.3916180  99.2631750  30.4951780 131.0460170  96.4897110
  30.8716600 130.1732050  96.3770780  30.3971290 131.3818870  95.5987550
  24.6256790 129.4185800  91.9514550  24.7323540 130.3189530  92.2583310
  23.7149150 129.3703770  91.6609200  22.2739950 131.3404810  97.1967140
  22.9550060 131.6043180  97.8154540  21.9588000 130.5005680  97.5305150
  26.4664520 132.3872170  96.2839730  26.9742740 132.8853140  96.9244750
  26.9977760 131.6107370  96.1079090  38.5675450 130.5577360  99.9869080
  37.8627620 130.9459070  99.4684190  38.8333370 131.2527650 100.5890010
  24.7500620 127.0270730 100.5503150  24.7519060 127.5443120  99.7449050
  23.9204930 126.5500910 100.5273080  31.1371710 137.1390040  92.0493050
  30.5188980 137.6039490  91.4855770  31.6494960 137.8317520  92.4662560
  26.0003470 136.6665910  98.7276650  25.6672850 137.2934830  99.3697720
  26.1770150 137.1927790  97.9478320  34.5137380 130.4810990  96.1952990
  33.8092950 130.7695880  96.7756100  34.8749540 131.2911100  95.8352550
  24.4315950 128.7380690  98.5573600  24.7732760 129.5822740  98.2627470
  23.4931760 128.8864430  98.6738940  25.2122570 138.6346710 100.5425830
  25.8296570 139.3097790 100.2610280  24.3515690 139.0434690 100.4513330
  20.5054910 137.8246570  89.4232680  20.1282890 138.3133670  88.6917580
  20.7627980 138.4971850  90.0539210  36.1300160 140.0986120  98.4580470
  35.4463680 140.7685230  98.4497140  36.6694450 140.2966770  97.6925330
  37.5824300 129.9265780  96.5862200  36.6349210 129.9604760  96.7177630
  37.9074290 130.7404730  96.9711560  28.1143840 126.2262960  94.8818190
  28.4218820 125.6709850  94.1653690  27.1844540 126.3607420  94.6991180
  33.6658900 141.9430250  97.1725650  33.6786060 141.5392540  96.3047910
  33.1134120 142.7177540  97.0687080  34.9604320 138.6646470  92.2615820
  34.8500650 137.7220800  92.3865240  34.9572570 139.0262110  93.1478580
  33.0644340 136.8460090  98.5008260  33.4813130 136.6320200  97.6661720
  33.7884160 137.1032880  99.0716880  30.5024600 134.2911790  91.6178310
  29.5753880 134.2249170  91.8466780  30.6549420 135.2291920  91.5033550
  30.4893680 130.5628790  88.6145470  29.5497350 130.7242750  88.6997930
  30.8076940 131.2814470  88.0681460  37.0106440 135.2447310  98.5924500
  36.1825070 135.3140400  98.1174630  37.6056920 135.8301620  98.1240330
  34.5321890 135.8532090  92.1213560  33.9134310 135.5151640  91.4739860
  34.5146340 135.2091850  92.8292750  33.9748450 132.0316630  99.5379370
  33.5619630 132.8570340  99.7919360  33.2424400 131.4461670  99.3455730
  26.1081240 134.8176530  94.3998040  25.7038240 134.1053780  93.9043940
  26.1944360 134.4729770  95.2886080  26.5762940 138.5044090  96.5637250
  26.2791230 137.8989560  95.8845030  27.5262760 138.5421400  96.4526610
  24.8209860 131.5919740  98.1797080  25.3724450 131.7015080  97.4050330
  25.3353370 131.9657340  98.8952310  34.6648550 142.0775960 100.2260350
  34.1879110 142.8848150 100.0332960  33.9810340 141.4254290 100.3786560
  25.6681370 138.2425780 103.2145050  24.7709900 138.4665750 103.4618450
  25.6934240 138.3660720 102.2656450  32.7086590 135.0918900  89.1286310
  33.1479870 134.2541330  88.9824130  33.4215010 135.7248300  89.2150450
  24.4952590 135.1139100 101.7902420  24.3560360 135.9861900 102.1589820
  23.6133950 134.7711910 101.6450360  30.8181970 140.0314970  93.0967550
  31.2577880 140.7739300  92.6822940  30.7568860 140.2741540  94.0206510
  26.2932940 141.0560800 103.9987570  26.2648370 141.4603750 103.1316000
  26.1297910 140.1271160 103.8359170  22.8085870 133.7121510  91.9004690
  22.6883470 134.4383600  91.2885960  22.4986760 132.9424420  91.4232600
  38.2447760 141.8387900 105.2951740  38.7207480 142.3170790 105.9740820
  38.8654920 141.7705390 104.5697240  20.4471240 136.8836650  97.7073330
  20.5251660 137.0185420  96.7629050  21.0612920 136.1752540  97.9001450
  21.6918870 138.5836840  94.1179510  21.2846950 138.7251430  93.2633110
  22.5831880 138.2997000  93.9150720  37.6481010 139.0300750 102.4551750
  37.7744070 138.7912630 101.5368930  37.6902390 138.1985290 102.9273830
  31.5097750 142.7328750 101.0246560  32.0242420 142.6436760 101.8268990
  30.6666830 143.0788450 101.3174470  33.4852150 143.0184090  90.4530560
  33.3253290 142.7287030  91.3512390  33.3198860 142.2424220  89.9175790
  25.9640530 142.7982620  92.2302180  25.7883010 141.8818160  92.0169980
  25.1096270 143.1569910  92.4699980  33.1878280 140.5271650  89.0128560
  32.4943440 140.5248940  88.3530840  33.9301140 140.1030970  88.5822730
  32.7528210 142.1534360  93.0877050  33.2085160 141.3723740  93.4015670
  33.0920730 142.8641180  93.6318230  37.5005020 131.0833210 103.4201490
  36.8849290 131.5912880 102.8916950  37.1801440 130.1831540 103.3627430
  20.5030760 137.9250820 100.2467790  20.6661800 137.4556180  99.4287160
  20.9683210 137.4174380 100.9116630  25.2749530 127.0556580  95.2828360
  24.8317680 127.8366120  94.9512880  25.8334520 127.3786470  95.9899300
  29.5619340 129.9225100 100.8863680  29.0998710 130.1308120 101.6983620
  29.1597450 129.1084450 100.5834350  34.5623850 131.1434050 102.0160340
  33.7117440 130.8439800 102.3369410  34.4025640 131.3876060 101.1044160
  31.6573560 132.6435800 104.1159130  31.9826970 131.8099550 103.7761360
  32.4453890 133.1664320 104.2637460  28.3908350 126.6767280  90.1634190
  27.7662530 126.6727150  90.8887500  28.3038470 125.8098240  89.7670160
  27.3125430 127.6003910  97.1417960  27.6097760 128.5066740  97.0609980
  27.8610990 127.1122690  96.5277530  25.0663750 132.1790150  93.0109610
  24.8404670 131.9627320  93.9156230  24.2856280 132.6118610  92.6655580
  32.2961510 132.1853520  91.6100260  31.6970400 132.9089320  91.4263880
  32.8441120 132.1230300  90.8276710  27.5062960 133.0775730 103.6769880
  27.4106560 132.1370460 103.5270280  28.3494940 133.2990800 103.2817950
  30.9026380 130.8217060  93.6403540  31.2955950 131.1389260  92.8272230
  31.2643230 129.9428940  93.7548060  22.6373500 129.4889400 101.8303660
  22.2436890 130.3364610 102.0376440  21.9491900 128.8515770 102.0212300
  29.2118550 129.5724370 104.9000400  28.5216870 129.3796570 105.5346490
  29.9550850 129.8559010 105.4324700  19.9390550 127.4117860  95.8633740
  19.6503600 127.9820720  96.5758720  20.6836310 126.9322310  96.2264970
  20.1260780 131.3537980  87.0736460  20.0435450 132.2968740  87.2151450
  19.7743840 131.2112890  86.1948810  31.4881520 133.4122810  97.7354320
  30.7562640 133.9209620  98.0844420  31.0905860 132.5952790  97.4343100
  27.9258910 130.0877010  96.1406810  27.9294970 129.6466960  95.2911350
  28.8210030 130.4094340  96.2478630  23.7761290 129.9703500  95.1001020
  23.4361340 130.4478730  95.8568070  23.0138610 129.5168620  94.7402120
  27.9879060 131.0889090  89.1313570  28.1091880 131.0475570  90.0799390
  27.6027570 131.9513240  88.9760300  31.9507430 128.8656490  97.1477260
  31.9680170 129.3165140  97.9919110  31.7023010 127.9662130  97.3610700
  27.0000560 133.3990230  88.5296870  26.4317460 132.9508480  87.9032780
  27.7089560 133.7583010  87.9962020  35.3778180 126.2788670 102.9863640
  35.7023950 125.5478330 103.5121620  35.4134690 125.9602310 102.0844630
  22.0769740 137.3002250 102.4063600  21.6924530 136.6595920 103.0046560
  22.3881930 138.0038370 102.9758330  28.2266880 134.1478790  97.8872220
  28.5937010 133.6737360  98.6333560  28.0371940 135.0220360  98.2280560
  21.0907370 128.8922480  94.0165690  20.8054290 128.5278150  94.8544310
  21.0286230 128.1602940  93.4028830  26.0166250 133.1887430 100.2056430
  25.7123320 134.0679410 100.4306790  26.9712710 133.2487220 100.2413870
  24.5448040 137.3948420  90.8023280  23.7710300 136.8546040  90.6422000
  25.2742670 136.8755030  90.4641040  35.3036020 136.3913780  96.5949670
  36.0235140 136.8869070  96.2045780  35.1017840 135.7131670  95.9503540
  30.7645960 127.7851740  90.7379060  29.9510570 127.2864910  90.6624370
  30.5707910 128.6249990  90.3215410  30.6854820 136.4622840 102.4818670
  30.6192130 135.5418510 102.2276260  30.0559960 136.5598280 103.1963310
  33.4794350 132.1571390  89.0341220  34.3673970 132.4688620  88.8592560
  33.4499440 131.2843640  88.6421800  24.5885440 137.0628800  94.4402090
  25.1064110 136.2597060  94.3858980  24.1369460 137.0007940  95.2818920
  29.4754940 138.3295080  89.7129390  29.8170640 139.0737310  89.2172710
  28.6467650 138.6426200  90.0754220  22.0729980 134.0290170 101.3527790
  21.7144920 134.6944020 101.9401130  21.7784540 133.1973720 101.7240410
  25.2743100 134.4874410 104.2367340  24.9743240 134.6331590 103.3395160
  26.0454340 133.9279700 104.1440730  30.6171550 139.2843410 102.2322470
  30.6316090 138.3524370 102.0141380  29.9096650 139.3703170 102.8712240
  35.7508620 133.4683230  88.5021080  35.6672340 133.8997450  87.6517520
  36.4702810 133.9281580  88.9347900  36.8282760 135.9250750 101.5791050
  36.1030950 136.5179530 101.3820440  37.3558220 135.9174290 100.7804420
  36.7795870 140.3225490  91.2303210  36.1372030 139.6681110  91.5046930
  36.3926530 140.7280580  90.4543880  32.3582350 137.6510920  95.0774900
  32.7106170 137.0539050  94.4176270  31.4744680 137.3255150  95.2483150
  28.4445630 138.4108610  92.4845310  29.1316760 138.9577820  92.8652900
  27.6578050 138.9549340  92.5194920  20.5838030 134.0281430  87.9762390
  21.4532880 134.3106230  88.2598310  20.0928350 134.8417300  87.8611200
  27.7472840 135.4154640  92.0970670  28.2035620 136.2259890  92.3230860
  27.3961050 135.0977780  92.9289160  30.0505450 140.9260980  99.3262970
  30.6947670 141.1320360 100.0036390  30.4134890 140.1649380  98.8733820
  23.6484620 125.7592290  92.5693190  23.5199250 125.7510190  93.5178110
  22.8246640 126.0975380  92.2184200  31.3237530 138.9293330  98.0440420
  31.9659760 138.2286490  98.1572590  31.8486880 139.7091770  97.8637310
  35.1693250 139.2141950  87.7679560  34.9430830 138.4972390  88.3604200
  34.7789450 138.9654390  86.9301310  33.0975150 139.7288230 101.2476480
  33.4331390 140.3154920 101.9254400  32.1775490 139.5980940 101.4774270
  20.9509280 143.2408810  88.5424020  21.3106920 143.8398150  87.8881290
  20.8101620 143.7868700  89.3159050  20.6478550 127.5183410 102.0299890
  19.9337070 127.7180330 102.6352500  21.0673590 126.7422980 102.4014690
  34.7509500 137.1313890  89.4293720  34.4631200 137.5926580  90.2171600
  35.5461670 136.6711660  89.6977940  20.9351140 141.5063670 103.0166420
  21.0442260 140.5658410 102.8761810  20.2831700 141.7718420 102.3680150
  28.9263730 139.7779560 104.4164540  28.6060600 139.0588800 104.9610230
  28.2522090 140.4534630 104.4900600  26.9677900 140.6240010  89.3597690
  26.9588000 141.3569700  88.7442200  26.0476260 140.3771590  89.4524650
  22.5684540 135.8454900  90.1044450  21.9612490 136.5853800  90.1139750
  23.0433890 135.9354260  89.2782650  32.1417330 130.0105720  99.7801340
  32.5098150 129.1900930 100.1080910  31.2815530 130.0707610 100.1956990
  29.9537500 140.6868250  88.0222880  30.0549480 140.4832240  87.0924860
  29.0539240 140.4326530  88.2270660  27.4763390 131.2448610  92.0046780
  26.7679540 131.7134950  92.4460390  27.7607870 130.5870620  92.6391970
  29.1019320 132.6645310 100.0039310  29.6004570 133.1391130 100.6691160
  29.2442270 131.7408830 100.2109340  31.5078820 127.9699270  93.4442570
  31.3846600 127.9885400  92.4952080  32.4563380 128.0178210  93.5640970
  28.5955610 143.2054570  92.7170550  28.8497110 143.1675960  91.7949920
  27.6468090 143.0787900  92.7098800  25.6798410 129.5533690  89.3797490
  26.5288940 129.9903840  89.3137680  25.3129680 129.8653950  90.2069550
  36.3086180 128.8813270 100.8467700  35.8059780 129.6218670 101.1861510
  37.1242840 129.2697270 100.5304490  34.6008190 134.1246450  94.2929060
  33.6598330 134.1396680  94.4676750  34.9152260 133.3382410  94.7389360
  24.5789830 135.8066050  87.8533020  25.3453100 135.6947410  88.4158450
  24.6564520 135.1104020  87.2009790  23.2736590 133.2391120  88.5365910
  23.3540180 132.2918630  88.6483310  24.1656340 133.5698000  88.6426570
  36.6033770 141.2955300  95.9683320  36.7281190 142.1186470  96.4407130
  37.4699330 141.0846030  95.6207470  24.0751300 143.3886510  95.6400450
  24.8113780 142.8401970  95.9109020  24.4592220 144.2542520  95.5006440
  20.9596780 139.4560080  91.5141960  20.0336560 139.6981220  91.5047370
  21.4253210 140.2834340  91.3926710  23.0809580 142.5732580 104.8286030
  23.8822310 142.8944630 105.2421430  22.5661400 142.2128160 105.5505940
  27.1853610 142.5616820  87.4626020  27.9782220 142.8505650  87.0107810
  26.6657960 142.1308990  86.7838500  31.9174210 138.6812450 104.7761440
  31.3112370 138.7044050 104.0357190  31.6128320 137.9495490 105.3128690
  33.3474580 142.4092740 103.3870850  34.2996330 142.3250760 103.3371090
  33.2002800 143.0734450 104.0604640  36.2383780 141.7886950  88.8862760
  35.9525290 141.3752090  88.0716940  36.0403330 142.7174660  88.7663280
  20.8007390 135.0606040 103.7722080  21.3046410 134.4813320 104.3438310
  20.0614810 135.3446270 104.3098450  27.7031010 137.7820230  87.3268370
  27.5981650 137.1672580  88.0529750  27.5355230 137.2586120  86.5431380
  27.8545330 136.4677030 103.3057600  27.0891000 137.0362030 103.2212270
  28.0361290 136.1753240 102.4125830  30.9433740 136.8440260  87.9310360
  30.3943840 137.2909560  88.5753100  31.5653000 136.3389510  88.4548030
  34.9968680 138.1982360 103.8632620  35.7378150 138.5358120 103.3600080
  34.2341360 138.3674420 103.3102390  22.8330470 133.2035630 104.6672150
  22.8735810 132.9049500 105.5757380  23.6875970 133.6043240 104.5079670
  26.6108860 135.8031180  89.8275660  27.0325280 135.6371050  90.6707050
  26.7359700 134.9931410  89.3330800  24.7736280 131.7827730 102.6346640
  24.2432740 131.2918680 102.0069980  25.4424350 132.2111930 102.1004570
  29.1236500 134.8268790  87.0752760  29.6442160 134.1117810  86.7093910
  29.7704900 135.4654660  87.3753270  33.6714340 136.2497190 102.3987830
  34.0855360 136.4042270 103.2478250  32.7365340 136.3752410 102.5613610
  34.1436510 133.5893350 104.4026980  34.7257280 132.8345670 104.3147460
  34.3198280 134.1200790 103.6258460  25.2608580 128.7490100 102.7143930
  25.1665450 128.1310850 101.9894800  24.6805970 129.4756390 102.4873840
  28.0270020 127.3063340  99.7471320  27.5787320 127.3287600  98.9016870
  27.3935220 126.9082360 100.3441620  28.4329570 136.2017670 100.3683760
  28.8517680 137.0450400 100.1960000  27.5138200 136.3389710 100.1390540
  30.7693470 133.9333850 101.7521600  30.8889680 133.3374990 102.4916440
  31.6287470 133.9703540 101.3322900  33.1081370 134.4871040 100.3284110
  32.5816590 135.0113660  99.7249250  33.4512710 135.1198430 100.9593840
  25.5067760 131.8764410  86.7733820  25.3056820 131.0131770  87.1347160
  25.3359810 131.7897770  85.8355420  26.2836990 142.5070680 101.4841490
  25.7458080 143.2316740 101.1650190  26.5370950 142.0301020 100.6938830
  27.5362240 130.4755200 103.0097420  28.1261930 130.1671050 103.6975240
  26.7182480 130.0034950 103.1657320  32.3555670 130.0921010 103.2430440
  31.6671190 129.4302550 103.1780430  33.0761690 129.6459280 103.6878900
  24.3050560 128.9765030  86.7611700  24.6076460 128.9832460  85.8530850
  25.0445150 128.6262890  87.2579360  29.1399200 143.7421890 101.7428140
  29.0657900 144.6457030 102.0500510  28.2378040 143.4233790 101.7150210
  27.5235490 127.9199650  87.7467900  27.1757490 127.2423640  87.1670350
  27.7248260 127.4589160  88.5611290  29.6884530 142.9080400  89.3654500
  30.5835320 143.2465370  89.3873260  29.7202160 142.1859810  88.7378780
  23.3280690 138.2807450  87.5941500  23.7655560 138.8237120  88.2499080
  23.8128420 137.4554400  87.6037840  20.5426490 141.0696480  95.0461760
  20.8729500 140.2017540  94.8140400  20.9717490 141.2755000  95.8766720
  25.1388410 139.4005490  92.7063730  24.8383950 139.2770460  93.6067640
  25.0325900 138.5414080  92.2979460  21.0316700 141.9367070  97.7843390
  20.5947690 142.1167870  98.6167540  21.5994380 142.6941690  97.6425110
  36.6678880 141.4384070 102.0720700  36.0680870 141.4976630 101.3284620
  36.7972780 140.4989050 102.2017550  37.9080330 139.1801890  87.4090410
  37.0773290 139.2478540  87.8797640  38.0852160 140.0706010  87.1057270
  37.3636790 135.9249370  89.9124610  38.1255700 136.4946020  90.0184300
  37.3791160 135.3576570  90.6832920  20.8641130 134.4487300  94.1432270
  20.2089970 134.1798940  93.4991970  21.7019080 134.3391780  93.6934250
  38.3696760 136.7799470  94.7566540  38.7405590 135.9966790  94.3502510
  39.0098690 137.4688570  94.5783840  35.3530520 138.1636050 100.1696860
  34.5390360 138.5933210 100.4322650  35.7604720 138.7754460  99.5565910
  37.4155960 136.2183740  87.0697130  37.6904800 137.1262620  86.9416350
  37.2266700 136.1546270  88.0059120  37.3121300 134.1552730  92.0626560
  36.9364900 133.3880660  91.6307850  36.5824420 134.5375430  92.5501490
  21.9017060 134.8339870  98.6835610  22.2690100 134.7467270  99.5631630
  21.3327880 134.0706420  98.5842470  36.7020920 133.3024250 101.6966080
  36.4707010 133.0737000 100.7964030  36.9625470 134.2223800 101.6510970
  21.4533060 131.7448960 102.5894030  20.5589110 131.7115720 102.9287740
  21.9930610 131.9435750 103.3545280  35.1408990 128.5280680 104.4745780
  36.0179170 128.5364080 104.8579780  35.1529830 127.7911520 103.8638130
  20.0779210 131.6586230  90.0857600  19.1743290 131.9216430  89.9109260
  20.5619830 131.9297400  89.3057560  36.5872260 132.3810220  95.3633800
  37.1109740 131.8872870  94.7323970  37.1731680 132.5160580  96.1081370
  36.7661980 132.4650090  98.8853350  35.8164690 132.4313630  98.9998340
  36.9474990 133.3750200  98.6503120  22.6206420 130.7151770  87.9951980
  23.3298120 130.2934990  87.5099260  21.9046360 130.7827000  87.3635330
  22.2680580 126.7691100  87.0354630  22.9908710 127.3100040  87.3535850
  22.5405100 126.4954520  86.1596170  36.0772230 131.6383570  91.3026210
  36.5731350 131.4054440  92.0875090  35.8788300 130.7995410  90.8863850
  21.9572770 126.0197290  96.9377250  22.6048960 125.4694670  96.4972410
  22.3774610 126.2740440  97.7593060  37.5059390 130.2744520  93.8363890
  37.3958670 130.1200560  94.7746160  38.2666980 129.7465460  93.5939300
  35.8525110 126.2138650 100.2946890  36.4897330 126.8272790 100.6606080
  36.0000000 126.2499310  99.3496120  38.3949660 128.1052440  87.0770030
  39.3198970 127.9733620  86.8688320  38.3725450 128.1845260  88.0306480
  35.4106570 142.9154650  93.6965130  36.0065640 142.5939220  93.0199550
  35.6684720 142.4426470  94.4878400  21.7104770 126.1752960  99.6802570
  21.3619590 126.6316780 100.4460750  21.3792470 125.2810090  99.7625000
  23.3169140 139.3472560 103.8455760  23.2738770 138.9765470 104.7270220
  23.4480150 140.2850130 103.9857580  27.0175170 140.9032150  99.4465480
  26.7766530 141.1706710  98.5596000  27.9577810 141.0737880  99.5016340
  29.2229590 127.3664840 103.2021990  29.1618480 127.9586670 103.9517400
  30.1629970 127.2590800 103.0572250  31.8604150 127.0234900 102.8414280
  32.4744560 127.3414190 102.1795360  32.4053710 126.5383490 103.4610140
  38.2779330 142.9226530 100.2476120  37.7837610 143.3195400  99.5303250
  37.6692620 142.2975740 100.6413400  22.3825410 125.7029160 102.9553340
  22.9308400 125.5217210 102.1919450  22.4480720 124.9123270 103.4909650
  23.1557170 142.2934810 100.9653540  22.5617490 142.1619510 101.7043580
  23.1481010 141.4572950 100.4995640  32.6012190 125.5867040  99.1683570
  31.7272030 125.9202150  98.9656500  32.4922940 125.1140220  99.9935440
  33.5084170 127.7937910 100.5525290  33.1797530 126.9789670 100.1727020
  34.4566470 127.7507720 100.4290980  35.9618780 143.5649950  97.5262860
  35.5021750 144.3165760  97.1520880  35.3331240 142.8456420  97.4677660
  22.7869400 139.6593190  99.9161580  22.0603460 139.0398480  99.8487530
  22.8478550 140.0533800  99.0459660  26.3914500 141.8738190  96.7010990
  26.9079520 141.2625550  96.1759250  27.0411880 142.3766970  97.1922000
  29.1310000 142.7646680  97.5279970  29.4187810 142.5100980  96.6512980
  29.6433220 142.2124040  98.1185540  30.3487010 126.5036880  98.1076480
  29.5658800 126.9782380  98.3873240  30.0549940 125.5991710  97.9989660
  34.9008080 127.2059980  96.1525570  35.3416170 127.1505080  95.3047170
  34.6315670 128.1217990  96.2235750  21.0699400 142.9767580  93.1258340
  20.9021440 142.3438260  93.8240230  20.2033910 143.1826980  92.7752530
  21.6927420 126.8084360  90.6290200  22.4506780 126.9213240  90.0554230
  21.2304590 127.6453560  90.5833630  28.2341230 128.9223630  93.6192510
  27.4215740 128.5480520  93.2788390  28.7382870 128.1668710  93.9213700
  32.7366210 125.5866080  94.8575580  33.3395580 126.1586290  95.3324100
  31.9959200 126.1505520  94.6349480  22.6762100 141.6700810  90.5708480
  22.1509720 142.0508840  89.8670440  22.6006680 142.2951580  91.2918190
  24.0652570 127.3348410  89.1692170  24.5945330 126.5478210  89.0400120
  24.6980890 128.0139600  89.4027700  26.2590410 127.0723550  92.2237560
  25.6293150 126.3710860  92.3907690  25.7195550 127.8327680  92.0070720
  29.1982360 143.6862780 104.8948170  30.1249670 143.4507050 104.9384130
  29.1832790 144.5134780 104.4134200  37.4327420 143.2288350  91.8922420
  37.6079610 142.5426090  91.2483340  36.7348990 143.7535400  91.4999090
  26.3845970 126.3507530 104.6590050  26.1030240 126.8541130 103.8950870
  26.7665670 125.5529280 104.2932180  25.2755070 143.6183190  89.4457730
  26.0073890 143.3342470  88.8981620  25.5348740 143.3796470  90.3357110
  24.4369860 139.7347920  89.4504060  23.8078740 140.2033020  89.9989890
  24.5517690 138.8897140  89.8850250  32.9861430 125.7661110 105.2370520
  32.8726880 126.0855720 106.1322040  33.8031170 126.1673620 104.9407800
  35.7659920 142.9132640 104.7189210  36.5585240 142.4181870 104.5115170
  36.0593070 143.5922780 105.3264820  31.8919580 133.7853580  75.6005260
  31.8113630 132.8708190  75.3296970  31.4784000 134.2820650  74.8944970
  30.0237620 135.5632600  77.4814530  29.2479720 135.0833040  77.7713100
  30.6750550 134.8838250  77.3070690  24.0403450 135.8752410  78.3590290
  23.2088330 135.6201120  78.7586800  24.6484430 135.9463180  79.0948210
  34.0445050 139.9692790  76.2613660  33.5826580 139.1980030  76.5900830
  34.8570600 139.9958860  76.7666110  24.0204710 139.9092500  78.5548310
  24.3232750 139.0190240  78.3758530  24.7648300 140.4662720  78.3270560
  22.4495400 130.8354300  72.1432680  21.5612100 131.1770270  72.0412560
  22.7336590 130.6354620  71.2513510  20.4128410 133.4359950  78.0272380
  20.9844520 132.6682150  78.0276020  20.4129950 133.7348710  77.1178990
  30.2708360 142.2550800  75.8817650  29.6519800 142.7108300  75.3112090
  31.1260140 142.4102260  75.4807350  29.4646610 138.2389790  77.4884690
  29.3954890 137.2979730  77.3273820  30.2266470 138.3291200  78.0607260
  21.6553280 128.8444310  79.8141310  21.4756120 127.9470060  80.0944070
  21.2533360 129.3916180  80.4888260  30.4951780 131.0460170  77.7153620
  30.8716600 130.1732050  77.6027290  30.3971290 131.3818870  76.8244060
  24.6256790 129.4185800  73.1771060  24.7323540 130.3189530  73.4839820
  23.7149150 129.3703770  72.8865710  34.2775900 128.5410610  74.6481960
  35.0985520 128.0507180  74.6907440  34.3109980 129.1308270  75.4013800
  22.2739950 131.3404810  78.4223650  22.9550060 131.6043180  79.0411050
  21.9588000 130.5005680  78.7561660  26.4664520 132.3872170  77.5096240
  26.9742740 132.8853140  78.1501260  26.9977760 131.6107370  77.3335600
  38.5675450 130.5577360  81.2125590  37.8627620 130.9459070  80.6940700
  38.8333370 131.2527650  81.8146520  24.7500620 127.0270730  81.7759660
  24.7519060 127.5443120  80.9705560  23.9204930 126.5500910  81.7529590
  31.1371710 137.1390040  73.2749560  30.5188980 137.6039490  72.7112280
  31.6494960 137.8317520  73.6919070  26.0003470 136.6665910  79.9533160
  25.6672850 137.2934830  80.5954230  26.1770150 137.1927790  79.1734830
  34.5137380 130.4810990  77.4209500  33.8092950 130.7695880  78.0012610
  34.8749540 131.2911100  77.0609060  24.4315950 128.7380690  79.7830110
  24.7732760 129.5822740  79.4883980  23.4931760 128.8864430  79.8995450
  25.2122570 138.6346710  81.7682340  25.8296570 139.3097790  81.4866790
  24.3515690 139.0434690  81.6769840  20.5054910 137.8246570  70.6489190
  20.1282890 138.3133670  69.9174090  20.7627980 138.4971850  71.2795720
  36.1300160 140.0986120  79.6836980  35.4463680 140.7685230  79.6753650
  36.6694450 140.2966770  78.9181840  37.5824300 129.9265780  77.8118710
  36.6349210 129.9604760  77.9434140  37.9074290 130.7404730  78.1968070
  28.1143840 126.2262960  76.1074700  28.4218820 125.6709850  75.3910200
  27.1844540 126.3607420  75.9247690  33.6658900 141.9430250  78.3982160
  33.6786060 141.5392540  77.5304420  33.1134120 142.7177540  78.2943590
  34.9604320 138.6646470  73.4872330  34.8500650 137.7220800  73.6121750
  34.9572570 139.0262110  74.3735090  33.0644340 136.8460090  79.7264770
  33.4813130 136.6320200  78.8918230  33.7884160 137.1032880  80.2973390
  30.5024600 134.2911790  72.8434820  29.5753880 134.2249170  73.0723290
  30.6549420 135.2291920  72.7290060  30.4893680 130.5628790  69.8401980
  29.5497350 130.7242750  69.9254440  30.8076940 131.2814470  69.2937970
  37.0106440 135.2447310  79.8181010  36.1825070 135.3140400  79.3431140
  37.6056920 135.8301620  79.3496840  34.5321890 135.8532090  73.3470070
  33.9134310 135.5151640  72.6996370  34.5146340 135.2091850  74.0549260
  33.9748450 132.0316630  80.7635880  33.5619630 132.8570340  81.0175870
  33.2424400 131.4461670  80.5712240  26.1081240 134.8176530  75.6254550
  25.7038240 134.1053780  75.1300450  26.1944360 134.4729770  76.5142590
  26.5762940 138.5044090  77.7893760  26.2791230 137.8989560  77.1101540
  27.5262760 138.5421400  77.6783120  24.8209860 131.5919740  79.4053590
  25.3724450 131.7015080  78.6306840  25.3353370 131.9657340  80.1208820
  34.6648550 142.0775960  81.4516860  34.1879110 142.8848150  81.2589470
  33.9810340 141.4254290  81.6043070  25.6681370 138.2425780  84.4401560
  24.7709900 138.4665750  84.6874960  25.6934240 138.3660720  83.4912960
  32.7086590 135.0918900  70.3542820  33.1479870 134.2541330  70.2080640
  33.4215010 135.7248300  70.4406960  24.4952590 135.1139100  83.0158930
  24.3560360 135.9861900  83.3846330  23.6133950 134.7711910  82.8706870
  30.8181970 140.0314970  74.3224060  31.2577880 140.7739300  73.9079450
  30.7568860 140.2741540  75.2463020  26.2932940 141.0560800  85.2244080
  26.2648370 141.4603750  84.3572510  26.1297910 140.1271160  85.0615680
  36.2903730 126.3461710  68.6683860  35.9776390 126.4388540  69.5682930
  37.0516200 126.9242740  68.6181290  22.8085870 133.7121510  73.1261200
  22.6883470 134.4383600  72.5142470  22.4986760 132.9424420  72.6489110
  38.2447760 141.8387900  86.5208250  38.7207480 142.3170790  87.1997330
  38.8654920 141.7705390  85.7953750  20.4471240 136.8836650  78.9329840
  20.5251660 137.0185420  77.9885560  21.0612920 136.1752540  79.1257960
  21.6918870 138.5836840  75.3436020  21.2846950 138.7251430  74.4889620
  22.5831880 138.2997000  75.1407230  37.6481010 139.0300750  83.6808260
  37.7744070 138.7912630  82.7625440  37.6902390 138.1985290  84.1530340
  31.5097750 142.7328750  82.2503070  32.0242420 142.6436760  83.0525500
  30.6666830 143.0788450  82.5430980  33.4852150 143.0184090  71.6787070
  33.3253290 142.7287030  72.5768900  33.3198860 142.2424220  71.1432300
  25.9640530 142.7982620  73.4558690  25.7883010 141.8818160  73.2426490
  25.1096270 143.1569910  73.6956490  33.1878280 140.5271650  70.2385070
  32.4943440 140.5248940  69.5787350  33.9301140 140.1030970  69.8079240
  32.7528210 142.1534360  74.3133560  33.2085160 141.3723740  74.6272180
  33.0920730 142.8641180  74.8574740  37.5005020 131.0833210  84.6458000
  36.8849290 131.5912880  84.1173460  37.1801440 130.1831540  84.5883940
  20.5030760 137.9250820  81.4724300  20.6661800 137.4556180  80.6543670
  20.9683210 137.4174380  82.1373140  25.2749530 127.0556580  76.5084870
  24.8317680 127.8366120  76.1769390  25.8334520 127.3786470  77.2155810
  29.5619340 129.9225100  82.1120190  29.0998710 130.1308120  82.9240130
  29.1597450 129.1084450  81.8090860  34.5623850 131.1434050  83.2416850
  33.7117440 130.8439800  83.5625920  34.4025640 131.3876060  82.3300670
  31.6573560 132.6435800  85.3415640  31.9826970 131.8099550  85.0017870
  32.4453890 133.1664320  85.4893970  28.3908350 126.6767280  71.3890700
  27.7662530 126.6727150  72.1144010  28.3038470 125.8098240  70.9926670
  27.3125430 127.6003910  78.3674470  27.6097760 128.5066740  78.2866490
  27.8610990 127.1122690  77.7534040  25.0663750 132.1790150  74.2366120
  24.8404670 131.9627320  75.1412740  24.2856280 132.6118610  73.8912090
  32.2961510 132.1853520  72.8356770  31.6970400 132.9089320  72.6520390
  32.8441120 132.1230300  72.0533220  27.5062960 133.0775730  84.9026390
  27.4106560 132.1370460  84.7526790  28.3494940 133.2990800  84.5074460
  30.9026380 130.8217060  74.8660050  31.2955950 131.1389260  74.0528740
  31.2643230 129.9428940  74.9804570  22.6373500 129.4889400  83.0560170
  22.2436890 130.3364610  83.2632950  21.9491900 128.8515770  83.2468810
  29.2118550 129.5724370  86.1256910  28.5216870 129.3796570  86.7603000
  29.9550850 129.8559010  86.6581210  19.9390550 127.4117860  77.0890250
  19.6503600 127.9820720  77.8015230  20.6836310 126.9322310  77.4521480
  20.1260780 131.3537980  68.2992970  20.0435450 132.2968740  68.4407960
  19.7743840 131.2112890  67.4205320  31.4881520 133.4122810  78.9610830
  30.7562640 133.9209620  79.3100930  31.0905860 132.5952790  78.6599610
  27.9258910 130.0877010  77.3663320  27.9294970 129.6466960  76.5167860
  28.8210030 130.4094340  77.4735140  23.7761290 129.9703500  76.3257530
  23.4361340 130.4478730  77.0824580  23.0138610 129.5168620  75.9658630
  27.9879060 131.0889090  70.3570080  28.1091880 131.0475570  71.3055900
  27.6027570 131.9513240  70.2016810  31.9507430 128.8656490  78.3733770
  31.9680170 129.3165140  79.2175620  31.7023010 127.9662130  78.5867210
  27.0000560 133.3990230  69.7553380  26.4317460 132.9508480  69.1289290
  27.7089560 133.7583010  69.2218530  22.0769740 137.3002250  83.6320110
  21.6924530 136.6595920  84.2303070  22.3881930 138.0038370  84.2014840
  28.2266880 134.1478790  79.1128730  28.5937010 133.6737360  79.8590070
  28.0371940 135.0220360  79.4537070  21.0907370 128.8922480  75.2422200
  20.8054290 128.5278150  76.0800820  21.0286230 128.1602940  74.6285340
  26.0166250 133.1887430  81.4312940  25.7123320 134.0679410  81.6563300
  26.9712710 133.2487220  81.4670380  24.5448040 137.3948420  72.0279790
  23.7710300 136.8546040  71.8678510  25.2742670 136.8755030  71.6897550
  35.3036020 136.3913780  77.8206180  36.0235140 136.8869070  77.4302290
  35.1017840 135.7131670  77.1760050  30.7645960 127.7851740  71.9635570
  29.9510570 127.2864910  71.8880880  30.5707910 128.6249990  71.5471920
  30.6854820 136.4622840  83.7075180  30.6192130 135.5418510  83.4532770
  30.0559960 136.5598280  84.4219820  33.4794350 132.1571390  70.2597730
  34.3673970 132.4688620  70.0849070  33.4499440 131.2843640  69.8678310
  24.5885440 137.0628800  75.6658600  25.1064110 136.2597060  75.6115490
  24.1369460 137.0007940  76.5075430  29.4754940 138.3295080  70.9385900
  29.8170640 139.0737310  70.4429220  28.6467650 138.6426200  71.3010730
  22.0729980 134.0290170  82.5784300  21.7144920 134.6944020  83.1657640
  21.7784540 133.1973720  82.9496920  25.2743100 134.4874410  85.4623850
  24.9743240 134.6331590  84.5651670  26.0454340 133.9279700  85.3697240
  30.6171550 139.2843410  83.4578980  30.6316090 138.3524370  83.2397890
  29.9096650 139.3703170  84.0968750  35.7508620 133.4683230  69.7277590
  35.6672340 133.8997450  68.8774030  36.4702810 133.9281580  70.1604410
  36.8282760 135.9250750  82.8047560  36.1030950 136.5179530  82.6076950
  37.3558220 135.9174290  82.0060930  36.7795870 140.3225490  72.4559720
  36.1372030 139.6681110  72.7303440  36.3926530 140.7280580  71.6800390
  32.3582350 137.6510920  76.3031410  32.7106170 137.0539050  75.6432780
  31.4744680 137.3255150  76.4739660  28.4445630 138.4108610  73.7101820
  29.1316760 138.9577820  74.0909410  27.6578050 138.9549340  73.7451430
  20.5838030 134.0281430  69.2018900  21.4532880 134.3106230  69.4854820
  20.0928350 134.8417300  69.0867710  27.7472840 135.4154640  73.3227180
  28.2035620 136.2259890  73.5487370  27.3961050 135.0977780  74.1545670
  30.0505450 140.9260980  80.5519480  30.6947670 141.1320360  81.2292900
  30.4134890 140.1649380  80.0990330  23.6484620 125.7592290  73.7949700
  23.5199250 125.7510190  74.7434620  22.8246640 126.0975380  73.4440710
  31.3237530 138.9293330  79.2696930  31.9659760 138.2286490  79.3829100
  31.8486880 139.7091770  79.0893820  35.1693250 139.2141950  68.9936070
  34.9430830 138.4972390  69.5860710  34.7789450 138.9654390  68.1557820
  33.0975150 139.7288230  82.4732990  33.4331390 140.3154920  83.1510910
  32.1775490 139.5980940  82.7030780  20.9509280 143.2408810  69.7680530
  21.3106920 143.8398150  69.1137800  20.8101620 143.7868700  70.5415560
  20.6478550 127.5183410  83.2556400  19.9337070 127.7180330  83.8609010
  21.0673590 126.7422980  83.6271200  34.7509500 137.1313890  70.6550230
  34.4631200 137.5926580  71.4428110  35.5461670 136.6711660  70.9234450
  20.9351140 141.5063670  84.2422930  21.0442260 140.5658410  84.1018320
  20.2831700 141.7718420  83.5936660  28.9263730 139.7779560  85.6421050
  28.6060600 139.0588800  86.1866740  28.2522090 140.4534630  85.7157110
  26.9677900 140.6240010  70.5854200  26.9588000 141.3569700  69.9698710
  26.0476260 140.3771590  70.6781160  22.5684540 135.8454900  71.3300960
  21.9612490 136.5853800  71.3396260  23.0433890 135.9354260  70.5039160
  32.1417330 130.0105720  81.0057850  32.5098150 129.1900930  81.3337420
  31.2815530 130.0707610  81.4213500  35.5079360 128.9662660  71.8145410
  34.8792520 129.0708330  71.1003640  35.0131280 129.1859440  72.6039290
  29.9537500 140.6868250  69.2479390  30.0549480 140.4832240  68.3181370
  29.0539240 140.4326530  69.4527170  27.4763390 131.2448610  73.2303290
  26.7679540 131.7134950  73.6716900  27.7607870 130.5870620  73.8648480
  29.1019320 132.6645310  81.2295820  29.6004570 133.1391130  81.8947670
  29.2442270 131.7408830  81.4365850  31.5078820 127.9699270  74.6699080
  31.3846600 127.9885400  73.7208590  32.4563380 128.0178210  74.7897480
  28.5955610 143.2054570  73.9427060  28.8497110 143.1675960  73.0206430
  27.6468090 143.0787900  73.9355310  25.6798410 129.5533690  70.6054000
  26.5288940 129.9903840  70.5394190  25.3129680 129.8653950  71.4326060
  34.6008190 134.1246450  75.5185570  33.6598330 134.1396680  75.6933260
  34.9152260 133.3382410  75.9645870  24.5789830 135.8066050  69.0789530
  25.3453100 135.6947410  69.6414960  24.6564520 135.1104020  68.4266300
  23.2736590 133.2391120  69.7622420  23.3540180 132.2918630  69.8739820
  24.1656340 133.5698000  69.8683080  36.6033770 141.2955300  77.1939830
  36.7281190 142.1186470  77.6663640  37.4699330 141.0846030  76.8463980
  24.0751300 143.3886510  76.8656960  24.8113780 142.8401970  77.1365530
  24.4592220 144.2542520  76.7262950  20.9596780 139.4560080  72.7398470
  20.0336560 139.6981220  72.7303880  21.4253210 140.2834340  72.6183220
  23.0809580 142.5732580  86.0542540  23.8822310 142.8944630  86.4677940
  22.5661400 142.2128160  86.7762450  27.1853610 142.5616820  68.6882530
  27.9782220 142.8505650  68.2364320  26.6657960 142.1308990  68.0095010
  31.9174210 138.6812450  86.0017950  31.3112370 138.7044050  85.2613700
  31.6128320 137.9495490  86.5385200  33.3474580 142.4092740  84.6127360
  34.2996330 142.3250760  84.5627600  33.2002800 143.0734450  85.2861150
  36.2383780 141.7886950  70.1119270  35.9525290 141.3752090  69.2973450
  36.0403330 142.7174660  69.9919790  20.8007390 135.0606040  84.9978590
  21.3046410 134.4813320  85.5694820  20.0614810 135.3446270  85.5354960
  27.7031010 137.7820230  68.5524880  27.5981650 137.1672580  69.2786260
  27.5355230 137.2586120  67.7687890  27.8545330 136.4677030  84.5314110
  27.0891000 137.0362030  84.4468780  28.0361290 136.1753240  83.6382340
  30.9433740 136.8440260  69.1566870  30.3943840 137.2909560  69.8009610
  31.5653000 136.3389510  69.6804540  34.9968680 138.1982360  85.0889130
  35.7378150 138.5358120  84.5856590  34.2341360 138.3674420  84.5358900
  22.8330470 133.2035630  85.8928660  22.8735810 132.9049500  86.8013890
  23.6875970 133.6043240  85.7336180  26.6108860 135.8031180  71.0532170
  27.0325280 135.6371050  71.8963560  26.7359700 134.9931410  70.5587310
  24.7736280 131.7827730  83.8603150  24.2432740 131.2918680  83.2326490
  25.4424350 132.2111930  83.3261080  29.1236500 134.8268790  68.3009270
  29.6442160 134.1117810  67.9350420  29.7704900 135.4654660  68.6009780
  33.6714340 136.2497190  83.6244340  34.0855360 136.4042270  84.4734760
  32.7365340 136.3752410  83.7870120  34.1436510 133.5893350  85.6283490
  34.7257280 132.8345670  85.5403970  34.3198280 134.1200790  84.8514970
  25.2608580 128.7490100  83.9400440  25.1665450 128.1310850  83.2151310
  24.6805970 129.4756390  83.7130350  28.0270020 127.3063340  80.9727830
  27.5787320 127.3287600  80.1273380  27.3935220 126.9082360  81.5698130
  28.4329570 136.2017670  81.5940270  28.8517680 137.0450400  81.4216510
  27.5138200 136.3389710  81.3647050  30.7693470 133.9333850  82.9778110
  30.8889680 133.3374990  83.7172950  31.6287470 133.9703540  82.5579410
  33.1081370 134.4871040  81.5540620  32.5816590 135.0113660  80.9505760
  33.4512710 135.1198430  82.1850350  25.5067760 131.8764410  67.9990330
  25.3056820 131.0131770  68.3603670  25.3359810 131.7897770  67.0611930
  26.2836990 142.5070680  82.7098000  25.7458080 143.2316740  82.3906700
  26.5370950 142.0301020  81.9195340  27.5362240 130.4755200  84.2353930
  28.1261930 130.1671050  84.9231750  26.7182480 130.0034950  84.3913830
  32.3555670 130.0921010  84.4686950  31.6671190 129.4302550  84.4036940
  33.0761690 129.6459280  84.9135410  24.3050560 128.9765030  67.9868210
  24.6076460 128.9832460  67.0787360  25.0445150 128.6262890  68.4835870
  29.1399200 143.7421890  82.9684650  29.0657900 144.6457030  83.2757020
  28.2378040 143.4233790  82.9406720  27.5235490 127.9199650  68.9724410
  27.1757490 127.2423640  68.3926860  27.7248260 127.4589160  69.7867800
  29.6884530 142.9080400  70.5911010  30.5835320 143.2465370  70.6129770
  29.7202160 142.1859810  69.9635290  23.3280690 138.2807450  68.8198010
  23.7655560 138.8237120  69.4755590  23.8128420 137.4554400  68.8294350
  20.5426490 141.0696480  76.2718270  20.8729500 140.2017540  76.0396910
  20.9717490 141.2755000  77.1023230  25.1388410 139.4005490  73.9320240
  24.8383950 139.2770460  74.8324150  25.0325900 138.5414080  73.5235970
  21.0316700 141.9367070  79.0099900  20.5947690 142.1167870  79.8424050
  21.5994380 142.6941690  78.8681620  36.6678880 141.4384070  83.2977210
  36.0680870 141.4976630  82.5541130  36.7972780 140.4989050  83.4274060
  37.9080330 139.1801890  68.6346920  37.0773290 139.2478540  69.1054150
  38.0852160 140.0706010  68.3313780  37.3636790 135.9249370  71.1381120
  38.1255700 136.4946020  71.2440810  37.3791160 135.3576570  71.9089430
  20.8641130 134.4487300  75.3688780  20.2089970 134.1798940  74.7248480
  21.7019080 134.3391780  74.9190760  38.3696760 136.7799470  75.9823050
  38.7405590 135.9966790  75.5759020  39.0098690 137.4688570  75.8040350
  35.3530520 138.1636050  81.3953370  34.5390360 138.5933210  81.6579160
  35.7604720 138.7754460  80.7822420  37.4155960 136.2183740  68.2953640
  37.6904800 137.1262620  68.1672860  37.2266700 136.1546270  69.2315630
  33.8131570 129.2428590  69.5907270  34.2316450 129.0559570  68.7503930
  33.5067630 128.3907640  69.9010200  37.3121300 134.1552730  73.2883070
  36.9364900 133.3880660  72.8564360  36.5824420 134.5375430  73.7758000
  21.9017060 134.8339870  79.9092120  22.2690100 134.7467270  80.7888140
  21.3327880 134.0706420  79.8098980  36.7020920 133.3024250  82.9222590
  36.4707010 133.0737000  82.0220540  36.9625470 134.2223800  82.8767480
  21.4533060 131.7448960  83.8150540  20.5589110 131.7115720  84.1544250
  21.9930610 131.9435750  84.5801790  20.0779210 131.6586230  71.3114110
  19.1743290 131.9216430  71.1365770  20.5619830 131.9297400  70.5314070
  36.5872260 132.3810220  76.5890310  37.1109740 131.8872870  75.9580480
  37.1731680 132.5160580  77.3337880  36.7661980 132.4650090  80.1109860
  35.8164690 132.4313630  80.2254850  36.9474990 133.3750200  79.8759630
  22.6206420 130.7151770  69.2208490  23.3298120 130.2934990  68.7355770
  21.9046360 130.7827000  68.5891840  22.2680580 126.7691100  68.2611140
  22.9908710 127.3100040  68.5792360  22.5405100 126.4954520  67.3852680
  36.0772230 131.6383570  72.5282720  36.5731350 131.4054440  73.3131600
  35.8788300 130.7995410  72.1120360  21.9572770 126.0197290  78.1633760
  22.6048960 125.4694670  77.7228920  22.3774610 126.2740440  78.9849570
  37.5059390 130.2744520  75.0620400  37.3958670 130.1200560  76.0002670
  38.2666980 129.7465460  74.8195810  38.3949660 128.1052440  68.3026540
  39.3198970 127.9733620  68.0944830  38.3725450 128.1845260  69.2562990
  38.4688150 128.8763100  70.9283250  37.6739650 128.8108220  71.4576160
  38.6731430 129.8113740  70.9168600  35.4106570 142.9154650  74.9221640
  36.0065640 142.5939220  74.2456060  35.6684720 142.4426470  75.7134910
  21.7104770 126.1752960  80.9059080  21.3619590 126.6316780  81.6717260
  21.3792470 125.2810090  80.9881510  23.3169140 139.3472560  85.0712270
  23.2738770 138.9765470  85.9526730  23.4480150 140.2850130  85.2114090
  27.0175170 140.9032150  80.6721990  26.7766530 141.1706710  79.7852510
  27.9577810 141.0737880  80.7272850  29.2229590 127.3664840  84.4278500
  29.1618480 127.9586670  85.1773910  30.1629970 127.2590800  84.2828760
  31.8604150 127.0234900  84.0670790  32.4744560 127.3414190  83.4051870
  32.4053710 126.5383490  84.6866650  38.2779330 142.9226530  81.4732630
  37.7837610 143.3195400  80.7559760  37.6692620 142.2975740  81.8669910
  22.3825410 125.7029160  84.1809850  22.9308400 125.5217210  83.4175960
  22.4480720 124.9123270  84.7166160  23.1557170 142.2934810  82.1910050
  22.5617490 142.1619510  82.9300090  23.1481010 141.4572950  81.7252150
  35.9618780 143.5649950  78.7519370  35.5021750 144.3165760  78.3777390
  35.3331240 142.8456420  78.6934170  22.7869400 139.6593190  81.1418090
  22.0603460 139.0398480  81.0744040  22.8478550 140.0533800  80.2716170
  26.3914500 141.8738190  77.9267500  26.9079520 141.2625550  77.4015760
  27.0411880 142.3766970  78.4178510  29.1310000 142.7646680  78.7536480
  29.4187810 142.5100980  77.8769490  29.6433220 142.2124040  79.3442050
  30.3487010 126.5036880  79.3332990  29.5658800 126.9782380  79.6129750
  30.0549940 125.5991710  79.2246170  34.9008080 127.2059980  77.3782080
  35.3416170 127.1505080  76.5303680  34.6315670 128.1217990  77.4492260
  36.7646650 126.8375220  75.3890900  36.7035050 125.8936440  75.2421920
  37.5438680 126.9455310  75.9344360  21.0699400 142.9767580  74.3514850
  20.9021440 142.3438260  75.0496740  20.2033910 143.1826980  74.0009040
  21.6927420 126.8084360  71.8546710  22.4506780 126.9213240  71.2810740
  21.2304590 127.6453560  71.8090140  28.2341230 128.9223630  74.8449020
  27.4215740 128.5480520  74.5044900  28.7382870 128.1668710  75.1470210
  32.7366210 125.5866080  76.0832090  33.3395580 126.1586290  76.5580610
  31.9959200 126.1505520  75.8605990  22.6762100 141.6700810  71.7964990
  22.1509720 142.0508840  71.0926950  22.6006680 142.2951580  72.5174700
  24.0652570 127.3348410  70.3948680  24.5945330 126.5478210  70.2656630
  24.6980890 128.0139600  70.6284210  26.2590410 127.0723550  73.4494070
  25.6293150 126.3710860  73.6164200  25.7195550 127.8327680  73.2327230
  29.1982360 143.6862780  86.1204680  30.1249670 143.4507050  86.1640640
  29.1832790 144.5134780  85.6390710  37.4327420 143.2288350  73.1178930
  37.6079610 142.5426090  72.4739850  36.7348990 143.7535400  72.7255600
  26.3845970 126.3507530  85.8846560  26.1030240 126.8541130  85.1207380
  26.7665670 125.5529280  85.5188690  25.2755070 143.6183190  70.6714240
  26.0073890 143.3342470  70.1238130  25.5348740 143.3796470  71.5613620
  24.4369860 139.7347920  70.6760570  23.8078740 140.2033020  71.2246400
  24.5517690 138.8897140  71.1106760  35.7659920 142.9132640  85.9445720
  36.5585240 142.4181870  85.7371680  36.0593070 143.5922780  86.5521330
  31.8919580 133.7853580  56.8261770  31.8113630 132.8708190  56.5553480
  31.4784000 134.2820650  56.1201480  30.0237620 135.5632600  58.7071040
  29.2479720 135.0833040  58.9969610  30.6750550 134.8838250  58.5327200
  24.0403450 135.8752410  59.5846800  23.2088330 135.6201120  59.9843310
  24.6484430 135.9463180  60.3204720  34.0445050 139.9692790  57.4870170
  33.5826580 139.1980030  57.8157340  34.8570600 139.9958860  57.9922620
  24.0204710 139.9092500  59.7804820  24.3232750 139.0190240  59.6015040
  24.7648300 140.4662720  59.5527070  22.4495400 130.8354300  53.3689190
  21.5612100 131.1770270  53.2669070  22.7336590 130.6354620  52.4770020
  20.4128410 133.4359950  59.2528890  20.9844520 132.6682150  59.2532530
  20.4129950 133.7348710  58.3435500  30.2708360 142.2550800  57.1074160
  29.6519800 142.7108300  56.5368600  31.1260140 142.4102260  56.7063860
  29.4646610 138.2389790  58.7141200  29.3954890 137.2979730  58.5530330
  30.2266470 138.3291200  59.2863770  21.6553280 128.8444310  61.0397820
  21.4756120 127.9470060  61.3200580  21.2533360 129.3916180  61.7144770
  30.4951780 131.0460170  58.9410130  30.8716600 130.1732050  58.8283800
  30.3971290 131.3818870  58.0500570  24.6256790 129.4185800  54.4027570
  24.7323540 130.3189530  54.7096330  23.7149150 129.3703770  54.1122220
  34.2775900 128.5410610  55.8738470  35.0985520 128.0507180  55.9163950
  34.3109980 129.1308270  56.6270310  22.2739950 131.3404810  59.6480160
  22.9550060 131.6043180  60.2667560  21.9588000 130.5005680  59.9818170
  26.4664520 132.3872170  58.7352750  26.9742740 132.8853140  59.3757770
  26.9977760 131.6107370  58.5592110  38.5675450 130.5577360  62.4382100
  37.8627620 130.9459070  61.9197210  38.8333370 131.2527650  63.0403030
  24.7500620 127.0270730  63.0016170  24.7519060 127.5443120  62.1962070
  23.9204930 126.5500910  62.9786100  31.1371710 137.1390040  54.5006070
  30.5188980 137.6039490  53.9368790  31.6494960 137.8317520  54.9175580
  26.0003470 136.6665910  61.1789670  25.6672850 137.2934830  61.8210740
  26.1770150 137.1927790  60.3991340  34.5137380 130.4810990  58.6466010
  33.8092950 130.7695880  59.2269120  34.8749540 131.2911100  58.2865570
  24.4315950 128.7380690  61.0086620  24.7732760 129.5822740  60.7140490
  23.4931760 128.8864430  61.1251960  25.2122570 138.6346710  62.9938850
  25.8296570 139.3097790  62.7123300  24.3515690 139.0434690  62.9026350
  20.5054910 137.8246570  51.8745700  20.1282890 138.3133670  51.1430600
  20.7627980 138.4971850  52.5052230  36.1300160 140.0986120  60.9093490
  35.4463680 140.7685230  60.9010160  36.6694450 140.2966770  60.1438350
  37.5824300 129.9265780  59.0375220  36.6349210 129.9604760  59.1690650
  37.9074290 130.7404730  59.4224580  28.1143840 126.2262960  57.3331210
  28.4218820 125.6709850  56.6166710  27.1844540 126.3607420  57.1504200
  33.6658900 141.9430250  59.6238670  33.6786060 141.5392540  58.7560930
  33.1134120 142.7177540  59.5200100  34.9604320 138.6646470  54.7128840
  34.8500650 137.7220800  54.8378260  34.9572570 139.0262110  55.5991600
  33.0644340 136.8460090  60.9521280  33.4813130 136.6320200  60.1174740
  33.7884160 137.1032880  61.5229900  30.5024600 134.2911790  54.0691330
  29.5753880 134.2249170  54.2979800  30.6549420 135.2291920  53.9546570
  30.4893680 130.5628790  51.0658490  29.5497350 130.7242750  51.1510950
  30.8076940 131.2814470  50.5194480  37.0106440 135.2447310  61.0437520
  36.1825070 135.3140400  60.5687650  37.6056920 135.8301620  60.5753350
  34.5321890 135.8532090  54.5726580  33.9134310 135.5151640  53.9252880
  34.5146340 135.2091850  55.2805770  33.9748450 132.0316630  61.9892390
  33.5619630 132.8570340  62.2432380  33.2424400 131.4461670  61.7968750
  26.1081240 134.8176530  56.8511060  25.7038240 134.1053780  56.3556960
  26.1944360 134.4729770  57.7399100  26.5762940 138.5044090  59.0150270
  26.2791230 137.8989560  58.3358050  27.5262760 138.5421400  58.9039630
  24.8209860 131.5919740  60.6310100  25.3724450 131.7015080  59.8563350
  25.3353370 131.9657340  61.3465330  34.6648550 142.0775960  62.6773370
  34.1879110 142.8848150  62.4845980  33.9810340 141.4254290  62.8299580
  25.6681370 138.2425780  65.6658070  24.7709900 138.4665750  65.9131470
  25.6934240 138.3660720  64.7169470  32.7086590 135.0918900  51.5799330
  33.1479870 134.2541330  51.4337150  33.4215010 135.7248300  51.6663470
  24.4952590 135.1139100  64.2415440  24.3560360 135.9861900  64.6102840
  23.6133950 134.7711910  64.0963380  30.8181970 140.0314970  55.5480570
  31.2577880 140.7739300  55.1335960  30.7568860 140.2741540  56.4719530
  26.2932940 141.0560800  66.4500590  26.2648370 141.4603750  65.5829020
  26.1297910 140.1271160  66.2872190  36.2903730 126.3461710  49.8940370
  35.9776390 126.4388540  50.7939440  37.0516200 126.9242740  49.8437800
  22.8085870 133.7121510  54.3517710  22.6883470 134.4383600  53.7398980
  22.4986760 132.9424420  53.8745620  38.2447760 141.8387900  67.7464760
  38.7207480 142.3170790  68.4253840  38.8654920 141.7705390  67.0210260
  20.4471240 136.8836650  60.1586350  20.5251660 137.0185420  59.2142070
  21.0612920 136.1752540  60.3514470  21.6918870 138.5836840  56.5692530
  21.2846950 138.7251430  55.7146130  22.5831880 138.2997000  56.3663740
  37.6481010 139.0300750  64.9064770  37.7744070 138.7912630  63.9881950
  37.6902390 138.1985290  65.3786850  31.5097750 142.7328750  63.4759580
  32.0242420 142.6436760  64.2782010  30.6666830 143.0788450  63.7687490
  33.4852150 143.0184090  52.9043580  33.3253290 142.7287030  53.8025410
  33.3198860 142.2424220  52.3688810  25.9640530 142.7982620  54.6815200
  25.7883010 141.8818160  54.4683000  25.1096270 143.1569910  54.9213000
  33.1878280 140.5271650  51.4641580  32.4943440 140.5248940  50.8043860
  33.9301140 140.1030970  51.0335750  32.7528210 142.1534360  55.5390070
  33.2085160 141.3723740  55.8528690  33.0920730 142.8641180  56.0831250
  37.5005020 131.0833210  65.8714510  36.8849290 131.5912880  65.3429970
  37.1801440 130.1831540  65.8140450  20.5030760 137.9250820  62.6980810
  20.6661800 137.4556180  61.8800180  20.9683210 137.4174380  63.3629650
  25.2749530 127.0556580  57.7341380  24.8317680 127.8366120  57.4025900
  25.8334520 127.3786470  58.4412320  29.5619340 129.9225100  63.3376700
  29.0998710 130.1308120  64.1496640  29.1597450 129.1084450  63.0347370
  34.5623850 131.1434050  64.4673360  33.7117440 130.8439800  64.7882430
  34.4025640 131.3876060  63.5557180  31.6573560 132.6435800  66.5672150
  31.9826970 131.8099550  66.2274380  32.4453890 133.1664320  66.7150480
  28.3908350 126.6767280  52.6147210  27.7662530 126.6727150  53.3400520
  28.3038470 125.8098240  52.2183180  27.3125430 127.6003910  59.5930980
  27.6097760 128.5066740  59.5123000  27.8610990 127.1122690  58.9790550
  25.0663750 132.1790150  55.4622630  24.8404670 131.9627320  56.3669250
  24.2856280 132.6118610  55.1168600  32.2961510 132.1853520  54.0613280
  31.6970400 132.9089320  53.8776900  32.8441120 132.1230300  53.2789730
  27.5062960 133.0775730  66.1282900  27.4106560 132.1370460  65.9783300
  28.3494940 133.2990800  65.7330970  30.9026380 130.8217060  56.0916560
  31.2955950 131.1389260  55.2785250  31.2643230 129.9428940  56.2061080
  22.6373500 129.4889400  64.2816680  22.2436890 130.3364610  64.4889460
  21.9491900 128.8515770  64.4725320  29.2118550 129.5724370  67.3513420
  28.5216870 129.3796570  67.9859510  29.9550850 129.8559010  67.8837720
  19.9390550 127.4117860  58.3146760  19.6503600 127.9820720  59.0271740
  20.6836310 126.9322310  58.6777990  20.1260780 131.3537980  49.5249480
  20.0435450 132.2968740  49.6664470  19.7743840 131.2112890  48.6461830
  31.4881520 133.4122810  60.1867340  30.7562640 133.9209620  60.5357440
  31.0905860 132.5952790  59.8856120  27.9258910 130.0877010  58.5919830
  27.9294970 129.6466960  57.7424370  28.8210030 130.4094340  58.6991650
  23.7761290 129.9703500  57.5514040  23.4361340 130.4478730  58.3081090
  23.0138610 129.5168620  57.1915140  27.9879060 131.0889090  51.5826590
  28.1091880 131.0475570  52.5312410  27.6027570 131.9513240  51.4273320
  31.9507430 128.8656490  59.5990280  31.9680170 129.3165140  60.4432130
  31.7023010 127.9662130  59.8123720  27.0000560 133.3990230  50.9809890
  26.4317460 132.9508480  50.3545800  27.7089560 133.7583010  50.4475040
  35.3778180 126.2788670  65.4376660  35.7023950 125.5478330  65.9634640
  35.4134690 125.9602310  64.5357650  22.0769740 137.3002250  64.8576620
  21.6924530 136.6595920  65.4559580  22.3881930 138.0038370  65.4271350
  28.2266880 134.1478790  60.3385240  28.5937010 133.6737360  61.0846580
  28.0371940 135.0220360  60.6793580  21.0907370 128.8922480  56.4678710
  20.8054290 128.5278150  57.3057330  21.0286230 128.1602940  55.8541850
  26.0166250 133.1887430  62.6569450  25.7123320 134.0679410  62.8819810
  26.9712710 133.2487220  62.6926890  24.5448040 137.3948420  53.2536300
  23.7710300 136.8546040  53.0935020  25.2742670 136.8755030  52.9154060
  35.3036020 136.3913780  59.0462690  36.0235140 136.8869070  58.6558800
  35.1017840 135.7131670  58.4016560  30.7645960 127.7851740  53.1892080
  29.9510570 127.2864910  53.1137390  30.5707910 128.6249990  52.7728430
  30.6854820 136.4622840  64.9331690  30.6192130 135.5418510  64.6789280
  30.0559960 136.5598280  65.6476330  33.4794350 132.1571390  51.4854240
  34.3673970 132.4688620  51.3105580  33.4499440 131.2843640  51.0934820
  24.5885440 137.0628800  56.8915110  25.1064110 136.2597060  56.8372000
  24.1369460 137.0007940  57.7331940  29.4754940 138.3295080  52.1642410
  29.8170640 139.0737310  51.6685730  28.6467650 138.6426200  52.5267240
  22.0729980 134.0290170  63.8040810  21.7144920 134.6944020  64.3914150
  21.7784540 133.1973720  64.1753430  25.2743100 134.4874410  66.6880360
  24.9743240 134.6331590  65.7908180  26.0454340 133.9279700  66.5953750
  30.6171550 139.2843410  64.6835490  30.6316090 138.3524370  64.4654400
  29.9096650 139.3703170  65.3225260  35.7508620 133.4683230  50.9534100
  35.6672340 133.8997450  50.1030540  36.4702810 133.9281580  51.3860920
  36.8282760 135.9250750  64.0304070  36.1030950 136.5179530  63.8333460
  37.3558220 135.9174290  63.2317440  36.7795870 140.3225490  53.6816230
  36.1372030 139.6681110  53.9559950  36.3926530 140.7280580  52.9056900
  32.3582350 137.6510920  57.5287920  32.7106170 137.0539050  56.8689290
  31.4744680 137.3255150  57.6996170  28.4445630 138.4108610  54.9358330
  29.1316760 138.9577820  55.3165920  27.6578050 138.9549340  54.9707940
  20.5838030 134.0281430  50.4275410  21.4532880 134.3106230  50.7111330
  20.0928350 134.8417300  50.3124220  27.7472840 135.4154640  54.5483690
  28.2035620 136.2259890  54.7743880  27.3961050 135.0977780  55.3802180
  30.0505450 140.9260980  61.7775990  30.6947670 141.1320360  62.4549410
  30.4134890 140.1649380  61.3246840  23.6484620 125.7592290  55.0206210
  23.5199250 125.7510190  55.9691130  22.8246640 126.0975380  54.6697220
  31.3237530 138.9293330  60.4953440  31.9659760 138.2286490  60.6085610
  31.8486880 139.7091770  60.3150330  35.1693250 139.2141950  50.2192580
  34.9430830 138.4972390  50.8117220  34.7789450 138.9654390  49.3814330
  33.0975150 139.7288230  63.6989500  33.4331390 140.3154920  64.3767420
  32.1775490 139.5980940  63.9287290  20.9509280 143.2408810  50.9937040
  21.3106920 143.8398150  50.3394310  20.8101620 143.7868700  51.7672070
  20.6478550 127.5183410  64.4812910  19.9337070 127.7180330  65.0865520
  21.0673590 126.7422980  64.8527710  34.7509500 137.1313890  51.8806740
  34.4631200 137.5926580  52.6684620  35.5461670 136.6711660  52.1490960
  20.9351140 141.5063670  65.4679440  21.0442260 140.5658410  65.3274830
  20.2831700 141.7718420  64.8193170  28.9263730 139.7779560  66.8677560
  28.6060600 139.0588800  67.4123250  28.2522090 140.4534630  66.9413620
  26.9677900 140.6240010  51.8110710  26.9588000 141.3569700  51.1955220
  26.0476260 140.3771590  51.9037670  22.5684540 135.8454900  52.5557470
  21.9612490 136.5853800  52.5652770  23.0433890 135.9354260  51.7295670
  32.1417330 130.0105720  62.2314360  32.5098150 129.1900930  62.5593930
  31.2815530 130.0707610  62.6470010  35.5079360 128.9662660  53.0401920
  34.8792520 129.0708330  52.3260150  35.0131280 129.1859440  53.8295800
  29.9537500 140.6868250  50.4735900  30.0549480 140.4832240  49.5437880
  29.0539240 140.4326530  50.6783680  27.4763390 131.2448610  54.4559800
  26.7679540 131.7134950  54.8973410  27.7607870 130.5870620  55.0904990
  29.1019320 132.6645310  62.4552330  29.6004570 133.1391130  63.1204180
  29.2442270 131.7408830  62.6622360  31.5078820 127.9699270  55.8955590
  31.3846600 127.9885400  54.9465100  32.4563380 128.0178210  56.0153990
  28.5955610 143.2054570  55.1683570  28.8497110 143.1675960  54.2462940
  27.6468090 143.0787900  55.1611820  25.6798410 129.5533690  51.8310510
  26.5288940 129.9903840  51.7650700  25.3129680 129.8653950  52.6582570
  36.3086180 128.8813270  63.2980720  35.8059780 129.6218670  63.6374530
  37.1242840 129.2697270  62.9817510  34.6008190 134.1246450  56.7442080
  33.6598330 134.1396680  56.9189770  34.9152260 133.3382410  57.1902380
  24.5789830 135.8066050  50.3046040  25.3453100 135.6947410  50.8671470
  24.6564520 135.1104020  49.6522810  23.2736590 133.2391120  50.9878930
  23.3540180 132.2918630  51.0996330  24.1656340 133.5698000  51.0939590
  36.6033770 141.2955300  58.4196340  36.7281190 142.1186470  58.8920150
  37.4699330 141.0846030  58.0720490  24.0751300 143.3886510  58.0913470
  24.8113780 142.8401970  58.3622040  24.4592220 144.2542520  57.9519460
  20.9596780 139.4560080  53.9654980  20.0336560 139.6981220  53.9560390
  21.4253210 140.2834340  53.8439730  23.0809580 142.5732580  67.2799050
  23.8822310 142.8944630  67.6934450  22.5661400 142.2128160  68.0018960
  27.1853610 142.5616820  49.9139040  27.9782220 142.8505650  49.4620830
  26.6657960 142.1308990  49.2351520  31.9174210 138.6812450  67.2274460
  31.3112370 138.7044050  66.4870210  31.6128320 137.9495490  67.7641710
  33.3474580 142.4092740  65.8383870  34.2996330 142.3250760  65.7884110
  33.2002800 143.0734450  66.5117660  36.2383780 141.7886950  51.3375780
  35.9525290 141.3752090  50.5229960  36.0403330 142.7174660  51.2176300
  20.8007390 135.0606040  66.2235100  21.3046410 134.4813320  66.7951330
  20.0614810 135.3446270  66.7611470  27.7031010 137.7820230  49.7781390
  27.5981650 137.1672580  50.5042770  27.5355230 137.2586120  48.9944400
  27.8545330 136.4677030  65.7570620  27.0891000 137.0362030  65.6725290
  28.0361290 136.1753240  64.8638850  30.9433740 136.8440260  50.3823380
  30.3943840 137.2909560  51.0266120  31.5653000 136.3389510  50.9061050
  34.9968680 138.1982360  66.3145640  35.7378150 138.5358120  65.8113100
  34.2341360 138.3674420  65.7615410  22.8330470 133.2035630  67.1185170
  22.8735810 132.9049500  68.0270400  23.6875970 133.6043240  66.9592690
  26.6108860 135.8031180  52.2788680  27.0325280 135.6371050  53.1220070
  26.7359700 134.9931410  51.7843820  24.7736280 131.7827730  65.0859660
  24.2432740 131.2918680  64.4583000  25.4424350 132.2111930  64.5517590
  29.1236500 134.8268790  49.5265780  29.6442160 134.1117810  49.1606930
  29.7704900 135.4654660  49.8266290  33.6714340 136.2497190  64.8500850
  34.0855360 136.4042270  65.6991270  32.7365340 136.3752410  65.0126630
  34.1436510 133.5893350  66.8540000  34.7257280 132.8345670  66.7660480
  34.3198280 134.1200790  66.0771480  25.2608580 128.7490100  65.1656950
  25.1665450 128.1310850  64.4407820  24.6805970 129.4756390  64.9386860
  28.0270020 127.3063340  62.1984340  27.5787320 127.3287600  61.3529890
  27.3935220 126.9082360  62.7954640  28.4329570 136.2017670  62.8196780
  28.8517680 137.0450400  62.6473020  27.5138200 136.3389710  62.5903560
  30.7693470 133.9333850  64.2034620  30.8889680 133.3374990  64.9429460
  31.6287470 133.9703540  63.7835920  33.1081370 134.4871040  62.7797130
  32.5816590 135.0113660  62.1762270  33.4512710 135.1198430  63.4106860
  25.5067760 131.8764410  49.2246840  25.3056820 131.0131770  49.5860180
  25.3359810 131.7897770  48.2868440  26.2836990 142.5070680  63.9354510
  25.7458080 143.2316740  63.6163210  26.5370950 142.0301020  63.1451850
  27.5362240 130.4755200  65.4610440  28.1261930 130.1671050  66.1488260
  26.7182480 130.0034950  65.6170340  32.3555670 130.0921010  65.6943460
  31.6671190 129.4302550  65.6293450  33.0761690 129.6459280  66.1391920
  32.9856070 126.6872640  51.7533720  33.2658360 125.8440540  52.1093140
  32.2121800 126.9195750  52.2672470  24.3050560 128.9765030  49.2124720
  24.6076460 128.9832460  48.3043870  25.0445150 128.6262890  49.7092380
  29.1399200 143.7421890  64.1941160  29.0657900 144.6457030  64.5013530
  28.2378040 143.4233790  64.1663230  27.5235490 127.9199650  50.1980920
  27.1757490 127.2423640  49.6183370  27.7248260 127.4589160  51.0124310
  29.6884530 142.9080400  51.8167520  30.5835320 143.2465370  51.8386280
  29.7202160 142.1859810  51.1891800  23.3280690 138.2807450  50.0454520
  23.7655560 138.8237120  50.7012100  23.8128420 137.4554400  50.0550860
  20.5426490 141.0696480  57.4974780  20.8729500 140.2017540  57.2653420
  20.9717490 141.2755000  58.3279740  25.1388410 139.4005490  55.1576750
  24.8383950 139.2770460  56.0580660  25.0325900 138.5414080  54.7492480
  21.0316700 141.9367070  60.2356410  20.5947690 142.1167870  61.0680560
  21.5994380 142.6941690  60.0938130  36.6678880 141.4384070  64.5233720
  36.0680870 141.4976630  63.7797640  36.7972780 140.4989050  64.6530570
  37.9080330 139.1801890  49.8603430  37.0773290 139.2478540  50.3310660
  38.0852160 140.0706010  49.5570290  37.3636790 135.9249370  52.3637630
  38.1255700 136.4946020  52.4697320  37.3791160 135.3576570  53.1345940
  20.8641130 134.4487300  56.5945290  20.2089970 134.1798940  55.9504990
  21.7019080 134.3391780  56.1447270  38.3696760 136.7799470  57.2079560
  38.7405590 135.9966790  56.8015530  39.0098690 137.4688570  57.0296860
  35.3530520 138.1636050  62.6209880  34.5390360 138.5933210  62.8835670
  35.7604720 138.7754460  62.0078930  37.4155960 136.2183740  49.5210150
  37.6904800 137.1262620  49.3929370  37.2266700 136.1546270  50.4572140
  33.8131570 129.2428590  50.8163780  34.2316450 129.0559570  49.9760440
  33.5067630 128.3907640  51.1266710  37.3121300 134.1552730  54.5139580
  36.9364900 133.3880660  54.0820870  36.5824420 134.5375430  55.0014510
  21.9017060 134.8339870  61.1348630  22.2690100 134.7467270  62.0144650
  21.3327880 134.0706420  61.0355490  36.7020920 133.3024250  64.1479100
  36.4707010 133.0737000  63.2477050  36.9625470 134.2223800  64.1023990
  21.4533060 131.7448960  65.0407050  20.5589110 131.7115720  65.3800760
  21.9930610 131.9435750  65.8058300  35.1408990 128.5280680  66.9258800
  36.0179170 128.5364080  67.3092800  35.1529830 127.7911520  66.3151150
  20.0779210 131.6586230  52.5370620  19.1743290 131.9216430  52.3622280
  20.5619830 131.9297400  51.7570580  36.5872260 132.3810220  57.8146820
  37.1109740 131.8872870  57.1836990  37.1731680 132.5160580  58.5594390
  36.7661980 132.4650090  61.3366370  35.8164690 132.4313630  61.4511360
  36.9474990 133.3750200  61.1016140  22.6206420 130.7151770  50.4465000
  23.3298120 130.2934990  49.9612280  21.9046360 130.7827000  49.8148350
  22.2680580 126.7691100  49.4867650  22.9908710 127.3100040  49.8048870
  22.5405100 126.4954520  48.6109190  36.0772230 131.6383570  53.7539230
  36.5731350 131.4054440  54.5388110  35.8788300 130.7995410  53.3376870
  21.9572770 126.0197290  59.3890270  22.6048960 125.4694670  58.9485430
  22.3774610 126.2740440  60.2106080  37.5059390 130.2744520  56.2876910
  37.3958670 130.1200560  57.2259180  38.2666980 129.7465460  56.0452320
  38.3949660 128.1052440  49.5283050  39.3198970 127.9733620  49.3201340
  38.3725450 128.1845260  50.4819500  38.4688150 128.8763100  52.1539760
  37.6739650 128.8108220  52.6832670  38.6731430 129.8113740  52.1425110
  35.4106570 142.9154650  56.1478150  36.0065640 142.5939220  55.4712570
  35.6684720 142.4426470  56.9391420  21.7104770 126.1752960  62.1315590
  21.3619590 126.6316780  62.8973770  21.3792470 125.2810090  62.2138020
  23.3169140 139.3472560  66.2968780  23.2738770 138.9765470  67.1783240
  23.4480150 140.2850130  66.4370600  27.0175170 140.9032150  61.8978500
  26.7766530 141.1706710  61.0109020  27.9577810 141.0737880  61.9529360
  29.2229590 127.3664840  65.6535010  29.1618480 127.9586670  66.4030420
  30.1629970 127.2590800  65.5085270  31.8604150 127.0234900  65.2927300
  32.4744560 127.3414190  64.6308380  32.4053710 126.5383490  65.9123160
  38.2779330 142.9226530  62.6989140  37.7837610 143.3195400  61.9816270
  37.6692620 142.2975740  63.0926420  22.3825410 125.7029160  65.4066360
  22.9308400 125.5217210  64.6432470  22.4480720 124.9123270  65.9422670
  23.1557170 142.2934810  63.4166560  22.5617490 142.1619510  64.1556600
  23.1481010 141.4572950  62.9508660  33.5084170 127.7937910  63.0038310
  33.1797530 126.9789670  62.6240040  34.4566470 127.7507720  62.8804000
  35.9618780 143.5649950  59.9775880  35.5021750 144.3165760  59.6033900
  35.3331240 142.8456420  59.9190680  22.7869400 139.6593190  62.3674600
  22.0603460 139.0398480  62.3000550  22.8478550 140.0533800  61.4972680
  26.3914500 141.8738190  59.1524010  26.9079520 141.2625550  58.6272270
  27.0411880 142.3766970  59.6435020  29.1310000 142.7646680  59.9792990
  29.4187810 142.5100980  59.1026000  29.6433220 142.2124040  60.5698560
  36.7646650 126.8375220  56.6147410  36.7035050 125.8936440  56.4678430
  37.5438680 126.9455310  57.1600870  21.0699400 142.9767580  55.5771360
  20.9021440 142.3438260  56.2753250  20.2033910 143.1826980  55.2265550
  21.6927420 126.8084360  53.0803220  22.4506780 126.9213240  52.5067250
  21.2304590 127.6453560  53.0346650  28.2341230 128.9223630  56.0705530
  27.4215740 128.5480520  55.7301410  28.7382870 128.1668710  56.3726720
  35.8800810 125.9887640  52.5828880  36.0751440 126.8871090  52.8496310
  35.0930680 125.7574720  53.0761830  22.6762100 141.6700810  53.0221500
  22.1509720 142.0508840  52.3183460  22.6006680 142.2951580  53.7431210
  24.0652570 127.3348410  51.6205190  24.5945330 126.5478210  51.4913140
  24.6980890 128.0139600  51.8540720  26.2590410 127.0723550  54.6750580
  25.6293150 126.3710860  54.8420710  25.7195550 127.8327680  54.4583740
  29.1982360 143.6862780  67.3461190  30.1249670 143.4507050  67.3897150
  29.1832790 144.5134780  66.8647220  37.4327420 143.2288350  54.3435440
  37.6079610 142.5426090  53.6996360  36.7348990 143.7535400  53.9512110
  26.3845970 126.3507530  67.1103070  26.1030240 126.8541130  66.3463890
  26.7665670 125.5529280  66.7445200  25.2755070 143.6183190  51.8970750
  26.0073890 143.3342470  51.3494640  25.5348740 143.3796470  52.7870130
  24.4369860 139.7347920  51.9017080  23.8078740 140.2033020  52.4502910
  24.5517690 138.8897140  52.3363270  32.9861430 125.7661110  67.6883540
  32.8726880 126.0855720  68.5835060  33.8031170 126.1673620  67.3920820
  35.7659920 142.9132640  67.1702230  36.5585240 142.4181870  66.9628190
  36.0593070 143.5922780  67.7777840  31.8919580 133.7853580  38.0518280
  31.8113630 132.8708190  37.7809990  31.4784000 134.2820650  37.3457990
  30.0237620 135.5632600  39.9327550  29.2479720 135.0833040  40.2226120
  30.6750550 134.8838250  39.7583710  24.0403450 135.8752410  40.8103310
  23.2088330 135.6201120  41.2099820  24.6484430 135.9463180  41.5461230
  34.0445050 139.9692790  38.7126680  33.5826580 139.1980030  39.0413850
  34.8570600 139.9958860  39.2179130  24.0204710 139.9092500  41.0061330
  24.3232750 139.0190240  40.8271550  24.7648300 140.4662720  40.7783580
  22.4495400 130.8354300  34.5945700  21.5612100 131.1770270  34.4925580
  22.7336590 130.6354620  33.7026530  20.4128410 133.4359950  40.4785400
  20.9844520 132.6682150  40.4789040  20.4129950 133.7348710  39.5692010
  30.2708360 142.2550800  38.3330670  29.6519800 142.7108300  37.7625110
  31.1260140 142.4102260  37.9320370  29.4646610 138.2389790  39.9397710
  29.3954890 137.2979730  39.7786840  30.2266470 138.3291200  40.5120280
  21.6553280 128.8444310  42.2654330  21.4756120 127.9470060  42.5457090
  21.2533360 129.3916180  42.9401280  30.4951780 131.0460170  40.1666640
  30.8716600 130.1732050  40.0540310  30.3971290 131.3818870  39.2757080
  24.6256790 129.4185800  35.6284080  24.7323540 130.3189530  35.9352840
  23.7149150 129.3703770  35.3378730  34.2775900 128.5410610  37.0994980
  35.0985520 128.0507180  37.1420460  34.3109980 129.1308270  37.8526820
  22.2739950 131.3404810  40.8736670  22.9550060 131.6043180  41.4924070
  21.9588000 130.5005680  41.2074680  26.4664520 132.3872170  39.9609260
  26.9742740 132.8853140  40.6014280  26.9977760 131.6107370  39.7848620
  38.5675450 130.5577360  43.6638610  37.8627620 130.9459070  43.1453720
  38.8333370 131.2527650  44.2659540  24.7500620 127.0270730  44.2272680
  24.7519060 127.5443120  43.4218580  23.9204930 126.5500910  44.2042610
  31.1371710 137.1390040  35.7262580  30.5188980 137.6039490  35.1625300
  31.6494960 137.8317520  36.1432090  26.0003470 136.6665910  42.4046180
  25.6672850 137.2934830  43.0467250  26.1770150 137.1927790  41.6247850
  34.5137380 130.4810990  39.8722520  33.8092950 130.7695880  40.4525630
  34.8749540 131.2911100  39.5122080  24.4315950 128.7380690  42.2343130
  24.7732760 129.5822740  41.9397000  23.4931760 128.8864430  42.3508470
  25.2122570 138.6346710  44.2195360  25.8296570 139.3097790  43.9379810
  24.3515690 139.0434690  44.1282860  20.5054910 137.8246570  33.1002210
  20.1282890 138.3133670  32.3687110  20.7627980 138.4971850  33.7308740
  36.1300160 140.0986120  42.1350000  35.4463680 140.7685230  42.1266670
  36.6694450 140.2966770  41.3694860  37.5824300 129.9265780  40.2631730
  36.6349210 129.9604760  40.3947160  37.9074290 130.7404730  40.6481090
  28.1143840 126.2262960  38.5587720  28.4218820 125.6709850  37.8423220
  27.1844540 126.3607420  38.3760710  33.6658900 141.9430250  40.8495180
  33.6786060 141.5392540  39.9817440  33.1134120 142.7177540  40.7456610
  34.9604320 138.6646470  35.9385350  34.8500650 137.7220800  36.0634770
  34.9572570 139.0262110  36.8248110  33.0644340 136.8460090  42.1777790
  33.4813130 136.6320200  41.3431250  33.7884160 137.1032880  42.7486410
  30.5024600 134.2911790  35.2947840  29.5753880 134.2249170  35.5236310
  30.6549420 135.2291920  35.1803080  30.4893680 130.5628790  32.2915000
  29.5497350 130.7242750  32.3767460  30.8076940 131.2814470  31.7450990
  37.0106440 135.2447310  42.2694030  36.1825070 135.3140400  41.7944160
  37.6056920 135.8301620  41.8009860  34.5321890 135.8532090  35.7983090
  33.9134310 135.5151640  35.1509390  34.5146340 135.2091850  36.5062280
  33.9748450 132.0316630  43.2148900  33.5619630 132.8570340  43.4688890
  33.2424400 131.4461670  43.0225260  26.1081240 134.8176530  38.0767570
  25.7038240 134.1053780  37.5813470  26.1944360 134.4729770  38.9655610
  26.5762940 138.5044090  40.2406780  26.2791230 137.8989560  39.5614560
  27.5262760 138.5421400  40.1296140  24.8209860 131.5919740  41.8566610
  25.3724450 131.7015080  41.0819860  25.3353370 131.9657340  42.5721840
  34.6648550 142.0775960  43.9029880  34.1879110 142.8848150  43.7102490
  33.9810340 141.4254290  44.0556090  25.6681370 138.2425780  46.8914580
  24.7709900 138.4665750  47.1387980  25.6934240 138.3660720  45.9425980
  32.7086590 135.0918900  32.8055840  33.1479870 134.2541330  32.6593660
  33.4215010 135.7248300  32.8919980  24.4952590 135.1139100  45.4671950
  24.3560360 135.9861900  45.8359350  23.6133950 134.7711910  45.3219890
  30.8181970 140.0314970  36.7737080  31.2577880 140.7739300  36.3592470
  30.7568860 140.2741540  37.6976040  26.2932940 141.0560800  47.6757100
  26.2648370 141.4603750  46.8085530  26.1297910 140.1271160  47.5128700
  36.2903730 126.3461710  31.1196880  35.9776390 126.4388540  32.0195950
  37.0516200 126.9242740  31.0694310  22.8085870 133.7121510  35.5774220
  22.6883470 134.4383600  34.9655490  22.4986760 132.9424420  35.1002130
  38.2447760 141.8387900  48.9721270  38.7207480 142.3170790  49.6510350
  38.8654920 141.7705390  48.2466770  20.4471240 136.8836650  41.3842860
  20.5251660 137.0185420  40.4398580  21.0612920 136.1752540  41.5770980
  21.6918870 138.5836840  37.7949040  21.2846950 138.7251430  36.9402640
  22.5831880 138.2997000  37.5920250  37.6481010 139.0300750  46.1321280
  37.7744070 138.7912630  45.2138460  37.6902390 138.1985290  46.6043360
  31.5097750 142.7328750  44.7016090  32.0242420 142.6436760  45.5038520
  30.6666830 143.0788450  44.9944000  33.4852150 143.0184090  34.1300090
  33.3253290 142.7287030  35.0281920  33.3198860 142.2424220  33.5945320
  25.9640530 142.7982620  35.9071710  25.7883010 141.8818160  35.6939510
  25.1096270 143.1569910  36.1469510  33.1878280 140.5271650  32.6898090
  32.4943440 140.5248940  32.0300370  33.9301140 140.1030970  32.2592260
  32.7528210 142.1534360  36.7646580  33.2085160 141.3723740  37.0785200
  33.0920730 142.8641180  37.3087760  37.5005020 131.0833210  47.0971020
  36.8849290 131.5912880  46.5686480  37.1801440 130.1831540  47.0396960
  20.5030760 137.9250820  43.9237320  20.6661800 137.4556180  43.1056690
  20.9683210 137.4174380  44.5886160  25.2749530 127.0556580  38.9597890
  24.8317680 127.8366120  38.6282410  25.8334520 127.3786470  39.6668830
  29.5619340 129.9225100  44.5633210  29.0998710 130.1308120  45.3753150
  29.1597450 129.1084450  44.2603880  34.5623850 131.1434050  45.6929870
  33.7117440 130.8439800  46.0138940  34.4025640 131.3876060  44.7813690
  31.6573560 132.6435800  47.7928660  31.9826970 131.8099550  47.4530890
  32.4453890 133.1664320  47.9406990  28.3908350 126.6767280  33.8403720
  27.7662530 126.6727150  34.5657030  28.3038470 125.8098240  33.4439690
  27.3125430 127.6003910  40.8187490  27.6097760 128.5066740  40.7379510
  27.8610990 127.1122690  40.2047060  25.0663750 132.1790150  36.6879140
  24.8404670 131.9627320  37.5925760  24.2856280 132.6118610  36.3425110
  32.2961510 132.1853520  35.2869790  31.6970400 132.9089320  35.1033410
  32.8441120 132.1230300  34.5046240  27.5062960 133.0775730  47.3539410
  27.4106560 132.1370460  47.2039810  28.3494940 133.2990800  46.9587480
  30.9026380 130.8217060  37.3173070  31.2955950 131.1389260  36.5041760
  31.2643230 129.9428940  37.4317590  22.6373500 129.4889400  45.5073190
  22.2436890 130.3364610  45.7145970  21.9491900 128.8515770  45.6981830
  29.2118550 129.5724370  48.5769930  28.5216870 129.3796570  49.2116020
  29.9550850 129.8559010  49.1094230  19.9390550 127.4117860  39.5403270
  19.6503600 127.9820720  40.2528250  20.6836310 126.9322310  39.9034500
  20.1260780 131.3537980  30.7505990  20.0435450 132.2968740  30.8920980
  19.7743840 131.2112890  29.8718340  31.4881520 133.4122810  41.4123850
  30.7562640 133.9209620  41.7613950  31.0905860 132.5952790  41.1112630
  27.9258910 130.0877010  39.8176340  27.9294970 129.6466960  38.9680880
  28.8210030 130.4094340  39.9248160  23.7761290 129.9703500  38.7770550
  23.4361340 130.4478730  39.5337600  23.0138610 129.5168620  38.4171650
  27.9879060 131.0889090  32.8083100  28.1091880 131.0475570  33.7568920
  27.6027570 131.9513240  32.6529830  31.9507430 128.8656490  40.8246790
  31.9680170 129.3165140  41.6688640  31.7023010 127.9662130  41.0380230
  27.0000560 133.3990230  32.2066400  26.4317460 132.9508480  31.5802310
  27.7089560 133.7583010  31.6731550  35.3778180 126.2788670  46.6633170
  35.7023950 125.5478330  47.1891150  35.4134690 125.9602310  45.7614160
  22.0769740 137.3002250  46.0833130  21.6924530 136.6595920  46.6816090
  22.3881930 138.0038370  46.6527860  28.2266880 134.1478790  41.5641750
  28.5937010 133.6737360  42.3103090  28.0371940 135.0220360  41.9050090
  21.0907370 128.8922480  37.6935220  20.8054290 128.5278150  38.5313840
  21.0286230 128.1602940  37.0798360  26.0166250 133.1887430  43.8825960
  25.7123320 134.0679410  44.1076320  26.9712710 133.2487220  43.9183400
  24.5448040 137.3948420  34.4792810  23.7710300 136.8546040  34.3191530
  25.2742670 136.8755030  34.1410570  35.3036020 136.3913780  40.2719200
  36.0235140 136.8869070  39.8815310  35.1017840 135.7131670  39.6273070
  30.7645960 127.7851740  34.4148590  29.9510570 127.2864910  34.3393900
  30.5707910 128.6249990  33.9984940  30.6854820 136.4622840  46.1588200
  30.6192130 135.5418510  45.9045790  30.0559960 136.5598280  46.8732840
  33.4794350 132.1571390  32.7110750  34.3673970 132.4688620  32.5362090
  33.4499440 131.2843640  32.3191330  24.5885440 137.0628800  38.1171620
  25.1064110 136.2597060  38.0628510  24.1369460 137.0007940  38.9588450
  29.4754940 138.3295080  33.3898920  29.8170640 139.0737310  32.8942240
  28.6467650 138.6426200  33.7523750  22.0729980 134.0290170  45.0297320
  21.7144920 134.6944020  45.6170660  21.7784540 133.1973720  45.4009940
  25.2743100 134.4874410  47.9136870  24.9743240 134.6331590  47.0164690
  26.0454340 133.9279700  47.8210260  30.6171550 139.2843410  45.9092000
  30.6316090 138.3524370  45.6910910  29.9096650 139.3703170  46.5481770
  35.7508620 133.4683230  32.1790610  35.6672340 133.8997450  31.3287050
  36.4702810 133.9281580  32.6117430  36.8282760 135.9250750  45.2560580
  36.1030950 136.5179530  45.0589970  37.3558220 135.9174290  44.4573950
  36.7795870 140.3225490  34.9072740  36.1372030 139.6681110  35.1816460
  36.3926530 140.7280580  34.1313410  32.3582350 137.6510920  38.7544430
  32.7106170 137.0539050  38.0945800  31.4744680 137.3255150  38.9252680
  28.4445630 138.4108610  36.1614840  29.1316760 138.9577820  36.5422430
  27.6578050 138.9549340  36.1964450  20.5838030 134.0281430  31.6531920
  21.4532880 134.3106230  31.9367840  20.0928350 134.8417300  31.5380730
  27.7472840 135.4154640  35.7740200  28.2035620 136.2259890  36.0000390
  27.3961050 135.0977780  36.6058690  30.0505450 140.9260980  43.0032500
  30.6947670 141.1320360  43.6805920  30.4134890 140.1649380  42.5503350
  23.6484620 125.7592290  36.2462720  23.5199250 125.7510190  37.1947640
  22.8246640 126.0975380  35.8953730  31.3237530 138.9293330  41.7209950
  31.9659760 138.2286490  41.8342120  31.8486880 139.7091770  41.5406840
  35.1693250 139.2141950  31.4449090  34.9430830 138.4972390  32.0373730
  34.7789450 138.9654390  30.6070840  33.0975150 139.7288230  44.9246010
  33.4331390 140.3154920  45.6023930  32.1775490 139.5980940  45.1543800
  20.9509280 143.2408810  32.2193550  21.3106920 143.8398150  31.5650820
  20.8101620 143.7868700  32.9928580  20.6478550 127.5183410  45.7069420
  19.9337070 127.7180330  46.3122030  21.0673590 126.7422980  46.0784220
  34.7509500 137.1313890  33.1063250  34.4631200 137.5926580  33.8941130
  35.5461670 136.6711660  33.3747470  20.9351140 141.5063670  46.6935950
  21.0442260 140.5658410  46.5531340  20.2831700 141.7718420  46.0449680
  28.9263730 139.7779560  48.0934070  28.6060600 139.0588800  48.6379760
  28.2522090 140.4534630  48.1670130  26.9677900 140.6240010  33.0367220
  26.9588000 141.3569700  32.4211730  26.0476260 140.3771590  33.1294180
  22.5684540 135.8454900  33.7813980  21.9612490 136.5853800  33.7909280
  23.0433890 135.9354260  32.9552180  32.1417330 130.0105720  43.4570870
  32.5098150 129.1900930  43.7850440  31.2815530 130.0707610  43.8726520
  35.5079360 128.9662660  34.2658430  34.8792520 129.0708330  33.5516660
  35.0131280 129.1859440  35.0552310  29.9537500 140.6868250  31.6992410
  30.0549480 140.4832240  30.7694390  29.0539240 140.4326530  31.9040190
  27.4763390 131.2448610  35.6816310  26.7679540 131.7134950  36.1229920
  27.7607870 130.5870620  36.3161500  29.1019320 132.6645310  43.6808840
  29.6004570 133.1391130  44.3460690  29.2442270 131.7408830  43.8878870
  31.5078820 127.9699270  37.1212100  31.3846600 127.9885400  36.1721610
  32.4563380 128.0178210  37.2410500  28.5955610 143.2054570  36.3940080
  28.8497110 143.1675960  35.4719450  27.6468090 143.0787900  36.3868330
  25.6798410 129.5533690  33.0567020  26.5288940 129.9903840  32.9907210
  25.3129680 129.8653950  33.8839080  36.3086180 128.8813270  44.5237230
  35.8059780 129.6218670  44.8631040  37.1242840 129.2697270  44.2074020
  34.6008190 134.1246450  37.9698590  33.6598330 134.1396680  38.1446280
  34.9152260 133.3382410  38.4158890  24.5789830 135.8066050  31.5302550
  25.3453100 135.6947410  32.0927980  24.6564520 135.1104020  30.8779320
  23.2736590 133.2391120  32.2135440  23.3540180 132.2918630  32.3252840
  24.1656340 133.5698000  32.3196100  36.6033770 141.2955300  39.6452850
  36.7281190 142.1186470  40.1176660  37.4699330 141.0846030  39.2977000
  24.0751300 143.3886510  39.3169980  24.8113780 142.8401970  39.5878550
  24.4592220 144.2542520  39.1775970  20.9596780 139.4560080  35.1911490
  20.0336560 139.6981220  35.1816900  21.4253210 140.2834340  35.0696240
  23.0809580 142.5732580  48.5055560  23.8822310 142.8944630  48.9190960
  22.5661400 142.2128160  49.2275470  27.1853610 142.5616820  31.1395550
  27.9782220 142.8505650  30.6877340  26.6657960 142.1308990  30.4608030
  31.9174210 138.6812450  48.4530970  31.3112370 138.7044050  47.7126720
  31.6128320 137.9495490  48.9898220  33.3474580 142.4092740  47.0640380
  34.2996330 142.3250760  47.0140620  33.2002800 143.0734450  47.7374170
  36.2383780 141.7886950  32.5632290  35.9525290 141.3752090  31.7486470
  36.0403330 142.7174660  32.4432810  20.8007390 135.0606040  47.4491610
  21.3046410 134.4813320  48.0207840  20.0614810 135.3446270  47.9867980
  27.7031010 137.7820230  31.0037900  27.5981650 137.1672580  31.7299280
  27.5355230 137.2586120  30.2200910  27.8545330 136.4677030  46.9827130
  27.0891000 137.0362030  46.8981800  28.0361290 136.1753240  46.0895360
  30.9433740 136.8440260  31.6079890  30.3943840 137.2909560  32.2522630
  31.5653000 136.3389510  32.1317560  34.9968680 138.1982360  47.5402150
  35.7378150 138.5358120  47.0369610  34.2341360 138.3674420  46.9871920
  22.8330470 133.2035630  48.3441680  22.8735810 132.9049500  49.2526910
  23.6875970 133.6043240  48.1849200  26.6108860 135.8031180  33.5045190
  27.0325280 135.6371050  34.3476580  26.7359700 134.9931410  33.0100330
  24.7736280 131.7827730  46.3116170  24.2432740 131.2918680  45.6839510
  25.4424350 132.2111930  45.7774100  29.1236500 134.8268790  30.7522290
  29.6442160 134.1117810  30.3863440  29.7704900 135.4654660  31.0522800
  33.6714340 136.2497190  46.0757360  34.0855360 136.4042270  46.9247780
  32.7365340 136.3752410  46.2383140  34.1436510 133.5893350  48.0796510
  34.7257280 132.8345670  47.9916990  34.3198280 134.1200790  47.3027990
  25.2608580 128.7490100  46.3913460  25.1665450 128.1310850  45.6664330
  24.6805970 129.4756390  46.1643370  28.0270020 127.3063340  43.4240850
  27.5787320 127.3287600  42.5786400  27.3935220 126.9082360  44.0211150
  28.4329570 136.2017670  44.0453290  28.8517680 137.0450400  43.8729530
  27.5138200 136.3389710  43.8160070  30.7693470 133.9333850  45.4291130
  30.8889680 133.3374990  46.1685970  31.6287470 133.9703540  45.0092430
  33.1081370 134.4871040  44.0053640  32.5816590 135.0113660  43.4018780
  33.4512710 135.1198430  44.6363370  25.5067760 131.8764410  30.4503350
  25.3056820 131.0131770  30.8116690  25.3359810 131.7897770  29.5124950
  26.2836990 142.5070680  45.1611020  25.7458080 143.2316740  44.8419720
  26.5370950 142.0301020  44.3708360  27.5362240 130.4755200  46.6866950
  28.1261930 130.1671050  47.3744770  26.7182480 130.0034950  46.8426850
  32.3555670 130.0921010  46.9199970  31.6671190 129.4302550  46.8549960
  33.0761690 129.6459280  47.3648430  32.9856070 126.6872640  32.9790230
  33.2658360 125.8440540  33.3349650  32.2121800 126.9195750  33.4928980
  24.3050560 128.9765030  30.4381230  24.6076460 128.9832460  29.5300380
  25.0445150 128.6262890  30.9348890  29.1399200 143.7421890  45.4197670
  29.0657900 144.6457030  45.7270040  28.2378040 143.4233790  45.3919740
  27.5235490 127.9199650  31.4237430  27.1757490 127.2423640  30.8439880
  27.7248260 127.4589160  32.2380820  29.6884530 142.9080400  33.0424030
  30.5835320 143.2465370  33.0642790  29.7202160 142.1859810  32.4148310
  23.3280690 138.2807450  31.2711030  23.7655560 138.8237120  31.9268610
  23.8128420 137.4554400  31.2807370  20.5426490 141.0696480  38.7231290
  20.8729500 140.2017540  38.4909930  20.9717490 141.2755000  39.5536250
  25.1388410 139.4005490  36.3833260  24.8383950 139.2770460  37.2837170
  25.0325900 138.5414080  35.9748990  21.0316700 141.9367070  41.4612920
  20.5947690 142.1167870  42.2937070  21.5994380 142.6941690  41.3194640
  36.6678880 141.4384070  45.7490230  36.0680870 141.4976630  45.0054150
  36.7972780 140.4989050  45.8787080  37.9080330 139.1801890  31.0859940
  37.0773290 139.2478540  31.5567170  38.0852160 140.0706010  30.7826800
  37.3636790 135.9249370  33.5894140  38.1255700 136.4946020  33.6953830
  37.3791160 135.3576570  34.3602450  20.8641130 134.4487300  37.8201800
  20.2089970 134.1798940  37.1761500  21.7019080 134.3391780  37.3703780
  38.3696760 136.7799470  38.4336070  38.7405590 135.9966790  38.0272040
  39.0098690 137.4688570  38.2553370  35.3530520 138.1636050  43.8466390
  34.5390360 138.5933210  44.1092180  35.7604720 138.7754460  43.2335440
  37.4155960 136.2183740  30.7466660  37.6904800 137.1262620  30.6185880
  37.2266700 136.1546270  31.6828650  33.8131570 129.2428590  32.0420290
  34.2316450 129.0559570  31.2016950  33.5067630 128.3907640  32.3523220
  37.3121300 134.1552730  35.7396090  36.9364900 133.3880660  35.3077380
  36.5824420 134.5375430  36.2271020  21.9017060 134.8339870  42.3605140
  22.2690100 134.7467270  43.2401160  21.3327880 134.0706420  42.2612000
  36.7020920 133.3024250  45.3735610  36.4707010 133.0737000  44.4733560
  36.9625470 134.2223800  45.3280500  21.4533060 131.7448960  46.2663560
  20.5589110 131.7115720  46.6057270  21.9930610 131.9435750  47.0314810
  35.1408990 128.5280680  48.1515310  36.0179170 128.5364080  48.5349310
  35.1529830 127.7911520  47.5407660  20.0779210 131.6586230  33.7627130
  19.1743290 131.9216430  33.5878790  20.5619830 131.9297400  32.9827090
  36.5872260 132.3810220  39.0403330  37.1109740 131.8872870  38.4093500
  37.1731680 132.5160580  39.7850900  36.7661980 132.4650090  42.5622880
  35.8164690 132.4313630  42.6767870  36.9474990 133.3750200  42.3272650
  22.6206420 130.7151770  31.6721510  23.3298120 130.2934990  31.1868790
  21.9046360 130.7827000  31.0404860  22.2680580 126.7691100  30.7124160
  22.9908710 127.3100040  31.0305380  22.5405100 126.4954520  29.8365700
  36.0772230 131.6383570  34.9795740  36.5731350 131.4054440  35.7644620
  35.8788300 130.7995410  34.5633380  21.9572770 126.0197290  40.6146780
  22.6048960 125.4694670  40.1741940  22.3774610 126.2740440  41.4362590
  37.5059390 130.2744520  37.5133420  37.3958670 130.1200560  38.4515690
  38.2666980 129.7465460  37.2708830  35.8525110 126.2138650  43.9716420
  36.4897330 126.8272790  44.3375610  36.0000000 126.2499310  43.0265650
  38.3949660 128.1052440  30.7539560  39.3198970 127.9733620  30.5457850
  38.3725450 128.1845260  31.7076010  38.4688150 128.8763100  33.3796270
  37.6739650 128.8108220  33.9089180  38.6731430 129.8113740  33.3681620
  35.4106570 142.9154650  37.3734660  36.0065640 142.5939220  36.6969080
  35.6684720 142.4426470  38.1647930  21.7104770 126.1752960  43.3572100
  21.3619590 126.6316780  44.1230280  21.3792470 125.2810090  43.4394530
  23.3169140 139.3472560  47.5225290  23.2738770 138.9765470  48.4039750
  23.4480150 140.2850130  47.6627110  27.0175170 140.9032150  43.1235010
  26.7766530 141.1706710  42.2365530  27.9577810 141.0737880  43.1785870
  29.2229590 127.3664840  46.8791520  29.1618480 127.9586670  47.6286930
  30.1629970 127.2590800  46.7341780  31.8604150 127.0234900  46.5183810
  32.4744560 127.3414190  45.8564890  32.4053710 126.5383490  47.1379670
  38.2779330 142.9226530  43.9245650  37.7837610 143.3195400  43.2072780
  37.6692620 142.2975740  44.3182930  22.3825410 125.7029160  46.6322870
  22.9308400 125.5217210  45.8688980  22.4480720 124.9123270  47.1679180
  23.1557170 142.2934810  44.6423070  22.5617490 142.1619510  45.3813110
  23.1481010 141.4572950  44.1765170  32.6012190 125.5867040  42.8453100
  31.7272030 125.9202150  42.6426030  32.4922940 125.1140220  43.6704970
  33.5084170 127.7937910  44.2294820  33.1797530 126.9789670  43.8496550
  34.4566470 127.7507720  44.1060510  35.9618780 143.5649950  41.2032390
  35.5021750 144.3165760  40.8290410  35.3331240 142.8456420  41.1447190
  22.7869400 139.6593190  43.5931110  22.0603460 139.0398480  43.5257060
  22.8478550 140.0533800  42.7229190  26.3914500 141.8738190  40.3780520
  26.9079520 141.2625550  39.8528780  27.0411880 142.3766970  40.8691530
  29.1310000 142.7646680  41.2049500  29.4187810 142.5100980  40.3282510
  29.6433220 142.2124040  41.7955070  30.3487010 126.5036880  41.7846010
  29.5658800 126.9782380  42.0642770  30.0549940 125.5991710  41.6759190
  34.9008080 127.2059980  39.8295100  35.3416170 127.1505080  38.9816700
  34.6315670 128.1217990  39.9005280  36.7646650 126.8375220  37.8403920
  36.7035050 125.8936440  37.6934940  37.5438680 126.9455310  38.3857380
  21.0699400 142.9767580  36.8027870  20.9021440 142.3438260  37.5009760
  20.2033910 143.1826980  36.4522060  21.6927420 126.8084360  34.3059730
  22.4506780 126.9213240  33.7323760  21.2304590 127.6453560  34.2603160
  28.2341230 128.9223630  37.2962040  27.4215740 128.5480520  36.9557920
  28.7382870 128.1668710  37.5983230  32.7366210 125.5866080  38.5345110
  33.3395580 126.1586290  39.0093630  31.9959200 126.1505520  38.3119010
  35.8800810 125.9887640  33.8085390  36.0751440 126.8871090  34.0752820
  35.0930680 125.7574720  34.3018340  22.6762100 141.6700810  34.2478010
  22.1509720 142.0508840  33.5439970  22.6006680 142.2951580  34.9687720
  24.0652570 127.3348410  32.8461700  24.5945330 126.5478210  32.7169650
  24.6980890 128.0139600  33.0797230  26.2590410 127.0723550  35.9007090
  25.6293150 126.3710860  36.0677220  25.7195550 127.8327680  35.6840250
  29.1982360 143.6862780  48.5717700  30.1249670 143.4507050  48.6153660
  29.1832790 144.5134780  48.0903730  37.4327420 143.2288350  35.5691950
  37.6079610 142.5426090  34.9252870  36.7348990 143.7535400  35.1768620
  26.3845970 126.3507530  48.3359580  26.1030240 126.8541130  47.5720400
  26.7665670 125.5529280  47.9701710  25.2755070 143.6183190  33.1227260
  26.0073890 143.3342470  32.5751150  25.5348740 143.3796470  34.0126640
  24.4369860 139.7347920  33.1273590  23.8078740 140.2033020  33.6759420
  24.5517690 138.8897140  33.5619780  32.9861430 125.7661110  48.9140050
  32.8726880 126.0855720  49.8091570  33.8031170 126.1673620  48.6177330
  35.7659920 142.9132640  48.3958740  36.5585240 142.4181870  48.1884700
  36.0593070 143.5922780  49.0034350  31.8919580 133.7853580  19.2774790
  31.8113630 132.8708190  19.0066500  31.4784000 134.2820650  18.5714500
  30.0237620 135.5632600  21.1584060  29.2479720 135.0833040  21.4482630
  30.6750550 134.8838250  20.9840220  24.0403450 135.8752410  22.0359820
  23.2088330 135.6201120  22.4356330  24.6484430 135.9463180  22.7717740
  34.0445050 139.9692790  19.9383190  33.5826580 139.1980030  20.2670360
  34.8570600 139.9958860  20.4435640  24.0204710 139.9092500  22.2317840
  24.3232750 139.0190240  22.0528060  24.7648300 140.4662720  22.0040090
  22.4495400 130.8354300  15.8202210  21.5612100 131.1770270  15.7182090
  22.7336590 130.6354620  14.9283040  20.4128410 133.4359950  21.7041910
  20.9844520 132.6682150  21.7045550  20.4129950 133.7348710  20.7948520
  30.2708360 142.2550800  19.5587180  29.6519800 142.7108300  18.9881620
  31.1260140 142.4102260  19.1576880  29.4646610 138.2389790  21.1654220
  29.3954890 137.2979730  21.0043350  30.2266470 138.3291200  21.7376790
  21.6553280 128.8444310  23.4910840  21.4756120 127.9470060  23.7713600
  21.2533360 129.3916180  24.1657790  30.4951780 131.0460170  21.3923150
  30.8716600 130.1732050  21.2796820  30.3971290 131.3818870  20.5013590
  24.6256790 129.4185800  16.8540590  24.7323540 130.3189530  17.1609350
  23.7149150 129.3703770  16.5635240  34.2775900 128.5410610  18.3251490
  35.0985520 128.0507180  18.3676970  34.3109980 129.1308270  19.0783330
  22.2739950 131.3404810  22.0993180  22.9550060 131.6043180  22.7180580
  21.9588000 130.5005680  22.4331190  26.4664520 132.3872170  21.1865770
  26.9742740 132.8853140  21.8270790  26.9977760 131.6107370  21.0105130
  38.5675450 130.5577360  24.8895120  37.8627620 130.9459070  24.3710230
  38.8333370 131.2527650  25.4916050  24.7500620 127.0270730  25.4529190
  24.7519060 127.5443120  24.6475090  23.9204930 126.5500910  25.4299120
  31.1371710 137.1390040  16.9519090  30.5188980 137.6039490  16.3881810
  31.6494960 137.8317520  17.3688600  26.0003470 136.6665910  23.6302690
  25.6672850 137.2934830  24.2723760  26.1770150 137.1927790  22.8504360
  34.5137380 130.4810990  21.0979030  33.8092950 130.7695880  21.6782140
  34.8749540 131.2911100  20.7378590  24.4315950 128.7380690  23.4599640
  24.7732760 129.5822740  23.1653510  23.4931760 128.8864430  23.5764980
  25.2122570 138.6346710  25.4451870  25.8296570 139.3097790  25.1636320
  24.3515690 139.0434690  25.3539370  20.5054910 137.8246570  14.3258720
  20.1282890 138.3133670  13.5943620  20.7627980 138.4971850  14.9565250
  36.1300160 140.0986120  23.3606510  35.4463680 140.7685230  23.3523180
  36.6694450 140.2966770  22.5951370  37.5824300 129.9265780  21.4888240
  36.6349210 129.9604760  21.6203670  37.9074290 130.7404730  21.8737600
  28.1143840 126.2262960  19.7844230  28.4218820 125.6709850  19.0679730
  27.1844540 126.3607420  19.6017220  33.6658900 141.9430250  22.0751690
  33.6786060 141.5392540  21.2073950  33.1134120 142.7177540  21.9713120
  34.9604320 138.6646470  17.1641860  34.8500650 137.7220800  17.2891280
  34.9572570 139.0262110  18.0504620  33.0644340 136.8460090  23.4034300
  33.4813130 136.6320200  22.5687760  33.7884160 137.1032880  23.9742920
  30.5024600 134.2911790  16.5204350  29.5753880 134.2249170  16.7492820
  30.6549420 135.2291920  16.4059590  30.4893680 130.5628790  13.5171510
  29.5497350 130.7242750  13.6023970  30.8076940 131.2814470  12.9707500
  37.0106440 135.2447310  23.4950540  36.1825070 135.3140400  23.0200670
  37.6056920 135.8301620  23.0266370  34.5321890 135.8532090  17.0239600
  33.9134310 135.5151640  16.3765900  34.5146340 135.2091850  17.7318790
  33.9748450 132.0316630  24.4405410  33.5619630 132.8570340  24.6945400
  33.2424400 131.4461670  24.2481770  26.1081240 134.8176530  19.3024080
  25.7038240 134.1053780  18.8069980  26.1944360 134.4729770  20.1912120
  26.5762940 138.5044090  21.4663290  26.2791230 137.8989560  20.7871070
  27.5262760 138.5421400  21.3552650  24.8209860 131.5919740  23.0823120
  25.3724450 131.7015080  22.3076370  25.3353370 131.9657340  23.7978350
  34.6648550 142.0775960  25.1286390  34.1879110 142.8848150  24.9359000
  33.9810340 141.4254290  25.2812600  25.6681370 138.2425780  28.1171090
  24.7709900 138.4665750  28.3644490  25.6934240 138.3660720  27.1682490
  32.7086590 135.0918900  14.0312350  33.1479870 134.2541330  13.8850170
  33.4215010 135.7248300  14.1176490  24.4952590 135.1139100  26.6928460
  24.3560360 135.9861900  27.0615860  23.6133950 134.7711910  26.5476400
  30.8181970 140.0314970  17.9993590  31.2577880 140.7739300  17.5848980
  30.7568860 140.2741540  18.9232550  26.2932940 141.0560800  28.9013610
  26.2648370 141.4603750  28.0342040  26.1297910 140.1271160  28.7385210
  36.2903730 126.3461710  12.3453390  35.9776390 126.4388540  13.2452460
  37.0516200 126.9242740  12.2950820  22.8085870 133.7121510  16.8030730
  22.6883470 134.4383600  16.1912000  22.4986760 132.9424420  16.3258640
  38.2447760 141.8387900  30.1977780  38.7207480 142.3170790  30.8766860
  38.8654920 141.7705390  29.4723280  20.4471240 136.8836650  22.6099370
  20.5251660 137.0185420  21.6655090  21.0612920 136.1752540  22.8027490
  21.6918870 138.5836840  19.0205550  21.2846950 138.7251430  18.1659150
  22.5831880 138.2997000  18.8176760  37.6481010 139.0300750  27.3577790
  37.7744070 138.7912630  26.4394970  37.6902390 138.1985290  27.8299870
  31.5097750 142.7328750  25.9272600  32.0242420 142.6436760  26.7295030
  30.6666830 143.0788450  26.2200510  33.4852150 143.0184090  15.3556600
  33.3253290 142.7287030  16.2538430  33.3198860 142.2424220  14.8201830
  25.9640530 142.7982620  17.1328220  25.7883010 141.8818160  16.9196020
  25.1096270 143.1569910  17.3726020  33.1878280 140.5271650  13.9154600
  32.4943440 140.5248940  13.2556880  33.9301140 140.1030970  13.4848770
  32.7528210 142.1534360  17.9903090  33.2085160 141.3723740  18.3041710
  33.0920730 142.8641180  18.5344270  37.5005020 131.0833210  28.3227530
  36.8849290 131.5912880  27.7942990  37.1801440 130.1831540  28.2653470
  20.5030760 137.9250820  25.1493830  20.6661800 137.4556180  24.3313200
  20.9683210 137.4174380  25.8142670  25.2749530 127.0556580  20.1854400
  24.8317680 127.8366120  19.8538920  25.8334520 127.3786470  20.8925340
  29.5619340 129.9225100  25.7889720  29.0998710 130.1308120  26.6009660
  29.1597450 129.1084450  25.4860390  34.5623850 131.1434050  26.9186380
  33.7117440 130.8439800  27.2395450  34.4025640 131.3876060  26.0070200
  31.6573560 132.6435800  29.0185170  31.9826970 131.8099550  28.6787400
  32.4453890 133.1664320  29.1663500  28.3908350 126.6767280  15.0660230
  27.7662530 126.6727150  15.7913540  28.3038470 125.8098240  14.6696200
  27.3125430 127.6003910  22.0444000  27.6097760 128.5066740  21.9636020
  27.8610990 127.1122690  21.4303570  25.0663750 132.1790150  17.9135650
  24.8404670 131.9627320  18.8182270  24.2856280 132.6118610  17.5681620
  32.2961510 132.1853520  16.5126300  31.6970400 132.9089320  16.3289920
  32.8441120 132.1230300  15.7302750  27.5062960 133.0775730  28.5795920
  27.4106560 132.1370460  28.4296320  28.3494940 133.2990800  28.1843990
  30.9026380 130.8217060  18.5429580  31.2955950 131.1389260  17.7298270
  31.2643230 129.9428940  18.6574100  22.6373500 129.4889400  26.7329700
  22.2436890 130.3364610  26.9402480  21.9491900 128.8515770  26.9238340
  29.2118550 129.5724370  29.8026440  28.5216870 129.3796570  30.4372530
  29.9550850 129.8559010  30.3350740  19.9390550 127.4117860  20.7659780
  19.6503600 127.9820720  21.4784760  20.6836310 126.9322310  21.1291010
  20.1260780 131.3537980  11.9762500  20.0435450 132.2968740  12.1177490
  19.7743840 131.2112890  11.0974850  31.4881520 133.4122810  22.6380360
  30.7562640 133.9209620  22.9870460  31.0905860 132.5952790  22.3369140
  27.9258910 130.0877010  21.0432850  27.9294970 129.6466960  20.1937390
  28.8210030 130.4094340  21.1504670  23.7761290 129.9703500  20.0027060
  23.4361340 130.4478730  20.7594110  23.0138610 129.5168620  19.6428160
  27.9879060 131.0889090  14.0339610  28.1091880 131.0475570  14.9825430
  27.6027570 131.9513240  13.8786340  31.9507430 128.8656490  22.0503300
  31.9680170 129.3165140  22.8945150  31.7023010 127.9662130  22.2636740
  27.0000560 133.3990230  13.4322910  26.4317460 132.9508480  12.8058820
  27.7089560 133.7583010  12.8988060  35.3778180 126.2788670  27.8889680
  35.7023950 125.5478330  28.4147660  35.4134690 125.9602310  26.9870670
  22.0769740 137.3002250  27.3089640  21.6924530 136.6595920  27.9072600
  22.3881930 138.0038370  27.8784370  28.2266880 134.1478790  22.7898260
  28.5937010 133.6737360  23.5359600  28.0371940 135.0220360  23.1306600
  21.0907370 128.8922480  18.9191730  20.8054290 128.5278150  19.7570350
  21.0286230 128.1602940  18.3054870  26.0166250 133.1887430  25.1082470
  25.7123320 134.0679410  25.3332830  26.9712710 133.2487220  25.1439910
  24.5448040 137.3948420  15.7049320  23.7710300 136.8546040  15.5448040
  25.2742670 136.8755030  15.3667080  35.3036020 136.3913780  21.4975710
  36.0235140 136.8869070  21.1071820  35.1017840 135.7131670  20.8529580
  30.7645960 127.7851740  15.6405100  29.9510570 127.2864910  15.5650410
  30.5707910 128.6249990  15.2241450  30.6854820 136.4622840  27.3844710
  30.6192130 135.5418510  27.1302300  30.0559960 136.5598280  28.0989350
  33.4794350 132.1571390  13.9367260  34.3673970 132.4688620  13.7618600
  33.4499440 131.2843640  13.5447840  24.5885440 137.0628800  19.3428130
  25.1064110 136.2597060  19.2885020  24.1369460 137.0007940  20.1844960
  29.4754940 138.3295080  14.6155430  29.8170640 139.0737310  14.1198750
  28.6467650 138.6426200  14.9780260  22.0729980 134.0290170  26.2553830
  21.7144920 134.6944020  26.8427170  21.7784540 133.1973720  26.6266450
  25.2743100 134.4874410  29.1393380  24.9743240 134.6331590  28.2421200
  26.0454340 133.9279700  29.0466770  30.6171550 139.2843410  27.1348510
  30.6316090 138.3524370  26.9167420  29.9096650 139.3703170  27.7738280
  35.7508620 133.4683230  13.4047120  35.6672340 133.8997450  12.5543560
  36.4702810 133.9281580  13.8373940  36.8282760 135.9250750  26.4817090
  36.1030950 136.5179530  26.2846480  37.3558220 135.9174290  25.6830460
  36.7795870 140.3225490  16.1329250  36.1372030 139.6681110  16.4072970
  36.3926530 140.7280580  15.3569920  32.3582350 137.6510920  19.9800940
  32.7106170 137.0539050  19.3202310  31.4744680 137.3255150  20.1509190
  28.4445630 138.4108610  17.3871350  29.1316760 138.9577820  17.7678940
  27.6578050 138.9549340  17.4220960  20.5838030 134.0281430  12.8788430
  21.4532880 134.3106230  13.1624350  20.0928350 134.8417300  12.7637240
  27.7472840 135.4154640  16.9996710  28.2035620 136.2259890  17.2256900
  27.3961050 135.0977780  17.8315200  30.0505450 140.9260980  24.2289010
  30.6947670 141.1320360  24.9062430  30.4134890 140.1649380  23.7759860
  23.6484620 125.7592290  17.4719230  23.5199250 125.7510190  18.4204150
  22.8246640 126.0975380  17.1210240  31.3237530 138.9293330  22.9466460
  31.9659760 138.2286490  23.0598630  31.8486880 139.7091770  22.7663350
  35.1693250 139.2141950  12.6705600  34.9430830 138.4972390  13.2630240
  34.7789450 138.9654390  11.8327350  33.0975150 139.7288230  26.1502520
  33.4331390 140.3154920  26.8280440  32.1775490 139.5980940  26.3800310
  20.9509280 143.2408810  13.4450060  21.3106920 143.8398150  12.7907330
  20.8101620 143.7868700  14.2185090  20.6478550 127.5183410  26.9325930
  19.9337070 127.7180330  27.5378540  21.0673590 126.7422980  27.3040730
  34.7509500 137.1313890  14.3319760  34.4631200 137.5926580  15.1197640
  35.5461670 136.6711660  14.6003980  20.9351140 141.5063670  27.9192460
  21.0442260 140.5658410  27.7787850  20.2831700 141.7718420  27.2706190
  28.9263730 139.7779560  29.3190580  28.6060600 139.0588800  29.8636270
  28.2522090 140.4534630  29.3926640  26.9677900 140.6240010  14.2623730
  26.9588000 141.3569700  13.6468240  26.0476260 140.3771590  14.3550690
  22.5684540 135.8454900  15.0070490  21.9612490 136.5853800  15.0165790
  23.0433890 135.9354260  14.1808690  32.1417330 130.0105720  24.6827380
  32.5098150 129.1900930  25.0106950  31.2815530 130.0707610  25.0983030
  35.5079360 128.9662660  15.4914940  34.8792520 129.0708330  14.7773170
  35.0131280 129.1859440  16.2808820  29.9537500 140.6868250  12.9248920
  30.0549480 140.4832240  11.9950900  29.0539240 140.4326530  13.1296700
  27.4763390 131.2448610  16.9072820  26.7679540 131.7134950  17.3486430
  27.7607870 130.5870620  17.5418010  29.1019320 132.6645310  24.9065350
  29.6004570 133.1391130  25.5717200  29.2442270 131.7408830  25.1135380
  31.5078820 127.9699270  18.3468610  31.3846600 127.9885400  17.3978120
  32.4563380 128.0178210  18.4667010  28.5955610 143.2054570  17.6196590
  28.8497110 143.1675960  16.6975960  27.6468090 143.0787900  17.6124840
  25.6798410 129.5533690  14.2823530  26.5288940 129.9903840  14.2163720
  25.3129680 129.8653950  15.1095590  36.3086180 128.8813270  25.7493740
  35.8059780 129.6218670  26.0887550  37.1242840 129.2697270  25.4330530
  34.6008190 134.1246450  19.1955100  33.6598330 134.1396680  19.3702790
  34.9152260 133.3382410  19.6415400  24.5789830 135.8066050  12.7559060
  25.3453100 135.6947410  13.3184490  24.6564520 135.1104020  12.1035830
  23.2736590 133.2391120  13.4391950  23.3540180 132.2918630  13.5509350
  24.1656340 133.5698000  13.5452610  36.6033770 141.2955300  20.8709360
  36.7281190 142.1186470  21.3433170  37.4699330 141.0846030  20.5233510
  24.0751300 143.3886510  20.5426490  24.8113780 142.8401970  20.8135060
  24.4592220 144.2542520  20.4032480  20.9596780 139.4560080  16.4168000
  20.0336560 139.6981220  16.4073410  21.4253210 140.2834340  16.2952750
  23.0809580 142.5732580  29.7312070  23.8822310 142.8944630  30.1447470
  22.5661400 142.2128160  30.4531980  27.1853610 142.5616820  12.3652060
  27.9782220 142.8505650  11.9133850  26.6657960 142.1308990  11.6864540
  31.9174210 138.6812450  29.6787480  31.3112370 138.7044050  28.9383230
  31.6128320 137.9495490  30.2154730  33.3474580 142.4092740  28.2896890
  34.2996330 142.3250760  28.2397130  33.2002800 143.0734450  28.9630680
  36.2383780 141.7886950  13.7888800  35.9525290 141.3752090  12.9742980
  36.0403330 142.7174660  13.6689320  20.8007390 135.0606040  28.6748120
  21.3046410 134.4813320  29.2464350  20.0614810 135.3446270  29.2124490
  27.7031010 137.7820230  12.2294410  27.5981650 137.1672580  12.9555790
  27.5355230 137.2586120  11.4457420  27.8545330 136.4677030  28.2083640
  27.0891000 137.0362030  28.1238310  28.0361290 136.1753240  27.3151870
  30.9433740 136.8440260  12.8336400  30.3943840 137.2909560  13.4779140
  31.5653000 136.3389510  13.3574070  34.9968680 138.1982360  28.7658660
  35.7378150 138.5358120  28.2626120  34.2341360 138.3674420  28.2128430
  22.8330470 133.2035630  29.5698190  22.8735810 132.9049500  30.4783420
  23.6875970 133.6043240  29.4105710  26.6108860 135.8031180  14.7301700
  27.0325280 135.6371050  15.5733090  26.7359700 134.9931410  14.2356840
  24.7736280 131.7827730  27.5372680  24.2432740 131.2918680  26.9096020
  25.4424350 132.2111930  27.0030610  29.1236500 134.8268790  11.9778800
  29.6442160 134.1117810  11.6119950  29.7704900 135.4654660  12.2779310
  33.6714340 136.2497190  27.3013870  34.0855360 136.4042270  28.1504290
  32.7365340 136.3752410  27.4639650  34.1436510 133.5893350  29.3053020
  34.7257280 132.8345670  29.2173500  34.3198280 134.1200790  28.5284500
  25.2608580 128.7490100  27.6169970  25.1665450 128.1310850  26.8920840
  24.6805970 129.4756390  27.3899880  28.0270020 127.3063340  24.6497360
  27.5787320 127.3287600  23.8042910  27.3935220 126.9082360  25.2467660
  28.4329570 136.2017670  25.2709800  28.8517680 137.0450400  25.0986040
  27.5138200 136.3389710  25.0416580  30.7693470 133.9333850  26.6547640
  30.8889680 133.3374990  27.3942480  31.6287470 133.9703540  26.2348940
  33.1081370 134.4871040  25.2310150  32.5816590 135.0113660  24.6275290
  33.4512710 135.1198430  25.8619880  25.5067760 131.8764410  11.6759860
  25.3056820 131.0131770  12.0373200  25.3359810 131.7897770  10.7381460
  26.2836990 142.5070680  26.3867530  25.7458080 143.2316740  26.0676230
  26.5370950 142.0301020  25.5964870  27.5362240 130.4755200  27.9123460
  28.1261930 130.1671050  28.6001280  26.7182480 130.0034950  28.0683360
  32.3555670 130.0921010  28.1456480  31.6671190 129.4302550  28.0806470
  33.0761690 129.6459280  28.5904940  32.9856070 126.6872640  14.2046740
  33.2658360 125.8440540  14.5606160  32.2121800 126.9195750  14.7185490
  24.3050560 128.9765030  11.6637740  24.6076460 128.9832460  10.7556890
  25.0445150 128.6262890  12.1605400  29.1399200 143.7421890  26.6454180
  29.0657900 144.6457030  26.9526550  28.2378040 143.4233790  26.6176250
  27.5235490 127.9199650  12.6493940  27.1757490 127.2423640  12.0696390
  27.7248260 127.4589160  13.4637330  29.6884530 142.9080400  14.2680540
  30.5835320 143.2465370  14.2899300  29.7202160 142.1859810  13.6404820
  23.3280690 138.2807450  12.4967540  23.7655560 138.8237120  13.1525120
  23.8128420 137.4554400  12.5063880  20.5426490 141.0696480  19.9487800
  20.8729500 140.2017540  19.7166440  20.9717490 141.2755000  20.7792760
  25.1388410 139.4005490  17.6089770  24.8383950 139.2770460  18.5093680
  25.0325900 138.5414080  17.2005500  21.0316700 141.9367070  22.6869430
  20.5947690 142.1167870  23.5193580  21.5994380 142.6941690  22.5451150
  36.6678880 141.4384070  26.9746740  36.0680870 141.4976630  26.2310660
  36.7972780 140.4989050  27.1043590  37.9080330 139.1801890  12.3116450
  37.0773290 139.2478540  12.7823680  38.0852160 140.0706010  12.0083310
  37.3636790 135.9249370  14.8150650  38.1255700 136.4946020  14.9210340
  37.3791160 135.3576570  15.5858960  20.8641130 134.4487300  19.0458310
  20.2089970 134.1798940  18.4018010  21.7019080 134.3391780  18.5960290
  38.3696760 136.7799470  19.6592580  38.7405590 135.9966790  19.2528550
  39.0098690 137.4688570  19.4809880  35.3530520 138.1636050  25.0722900
  34.5390360 138.5933210  25.3348690  35.7604720 138.7754460  24.4591950
  37.4155960 136.2183740  11.9723170  37.6904800 137.1262620  11.8442390
  37.2266700 136.1546270  12.9085160  33.8131570 129.2428590  13.2676800
  34.2316450 129.0559570  12.4273460  33.5067630 128.3907640  13.5779730
  37.3121300 134.1552730  16.9652600  36.9364900 133.3880660  16.5333890
  36.5824420 134.5375430  17.4527530  21.9017060 134.8339870  23.5861650
  22.2690100 134.7467270  24.4657670  21.3327880 134.0706420  23.4868510
  36.7020920 133.3024250  26.5992120  36.4707010 133.0737000  25.6990070
  36.9625470 134.2223800  26.5537010  21.4533060 131.7448960  27.4920070
  20.5589110 131.7115720  27.8313780  21.9930610 131.9435750  28.2571320
  35.1408990 128.5280680  29.3771820  36.0179170 128.5364080  29.7605820
  35.1529830 127.7911520  28.7664170  20.0779210 131.6586230  14.9883640
  19.1743290 131.9216430  14.8135300  20.5619830 131.9297400  14.2083600
  36.5872260 132.3810220  20.2659840  37.1109740 131.8872870  19.6350010
  37.1731680 132.5160580  21.0107410  36.7661980 132.4650090  23.7879390
  35.8164690 132.4313630  23.9024380  36.9474990 133.3750200  23.5529160
  22.6206420 130.7151770  12.8978020  23.3298120 130.2934990  12.4125300
  21.9046360 130.7827000  12.2661370  22.2680580 126.7691100  11.9380670
  22.9908710 127.3100040  12.2561890  22.5405100 126.4954520  11.0622210
  36.0772230 131.6383570  16.2052250  36.5731350 131.4054440  16.9901130
  35.8788300 130.7995410  15.7889890  21.9572770 126.0197290  21.8403290
  22.6048960 125.4694670  21.3998450  22.3774610 126.2740440  22.6619100
  37.5059390 130.2744520  18.7389930  37.3958670 130.1200560  19.6772200
  38.2666980 129.7465460  18.4965340  35.8525110 126.2138650  25.1972930
  36.4897330 126.8272790  25.5632120  36.0000000 126.2499310  24.2522160
  38.3949660 128.1052440  11.9796070  39.3198970 127.9733620  11.7714360
  38.3725450 128.1845260  12.9332520  38.4688150 128.8763100  14.6052780
  37.6739650 128.8108220  15.1345690  38.6731430 129.8113740  14.5938130
  35.4106570 142.9154650  18.5991170  36.0065640 142.5939220  17.9225590
  35.6684720 142.4426470  19.3904440  21.7104770 126.1752960  24.5828610
  21.3619590 126.6316780  25.3486790  21.3792470 125.2810090  24.6651040
  23.3169140 139.3472560  28.7481800  23.2738770 138.9765470  29.6296260
  23.4480150 140.2850130  28.8883620  27.0175170 140.9032150  24.3491520
  26.7766530 141.1706710  23.4622040  27.9577810 141.0737880  24.4042380
  29.2229590 127.3664840  28.1048030  29.1618480 127.9586670  28.8543440
  30.1629970 127.2590800  27.9598290  31.8604150 127.0234900  27.7440320
  32.4744560 127.3414190  27.0821400  32.4053710 126.5383490  28.3636180
  38.2779330 142.9226530  25.1502160  37.7837610 143.3195400  24.4329290
  37.6692620 142.2975740  25.5439440  22.3825410 125.7029160  27.8579380
  22.9308400 125.5217210  27.0945490  22.4480720 124.9123270  28.3935690
  23.1557170 142.2934810  25.8679580  22.5617490 142.1619510  26.6069620
  23.1481010 141.4572950  25.4021680  32.6012190 125.5867040  24.0709610
  31.7272030 125.9202150  23.8682540  32.4922940 125.1140220  24.8961480
  33.5084170 127.7937910  25.4551330  33.1797530 126.9789670  25.0753060
  34.4566470 127.7507720  25.3317020  35.9618780 143.5649950  22.4288900
  35.5021750 144.3165760  22.0546920  35.3331240 142.8456420  22.3703700
  22.7869400 139.6593190  24.8187620  22.0603460 139.0398480  24.7513570
  22.8478550 140.0533800  23.9485700  26.3914500 141.8738190  21.6037030
  26.9079520 141.2625550  21.0785290  27.0411880 142.3766970  22.0948040
  29.1310000 142.7646680  22.4306010  29.4187810 142.5100980  21.5539020
  29.6433220 142.2124040  23.0211580  30.3487010 126.5036880  23.0102520
  29.5658800 126.9782380  23.2899280  30.0549940 125.5991710  22.9015700
  34.9008080 127.2059980  21.0551610  35.3416170 127.1505080  20.2073210
  34.6315670 128.1217990  21.1261790  36.7646650 126.8375220  19.0660430
  36.7035050 125.8936440  18.9191450  37.5438680 126.9455310  19.6113890
  21.0699400 142.9767580  18.0284380  20.9021440 142.3438260  18.7266270
  20.2033910 143.1826980  17.6778570  21.6927420 126.8084360  15.5316240
  22.4506780 126.9213240  14.9580270  21.2304590 127.6453560  15.4859670
  28.2341230 128.9223630  18.5218550  27.4215740 128.5480520  18.1814430
  28.7382870 128.1668710  18.8239740  32.7366210 125.5866080  19.7601620
  33.3395580 126.1586290  20.2350140  31.9959200 126.1505520  19.5375520
  35.8800810 125.9887640  15.0341900  36.0751440 126.8871090  15.3009330
  35.0930680 125.7574720  15.5274850  22.6762100 141.6700810  15.4734520
  22.1509720 142.0508840  14.7696480  22.6006680 142.2951580  16.1944230
  24.0652570 127.3348410  14.0718210  24.5945330 126.5478210  13.9426160
  24.6980890 128.0139600  14.3053740  26.2590410 127.0723550  17.1263600
  25.6293150 126.3710860  17.2933730  25.7195550 127.8327680  16.9096760
  29.1982360 143.6862780  29.7974210  30.1249670 143.4507050  29.8410170
  29.1832790 144.5134780  29.3160240  37.4327420 143.2288350  16.7948460
  37.6079610 142.5426090  16.1509380  36.7348990 143.7535400  16.4025130
  26.3845970 126.3507530  29.5616090  26.1030240 126.8541130  28.7976910
  26.7665670 125.5529280  29.1958220  25.2755070 143.6183190  14.3483770
  26.0073890 143.3342470  13.8007660  25.5348740 143.3796470  15.2383150
  24.4369860 139.7347920  14.3530100  23.8078740 140.2033020  14.9015930
  24.5517690 138.8897140  14.7876290  32.9861430 125.7661110  30.1396560
  32.8726880 126.0855720  31.0348080  33.8031170 126.1673620  29.8433840
  35.7659920 142.9132640  29.6215250  36.5585240 142.4181870  29.4141210
  36.0593070 143.5922780  30.2290860  30.0237620 135.5632600   2.3840570
  29.2479720 135.0833040   2.6739140  30.6750550 134.8838250   2.2096730
  24.0403450 135.8752410   3.2616330  23.2088330 135.6201120   3.6612840
  24.6484430 135.9463180   3.9974250  24.0204710 139.9092500   3.4574350
  24.3232750 139.0190240   3.2784570  24.7648300 140.4662720   3.2296600
  20.4128410 133.4359950   2.9298420  20.9844520 132.6682150   2.9302060
  20.4129950 133.7348710   2.0205030  29.4646610 138.2389790   2.3910730
  29.3954890 137.2979730   2.2299860  30.2266470 138.3291200   2.9633300
  21.6553280 128.8444310   4.7167350  21.4756120 127.9470060   4.9970110
  21.2533360 129.3916180   5.3914300  30.4951780 131.0460170   2.6179660
  30.8716600 130.1732050   2.5053330  30.3971290 131.3818870   1.7270100
  22.2739950 131.3404810   3.3249690  22.9550060 131.6043180   3.9437090
  21.9588000 130.5005680   3.6587700  26.4664520 132.3872170   2.4122280
  26.9742740 132.8853140   3.0527300  26.9977760 131.6107370   2.2361640
  38.5675450 130.5577360   6.1151630  37.8627620 130.9459070   5.5966740
  38.8333370 131.2527650   6.7172560  24.7500620 127.0270730   6.6785700
  24.7519060 127.5443120   5.8731600  23.9204930 126.5500910   6.6555630
  26.0003470 136.6665910   4.8559200  25.6672850 137.2934830   5.4980270
  26.1770150 137.1927790   4.0760870  34.5137380 130.4810990   2.3235540
  33.8092950 130.7695880   2.9038650  34.8749540 131.2911100   1.9635100
  24.4315950 128.7380690   4.6856150  24.7732760 129.5822740   4.3910020
  23.4931760 128.8864430   4.8021490  25.2122570 138.6346710   6.6708380
  25.8296570 139.3097790   6.3892830  24.3515690 139.0434690   6.5795880
  36.1300160 140.0986120   4.5863020  35.4463680 140.7685230   4.5779690
  36.6694450 140.2966770   3.8207880  37.5824300 129.9265780   2.7144750
  36.6349210 129.9604760   2.8460180  37.9074290 130.7404730   3.0994110
  33.6658900 141.9430250   3.3008200  33.6786060 141.5392540   2.4330460
  33.1134120 142.7177540   3.1969630  33.0644340 136.8460090   4.6290810
  33.4813130 136.6320200   3.7944270  33.7884160 137.1032880   5.1999430
  37.0106440 135.2447310   4.7207050  36.1825070 135.3140400   4.2457180
  37.6056920 135.8301620   4.2522880  33.9748450 132.0316630   5.6661920
  33.5619630 132.8570340   5.9201910  33.2424400 131.4461670   5.4738280
  26.5762940 138.5044090   2.6919800  26.2791230 137.8989560   2.0127580
  27.5262760 138.5421400   2.5809160  24.8209860 131.5919740   4.3079630
  25.3724450 131.7015080   3.5332880  25.3353370 131.9657340   5.0234860
  34.6648550 142.0775960   6.3542900  34.1879110 142.8848150   6.1615510
  33.9810340 141.4254290   6.5069110  25.6681370 138.2425780   9.3427600
  24.7709900 138.4665750   9.5901000  25.6934240 138.3660720   8.3939000
  24.4952590 135.1139100   7.9184970  24.3560360 135.9861900   8.2872370
  23.6133950 134.7711910   7.7732910  26.2932940 141.0560800  10.1270120
  26.2648370 141.4603750   9.2598550  26.1297910 140.1271160   9.9641720
  38.2447760 141.8387900  11.4234290  38.7207480 142.3170790  12.1023370
  38.8654920 141.7705390  10.6979790  20.4471240 136.8836650   3.8355880
  20.5251660 137.0185420   2.8911600  21.0612920 136.1752540   4.0284000
  37.6481010 139.0300750   8.5834300  37.7744070 138.7912630   7.6651480
  37.6902390 138.1985290   9.0556380  31.5097750 142.7328750   7.1529110
  32.0242420 142.6436760   7.9551540  30.6666830 143.0788450   7.4457020
  37.5005020 131.0833210   9.5484040  36.8849290 131.5912880   9.0199500
  37.1801440 130.1831540   9.4909980  20.5030760 137.9250820   6.3750340
  20.6661800 137.4556180   5.5569710  20.9683210 137.4174380   7.0399180
  29.5619340 129.9225100   7.0146230  29.0998710 130.1308120   7.8266170
  29.1597450 129.1084450   6.7116900  34.5623850 131.1434050   8.1442890
  33.7117440 130.8439800   8.4651960  34.4025640 131.3876060   7.2326710
  31.6573560 132.6435800  10.2441680  31.9826970 131.8099550   9.9043910
  32.4453890 133.1664320  10.3920010  27.3125430 127.6003910   3.2700510
  27.6097760 128.5066740   3.1892530  27.8610990 127.1122690   2.6560080
  27.5062960 133.0775730   9.8052430  27.4106560 132.1370460   9.6552830
  28.3494940 133.2990800   9.4100500  22.6373500 129.4889400   7.9586210
  22.2436890 130.3364610   8.1658990  21.9491900 128.8515770   8.1494850
  29.2118550 129.5724370  11.0282950  28.5216870 129.3796570  11.6629040
  29.9550850 129.8559010  11.5607250  19.9390550 127.4117860   1.9916290
  19.6503600 127.9820720   2.7041270  20.6836310 126.9322310   2.3547520
  31.4881520 133.4122810   3.8636870  30.7562640 133.9209620   4.2126970
  31.0905860 132.5952790   3.5625650  27.9258910 130.0877010   2.2689360
  27.9294970 129.6466960   1.4193900  28.8210030 130.4094340   2.3761180
  31.9507430 128.8656490   3.2759810  31.9680170 129.3165140   4.1201660
  31.7023010 127.9662130   3.4893250  35.3778180 126.2788670   9.1146190
  35.7023950 125.5478330   9.6404170  35.4134690 125.9602310   8.2127180
  22.0769740 137.3002250   8.5346150  21.6924530 136.6595920   9.1329110
  22.3881930 138.0038370   9.1040880  28.2266880 134.1478790   4.0154770
  28.5937010 133.6737360   4.7616110  28.0371940 135.0220360   4.3563110
  26.0166250 133.1887430   6.3338980  25.7123320 134.0679410   6.5589340
  26.9712710 133.2487220   6.3696420  35.3036020 136.3913780   2.7232220
  36.0235140 136.8869070   2.3328330  35.1017840 135.7131670   2.0786090
  30.6854820 136.4622840   8.6101220  30.6192130 135.5418510   8.3558810
  30.0559960 136.5598280   9.3245860  22.0729980 134.0290170   7.4810340
  21.7144920 134.6944020   8.0683680  21.7784540 133.1973720   7.8522960
  25.2743100 134.4874410  10.3649890  24.9743240 134.6331590   9.4677710
  26.0454340 133.9279700  10.2723280  30.6171550 139.2843410   8.3605020
  30.6316090 138.3524370   8.1423930  29.9096650 139.3703170   8.9994790
  36.8282760 135.9250750   7.7073600  36.1030950 136.5179530   7.5102990
  37.3558220 135.9174290   6.9086970  30.0505450 140.9260980   5.4545520
  30.6947670 141.1320360   6.1318940  30.4134890 140.1649380   5.0016370
  31.3237530 138.9293330   4.1722970  31.9659760 138.2286490   4.2855140
  31.8486880 139.7091770   3.9919860  33.0975150 139.7288230   7.3759030
  33.4331390 140.3154920   8.0536950  32.1775490 139.5980940   7.6056820
  20.6478550 127.5183410   8.1582440  19.9337070 127.7180330   8.7635050
  21.0673590 126.7422980   8.5297240  20.9351140 141.5063670   9.1448970
  21.0442260 140.5658410   9.0044360  20.2831700 141.7718420   8.4962700
  28.9263730 139.7779560  10.5447090  28.6060600 139.0588800  11.0892780
  28.2522090 140.4534630  10.6183150  32.1417330 130.0105720   5.9083890
  32.5098150 129.1900930   6.2363460  31.2815530 130.0707610   6.3239540
  29.1019320 132.6645310   6.1321860  29.6004570 133.1391130   6.7973710
  29.2442270 131.7408830   6.3391890  36.3086180 128.8813270   6.9750250
  35.8059780 129.6218670   7.3144060  37.1242840 129.2697270   6.6587040
  36.6033770 141.2955300   2.0965870  36.7281190 142.1186470   2.5689680
  37.4699330 141.0846030   1.7490020  24.0751300 143.3886510   1.7683000
  24.8113780 142.8401970   2.0391570  24.4592220 144.2542520   1.6288990
  23.0809580 142.5732580  10.9568580  23.8822310 142.8944630  11.3703980
  22.5661400 142.2128160  11.6788490  31.9174210 138.6812450  10.9043990
  31.3112370 138.7044050  10.1639740  31.6128320 137.9495490  11.4411240
  33.3474580 142.4092740   9.5153400  34.2996330 142.3250760   9.4653640
  33.2002800 143.0734450  10.1887190  20.8007390 135.0606040   9.9004630
  21.3046410 134.4813320  10.4720860  20.0614810 135.3446270  10.4381000
  27.8545330 136.4677030   9.4340150  27.0891000 137.0362030   9.3494820
  28.0361290 136.1753240   8.5408380  34.9968680 138.1982360   9.9915170
  35.7378150 138.5358120   9.4882630  34.2341360 138.3674420   9.4384940
  22.8330470 133.2035630  10.7954700  22.8735810 132.9049500  11.7039930
  23.6875970 133.6043240  10.6362220  24.7736280 131.7827730   8.7629190
  24.2432740 131.2918680   8.1352530  25.4424350 132.2111930   8.2287120
  33.6714340 136.2497190   8.5270380  34.0855360 136.4042270   9.3760800
  32.7365340 136.3752410   8.6896160  34.1436510 133.5893350  10.5309530
  34.7257280 132.8345670  10.4430010  34.3198280 134.1200790   9.7541010
  25.2608580 128.7490100   8.8426480  25.1665450 128.1310850   8.1177350
  24.6805970 129.4756390   8.6156390  28.0270020 127.3063340   5.8753870
  27.5787320 127.3287600   5.0299420  27.3935220 126.9082360   6.4724170
  28.4329570 136.2017670   6.4966310  28.8517680 137.0450400   6.3242550
  27.5138200 136.3389710   6.2673090  30.7693470 133.9333850   7.8804150
  30.8889680 133.3374990   8.6198990  31.6287470 133.9703540   7.4605450
  33.1081370 134.4871040   6.4566660  32.5816590 135.0113660   5.8531800
  33.4512710 135.1198430   7.0876390  26.2836990 142.5070680   7.6124040
  25.7458080 143.2316740   7.2932740  26.5370950 142.0301020   6.8221380
  27.5362240 130.4755200   9.1379970  28.1261930 130.1671050   9.8257790
  26.7182480 130.0034950   9.2939870  32.3555670 130.0921010   9.3712990
  31.6671190 129.4302550   9.3062980  33.0761690 129.6459280   9.8161450
  29.1399200 143.7421890   7.8710690  29.0657900 144.6457030   8.1783060
  28.2378040 143.4233790   7.8432760  21.0316700 141.9367070   3.9125940
  20.5947690 142.1167870   4.7450090  21.5994380 142.6941690   3.7707660
  36.6678880 141.4384070   8.2003250  36.0680870 141.4976630   7.4567170
  36.7972780 140.4989050   8.3300100  35.3530520 138.1636050   6.2979410
  34.5390360 138.5933210   6.5605200  35.7604720 138.7754460   5.6848460
  21.9017060 134.8339870   4.8118160  22.2690100 134.7467270   5.6914180
  21.3327880 134.0706420   4.7125020  36.7020920 133.3024250   7.8248630
  36.4707010 133.0737000   6.9246580  36.9625470 134.2223800   7.7793520
  21.4533060 131.7448960   8.7176580  20.5589110 131.7115720   9.0570290
  21.9930610 131.9435750   9.4827830  35.1408990 128.5280680  10.6028330
  36.0179170 128.5364080  10.9862330  35.1529830 127.7911520   9.9920680
  36.7661980 132.4650090   5.0135900  35.8164690 132.4313630   5.1280890
  36.9474990 133.3750200   4.7785670  21.9572770 126.0197290   3.0659800
  22.6048960 125.4694670   2.6254960  22.3774610 126.2740440   3.8875610
  35.8525110 126.2138650   6.4229440  36.4897330 126.8272790   6.7888630
  36.0000000 126.2499310   5.4778670  21.7104770 126.1752960   5.8085120
  21.3619590 126.6316780   6.5743300  21.3792470 125.2810090   5.8907550
  23.3169140 139.3472560   9.9738310  23.2738770 138.9765470  10.8552770
  23.4480150 140.2850130  10.1140130  27.0175170 140.9032150   5.5748030
  26.7766530 141.1706710   4.6878550  27.9577810 141.0737880   5.6298890
  29.2229590 127.3664840   9.3304540  29.1618480 127.9586670  10.0799950
  30.1629970 127.2590800   9.1854800  31.8604150 127.0234900   8.9696830
  32.4744560 127.3414190   8.3077910  32.4053710 126.5383490   9.5892690
  38.2779330 142.9226530   6.3758670  37.7837610 143.3195400   5.6585800
  37.6692620 142.2975740   6.7695950  22.3825410 125.7029160   9.0835890
  22.9308400 125.5217210   8.3202000  22.4480720 124.9123270   9.6192200
  23.1557170 142.2934810   7.0936090  22.5617490 142.1619510   7.8326130
  23.1481010 141.4572950   6.6278190  32.6012190 125.5867040   5.2966120
  31.7272030 125.9202150   5.0939050  32.4922940 125.1140220   6.1217990
  33.5084170 127.7937910   6.6807840  33.1797530 126.9789670   6.3009570
  34.4566470 127.7507720   6.5573530  35.9618780 143.5649950   3.6545410
  35.5021750 144.3165760   3.2803430  35.3331240 142.8456420   3.5960210
  22.7869400 139.6593190   6.0444130  22.0603460 139.0398480   5.9770080
  22.8478550 140.0533800   5.1742210  26.3914500 141.8738190   2.8293540
  26.9079520 141.2625550   2.3041800  27.0411880 142.3766970   3.3204550
  29.1310000 142.7646680   3.6562520  29.4187810 142.5100980   2.7795530
  29.6433220 142.2124040   4.2468090  30.3487010 126.5036880   4.2359030
  29.5658800 126.9782380   4.5155790  30.0549940 125.5991710   4.1272210
  34.9008080 127.2059980   2.2808120  35.3416170 127.1505080   1.4329720
  34.6315670 128.1217990   2.3518300  29.1982360 143.6862780  11.0230720
  30.1249670 143.4507050  11.0666680  29.1832790 144.5134780  10.5416750
  26.3845970 126.3507530  10.7872600  26.1030240 126.8541130  10.0233420
  26.7665670 125.5529280  10.4214730  32.9861430 125.7661110  11.3653070
  32.8726880 126.0855720  12.2604590  33.8031170 126.1673620  11.0690350
  35.7659920 142.9132640  10.8471760  36.5585240 142.4181870  10.6397720
  36.0593070 143.5922780  11.4547370  31.8919580 115.0110090 150.6979220
  31.8113630 114.0964700 150.4270930  31.4784000 115.5077160 149.9918930
  30.0237620 116.7889110 152.5788490  29.2479720 116.3089550 152.8687060
  30.6750550 116.1094760 152.4044650  34.0445050 121.1949300 151.3587620
  33.5826580 120.4236540 151.6874790  34.8570600 121.2215370 151.8640070
  22.4495400 112.0610810 147.2406640  21.5612100 112.4026780 147.1386520
  22.7336590 111.8611130 146.3487470  20.4128410 114.6616460 153.1246340
  20.9844520 113.8938660 153.1249980  20.4129950 114.9605220 152.2152950
  30.2708360 123.4807310 150.9791610  29.6519800 123.9364810 150.4086050
  31.1260140 123.6358770 150.5781310  29.4646610 119.4646300 152.5858650
  29.3954890 118.5236240 152.4247780  30.2266470 119.5547710 153.1581220
  30.4951780 112.2716680 152.8127580  30.8716600 111.3988560 152.7001250
  30.3971290 112.6075380 151.9218020  24.6256790 110.6442310 148.2745020
  24.7323540 111.5446040 148.5813780  23.7149150 110.5960280 147.9839670
  34.2775900 109.7667120 149.7455920  35.0985520 109.2763690 149.7881400
  34.3109980 110.3564780 150.4987760  31.1371710 118.3646550 148.3723520
  30.5188980 118.8296000 147.8086240  31.6494960 119.0574030 148.7893030
  34.5137380 111.7067500 152.5183460  33.8092950 111.9952390 153.0986570
  34.8749540 112.5167610 152.1583020  20.5054910 119.0503080 145.7463150
  20.1282890 119.5390180 145.0148050  20.7627980 119.7228360 146.3769680
  28.1143840 107.4519470 151.2048660  28.4218820 106.8966360 150.4884160
  27.1844540 107.5863930 151.0221650  34.9604320 119.8902980 148.5846290
  34.8500650 118.9477310 148.7095710  34.9572570 120.2518620 149.4709050
  30.5024600 115.5168300 147.9408780  29.5753880 115.4505680 148.1697250
  30.6549420 116.4548430 147.8264020  30.4893680 111.7885300 144.9375940
  29.5497350 111.9499260 145.0228400  30.8076940 112.5070980 144.3911930
  34.5321890 117.0788600 148.4444030  33.9134310 116.7408150 147.7970330
  34.5146340 116.4348360 149.1523220  26.1081240 116.0433040 150.7228510
  25.7038240 115.3310290 150.2274410  26.1944360 115.6986280 151.6116550
  26.5762940 119.7300600 152.8867720  26.2791230 119.1246070 152.2075500
  27.5262760 119.7677910 152.7757080  32.7086590 116.3175410 145.4516780
  33.1479870 115.4797840 145.3054600  33.4215010 116.9504810 145.5380920
  30.8181970 121.2571480 149.4198020  31.2577880 121.9995810 149.0053410
  30.7568860 121.4998050 150.3436980  36.2903730 107.5718220 143.7657820
  35.9776390 107.6645050 144.6656890  37.0516200 108.1499250 143.7155250
  22.8085870 114.9378020 148.2235160  22.6883470 115.6640110 147.6116430
  22.4986760 114.1680930 147.7463070  21.6918870 119.8093350 150.4409980
  21.2846950 119.9507940 149.5863580  22.5831880 119.5253510 150.2381190
  33.4852150 124.2440600 146.7761030  33.3253290 123.9543540 147.6742860
  33.3198860 123.4680730 146.2406260  25.9640530 124.0239130 148.5532650
  25.7883010 123.1074670 148.3400450  25.1096270 124.3826420 148.7930450
  33.1878280 121.7528160 145.3359030  32.4943440 121.7505450 144.6761310
  33.9301140 121.3287480 144.9053200  32.7528210 123.3790870 149.4107520
  33.2085160 122.5980250 149.7246140  33.0920730 124.0897690 149.9548700
  25.2749530 108.2813090 151.6058830  24.8317680 109.0622630 151.2743350
  25.8334520 108.6042980 152.3129770  28.3908350 107.9023790 146.4864660
  27.7662530 107.8983660 147.2117970  28.3038470 107.0354750 146.0900630
  25.0663750 113.4046660 149.3340080  24.8404670 113.1883830 150.2386700
  24.2856280 113.8375120 148.9886050  32.2961510 113.4110030 147.9330730
  31.6970400 114.1345830 147.7494350  32.8441120 113.3486810 147.1507180
  30.9026380 112.0473570 149.9634010  31.2955950 112.3645770 149.1502700
  31.2643230 111.1685450 150.0778530  19.9390550 108.6374370 152.1864210
  19.6503600 109.2077230 152.8989190  20.6836310 108.1578820 152.5495440
  20.1260780 112.5794490 143.3966930  20.0435450 113.5225250 143.5381920
  19.7743840 112.4369400 142.5179280  27.9258910 111.3133520 152.4637280
  27.9294970 110.8723470 151.6141820  28.8210030 111.6350850 152.5709100
  23.7761290 111.1960010 151.4231490  23.4361340 111.6735240 152.1798540
  23.0138610 110.7425130 151.0632590  27.9879060 112.3145600 145.4544040
  28.1091880 112.2732080 146.4029860  27.6027570 113.1769750 145.2990770
  27.0000560 114.6246740 144.8527340  26.4317460 114.1764990 144.2263250
  27.7089560 114.9839520 144.3192490  21.0907370 110.1178990 150.3396160
  20.8054290 109.7534660 151.1774780  21.0286230 109.3859450 149.7259300
  24.5448040 118.6204930 147.1253750  23.7710300 118.0802550 146.9652470
  25.2742670 118.1011540 146.7871510  35.3036020 117.6170290 152.9180140
  36.0235140 118.1125580 152.5276250  35.1017840 116.9388180 152.2734010
  30.7645960 109.0108250 147.0609530  29.9510570 108.5121420 146.9854840
  30.5707910 109.8506500 146.6445880  33.4794350 113.3827900 145.3571690
  34.3673970 113.6945130 145.1823030  33.4499440 112.5100150 144.9652270
  24.5885440 118.2885310 150.7632560  25.1064110 117.4853570 150.7089450
  24.1369460 118.2264450 151.6049390  29.4754940 119.5551590 146.0359860
  29.8170640 120.2993820 145.5403180  28.6467650 119.8682710 146.3984690
  35.7508620 114.6939740 144.8251550  35.6672340 115.1253960 143.9747990
  36.4702810 115.1538090 145.2578370  36.7795870 121.5482000 147.5533680
  36.1372030 120.8937620 147.8277400  36.3926530 121.9537090 146.7774350
  32.3582350 118.8767430 151.4005370  32.7106170 118.2795560 150.7406740
  31.4744680 118.5511660 151.5713620  28.4445630 119.6365120 148.8075780
  29.1316760 120.1834330 149.1883370  27.6578050 120.1805850 148.8425390
  20.5838030 115.2537940 144.2992860  21.4532880 115.5362740 144.5828780
  20.0928350 116.0673810 144.1841670  27.7472840 116.6411150 148.4201140
  28.2035620 117.4516400 148.6461330  27.3961050 116.3234290 149.2519630
  23.6484620 106.9848800 148.8923660  23.5199250 106.9766700 149.8408580
  22.8246640 107.3231890 148.5414670  35.1693250 120.4398460 144.0910030
  34.9430830 119.7228900 144.6834670  34.7789450 120.1910900 143.2531780
  20.9509280 124.4665320 144.8654490  21.3106920 125.0654660 144.2111760
  20.8101620 125.0125210 145.6389520  34.7509500 118.3570400 145.7524190
  34.4631200 118.8183090 146.5402070  35.5461670 117.8968170 146.0208410
  26.9677900 121.8496520 145.6828160  26.9588000 122.5826210 145.0672670
  26.0476260 121.6028100 145.7755120  22.5684540 117.0711410 146.4274920
  21.9612490 117.8110310 146.4370220  23.0433890 117.1610770 145.6013120
  35.5079360 110.1919170 146.9119370  34.8792520 110.2964840 146.1977600
  35.0131280 110.4115950 147.7013250  29.9537500 121.9124760 144.3453350
  30.0549480 121.7088750 143.4155330  29.0539240 121.6583040 144.5501130
  27.4763390 112.4705120 148.3277250  26.7679540 112.9391460 148.7690860
  27.7607870 111.8127130 148.9622440  31.5078820 109.1955780 149.7673040
  31.3846600 109.2141910 148.8182550  32.4563380 109.2434720 149.8871440
  28.5955610 124.4311080 149.0401020  28.8497110 124.3932470 148.1180390
  27.6468090 124.3044410 149.0329270  25.6798410 110.7790200 145.7027960
  26.5288940 111.2160350 145.6368150  25.3129680 111.0910460 146.5300020
  34.6008190 115.3502960 150.6159530  33.6598330 115.3653190 150.7907220
  34.9152260 114.5638920 151.0619830  24.5789830 117.0322560 144.1763490
  25.3453100 116.9203920 144.7388920  24.6564520 116.3360530 143.5240260
  23.2736590 114.4647630 144.8596380  23.3540180 113.5175140 144.9713780
  24.1656340 114.7954510 144.9657040  36.6033770 122.5211810 152.2913790
  36.7281190 123.3442980 152.7637600  37.4699330 122.3102540 151.9437940
  24.0751300 124.6143020 151.9630920  24.8113780 124.0658480 152.2339490
  24.4592220 125.4799030 151.8236910  20.9596780 120.6816590 147.8372430
  20.0336560 120.9237730 147.8277840  21.4253210 121.5090850 147.7157180
  27.1853610 123.7873330 143.7856490  27.9782220 124.0762160 143.3338280
  26.6657960 123.3565500 143.1068970  36.2383780 123.0143460 145.2093230
  35.9525290 122.6008600 144.3947410  36.0403330 123.9431170 145.0893750
  27.7031010 119.0076740 143.6498840  27.5981650 118.3929090 144.3760220
  27.5355230 118.4842630 142.8661850  30.9433740 118.0696770 144.2540830
  30.3943840 118.5166070 144.8983570  31.5653000 117.5646020 144.7778500
  26.6108860 117.0287690 146.1506130  27.0325280 116.8627560 146.9937520
  26.7359700 116.2187920 145.6561270  29.1236500 116.0525300 143.3983230
  29.6442160 115.3374320 143.0324380  29.7704900 116.6911170 143.6983740
  25.5067760 113.1020920 143.0964290  25.3056820 112.2388280 143.4577630
  25.3359810 113.0154280 142.1585890  32.9856070 107.9129150 145.6251170
  33.2658360 107.0697050 145.9810590  32.2121800 108.1452260 146.1389920
  24.3050560 110.2021540 143.0842170  24.6076460 110.2088970 142.1761320
  25.0445150 109.8519400 143.5809830  27.5235490 109.1456160 144.0698370
  27.1757490 108.4680150 143.4900820  27.7248260 108.6845670 144.8841760
  29.6884530 124.1336910 145.6884970  30.5835320 124.4721880 145.7103730
  29.7202160 123.4116320 145.0609250  23.3280690 119.5063960 143.9171970
  23.7655560 120.0493630 144.5729550  23.8128420 118.6810910 143.9268310
  20.5426490 122.2952990 151.3692230  20.8729500 121.4274050 151.1370870
  20.9717490 122.5011510 152.1997190  25.1388410 120.6262000 149.0294200
  24.8383950 120.5026970 149.9298110  25.0325900 119.7670590 148.6209930
  37.9080330 120.4058400 143.7320880  37.0773290 120.4735050 144.2028110
  38.0852160 121.2962520 143.4287740  37.3636790 117.1505880 146.2355080
  38.1255700 117.7202530 146.3414770  37.3791160 116.5833080 147.0063390
  20.8641130 115.6743810 150.4662740  20.2089970 115.4055450 149.8222440
  21.7019080 115.5648290 150.0164720  38.3696760 118.0055980 151.0797010
  38.7405590 117.2223300 150.6732980  39.0098690 118.6945080 150.9014310
  37.4155960 117.4440250 143.3927600  37.6904800 118.3519130 143.2646820
  37.2266700 117.3802780 144.3289590  33.8131570 110.4685100 144.6881230
  34.2316450 110.2816080 143.8477890  33.5067630 109.6164150 144.9984160
  37.3121300 115.3809240 148.3857030  36.9364900 114.6137170 147.9538320
  36.5824420 115.7631940 148.8731960  20.0779210 112.8842740 146.4088070
  19.1743290 113.1472940 146.2339730  20.5619830 113.1553910 145.6288030
  36.5872260 113.6066730 151.6864270  37.1109740 113.1129380 151.0554440
  37.1731680 113.7417090 152.4311840  22.6206420 111.9408280 144.3182450
  23.3298120 111.5191500 143.8329730  21.9046360 112.0083510 143.6865800
  22.2680580 107.9947610 143.3585100  22.9908710 108.5356550 143.6766320
  22.5405100 107.7211030 142.4826640  36.0772230 112.8640080 147.6256680
  36.5731350 112.6310950 148.4105560  35.8788300 112.0251920 147.2094320
  37.5059390 111.5001030 150.1594360  37.3958670 111.3457070 151.0976630
  38.2666980 110.9721970 149.9169770  38.3949660 109.3308950 143.4000500
  39.3198970 109.1990130 143.1918790  38.3725450 109.4101770 144.3536950
  38.4688150 110.1019610 146.0257210  37.6739650 110.0364730 146.5550120
  38.6731430 111.0370250 146.0142560  35.4106570 124.1411160 150.0195600
  36.0065640 123.8195730 149.3430020  35.6684720 123.6682980 150.8108870
  34.9008080 108.4316490 152.4756040  35.3416170 108.3761590 151.6277640
  34.6315670 109.3474500 152.5466220  36.7646650 108.0631730 150.4864860
  36.7035050 107.1192950 150.3395880  37.5438680 108.1711820 151.0318320
  21.0699400 124.2024090 149.4488810  20.9021440 123.5694770 150.1470700
  20.2033910 124.4083490 149.0983000  21.6927420 108.0340870 146.9520670
  22.4506780 108.1469750 146.3784700  21.2304590 108.8710070 146.9064100
  28.2341230 110.1480140 149.9422980  27.4215740 109.7737030 149.6018860
  28.7382870 109.3925220 150.2444170  32.7366210 106.8122590 151.1806050
  33.3395580 107.3842800 151.6554570  31.9959200 107.3762030 150.9579950
  35.8800810 107.2144150 146.4546330  36.0751440 108.1127600 146.7213760
  35.0930680 106.9831230 146.9479280  22.6762100 122.8957320 146.8938950
  22.1509720 123.2765350 146.1900910  22.6006680 123.5208090 147.6148660
  24.0652570 108.5604920 145.4922640  24.5945330 107.7734720 145.3630590
  24.6980890 109.2396110 145.7258170  26.2590410 108.2980060 148.5468030
  25.6293150 107.5967370 148.7138160  25.7195550 109.0584190 148.3301190
  37.4327420 124.4544860 148.2152890  37.6079610 123.7682600 147.5713810
  36.7348990 124.9791910 147.8229560  25.2755070 124.8439700 145.7688200
  26.0073890 124.5598980 145.2212090  25.5348740 124.6052980 146.6587580
  24.4369860 120.9604430 145.7734530  23.8078740 121.4289530 146.3220360
  24.5517690 120.1153650 146.2080720  31.8919580 115.0110090 131.9235730
  31.8113630 114.0964700 131.6527440  31.4784000 115.5077160 131.2175440
  30.0237620 116.7889110 133.8045000  29.2479720 116.3089550 134.0943570
  30.6750550 116.1094760 133.6301160  24.0403450 117.1008920 134.6820760
  23.2088330 116.8457630 135.0817270  24.6484430 117.1719690 135.4178680
  34.0445050 121.1949300 132.5844130  33.5826580 120.4236540 132.9131300
  34.8570600 121.2215370 133.0896580  24.0204710 121.1349010 134.8778780
  24.3232750 120.2446750 134.6989000  24.7648300 121.6919230 134.6501030
  22.4495400 112.0610810 128.4663150  21.5612100 112.4026780 128.3643030
  22.7336590 111.8611130 127.5743980  20.4128410 114.6616460 134.3502850
  20.9844520 113.8938660 134.3506490  20.4129950 114.9605220 133.4409460
  30.2708360 123.4807310 132.2048120  29.6519800 123.9364810 131.6342560
  31.1260140 123.6358770 131.8037820  29.4646610 119.4646300 133.8115160
  29.3954890 118.5236240 133.6504290  30.2266470 119.5547710 134.3837730
  21.6553280 110.0700820 136.1371780  21.4756120 109.1726570 136.4174540
  21.2533360 110.6172690 136.8118730  30.4951780 112.2716680 134.0384090
  30.8716600 111.3988560 133.9257760  30.3971290 112.6075380 133.1474530
  24.6256790 110.6442310 129.5001530  24.7323540 111.5446040 129.8070290
  23.7149150 110.5960280 129.2096180  34.2775900 109.7667120 130.9712430
  35.0985520 109.2763690 131.0137910  34.3109980 110.3564780 131.7244270
  22.2739950 112.5661320 134.7454120  22.9550060 112.8299690 135.3641520
  21.9588000 111.7262190 135.0792130  26.4664520 113.6128680 133.8326710
  26.9742740 114.1109650 134.4731730  26.9977760 112.8363880 133.6566070
  38.5675450 111.7833870 137.5356060  37.8627620 112.1715580 137.0171170
  38.8333370 112.4784160 138.1376990  24.7500620 108.2527240 138.0990130
  24.7519060 108.7699630 137.2936030  23.9204930 107.7757420 138.0760060
  31.1371710 118.3646550 129.5980030  30.5188980 118.8296000 129.0342750
  31.6494960 119.0574030 130.0149540  26.0003470 117.8922420 136.2763630
  25.6672850 118.5191340 136.9184700  26.1770150 118.4184300 135.4965300
  34.5137380 111.7067500 133.7439970  33.8092950 111.9952390 134.3243080
  34.8749540 112.5167610 133.3839530  24.4315950 109.9637200 136.1060580
  24.7732760 110.8079250 135.8114450  23.4931760 110.1120940 136.2225920
  25.2122570 119.8603220 138.0912810  25.8296570 120.5354300 137.8097260
  24.3515690 120.2691200 138.0000310  20.5054910 119.0503080 126.9719660
  20.1282890 119.5390180 126.2404560  20.7627980 119.7228360 127.6026190
  36.1300160 121.3242630 136.0067450  35.4463680 121.9941740 135.9984120
  36.6694450 121.5223280 135.2412310  37.5824300 111.1522290 134.1349180
  36.6349210 111.1861270 134.2664610  37.9074290 111.9661240 134.5198540
  28.1143840 107.4519470 132.4305170  28.4218820 106.8966360 131.7140670
  27.1844540 107.5863930 132.2478160  33.6658900 123.1686760 134.7212630
  33.6786060 122.7649050 133.8534890  33.1134120 123.9434050 134.6174060
  34.9604320 119.8902980 129.8102800  34.8500650 118.9477310 129.9352220
  34.9572570 120.2518620 130.6965560  33.0644340 118.0716600 136.0495240
  33.4813130 117.8576710 135.2148700  33.7884160 118.3289390 136.6203860
  30.5024600 115.5168300 129.1665290  29.5753880 115.4505680 129.3953760
  30.6549420 116.4548430 129.0520530  30.4893680 111.7885300 126.1632450
  29.5497350 111.9499260 126.2484910  30.8076940 112.5070980 125.6168440
  37.0106440 116.4703820 136.1411480  36.1825070 116.5396910 135.6661610
  37.6056920 117.0558130 135.6727310  34.5321890 117.0788600 129.6700540
  33.9134310 116.7408150 129.0226840  34.5146340 116.4348360 130.3779730
  33.9748450 113.2573140 137.0866350  33.5619630 114.0826850 137.3406340
  33.2424400 112.6718180 136.8942710  26.1081240 116.0433040 131.9485020
  25.7038240 115.3310290 131.4530920  26.1944360 115.6986280 132.8373060
  26.5762940 119.7300600 134.1124230  26.2791230 119.1246070 133.4332010
  27.5262760 119.7677910 134.0013590  24.8209860 112.8176250 135.7284060
  25.3724450 112.9271590 134.9537310  25.3353370 113.1913850 136.4439290
  34.6648550 123.3032470 137.7747330  34.1879110 124.1104660 137.5819940
  33.9810340 122.6510800 137.9273540  25.6681370 119.4682290 140.7632030
  24.7709900 119.6922260 141.0105430  25.6934240 119.5917230 139.8143430
  32.7086590 116.3175410 126.6773290  33.1479870 115.4797840 126.5311110
  33.4215010 116.9504810 126.7637430  24.4952590 116.3395610 139.3389400
  24.3560360 117.2118410 139.7076800  23.6133950 115.9968420 139.1937340
  30.8181970 121.2571480 130.6454530  31.2577880 121.9995810 130.2309920
  30.7568860 121.4998050 131.5693490  26.2932940 122.2817310 141.5474550
  26.2648370 122.6860260 140.6802980  26.1297910 121.3527670 141.3846150
  36.2903730 107.5718220 124.9914330  35.9776390 107.6645050 125.8913400
  37.0516200 108.1499250 124.9411760  22.8085870 114.9378020 129.4491670
  22.6883470 115.6640110 128.8372940  22.4986760 114.1680930 128.9719580
  38.2447760 123.0644410 142.8438720  38.7207480 123.5427300 143.5227800
  38.8654920 122.9961900 142.1184220  20.4471240 118.1093160 135.2560310
  20.5251660 118.2441930 134.3116030  21.0612920 117.4009050 135.4488430
  21.6918870 119.8093350 131.6666490  21.2846950 119.9507940 130.8120090
  22.5831880 119.5253510 131.4637700  37.6481010 120.2557260 140.0038730
  37.7744070 120.0169140 139.0855910  37.6902390 119.4241800 140.4760810
  31.5097750 123.9585260 138.5733540  32.0242420 123.8693270 139.3755970
  30.6666830 124.3044960 138.8661450  33.4852150 124.2440600 128.0017540
  33.3253290 123.9543540 128.8999370  33.3198860 123.4680730 127.4662770
  25.9640530 124.0239130 129.7789160  25.7883010 123.1074670 129.5656960
  25.1096270 124.3826420 130.0186960  33.1878280 121.7528160 126.5615540
  32.4943440 121.7505450 125.9017820  33.9301140 121.3287480 126.1309710
  32.7528210 123.3790870 130.6364030  33.2085160 122.5980250 130.9502650
  33.0920730 124.0897690 131.1805210  37.5005020 112.3089720 140.9688470
  36.8849290 112.8169390 140.4403930  37.1801440 111.4088050 140.9114410
  20.5030760 119.1507330 137.7954770  20.6661800 118.6812690 136.9774140
  20.9683210 118.6430890 138.4603610  25.2749530 108.2813090 132.8315340
  24.8317680 109.0622630 132.4999860  25.8334520 108.6042980 133.5386280
  29.5619340 111.1481610 138.4350660  29.0998710 111.3564630 139.2470600
  29.1597450 110.3340960 138.1321330  34.5623850 112.3690560 139.5647320
  33.7117440 112.0696310 139.8856390  34.4025640 112.6132570 138.6531140
  31.6573560 113.8692310 141.6646110  31.9826970 113.0356060 141.3248340
  32.4453890 114.3920830 141.8124440  28.3908350 107.9023790 127.7121170
  27.7662530 107.8983660 128.4374480  28.3038470 107.0354750 127.3157140
  27.3125430 108.8260420 134.6904940  27.6097760 109.7323250 134.6096960
  27.8610990 108.3379200 134.0764510  25.0663750 113.4046660 130.5596590
  24.8404670 113.1883830 131.4643210  24.2856280 113.8375120 130.2142560
  32.2961510 113.4110030 129.1587240  31.6970400 114.1345830 128.9750860
  32.8441120 113.3486810 128.3763690  27.5062960 114.3032240 141.2256860
  27.4106560 113.3626970 141.0757260  28.3494940 114.5247310 140.8304930
  30.9026380 112.0473570 131.1890520  31.2955950 112.3645770 130.3759210
  31.2643230 111.1685450 131.3035040  22.6373500 110.7145910 139.3790640
  22.2436890 111.5621120 139.5863420  21.9491900 110.0772280 139.5699280
  29.2118550 110.7980880 142.4487380  28.5216870 110.6053080 143.0833470
  29.9550850 111.0815520 142.9811680  19.9390550 108.6374370 133.4120720
  19.6503600 109.2077230 134.1245700  20.6836310 108.1578820 133.7751950
  20.1260780 112.5794490 124.6223440  20.0435450 113.5225250 124.7638430
  19.7743840 112.4369400 123.7435790  31.4881520 114.6379320 135.2841300
  30.7562640 115.1466130 135.6331400  31.0905860 113.8209300 134.9830080
  27.9258910 111.3133520 133.6893790  27.9294970 110.8723470 132.8398330
  28.8210030 111.6350850 133.7965610  23.7761290 111.1960010 132.6488000
  23.4361340 111.6735240 133.4055050  23.0138610 110.7425130 132.2889100
  27.9879060 112.3145600 126.6800550  28.1091880 112.2732080 127.6286370
  27.6027570 113.1769750 126.5247280  31.9507430 110.0913000 134.6964240
  31.9680170 110.5421650 135.5406090  31.7023010 109.1918640 134.9097680
  27.0000560 114.6246740 126.0783850  26.4317460 114.1764990 125.4519760
  27.7089560 114.9839520 125.5449000  35.3778180 107.5045180 140.5350620
  35.7023950 106.7734840 141.0608600  35.4134690 107.1858820 139.6331610
  22.0769740 118.5258760 139.9550580  21.6924530 117.8852430 140.5533540
  22.3881930 119.2294880 140.5245310  28.2266880 115.3735300 135.4359200
  28.5937010 114.8993870 136.1820540  28.0371940 116.2476870 135.7767540
  21.0907370 110.1178990 131.5652670  20.8054290 109.7534660 132.4031290
  21.0286230 109.3859450 130.9515810  26.0166250 114.4143940 137.7543410
  25.7123320 115.2935920 137.9793770  26.9712710 114.4743730 137.7900850
  24.5448040 118.6204930 128.3510260  23.7710300 118.0802550 128.1908980
  25.2742670 118.1011540 128.0128020  35.3036020 117.6170290 134.1436650
  36.0235140 118.1125580 133.7532760  35.1017840 116.9388180 133.4990520
  30.7645960 109.0108250 128.2866040  29.9510570 108.5121420 128.2111350
  30.5707910 109.8506500 127.8702390  30.6854820 117.6879350 140.0305650
  30.6192130 116.7675020 139.7763240  30.0559960 117.7854790 140.7450290
  33.4794350 113.3827900 126.5828200  34.3673970 113.6945130 126.4079540
  33.4499440 112.5100150 126.1908780  24.5885440 118.2885310 131.9889070
  25.1064110 117.4853570 131.9345960  24.1369460 118.2264450 132.8305900
  29.4754940 119.5551590 127.2616370  29.8170640 120.2993820 126.7659690
  28.6467650 119.8682710 127.6241200  22.0729980 115.2546680 138.9014770
  21.7144920 115.9200530 139.4888110  21.7784540 114.4230230 139.2727390
  25.2743100 115.7130920 141.7854320  24.9743240 115.8588100 140.8882140
  26.0454340 115.1536210 141.6927710  30.6171550 120.5099920 139.7809450
  30.6316090 119.5780880 139.5628360  29.9096650 120.5959680 140.4199220
  35.7508620 114.6939740 126.0508060  35.6672340 115.1253960 125.2004500
  36.4702810 115.1538090 126.4834880  36.8282760 117.1507260 139.1278030
  36.1030950 117.7436040 138.9307420  37.3558220 117.1430800 138.3291400
  36.7795870 121.5482000 128.7790190  36.1372030 120.8937620 129.0533910
  36.3926530 121.9537090 128.0030860  32.3582350 118.8767430 132.6261880
  32.7106170 118.2795560 131.9663250  31.4744680 118.5511660 132.7970130
  28.4445630 119.6365120 130.0332290  29.1316760 120.1834330 130.4139880
  27.6578050 120.1805850 130.0681900  20.5838030 115.2537940 125.5249370
  21.4532880 115.5362740 125.8085290  20.0928350 116.0673810 125.4098180
  27.7472840 116.6411150 129.6457650  28.2035620 117.4516400 129.8717840
  27.3961050 116.3234290 130.4776140  30.0505450 122.1517490 136.8749950
  30.6947670 122.3576870 137.5523370  30.4134890 121.3905890 136.4220800
  23.6484620 106.9848800 130.1180170  23.5199250 106.9766700 131.0665090
  22.8246640 107.3231890 129.7671180  31.3237530 120.1549840 135.5927400
  31.9659760 119.4543000 135.7059570  31.8486880 120.9348280 135.4124290
  35.1693250 120.4398460 125.3166540  34.9430830 119.7228900 125.9091180
  34.7789450 120.1910900 124.4788290  33.0975150 120.9544740 138.7963460
  33.4331390 121.5411430 139.4741380  32.1775490 120.8237450 139.0261250
  20.9509280 124.4665320 126.0911000  21.3106920 125.0654660 125.4368270
  20.8101620 125.0125210 126.8646030  20.6478550 108.7439920 139.5786870
  19.9337070 108.9436840 140.1839480  21.0673590 107.9679490 139.9501670
  34.7509500 118.3570400 126.9780700  34.4631200 118.8183090 127.7658580
  35.5461670 117.8968170 127.2464920  20.9351140 122.7320180 140.5653400
  21.0442260 121.7914920 140.4248790  20.2831700 122.9974930 139.9167130
  28.9263730 121.0036070 141.9651520  28.6060600 120.2845310 142.5097210
  28.2522090 121.6791140 142.0387580  26.9677900 121.8496520 126.9084670
  26.9588000 122.5826210 126.2929180  26.0476260 121.6028100 127.0011630
  22.5684540 117.0711410 127.6531430  21.9612490 117.8110310 127.6626730
  23.0433890 117.1610770 126.8269630  32.1417330 111.2362230 137.3288320
  32.5098150 110.4157440 137.6567890  31.2815530 111.2964120 137.7443970
  35.5079360 110.1919170 128.1375880  34.8792520 110.2964840 127.4234110
  35.0131280 110.4115950 128.9269760  29.9537500 121.9124760 125.5709860
  30.0549480 121.7088750 124.6411840  29.0539240 121.6583040 125.7757640
  27.4763390 112.4705120 129.5533760  26.7679540 112.9391460 129.9947370
  27.7607870 111.8127130 130.1878950  29.1019320 113.8901820 137.5526290
  29.6004570 114.3647640 138.2178140  29.2442270 112.9665340 137.7596320
  31.5078820 109.1955780 130.9929550  31.3846600 109.2141910 130.0439060
  32.4563380 109.2434720 131.1127950  28.5955610 124.4311080 130.2657530
  28.8497110 124.3932470 129.3436900  27.6468090 124.3044410 130.2585780
  25.6798410 110.7790200 126.9284470  26.5288940 111.2160350 126.8624660
  25.3129680 111.0910460 127.7556530  36.3086180 110.1069780 138.3954680
  35.8059780 110.8475180 138.7348490  37.1242840 110.4953780 138.0791470
  34.6008190 115.3502960 131.8416040  33.6598330 115.3653190 132.0163730
  34.9152260 114.5638920 132.2876340  24.5789830 117.0322560 125.4020000
  25.3453100 116.9203920 125.9645430  24.6564520 116.3360530 124.7496770
  23.2736590 114.4647630 126.0852890  23.3540180 113.5175140 126.1970290
  24.1656340 114.7954510 126.1913550  36.6033770 122.5211810 133.5170300
  36.7281190 123.3442980 133.9894110  37.4699330 122.3102540 133.1694450
  24.0751300 124.6143020 133.1887430  24.8113780 124.0658480 133.4596000
  24.4592220 125.4799030 133.0493420  20.9596780 120.6816590 129.0628940
  20.0336560 120.9237730 129.0534350  21.4253210 121.5090850 128.9413690
  23.0809580 123.7989090 142.3773010  23.8822310 124.1201140 142.7908410
  22.5661400 123.4384670 143.0992920  27.1853610 123.7873330 125.0113000
  27.9782220 124.0762160 124.5594790  26.6657960 123.3565500 124.3325480
  31.9174210 119.9068960 142.3248420  31.3112370 119.9300560 141.5844170
  31.6128320 119.1752000 142.8615670  33.3474580 123.6349250 140.9357830
  34.2996330 123.5507270 140.8858070  33.2002800 124.2990960 141.6091620
  36.2383780 123.0143460 126.4349740  35.9525290 122.6008600 125.6203920
  36.0403330 123.9431170 126.3150260  20.8007390 116.2862550 141.3209060
  21.3046410 115.7069830 141.8925290  20.0614810 116.5702780 141.8585430
  27.7031010 119.0076740 124.8755350  27.5981650 118.3929090 125.6016730
  27.5355230 118.4842630 124.0918360  27.8545330 117.6933540 140.8544580
  27.0891000 118.2618540 140.7699250  28.0361290 117.4009750 139.9612810
  30.9433740 118.0696770 125.4797340  30.3943840 118.5166070 126.1240080
  31.5653000 117.5646020 126.0035010  34.9968680 119.4238870 141.4119600
  35.7378150 119.7614630 140.9087060  34.2341360 119.5930930 140.8589370
  22.8330470 114.4292140 142.2159130  22.8735810 114.1306010 143.1244360
  23.6875970 114.8299750 142.0566650  26.6108860 117.0287690 127.3762640
  27.0325280 116.8627560 128.2194030  26.7359700 116.2187920 126.8817780
  24.7736280 113.0084240 140.1833620  24.2432740 112.5175190 139.5556960
  25.4424350 113.4368440 139.6491550  29.1236500 116.0525300 124.6239740
  29.6442160 115.3374320 124.2580890  29.7704900 116.6911170 124.9240250
  33.6714340 117.4753700 139.9474810  34.0855360 117.6298780 140.7965230
  32.7365340 117.6008920 140.1100590  34.1436510 114.8149860 141.9513960
  34.7257280 114.0602180 141.8634440  34.3198280 115.3457300 141.1745440
  25.2608580 109.9746610 140.2630910  25.1665450 109.3567360 139.5381780
  24.6805970 110.7012900 140.0360820  28.0270020 108.5319850 137.2958300
  27.5787320 108.5544110 136.4503850  27.3935220 108.1338870 137.8928600
  28.4329570 117.4274180 137.9170740  28.8517680 118.2706910 137.7446980
  27.5138200 117.5646220 137.6877520  30.7693470 115.1590360 139.3008580
  30.8889680 114.5631500 140.0403420  31.6287470 115.1960050 138.8809880
  33.1081370 115.7127550 137.8771090  32.5816590 116.2370170 137.2736230
  33.4512710 116.3454940 138.5080820  25.5067760 113.1020920 124.3220800
  25.3056820 112.2388280 124.6834140  25.3359810 113.0154280 123.3842400
  26.2836990 123.7327190 139.0328470  25.7458080 124.4573250 138.7137170
  26.5370950 123.2557530 138.2425810  27.5362240 111.7011710 140.5584400
  28.1261930 111.3927560 141.2462220  26.7182480 111.2291460 140.7144300
  32.3555670 111.3177520 140.7917420  31.6671190 110.6559060 140.7267410
  33.0761690 110.8715790 141.2365880  32.9856070 107.9129150 126.8507680
  33.2658360 107.0697050 127.2067100  32.2121800 108.1452260 127.3646430
  24.3050560 110.2021540 124.3098680  24.6076460 110.2088970 123.4017830
  25.0445150 109.8519400 124.8066340  29.1399200 124.9678400 139.2915120
  29.0657900 125.8713540 139.5987490  28.2378040 124.6490300 139.2637190
  27.5235490 109.1456160 125.2954880  27.1757490 108.4680150 124.7157330
  27.7248260 108.6845670 126.1098270  29.6884530 124.1336910 126.9141480
  30.5835320 124.4721880 126.9360240  29.7202160 123.4116320 126.2865760
  23.3280690 119.5063960 125.1428480  23.7655560 120.0493630 125.7986060
  23.8128420 118.6810910 125.1524820  20.5426490 122.2952990 132.5948740
  20.8729500 121.4274050 132.3627380  20.9717490 122.5011510 133.4253700
  25.1388410 120.6262000 130.2550710  24.8383950 120.5026970 131.1554620
  25.0325900 119.7670590 129.8466440  21.0316700 123.1623580 135.3330370
  20.5947690 123.3424380 136.1654520  21.5994380 123.9198200 135.1912090
  36.6678880 122.6640580 139.6207680  36.0680870 122.7233140 138.8771600
  36.7972780 121.7245560 139.7504530  37.9080330 120.4058400 124.9577390
  37.0773290 120.4735050 125.4284620  38.0852160 121.2962520 124.6544250
  37.3636790 117.1505880 127.4611590  38.1255700 117.7202530 127.5671280
  37.3791160 116.5833080 128.2319900  20.8641130 115.6743810 131.6919250
  20.2089970 115.4055450 131.0478950  21.7019080 115.5648290 131.2421230
  38.3696760 118.0055980 132.3053520  38.7405590 117.2223300 131.8989490
  39.0098690 118.6945080 132.1270820  35.3530520 119.3892560 137.7183840
  34.5390360 119.8189720 137.9809630  35.7604720 120.0010970 137.1052890
  37.4155960 117.4440250 124.6184110  37.6904800 118.3519130 124.4903330
  37.2266700 117.3802780 125.5546100  33.8131570 110.4685100 125.9137740
  34.2316450 110.2816080 125.0734400  33.5067630 109.6164150 126.2240670
  37.3121300 115.3809240 129.6113540  36.9364900 114.6137170 129.1794830
  36.5824420 115.7631940 130.0988470  21.9017060 116.0596380 136.2322590
  22.2690100 115.9723780 137.1118610  21.3327880 115.2962930 136.1329450
  36.7020920 114.5280760 139.2453060  36.4707010 114.2993510 138.3451010
  36.9625470 115.4480310 139.1997950  21.4533060 112.9705470 140.1381010
  20.5589110 112.9372230 140.4774720  21.9930610 113.1692260 140.9032260
  35.1408990 109.7537190 142.0232760  36.0179170 109.7620590 142.4066760
  35.1529830 109.0168030 141.4125110  20.0779210 112.8842740 127.6344580
  19.1743290 113.1472940 127.4596240  20.5619830 113.1553910 126.8544540
  36.5872260 113.6066730 132.9120780  37.1109740 113.1129380 132.2810950
  37.1731680 113.7417090 133.6568350  36.7661980 113.6906600 136.4340330
  35.8164690 113.6570140 136.5485320  36.9474990 114.6006710 136.1990100
  22.6206420 111.9408280 125.5438960  23.3298120 111.5191500 125.0586240
  21.9046360 112.0083510 124.9122310  22.2680580 107.9947610 124.5841610
  22.9908710 108.5356550 124.9022830  22.5405100 107.7211030 123.7083150
  36.0772230 112.8640080 128.8513190  36.5731350 112.6310950 129.6362070
  35.8788300 112.0251920 128.4350830  21.9572770 107.2453800 134.4864230
  22.6048960 106.6951180 134.0459390  22.3774610 107.4996950 135.3080040
  37.5059390 111.5001030 131.3850870  37.3958670 111.3457070 132.3233140
  38.2666980 110.9721970 131.1426280  35.8525110 107.4395160 137.8433870
  36.4897330 108.0529300 138.2093060  36.0000000 107.4755820 136.8983100
  38.3949660 109.3308950 124.6257010  39.3198970 109.1990130 124.4175300
  38.3725450 109.4101770 125.5793460  38.4688150 110.1019610 127.2513720
  37.6739650 110.0364730 127.7806630  38.6731430 111.0370250 127.2399070
  35.4106570 124.1411160 131.2452110  36.0065640 123.8195730 130.5686530
  35.6684720 123.6682980 132.0365380  21.7104770 107.4009470 137.2289550
  21.3619590 107.8573290 137.9947730  21.3792470 106.5066600 137.3111980
  23.3169140 120.5729070 141.3942740  23.2738770 120.2021980 142.2757200
  23.4480150 121.5106640 141.5344560  27.0175170 122.1288660 136.9952460
  26.7766530 122.3963220 136.1082980  27.9577810 122.2994390 137.0503320
  29.2229590 108.5921350 140.7508970  29.1618480 109.1843180 141.5004380
  30.1629970 108.4847310 140.6059230  31.8604150 108.2491410 140.3901260
  32.4744560 108.5670700 139.7282340  32.4053710 107.7640000 141.0097120
  38.2779330 124.1483040 137.7963100  37.7837610 124.5451910 137.0790230
  37.6692620 123.5232250 138.1900380  22.3825410 106.9285670 140.5040320
  22.9308400 106.7473720 139.7406430  22.4480720 106.1379780 141.0396630
  23.1557170 123.5191320 138.5140520  22.5617490 123.3876020 139.2530560
  23.1481010 122.6829460 138.0482620  32.6012190 106.8123550 136.7170550
  31.7272030 107.1458660 136.5143480  32.4922940 106.3396730 137.5422420
  33.5084170 109.0194420 138.1012270  33.1797530 108.2046180 137.7214000
  34.4566470 108.9764230 137.9777960  35.9618780 124.7906460 135.0749840
  35.5021750 125.5422270 134.7007860  35.3331240 124.0712930 135.0164640
  22.7869400 120.8849700 137.4648560  22.0603460 120.2654990 137.3974510
  22.8478550 121.2790310 136.5946640  26.3914500 123.0994700 134.2497970
  26.9079520 122.4882060 133.7246230  27.0411880 123.6023480 134.7408980
  29.1310000 123.9903190 135.0766950  29.4187810 123.7357490 134.1999960
  29.6433220 123.4380550 135.6672520  30.3487010 107.7293390 135.6563460
  29.5658800 108.2038890 135.9360220  30.0549940 106.8248220 135.5476640
  34.9008080 108.4316490 133.7012550  35.3416170 108.3761590 132.8534150
  34.6315670 109.3474500 133.7722730  36.7646650 108.0631730 131.7121370
  36.7035050 107.1192950 131.5652390  37.5438680 108.1711820 132.2574830
  21.0699400 124.2024090 130.6745320  20.9021440 123.5694770 131.3727210
  20.2033910 124.4083490 130.3239510  21.6927420 108.0340870 128.1777180
  22.4506780 108.1469750 127.6041210  21.2304590 108.8710070 128.1320610
  28.2341230 110.1480140 131.1679490  27.4215740 109.7737030 130.8275370
  28.7382870 109.3925220 131.4700680  32.7366210 106.8122590 132.4062560
  33.3395580 107.3842800 132.8811080  31.9959200 107.3762030 132.1836460
  35.8800810 107.2144150 127.6802840  36.0751440 108.1127600 127.9470270
  35.0930680 106.9831230 128.1735790  22.6762100 122.8957320 128.1195460
  22.1509720 123.2765350 127.4157420  22.6006680 123.5208090 128.8405170
  24.0652570 108.5604920 126.7179150  24.5945330 107.7734720 126.5887100
  24.6980890 109.2396110 126.9514680  26.2590410 108.2980060 129.7724540
  25.6293150 107.5967370 129.9394670  25.7195550 109.0584190 129.5557700
  29.1982360 124.9119290 142.4435150  30.1249670 124.6763560 142.4871110
  29.1832790 125.7391290 141.9621180  37.4327420 124.4544860 129.4409400
  37.6079610 123.7682600 128.7970320  36.7348990 124.9791910 129.0486070
  26.3845970 107.5764040 142.2077030  26.1030240 108.0797640 141.4437850
  26.7665670 106.7785790 141.8419160  25.2755070 124.8439700 126.9944710
  26.0073890 124.5598980 126.4468600  25.5348740 124.6052980 127.8844090
  24.4369860 120.9604430 126.9991040  23.8078740 121.4289530 127.5476870
  24.5517690 120.1153650 127.4337230  32.9861430 106.9917620 142.7857500
  32.8726880 107.3112230 143.6809020  33.8031170 107.3930130 142.4894780
  35.7659920 124.1389150 142.2676190  36.5585240 123.6438380 142.0602150
  36.0593070 124.8179290 142.8751800  31.8919580 115.0110090 113.1492240
  31.8113630 114.0964700 112.8783950  31.4784000 115.5077160 112.4431950
  30.0237620 116.7889110 115.0301510  29.2479720 116.3089550 115.3200080
  30.6750550 116.1094760 114.8557670  24.0403450 117.1008920 115.9077270
  23.2088330 116.8457630 116.3073780  24.6484430 117.1719690 116.6435190
  34.0445050 121.1949300 113.8100640  33.5826580 120.4236540 114.1387810
  34.8570600 121.2215370 114.3153090  24.0204710 121.1349010 116.1035290
  24.3232750 120.2446750 115.9245510  24.7648300 121.6919230 115.8757540
  22.4495400 112.0610810 109.6919660  21.5612100 112.4026780 109.5899540
  22.7336590 111.8611130 108.8000490  20.4128410 114.6616460 115.5759360
  20.9844520 113.8938660 115.5763000  20.4129950 114.9605220 114.6665970
  30.2708360 123.4807310 113.4304630  29.6519800 123.9364810 112.8599070
  31.1260140 123.6358770 113.0294330  29.4646610 119.4646300 115.0371670
  29.3954890 118.5236240 114.8760800  30.2266470 119.5547710 115.6094240
  21.6553280 110.0700820 117.3628290  21.4756120 109.1726570 117.6431050
  21.2533360 110.6172690 118.0375240  30.4951780 112.2716680 115.2640600
  30.8716600 111.3988560 115.1514270  30.3971290 112.6075380 114.3731040
  24.6256790 110.6442310 110.7258040  24.7323540 111.5446040 111.0326800
  23.7149150 110.5960280 110.4352690  22.2739950 112.5661320 115.9710630
  22.9550060 112.8299690 116.5898030  21.9588000 111.7262190 116.3048640
  26.4664520 113.6128680 115.0583220  26.9742740 114.1109650 115.6988240
  26.9977760 112.8363880 114.8822580  38.5675450 111.7833870 118.7612570
  37.8627620 112.1715580 118.2427680  38.8333370 112.4784160 119.3633500
  24.7500620 108.2527240 119.3246640  24.7519060 108.7699630 118.5192540
  23.9204930 107.7757420 119.3016570  31.1371710 118.3646550 110.8236540
  30.5188980 118.8296000 110.2599260  31.6494960 119.0574030 111.2406050
  26.0003470 117.8922420 117.5020140  25.6672850 118.5191340 118.1441210
  26.1770150 118.4184300 116.7221810  34.5137380 111.7067500 114.9696480
  33.8092950 111.9952390 115.5499590  34.8749540 112.5167610 114.6096040
  24.4315950 109.9637200 117.3317090  24.7732760 110.8079250 117.0370960
  23.4931760 110.1120940 117.4482430  25.2122570 119.8603220 119.3169320
  25.8296570 120.5354300 119.0353770  24.3515690 120.2691200 119.2256820
  20.5054910 119.0503080 108.1976170  20.1282890 119.5390180 107.4661070
  20.7627980 119.7228360 108.8282700  36.1300160 121.3242630 117.2323960
  35.4463680 121.9941740 117.2240630  36.6694450 121.5223280 116.4668820
  37.5824300 111.1522290 115.3605690  36.6349210 111.1861270 115.4921120
  37.9074290 111.9661240 115.7455050  28.1143840 107.4519470 113.6561680
  28.4218820 106.8966360 112.9397180  27.1844540 107.5863930 113.4734670
  33.6658900 123.1686760 115.9469140  33.6786060 122.7649050 115.0791400
  33.1134120 123.9434050 115.8430570  34.9604320 119.8902980 111.0359310
  34.8500650 118.9477310 111.1608730  34.9572570 120.2518620 111.9222070
  33.0644340 118.0716600 117.2751750  33.4813130 117.8576710 116.4405210
  33.7884160 118.3289390 117.8460370  30.5024600 115.5168300 110.3921800
  29.5753880 115.4505680 110.6210270  30.6549420 116.4548430 110.2777040
  37.0106440 116.4703820 117.3667990  36.1825070 116.5396910 116.8918120
  37.6056920 117.0558130 116.8983820  34.5321890 117.0788600 110.8957050
  33.9134310 116.7408150 110.2483350  34.5146340 116.4348360 111.6036240
  33.9748450 113.2573140 118.3122860  33.5619630 114.0826850 118.5662850
  33.2424400 112.6718180 118.1199220  26.1081240 116.0433040 113.1741530
  25.7038240 115.3310290 112.6787430  26.1944360 115.6986280 114.0629570
  26.5762940 119.7300600 115.3380740  26.2791230 119.1246070 114.6588520
  27.5262760 119.7677910 115.2270100  24.8209860 112.8176250 116.9540570
  25.3724450 112.9271590 116.1793820  25.3353370 113.1913850 117.6695800
  34.6648550 123.3032470 119.0003840  34.1879110 124.1104660 118.8076450
  33.9810340 122.6510800 119.1530050  25.6681370 119.4682290 121.9888540
  24.7709900 119.6922260 122.2361940  25.6934240 119.5917230 121.0399940
  24.4952590 116.3395610 120.5645910  24.3560360 117.2118410 120.9333310
  23.6133950 115.9968420 120.4193850  30.8181970 121.2571480 111.8711040
  31.2577880 121.9995810 111.4566430  30.7568860 121.4998050 112.7950000
  26.2932940 122.2817310 122.7731060  26.2648370 122.6860260 121.9059490
  26.1297910 121.3527670 122.6102660  36.2903730 107.5718220 106.2170840
  35.9776390 107.6645050 107.1169910  37.0516200 108.1499250 106.1668270
  22.8085870 114.9378020 110.6748180  22.6883470 115.6640110 110.0629450
  22.4986760 114.1680930 110.1976090  38.2447760 123.0644410 124.0695230
  38.7207480 123.5427300 124.7484310  38.8654920 122.9961900 123.3440730
  20.4471240 118.1093160 116.4816820  20.5251660 118.2441930 115.5372540
  21.0612920 117.4009050 116.6744940  21.6918870 119.8093350 112.8923000
  21.2846950 119.9507940 112.0376600  22.5831880 119.5253510 112.6894210
  37.6481010 120.2557260 121.2295240  37.7744070 120.0169140 120.3112420
  37.6902390 119.4241800 121.7017320  31.5097750 123.9585260 119.7990050
  32.0242420 123.8693270 120.6012480  30.6666830 124.3044960 120.0917960
  33.4852150 124.2440600 109.2274050  33.3253290 123.9543540 110.1255880
  33.3198860 123.4680730 108.6919280  25.9640530 124.0239130 111.0045670
  25.7883010 123.1074670 110.7913470  25.1096270 124.3826420 111.2443470
  33.1878280 121.7528160 107.7872050  32.4943440 121.7505450 107.1274330
  33.9301140 121.3287480 107.3566220  32.7528210 123.3790870 111.8620540
  33.2085160 122.5980250 112.1759160  33.0920730 124.0897690 112.4061720
  37.5005020 112.3089720 122.1944980  36.8849290 112.8169390 121.6660440
  37.1801440 111.4088050 122.1370920  20.5030760 119.1507330 119.0211280
  20.6661800 118.6812690 118.2030650  20.9683210 118.6430890 119.6860120
  25.2749530 108.2813090 114.0571850  24.8317680 109.0622630 113.7256370
  25.8334520 108.6042980 114.7642790  29.5619340 111.1481610 119.6607170
  29.0998710 111.3564630 120.4727110  29.1597450 110.3340960 119.3577840
  34.5623850 112.3690560 120.7903830  33.7117440 112.0696310 121.1112900
  34.4025640 112.6132570 119.8787650  31.6573560 113.8692310 122.8902620
  31.9826970 113.0356060 122.5504850  32.4453890 114.3920830 123.0380950
  27.3125430 108.8260420 115.9161450  27.6097760 109.7323250 115.8353470
  27.8610990 108.3379200 115.3021020  25.0663750 113.4046660 111.7853100
  24.8404670 113.1883830 112.6899720  24.2856280 113.8375120 111.4399070
  32.2961510 113.4110030 110.3843750  31.6970400 114.1345830 110.2007370
  32.8441120 113.3486810 109.6020200  27.5062960 114.3032240 122.4513370
  27.4106560 113.3626970 122.3013770  28.3494940 114.5247310 122.0561440
  30.9026380 112.0473570 112.4147030  31.2955950 112.3645770 111.6015720
  31.2643230 111.1685450 112.5291550  22.6373500 110.7145910 120.6047150
  22.2436890 111.5621120 120.8119930  21.9491900 110.0772280 120.7955790
  29.2118550 110.7980880 123.6743890  28.5216870 110.6053080 124.3089980
  29.9550850 111.0815520 124.2068190  19.9390550 108.6374370 114.6377230
  19.6503600 109.2077230 115.3502210  20.6836310 108.1578820 115.0008460
  20.1260780 112.5794490 105.8479950  20.0435450 113.5225250 105.9894940
  19.7743840 112.4369400 104.9692300  31.4881520 114.6379320 116.5097810
  30.7562640 115.1466130 116.8587910  31.0905860 113.8209300 116.2086590
  27.9258910 111.3133520 114.9150300  27.9294970 110.8723470 114.0654840
  28.8210030 111.6350850 115.0222120  23.7761290 111.1960010 113.8744510
  23.4361340 111.6735240 114.6311560  23.0138610 110.7425130 113.5145610
  31.9507430 110.0913000 115.9220750  31.9680170 110.5421650 116.7662600
  31.7023010 109.1918640 116.1354190  27.0000560 114.6246740 107.3040360
  26.4317460 114.1764990 106.6776270  27.7089560 114.9839520 106.7705510
  35.3778180 107.5045180 121.7607130  35.7023950 106.7734840 122.2865110
  35.4134690 107.1858820 120.8588120  22.0769740 118.5258760 121.1807090
  21.6924530 117.8852430 121.7790050  22.3881930 119.2294880 121.7501820
  28.2266880 115.3735300 116.6615710  28.5937010 114.8993870 117.4077050
  28.0371940 116.2476870 117.0024050  21.0907370 110.1178990 112.7909180
  20.8054290 109.7534660 113.6287800  21.0286230 109.3859450 112.1772320
  26.0166250 114.4143940 118.9799920  25.7123320 115.2935920 119.2050280
  26.9712710 114.4743730 119.0157360  24.5448040 118.6204930 109.5766770
  23.7710300 118.0802550 109.4165490  25.2742670 118.1011540 109.2384530
  35.3036020 117.6170290 115.3693160  36.0235140 118.1125580 114.9789270
  35.1017840 116.9388180 114.7247030  30.6854820 117.6879350 121.2562160
  30.6192130 116.7675020 121.0019750  30.0559960 117.7854790 121.9706800
  24.5885440 118.2885310 113.2145580  25.1064110 117.4853570 113.1602470
  24.1369460 118.2264450 114.0562410  29.4754940 119.5551590 108.4872880
  29.8170640 120.2993820 107.9916200  28.6467650 119.8682710 108.8497710
  22.0729980 115.2546680 120.1271280  21.7144920 115.9200530 120.7144620
  21.7784540 114.4230230 120.4983900  25.2743100 115.7130920 123.0110830
  24.9743240 115.8588100 122.1138650  26.0454340 115.1536210 122.9184220
  30.6171550 120.5099920 121.0065960  30.6316090 119.5780880 120.7884870
  29.9096650 120.5959680 121.6455730  36.8282760 117.1507260 120.3534540
  36.1030950 117.7436040 120.1563930  37.3558220 117.1430800 119.5547910
  36.7795870 121.5482000 110.0046700  36.1372030 120.8937620 110.2790420
  36.3926530 121.9537090 109.2287370  32.3582350 118.8767430 113.8518390
  32.7106170 118.2795560 113.1919760  31.4744680 118.5511660 114.0226640
  28.4445630 119.6365120 111.2588800  29.1316760 120.1834330 111.6396390
  27.6578050 120.1805850 111.2938410  20.5838030 115.2537940 106.7505880
  21.4532880 115.5362740 107.0341800  20.0928350 116.0673810 106.6354690
  27.7472840 116.6411150 110.8714160  28.2035620 117.4516400 111.0974350
  27.3961050 116.3234290 111.7032650  30.0505450 122.1517490 118.1006460
  30.6947670 122.3576870 118.7779880  30.4134890 121.3905890 117.6477310
  23.6484620 106.9848800 111.3436680  23.5199250 106.9766700 112.2921600
  22.8246640 107.3231890 110.9927690  31.3237530 120.1549840 116.8183910
  31.9659760 119.4543000 116.9316080  31.8486880 120.9348280 116.6380800
  35.1693250 120.4398460 106.5423050  34.9430830 119.7228900 107.1347690
  34.7789450 120.1910900 105.7044800  33.0975150 120.9544740 120.0219970
  33.4331390 121.5411430 120.6997890  32.1775490 120.8237450 120.2517760
  20.9509280 124.4665320 107.3167510  21.3106920 125.0654660 106.6624780
  20.8101620 125.0125210 108.0902540  20.6478550 108.7439920 120.8043380
  19.9337070 108.9436840 121.4095990  21.0673590 107.9679490 121.1758180
  34.7509500 118.3570400 108.2037210  34.4631200 118.8183090 108.9915090
  35.5461670 117.8968170 108.4721430  20.9351140 122.7320180 121.7909910
  21.0442260 121.7914920 121.6505300  20.2831700 122.9974930 121.1423640
  28.9263730 121.0036070 123.1908030  28.6060600 120.2845310 123.7353720
  28.2522090 121.6791140 123.2644090  26.9677900 121.8496520 108.1341180
  26.9588000 122.5826210 107.5185690  26.0476260 121.6028100 108.2268140
  22.5684540 117.0711410 108.8787940  21.9612490 117.8110310 108.8883240
  23.0433890 117.1610770 108.0526140  32.1417330 111.2362230 118.5544830
  32.5098150 110.4157440 118.8824400  31.2815530 111.2964120 118.9700480
  29.9537500 121.9124760 106.7966370  30.0549480 121.7088750 105.8668350
  29.0539240 121.6583040 107.0014150  27.4763390 112.4705120 110.7790270
  26.7679540 112.9391460 111.2203880  27.7607870 111.8127130 111.4135460
  29.1019320 113.8901820 118.7782800  29.6004570 114.3647640 119.4434650
  29.2442270 112.9665340 118.9852830  31.5078820 109.1955780 112.2186060
  31.3846600 109.2141910 111.2695570  32.4563380 109.2434720 112.3384460
  28.5955610 124.4311080 111.4914040  28.8497110 124.3932470 110.5693410
  27.6468090 124.3044410 111.4842290  36.3086180 110.1069780 119.6211190
  35.8059780 110.8475180 119.9605000  37.1242840 110.4953780 119.3047980
  34.6008190 115.3502960 113.0672550  33.6598330 115.3653190 113.2420240
  34.9152260 114.5638920 113.5132850  24.5789830 117.0322560 106.6276510
  25.3453100 116.9203920 107.1901940  24.6564520 116.3360530 105.9753280
  23.2736590 114.4647630 107.3109400  23.3540180 113.5175140 107.4226800
  24.1656340 114.7954510 107.4170060  36.6033770 122.5211810 114.7426810
  36.7281190 123.3442980 115.2150620  37.4699330 122.3102540 114.3950960
  24.0751300 124.6143020 114.4143940  24.8113780 124.0658480 114.6852510
  24.4592220 125.4799030 114.2749930  20.9596780 120.6816590 110.2885450
  20.0336560 120.9237730 110.2790860  21.4253210 121.5090850 110.1670200
  23.0809580 123.7989090 123.6029520  23.8822310 124.1201140 124.0164920
  22.5661400 123.4384670 124.3249430  27.1853610 123.7873330 106.2369510
  27.9782220 124.0762160 105.7851300  26.6657960 123.3565500 105.5581990
  31.9174210 119.9068960 123.5504930  31.3112370 119.9300560 122.8100680
  31.6128320 119.1752000 124.0872180  33.3474580 123.6349250 122.1614340
  34.2996330 123.5507270 122.1114580  33.2002800 124.2990960 122.8348130
  36.2383780 123.0143460 107.6606250  35.9525290 122.6008600 106.8460430
  36.0403330 123.9431170 107.5406770  20.8007390 116.2862550 122.5465570
  21.3046410 115.7069830 123.1181800  20.0614810 116.5702780 123.0841940
  27.7031010 119.0076740 106.1011860  27.5981650 118.3929090 106.8273240
  27.5355230 118.4842630 105.3174870  27.8545330 117.6933540 122.0801090
  27.0891000 118.2618540 121.9955760  28.0361290 117.4009750 121.1869320
  30.9433740 118.0696770 106.7053850  30.3943840 118.5166070 107.3496590
  31.5653000 117.5646020 107.2291520  34.9968680 119.4238870 122.6376110
  35.7378150 119.7614630 122.1343570  34.2341360 119.5930930 122.0845880
  22.8330470 114.4292140 123.4415640  22.8735810 114.1306010 124.3500870
  23.6875970 114.8299750 123.2823160  26.6108860 117.0287690 108.6019150
  27.0325280 116.8627560 109.4450540  26.7359700 116.2187920 108.1074290
  24.7736280 113.0084240 121.4090130  24.2432740 112.5175190 120.7813470
  25.4424350 113.4368440 120.8748060  29.1236500 116.0525300 105.8496250
  29.6442160 115.3374320 105.4837400  29.7704900 116.6911170 106.1496760
  33.6714340 117.4753700 121.1731320  34.0855360 117.6298780 122.0221740
  32.7365340 117.6008920 121.3357100  34.1436510 114.8149860 123.1770470
  34.7257280 114.0602180 123.0890950  34.3198280 115.3457300 122.4001950
  25.2608580 109.9746610 121.4887420  25.1665450 109.3567360 120.7638290
  24.6805970 110.7012900 121.2617330  28.0270020 108.5319850 118.5214810
  27.5787320 108.5544110 117.6760360  27.3935220 108.1338870 119.1185110
  28.4329570 117.4274180 119.1427250  28.8517680 118.2706910 118.9703490
  27.5138200 117.5646220 118.9134030  30.7693470 115.1590360 120.5265090
  30.8889680 114.5631500 121.2659930  31.6287470 115.1960050 120.1066390
  33.1081370 115.7127550 119.1027600  32.5816590 116.2370170 118.4992740
  33.4512710 116.3454940 119.7337330  25.5067760 113.1020920 105.5477310
  25.3056820 112.2388280 105.9090650  25.3359810 113.0154280 104.6098910
  26.2836990 123.7327190 120.2584980  25.7458080 124.4573250 119.9393680
  26.5370950 123.2557530 119.4682320  27.5362240 111.7011710 121.7840910
  28.1261930 111.3927560 122.4718730  26.7182480 111.2291460 121.9400810
  32.3555670 111.3177520 122.0173930  31.6671190 110.6559060 121.9523920
  33.0761690 110.8715790 122.4622390  32.9856070 107.9129150 108.0764190
  33.2658360 107.0697050 108.4323610  32.2121800 108.1452260 108.5902940
  29.1399200 124.9678400 120.5171630  29.0657900 125.8713540 120.8244000
  28.2378040 124.6490300 120.4893700  29.6884530 124.1336910 108.1397990
  30.5835320 124.4721880 108.1616750  29.7202160 123.4116320 107.5122270
  23.3280690 119.5063960 106.3684990  23.7655560 120.0493630 107.0242570
  23.8128420 118.6810910 106.3781330  20.5426490 122.2952990 113.8205250
  20.8729500 121.4274050 113.5883890  20.9717490 122.5011510 114.6510210
  25.1388410 120.6262000 111.4807220  24.8383950 120.5026970 112.3811130
  25.0325900 119.7670590 111.0722950  21.0316700 123.1623580 116.5586880
  20.5947690 123.3424380 117.3911030  21.5994380 123.9198200 116.4168600
  36.6678880 122.6640580 120.8464190  36.0680870 122.7233140 120.1028110
  36.7972780 121.7245560 120.9761040  37.9080330 120.4058400 106.1833900
  37.0773290 120.4735050 106.6541130  38.0852160 121.2962520 105.8800760
  37.3636790 117.1505880 108.6868100  38.1255700 117.7202530 108.7927790
  37.3791160 116.5833080 109.4576410  20.8641130 115.6743810 112.9175760
  20.2089970 115.4055450 112.2735460  21.7019080 115.5648290 112.4677740
  38.3696760 118.0055980 113.5310030  38.7405590 117.2223300 113.1246000
  39.0098690 118.6945080 113.3527330  35.3530520 119.3892560 118.9440350
  34.5390360 119.8189720 119.2066140  35.7604720 120.0010970 118.3309400
  33.8131570 110.4685100 107.1394250  34.2316450 110.2816080 106.2990910
  33.5067630 109.6164150 107.4497180  37.3121300 115.3809240 110.8370050
  36.9364900 114.6137170 110.4051340  36.5824420 115.7631940 111.3244980
  21.9017060 116.0596380 117.4579100  22.2690100 115.9723780 118.3375120
  21.3327880 115.2962930 117.3585960  36.7020920 114.5280760 120.4709570
  36.4707010 114.2993510 119.5707520  36.9625470 115.4480310 120.4254460
  21.4533060 112.9705470 121.3637520  20.5589110 112.9372230 121.7031230
  21.9930610 113.1692260 122.1288770  35.1408990 109.7537190 123.2489270
  36.0179170 109.7620590 123.6323270  35.1529830 109.0168030 122.6381620
  20.0779210 112.8842740 108.8601090  19.1743290 113.1472940 108.6852750
  20.5619830 113.1553910 108.0801050  36.5872260 113.6066730 114.1377290
  37.1109740 113.1129380 113.5067460  37.1731680 113.7417090 114.8824860
  36.7661980 113.6906600 117.6596840  35.8164690 113.6570140 117.7741830
  36.9474990 114.6006710 117.4246610  22.6206420 111.9408280 106.7695470
  23.3298120 111.5191500 106.2842750  21.9046360 112.0083510 106.1378820
  22.2680580 107.9947610 105.8098120  22.9908710 108.5356550 106.1279340
  22.5405100 107.7211030 104.9339660  21.9572770 107.2453800 115.7120740
  22.6048960 106.6951180 115.2715900  22.3774610 107.4996950 116.5336550
  38.3949660 109.3308950 105.8513520  39.3198970 109.1990130 105.6431810
  38.3725450 109.4101770 106.8049970  38.4688150 110.1019610 108.4770230
  37.6739650 110.0364730 109.0063140  38.6731430 111.0370250 108.4655580
  35.4106570 124.1411160 112.4708620  36.0065640 123.8195730 111.7943040
  35.6684720 123.6682980 113.2621890  21.7104770 107.4009470 118.4546060
  21.3619590 107.8573290 119.2204240  21.3792470 106.5066600 118.5368490
  23.3169140 120.5729070 122.6199250  23.2738770 120.2021980 123.5013710
  23.4480150 121.5106640 122.7601070  27.0175170 122.1288660 118.2208970
  26.7766530 122.3963220 117.3339490  27.9577810 122.2994390 118.2759830
  29.2229590 108.5921350 121.9765480  29.1618480 109.1843180 122.7260890
  30.1629970 108.4847310 121.8315740  31.8604150 108.2491410 121.6157770
  32.4744560 108.5670700 120.9538850  32.4053710 107.7640000 122.2353630
  38.2779330 124.1483040 119.0219610  37.7837610 124.5451910 118.3046740
  37.6692620 123.5232250 119.4156890  22.3825410 106.9285670 121.7296830
  22.9308400 106.7473720 120.9662940  22.4480720 106.1379780 122.2653140
  23.1557170 123.5191320 119.7397030  22.5617490 123.3876020 120.4787070
  23.1481010 122.6829460 119.2739130  32.6012190 106.8123550 117.9427060
  31.7272030 107.1458660 117.7399990  32.4922940 106.3396730 118.7678930
  33.5084170 109.0194420 119.3268780  33.1797530 108.2046180 118.9470510
  34.4566470 108.9764230 119.2034470  35.9618780 124.7906460 116.3006350
  35.5021750 125.5422270 115.9264370  35.3331240 124.0712930 116.2421150
  22.7869400 120.8849700 118.6905070  22.0603460 120.2654990 118.6231020
  22.8478550 121.2790310 117.8203150  26.3914500 123.0994700 115.4754480
  26.9079520 122.4882060 114.9502740  27.0411880 123.6023480 115.9665490
  29.1310000 123.9903190 116.3023460  29.4187810 123.7357490 115.4256470
  29.6433220 123.4380550 116.8929030  30.3487010 107.7293390 116.8819970
  29.5658800 108.2038890 117.1616730  30.0549940 106.8248220 116.7733150
  36.7646650 108.0631730 112.9377880  36.7035050 107.1192950 112.7908900
  37.5438680 108.1711820 113.4831340  21.0699400 124.2024090 111.9001830
  20.9021440 123.5694770 112.5983720  20.2033910 124.4083490 111.5496020
  21.6927420 108.0340870 109.4033690  22.4506780 108.1469750 108.8297720
  21.2304590 108.8710070 109.3577120  28.2341230 110.1480140 112.3936000
  27.4215740 109.7737030 112.0531880  28.7382870 109.3925220 112.6957190
  32.7366210 106.8122590 113.6319070  33.3395580 107.3842800 114.1067590
  31.9959200 107.3762030 113.4092970  35.8800810 107.2144150 108.9059350
  36.0751440 108.1127600 109.1726780  35.0930680 106.9831230 109.3992300
  22.6762100 122.8957320 109.3451970  22.1509720 123.2765350 108.6413930
  22.6006680 123.5208090 110.0661680  26.2590410 108.2980060 110.9981050
  25.6293150 107.5967370 111.1651180  25.7195550 109.0584190 110.7814210
  29.1982360 124.9119290 123.6691660  30.1249670 124.6763560 123.7127620
  29.1832790 125.7391290 123.1877690  37.4327420 124.4544860 110.6665910
  37.6079610 123.7682600 110.0226830  36.7348990 124.9791910 110.2742580
  26.3845970 107.5764040 123.4333540  26.1030240 108.0797640 122.6694360
  26.7665670 106.7785790 123.0675670  25.2755070 124.8439700 108.2201220
  26.0073890 124.5598980 107.6725110  25.5348740 124.6052980 109.1100600
  24.4369860 120.9604430 108.2247550  23.8078740 121.4289530 108.7733380
  24.5517690 120.1153650 108.6593740  32.9861430 106.9917620 124.0114010
  32.8726880 107.3112230 124.9065530  33.8031170 107.3930130 123.7151290
  35.7659920 124.1389150 123.4932700  36.5585240 123.6438380 123.2858660
  36.0593070 124.8179290 124.1008310  31.8919580 115.0110090  94.3748750
  31.8113630 114.0964700  94.1040460  31.4784000 115.5077160  93.6688460
  30.0237620 116.7889110  96.2558020  29.2479720 116.3089550  96.5456590
  30.6750550 116.1094760  96.0814180  24.0403450 117.1008920  97.1333780
  23.2088330 116.8457630  97.5330290  24.6484430 117.1719690  97.8691700
  34.0445050 121.1949300  95.0357150  33.5826580 120.4236540  95.3644320
  34.8570600 121.2215370  95.5409600  24.0204710 121.1349010  97.3291800
  24.3232750 120.2446750  97.1502020  24.7648300 121.6919230  97.1014050
  22.4495400 112.0610810  90.9176170  21.5612100 112.4026780  90.8156050
  22.7336590 111.8611130  90.0257000  20.4128410 114.6616460  96.8015870
  20.9844520 113.8938660  96.8019510  20.4129950 114.9605220  95.8922480
  30.2708360 123.4807310  94.6561140  29.6519800 123.9364810  94.0855580
  31.1260140 123.6358770  94.2550840  29.4646610 119.4646300  96.2628180
  29.3954890 118.5236240  96.1017310  30.2266470 119.5547710  96.8350750
  21.6553280 110.0700820  98.5884800  21.4756120 109.1726570  98.8687560
  21.2533360 110.6172690  99.2631750  30.4951780 112.2716680  96.4897110
  30.8716600 111.3988560  96.3770780  30.3971290 112.6075380  95.5987550
  24.6256790 110.6442310  91.9514550  24.7323540 111.5446040  92.2583310
  23.7149150 110.5960280  91.6609200  34.2775900 109.7667120  93.4225450
  35.0985520 109.2763690  93.4650930  34.3109980 110.3564780  94.1757290
  22.2739950 112.5661320  97.1967140  22.9550060 112.8299690  97.8154540
  21.9588000 111.7262190  97.5305150  26.4664520 113.6128680  96.2839730
  26.9742740 114.1109650  96.9244750  26.9977760 112.8363880  96.1079090
  24.7500620 108.2527240 100.5503150  24.7519060 108.7699630  99.7449050
  23.9204930 107.7757420 100.5273080  31.1371710 118.3646550  92.0493050
  30.5188980 118.8296000  91.4855770  31.6494960 119.0574030  92.4662560
  26.0003470 117.8922420  98.7276650  25.6672850 118.5191340  99.3697720
  26.1770150 118.4184300  97.9478320  24.4315950 109.9637200  98.5573600
  24.7732760 110.8079250  98.2627470  23.4931760 110.1120940  98.6738940
  25.2122570 119.8603220 100.5425830  25.8296570 120.5354300 100.2610280
  24.3515690 120.2691200 100.4513330  20.5054910 119.0503080  89.4232680
  20.1282890 119.5390180  88.6917580  20.7627980 119.7228360  90.0539210
  28.1143840 107.4519470  94.8818190  28.4218820 106.8966360  94.1653690
  27.1844540 107.5863930  94.6991180  33.6658900 123.1686760  97.1725650
  33.6786060 122.7649050  96.3047910  33.1134120 123.9434050  97.0687080
  33.0644340 118.0716600  98.5008260  33.4813130 117.8576710  97.6661720
  33.7884160 118.3289390  99.0716880  30.5024600 115.5168300  91.6178310
  29.5753880 115.4505680  91.8466780  30.6549420 116.4548430  91.5033550
  30.4893680 111.7885300  88.6145470  29.5497350 111.9499260  88.6997930
  30.8076940 112.5070980  88.0681460  37.0106440 116.4703820  98.5924500
  36.1825070 116.5396910  98.1174630  37.6056920 117.0558130  98.1240330
  26.1081240 116.0433040  94.3998040  25.7038240 115.3310290  93.9043940
  26.1944360 115.6986280  95.2886080  26.5762940 119.7300600  96.5637250
  26.2791230 119.1246070  95.8845030  27.5262760 119.7677910  96.4526610
  24.8209860 112.8176250  98.1797080  25.3724450 112.9271590  97.4050330
  25.3353370 113.1913850  98.8952310  34.6648550 123.3032470 100.2260350
  34.1879110 124.1104660 100.0332960  33.9810340 122.6510800 100.3786560
  25.6681370 119.4682290 103.2145050  24.7709900 119.6922260 103.4618450
  25.6934240 119.5917230 102.2656450  24.4952590 116.3395610 101.7902420
  24.3560360 117.2118410 102.1589820  23.6133950 115.9968420 101.6450360
  30.8181970 121.2571480  93.0967550  31.2577880 121.9995810  92.6822940
  30.7568860 121.4998050  94.0206510  26.2932940 122.2817310 103.9987570
  26.2648370 122.6860260 103.1316000  26.1297910 121.3527670 103.8359170
  22.8085870 114.9378020  91.9004690  22.6883470 115.6640110  91.2885960
  22.4986760 114.1680930  91.4232600  38.2447760 123.0644410 105.2951740
  38.7207480 123.5427300 105.9740820  38.8654920 122.9961900 104.5697240
  20.4471240 118.1093160  97.7073330  20.5251660 118.2441930  96.7629050
  21.0612920 117.4009050  97.9001450  21.6918870 119.8093350  94.1179510
  21.2846950 119.9507940  93.2633110  22.5831880 119.5253510  93.9150720
  37.6481010 120.2557260 102.4551750  37.7744070 120.0169140 101.5368930
  37.6902390 119.4241800 102.9273830  31.5097750 123.9585260 101.0246560
  32.0242420 123.8693270 101.8268990  30.6666830 124.3044960 101.3174470
  25.9640530 124.0239130  92.2302180  25.7883010 123.1074670  92.0169980
  25.1096270 124.3826420  92.4699980  37.5005020 112.3089720 103.4201490
  36.8849290 112.8169390 102.8916950  37.1801440 111.4088050 103.3627430
  20.5030760 119.1507330 100.2467790  20.6661800 118.6812690  99.4287160
  20.9683210 118.6430890 100.9116630  25.2749530 108.2813090  95.2828360
  24.8317680 109.0622630  94.9512880  25.8334520 108.6042980  95.9899300
  29.5619340 111.1481610 100.8863680  29.0998710 111.3564630 101.6983620
  29.1597450 110.3340960 100.5834350  31.6573560 113.8692310 104.1159130
  31.9826970 113.0356060 103.7761360  32.4453890 114.3920830 104.2637460
  28.3908350 107.9023790  90.1634190  27.7662530 107.8983660  90.8887500
  28.3038470 107.0354750  89.7670160  27.3125430 108.8260420  97.1417960
  27.6097760 109.7323250  97.0609980  27.8610990 108.3379200  96.5277530
  25.0663750 113.4046660  93.0109610  24.8404670 113.1883830  93.9156230
  24.2856280 113.8375120  92.6655580  32.2961510 113.4110030  91.6100260
  31.6970400 114.1345830  91.4263880  32.8441120 113.3486810  90.8276710
  27.5062960 114.3032240 103.6769880  27.4106560 113.3626970 103.5270280
  28.3494940 114.5247310 103.2817950  30.9026380 112.0473570  93.6403540
  31.2955950 112.3645770  92.8272230  31.2643230 111.1685450  93.7548060
  22.6373500 110.7145910 101.8303660  22.2436890 111.5621120 102.0376440
  21.9491900 110.0772280 102.0212300  19.9390550 108.6374370  95.8633740
  19.6503600 109.2077230  96.5758720  20.6836310 108.1578820  96.2264970
  20.1260780 112.5794490  87.0736460  20.0435450 113.5225250  87.2151450
  19.7743840 112.4369400  86.1948810  31.4881520 114.6379320  97.7354320
  30.7562640 115.1466130  98.0844420  31.0905860 113.8209300  97.4343100
  27.9258910 111.3133520  96.1406810  27.9294970 110.8723470  95.2911350
  28.8210030 111.6350850  96.2478630  23.7761290 111.1960010  95.1001020
  23.4361340 111.6735240  95.8568070  23.0138610 110.7425130  94.7402120
  27.9879060 112.3145600  89.1313570  28.1091880 112.2732080  90.0799390
  27.6027570 113.1769750  88.9760300  27.0000560 114.6246740  88.5296870
  26.4317460 114.1764990  87.9032780  27.7089560 114.9839520  87.9962020
  22.0769740 118.5258760 102.4063600  21.6924530 117.8852430 103.0046560
  22.3881930 119.2294880 102.9758330  28.2266880 115.3735300  97.8872220
  28.5937010 114.8993870  98.6333560  28.0371940 116.2476870  98.2280560
  26.0166250 114.4143940 100.2056430  25.7123320 115.2935920 100.4306790
  26.9712710 114.4743730 100.2413870  24.5448040 118.6204930  90.8023280
  23.7710300 118.0802550  90.6422000  25.2742670 118.1011540  90.4641040
  35.3036020 117.6170290  96.5949670  36.0235140 118.1125580  96.2045780
  35.1017840 116.9388180  95.9503540  30.7645960 109.0108250  90.7379060
  29.9510570 108.5121420  90.6624370  30.5707910 109.8506500  90.3215410
  30.6854820 117.6879350 102.4818670  30.6192130 116.7675020 102.2276260
  30.0559960 117.7854790 103.1963310  33.4794350 113.3827900  89.0341220
  34.3673970 113.6945130  88.8592560  33.4499440 112.5100150  88.6421800
  24.5885440 118.2885310  94.4402090  25.1064110 117.4853570  94.3858980
  24.1369460 118.2264450  95.2818920  29.4754940 119.5551590  89.7129390
  29.8170640 120.2993820  89.2172710  28.6467650 119.8682710  90.0754220
  22.0729980 115.2546680 101.3527790  21.7144920 115.9200530 101.9401130
  21.7784540 114.4230230 101.7240410  25.2743100 115.7130920 104.2367340
  24.9743240 115.8588100 103.3395160  26.0454340 115.1536210 104.1440730
  30.6171550 120.5099920 102.2322470  30.6316090 119.5780880 102.0141380
  29.9096650 120.5959680 102.8712240  36.8282760 117.1507260 101.5791050
  36.1030950 117.7436040 101.3820440  37.3558220 117.1430800 100.7804420
  32.3582350 118.8767430  95.0774900  32.7106170 118.2795560  94.4176270
  31.4744680 118.5511660  95.2483150  28.4445630 119.6365120  92.4845310
  29.1316760 120.1834330  92.8652900  27.6578050 120.1805850  92.5194920
  20.5838030 115.2537940  87.9762390  21.4532880 115.5362740  88.2598310
  20.0928350 116.0673810  87.8611200  27.7472840 116.6411150  92.0970670
  28.2035620 117.4516400  92.3230860  27.3961050 116.3234290  92.9289160
  30.0505450 122.1517490  99.3262970  30.6947670 122.3576870 100.0036390
  30.4134890 121.3905890  98.8733820  31.3237530 120.1549840  98.0440420
  31.9659760 119.4543000  98.1572590  31.8486880 120.9348280  97.8637310
  33.0975150 120.9544740 101.2476480  33.4331390 121.5411430 101.9254400
  32.1775490 120.8237450 101.4774270  20.9509280 124.4665320  88.5424020
  21.3106920 125.0654660  87.8881290  20.8101620 125.0125210  89.3159050
  20.6478550 108.7439920 102.0299890  19.9337070 108.9436840 102.6352500
  21.0673590 107.9679490 102.4014690  20.9351140 122.7320180 103.0166420
  21.0442260 121.7914920 102.8761810  20.2831700 122.9974930 102.3680150
  28.9263730 121.0036070 104.4164540  28.6060600 120.2845310 104.9610230
  28.2522090 121.6791140 104.4900600  26.9677900 121.8496520  89.3597690
  26.9588000 122.5826210  88.7442200  26.0476260 121.6028100  89.4524650
  22.5684540 117.0711410  90.1044450  21.9612490 117.8110310  90.1139750
  23.0433890 117.1610770  89.2782650  29.9537500 121.9124760  88.0222880
  30.0549480 121.7088750  87.0924860  29.0539240 121.6583040  88.2270660
  27.4763390 112.4705120  92.0046780  26.7679540 112.9391460  92.4460390
  27.7607870 111.8127130  92.6391970  29.1019320 113.8901820 100.0039310
  29.6004570 114.3647640 100.6691160  29.2442270 112.9665340 100.2109340
  31.5078820 109.1955780  93.4442570  31.3846600 109.2141910  92.4952080
  32.4563380 109.2434720  93.5640970  28.5955610 124.4311080  92.7170550
  28.8497110 124.3932470  91.7949920  27.6468090 124.3044410  92.7098800
  25.6798410 110.7790200  89.3797490  26.5288940 111.2160350  89.3137680
  25.3129680 111.0910460  90.2069550  34.6008190 115.3502960  94.2929060
  33.6598330 115.3653190  94.4676750  34.9152260 114.5638920  94.7389360
  24.5789830 117.0322560  87.8533020  25.3453100 116.9203920  88.4158450
  24.6564520 116.3360530  87.2009790  23.2736590 114.4647630  88.5365910
  23.3540180 113.5175140  88.6483310  24.1656340 114.7954510  88.6426570
  24.0751300 124.6143020  95.6400450  24.8113780 124.0658480  95.9109020
  24.4592220 125.4799030  95.5006440  20.9596780 120.6816590  91.5141960
  20.0336560 120.9237730  91.5047370  21.4253210 121.5090850  91.3926710
  23.0809580 123.7989090 104.8286030  23.8822310 124.1201140 105.2421430
  22.5661400 123.4384670 105.5505940  27.1853610 123.7873330  87.4626020
  27.9782220 124.0762160  87.0107810  26.6657960 123.3565500  86.7838500
  31.9174210 119.9068960 104.7761440  31.3112370 119.9300560 104.0357190
  31.6128320 119.1752000 105.3128690  33.3474580 123.6349250 103.3870850
  34.2996330 123.5507270 103.3371090  33.2002800 124.2990960 104.0604640
  20.8007390 116.2862550 103.7722080  21.3046410 115.7069830 104.3438310
  20.0614810 116.5702780 104.3098450  27.7031010 119.0076740  87.3268370
  27.5981650 118.3929090  88.0529750  27.5355230 118.4842630  86.5431380
  27.8545330 117.6933540 103.3057600  27.0891000 118.2618540 103.2212270
  28.0361290 117.4009750 102.4125830  30.9433740 118.0696770  87.9310360
  30.3943840 118.5166070  88.5753100  31.5653000 117.5646020  88.4548030
  34.9968680 119.4238870 103.8632620  35.7378150 119.7614630 103.3600080
  34.2341360 119.5930930 103.3102390  22.8330470 114.4292140 104.6672150
  22.8735810 114.1306010 105.5757380  23.6875970 114.8299750 104.5079670
  26.6108860 117.0287690  89.8275660  27.0325280 116.8627560  90.6707050
  26.7359700 116.2187920  89.3330800  24.7736280 113.0084240 102.6346640
  24.2432740 112.5175190 102.0069980  25.4424350 113.4368440 102.1004570
  29.1236500 116.0525300  87.0752760  29.6442160 115.3374320  86.7093910
  29.7704900 116.6911170  87.3753270  33.6714340 117.4753700 102.3987830
  34.0855360 117.6298780 103.2478250  32.7365340 117.6008920 102.5613610
  34.1436510 114.8149860 104.4026980  34.7257280 114.0602180 104.3147460
  34.3198280 115.3457300 103.6258460  28.0270020 108.5319850  99.7471320
  27.5787320 108.5544110  98.9016870  27.3935220 108.1338870 100.3441620
  28.4329570 117.4274180 100.3683760  28.8517680 118.2706910 100.1960000
  27.5138200 117.5646220 100.1390540  30.7693470 115.1590360 101.7521600
  30.8889680 114.5631500 102.4916440  31.6287470 115.1960050 101.3322900
  33.1081370 115.7127550 100.3284110  32.5816590 116.2370170  99.7249250
  33.4512710 116.3454940 100.9593840  25.5067760 113.1020920  86.7733820
  25.3056820 112.2388280  87.1347160  25.3359810 113.0154280  85.8355420
  26.2836990 123.7327190 101.4841490  25.7458080 124.4573250 101.1650190
  26.5370950 123.2557530 100.6938830  32.9856070 107.9129150  89.3020700
  33.2658360 107.0697050  89.6580120  32.2121800 108.1452260  89.8159450
  24.3050560 110.2021540  86.7611700  24.6076460 110.2088970  85.8530850
  25.0445150 109.8519400  87.2579360  29.1399200 124.9678400 101.7428140
  29.0657900 125.8713540 102.0500510  28.2378040 124.6490300 101.7150210
  27.5235490 109.1456160  87.7467900  27.1757490 108.4680150  87.1670350
  27.7248260 108.6845670  88.5611290  29.6884530 124.1336910  89.3654500
  30.5835320 124.4721880  89.3873260  29.7202160 123.4116320  88.7378780
  23.3280690 119.5063960  87.5941500  23.7655560 120.0493630  88.2499080
  23.8128420 118.6810910  87.6037840  20.5426490 122.2952990  95.0461760
  20.8729500 121.4274050  94.8140400  20.9717490 122.5011510  95.8766720
  25.1388410 120.6262000  92.7063730  24.8383950 120.5026970  93.6067640
  25.0325900 119.7670590  92.2979460  21.0316700 123.1623580  97.7843390
  20.5947690 123.3424380  98.6167540  21.5994380 123.9198200  97.6425110
  36.6678880 122.6640580 102.0720700  36.0680870 122.7233140 101.3284620
  36.7972780 121.7245560 102.2017550  20.8641130 115.6743810  94.1432270
  20.2089970 115.4055450  93.4991970  21.7019080 115.5648290  93.6934250
  38.3696760 118.0055980  94.7566540  38.7405590 117.2223300  94.3502510
  39.0098690 118.6945080  94.5783840  35.3530520 119.3892560 100.1696860
  34.5390360 119.8189720 100.4322650  35.7604720 120.0010970  99.5565910
  33.8131570 110.4685100  88.3650760  34.2316450 110.2816080  87.5247420
  33.5067630 109.6164150  88.6753690  21.9017060 116.0596380  98.6835610
  22.2690100 115.9723780  99.5631630  21.3327880 115.2962930  98.5842470
  36.7020920 114.5280760 101.6966080  36.4707010 114.2993510 100.7964030
  36.9625470 115.4480310 101.6510970  21.4533060 112.9705470 102.5894030
  20.5589110 112.9372230 102.9287740  21.9930610 113.1692260 103.3545280
  35.1408990 109.7537190 104.4745780  36.0179170 109.7620590 104.8579780
  35.1529830 109.0168030 103.8638130  20.0779210 112.8842740  90.0857600
  19.1743290 113.1472940  89.9109260  20.5619830 113.1553910  89.3057560
  36.5872260 113.6066730  95.3633800  37.1109740 113.1129380  94.7323970
  37.1731680 113.7417090  96.1081370  22.6206420 111.9408280  87.9951980
  23.3298120 111.5191500  87.5099260  21.9046360 112.0083510  87.3635330
  21.9572770 107.2453800  96.9377250  22.6048960 106.6951180  96.4972410
  22.3774610 107.4996950  97.7593060  21.7104770 107.4009470  99.6802570
  21.3619590 107.8573290 100.4460750  21.3792470 106.5066600  99.7625000
  23.3169140 120.5729070 103.8455760  23.2738770 120.2021980 104.7270220
  23.4480150 121.5106640 103.9857580  27.0175170 122.1288660  99.4465480
  26.7766530 122.3963220  98.5596000  27.9577810 122.2994390  99.5016340
  22.3825410 106.9285670 102.9553340  22.9308400 106.7473720 102.1919450
  22.4480720 106.1379780 103.4909650  23.1557170 123.5191320 100.9653540
  22.5617490 123.3876020 101.7043580  23.1481010 122.6829460 100.4995640
  22.7869400 120.8849700  99.9161580  22.0603460 120.2654990  99.8487530
  22.8478550 121.2790310  99.0459660  26.3914500 123.0994700  96.7010990
  26.9079520 122.4882060  96.1759250  27.0411880 123.6023480  97.1922000
  29.1310000 123.9903190  97.5279970  29.4187810 123.7357490  96.6512980
  29.6433220 123.4380550  98.1185540  30.3487010 107.7293390  98.1076480
  29.5658800 108.2038890  98.3873240  30.0549940 106.8248220  97.9989660
  21.0699400 124.2024090  93.1258340  20.9021440 123.5694770  93.8240230
  20.2033910 124.4083490  92.7752530  28.2341230 110.1480140  93.6192510
  27.4215740 109.7737030  93.2788390  28.7382870 109.3925220  93.9213700
  32.7366210 106.8122590  94.8575580  33.3395580 107.3842800  95.3324100
  31.9959200 107.3762030  94.6349480  22.6762100 122.8957320  90.5708480
  22.1509720 123.2765350  89.8670440  22.6006680 123.5208090  91.2918190
  24.0652570 108.5604920  89.1692170  24.5945330 107.7734720  89.0400120
  24.6980890 109.2396110  89.4027700  26.2590410 108.2980060  92.2237560
  25.6293150 107.5967370  92.3907690  25.7195550 109.0584190  92.0070720
  29.1982360 124.9119290 104.8948170  30.1249670 124.6763560 104.9384130
  29.1832790 125.7391290 104.4134200  25.2755070 124.8439700  89.4457730
  26.0073890 124.5598980  88.8981620  25.5348740 124.6052980  90.3357110
  24.4369860 120.9604430  89.4504060  23.8078740 121.4289530  89.9989890
  24.5517690 120.1153650  89.8850250  35.7659920 124.1389150 104.7189210
  36.5585240 123.6438380 104.5115170  36.0593070 124.8179290 105.3264820
  31.8919580 115.0110090  75.6005260  31.8113630 114.0964700  75.3296970
  31.4784000 115.5077160  74.8944970  30.0237620 116.7889110  77.4814530
  29.2479720 116.3089550  77.7713100  30.6750550 116.1094760  77.3070690
  24.0204710 121.1349010  78.5548310  24.3232750 120.2446750  78.3758530
  24.7648300 121.6919230  78.3270560  22.4495400 112.0610810  72.1432680
  21.5612100 112.4026780  72.0412560  22.7336590 111.8611130  71.2513510
  30.2708360 123.4807310  75.8817650  29.6519800 123.9364810  75.3112090
  31.1260140 123.6358770  75.4807350  29.4646610 119.4646300  77.4884690
  29.3954890 118.5236240  77.3273820  30.2266470 119.5547710  78.0607260
  30.4951780 112.2716680  77.7153620  30.8716600 111.3988560  77.6027290
  30.3971290 112.6075380  76.8244060  38.5675450 111.7833870  81.2125590
  37.8627620 112.1715580  80.6940700  38.8333370 112.4784160  81.8146520
  24.7500620 108.2527240  81.7759660  24.7519060 108.7699630  80.9705560
  23.9204930 107.7757420  81.7529590  34.5137380 111.7067500  77.4209500
  33.8092950 111.9952390  78.0012610  34.8749540 112.5167610  77.0609060
  25.2122570 119.8603220  81.7682340  25.8296570 120.5354300  81.4866790
  24.3515690 120.2691200  81.6769840  20.5054910 119.0503080  70.6489190
  20.1282890 119.5390180  69.9174090  20.7627980 119.7228360  71.2795720
  37.5824300 111.1522290  77.8118710  36.6349210 111.1861270  77.9434140
  37.9074290 111.9661240  78.1968070  28.1143840 107.4519470  76.1074700
  28.4218820 106.8966360  75.3910200  27.1844540 107.5863930  75.9247690
  30.5024600 115.5168300  72.8434820  29.5753880 115.4505680  73.0723290
  30.6549420 116.4548430  72.7290060  30.4893680 111.7885300  69.8401980
  29.5497350 111.9499260  69.9254440  30.8076940 112.5070980  69.2937970
  37.0106440 116.4703820  79.8181010  36.1825070 116.5396910  79.3431140
  37.6056920 117.0558130  79.3496840  33.9748450 113.2573140  80.7635880
  33.5619630 114.0826850  81.0175870  33.2424400 112.6718180  80.5712240
  26.5762940 119.7300600  77.7893760  26.2791230 119.1246070  77.1101540
  27.5262760 119.7677910  77.6783120  25.6681370 119.4682290  84.4401560
  24.7709900 119.6922260  84.6874960  25.6934240 119.5917230  83.4912960
  32.7086590 116.3175410  70.3542820  33.1479870 115.4797840  70.2080640
  33.4215010 116.9504810  70.4406960  24.4952590 116.3395610  83.0158930
  24.3560360 117.2118410  83.3846330  23.6133950 115.9968420  82.8706870
  26.2932940 122.2817310  85.2244080  26.2648370 122.6860260  84.3572510
  26.1297910 121.3527670  85.0615680  22.8085870 114.9378020  73.1261200
  22.6883470 115.6640110  72.5142470  22.4986760 114.1680930  72.6489110
  20.4471240 118.1093160  78.9329840  20.5251660 118.2441930  77.9885560
  21.0612920 117.4009050  79.1257960  21.6918870 119.8093350  75.3436020
  21.2846950 119.9507940  74.4889620  22.5831880 119.5253510  75.1407230
  25.9640530 124.0239130  73.4558690  25.7883010 123.1074670  73.2426490
  25.1096270 124.3826420  73.6956490  37.5005020 112.3089720  84.6458000
  36.8849290 112.8169390  84.1173460  37.1801440 111.4088050  84.5883940
  20.5030760 119.1507330  81.4724300  20.6661800 118.6812690  80.6543670
  20.9683210 118.6430890  82.1373140  29.5619340 111.1481610  82.1120190
  29.0998710 111.3564630  82.9240130  29.1597450 110.3340960  81.8090860
  34.5623850 112.3690560  83.2416850  33.7117440 112.0696310  83.5625920
  34.4025640 112.6132570  82.3300670  31.6573560 113.8692310  85.3415640
  31.9826970 113.0356060  85.0017870  32.4453890 114.3920830  85.4893970
  27.3125430 108.8260420  78.3674470  27.6097760 109.7323250  78.2866490
  27.8610990 108.3379200  77.7534040  25.0663750 113.4046660  74.2366120
  24.8404670 113.1883830  75.1412740  24.2856280 113.8375120  73.8912090
  32.2961510 113.4110030  72.8356770  31.6970400 114.1345830  72.6520390
  32.8441120 113.3486810  72.0533220  27.5062960 114.3032240  84.9026390
  27.4106560 113.3626970  84.7526790  28.3494940 114.5247310  84.5074460
  29.2118550 110.7980880  86.1256910  28.5216870 110.6053080  86.7603000
  29.9550850 111.0815520  86.6581210  19.9390550 108.6374370  77.0890250
  19.6503600 109.2077230  77.8015230  20.6836310 108.1578820  77.4521480
  20.1260780 112.5794490  68.2992970  20.0435450 113.5225250  68.4407960
  19.7743840 112.4369400  67.4205320  31.4881520 114.6379320  78.9610830
  30.7562640 115.1466130  79.3100930  31.0905860 113.8209300  78.6599610
  27.9258910 111.3133520  77.3663320  27.9294970 110.8723470  76.5167860
  28.8210030 111.6350850  77.4735140  23.7761290 111.1960010  76.3257530
  23.4361340 111.6735240  77.0824580  23.0138610 110.7425130  75.9658630
  27.9879060 112.3145600  70.3570080  28.1091880 112.2732080  71.3055900
  27.6027570 113.1769750  70.2016810  31.9507430 110.0913000  78.3733770
  31.9680170 110.5421650  79.2175620  31.7023010 109.1918640  78.5867210
  27.0000560 114.6246740  69.7553380  26.4317460 114.1764990  69.1289290
  27.7089560 114.9839520  69.2218530  22.0769740 118.5258760  83.6320110
  21.6924530 117.8852430  84.2303070  22.3881930 119.2294880  84.2014840
  21.0907370 110.1178990  75.2422200  20.8054290 109.7534660  76.0800820
  21.0286230 109.3859450  74.6285340  24.5448040 118.6204930  72.0279790
  23.7710300 118.0802550  71.8678510  25.2742670 118.1011540  71.6897550
  30.6854820 117.6879350  83.7075180  30.6192130 116.7675020  83.4532770
  30.0559960 117.7854790  84.4219820  33.4794350 113.3827900  70.2597730
  34.3673970 113.6945130  70.0849070  33.4499440 112.5100150  69.8678310
  24.5885440 118.2885310  75.6658600  25.1064110 117.4853570  75.6115490
  24.1369460 118.2264450  76.5075430  29.4754940 119.5551590  70.9385900
  29.8170640 120.2993820  70.4429220  28.6467650 119.8682710  71.3010730
  25.2743100 115.7130920  85.4623850  24.9743240 115.8588100  84.5651670
  26.0454340 115.1536210  85.3697240  30.6171550 120.5099920  83.4578980
  30.6316090 119.5780880  83.2397890  29.9096650 120.5959680  84.0968750
  35.7508620 114.6939740  69.7277590  35.6672340 115.1253960  68.8774030
  36.4702810 115.1538090  70.1604410  28.4445630 119.6365120  73.7101820
  29.1316760 120.1834330  74.0909410  27.6578050 120.1805850  73.7451430
  20.5838030 115.2537940  69.2018900  21.4532880 115.5362740  69.4854820
  20.0928350 116.0673810  69.0867710  27.7472840 116.6411150  73.3227180
  28.2035620 117.4516400  73.5487370  27.3961050 116.3234290  74.1545670
  31.3237530 120.1549840  79.2696930  31.9659760 119.4543000  79.3829100
  31.8486880 120.9348280  79.0893820  20.9509280 124.4665320  69.7680530
  21.3106920 125.0654660  69.1137800  20.8101620 125.0125210  70.5415560
  20.9351140 122.7320180  84.2422930  21.0442260 121.7914920  84.1018320
  20.2831700 122.9974930  83.5936660  28.9263730 121.0036070  85.6421050
  28.6060600 120.2845310  86.1866740  28.2522090 121.6791140  85.7157110
  26.9677900 121.8496520  70.5854200  26.9588000 122.5826210  69.9698710
  26.0476260 121.6028100  70.6781160  22.5684540 117.0711410  71.3300960
  21.9612490 117.8110310  71.3396260  23.0433890 117.1610770  70.5039160
  32.1417330 111.2362230  81.0057850  32.5098150 110.4157440  81.3337420
  31.2815530 111.2964120  81.4213500  29.9537500 121.9124760  69.2479390
  30.0549480 121.7088750  68.3181370  29.0539240 121.6583040  69.4527170
  27.4763390 112.4705120  73.2303290  26.7679540 112.9391460  73.6716900
  27.7607870 111.8127130  73.8648480  29.1019320 113.8901820  81.2295820
  29.6004570 114.3647640  81.8947670  29.2442270 112.9665340  81.4365850
  28.5955610 124.4311080  73.9427060  28.8497110 124.3932470  73.0206430
  27.6468090 124.3044410  73.9355310  36.3086180 110.1069780  82.0724210
  35.8059780 110.8475180  82.4118020  37.1242840 110.4953780  81.7561000
  24.5789830 117.0322560  69.0789530  25.3453100 116.9203920  69.6414960
  24.6564520 116.3360530  68.4266300  23.2736590 114.4647630  69.7622420
  23.3540180 113.5175140  69.8739820  24.1656340 114.7954510  69.8683080
  36.6033770 122.5211810  77.1939830  36.7281190 123.3442980  77.6663640
  37.4699330 122.3102540  76.8463980  24.0751300 124.6143020  76.8656960
  24.8113780 124.0658480  77.1365530  24.4592220 125.4799030  76.7262950
  20.9596780 120.6816590  72.7398470  20.0336560 120.9237730  72.7303880
  21.4253210 121.5090850  72.6183220  23.0809580 123.7989090  86.0542540
  23.8822310 124.1201140  86.4677940  22.5661400 123.4384670  86.7762450
  27.1853610 123.7873330  68.6882530  27.9782220 124.0762160  68.2364320
  26.6657960 123.3565500  68.0095010  31.9174210 119.9068960  86.0017950
  31.3112370 119.9300560  85.2613700  31.6128320 119.1752000  86.5385200
  20.8007390 116.2862550  84.9978590  21.3046410 115.7069830  85.5694820
  20.0614810 116.5702780  85.5354960  27.7031010 119.0076740  68.5524880
  27.5981650 118.3929090  69.2786260  27.5355230 118.4842630  67.7687890
  27.8545330 117.6933540  84.5314110  27.0891000 118.2618540  84.4468780
  28.0361290 117.4009750  83.6382340  22.8330470 114.4292140  85.8928660
  22.8735810 114.1306010  86.8013890  23.6875970 114.8299750  85.7336180
  26.6108860 117.0287690  71.0532170  27.0325280 116.8627560  71.8963560
  26.7359700 116.2187920  70.5587310  25.2608580 109.9746610  83.9400440
  25.1665450 109.3567360  83.2151310  24.6805970 110.7012900  83.7130350
  28.0270020 108.5319850  80.9727830  27.5787320 108.5544110  80.1273380
  27.3935220 108.1338870  81.5698130  30.7693470 115.1590360  82.9778110
  30.8889680 114.5631500  83.7172950  31.6287470 115.1960050  82.5579410
  33.1081370 115.7127550  81.5540620  32.5816590 116.2370170  80.9505760
  33.4512710 116.3454940  82.1850350  25.5067760 113.1020920  67.9990330
  25.3056820 112.2388280  68.3603670  25.3359810 113.0154280  67.0611930
  26.2836990 123.7327190  82.7098000  25.7458080 124.4573250  82.3906700
  26.5370950 123.2557530  81.9195340  27.5362240 111.7011710  84.2353930
  28.1261930 111.3927560  84.9231750  26.7182480 111.2291460  84.3913830
  32.3555670 111.3177520  84.4686950  31.6671190 110.6559060  84.4036940
  33.0761690 110.8715790  84.9135410  24.3050560 110.2021540  67.9868210
  24.6076460 110.2088970  67.0787360  25.0445150 109.8519400  68.4835870
  29.6884530 124.1336910  70.5911010  30.5835320 124.4721880  70.6129770
  29.7202160 123.4116320  69.9635290  23.3280690 119.5063960  68.8198010
  23.7655560 120.0493630  69.4755590  23.8128420 118.6810910  68.8294350
  20.5426490 122.2952990  76.2718270  20.8729500 121.4274050  76.0396910
  20.9717490 122.5011510  77.1023230  25.1388410 120.6262000  73.9320240
  24.8383950 120.5026970  74.8324150  25.0325900 119.7670590  73.5235970
  21.0316700 123.1623580  79.0099900  20.5947690 123.3424380  79.8424050
  21.5994380 123.9198200  78.8681620  37.3636790 117.1505880  71.1381120
  38.1255700 117.7202530  71.2440810  37.3791160 116.5833080  71.9089430
  20.8641130 115.6743810  75.3688780  20.2089970 115.4055450  74.7248480
  21.7019080 115.5648290  74.9190760  37.4155960 117.4440250  68.2953640
  37.6904800 118.3519130  68.1672860  37.2266700 117.3802780  69.2315630
  36.7020920 114.5280760  82.9222590  36.4707010 114.2993510  82.0220540
  36.9625470 115.4480310  82.8767480  20.0779210 112.8842740  71.3114110
  19.1743290 113.1472940  71.1365770  20.5619830 113.1553910  70.5314070
  36.7661980 113.6906600  80.1109860  35.8164690 113.6570140  80.2254850
  36.9474990 114.6006710  79.8759630  22.6206420 111.9408280  69.2208490
  23.3298120 111.5191500  68.7355770  21.9046360 112.0083510  68.5891840
  22.2680580 107.9947610  68.2611140  22.9908710 108.5356550  68.5792360
  22.5405100 107.7211030  67.3852680  36.0772230 112.8640080  72.5282720
  36.5731350 112.6310950  73.3131600  35.8788300 112.0251920  72.1120360
  21.9572770 107.2453800  78.1633760  22.6048960 106.6951180  77.7228920
  22.3774610 107.4996950  78.9849570  37.5059390 111.5001030  75.0620400
  37.3958670 111.3457070  76.0002670  38.2666980 110.9721970  74.8195810
  35.8525110 107.4395160  81.5203400  36.4897330 108.0529300  81.8862590
  36.0000000 107.4755820  80.5752630  21.7104770 107.4009470  80.9059080
  21.3619590 107.8573290  81.6717260  21.3792470 106.5066600  80.9881510
  23.3169140 120.5729070  85.0712270  23.2738770 120.2021980  85.9526730
  23.4480150 121.5106640  85.2114090  27.0175170 122.1288660  80.6721990
  26.7766530 122.3963220  79.7852510  27.9577810 122.2994390  80.7272850
  29.2229590 108.5921350  84.4278500  29.1618480 109.1843180  85.1773910
  30.1629970 108.4847310  84.2828760  31.8604150 108.2491410  84.0670790
  32.4744560 108.5670700  83.4051870  32.4053710 107.7640000  84.6866650
  23.1557170 123.5191320  82.1910050  22.5617490 123.3876020  82.9300090
  23.1481010 122.6829460  81.7252150  32.6012190 106.8123550  80.3940080
  31.7272030 107.1458660  80.1913010  32.4922940 106.3396730  81.2191950
  33.5084170 109.0194420  81.7781800  33.1797530 108.2046180  81.3983530
  34.4566470 108.9764230  81.6547490  22.7869400 120.8849700  81.1418090
  22.0603460 120.2654990  81.0744040  22.8478550 121.2790310  80.2716170
  26.3914500 123.0994700  77.9267500  26.9079520 122.4882060  77.4015760
  27.0411880 123.6023480  78.4178510  29.1310000 123.9903190  78.7536480
  29.4187810 123.7357490  77.8769490  29.6433220 123.4380550  79.3442050
  30.3487010 107.7293390  79.3332990  29.5658800 108.2038890  79.6129750
  30.0549940 106.8248220  79.2246170  21.0699400 124.2024090  74.3514850
  20.9021440 123.5694770  75.0496740  20.2033910 124.4083490  74.0009040
  22.6762100 122.8957320  71.7964990  22.1509720 123.2765350  71.0926950
  22.6006680 123.5208090  72.5174700  29.1982360 124.9119290  86.1204680
  30.1249670 124.6763560  86.1640640  29.1832790 125.7391290  85.6390710
  26.3845970 107.5764040  85.8846560  26.1030240 108.0797640  85.1207380
  26.7665670 106.7785790  85.5188690  25.2755070 124.8439700  70.6714240
  26.0073890 124.5598980  70.1238130  25.5348740 124.6052980  71.5613620
  24.4369860 120.9604430  70.6760570  23.8078740 121.4289530  71.2246400
  24.5517690 120.1153650  71.1106760  30.0237620 116.7889110  58.7071040
  29.2479720 116.3089550  58.9969610  30.6750550 116.1094760  58.5327200
  24.0403450 117.1008920  59.5846800  23.2088330 116.8457630  59.9843310
  24.6484430 117.1719690  60.3204720  24.0204710 121.1349010  59.7804820
  24.3232750 120.2446750  59.6015040  24.7648300 121.6919230  59.5527070
  22.4495400 112.0610810  53.3689190  21.5612100 112.4026780  53.2669070
  22.7336590 111.8611130  52.4770020  20.4128410 114.6616460  59.2528890
  20.9844520 113.8938660  59.2532530  20.4129950 114.9605220  58.3435500
  29.4646610 119.4646300  58.7141200  29.3954890 118.5236240  58.5530330
  30.2266470 119.5547710  59.2863770  21.6553280 110.0700820  61.0397820
  21.4756120 109.1726570  61.3200580  21.2533360 110.6172690  61.7144770
  24.6256790 110.6442310  54.4027570  24.7323540 111.5446040  54.7096330
  23.7149150 110.5960280  54.1122220  22.2739950 112.5661320  59.6480160
  22.9550060 112.8299690  60.2667560  21.9588000 111.7262190  59.9818170
  26.4664520 113.6128680  58.7352750  26.9742740 114.1109650  59.3757770
  26.9977760 112.8363880  58.5592110  24.7500620 108.2527240  63.0016170
  24.7519060 108.7699630  62.1962070  23.9204930 107.7757420  62.9786100
  31.1371710 118.3646550  54.5006070  30.5188980 118.8296000  53.9368790
  31.6494960 119.0574030  54.9175580  26.0003470 117.8922420  61.1789670
  25.6672850 118.5191340  61.8210740  26.1770150 118.4184300  60.3991340
  24.4315950 109.9637200  61.0086620  24.7732760 110.8079250  60.7140490
  23.4931760 110.1120940  61.1251960  25.2122570 119.8603220  62.9938850
  25.8296570 120.5354300  62.7123300  24.3515690 120.2691200  62.9026350
  20.5054910 119.0503080  51.8745700  20.1282890 119.5390180  51.1430600
  20.7627980 119.7228360  52.5052230  28.1143840 107.4519470  57.3331210
  28.4218820 106.8966360  56.6166710  27.1844540 107.5863930  57.1504200
  37.0106440 116.4703820  61.0437520  36.1825070 116.5396910  60.5687650
  37.6056920 117.0558130  60.5753350  33.9748450 113.2573140  61.9892390
  33.5619630 114.0826850  62.2432380  33.2424400 112.6718180  61.7968750
  26.1081240 116.0433040  56.8511060  25.7038240 115.3310290  56.3556960
  26.1944360 115.6986280  57.7399100  26.5762940 119.7300600  59.0150270
  26.2791230 119.1246070  58.3358050  27.5262760 119.7677910  58.9039630
  24.8209860 112.8176250  60.6310100  25.3724450 112.9271590  59.8563350
  25.3353370 113.1913850  61.3465330  25.6681370 119.4682290  65.6658070
  24.7709900 119.6922260  65.9131470  25.6934240 119.5917230  64.7169470
  24.4952590 116.3395610  64.2415440  24.3560360 117.2118410  64.6102840
  23.6133950 115.9968420  64.0963380  26.2932940 122.2817310  66.4500590
  26.2648370 122.6860260  65.5829020  26.1297910 121.3527670  66.2872190
  36.2903730 107.5718220  49.8940370  35.9776390 107.6645050  50.7939440
  37.0516200 108.1499250  49.8437800  22.8085870 114.9378020  54.3517710
  22.6883470 115.6640110  53.7398980  22.4986760 114.1680930  53.8745620
  20.4471240 118.1093160  60.1586350  20.5251660 118.2441930  59.2142070
  21.0612920 117.4009050  60.3514470  21.6918870 119.8093350  56.5692530
  21.2846950 119.9507940  55.7146130  22.5831880 119.5253510  56.3663740
  37.6481010 120.2557260  64.9064770  37.7744070 120.0169140  63.9881950
  37.6902390 119.4241800  65.3786850  31.5097750 123.9585260  63.4759580
  32.0242420 123.8693270  64.2782010  30.6666830 124.3044960  63.7687490
  25.9640530 124.0239130  54.6815200  25.7883010 123.1074670  54.4683000
  25.1096270 124.3826420  54.9213000  37.5005020 112.3089720  65.8714510
  36.8849290 112.8169390  65.3429970  37.1801440 111.4088050  65.8140450
  20.5030760 119.1507330  62.6980810  20.6661800 118.6812690  61.8800180
  20.9683210 118.6430890  63.3629650  25.2749530 108.2813090  57.7341380
  24.8317680 109.0622630  57.4025900  25.8334520 108.6042980  58.4412320
  29.5619340 111.1481610  63.3376700  29.0998710 111.3564630  64.1496640
  29.1597450 110.3340960  63.0347370  34.5623850 112.3690560  64.4673360
  33.7117440 112.0696310  64.7882430  34.4025640 112.6132570  63.5557180
  31.6573560 113.8692310  66.5672150  31.9826970 113.0356060  66.2274380
  32.4453890 114.3920830  66.7150480  28.3908350 107.9023790  52.6147210
  27.7662530 107.8983660  53.3400520  28.3038470 107.0354750  52.2183180
  27.3125430 108.8260420  59.5930980  27.6097760 109.7323250  59.5123000
  27.8610990 108.3379200  58.9790550  25.0663750 113.4046660  55.4622630
  24.8404670 113.1883830  56.3669250  24.2856280 113.8375120  55.1168600
  22.6373500 110.7145910  64.2816680  22.2436890 111.5621120  64.4889460
  21.9491900 110.0772280  64.4725320  29.2118550 110.7980880  67.3513420
  28.5216870 110.6053080  67.9859510  29.9550850 111.0815520  67.8837720
  19.9390550 108.6374370  58.3146760  19.6503600 109.2077230  59.0271740
  20.6836310 108.1578820  58.6777990  20.1260780 112.5794490  49.5249480
  20.0435450 113.5225250  49.6664470  19.7743840 112.4369400  48.6461830
  31.4881520 114.6379320  60.1867340  30.7562640 115.1466130  60.5357440
  31.0905860 113.8209300  59.8856120  27.9258910 111.3133520  58.5919830
  27.9294970 110.8723470  57.7424370  28.8210030 111.6350850  58.6991650
  23.7761290 111.1960010  57.5514040  23.4361340 111.6735240  58.3081090
  23.0138610 110.7425130  57.1915140  27.9879060 112.3145600  51.5826590
  28.1091880 112.2732080  52.5312410  27.6027570 113.1769750  51.4273320
  31.9507430 110.0913000  59.5990280  31.9680170 110.5421650  60.4432130
  31.7023010 109.1918640  59.8123720  27.0000560 114.6246740  50.9809890
  26.4317460 114.1764990  50.3545800  27.7089560 114.9839520  50.4475040
  22.0769740 118.5258760  64.8576620  21.6924530 117.8852430  65.4559580
  22.3881930 119.2294880  65.4271350  28.2266880 115.3735300  60.3385240
  28.5937010 114.8993870  61.0846580  28.0371940 116.2476870  60.6793580
  21.0907370 110.1178990  56.4678710  20.8054290 109.7534660  57.3057330
  21.0286230 109.3859450  55.8541850  26.0166250 114.4143940  62.6569450
  25.7123320 115.2935920  62.8819810  26.9712710 114.4743730  62.6926890
  24.5448040 118.6204930  53.2536300  23.7710300 118.0802550  53.0935020
  25.2742670 118.1011540  52.9154060  35.3036020 117.6170290  59.0462690
  36.0235140 118.1125580  58.6558800  35.1017840 116.9388180  58.4016560
  30.6854820 117.6879350  64.9331690  30.6192130 116.7675020  64.6789280
  30.0559960 117.7854790  65.6476330  24.5885440 118.2885310  56.8915110
  25.1064110 117.4853570  56.8372000  24.1369460 118.2264450  57.7331940
  29.4754940 119.5551590  52.1642410  29.8170640 120.2993820  51.6685730
  28.6467650 119.8682710  52.5267240  22.0729980 115.2546680  63.8040810
  21.7144920 115.9200530  64.3914150  21.7784540 114.4230230  64.1753430
  30.6171550 120.5099920  64.6835490  30.6316090 119.5780880  64.4654400
  29.9096650 120.5959680  65.3225260  35.7508620 114.6939740  50.9534100
  35.6672340 115.1253960  50.1030540  36.4702810 115.1538090  51.3860920
  36.8282760 117.1507260  64.0304070  36.1030950 117.7436040  63.8333460
  37.3558220 117.1430800  63.2317440  28.4445630 119.6365120  54.9358330
  29.1316760 120.1834330  55.3165920  27.6578050 120.1805850  54.9707940
  20.5838030 115.2537940  50.4275410  21.4532880 115.5362740  50.7111330
  20.0928350 116.0673810  50.3124220  27.7472840 116.6411150  54.5483690
  28.2035620 117.4516400  54.7743880  27.3961050 116.3234290  55.3802180
  23.6484620 106.9848800  55.0206210  23.5199250 106.9766700  55.9691130
  22.8246640 107.3231890  54.6697220  35.1693250 120.4398460  50.2192580
  34.9430830 119.7228900  50.8117220  34.7789450 120.1910900  49.3814330
  20.9509280 124.4665320  50.9937040  21.3106920 125.0654660  50.3394310
  20.8101620 125.0125210  51.7672070  20.6478550 108.7439920  64.4812910
  19.9337070 108.9436840  65.0865520  21.0673590 107.9679490  64.8527710
  34.7509500 118.3570400  51.8806740  34.4631200 118.8183090  52.6684620
  35.5461670 117.8968170  52.1490960  20.9351140 122.7320180  65.4679440
  21.0442260 121.7914920  65.3274830  20.2831700 122.9974930  64.8193170
  28.9263730 121.0036070  66.8677560  28.6060600 120.2845310  67.4123250
  28.2522090 121.6791140  66.9413620  26.9677900 121.8496520  51.8110710
  26.9588000 122.5826210  51.1955220  26.0476260 121.6028100  51.9037670
  22.5684540 117.0711410  52.5557470  21.9612490 117.8110310  52.5652770
  23.0433890 117.1610770  51.7295670  32.1417330 111.2362230  62.2314360
  32.5098150 110.4157440  62.5593930  31.2815530 111.2964120  62.6470010
  29.9537500 121.9124760  50.4735900  30.0549480 121.7088750  49.5437880
  29.0539240 121.6583040  50.6783680  27.4763390 112.4705120  54.4559800
  26.7679540 112.9391460  54.8973410  27.7607870 111.8127130  55.0904990
  29.1019320 113.8901820  62.4552330  29.6004570 114.3647640  63.1204180
  29.2442270 112.9665340  62.6622360  28.5955610 124.4311080  55.1683570
  28.8497110 124.3932470  54.2462940  27.6468090 124.3044410  55.1611820
  25.6798410 110.7790200  51.8310510  26.5288940 111.2160350  51.7650700
  25.3129680 111.0910460  52.6582570  24.5789830 117.0322560  50.3046040
  25.3453100 116.9203920  50.8671470  24.6564520 116.3360530  49.6522810
  23.2736590 114.4647630  50.9878930  23.3540180 113.5175140  51.0996330
  24.1656340 114.7954510  51.0939590  24.0751300 124.6143020  58.0913470
  24.8113780 124.0658480  58.3622040  24.4592220 125.4799030  57.9519460
  20.9596780 120.6816590  53.9654980  20.0336560 120.9237730  53.9560390
  21.4253210 121.5090850  53.8439730  23.0809580 123.7989090  67.2799050
  23.8822310 124.1201140  67.6934450  22.5661400 123.4384670  68.0018960
  27.1853610 123.7873330  49.9139040  27.9782220 124.0762160  49.4620830
  26.6657960 123.3565500  49.2351520  31.9174210 119.9068960  67.2274460
  31.3112370 119.9300560  66.4870210  31.6128320 119.1752000  67.7641710
  33.3474580 123.6349250  65.8383870  34.2996330 123.5507270  65.7884110
  33.2002800 124.2990960  66.5117660  36.2383780 123.0143460  51.3375780
  35.9525290 122.6008600  50.5229960  36.0403330 123.9431170  51.2176300
  20.8007390 116.2862550  66.2235100  21.3046410 115.7069830  66.7951330
  20.0614810 116.5702780  66.7611470  27.7031010 119.0076740  49.7781390
  27.5981650 118.3929090  50.5042770  27.5355230 118.4842630  48.9944400
  27.8545330 117.6933540  65.7570620  27.0891000 118.2618540  65.6725290
  28.0361290 117.4009750  64.8638850  30.9433740 118.0696770  50.3823380
  30.3943840 118.5166070  51.0266120  31.5653000 117.5646020  50.9061050
  22.8330470 114.4292140  67.1185170  22.8735810 114.1306010  68.0270400
  23.6875970 114.8299750  66.9592690  26.6108860 117.0287690  52.2788680
  27.0325280 116.8627560  53.1220070  26.7359700 116.2187920  51.7843820
  24.7736280 113.0084240  65.0859660  24.2432740 112.5175190  64.4583000
  25.4424350 113.4368440  64.5517590  29.1236500 116.0525300  49.5265780
  29.6442160 115.3374320  49.1606930  29.7704900 116.6911170  49.8266290
  25.2608580 109.9746610  65.1656950  25.1665450 109.3567360  64.4407820
  24.6805970 110.7012900  64.9386860  28.0270020 108.5319850  62.1984340
  27.5787320 108.5544110  61.3529890  27.3935220 108.1338870  62.7954640
  28.4329570 117.4274180  62.8196780  28.8517680 118.2706910  62.6473020
  27.5138200 117.5646220  62.5903560  30.7693470 115.1590360  64.2034620
  30.8889680 114.5631500  64.9429460  31.6287470 115.1960050  63.7835920
  33.1081370 115.7127550  62.7797130  32.5816590 116.2370170  62.1762270
  33.4512710 116.3454940  63.4106860  25.5067760 113.1020920  49.2246840
  25.3056820 112.2388280  49.5860180  25.3359810 113.0154280  48.2868440
  26.2836990 123.7327190  63.9354510  25.7458080 124.4573250  63.6163210
  26.5370950 123.2557530  63.1451850  32.3555670 111.3177520  65.6943460
  31.6671190 110.6559060  65.6293450  33.0761690 110.8715790  66.1391920
  24.3050560 110.2021540  49.2124720  24.6076460 110.2088970  48.3043870
  25.0445150 109.8519400  49.7092380  29.1399200 124.9678400  64.1941160
  29.0657900 125.8713540  64.5013530  28.2378040 124.6490300  64.1663230
  27.5235490 109.1456160  50.1980920  27.1757490 108.4680150  49.6183370
  27.7248260 108.6845670  51.0124310  29.6884530 124.1336910  51.8167520
  30.5835320 124.4721880  51.8386280  29.7202160 123.4116320  51.1891800
  23.3280690 119.5063960  50.0454520  23.7655560 120.0493630  50.7012100
  23.8128420 118.6810910  50.0550860  20.5426490 122.2952990  57.4974780
  20.8729500 121.4274050  57.2653420  20.9717490 122.5011510  58.3279740
  25.1388410 120.6262000  55.1576750  24.8383950 120.5026970  56.0580660
  25.0325900 119.7670590  54.7492480  21.0316700 123.1623580  60.2356410
  20.5947690 123.3424380  61.0680560  21.5994380 123.9198200  60.0938130
  36.6678880 122.6640580  64.5233720  36.0680870 122.7233140  63.7797640
  36.7972780 121.7245560  64.6530570  37.9080330 120.4058400  49.8603430
  37.0773290 120.4735050  50.3310660  38.0852160 121.2962520  49.5570290
  37.3636790 117.1505880  52.3637630  38.1255700 117.7202530  52.4697320
  37.3791160 116.5833080  53.1345940  20.8641130 115.6743810  56.5945290
  20.2089970 115.4055450  55.9504990  21.7019080 115.5648290  56.1447270
  38.3696760 118.0055980  57.2079560  38.7405590 117.2223300  56.8015530
  39.0098690 118.6945080  57.0296860  37.4155960 117.4440250  49.5210150
  37.6904800 118.3519130  49.3929370  37.2266700 117.3802780  50.4572140
  21.9017060 116.0596380  61.1348630  22.2690100 115.9723780  62.0144650
  21.3327880 115.2962930  61.0355490  36.7020920 114.5280760  64.1479100
  36.4707010 114.2993510  63.2477050  36.9625470 115.4480310  64.1023990
  21.4533060 112.9705470  65.0407050  20.5589110 112.9372230  65.3800760
  21.9930610 113.1692260  65.8058300  20.0779210 112.8842740  52.5370620
  19.1743290 113.1472940  52.3622280  20.5619830 113.1553910  51.7570580
  36.7661980 113.6906600  61.3366370  35.8164690 113.6570140  61.4511360
  36.9474990 114.6006710  61.1016140  22.6206420 111.9408280  50.4465000
  23.3298120 111.5191500  49.9612280  21.9046360 112.0083510  49.8148350
  22.2680580 107.9947610  49.4867650  22.9908710 108.5356550  49.8048870
  22.5405100 107.7211030  48.6109190  21.9572770 107.2453800  59.3890270
  22.6048960 106.6951180  58.9485430  22.3774610 107.4996950  60.2106080
  38.3949660 109.3308950  49.5283050  39.3198970 109.1990130  49.3201340
  38.3725450 109.4101770  50.4819500  38.4688150 110.1019610  52.1539760
  37.6739650 110.0364730  52.6832670  38.6731430 111.0370250  52.1425110
  21.7104770 107.4009470  62.1315590  21.3619590 107.8573290  62.8973770
  21.3792470 106.5066600  62.2138020  23.3169140 120.5729070  66.2968780
  23.2738770 120.2021980  67.1783240  23.4480150 121.5106640  66.4370600
  27.0175170 122.1288660  61.8978500  26.7766530 122.3963220  61.0109020
  27.9577810 122.2994390  61.9529360  29.2229590 108.5921350  65.6535010
  29.1618480 109.1843180  66.4030420  30.1629970 108.4847310  65.5085270
  38.2779330 124.1483040  62.6989140  37.7837610 124.5451910  61.9816270
  37.6692620 123.5232250  63.0926420  23.1557170 123.5191320  63.4166560
  22.5617490 123.3876020  64.1556600  23.1481010 122.6829460  62.9508660
  22.7869400 120.8849700  62.3674600  22.0603460 120.2654990  62.3000550
  22.8478550 121.2790310  61.4972680  26.3914500 123.0994700  59.1524010
  26.9079520 122.4882060  58.6272270  27.0411880 123.6023480  59.6435020
  29.1310000 123.9903190  59.9792990  29.4187810 123.7357490  59.1026000
  29.6433220 123.4380550  60.5698560  30.3487010 107.7293390  60.5589500
  29.5658800 108.2038890  60.8386260  30.0549940 106.8248220  60.4502680
  21.0699400 124.2024090  55.5771360  20.9021440 123.5694770  56.2753250
  20.2033910 124.4083490  55.2265550  21.6927420 108.0340870  53.0803220
  22.4506780 108.1469750  52.5067250  21.2304590 108.8710070  53.0346650
  28.2341230 110.1480140  56.0705530  27.4215740 109.7737030  55.7301410
  28.7382870 109.3925220  56.3726720  22.6762100 122.8957320  53.0221500
  22.1509720 123.2765350  52.3183460  22.6006680 123.5208090  53.7431210
  24.0652570 108.5604920  51.6205190  24.5945330 107.7734720  51.4913140
  24.6980890 109.2396110  51.8540720  26.2590410 108.2980060  54.6750580
  25.6293150 107.5967370  54.8420710  25.7195550 109.0584190  54.4583740
  29.1982360 124.9119290  67.3461190  30.1249670 124.6763560  67.3897150
  29.1832790 125.7391290  66.8647220  25.2755070 124.8439700  51.8970750
  26.0073890 124.5598980  51.3494640  25.5348740 124.6052980  52.7870130
  24.4369860 120.9604430  51.9017080  23.8078740 121.4289530  52.4502910
  24.5517690 120.1153650  52.3363270  31.8919580 115.0110090  38.0518280
  31.8113630 114.0964700  37.7809990  31.4784000 115.5077160  37.3457990
  30.0237620 116.7889110  39.9327550  29.2479720 116.3089550  40.2226120
  30.6750550 116.1094760  39.7583710  24.0403450 117.1008920  40.8103310
  23.2088330 116.8457630  41.2099820  24.6484430 117.1719690  41.5461230
  34.0445050 121.1949300  38.7126680  33.5826580 120.4236540  39.0413850
  34.8570600 121.2215370  39.2179130  24.0204710 121.1349010  41.0061330
  24.3232750 120.2446750  40.8271550  24.7648300 121.6919230  40.7783580
  22.4495400 112.0610810  34.5945700  21.5612100 112.4026780  34.4925580
  22.7336590 111.8611130  33.7026530  20.4128410 114.6616460  40.4785400
  20.9844520 113.8938660  40.4789040  20.4129950 114.9605220  39.5692010
  30.2708360 123.4807310  38.3330670  29.6519800 123.9364810  37.7625110
  31.1260140 123.6358770  37.9320370  29.4646610 119.4646300  39.9397710
  29.3954890 118.5236240  39.7786840  30.2266470 119.5547710  40.5120280
  21.6553280 110.0700820  42.2654330  21.4756120 109.1726570  42.5457090
  21.2533360 110.6172690  42.9401280  30.4951780 112.2716680  40.1666640
  30.8716600 111.3988560  40.0540310  30.3971290 112.6075380  39.2757080
  24.6256790 110.6442310  35.6284080  24.7323540 111.5446040  35.9352840
  23.7149150 110.5960280  35.3378730  34.2775900 109.7667120  37.0994980
  35.0985520 109.2763690  37.1420460  34.3109980 110.3564780  37.8526820
  22.2739950 112.5661320  40.8736670  22.9550060 112.8299690  41.4924070
  21.9588000 111.7262190  41.2074680  26.4664520 113.6128680  39.9609260
  26.9742740 114.1109650  40.6014280  26.9977760 112.8363880  39.7848620
  38.5675450 111.7833870  43.6638610  37.8627620 112.1715580  43.1453720
  38.8333370 112.4784160  44.2659540  24.7500620 108.2527240  44.2272680
  24.7519060 108.7699630  43.4218580  23.9204930 107.7757420  44.2042610
  31.1371710 118.3646550  35.7262580  30.5188980 118.8296000  35.1625300
  31.6494960 119.0574030  36.1432090  26.0003470 117.8922420  42.4046180
  25.6672850 118.5191340  43.0467250  26.1770150 118.4184300  41.6247850
  34.5137380 111.7067500  39.8722520  33.8092950 111.9952390  40.4525630
  34.8749540 112.5167610  39.5122080  24.4315950 109.9637200  42.2343130
  24.7732760 110.8079250  41.9397000  23.4931760 110.1120940  42.3508470
  25.2122570 119.8603220  44.2195360  25.8296570 120.5354300  43.9379810
  24.3515690 120.2691200  44.1282860  20.5054910 119.0503080  33.1002210
  20.1282890 119.5390180  32.3687110  20.7627980 119.7228360  33.7308740
  36.1300160 121.3242630  42.1350000  35.4463680 121.9941740  42.1266670
  36.6694450 121.5223280  41.3694860  37.5824300 111.1522290  40.2631730
  36.6349210 111.1861270  40.3947160  37.9074290 111.9661240  40.6481090
  28.1143840 107.4519470  38.5587720  28.4218820 106.8966360  37.8423220
  27.1844540 107.5863930  38.3760710  33.6658900 123.1686760  40.8495180
  33.6786060 122.7649050  39.9817440  33.1134120 123.9434050  40.7456610
  34.9604320 119.8902980  35.9385350  34.8500650 118.9477310  36.0634770
  34.9572570 120.2518620  36.8248110  33.0644340 118.0716600  42.1777790
  33.4813130 117.8576710  41.3431250  33.7884160 118.3289390  42.7486410
  30.5024600 115.5168300  35.2947840  29.5753880 115.4505680  35.5236310
  30.6549420 116.4548430  35.1803080  30.4893680 111.7885300  32.2915000
  29.5497350 111.9499260  32.3767460  30.8076940 112.5070980  31.7450990
  34.5321890 117.0788600  35.7983090  33.9134310 116.7408150  35.1509390
  34.5146340 116.4348360  36.5062280  33.9748450 113.2573140  43.2148900
  33.5619630 114.0826850  43.4688890  33.2424400 112.6718180  43.0225260
  26.1081240 116.0433040  38.0767570  25.7038240 115.3310290  37.5813470
  26.1944360 115.6986280  38.9655610  26.5762940 119.7300600  40.2406780
  26.2791230 119.1246070  39.5614560  27.5262760 119.7677910  40.1296140
  24.8209860 112.8176250  41.8566610  25.3724450 112.9271590  41.0819860
  25.3353370 113.1913850  42.5721840  34.6648550 123.3032470  43.9029880
  34.1879110 124.1104660  43.7102490  33.9810340 122.6510800  44.0556090
  25.6681370 119.4682290  46.8914580  24.7709900 119.6922260  47.1387980
  25.6934240 119.5917230  45.9425980  32.7086590 116.3175410  32.8055840
  33.1479870 115.4797840  32.6593660  33.4215010 116.9504810  32.8919980
  24.4952590 116.3395610  45.4671950  24.3560360 117.2118410  45.8359350
  23.6133950 115.9968420  45.3219890  30.8181970 121.2571480  36.7737080
  31.2577880 121.9995810  36.3592470  30.7568860 121.4998050  37.6976040
  26.2932940 122.2817310  47.6757100  26.2648370 122.6860260  46.8085530
  26.1297910 121.3527670  47.5128700  36.2903730 107.5718220  31.1196880
  35.9776390 107.6645050  32.0195950  37.0516200 108.1499250  31.0694310
  22.8085870 114.9378020  35.5774220  22.6883470 115.6640110  34.9655490
  22.4986760 114.1680930  35.1002130  20.4471240 118.1093160  41.3842860
  20.5251660 118.2441930  40.4398580  21.0612920 117.4009050  41.5770980
  21.6918870 119.8093350  37.7949040  21.2846950 119.9507940  36.9402640
  22.5831880 119.5253510  37.5920250  37.6481010 120.2557260  46.1321280
  37.7744070 120.0169140  45.2138460  37.6902390 119.4241800  46.6043360
  31.5097750 123.9585260  44.7016090  32.0242420 123.8693270  45.5038520
  30.6666830 124.3044960  44.9944000  33.4852150 124.2440600  34.1300090
  33.3253290 123.9543540  35.0281920  33.3198860 123.4680730  33.5945320
  25.9640530 124.0239130  35.9071710  25.7883010 123.1074670  35.6939510
  25.1096270 124.3826420  36.1469510  33.1878280 121.7528160  32.6898090
  32.4943440 121.7505450  32.0300370  33.9301140 121.3287480  32.2592260
  32.7528210 123.3790870  36.7646580  33.2085160 122.5980250  37.0785200
  33.0920730 124.0897690  37.3087760  37.5005020 112.3089720  47.0971020
  36.8849290 112.8169390  46.5686480  37.1801440 111.4088050  47.0396960
  20.5030760 119.1507330  43.9237320  20.6661800 118.6812690  43.1056690
  20.9683210 118.6430890  44.5886160  25.2749530 108.2813090  38.9597890
  24.8317680 109.0622630  38.6282410  25.8334520 108.6042980  39.6668830
  29.5619340 111.1481610  44.5633210  29.0998710 111.3564630  45.3753150
  29.1597450 110.3340960  44.2603880  34.5623850 112.3690560  45.6929870
  33.7117440 112.0696310  46.0138940  34.4025640 112.6132570  44.7813690
  31.6573560 113.8692310  47.7928660  31.9826970 113.0356060  47.4530890
  32.4453890 114.3920830  47.9406990  28.3908350 107.9023790  33.8403720
  27.7662530 107.8983660  34.5657030  28.3038470 107.0354750  33.4439690
  27.3125430 108.8260420  40.8187490  27.6097760 109.7323250  40.7379510
  27.8610990 108.3379200  40.2047060  25.0663750 113.4046660  36.6879140
  24.8404670 113.1883830  37.5925760  24.2856280 113.8375120  36.3425110
  32.2961510 113.4110030  35.2869790  31.6970400 114.1345830  35.1033410
  32.8441120 113.3486810  34.5046240  27.5062960 114.3032240  47.3539410
  27.4106560 113.3626970  47.2039810  28.3494940 114.5247310  46.9587480
  30.9026380 112.0473570  37.3173070  31.2955950 112.3645770  36.5041760
  31.2643230 111.1685450  37.4317590  22.6373500 110.7145910  45.5073190
  22.2436890 111.5621120  45.7145970  21.9491900 110.0772280  45.6981830
  29.2118550 110.7980880  48.5769930  28.5216870 110.6053080  49.2116020
  29.9550850 111.0815520  49.1094230  19.9390550 108.6374370  39.5403270
  19.6503600 109.2077230  40.2528250  20.6836310 108.1578820  39.9034500
  20.1260780 112.5794490  30.7505990  20.0435450 113.5225250  30.8920980
  19.7743840 112.4369400  29.8718340  31.4881520 114.6379320  41.4123850
  30.7562640 115.1466130  41.7613950  31.0905860 113.8209300  41.1112630
  27.9258910 111.3133520  39.8176340  27.9294970 110.8723470  38.9680880
  28.8210030 111.6350850  39.9248160  23.7761290 111.1960010  38.7770550
  23.4361340 111.6735240  39.5337600  23.0138610 110.7425130  38.4171650
  27.9879060 112.3145600  32.8083100  28.1091880 112.2732080  33.7568920
  27.6027570 113.1769750  32.6529830  31.9507430 110.0913000  40.8246790
  31.9680170 110.5421650  41.6688640  31.7023010 109.1918640  41.0380230
  27.0000560 114.6246740  32.2066400  26.4317460 114.1764990  31.5802310
  27.7089560 114.9839520  31.6731550  35.3778180 107.5045180  46.6633170
  35.7023950 106.7734840  47.1891150  35.4134690 107.1858820  45.7614160
  22.0769740 118.5258760  46.0833130  21.6924530 117.8852430  46.6816090
  22.3881930 119.2294880  46.6527860  28.2266880 115.3735300  41.5641750
  28.5937010 114.8993870  42.3103090  28.0371940 116.2476870  41.9050090
  21.0907370 110.1178990  37.6935220  20.8054290 109.7534660  38.5313840
  21.0286230 109.3859450  37.0798360  26.0166250 114.4143940  43.8825960
  25.7123320 115.2935920  44.1076320  26.9712710 114.4743730  43.9183400
  24.5448040 118.6204930  34.4792810  23.7710300 118.0802550  34.3191530
  25.2742670 118.1011540  34.1410570  35.3036020 117.6170290  40.2719200
  36.0235140 118.1125580  39.8815310  35.1017840 116.9388180  39.6273070
  30.7645960 109.0108250  34.4148590  29.9510570 108.5121420  34.3393900
  30.5707910 109.8506500  33.9984940  30.6854820 117.6879350  46.1588200
  30.6192130 116.7675020  45.9045790  30.0559960 117.7854790  46.8732840
  33.4794350 113.3827900  32.7110750  34.3673970 113.6945130  32.5362090
  33.4499440 112.5100150  32.3191330  24.5885440 118.2885310  38.1171620
  25.1064110 117.4853570  38.0628510  24.1369460 118.2264450  38.9588450
  29.4754940 119.5551590  33.3898920  29.8170640 120.2993820  32.8942240
  28.6467650 119.8682710  33.7523750  22.0729980 115.2546680  45.0297320
  21.7144920 115.9200530  45.6170660  21.7784540 114.4230230  45.4009940
  25.2743100 115.7130920  47.9136870  24.9743240 115.8588100  47.0164690
  26.0454340 115.1536210  47.8210260  30.6171550 120.5099920  45.9092000
  30.6316090 119.5780880  45.6910910  29.9096650 120.5959680  46.5481770
  35.7508620 114.6939740  32.1790610  35.6672340 115.1253960  31.3287050
  36.4702810 115.1538090  32.6117430  36.7795870 121.5482000  34.9072740
  36.1372030 120.8937620  35.1816460  36.3926530 121.9537090  34.1313410
  32.3582350 118.8767430  38.7544430  32.7106170 118.2795560  38.0945800
  31.4744680 118.5511660  38.9252680  28.4445630 119.6365120  36.1614840
  29.1316760 120.1834330  36.5422430  27.6578050 120.1805850  36.1964450
  20.5838030 115.2537940  31.6531920  21.4532880 115.5362740  31.9367840
  20.0928350 116.0673810  31.5380730  27.7472840 116.6411150  35.7740200
  28.2035620 117.4516400  36.0000390  27.3961050 116.3234290  36.6058690
  30.0505450 122.1517490  43.0032500  30.6947670 122.3576870  43.6805920
  30.4134890 121.3905890  42.5503350  23.6484620 106.9848800  36.2462720
  23.5199250 106.9766700  37.1947640  22.8246640 107.3231890  35.8953730
  31.3237530 120.1549840  41.7209950  31.9659760 119.4543000  41.8342120
  31.8486880 120.9348280  41.5406840  35.1693250 120.4398460  31.4449090
  34.9430830 119.7228900  32.0373730  34.7789450 120.1910900  30.6070840
  33.0975150 120.9544740  44.9246010  33.4331390 121.5411430  45.6023930
  32.1775490 120.8237450  45.1543800  20.9509280 124.4665320  32.2193550
  21.3106920 125.0654660  31.5650820  20.8101620 125.0125210  32.9928580
  20.6478550 108.7439920  45.7069420  19.9337070 108.9436840  46.3122030
  21.0673590 107.9679490  46.0784220  34.7509500 118.3570400  33.1063250
  34.4631200 118.8183090  33.8941130  35.5461670 117.8968170  33.3747470
  20.9351140 122.7320180  46.6935950  21.0442260 121.7914920  46.5531340
  20.2831700 122.9974930  46.0449680  28.9263730 121.0036070  48.0934070
  28.6060600 120.2845310  48.6379760  28.2522090 121.6791140  48.1670130
  26.9677900 121.8496520  33.0367220  26.9588000 122.5826210  32.4211730
  26.0476260 121.6028100  33.1294180  22.5684540 117.0711410  33.7813980
  21.9612490 117.8110310  33.7909280  23.0433890 117.1610770  32.9552180
  32.1417330 111.2362230  43.4570870  32.5098150 110.4157440  43.7850440
  31.2815530 111.2964120  43.8726520  35.5079360 110.1919170  34.2658430
  34.8792520 110.2964840  33.5516660  35.0131280 110.4115950  35.0552310
  29.9537500 121.9124760  31.6992410  30.0549480 121.7088750  30.7694390
  29.0539240 121.6583040  31.9040190  27.4763390 112.4705120  35.6816310
  26.7679540 112.9391460  36.1229920  27.7607870 111.8127130  36.3161500
  29.1019320 113.8901820  43.6808840  29.6004570 114.3647640  44.3460690
  29.2442270 112.9665340  43.8878870  31.5078820 109.1955780  37.1212100
  31.3846600 109.2141910  36.1721610  32.4563380 109.2434720  37.2410500
  28.5955610 124.4311080  36.3940080  28.8497110 124.3932470  35.4719450
  27.6468090 124.3044410  36.3868330  25.6798410 110.7790200  33.0567020
  26.5288940 111.2160350  32.9907210  25.3129680 111.0910460  33.8839080
  36.3086180 110.1069780  44.5237230  35.8059780 110.8475180  44.8631040
  37.1242840 110.4953780  44.2074020  34.6008190 115.3502960  37.9698590
  33.6598330 115.3653190  38.1446280  34.9152260 114.5638920  38.4158890
  24.5789830 117.0322560  31.5302550  25.3453100 116.9203920  32.0927980
  24.6564520 116.3360530  30.8779320  23.2736590 114.4647630  32.2135440
  23.3540180 113.5175140  32.3252840  24.1656340 114.7954510  32.3196100
  36.6033770 122.5211810  39.6452850  36.7281190 123.3442980  40.1176660
  37.4699330 122.3102540  39.2977000  24.0751300 124.6143020  39.3169980
  24.8113780 124.0658480  39.5878550  24.4592220 125.4799030  39.1775970
  20.9596780 120.6816590  35.1911490  20.0336560 120.9237730  35.1816900
  21.4253210 121.5090850  35.0696240  23.0809580 123.7989090  48.5055560
  23.8822310 124.1201140  48.9190960  22.5661400 123.4384670  49.2275470
  27.1853610 123.7873330  31.1395550  27.9782220 124.0762160  30.6877340
  26.6657960 123.3565500  30.4608030  31.9174210 119.9068960  48.4530970
  31.3112370 119.9300560  47.7126720  31.6128320 119.1752000  48.9898220
  33.3474580 123.6349250  47.0640380  34.2996330 123.5507270  47.0140620
  33.2002800 124.2990960  47.7374170  36.2383780 123.0143460  32.5632290
  35.9525290 122.6008600  31.7486470  36.0403330 123.9431170  32.4432810
  20.8007390 116.2862550  47.4491610  21.3046410 115.7069830  48.0207840
  20.0614810 116.5702780  47.9867980  27.7031010 119.0076740  31.0037900
  27.5981650 118.3929090  31.7299280  27.5355230 118.4842630  30.2200910
  27.8545330 117.6933540  46.9827130  27.0891000 118.2618540  46.8981800
  28.0361290 117.4009750  46.0895360  30.9433740 118.0696770  31.6079890
  30.3943840 118.5166070  32.2522630  31.5653000 117.5646020  32.1317560
  34.9968680 119.4238870  47.5402150  35.7378150 119.7614630  47.0369610
  34.2341360 119.5930930  46.9871920  22.8330470 114.4292140  48.3441680
  22.8735810 114.1306010  49.2526910  23.6875970 114.8299750  48.1849200
  26.6108860 117.0287690  33.5045190  27.0325280 116.8627560  34.3476580
  26.7359700 116.2187920  33.0100330  24.7736280 113.0084240  46.3116170
  24.2432740 112.5175190  45.6839510  25.4424350 113.4368440  45.7774100
  29.1236500 116.0525300  30.7522290  29.6442160 115.3374320  30.3863440
  29.7704900 116.6911170  31.0522800  33.6714340 117.4753700  46.0757360
  34.0855360 117.6298780  46.9247780  32.7365340 117.6008920  46.2383140
  34.1436510 114.8149860  48.0796510  34.7257280 114.0602180  47.9916990
  34.3198280 115.3457300  47.3027990  25.2608580 109.9746610  46.3913460
  25.1665450 109.3567360  45.6664330  24.6805970 110.7012900  46.1643370
  28.0270020 108.5319850  43.4240850  27.5787320 108.5544110  42.5786400
  27.3935220 108.1338870  44.0211150  28.4329570 117.4274180  44.0453290
  28.8517680 118.2706910  43.8729530  27.5138200 117.5646220  43.8160070
  30.7693470 115.1590360  45.4291130  30.8889680 114.5631500  46.1685970
  31.6287470 115.1960050  45.0092430  33.1081370 115.7127550  44.0053640
  32.5816590 116.2370170  43.4018780  33.4512710 116.3454940  44.6363370
  25.5067760 113.1020920  30.4503350  25.3056820 112.2388280  30.8116690
  25.3359810 113.0154280  29.5124950  26.2836990 123.7327190  45.1611020
  25.7458080 124.4573250  44.8419720  26.5370950 123.2557530  44.3708360
  27.5362240 111.7011710  46.6866950  28.1261930 111.3927560  47.3744770
  26.7182480 111.2291460  46.8426850  32.3555670 111.3177520  46.9199970
  31.6671190 110.6559060  46.8549960  33.0761690 110.8715790  47.3648430
  32.9856070 107.9129150  32.9790230  33.2658360 107.0697050  33.3349650
  32.2121800 108.1452260  33.4928980  24.3050560 110.2021540  30.4381230
  24.6076460 110.2088970  29.5300380  25.0445150 109.8519400  30.9348890
  29.1399200 124.9678400  45.4197670  29.0657900 125.8713540  45.7270040
  28.2378040 124.6490300  45.3919740  27.5235490 109.1456160  31.4237430
  27.1757490 108.4680150  30.8439880  27.7248260 108.6845670  32.2380820
  29.6884530 124.1336910  33.0424030  30.5835320 124.4721880  33.0642790
  29.7202160 123.4116320  32.4148310  23.3280690 119.5063960  31.2711030
  23.7655560 120.0493630  31.9268610  23.8128420 118.6810910  31.2807370
  20.5426490 122.2952990  38.7231290  20.8729500 121.4274050  38.4909930
  20.9717490 122.5011510  39.5536250  25.1388410 120.6262000  36.3833260
  24.8383950 120.5026970  37.2837170  25.0325900 119.7670590  35.9748990
  21.0316700 123.1623580  41.4612920  20.5947690 123.3424380  42.2937070
  21.5994380 123.9198200  41.3194640  36.6678880 122.6640580  45.7490230
  36.0680870 122.7233140  45.0054150  36.7972780 121.7245560  45.8787080
  37.9080330 120.4058400  31.0859940  37.0773290 120.4735050  31.5567170
  38.0852160 121.2962520  30.7826800  37.3636790 117.1505880  33.5894140
  38.1255700 117.7202530  33.6953830  37.3791160 116.5833080  34.3602450
  20.8641130 115.6743810  37.8201800  20.2089970 115.4055450  37.1761500
  21.7019080 115.5648290  37.3703780  38.3696760 118.0055980  38.4336070
  38.7405590 117.2223300  38.0272040  39.0098690 118.6945080  38.2553370
  35.3530520 119.3892560  43.8466390  34.5390360 119.8189720  44.1092180
  35.7604720 120.0010970  43.2335440  37.4155960 117.4440250  30.7466660
  37.6904800 118.3519130  30.6185880  37.2266700 117.3802780  31.6828650
  33.8131570 110.4685100  32.0420290  34.2316450 110.2816080  31.2016950
  33.5067630 109.6164150  32.3523220  37.3121300 115.3809240  35.7396090
  36.9364900 114.6137170  35.3077380  36.5824420 115.7631940  36.2271020
  21.9017060 116.0596380  42.3605140  22.2690100 115.9723780  43.2401160
  21.3327880 115.2962930  42.2612000  36.7020920 114.5280760  45.3735610
  36.4707010 114.2993510  44.4733560  36.9625470 115.4480310  45.3280500
  21.4533060 112.9705470  46.2663560  20.5589110 112.9372230  46.6057270
  21.9930610 113.1692260  47.0314810  35.1408990 109.7537190  48.1515310
  36.0179170 109.7620590  48.5349310  35.1529830 109.0168030  47.5407660
  20.0779210 112.8842740  33.7627130  19.1743290 113.1472940  33.5878790
  20.5619830 113.1553910  32.9827090  36.5872260 113.6066730  39.0403330
  37.1109740 113.1129380  38.4093500  37.1731680 113.7417090  39.7850900
  36.7661980 113.6906600  42.5622880  35.8164690 113.6570140  42.6767870
  36.9474990 114.6006710  42.3272650  22.6206420 111.9408280  31.6721510
  23.3298120 111.5191500  31.1868790  21.9046360 112.0083510  31.0404860
  22.2680580 107.9947610  30.7124160  22.9908710 108.5356550  31.0305380
  22.5405100 107.7211030  29.8365700  36.0772230 112.8640080  34.9795740
  36.5731350 112.6310950  35.7644620  35.8788300 112.0251920  34.5633380
  21.9572770 107.2453800  40.6146780  22.6048960 106.6951180  40.1741940
  22.3774610 107.4996950  41.4362590  37.5059390 111.5001030  37.5133420
  37.3958670 111.3457070  38.4515690  38.2666980 110.9721970  37.2708830
  38.3949660 109.3308950  30.7539560  39.3198970 109.1990130  30.5457850
  38.3725450 109.4101770  31.7076010  38.4688150 110.1019610  33.3796270
  37.6739650 110.0364730  33.9089180  38.6731430 111.0370250  33.3681620
  35.4106570 124.1411160  37.3734660  36.0065640 123.8195730  36.6969080
  35.6684720 123.6682980  38.1647930  21.7104770 107.4009470  43.3572100
  21.3619590 107.8573290  44.1230280  21.3792470 106.5066600  43.4394530
  23.3169140 120.5729070  47.5225290  23.2738770 120.2021980  48.4039750
  23.4480150 121.5106640  47.6627110  27.0175170 122.1288660  43.1235010
  26.7766530 122.3963220  42.2365530  27.9577810 122.2994390  43.1785870
  29.2229590 108.5921350  46.8791520  29.1618480 109.1843180  47.6286930
  30.1629970 108.4847310  46.7341780  31.8604150 108.2491410  46.5183810
  32.4744560 108.5670700  45.8564890  32.4053710 107.7640000  47.1379670
  38.2779330 124.1483040  43.9245650  37.7837610 124.5451910  43.2072780
  37.6692620 123.5232250  44.3182930  22.3825410 106.9285670  46.6322870
  22.9308400 106.7473720  45.8688980  22.4480720 106.1379780  47.1679180
  23.1557170 123.5191320  44.6423070  22.5617490 123.3876020  45.3813110
  23.1481010 122.6829460  44.1765170  33.5084170 109.0194420  44.2294820
  33.1797530 108.2046180  43.8496550  34.4566470 108.9764230  44.1060510
  35.9618780 124.7906460  41.2032390  35.5021750 125.5422270  40.8290410
  35.3331240 124.0712930  41.1447190  22.7869400 120.8849700  43.5931110
  22.0603460 120.2654990  43.5257060  22.8478550 121.2790310  42.7229190
  26.3914500 123.0994700  40.3780520  26.9079520 122.4882060  39.8528780
  27.0411880 123.6023480  40.8691530  29.1310000 123.9903190  41.2049500
  29.4187810 123.7357490  40.3282510  29.6433220 123.4380550  41.7955070
  30.3487010 107.7293390  41.7846010  29.5658800 108.2038890  42.0642770
  30.0549940 106.8248220  41.6759190  36.7646650 108.0631730  37.8403920
  36.7035050 107.1192950  37.6934940  37.5438680 108.1711820  38.3857380
  21.0699400 124.2024090  36.8027870  20.9021440 123.5694770  37.5009760
  20.2033910 124.4083490  36.4522060  21.6927420 108.0340870  34.3059730
  22.4506780 108.1469750  33.7323760  21.2304590 108.8710070  34.2603160
  28.2341230 110.1480140  37.2962040  27.4215740 109.7737030  36.9557920
  28.7382870 109.3925220  37.5983230  32.7366210 106.8122590  38.5345110
  33.3395580 107.3842800  39.0093630  31.9959200 107.3762030  38.3119010
  35.8800810 107.2144150  33.8085390  36.0751440 108.1127600  34.0752820
  35.0930680 106.9831230  34.3018340  22.6762100 122.8957320  34.2478010
  22.1509720 123.2765350  33.5439970  22.6006680 123.5208090  34.9687720
  24.0652570 108.5604920  32.8461700  24.5945330 107.7734720  32.7169650
  24.6980890 109.2396110  33.0797230  26.2590410 108.2980060  35.9007090
  25.6293150 107.5967370  36.0677220  25.7195550 109.0584190  35.6840250
  29.1982360 124.9119290  48.5717700  30.1249670 124.6763560  48.6153660
  29.1832790 125.7391290  48.0903730  37.4327420 124.4544860  35.5691950
  37.6079610 123.7682600  34.9252870  36.7348990 124.9791910  35.1768620
  26.3845970 107.5764040  48.3359580  26.1030240 108.0797640  47.5720400
  26.7665670 106.7785790  47.9701710  25.2755070 124.8439700  33.1227260
  26.0073890 124.5598980  32.5751150  25.5348740 124.6052980  34.0126640
  24.4369860 120.9604430  33.1273590  23.8078740 121.4289530  33.6759420
  24.5517690 120.1153650  33.5619780  32.9861430 106.9917620  48.9140050
  32.8726880 107.3112230  49.8091570  33.8031170 107.3930130  48.6177330
  35.7659920 124.1389150  48.3958740  36.5585240 123.6438380  48.1884700
  36.0593070 124.8179290  49.0034350  31.8919580 115.0110090  19.2774790
  31.8113630 114.0964700  19.0066500  31.4784000 115.5077160  18.5714500
  30.0237620 116.7889110  21.1584060  29.2479720 116.3089550  21.4482630
  30.6750550 116.1094760  20.9840220  24.0403450 117.1008920  22.0359820
  23.2088330 116.8457630  22.4356330  24.6484430 117.1719690  22.7717740
  34.0445050 121.1949300  19.9383190  33.5826580 120.4236540  20.2670360
  34.8570600 121.2215370  20.4435640  24.0204710 121.1349010  22.2317840
  24.3232750 120.2446750  22.0528060  24.7648300 121.6919230  22.0040090
  22.4495400 112.0610810  15.8202210  21.5612100 112.4026780  15.7182090
  22.7336590 111.8611130  14.9283040  20.4128410 114.6616460  21.7041910
  20.9844520 113.8938660  21.7045550  20.4129950 114.9605220  20.7948520
  30.2708360 123.4807310  19.5587180  29.6519800 123.9364810  18.9881620
  31.1260140 123.6358770  19.1576880  29.4646610 119.4646300  21.1654220
  29.3954890 118.5236240  21.0043350  30.2266470 119.5547710  21.7376790
  21.6553280 110.0700820  23.4910840  21.4756120 109.1726570  23.7713600
  21.2533360 110.6172690  24.1657790  30.4951780 112.2716680  21.3923150
  30.8716600 111.3988560  21.2796820  30.3971290 112.6075380  20.5013590
  24.6256790 110.6442310  16.8540590  24.7323540 111.5446040  17.1609350
  23.7149150 110.5960280  16.5635240  34.2775900 109.7667120  18.3251490
  35.0985520 109.2763690  18.3676970  34.3109980 110.3564780  19.0783330
  22.2739950 112.5661320  22.0993180  22.9550060 112.8299690  22.7180580
  21.9588000 111.7262190  22.4331190  26.4664520 113.6128680  21.1865770
  26.9742740 114.1109650  21.8270790  26.9977760 112.8363880  21.0105130
  38.5675450 111.7833870  24.8895120  37.8627620 112.1715580  24.3710230
  38.8333370 112.4784160  25.4916050  24.7500620 108.2527240  25.4529190
  24.7519060 108.7699630  24.6475090  23.9204930 107.7757420  25.4299120
  31.1371710 118.3646550  16.9519090  30.5188980 118.8296000  16.3881810
  31.6494960 119.0574030  17.3688600  26.0003470 117.8922420  23.6302690
  25.6672850 118.5191340  24.2723760  26.1770150 118.4184300  22.8504360
  34.5137380 111.7067500  21.0979030  33.8092950 111.9952390  21.6782140
  34.8749540 112.5167610  20.7378590  24.4315950 109.9637200  23.4599640
  24.7732760 110.8079250  23.1653510  23.4931760 110.1120940  23.5764980
  25.2122570 119.8603220  25.4451870  25.8296570 120.5354300  25.1636320
  24.3515690 120.2691200  25.3539370  20.5054910 119.0503080  14.3258720
  20.1282890 119.5390180  13.5943620  20.7627980 119.7228360  14.9565250
  36.1300160 121.3242630  23.3606510  35.4463680 121.9941740  23.3523180
  36.6694450 121.5223280  22.5951370  37.5824300 111.1522290  21.4888240
  36.6349210 111.1861270  21.6203670  37.9074290 111.9661240  21.8737600
  28.1143840 107.4519470  19.7844230  28.4218820 106.8966360  19.0679730
  27.1844540 107.5863930  19.6017220  33.6658900 123.1686760  22.0751690
  33.6786060 122.7649050  21.2073950  33.1134120 123.9434050  21.9713120
  34.9604320 119.8902980  17.1641860  34.8500650 118.9477310  17.2891280
  34.9572570 120.2518620  18.0504620  33.0644340 118.0716600  23.4034300
  33.4813130 117.8576710  22.5687760  33.7884160 118.3289390  23.9742920
  30.5024600 115.5168300  16.5204350  29.5753880 115.4505680  16.7492820
  30.6549420 116.4548430  16.4059590  30.4893680 111.7885300  13.5171510
  29.5497350 111.9499260  13.6023970  30.8076940 112.5070980  12.9707500
  37.0106440 116.4703820  23.4950540  36.1825070 116.5396910  23.0200670
  37.6056920 117.0558130  23.0266370  34.5321890 117.0788600  17.0239600
  33.9134310 116.7408150  16.3765900  34.5146340 116.4348360  17.7318790
  33.9748450 113.2573140  24.4405410  33.5619630 114.0826850  24.6945400
  33.2424400 112.6718180  24.2481770  26.1081240 116.0433040  19.3024080
  25.7038240 115.3310290  18.8069980  26.1944360 115.6986280  20.1912120
  26.5762940 119.7300600  21.4663290  26.2791230 119.1246070  20.7871070
  27.5262760 119.7677910  21.3552650  24.8209860 112.8176250  23.0823120
  25.3724450 112.9271590  22.3076370  25.3353370 113.1913850  23.7978350
  34.6648550 123.3032470  25.1286390  34.1879110 124.1104660  24.9359000
  33.9810340 122.6510800  25.2812600  25.6681370 119.4682290  28.1171090
  24.7709900 119.6922260  28.3644490  25.6934240 119.5917230  27.1682490
  32.7086590 116.3175410  14.0312350  33.1479870 115.4797840  13.8850170
  33.4215010 116.9504810  14.1176490  24.4952590 116.3395610  26.6928460
  24.3560360 117.2118410  27.0615860  23.6133950 115.9968420  26.5476400
  30.8181970 121.2571480  17.9993590  31.2577880 121.9995810  17.5848980
  30.7568860 121.4998050  18.9232550  26.2932940 122.2817310  28.9013610
  26.2648370 122.6860260  28.0342040  26.1297910 121.3527670  28.7385210
  36.2903730 107.5718220  12.3453390  35.9776390 107.6645050  13.2452460
  37.0516200 108.1499250  12.2950820  22.8085870 114.9378020  16.8030730
  22.6883470 115.6640110  16.1912000  22.4986760 114.1680930  16.3258640
  38.2447760 123.0644410  30.1977780  38.7207480 123.5427300  30.8766860
  38.8654920 122.9961900  29.4723280  20.4471240 118.1093160  22.6099370
  20.5251660 118.2441930  21.6655090  21.0612920 117.4009050  22.8027490
  21.6918870 119.8093350  19.0205550  21.2846950 119.9507940  18.1659150
  22.5831880 119.5253510  18.8176760  37.6481010 120.2557260  27.3577790
  37.7744070 120.0169140  26.4394970  37.6902390 119.4241800  27.8299870
  31.5097750 123.9585260  25.9272600  32.0242420 123.8693270  26.7295030
  30.6666830 124.3044960  26.2200510  33.4852150 124.2440600  15.3556600
  33.3253290 123.9543540  16.2538430  33.3198860 123.4680730  14.8201830
  25.9640530 124.0239130  17.1328220  25.7883010 123.1074670  16.9196020
  25.1096270 124.3826420  17.3726020  33.1878280 121.7528160  13.9154600
  32.4943440 121.7505450  13.2556880  33.9301140 121.3287480  13.4848770
  32.7528210 123.3790870  17.9903090  33.2085160 122.5980250  18.3041710
  33.0920730 124.0897690  18.5344270  37.5005020 112.3089720  28.3227530
  36.8849290 112.8169390  27.7942990  37.1801440 111.4088050  28.2653470
  20.5030760 119.1507330  25.1493830  20.6661800 118.6812690  24.3313200
  20.9683210 118.6430890  25.8142670  25.2749530 108.2813090  20.1854400
  24.8317680 109.0622630  19.8538920  25.8334520 108.6042980  20.8925340
  29.5619340 111.1481610  25.7889720  29.0998710 111.3564630  26.6009660
  29.1597450 110.3340960  25.4860390  34.5623850 112.3690560  26.9186380
  33.7117440 112.0696310  27.2395450  34.4025640 112.6132570  26.0070200
  31.6573560 113.8692310  29.0185170  31.9826970 113.0356060  28.6787400
  32.4453890 114.3920830  29.1663500  28.3908350 107.9023790  15.0660230
  27.7662530 107.8983660  15.7913540  28.3038470 107.0354750  14.6696200
  27.3125430 108.8260420  22.0444000  27.6097760 109.7323250  21.9636020
  27.8610990 108.3379200  21.4303570  25.0663750 113.4046660  17.9135650
  24.8404670 113.1883830  18.8182270  24.2856280 113.8375120  17.5681620
  32.2961510 113.4110030  16.5126300  31.6970400 114.1345830  16.3289920
  32.8441120 113.3486810  15.7302750  27.5062960 114.3032240  28.5795920
  27.4106560 113.3626970  28.4296320  28.3494940 114.5247310  28.1843990
  30.9026380 112.0473570  18.5429580  31.2955950 112.3645770  17.7298270
  31.2643230 111.1685450  18.6574100  22.6373500 110.7145910  26.7329700
  22.2436890 111.5621120  26.9402480  21.9491900 110.0772280  26.9238340
  29.2118550 110.7980880  29.8026440  28.5216870 110.6053080  30.4372530
  29.9550850 111.0815520  30.3350740  19.9390550 108.6374370  20.7659780
  19.6503600 109.2077230  21.4784760  20.6836310 108.1578820  21.1291010
  20.1260780 112.5794490  11.9762500  20.0435450 113.5225250  12.1177490
  19.7743840 112.4369400  11.0974850  31.4881520 114.6379320  22.6380360
  30.7562640 115.1466130  22.9870460  31.0905860 113.8209300  22.3369140
  27.9258910 111.3133520  21.0432850  27.9294970 110.8723470  20.1937390
  28.8210030 111.6350850  21.1504670  23.7761290 111.1960010  20.0027060
  23.4361340 111.6735240  20.7594110  23.0138610 110.7425130  19.6428160
  27.9879060 112.3145600  14.0339610  28.1091880 112.2732080  14.9825430
  27.6027570 113.1769750  13.8786340  31.9507430 110.0913000  22.0503300
  31.9680170 110.5421650  22.8945150  31.7023010 109.1918640  22.2636740
  27.0000560 114.6246740  13.4322910  26.4317460 114.1764990  12.8058820
  27.7089560 114.9839520  12.8988060  35.3778180 107.5045180  27.8889680
  35.7023950 106.7734840  28.4147660  35.4134690 107.1858820  26.9870670
  22.0769740 118.5258760  27.3089640  21.6924530 117.8852430  27.9072600
  22.3881930 119.2294880  27.8784370  28.2266880 115.3735300  22.7898260
  28.5937010 114.8993870  23.5359600  28.0371940 116.2476870  23.1306600
  21.0907370 110.1178990  18.9191730  20.8054290 109.7534660  19.7570350
  21.0286230 109.3859450  18.3054870  26.0166250 114.4143940  25.1082470
  25.7123320 115.2935920  25.3332830  26.9712710 114.4743730  25.1439910
  24.5448040 118.6204930  15.7049320  23.7710300 118.0802550  15.5448040
  25.2742670 118.1011540  15.3667080  35.3036020 117.6170290  21.4975710
  36.0235140 118.1125580  21.1071820  35.1017840 116.9388180  20.8529580
  30.7645960 109.0108250  15.6405100  29.9510570 108.5121420  15.5650410
  30.5707910 109.8506500  15.2241450  30.6854820 117.6879350  27.3844710
  30.6192130 116.7675020  27.1302300  30.0559960 117.7854790  28.0989350
  33.4794350 113.3827900  13.9367260  34.3673970 113.6945130  13.7618600
  33.4499440 112.5100150  13.5447840  24.5885440 118.2885310  19.3428130
  25.1064110 117.4853570  19.2885020  24.1369460 118.2264450  20.1844960
  29.4754940 119.5551590  14.6155430  29.8170640 120.2993820  14.1198750
  28.6467650 119.8682710  14.9780260  22.0729980 115.2546680  26.2553830
  21.7144920 115.9200530  26.8427170  21.7784540 114.4230230  26.6266450
  25.2743100 115.7130920  29.1393380  24.9743240 115.8588100  28.2421200
  26.0454340 115.1536210  29.0466770  30.6171550 120.5099920  27.1348510
  30.6316090 119.5780880  26.9167420  29.9096650 120.5959680  27.7738280
  35.7508620 114.6939740  13.4047120  35.6672340 115.1253960  12.5543560
  36.4702810 115.1538090  13.8373940  36.8282760 117.1507260  26.4817090
  36.1030950 117.7436040  26.2846480  37.3558220 117.1430800  25.6830460
  36.7795870 121.5482000  16.1329250  36.1372030 120.8937620  16.4072970
  36.3926530 121.9537090  15.3569920  32.3582350 118.8767430  19.9800940
  32.7106170 118.2795560  19.3202310  31.4744680 118.5511660  20.1509190
  28.4445630 119.6365120  17.3871350  29.1316760 120.1834330  17.7678940
  27.6578050 120.1805850  17.4220960  20.5838030 115.2537940  12.8788430
  21.4532880 115.5362740  13.1624350  20.0928350 116.0673810  12.7637240
  27.7472840 116.6411150  16.9996710  28.2035620 117.4516400  17.2256900
  27.3961050 116.3234290  17.8315200  30.0505450 122.1517490  24.2289010
  30.6947670 122.3576870  24.9062430  30.4134890 121.3905890  23.7759860
  23.6484620 106.9848800  17.4719230  23.5199250 106.9766700  18.4204150
  22.8246640 107.3231890  17.1210240  31.3237530 120.1549840  22.9466460
  31.9659760 119.4543000  23.0598630  31.8486880 120.9348280  22.7663350
  35.1693250 120.4398460  12.6705600  34.9430830 119.7228900  13.2630240
  34.7789450 120.1910900  11.8327350  33.0975150 120.9544740  26.1502520
  33.4331390 121.5411430  26.8280440  32.1775490 120.8237450  26.3800310
  20.9509280 124.4665320  13.4450060  21.3106920 125.0654660  12.7907330
  20.8101620 125.0125210  14.2185090  20.6478550 108.7439920  26.9325930
  19.9337070 108.9436840  27.5378540  21.0673590 107.9679490  27.3040730
  34.7509500 118.3570400  14.3319760  34.4631200 118.8183090  15.1197640
  35.5461670 117.8968170  14.6003980  20.9351140 122.7320180  27.9192460
  21.0442260 121.7914920  27.7787850  20.2831700 122.9974930  27.2706190
  28.9263730 121.0036070  29.3190580  28.6060600 120.2845310  29.8636270
  28.2522090 121.6791140  29.3926640  26.9677900 121.8496520  14.2623730
  26.9588000 122.5826210  13.6468240  26.0476260 121.6028100  14.3550690
  22.5684540 117.0711410  15.0070490  21.9612490 117.8110310  15.0165790
  23.0433890 117.1610770  14.1808690  32.1417330 111.2362230  24.6827380
  32.5098150 110.4157440  25.0106950  31.2815530 111.2964120  25.0983030
  35.5079360 110.1919170  15.4914940  34.8792520 110.2964840  14.7773170
  35.0131280 110.4115950  16.2808820  29.9537500 121.9124760  12.9248920
  30.0549480 121.7088750  11.9950900  29.0539240 121.6583040  13.1296700
  27.4763390 112.4705120  16.9072820  26.7679540 112.9391460  17.3486430
  27.7607870 111.8127130  17.5418010  29.1019320 113.8901820  24.9065350
  29.6004570 114.3647640  25.5717200  29.2442270 112.9665340  25.1135380
  31.5078820 109.1955780  18.3468610  31.3846600 109.2141910  17.3978120
  32.4563380 109.2434720  18.4667010  28.5955610 124.4311080  17.6196590
  28.8497110 124.3932470  16.6975960  27.6468090 124.3044410  17.6124840
  25.6798410 110.7790200  14.2823530  26.5288940 111.2160350  14.2163720
  25.3129680 111.0910460  15.1095590  36.3086180 110.1069780  25.7493740
  35.8059780 110.8475180  26.0887550  37.1242840 110.4953780  25.4330530
  34.6008190 115.3502960  19.1955100  33.6598330 115.3653190  19.3702790
  34.9152260 114.5638920  19.6415400  24.5789830 117.0322560  12.7559060
  25.3453100 116.9203920  13.3184490  24.6564520 116.3360530  12.1035830
  23.2736590 114.4647630  13.4391950  23.3540180 113.5175140  13.5509350
  24.1656340 114.7954510  13.5452610  36.6033770 122.5211810  20.8709360
  36.7281190 123.3442980  21.3433170  37.4699330 122.3102540  20.5233510
  24.0751300 124.6143020  20.5426490  24.8113780 124.0658480  20.8135060
  24.4592220 125.4799030  20.4032480  20.9596780 120.6816590  16.4168000
  20.0336560 120.9237730  16.4073410  21.4253210 121.5090850  16.2952750
  23.0809580 123.7989090  29.7312070  23.8822310 124.1201140  30.1447470
  22.5661400 123.4384670  30.4531980  27.1853610 123.7873330  12.3652060
  27.9782220 124.0762160  11.9133850  26.6657960 123.3565500  11.6864540
  31.9174210 119.9068960  29.6787480  31.3112370 119.9300560  28.9383230
  31.6128320 119.1752000  30.2154730  33.3474580 123.6349250  28.2896890
  34.2996330 123.5507270  28.2397130  33.2002800 124.2990960  28.9630680
  36.2383780 123.0143460  13.7888800  35.9525290 122.6008600  12.9742980
  36.0403330 123.9431170  13.6689320  20.8007390 116.2862550  28.6748120
  21.3046410 115.7069830  29.2464350  20.0614810 116.5702780  29.2124490
  27.7031010 119.0076740  12.2294410  27.5981650 118.3929090  12.9555790
  27.5355230 118.4842630  11.4457420  27.8545330 117.6933540  28.2083640
  27.0891000 118.2618540  28.1238310  28.0361290 117.4009750  27.3151870
  30.9433740 118.0696770  12.8336400  30.3943840 118.5166070  13.4779140
  31.5653000 117.5646020  13.3574070  34.9968680 119.4238870  28.7658660
  35.7378150 119.7614630  28.2626120  34.2341360 119.5930930  28.2128430
  22.8330470 114.4292140  29.5698190  22.8735810 114.1306010  30.4783420
  23.6875970 114.8299750  29.4105710  26.6108860 117.0287690  14.7301700
  27.0325280 116.8627560  15.5733090  26.7359700 116.2187920  14.2356840
  24.7736280 113.0084240  27.5372680  24.2432740 112.5175190  26.9096020
  25.4424350 113.4368440  27.0030610  29.1236500 116.0525300  11.9778800
  29.6442160 115.3374320  11.6119950  29.7704900 116.6911170  12.2779310
  33.6714340 117.4753700  27.3013870  34.0855360 117.6298780  28.1504290
  32.7365340 117.6008920  27.4639650  34.1436510 114.8149860  29.3053020
  34.7257280 114.0602180  29.2173500  34.3198280 115.3457300  28.5284500
  25.2608580 109.9746610  27.6169970  25.1665450 109.3567360  26.8920840
  24.6805970 110.7012900  27.3899880  28.0270020 108.5319850  24.6497360
  27.5787320 108.5544110  23.8042910  27.3935220 108.1338870  25.2467660
  28.4329570 117.4274180  25.2709800  28.8517680 118.2706910  25.0986040
  27.5138200 117.5646220  25.0416580  30.7693470 115.1590360  26.6547640
  30.8889680 114.5631500  27.3942480  31.6287470 115.1960050  26.2348940
  33.1081370 115.7127550  25.2310150  32.5816590 116.2370170  24.6275290
  33.4512710 116.3454940  25.8619880  25.5067760 113.1020920  11.6759860
  25.3056820 112.2388280  12.0373200  25.3359810 113.0154280  10.7381460
  26.2836990 123.7327190  26.3867530  25.7458080 124.4573250  26.0676230
  26.5370950 123.2557530  25.5964870  27.5362240 111.7011710  27.9123460
  28.1261930 111.3927560  28.6001280  26.7182480 111.2291460  28.0683360
  32.3555670 111.3177520  28.1456480  31.6671190 110.6559060  28.0806470
  33.0761690 110.8715790  28.5904940  32.9856070 107.9129150  14.2046740
  33.2658360 107.0697050  14.5606160  32.2121800 108.1452260  14.7185490
  24.3050560 110.2021540  11.6637740  24.6076460 110.2088970  10.7556890
  25.0445150 109.8519400  12.1605400  29.1399200 124.9678400  26.6454180
  29.0657900 125.8713540  26.9526550  28.2378040 124.6490300  26.6176250
  27.5235490 109.1456160  12.6493940  27.1757490 108.4680150  12.0696390
  27.7248260 108.6845670  13.4637330  29.6884530 124.1336910  14.2680540
  30.5835320 124.4721880  14.2899300  29.7202160 123.4116320  13.6404820
  23.3280690 119.5063960  12.4967540  23.7655560 120.0493630  13.1525120
  23.8128420 118.6810910  12.5063880  20.5426490 122.2952990  19.9487800
  20.8729500 121.4274050  19.7166440  20.9717490 122.5011510  20.7792760
  25.1388410 120.6262000  17.6089770  24.8383950 120.5026970  18.5093680
  25.0325900 119.7670590  17.2005500  21.0316700 123.1623580  22.6869430
  20.5947690 123.3424380  23.5193580  21.5994380 123.9198200  22.5451150
  36.6678880 122.6640580  26.9746740  36.0680870 122.7233140  26.2310660
  36.7972780 121.7245560  27.1043590  37.9080330 120.4058400  12.3116450
  37.0773290 120.4735050  12.7823680  38.0852160 121.2962520  12.0083310
  37.3636790 117.1505880  14.8150650  38.1255700 117.7202530  14.9210340
  37.3791160 116.5833080  15.5858960  20.8641130 115.6743810  19.0458310
  20.2089970 115.4055450  18.4018010  21.7019080 115.5648290  18.5960290
  38.3696760 118.0055980  19.6592580  38.7405590 117.2223300  19.2528550
  39.0098690 118.6945080  19.4809880  35.3530520 119.3892560  25.0722900
  34.5390360 119.8189720  25.3348690  35.7604720 120.0010970  24.4591950
  37.4155960 117.4440250  11.9723170  37.6904800 118.3519130  11.8442390
  37.2266700 117.3802780  12.9085160  33.8131570 110.4685100  13.2676800
  34.2316450 110.2816080  12.4273460  33.5067630 109.6164150  13.5779730
  37.3121300 115.3809240  16.9652600  36.9364900 114.6137170  16.5333890
  36.5824420 115.7631940  17.4527530  21.9017060 116.0596380  23.5861650
  22.2690100 115.9723780  24.4657670  21.3327880 115.2962930  23.4868510
  36.7020920 114.5280760  26.5992120  36.4707010 114.2993510  25.6990070
  36.9625470 115.4480310  26.5537010  21.4533060 112.9705470  27.4920070
  20.5589110 112.9372230  27.8313780  21.9930610 113.1692260  28.2571320
  35.1408990 109.7537190  29.3771820  36.0179170 109.7620590  29.7605820
  35.1529830 109.0168030  28.7664170  20.0779210 112.8842740  14.9883640
  19.1743290 113.1472940  14.8135300  20.5619830 113.1553910  14.2083600
  36.5872260 113.6066730  20.2659840  37.1109740 113.1129380  19.6350010
  37.1731680 113.7417090  21.0107410  36.7661980 113.6906600  23.7879390
  35.8164690 113.6570140  23.9024380  36.9474990 114.6006710  23.5529160
  22.6206420 111.9408280  12.8978020  23.3298120 111.5191500  12.4125300
  21.9046360 112.0083510  12.2661370  22.2680580 107.9947610  11.9380670
  22.9908710 108.5356550  12.2561890  22.5405100 107.7211030  11.0622210
  36.0772230 112.8640080  16.2052250  36.5731350 112.6310950  16.9901130
  35.8788300 112.0251920  15.7889890  21.9572770 107.2453800  21.8403290
  22.6048960 106.6951180  21.3998450  22.3774610 107.4996950  22.6619100
  37.5059390 111.5001030  18.7389930  37.3958670 111.3457070  19.6772200
  38.2666980 110.9721970  18.4965340  35.8525110 107.4395160  25.1972930
  36.4897330 108.0529300  25.5632120  36.0000000 107.4755820  24.2522160
  38.3949660 109.3308950  11.9796070  39.3198970 109.1990130  11.7714360
  38.3725450 109.4101770  12.9332520  38.4688150 110.1019610  14.6052780
  37.6739650 110.0364730  15.1345690  38.6731430 111.0370250  14.5938130
  35.4106570 124.1411160  18.5991170  36.0065640 123.8195730  17.9225590
  35.6684720 123.6682980  19.3904440  21.7104770 107.4009470  24.5828610
  21.3619590 107.8573290  25.3486790  21.3792470 106.5066600  24.6651040
  23.3169140 120.5729070  28.7481800  23.2738770 120.2021980  29.6296260
  23.4480150 121.5106640  28.8883620  27.0175170 122.1288660  24.3491520
  26.7766530 122.3963220  23.4622040  27.9577810 122.2994390  24.4042380
  29.2229590 108.5921350  28.1048030  29.1618480 109.1843180  28.8543440
  30.1629970 108.4847310  27.9598290  31.8604150 108.2491410  27.7440320
  32.4744560 108.5670700  27.0821400  32.4053710 107.7640000  28.3636180
  38.2779330 124.1483040  25.1502160  37.7837610 124.5451910  24.4329290
  37.6692620 123.5232250  25.5439440  22.3825410 106.9285670  27.8579380
  22.9308400 106.7473720  27.0945490  22.4480720 106.1379780  28.3935690
  23.1557170 123.5191320  25.8679580  22.5617490 123.3876020  26.6069620
  23.1481010 122.6829460  25.4021680  32.6012190 106.8123550  24.0709610
  31.7272030 107.1458660  23.8682540  32.4922940 106.3396730  24.8961480
  33.5084170 109.0194420  25.4551330  33.1797530 108.2046180  25.0753060
  34.4566470 108.9764230  25.3317020  35.9618780 124.7906460  22.4288900
  35.5021750 125.5422270  22.0546920  35.3331240 124.0712930  22.3703700
  22.7869400 120.8849700  24.8187620  22.0603460 120.2654990  24.7513570
  22.8478550 121.2790310  23.9485700  26.3914500 123.0994700  21.6037030
  26.9079520 122.4882060  21.0785290  27.0411880 123.6023480  22.0948040
  29.1310000 123.9903190  22.4306010  29.4187810 123.7357490  21.5539020
  29.6433220 123.4380550  23.0211580  30.3487010 107.7293390  23.0102520
  29.5658800 108.2038890  23.2899280  30.0549940 106.8248220  22.9015700
  34.9008080 108.4316490  21.0551610  35.3416170 108.3761590  20.2073210
  34.6315670 109.3474500  21.1261790  36.7646650 108.0631730  19.0660430
  36.7035050 107.1192950  18.9191450  37.5438680 108.1711820  19.6113890
  21.0699400 124.2024090  18.0284380  20.9021440 123.5694770  18.7266270
  20.2033910 124.4083490  17.6778570  21.6927420 108.0340870  15.5316240
  22.4506780 108.1469750  14.9580270  21.2304590 108.8710070  15.4859670
  28.2341230 110.1480140  18.5218550  27.4215740 109.7737030  18.1814430
  28.7382870 109.3925220  18.8239740  32.7366210 106.8122590  19.7601620
  33.3395580 107.3842800  20.2350140  31.9959200 107.3762030  19.5375520
  35.8800810 107.2144150  15.0341900  36.0751440 108.1127600  15.3009330
  35.0930680 106.9831230  15.5274850  22.6762100 122.8957320  15.4734520
  22.1509720 123.2765350  14.7696480  22.6006680 123.5208090  16.1944230
  24.0652570 108.5604920  14.0718210  24.5945330 107.7734720  13.9426160
  24.6980890 109.2396110  14.3053740  26.2590410 108.2980060  17.1263600
  25.6293150 107.5967370  17.2933730  25.7195550 109.0584190  16.9096760
  29.1982360 124.9119290  29.7974210  30.1249670 124.6763560  29.8410170
  29.1832790 125.7391290  29.3160240  37.4327420 124.4544860  16.7948460
  37.6079610 123.7682600  16.1509380  36.7348990 124.9791910  16.4025130
  26.3845970 107.5764040  29.5616090  26.1030240 108.0797640  28.7976910
  26.7665670 106.7785790  29.1958220  25.2755070 124.8439700  14.3483770
  26.0073890 124.5598980  13.8007660  25.5348740 124.6052980  15.2383150
  24.4369860 120.9604430  14.3530100  23.8078740 121.4289530  14.9015930
  24.5517690 120.1153650  14.7876290  32.9861430 106.9917620  30.1396560
  32.8726880 107.3112230  31.0348080  33.8031170 107.3930130  29.8433840
  35.7659920 124.1389150  29.6215250  36.5585240 123.6438380  29.4141210
  36.0593070 124.8179290  30.2290860  30.0237620 116.7889110   2.3840570
  29.2479720 116.3089550   2.6739140  30.6750550 116.1094760   2.2096730
  24.0403450 117.1008920   3.2616330  23.2088330 116.8457630   3.6612840
  24.6484430 117.1719690   3.9974250  24.0204710 121.1349010   3.4574350
  24.3232750 120.2446750   3.2784570  24.7648300 121.6919230   3.2296600
  20.4128410 114.6616460   2.9298420  20.9844520 113.8938660   2.9302060
  20.4129950 114.9605220   2.0205030  29.4646610 119.4646300   2.3910730
  29.3954890 118.5236240   2.2299860  30.2266470 119.5547710   2.9633300
  21.6553280 110.0700820   4.7167350  21.4756120 109.1726570   4.9970110
  21.2533360 110.6172690   5.3914300  30.4951780 112.2716680   2.6179660
  30.8716600 111.3988560   2.5053330  30.3971290 112.6075380   1.7270100
  22.2739950 112.5661320   3.3249690  22.9550060 112.8299690   3.9437090
  21.9588000 111.7262190   3.6587700  26.4664520 113.6128680   2.4122280
  26.9742740 114.1109650   3.0527300  26.9977760 112.8363880   2.2361640
  38.5675450 111.7833870   6.1151630  37.8627620 112.1715580   5.5966740
  38.8333370 112.4784160   6.7172560  24.7500620 108.2527240   6.6785700
  24.7519060 108.7699630   5.8731600  23.9204930 107.7757420   6.6555630
  26.0003470 117.8922420   4.8559200  25.6672850 118.5191340   5.4980270
  26.1770150 118.4184300   4.0760870  34.5137380 111.7067500   2.3235540
  33.8092950 111.9952390   2.9038650  34.8749540 112.5167610   1.9635100
  24.4315950 109.9637200   4.6856150  24.7732760 110.8079250   4.3910020
  23.4931760 110.1120940   4.8021490  25.2122570 119.8603220   6.6708380
  25.8296570 120.5354300   6.3892830  24.3515690 120.2691200   6.5795880
  36.1300160 121.3242630   4.5863020  35.4463680 121.9941740   4.5779690
  36.6694450 121.5223280   3.8207880  37.5824300 111.1522290   2.7144750
  36.6349210 111.1861270   2.8460180  37.9074290 111.9661240   3.0994110
  33.6658900 123.1686760   3.3008200  33.6786060 122.7649050   2.4330460
  33.1134120 123.9434050   3.1969630  33.0644340 118.0716600   4.6290810
  33.4813130 117.8576710   3.7944270  33.7884160 118.3289390   5.1999430
  37.0106440 116.4703820   4.7207050  36.1825070 116.5396910   4.2457180
  37.6056920 117.0558130   4.2522880  33.9748450 113.2573140   5.6661920
  33.5619630 114.0826850   5.9201910  33.2424400 112.6718180   5.4738280
  26.5762940 119.7300600   2.6919800  26.2791230 119.1246070   2.0127580
  27.5262760 119.7677910   2.5809160  24.8209860 112.8176250   4.3079630
  25.3724450 112.9271590   3.5332880  25.3353370 113.1913850   5.0234860
  34.6648550 123.3032470   6.3542900  34.1879110 124.1104660   6.1615510
  33.9810340 122.6510800   6.5069110  25.6681370 119.4682290   9.3427600
  24.7709900 119.6922260   9.5901000  25.6934240 119.5917230   8.3939000
  24.4952590 116.3395610   7.9184970  24.3560360 117.2118410   8.2872370
  23.6133950 115.9968420   7.7732910  26.2932940 122.2817310  10.1270120
  26.2648370 122.6860260   9.2598550  26.1297910 121.3527670   9.9641720
  38.2447760 123.0644410  11.4234290  38.7207480 123.5427300  12.1023370
  38.8654920 122.9961900  10.6979790  20.4471240 118.1093160   3.8355880
  20.5251660 118.2441930   2.8911600  21.0612920 117.4009050   4.0284000
  37.6481010 120.2557260   8.5834300  37.7744070 120.0169140   7.6651480
  37.6902390 119.4241800   9.0556380  31.5097750 123.9585260   7.1529110
  32.0242420 123.8693270   7.9551540  30.6666830 124.3044960   7.4457020
  37.5005020 112.3089720   9.5484040  36.8849290 112.8169390   9.0199500
  37.1801440 111.4088050   9.4909980  20.5030760 119.1507330   6.3750340
  20.6661800 118.6812690   5.5569710  20.9683210 118.6430890   7.0399180
  29.5619340 111.1481610   7.0146230  29.0998710 111.3564630   7.8266170
  29.1597450 110.3340960   6.7116900  34.5623850 112.3690560   8.1442890
  33.7117440 112.0696310   8.4651960  34.4025640 112.6132570   7.2326710
  31.6573560 113.8692310  10.2441680  31.9826970 113.0356060   9.9043910
  32.4453890 114.3920830  10.3920010  27.3125430 108.8260420   3.2700510
  27.6097760 109.7323250   3.1892530  27.8610990 108.3379200   2.6560080
  27.5062960 114.3032240   9.8052430  27.4106560 113.3626970   9.6552830
  28.3494940 114.5247310   9.4100500  22.6373500 110.7145910   7.9586210
  22.2436890 111.5621120   8.1658990  21.9491900 110.0772280   8.1494850
  29.2118550 110.7980880  11.0282950  28.5216870 110.6053080  11.6629040
  29.9550850 111.0815520  11.5607250  19.9390550 108.6374370   1.9916290
  19.6503600 109.2077230   2.7041270  20.6836310 108.1578820   2.3547520
  31.4881520 114.6379320   3.8636870  30.7562640 115.1466130   4.2126970
  31.0905860 113.8209300   3.5625650  27.9258910 111.3133520   2.2689360
  27.9294970 110.8723470   1.4193900  28.8210030 111.6350850   2.3761180
  31.9507430 110.0913000   3.2759810  31.9680170 110.5421650   4.1201660
  31.7023010 109.1918640   3.4893250  35.3778180 107.5045180   9.1146190
  35.7023950 106.7734840   9.6404170  35.4134690 107.1858820   8.2127180
  22.0769740 118.5258760   8.5346150  21.6924530 117.8852430   9.1329110
  22.3881930 119.2294880   9.1040880  28.2266880 115.3735300   4.0154770
  28.5937010 114.8993870   4.7616110  28.0371940 116.2476870   4.3563110
  26.0166250 114.4143940   6.3338980  25.7123320 115.2935920   6.5589340
  26.9712710 114.4743730   6.3696420  35.3036020 117.6170290   2.7232220
  36.0235140 118.1125580   2.3328330  35.1017840 116.9388180   2.0786090
  30.6854820 117.6879350   8.6101220  30.6192130 116.7675020   8.3558810
  30.0559960 117.7854790   9.3245860  22.0729980 115.2546680   7.4810340
  21.7144920 115.9200530   8.0683680  21.7784540 114.4230230   7.8522960
  25.2743100 115.7130920  10.3649890  24.9743240 115.8588100   9.4677710
  26.0454340 115.1536210  10.2723280  30.6171550 120.5099920   8.3605020
  30.6316090 119.5780880   8.1423930  29.9096650 120.5959680   8.9994790
  36.8282760 117.1507260   7.7073600  36.1030950 117.7436040   7.5102990
  37.3558220 117.1430800   6.9086970  30.0505450 122.1517490   5.4545520
  30.6947670 122.3576870   6.1318940  30.4134890 121.3905890   5.0016370
  31.3237530 120.1549840   4.1722970  31.9659760 119.4543000   4.2855140
  31.8486880 120.9348280   3.9919860  33.0975150 120.9544740   7.3759030
  33.4331390 121.5411430   8.0536950  32.1775490 120.8237450   7.6056820
  20.6478550 108.7439920   8.1582440  19.9337070 108.9436840   8.7635050
  21.0673590 107.9679490   8.5297240  20.9351140 122.7320180   9.1448970
  21.0442260 121.7914920   9.0044360  20.2831700 122.9974930   8.4962700
  28.9263730 121.0036070  10.5447090  28.6060600 120.2845310  11.0892780
  28.2522090 121.6791140  10.6183150  32.1417330 111.2362230   5.9083890
  32.5098150 110.4157440   6.2363460  31.2815530 111.2964120   6.3239540
  29.1019320 113.8901820   6.1321860  29.6004570 114.3647640   6.7973710
  29.2442270 112.9665340   6.3391890  36.3086180 110.1069780   6.9750250
  35.8059780 110.8475180   7.3144060  37.1242840 110.4953780   6.6587040
  36.6033770 122.5211810   2.0965870  36.7281190 123.3442980   2.5689680
  37.4699330 122.3102540   1.7490020  24.0751300 124.6143020   1.7683000
  24.8113780 124.0658480   2.0391570  24.4592220 125.4799030   1.6288990
  23.0809580 123.7989090  10.9568580  23.8822310 124.1201140  11.3703980
  22.5661400 123.4384670  11.6788490  31.9174210 119.9068960  10.9043990
  31.3112370 119.9300560  10.1639740  31.6128320 119.1752000  11.4411240
  33.3474580 123.6349250   9.5153400  34.2996330 123.5507270   9.4653640
  33.2002800 124.2990960  10.1887190  20.8007390 116.2862550   9.9004630
  21.3046410 115.7069830  10.4720860  20.0614810 116.5702780  10.4381000
  27.8545330 117.6933540   9.4340150  27.0891000 118.2618540   9.3494820
  28.0361290 117.4009750   8.5408380  34.9968680 119.4238870   9.9915170
  35.7378150 119.7614630   9.4882630  34.2341360 119.5930930   9.4384940
  22.8330470 114.4292140  10.7954700  22.8735810 114.1306010  11.7039930
  23.6875970 114.8299750  10.6362220  24.7736280 113.0084240   8.7629190
  24.2432740 112.5175190   8.1352530  25.4424350 113.4368440   8.2287120
  33.6714340 117.4753700   8.5270380  34.0855360 117.6298780   9.3760800
  32.7365340 117.6008920   8.6896160  34.1436510 114.8149860  10.5309530
  34.7257280 114.0602180  10.4430010  34.3198280 115.3457300   9.7541010
  25.2608580 109.9746610   8.8426480  25.1665450 109.3567360   8.1177350
  24.6805970 110.7012900   8.6156390  28.0270020 108.5319850   5.8753870
  27.5787320 108.5544110   5.0299420  27.3935220 108.1338870   6.4724170
  28.4329570 117.4274180   6.4966310  28.8517680 118.2706910   6.3242550
  27.5138200 117.5646220   6.2673090  30.7693470 115.1590360   7.8804150
  30.8889680 114.5631500   8.6198990  31.6287470 115.1960050   7.4605450
  33.1081370 115.7127550   6.4566660  32.5816590 116.2370170   5.8531800
  33.4512710 116.3454940   7.0876390  26.2836990 123.7327190   7.6124040
  25.7458080 124.4573250   7.2932740  26.5370950 123.2557530   6.8221380
  27.5362240 111.7011710   9.1379970  28.1261930 111.3927560   9.8257790
  26.7182480 111.2291460   9.2939870  32.3555670 111.3177520   9.3712990
  31.6671190 110.6559060   9.3062980  33.0761690 110.8715790   9.8161450
  29.1399200 124.9678400   7.8710690  29.0657900 125.8713540   8.1783060
  28.2378040 124.6490300   7.8432760  21.0316700 123.1623580   3.9125940
  20.5947690 123.3424380   4.7450090  21.5994380 123.9198200   3.7707660
  36.6678880 122.6640580   8.2003250  36.0680870 122.7233140   7.4567170
  36.7972780 121.7245560   8.3300100  35.3530520 119.3892560   6.2979410
  34.5390360 119.8189720   6.5605200  35.7604720 120.0010970   5.6848460
  21.9017060 116.0596380   4.8118160  22.2690100 115.9723780   5.6914180
  21.3327880 115.2962930   4.7125020  36.7020920 114.5280760   7.8248630
  36.4707010 114.2993510   6.9246580  36.9625470 115.4480310   7.7793520
  21.4533060 112.9705470   8.7176580  20.5589110 112.9372230   9.0570290
  21.9930610 113.1692260   9.4827830  35.1408990 109.7537190  10.6028330
  36.0179170 109.7620590  10.9862330  35.1529830 109.0168030   9.9920680
  36.7661980 113.6906600   5.0135900  35.8164690 113.6570140   5.1280890
  36.9474990 114.6006710   4.7785670  21.9572770 107.2453800   3.0659800
  22.6048960 106.6951180   2.6254960  22.3774610 107.4996950   3.8875610
  35.8525110 107.4395160   6.4229440  36.4897330 108.0529300   6.7888630
  36.0000000 107.4755820   5.4778670  21.7104770 107.4009470   5.8085120
  21.3619590 107.8573290   6.5743300  21.3792470 106.5066600   5.8907550
  23.3169140 120.5729070   9.9738310  23.2738770 120.2021980  10.8552770
  23.4480150 121.5106640  10.1140130  27.0175170 122.1288660   5.5748030
  26.7766530 122.3963220   4.6878550  27.9577810 122.2994390   5.6298890
  29.2229590 108.5921350   9.3304540  29.1618480 109.1843180  10.0799950
  30.1629970 108.4847310   9.1854800  31.8604150 108.2491410   8.9696830
  32.4744560 108.5670700   8.3077910  32.4053710 107.7640000   9.5892690
  38.2779330 124.1483040   6.3758670  37.7837610 124.5451910   5.6585800
  37.6692620 123.5232250   6.7695950  22.3825410 106.9285670   9.0835890
  22.9308400 106.7473720   8.3202000  22.4480720 106.1379780   9.6192200
  23.1557170 123.5191320   7.0936090  22.5617490 123.3876020   7.8326130
  23.1481010 122.6829460   6.6278190  32.6012190 106.8123550   5.2966120
  31.7272030 107.1458660   5.0939050  32.4922940 106.3396730   6.1217990
  33.5084170 109.0194420   6.6807840  33.1797530 108.2046180   6.3009570
  34.4566470 108.9764230   6.5573530  35.9618780 124.7906460   3.6545410
  35.5021750 125.5422270   3.2803430  35.3331240 124.0712930   3.5960210
  22.7869400 120.8849700   6.0444130  22.0603460 120.2654990   5.9770080
  22.8478550 121.2790310   5.1742210  26.3914500 123.0994700   2.8293540
  26.9079520 122.4882060   2.3041800  27.0411880 123.6023480   3.3204550
  29.1310000 123.9903190   3.6562520  29.4187810 123.7357490   2.7795530
  29.6433220 123.4380550   4.2468090  30.3487010 107.7293390   4.2359030
  29.5658800 108.2038890   4.5155790  30.0549940 106.8248220   4.1272210
  34.9008080 108.4316490   2.2808120  35.3416170 108.3761590   1.4329720
  34.6315670 109.3474500   2.3518300  29.1982360 124.9119290  11.0230720
  30.1249670 124.6763560  11.0666680  29.1832790 125.7391290  10.5416750
  26.3845970 107.5764040  10.7872600  26.1030240 108.0797640  10.0233420
  26.7665670 106.7785790  10.4214730  32.9861430 106.9917620  11.3653070
  32.8726880 107.3112230  12.2604590  33.8031170 107.3930130  11.0690350
  35.7659920 124.1389150  10.8471760  36.5585240 123.6438380  10.6397720
  36.0593070 124.8179290  11.4547370  31.8919580  96.2366600 150.6979220
  31.8113630  95.3221210 150.4270930  31.4784000  96.7333670 149.9918930
  30.0237620  98.0145620 152.5788490  29.2479720  97.5346060 152.8687060
  30.6750550  97.3351270 152.4044650  34.0445050 102.4205810 151.3587620
  33.5826580 101.6493050 151.6874790  34.8570600 102.4471880 151.8640070
  22.4495400  93.2867320 147.2406640  21.5612100  93.6283290 147.1386520
  22.7336590  93.0867640 146.3487470  20.4128410  95.8872970 153.1246340
  20.9844520  95.1195170 153.1249980  20.4129950  96.1861730 152.2152950
  30.2708360 104.7063820 150.9791610  29.6519800 105.1621320 150.4086050
  31.1260140 104.8615280 150.5781310  29.4646610 100.6902810 152.5858650
  29.3954890  99.7492750 152.4247780  30.2266470 100.7804220 153.1581220
  30.4951780  93.4973190 152.8127580  30.8716600  92.6245070 152.7001250
  30.3971290  93.8331890 151.9218020  24.6256790  91.8698820 148.2745020
  24.7323540  92.7702550 148.5813780  23.7149150  91.8216790 147.9839670
  34.2775900  90.9923630 149.7455920  35.0985520  90.5020200 149.7881400
  34.3109980  91.5821290 150.4987760  31.1371710  99.5903060 148.3723520
  30.5188980 100.0552510 147.8086240  31.6494960 100.2830540 148.7893030
  34.5137380  92.9324010 152.5183460  33.8092950  93.2208900 153.0986570
  34.8749540  93.7424120 152.1583020  20.5054910 100.2759590 145.7463150
  20.1282890 100.7646690 145.0148050  20.7627980 100.9484870 146.3769680
  28.1143840  88.6775980 151.2048660  28.4218820  88.1222870 150.4884160
  27.1844540  88.8120440 151.0221650  34.9604320 101.1159490 148.5846290
  34.8500650 100.1733820 148.7095710  34.9572570 101.4775130 149.4709050
  30.5024600  96.7424810 147.9408780  29.5753880  96.6762190 148.1697250
  30.6549420  97.6804940 147.8264020  30.4893680  93.0141810 144.9375940
  29.5497350  93.1755770 145.0228400  30.8076940  93.7327490 144.3911930
  34.5321890  98.3045110 148.4444030  33.9134310  97.9664660 147.7970330
  34.5146340  97.6604870 149.1523220  26.1081240  97.2689550 150.7228510
  25.7038240  96.5566800 150.2274410  26.1944360  96.9242790 151.6116550
  26.5762940 100.9557110 152.8867720  26.2791230 100.3502580 152.2075500
  27.5262760 100.9934420 152.7757080  32.7086590  97.5431920 145.4516780
  33.1479870  96.7054350 145.3054600  33.4215010  98.1761320 145.5380920
  30.8181970 102.4827990 149.4198020  31.2577880 103.2252320 149.0053410
  30.7568860 102.7254560 150.3436980  36.2903730  88.7974730 143.7657820
  35.9776390  88.8901560 144.6656890  37.0516200  89.3755760 143.7155250
  22.8085870  96.1634530 148.2235160  22.6883470  96.8896620 147.6116430
  22.4986760  95.3937440 147.7463070  21.6918870 101.0349860 150.4409980
  21.2846950 101.1764450 149.5863580  22.5831880 100.7510020 150.2381190
  33.4852150 105.4697110 146.7761030  33.3253290 105.1800050 147.6742860
  33.3198860 104.6937240 146.2406260  25.9640530 105.2495640 148.5532650
  25.7883010 104.3331180 148.3400450  25.1096270 105.6082930 148.7930450
  33.1878280 102.9784670 145.3359030  32.4943440 102.9761960 144.6761310
  33.9301140 102.5543990 144.9053200  32.7528210 104.6047380 149.4107520
  33.2085160 103.8236760 149.7246140  33.0920730 105.3154200 149.9548700
  25.2749530  89.5069600 151.6058830  24.8317680  90.2879140 151.2743350
  25.8334520  89.8299490 152.3129770  28.3908350  89.1280300 146.4864660
  27.7662530  89.1240170 147.2117970  28.3038470  88.2611260 146.0900630
  25.0663750  94.6303170 149.3340080  24.8404670  94.4140340 150.2386700
  24.2856280  95.0631630 148.9886050  32.2961510  94.6366540 147.9330730
  31.6970400  95.3602340 147.7494350  32.8441120  94.5743320 147.1507180
  30.9026380  93.2730080 149.9634010  31.2955950  93.5902280 149.1502700
  31.2643230  92.3941960 150.0778530  19.9390550  89.8630880 152.1864210
  19.6503600  90.4333740 152.8989190  20.6836310  89.3835330 152.5495440
  20.1260780  93.8051000 143.3966930  20.0435450  94.7481760 143.5381920
  19.7743840  93.6625910 142.5179280  27.9258910  92.5390030 152.4637280
  27.9294970  92.0979980 151.6141820  28.8210030  92.8607360 152.5709100
  23.7761290  92.4216520 151.4231490  23.4361340  92.8991750 152.1798540
  23.0138610  91.9681640 151.0632590  27.9879060  93.5402110 145.4544040
  28.1091880  93.4988590 146.4029860  27.6027570  94.4026260 145.2990770
  27.0000560  95.8503250 144.8527340  26.4317460  95.4021500 144.2263250
  27.7089560  96.2096030 144.3192490  21.0907370  91.3435500 150.3396160
  20.8054290  90.9791170 151.1774780  21.0286230  90.6115960 149.7259300
  24.5448040  99.8461440 147.1253750  23.7710300  99.3059060 146.9652470
  25.2742670  99.3268050 146.7871510  35.3036020  98.8426800 152.9180140
  36.0235140  99.3382090 152.5276250  35.1017840  98.1644690 152.2734010
  30.7645960  90.2364760 147.0609530  29.9510570  89.7377930 146.9854840
  30.5707910  91.0763010 146.6445880  33.4794350  94.6084410 145.3571690
  34.3673970  94.9201640 145.1823030  33.4499440  93.7356660 144.9652270
  24.5885440  99.5141820 150.7632560  25.1064110  98.7110080 150.7089450
  24.1369460  99.4520960 151.6049390  29.4754940 100.7808100 146.0359860
  29.8170640 101.5250330 145.5403180  28.6467650 101.0939220 146.3984690
  35.7508620  95.9196250 144.8251550  35.6672340  96.3510470 143.9747990
  36.4702810  96.3794600 145.2578370  36.7795870 102.7738510 147.5533680
  36.1372030 102.1194130 147.8277400  36.3926530 103.1793600 146.7774350
  32.3582350 100.1023940 151.4005370  32.7106170  99.5052070 150.7406740
  31.4744680  99.7768170 151.5713620  28.4445630 100.8621630 148.8075780
  29.1316760 101.4090840 149.1883370  27.6578050 101.4062360 148.8425390
  20.5838030  96.4794450 144.2992860  21.4532880  96.7619250 144.5828780
  20.0928350  97.2930320 144.1841670  27.7472840  97.8667660 148.4201140
  28.2035620  98.6772910 148.6461330  27.3961050  97.5490800 149.2519630
  23.6484620  88.2105310 148.8923660  23.5199250  88.2023210 149.8408580
  22.8246640  88.5488400 148.5414670  35.1693250 101.6654970 144.0910030
  34.9430830 100.9485410 144.6834670  34.7789450 101.4167410 143.2531780
  20.9509280 105.6921830 144.8654490  21.3106920 106.2911170 144.2111760
  20.8101620 106.2381720 145.6389520  34.7509500  99.5826910 145.7524190
  34.4631200 100.0439600 146.5402070  35.5461670  99.1224680 146.0208410
  26.9677900 103.0753030 145.6828160  26.9588000 103.8082720 145.0672670
  26.0476260 102.8284610 145.7755120  22.5684540  98.2967920 146.4274920
  21.9612490  99.0366820 146.4370220  23.0433890  98.3867280 145.6013120
  35.5079360  91.4175680 146.9119370  34.8792520  91.5221350 146.1977600
  35.0131280  91.6372460 147.7013250  29.9537500 103.1381270 144.3453350
  30.0549480 102.9345260 143.4155330  29.0539240 102.8839550 144.5501130
  27.4763390  93.6961630 148.3277250  26.7679540  94.1647970 148.7690860
  27.7607870  93.0383640 148.9622440  31.5078820  90.4212290 149.7673040
  31.3846600  90.4398420 148.8182550  32.4563380  90.4691230 149.8871440
  28.5955610 105.6567590 149.0401020  28.8497110 105.6188980 148.1180390
  27.6468090 105.5300920 149.0329270  25.6798410  92.0046710 145.7027960
  26.5288940  92.4416860 145.6368150  25.3129680  92.3166970 146.5300020
  34.6008190  96.5759470 150.6159530  33.6598330  96.5909700 150.7907220
  34.9152260  95.7895430 151.0619830  24.5789830  98.2579070 144.1763490
  25.3453100  98.1460430 144.7388920  24.6564520  97.5617040 143.5240260
  23.2736590  95.6904140 144.8596380  23.3540180  94.7431650 144.9713780
  24.1656340  96.0211020 144.9657040  36.6033770 103.7468320 152.2913790
  36.7281190 104.5699490 152.7637600  37.4699330 103.5359050 151.9437940
  24.0751300 105.8399530 151.9630920  24.8113780 105.2914990 152.2339490
  24.4592220 106.7055540 151.8236910  20.9596780 101.9073100 147.8372430
  20.0336560 102.1494240 147.8277840  21.4253210 102.7347360 147.7157180
  27.1853610 105.0129840 143.7856490  27.9782220 105.3018670 143.3338280
  26.6657960 104.5822010 143.1068970  36.2383780 104.2399970 145.2093230
  35.9525290 103.8265110 144.3947410  36.0403330 105.1687680 145.0893750
  27.7031010 100.2333250 143.6498840  27.5981650  99.6185600 144.3760220
  27.5355230  99.7099140 142.8661850  30.9433740  99.2953280 144.2540830
  30.3943840  99.7422580 144.8983570  31.5653000  98.7902530 144.7778500
  26.6108860  98.2544200 146.1506130  27.0325280  98.0884070 146.9937520
  26.7359700  97.4444430 145.6561270  29.1236500  97.2781810 143.3983230
  29.6442160  96.5630830 143.0324380  29.7704900  97.9167680 143.6983740
  25.5067760  94.3277430 143.0964290  25.3056820  93.4644790 143.4577630
  25.3359810  94.2410790 142.1585890  32.9856070  89.1385660 145.6251170
  33.2658360  88.2953560 145.9810590  32.2121800  89.3708770 146.1389920
  24.3050560  91.4278050 143.0842170  24.6076460  91.4345480 142.1761320
  25.0445150  91.0775910 143.5809830  27.5235490  90.3712670 144.0698370
  27.1757490  89.6936660 143.4900820  27.7248260  89.9102180 144.8841760
  29.6884530 105.3593420 145.6884970  30.5835320 105.6978390 145.7103730
  29.7202160 104.6372830 145.0609250  23.3280690 100.7320470 143.9171970
  23.7655560 101.2750140 144.5729550  23.8128420  99.9067420 143.9268310
  20.5426490 103.5209500 151.3692230  20.8729500 102.6530560 151.1370870
  20.9717490 103.7268020 152.1997190  25.1388410 101.8518510 149.0294200
  24.8383950 101.7283480 149.9298110  25.0325900 100.9927100 148.6209930
  37.9080330 101.6314910 143.7320880  37.0773290 101.6991560 144.2028110
  38.0852160 102.5219030 143.4287740  37.3636790  98.3762390 146.2355080
  38.1255700  98.9459040 146.3414770  37.3791160  97.8089590 147.0063390
  20.8641130  96.9000320 150.4662740  20.2089970  96.6311960 149.8222440
  21.7019080  96.7904800 150.0164720  38.3696760  99.2312490 151.0797010
  38.7405590  98.4479810 150.6732980  39.0098690  99.9201590 150.9014310
  37.4155960  98.6696760 143.3927600  37.6904800  99.5775640 143.2646820
  37.2266700  98.6059290 144.3289590  33.8131570  91.6941610 144.6881230
  34.2316450  91.5072590 143.8477890  33.5067630  90.8420660 144.9984160
  37.3121300  96.6065750 148.3857030  36.9364900  95.8393680 147.9538320
  36.5824420  96.9888450 148.8731960  20.0779210  94.1099250 146.4088070
  19.1743290  94.3729450 146.2339730  20.5619830  94.3810420 145.6288030
  36.5872260  94.8323240 151.6864270  37.1109740  94.3385890 151.0554440
  37.1731680  94.9673600 152.4311840  22.6206420  93.1664790 144.3182450
  23.3298120  92.7448010 143.8329730  21.9046360  93.2340020 143.6865800
  22.2680580  89.2204120 143.3585100  22.9908710  89.7613060 143.6766320
  22.5405100  88.9467540 142.4826640  36.0772230  94.0896590 147.6256680
  36.5731350  93.8567460 148.4105560  35.8788300  93.2508430 147.2094320
  37.5059390  92.7257540 150.1594360  37.3958670  92.5713580 151.0976630
  38.2666980  92.1978480 149.9169770  38.3949660  90.5565460 143.4000500
  39.3198970  90.4246640 143.1918790  38.3725450  90.6358280 144.3536950
  38.4688150  91.3276120 146.0257210  37.6739650  91.2621240 146.5550120
  38.6731430  92.2626760 146.0142560  35.4106570 105.3667670 150.0195600
  36.0065640 105.0452240 149.3430020  35.6684720 104.8939490 150.8108870
  34.9008080  89.6573000 152.4756040  35.3416170  89.6018100 151.6277640
  34.6315670  90.5731010 152.5466220  36.7646650  89.2888240 150.4864860
  36.7035050  88.3449460 150.3395880  37.5438680  89.3968330 151.0318320
  21.0699400 105.4280600 149.4488810  20.9021440 104.7951280 150.1470700
  20.2033910 105.6340000 149.0983000  21.6927420  89.2597380 146.9520670
  22.4506780  89.3726260 146.3784700  21.2304590  90.0966580 146.9064100
  28.2341230  91.3736650 149.9422980  27.4215740  90.9993540 149.6018860
  28.7382870  90.6181730 150.2444170  32.7366210  88.0379100 151.1806050
  33.3395580  88.6099310 151.6554570  31.9959200  88.6018540 150.9579950
  35.8800810  88.4400660 146.4546330  36.0751440  89.3384110 146.7213760
  35.0930680  88.2087740 146.9479280  22.6762100 104.1213830 146.8938950
  22.1509720 104.5021860 146.1900910  22.6006680 104.7464600 147.6148660
  24.0652570  89.7861430 145.4922640  24.5945330  88.9991230 145.3630590
  24.6980890  90.4652620 145.7258170  26.2590410  89.5236570 148.5468030
  25.6293150  88.8223880 148.7138160  25.7195550  90.2840700 148.3301190
  37.4327420 105.6801370 148.2152890  37.6079610 104.9939110 147.5713810
  36.7348990 106.2048420 147.8229560  25.2755070 106.0696210 145.7688200
  26.0073890 105.7855490 145.2212090  25.5348740 105.8309490 146.6587580
  24.4369860 102.1860940 145.7734530  23.8078740 102.6546040 146.3220360
  24.5517690 101.3410160 146.2080720  31.8919580  96.2366600 131.9235730
  31.8113630  95.3221210 131.6527440  31.4784000  96.7333670 131.2175440
  30.0237620  98.0145620 133.8045000  29.2479720  97.5346060 134.0943570
  30.6750550  97.3351270 133.6301160  24.0403450  98.3265430 134.6820760
  23.2088330  98.0714140 135.0817270  24.6484430  98.3976200 135.4178680
  34.0445050 102.4205810 132.5844130  33.5826580 101.6493050 132.9131300
  34.8570600 102.4471880 133.0896580  24.0204710 102.3605520 134.8778780
  24.3232750 101.4703260 134.6989000  24.7648300 102.9175740 134.6501030
  22.4495400  93.2867320 128.4663150  21.5612100  93.6283290 128.3643030
  22.7336590  93.0867640 127.5743980  20.4128410  95.8872970 134.3502850
  20.9844520  95.1195170 134.3506490  20.4129950  96.1861730 133.4409460
  30.2708360 104.7063820 132.2048120  29.6519800 105.1621320 131.6342560
  31.1260140 104.8615280 131.8037820  29.4646610 100.6902810 133.8115160
  29.3954890  99.7492750 133.6504290  30.2266470 100.7804220 134.3837730
  21.6553280  91.2957330 136.1371780  21.4756120  90.3983080 136.4174540
  21.2533360  91.8429200 136.8118730  30.4951780  93.4973190 134.0384090
  30.8716600  92.6245070 133.9257760  30.3971290  93.8331890 133.1474530
  24.6256790  91.8698820 129.5001530  24.7323540  92.7702550 129.8070290
  23.7149150  91.8216790 129.2096180  34.2775900  90.9923630 130.9712430
  35.0985520  90.5020200 131.0137910  34.3109980  91.5821290 131.7244270
  22.2739950  93.7917830 134.7454120  22.9550060  94.0556200 135.3641520
  21.9588000  92.9518700 135.0792130  26.4664520  94.8385190 133.8326710
  26.9742740  95.3366160 134.4731730  26.9977760  94.0620390 133.6566070
  38.5675450  93.0090380 137.5356060  37.8627620  93.3972090 137.0171170
  38.8333370  93.7040670 138.1376990  24.7500620  89.4783750 138.0990130
  24.7519060  89.9956140 137.2936030  23.9204930  89.0013930 138.0760060
  31.1371710  99.5903060 129.5980030  30.5188980 100.0552510 129.0342750
  31.6494960 100.2830540 130.0149540  26.0003470  99.1178930 136.2763630
  25.6672850  99.7447850 136.9184700  26.1770150  99.6440810 135.4965300
  34.5137380  92.9324010 133.7439970  33.8092950  93.2208900 134.3243080
  34.8749540  93.7424120 133.3839530  24.4315950  91.1893710 136.1060580
  24.7732760  92.0335760 135.8114450  23.4931760  91.3377450 136.2225920
  25.2122570 101.0859730 138.0912810  25.8296570 101.7610810 137.8097260
  24.3515690 101.4947710 138.0000310  20.5054910 100.2759590 126.9719660
  20.1282890 100.7646690 126.2404560  20.7627980 100.9484870 127.6026190
  36.1300160 102.5499140 136.0067450  35.4463680 103.2198250 135.9984120
  36.6694450 102.7479790 135.2412310  37.5824300  92.3778800 134.1349180
  36.6349210  92.4117780 134.2664610  37.9074290  93.1917750 134.5198540
  28.1143840  88.6775980 132.4305170  28.4218820  88.1222870 131.7140670
  27.1844540  88.8120440 132.2478160  33.6658900 104.3943270 134.7212630
  33.6786060 103.9905560 133.8534890  33.1134120 105.1690560 134.6174060
  34.9604320 101.1159490 129.8102800  34.8500650 100.1733820 129.9352220
  34.9572570 101.4775130 130.6965560  33.0644340  99.2973110 136.0495240
  33.4813130  99.0833220 135.2148700  33.7884160  99.5545900 136.6203860
  30.5024600  96.7424810 129.1665290  29.5753880  96.6762190 129.3953760
  30.6549420  97.6804940 129.0520530  30.4893680  93.0141810 126.1632450
  29.5497350  93.1755770 126.2484910  30.8076940  93.7327490 125.6168440
  37.0106440  97.6960330 136.1411480  36.1825070  97.7653420 135.6661610
  37.6056920  98.2814640 135.6727310  34.5321890  98.3045110 129.6700540
  33.9134310  97.9664660 129.0226840  34.5146340  97.6604870 130.3779730
  33.9748450  94.4829650 137.0866350  33.5619630  95.3083360 137.3406340
  33.2424400  93.8974690 136.8942710  26.1081240  97.2689550 131.9485020
  25.7038240  96.5566800 131.4530920  26.1944360  96.9242790 132.8373060
  26.5762940 100.9557110 134.1124230  26.2791230 100.3502580 133.4332010
  27.5262760 100.9934420 134.0013590  24.8209860  94.0432760 135.7284060
  25.3724450  94.1528100 134.9537310  25.3353370  94.4170360 136.4439290
  34.6648550 104.5288980 137.7747330  34.1879110 105.3361170 137.5819940
  33.9810340 103.8767310 137.9273540  25.6681370 100.6938800 140.7632030
  24.7709900 100.9178770 141.0105430  25.6934240 100.8173740 139.8143430
  32.7086590  97.5431920 126.6773290  33.1479870  96.7054350 126.5311110
  33.4215010  98.1761320 126.7637430  24.4952590  97.5652120 139.3389400
  24.3560360  98.4374920 139.7076800  23.6133950  97.2224930 139.1937340
  30.8181970 102.4827990 130.6454530  31.2577880 103.2252320 130.2309920
  30.7568860 102.7254560 131.5693490  26.2932940 103.5073820 141.5474550
  26.2648370 103.9116770 140.6802980  26.1297910 102.5784180 141.3846150
  22.8085870  96.1634530 129.4491670  22.6883470  96.8896620 128.8372940
  22.4986760  95.3937440 128.9719580  38.2447760 104.2900920 142.8438720
  38.7207480 104.7683810 143.5227800  38.8654920 104.2218410 142.1184220
  20.4471240  99.3349670 135.2560310  20.5251660  99.4698440 134.3116030
  21.0612920  98.6265560 135.4488430  21.6918870 101.0349860 131.6666490
  21.2846950 101.1764450 130.8120090  22.5831880 100.7510020 131.4637700
  37.6481010 101.4813770 140.0038730  37.7744070 101.2425650 139.0855910
  37.6902390 100.6498310 140.4760810  31.5097750 105.1841770 138.5733540
  32.0242420 105.0949780 139.3755970  30.6666830 105.5301470 138.8661450
  33.4852150 105.4697110 128.0017540  33.3253290 105.1800050 128.8999370
  33.3198860 104.6937240 127.4662770  25.9640530 105.2495640 129.7789160
  25.7883010 104.3331180 129.5656960  25.1096270 105.6082930 130.0186960
  33.1878280 102.9784670 126.5615540  32.4943440 102.9761960 125.9017820
  33.9301140 102.5543990 126.1309710  32.7528210 104.6047380 130.6364030
  33.2085160 103.8236760 130.9502650  33.0920730 105.3154200 131.1805210
  37.5005020  93.5346230 140.9688470  36.8849290  94.0425900 140.4403930
  37.1801440  92.6344560 140.9114410  20.5030760 100.3763840 137.7954770
  20.6661800  99.9069200 136.9774140  20.9683210  99.8687400 138.4603610
  25.2749530  89.5069600 132.8315340  24.8317680  90.2879140 132.4999860
  25.8334520  89.8299490 133.5386280  29.5619340  92.3738120 138.4350660
  29.0998710  92.5821140 139.2470600  29.1597450  91.5597470 138.1321330
  34.5623850  93.5947070 139.5647320  33.7117440  93.2952820 139.8856390
  34.4025640  93.8389080 138.6531140  31.6573560  95.0948820 141.6646110
  31.9826970  94.2612570 141.3248340  32.4453890  95.6177340 141.8124440
  28.3908350  89.1280300 127.7121170  27.7662530  89.1240170 128.4374480
  28.3038470  88.2611260 127.3157140  27.3125430  90.0516930 134.6904940
  27.6097760  90.9579760 134.6096960  27.8610990  89.5635710 134.0764510
  25.0663750  94.6303170 130.5596590  24.8404670  94.4140340 131.4643210
  24.2856280  95.0631630 130.2142560  32.2961510  94.6366540 129.1587240
  31.6970400  95.3602340 128.9750860  32.8441120  94.5743320 128.3763690
  27.5062960  95.5288750 141.2256860  27.4106560  94.5883480 141.0757260
  28.3494940  95.7503820 140.8304930  30.9026380  93.2730080 131.1890520
  31.2955950  93.5902280 130.3759210  31.2643230  92.3941960 131.3035040
  22.6373500  91.9402420 139.3790640  22.2436890  92.7877630 139.5863420
  21.9491900  91.3028790 139.5699280  29.2118550  92.0237390 142.4487380
  28.5216870  91.8309590 143.0833470  29.9550850  92.3072030 142.9811680
  19.9390550  89.8630880 133.4120720  19.6503600  90.4333740 134.1245700
  20.6836310  89.3835330 133.7751950  20.1260780  93.8051000 124.6223440
  20.0435450  94.7481760 124.7638430  19.7743840  93.6625910 123.7435790
  31.4881520  95.8635830 135.2841300  30.7562640  96.3722640 135.6331400
  31.0905860  95.0465810 134.9830080  27.9258910  92.5390030 133.6893790
  27.9294970  92.0979980 132.8398330  28.8210030  92.8607360 133.7965610
  23.7761290  92.4216520 132.6488000  23.4361340  92.8991750 133.4055050
  23.0138610  91.9681640 132.2889100  27.9879060  93.5402110 126.6800550
  28.1091880  93.4988590 127.6286370  27.6027570  94.4026260 126.5247280
  31.9507430  91.3169510 134.6964240  31.9680170  91.7678160 135.5406090
  31.7023010  90.4175150 134.9097680  27.0000560  95.8503250 126.0783850
  26.4317460  95.4021500 125.4519760  27.7089560  96.2096030 125.5449000
  35.3778180  88.7301690 140.5350620  35.7023950  87.9991350 141.0608600
  35.4134690  88.4115330 139.6331610  22.0769740  99.7515270 139.9550580
  21.6924530  99.1108940 140.5533540  22.3881930 100.4551390 140.5245310
  28.2266880  96.5991810 135.4359200  28.5937010  96.1250380 136.1820540
  28.0371940  97.4733380 135.7767540  21.0907370  91.3435500 131.5652670
  20.8054290  90.9791170 132.4031290  21.0286230  90.6115960 130.9515810
  26.0166250  95.6400450 137.7543410  25.7123320  96.5192430 137.9793770
  26.9712710  95.7000240 137.7900850  24.5448040  99.8461440 128.3510260
  23.7710300  99.3059060 128.1908980  25.2742670  99.3268050 128.0128020
  35.3036020  98.8426800 134.1436650  36.0235140  99.3382090 133.7532760
  35.1017840  98.1644690 133.4990520  30.7645960  90.2364760 128.2866040
  29.9510570  89.7377930 128.2111350  30.5707910  91.0763010 127.8702390
  30.6854820  98.9135860 140.0305650  30.6192130  97.9931530 139.7763240
  30.0559960  99.0111300 140.7450290  33.4794350  94.6084410 126.5828200
  34.3673970  94.9201640 126.4079540  33.4499440  93.7356660 126.1908780
  24.5885440  99.5141820 131.9889070  25.1064110  98.7110080 131.9345960
  24.1369460  99.4520960 132.8305900  29.4754940 100.7808100 127.2616370
  29.8170640 101.5250330 126.7659690  28.6467650 101.0939220 127.6241200
  22.0729980  96.4803190 138.9014770  21.7144920  97.1457040 139.4888110
  21.7784540  95.6486740 139.2727390  25.2743100  96.9387430 141.7854320
  24.9743240  97.0844610 140.8882140  26.0454340  96.3792720 141.6927710
  30.6171550 101.7356430 139.7809450  30.6316090 100.8037390 139.5628360
  29.9096650 101.8216190 140.4199220  35.7508620  95.9196250 126.0508060
  35.6672340  96.3510470 125.2004500  36.4702810  96.3794600 126.4834880
  36.8282760  98.3763770 139.1278030  36.1030950  98.9692550 138.9307420
  37.3558220  98.3687310 138.3291400  36.7795870 102.7738510 128.7790190
  36.1372030 102.1194130 129.0533910  36.3926530 103.1793600 128.0030860
  32.3582350 100.1023940 132.6261880  32.7106170  99.5052070 131.9663250
  31.4744680  99.7768170 132.7970130  28.4445630 100.8621630 130.0332290
  29.1316760 101.4090840 130.4139880  27.6578050 101.4062360 130.0681900
  20.5838030  96.4794450 125.5249370  21.4532880  96.7619250 125.8085290
  20.0928350  97.2930320 125.4098180  27.7472840  97.8667660 129.6457650
  28.2035620  98.6772910 129.8717840  27.3961050  97.5490800 130.4776140
  30.0505450 103.3774000 136.8749950  30.6947670 103.5833380 137.5523370
  30.4134890 102.6162400 136.4220800  23.6484620  88.2105310 130.1180170
  23.5199250  88.2023210 131.0665090  22.8246640  88.5488400 129.7671180
  31.3237530 101.3806350 135.5927400  31.9659760 100.6799510 135.7059570
  31.8486880 102.1604790 135.4124290  35.1693250 101.6654970 125.3166540
  34.9430830 100.9485410 125.9091180  34.7789450 101.4167410 124.4788290
  33.0975150 102.1801250 138.7963460  33.4331390 102.7667940 139.4741380
  32.1775490 102.0493960 139.0261250  20.9509280 105.6921830 126.0911000
  21.3106920 106.2911170 125.4368270  20.8101620 106.2381720 126.8646030
  20.6478550  89.9696430 139.5786870  19.9337070  90.1693350 140.1839480
  21.0673590  89.1936000 139.9501670  34.7509500  99.5826910 126.9780700
  34.4631200 100.0439600 127.7658580  35.5461670  99.1224680 127.2464920
  20.9351140 103.9576690 140.5653400  21.0442260 103.0171430 140.4248790
  20.2831700 104.2231440 139.9167130  28.9263730 102.2292580 141.9651520
  28.6060600 101.5101820 142.5097210  28.2522090 102.9047650 142.0387580
  26.9677900 103.0753030 126.9084670  26.9588000 103.8082720 126.2929180
  26.0476260 102.8284610 127.0011630  22.5684540  98.2967920 127.6531430
  21.9612490  99.0366820 127.6626730  23.0433890  98.3867280 126.8269630
  32.1417330  92.4618740 137.3288320  32.5098150  91.6413950 137.6567890
  31.2815530  92.5220630 137.7443970  35.5079360  91.4175680 128.1375880
  34.8792520  91.5221350 127.4234110  35.0131280  91.6372460 128.9269760
  29.9537500 103.1381270 125.5709860  30.0549480 102.9345260 124.6411840
  29.0539240 102.8839550 125.7757640  27.4763390  93.6961630 129.5533760
  26.7679540  94.1647970 129.9947370  27.7607870  93.0383640 130.1878950
  29.1019320  95.1158330 137.5526290  29.6004570  95.5904150 138.2178140
  29.2442270  94.1921850 137.7596320  31.5078820  90.4212290 130.9929550
  31.3846600  90.4398420 130.0439060  32.4563380  90.4691230 131.1127950
  28.5955610 105.6567590 130.2657530  28.8497110 105.6188980 129.3436900
  27.6468090 105.5300920 130.2585780  25.6798410  92.0046710 126.9284470
  26.5288940  92.4416860 126.8624660  25.3129680  92.3166970 127.7556530
  36.3086180  91.3326290 138.3954680  35.8059780  92.0731690 138.7348490
  37.1242840  91.7210290 138.0791470  34.6008190  96.5759470 131.8416040
  33.6598330  96.5909700 132.0163730  34.9152260  95.7895430 132.2876340
  24.5789830  98.2579070 125.4020000  25.3453100  98.1460430 125.9645430
  24.6564520  97.5617040 124.7496770  23.2736590  95.6904140 126.0852890
  23.3540180  94.7431650 126.1970290  24.1656340  96.0211020 126.1913550
  36.6033770 103.7468320 133.5170300  36.7281190 104.5699490 133.9894110
  37.4699330 103.5359050 133.1694450  24.0751300 105.8399530 133.1887430
  24.8113780 105.2914990 133.4596000  24.4592220 106.7055540 133.0493420
  20.9596780 101.9073100 129.0628940  20.0336560 102.1494240 129.0534350
  21.4253210 102.7347360 128.9413690  23.0809580 105.0245600 142.3773010
  23.8822310 105.3457650 142.7908410  22.5661400 104.6641180 143.0992920
  27.1853610 105.0129840 125.0113000  27.9782220 105.3018670 124.5594790
  26.6657960 104.5822010 124.3325480  31.9174210 101.1325470 142.3248420
  31.3112370 101.1557070 141.5844170  31.6128320 100.4008510 142.8615670
  33.3474580 104.8605760 140.9357830  34.2996330 104.7763780 140.8858070
  33.2002800 105.5247470 141.6091620  36.2383780 104.2399970 126.4349740
  35.9525290 103.8265110 125.6203920  36.0403330 105.1687680 126.3150260
  20.8007390  97.5119060 141.3209060  21.3046410  96.9326340 141.8925290
  20.0614810  97.7959290 141.8585430  27.7031010 100.2333250 124.8755350
  27.5981650  99.6185600 125.6016730  27.5355230  99.7099140 124.0918360
  27.8545330  98.9190050 140.8544580  27.0891000  99.4875050 140.7699250
  28.0361290  98.6266260 139.9612810  30.9433740  99.2953280 125.4797340
  30.3943840  99.7422580 126.1240080  31.5653000  98.7902530 126.0035010
  34.9968680 100.6495380 141.4119600  35.7378150 100.9871140 140.9087060
  34.2341360 100.8187440 140.8589370  22.8330470  95.6548650 142.2159130
  22.8735810  95.3562520 143.1244360  23.6875970  96.0556260 142.0566650
  26.6108860  98.2544200 127.3762640  27.0325280  98.0884070 128.2194030
  26.7359700  97.4444430 126.8817780  24.7736280  94.2340750 140.1833620
  24.2432740  93.7431700 139.5556960  25.4424350  94.6624950 139.6491550
  29.1236500  97.2781810 124.6239740  29.6442160  96.5630830 124.2580890
  29.7704900  97.9167680 124.9240250  33.6714340  98.7010210 139.9474810
  34.0855360  98.8555290 140.7965230  32.7365340  98.8265430 140.1100590
  34.1436510  96.0406370 141.9513960  34.7257280  95.2858690 141.8634440
  34.3198280  96.5713810 141.1745440  25.2608580  91.2003120 140.2630910
  25.1665450  90.5823870 139.5381780  24.6805970  91.9269410 140.0360820
  28.0270020  89.7576360 137.2958300  27.5787320  89.7800620 136.4503850
  27.3935220  89.3595380 137.8928600  28.4329570  98.6530690 137.9170740
  28.8517680  99.4963420 137.7446980  27.5138200  98.7902730 137.6877520
  30.7693470  96.3846870 139.3008580  30.8889680  95.7888010 140.0403420
  31.6287470  96.4216560 138.8809880  33.1081370  96.9384060 137.8771090
  32.5816590  97.4626680 137.2736230  33.4512710  97.5711450 138.5080820
  25.5067760  94.3277430 124.3220800  25.3056820  93.4644790 124.6834140
  25.3359810  94.2410790 123.3842400  26.2836990 104.9583700 139.0328470
  25.7458080 105.6829760 138.7137170  26.5370950 104.4814040 138.2425810
  27.5362240  92.9268220 140.5584400  28.1261930  92.6184070 141.2462220
  26.7182480  92.4547970 140.7144300  32.3555670  92.5434030 140.7917420
  31.6671190  91.8815570 140.7267410  33.0761690  92.0972300 141.2365880
  24.3050560  91.4278050 124.3098680  24.6076460  91.4345480 123.4017830
  25.0445150  91.0775910 124.8066340  29.1399200 106.1934910 139.2915120
  29.0657900 107.0970050 139.5987490  28.2378040 105.8746810 139.2637190
  27.5235490  90.3712670 125.2954880  27.1757490  89.6936660 124.7157330
  27.7248260  89.9102180 126.1098270  29.6884530 105.3593420 126.9141480
  30.5835320 105.6978390 126.9360240  29.7202160 104.6372830 126.2865760
  23.3280690 100.7320470 125.1428480  23.7655560 101.2750140 125.7986060
  23.8128420  99.9067420 125.1524820  20.5426490 103.5209500 132.5948740
  20.8729500 102.6530560 132.3627380  20.9717490 103.7268020 133.4253700
  25.1388410 101.8518510 130.2550710  24.8383950 101.7283480 131.1554620
  25.0325900 100.9927100 129.8466440  21.0316700 104.3880090 135.3330370
  20.5947690 104.5680890 136.1654520  21.5994380 105.1454710 135.1912090
  36.6678880 103.8897090 139.6207680  36.0680870 103.9489650 138.8771600
  36.7972780 102.9502070 139.7504530  37.9080330 101.6314910 124.9577390
  37.0773290 101.6991560 125.4284620  38.0852160 102.5219030 124.6544250
  37.3636790  98.3762390 127.4611590  38.1255700  98.9459040 127.5671280
  37.3791160  97.8089590 128.2319900  20.8641130  96.9000320 131.6919250
  20.2089970  96.6311960 131.0478950  21.7019080  96.7904800 131.2421230
  38.3696760  99.2312490 132.3053520  38.7405590  98.4479810 131.8989490
  39.0098690  99.9201590 132.1270820  35.3530520 100.6149070 137.7183840
  34.5390360 101.0446230 137.9809630  35.7604720 101.2267480 137.1052890
  37.4155960  98.6696760 124.6184110  37.6904800  99.5775640 124.4903330
  37.2266700  98.6059290 125.5546100  33.8131570  91.6941610 125.9137740
  34.2316450  91.5072590 125.0734400  33.5067630  90.8420660 126.2240670
  37.3121300  96.6065750 129.6113540  36.9364900  95.8393680 129.1794830
  36.5824420  96.9888450 130.0988470  21.9017060  97.2852890 136.2322590
  22.2690100  97.1980290 137.1118610  21.3327880  96.5219440 136.1329450
  36.7020920  95.7537270 139.2453060  36.4707010  95.5250020 138.3451010
  36.9625470  96.6736820 139.1997950  21.4533060  94.1961980 140.1381010
  20.5589110  94.1628740 140.4774720  21.9930610  94.3948770 140.9032260
  35.1408990  90.9793700 142.0232760  36.0179170  90.9877100 142.4066760
  35.1529830  90.2424540 141.4125110  20.0779210  94.1099250 127.6344580
  19.1743290  94.3729450 127.4596240  20.5619830  94.3810420 126.8544540
  36.5872260  94.8323240 132.9120780  37.1109740  94.3385890 132.2810950
  37.1731680  94.9673600 133.6568350  36.7661980  94.9163110 136.4340330
  35.8164690  94.8826650 136.5485320  36.9474990  95.8263220 136.1990100
  22.6206420  93.1664790 125.5438960  23.3298120  92.7448010 125.0586240
  21.9046360  93.2340020 124.9122310  22.2680580  89.2204120 124.5841610
  22.9908710  89.7613060 124.9022830  22.5405100  88.9467540 123.7083150
  36.0772230  94.0896590 128.8513190  36.5731350  93.8567460 129.6362070
  35.8788300  93.2508430 128.4350830  21.9572770  88.4710310 134.4864230
  22.6048960  87.9207690 134.0459390  22.3774610  88.7253460 135.3080040
  37.5059390  92.7257540 131.3850870  37.3958670  92.5713580 132.3233140
  38.2666980  92.1978480 131.1426280  35.8525110  88.6651670 137.8433870
  36.4897330  89.2785810 138.2093060  36.0000000  88.7012330 136.8983100
  38.4688150  91.3276120 127.2513720  37.6739650  91.2621240 127.7806630
  38.6731430  92.2626760 127.2399070  35.4106570 105.3667670 131.2452110
  36.0065640 105.0452240 130.5686530  35.6684720 104.8939490 132.0365380
  21.7104770  88.6265980 137.2289550  21.3619590  89.0829800 137.9947730
  21.3792470  87.7323110 137.3111980  23.3169140 101.7985580 141.3942740
  23.2738770 101.4278490 142.2757200  23.4480150 102.7363150 141.5344560
  27.0175170 103.3545170 136.9952460  26.7766530 103.6219730 136.1082980
  27.9577810 103.5250900 137.0503320  29.2229590  89.8177860 140.7508970
  29.1618480  90.4099690 141.5004380  30.1629970  89.7103820 140.6059230
  31.8604150  89.4747920 140.3901260  32.4744560  89.7927210 139.7282340
  32.4053710  88.9896510 141.0097120  38.2779330 105.3739550 137.7963100
  37.7837610 105.7708420 137.0790230  37.6692620 104.7488760 138.1900380
  22.3825410  88.1542180 140.5040320  22.9308400  87.9730230 139.7406430
  22.4480720  87.3636290 141.0396630  23.1557170 104.7447830 138.5140520
  22.5617490 104.6132530 139.2530560  23.1481010 103.9085970 138.0482620
  32.6012190  88.0380060 136.7170550  31.7272030  88.3715170 136.5143480
  32.4922940  87.5653240 137.5422420  33.5084170  90.2450930 138.1012270
  33.1797530  89.4302690 137.7214000  34.4566470  90.2020740 137.9777960
  35.9618780 106.0162970 135.0749840  35.5021750 106.7678780 134.7007860
  35.3331240 105.2969440 135.0164640  22.7869400 102.1106210 137.4648560
  22.0603460 101.4911500 137.3974510  22.8478550 102.5046820 136.5946640
  26.3914500 104.3251210 134.2497970  26.9079520 103.7138570 133.7246230
  27.0411880 104.8279990 134.7408980  29.1310000 105.2159700 135.0766950
  29.4187810 104.9614000 134.1999960  29.6433220 104.6637060 135.6672520
  30.3487010  88.9549900 135.6563460  29.5658800  89.4295400 135.9360220
  30.0549940  88.0504730 135.5476640  34.9008080  89.6573000 133.7012550
  35.3416170  89.6018100 132.8534150  34.6315670  90.5731010 133.7722730
  36.7646650  89.2888240 131.7121370  36.7035050  88.3449460 131.5652390
  37.5438680  89.3968330 132.2574830  21.0699400 105.4280600 130.6745320
  20.9021440 104.7951280 131.3727210  20.2033910 105.6340000 130.3239510
  21.6927420  89.2597380 128.1777180  22.4506780  89.3726260 127.6041210
  21.2304590  90.0966580 128.1320610  28.2341230  91.3736650 131.1679490
  27.4215740  90.9993540 130.8275370  28.7382870  90.6181730 131.4700680
  32.7366210  88.0379100 132.4062560  33.3395580  88.6099310 132.8811080
  31.9959200  88.6018540 132.1836460  22.6762100 104.1213830 128.1195460
  22.1509720 104.5021860 127.4157420  22.6006680 104.7464600 128.8405170
  24.0652570  89.7861430 126.7179150  24.5945330  88.9991230 126.5887100
  24.6980890  90.4652620 126.9514680  26.2590410  89.5236570 129.7724540
  25.6293150  88.8223880 129.9394670  25.7195550  90.2840700 129.5557700
  29.1982360 106.1375800 142.4435150  30.1249670 105.9020070 142.4871110
  29.1832790 106.9647800 141.9621180  37.4327420 105.6801370 129.4409400
  37.6079610 104.9939110 128.7970320  36.7348990 106.2048420 129.0486070
  26.3845970  88.8020550 142.2077030  26.1030240  89.3054150 141.4437850
  26.7665670  88.0042300 141.8419160  25.2755070 106.0696210 126.9944710
  26.0073890 105.7855490 126.4468600  25.5348740 105.8309490 127.8844090
  24.4369860 102.1860940 126.9991040  23.8078740 102.6546040 127.5476870
  24.5517690 101.3410160 127.4337230  32.9861430  88.2174130 142.7857500
  32.8726880  88.5368740 143.6809020  33.8031170  88.6186640 142.4894780
  35.7659920 105.3645660 142.2676190  36.5585240 104.8694890 142.0602150
  36.0593070 106.0435800 142.8751800  31.8919580  96.2366600 113.1492240
  31.8113630  95.3221210 112.8783950  31.4784000  96.7333670 112.4431950
  30.0237620  98.0145620 115.0301510  29.2479720  97.5346060 115.3200080
  30.6750550  97.3351270 114.8557670  24.0403450  98.3265430 115.9077270
  23.2088330  98.0714140 116.3073780  24.6484430  98.3976200 116.6435190
  34.0445050 102.4205810 113.8100640  33.5826580 101.6493050 114.1387810
  34.8570600 102.4471880 114.3153090  24.0204710 102.3605520 116.1035290
  24.3232750 101.4703260 115.9245510  24.7648300 102.9175740 115.8757540
  20.4128410  95.8872970 115.5759360  20.9844520  95.1195170 115.5763000
  20.4129950  96.1861730 114.6665970  30.2708360 104.7063820 113.4304630
  29.6519800 105.1621320 112.8599070  31.1260140 104.8615280 113.0294330
  29.4646610 100.6902810 115.0371670  29.3954890  99.7492750 114.8760800
  30.2266470 100.7804220 115.6094240  21.6553280  91.2957330 117.3628290
  21.4756120  90.3983080 117.6431050  21.2533360  91.8429200 118.0375240
  30.4951780  93.4973190 115.2640600  30.8716600  92.6245070 115.1514270
  30.3971290  93.8331890 114.3731040  22.2739950  93.7917830 115.9710630
  22.9550060  94.0556200 116.5898030  21.9588000  92.9518700 116.3048640
  26.4664520  94.8385190 115.0583220  26.9742740  95.3366160 115.6988240
  26.9977760  94.0620390 114.8822580  38.5675450  93.0090380 118.7612570
  37.8627620  93.3972090 118.2427680  38.8333370  93.7040670 119.3633500
  24.7500620  89.4783750 119.3246640  24.7519060  89.9956140 118.5192540
  23.9204930  89.0013930 119.3016570  31.1371710  99.5903060 110.8236540
  30.5188980 100.0552510 110.2599260  31.6494960 100.2830540 111.2406050
  26.0003470  99.1178930 117.5020140  25.6672850  99.7447850 118.1441210
  26.1770150  99.6440810 116.7221810  24.4315950  91.1893710 117.3317090
  24.7732760  92.0335760 117.0370960  23.4931760  91.3377450 117.4482430
  25.2122570 101.0859730 119.3169320  25.8296570 101.7610810 119.0353770
  24.3515690 101.4947710 119.2256820  20.5054910 100.2759590 108.1976170
  20.1282890 100.7646690 107.4661070  20.7627980 100.9484870 108.8282700
  36.1300160 102.5499140 117.2323960  35.4463680 103.2198250 117.2240630
  36.6694450 102.7479790 116.4668820  33.6658900 104.3943270 115.9469140
  33.6786060 103.9905560 115.0791400  33.1134120 105.1690560 115.8430570
  34.9604320 101.1159490 111.0359310  34.8500650 100.1733820 111.1608730
  34.9572570 101.4775130 111.9222070  33.0644340  99.2973110 117.2751750
  33.4813130  99.0833220 116.4405210  33.7884160  99.5545900 117.8460370
  30.5024600  96.7424810 110.3921800  29.5753880  96.6762190 110.6210270
  30.6549420  97.6804940 110.2777040  37.0106440  97.6960330 117.3667990
  36.1825070  97.7653420 116.8918120  37.6056920  98.2814640 116.8983820
  34.5321890  98.3045110 110.8957050  33.9134310  97.9664660 110.2483350
  34.5146340  97.6604870 111.6036240  33.9748450  94.4829650 118.3122860
  33.5619630  95.3083360 118.5662850  33.2424400  93.8974690 118.1199220
  26.5762940 100.9557110 115.3380740  26.2791230 100.3502580 114.6588520
  27.5262760 100.9934420 115.2270100  24.8209860  94.0432760 116.9540570
  25.3724450  94.1528100 116.1793820  25.3353370  94.4170360 117.6695800
  34.6648550 104.5288980 119.0003840  34.1879110 105.3361170 118.8076450
  33.9810340 103.8767310 119.1530050  25.6681370 100.6938800 121.9888540
  24.7709900 100.9178770 122.2361940  25.6934240 100.8173740 121.0399940
  32.7086590  97.5431920 107.9029800  33.1479870  96.7054350 107.7567620
  33.4215010  98.1761320 107.9893940  24.4952590  97.5652120 120.5645910
  24.3560360  98.4374920 120.9333310  23.6133950  97.2224930 120.4193850
  30.8181970 102.4827990 111.8711040  31.2577880 103.2252320 111.4566430
  30.7568860 102.7254560 112.7950000  26.2932940 103.5073820 122.7731060
  26.2648370 103.9116770 121.9059490  26.1297910 102.5784180 122.6102660
  38.2447760 104.2900920 124.0695230  38.7207480 104.7683810 124.7484310
  38.8654920 104.2218410 123.3440730  20.4471240  99.3349670 116.4816820
  20.5251660  99.4698440 115.5372540  21.0612920  98.6265560 116.6744940
  21.6918870 101.0349860 112.8923000  21.2846950 101.1764450 112.0376600
  22.5831880 100.7510020 112.6894210  37.6481010 101.4813770 121.2295240
  37.7744070 101.2425650 120.3112420  37.6902390 100.6498310 121.7017320
  31.5097750 105.1841770 119.7990050  32.0242420 105.0949780 120.6012480
  30.6666830 105.5301470 120.0917960  33.4852150 105.4697110 109.2274050
  33.3253290 105.1800050 110.1255880  33.3198860 104.6937240 108.6919280
  25.9640530 105.2495640 111.0045670  25.7883010 104.3331180 110.7913470
  25.1096270 105.6082930 111.2443470  33.1878280 102.9784670 107.7872050
  32.4943440 102.9761960 107.1274330  33.9301140 102.5543990 107.3566220
  32.7528210 104.6047380 111.8620540  33.2085160 103.8236760 112.1759160
  33.0920730 105.3154200 112.4061720  20.5030760 100.3763840 119.0211280
  20.6661800  99.9069200 118.2030650  20.9683210  99.8687400 119.6860120
  29.5619340  92.3738120 119.6607170  29.0998710  92.5821140 120.4727110
  29.1597450  91.5597470 119.3577840  34.5623850  93.5947070 120.7903830
  33.7117440  93.2952820 121.1112900  34.4025640  93.8389080 119.8787650
  31.6573560  95.0948820 122.8902620  31.9826970  94.2612570 122.5504850
  32.4453890  95.6177340 123.0380950  27.5062960  95.5288750 122.4513370
  27.4106560  94.5883480 122.3013770  28.3494940  95.7503820 122.0561440
  22.6373500  91.9402420 120.6047150  22.2436890  92.7877630 120.8119930
  21.9491900  91.3028790 120.7955790  29.2118550  92.0237390 123.6743890
  28.5216870  91.8309590 124.3089980  29.9550850  92.3072030 124.2068190
  19.9390550  89.8630880 114.6377230  19.6503600  90.4333740 115.3502210
  20.6836310  89.3835330 115.0008460  20.1260780  93.8051000 105.8479950
  20.0435450  94.7481760 105.9894940  19.7743840  93.6625910 104.9692300
  27.9258910  92.5390030 114.9150300  27.9294970  92.0979980 114.0654840
  28.8210030  92.8607360 115.0222120  23.7761290  92.4216520 113.8744510
  23.4361340  92.8991750 114.6311560  23.0138610  91.9681640 113.5145610
  22.0769740  99.7515270 121.1807090  21.6924530  99.1108940 121.7790050
  22.3881930 100.4551390 121.7501820  21.0907370  91.3435500 112.7909180
  20.8054290  90.9791170 113.6287800  21.0286230  90.6115960 112.1772320
  26.0166250  95.6400450 118.9799920  25.7123320  96.5192430 119.2050280
  26.9712710  95.7000240 119.0157360  35.3036020  98.8426800 115.3693160
  36.0235140  99.3382090 114.9789270  35.1017840  98.1644690 114.7247030
  30.6854820  98.9135860 121.2562160  30.6192130  97.9931530 121.0019750
  30.0559960  99.0111300 121.9706800  24.5885440  99.5141820 113.2145580
  25.1064110  98.7110080 113.1602470  24.1369460  99.4520960 114.0562410
  29.4754940 100.7808100 108.4872880  29.8170640 101.5250330 107.9916200
  28.6467650 101.0939220 108.8497710  22.0729980  96.4803190 120.1271280
  21.7144920  97.1457040 120.7144620  21.7784540  95.6486740 120.4983900
  25.2743100  96.9387430 123.0110830  24.9743240  97.0844610 122.1138650
  26.0454340  96.3792720 122.9184220  30.6171550 101.7356430 121.0065960
  30.6316090 100.8037390 120.7884870  29.9096650 101.8216190 121.6455730
  36.8282760  98.3763770 120.3534540  36.1030950  98.9692550 120.1563930
  37.3558220  98.3687310 119.5547910  32.3582350 100.1023940 113.8518390
  32.7106170  99.5052070 113.1919760  31.4744680  99.7768170 114.0226640
  28.4445630 100.8621630 111.2588800  29.1316760 101.4090840 111.6396390
  27.6578050 101.4062360 111.2938410  30.0505450 103.3774000 118.1006460
  30.6947670 103.5833380 118.7779880  30.4134890 102.6162400 117.6477310
  23.6484620  88.2105310 111.3436680  23.5199250  88.2023210 112.2921600
  22.8246640  88.5488400 110.9927690  31.3237530 101.3806350 116.8183910
  31.9659760 100.6799510 116.9316080  31.8486880 102.1604790 116.6380800
  33.0975150 102.1801250 120.0219970  33.4331390 102.7667940 120.6997890
  32.1775490 102.0493960 120.2517760  20.9509280 105.6921830 107.3167510
  21.3106920 106.2911170 106.6624780  20.8101620 106.2381720 108.0902540
  20.6478550  89.9696430 120.8043380  19.9337070  90.1693350 121.4095990
  21.0673590  89.1936000 121.1758180  20.9351140 103.9576690 121.7909910
  21.0442260 103.0171430 121.6505300  20.2831700 104.2231440 121.1423640
  28.9263730 102.2292580 123.1908030  28.6060600 101.5101820 123.7353720
  28.2522090 102.9047650 123.2644090  26.9677900 103.0753030 108.1341180
  26.9588000 103.8082720 107.5185690  26.0476260 102.8284610 108.2268140
  32.1417330  92.4618740 118.5544830  32.5098150  91.6413950 118.8824400
  31.2815530  92.5220630 118.9700480  28.5955610 105.6567590 111.4914040
  28.8497110 105.6188980 110.5693410  27.6468090 105.5300920 111.4842290
  36.3086180  91.3326290 119.6211190  35.8059780  92.0731690 119.9605000
  37.1242840  91.7210290 119.3047980  34.6008190  96.5759470 113.0672550
  33.6598330  96.5909700 113.2420240  34.9152260  95.7895430 113.5132850
  36.6033770 103.7468320 114.7426810  36.7281190 104.5699490 115.2150620
  37.4699330 103.5359050 114.3950960  24.0751300 105.8399530 114.4143940
  24.8113780 105.2914990 114.6852510  24.4592220 106.7055540 114.2749930
  20.9596780 101.9073100 110.2885450  20.0336560 102.1494240 110.2790860
  21.4253210 102.7347360 110.1670200  23.0809580 105.0245600 123.6029520
  23.8822310 105.3457650 124.0164920  22.5661400 104.6641180 124.3249430
  31.9174210 101.1325470 123.5504930  31.3112370 101.1557070 122.8100680
  31.6128320 100.4008510 124.0872180  33.3474580 104.8605760 122.1614340
  34.2996330 104.7763780 122.1114580  33.2002800 105.5247470 122.8348130
  36.2383780 104.2399970 107.6606250  35.9525290 103.8265110 106.8460430
  36.0403330 105.1687680 107.5406770  20.8007390  97.5119060 122.5465570
  21.3046410  96.9326340 123.1181800  20.0614810  97.7959290 123.0841940
  27.8545330  98.9190050 122.0801090  27.0891000  99.4875050 121.9955760
  28.0361290  98.6266260 121.1869320  34.9968680 100.6495380 122.6376110
  35.7378150 100.9871140 122.1343570  34.2341360 100.8187440 122.0845880
  22.8330470  95.6548650 123.4415640  22.8735810  95.3562520 124.3500870
  23.6875970  96.0556260 123.2823160  24.7736280  94.2340750 121.4090130
  24.2432740  93.7431700 120.7813470  25.4424350  94.6624950 120.8748060
  33.6714340  98.7010210 121.1731320  34.0855360  98.8555290 122.0221740
  32.7365340  98.8265430 121.3357100  34.1436510  96.0406370 123.1770470
  34.7257280  95.2858690 123.0890950  34.3198280  96.5713810 122.4001950
  25.2608580  91.2003120 121.4887420  25.1665450  90.5823870 120.7638290
  24.6805970  91.9269410 121.2617330  28.0270020  89.7576360 118.5214810
  27.5787320  89.7800620 117.6760360  27.3935220  89.3595380 119.1185110
  28.4329570  98.6530690 119.1427250  28.8517680  99.4963420 118.9703490
  27.5138200  98.7902730 118.9134030  30.7693470  96.3846870 120.5265090
  30.8889680  95.7888010 121.2659930  31.6287470  96.4216560 120.1066390
  33.1081370  96.9384060 119.1027600  32.5816590  97.4626680 118.4992740
  33.4512710  97.5711450 119.7337330  25.5067760  94.3277430 105.5477310
  25.3056820  93.4644790 105.9090650  25.3359810  94.2410790 104.6098910
  26.2836990 104.9583700 120.2584980  25.7458080 105.6829760 119.9393680
  26.5370950 104.4814040 119.4682320  27.5362240  92.9268220 121.7840910
  28.1261930  92.6184070 122.4718730  26.7182480  92.4547970 121.9400810
  32.3555670  92.5434030 122.0173930  31.6671190  91.8815570 121.9523920
  33.0761690  92.0972300 122.4622390  32.9856070  89.1385660 108.0764190
  33.2658360  88.2953560 108.4323610  32.2121800  89.3708770 108.5902940
  24.3050560  91.4278050 105.5355190  24.6076460  91.4345480 104.6274340
  25.0445150  91.0775910 106.0322850  29.1399200 106.1934910 120.5171630
  29.0657900 107.0970050 120.8244000  28.2378040 105.8746810 120.4893700
  27.5235490  90.3712670 106.5211390  27.1757490  89.6936660 105.9413840
  27.7248260  89.9102180 107.3354780  29.6884530 105.3593420 108.1397990
  30.5835320 105.6978390 108.1616750  29.7202160 104.6372830 107.5122270
  20.5426490 103.5209500 113.8205250  20.8729500 102.6530560 113.5883890
  20.9717490 103.7268020 114.6510210  25.1388410 101.8518510 111.4807220
  24.8383950 101.7283480 112.3811130  25.0325900 100.9927100 111.0722950
  21.0316700 104.3880090 116.5586880  20.5947690 104.5680890 117.3911030
  21.5994380 105.1454710 116.4168600  36.6678880 103.8897090 120.8464190
  36.0680870 103.9489650 120.1028110  36.7972780 102.9502070 120.9761040
  20.8641130  96.9000320 112.9175760  20.2089970  96.6311960 112.2735460
  21.7019080  96.7904800 112.4677740  38.3696760  99.2312490 113.5310030
  38.7405590  98.4479810 113.1246000  39.0098690  99.9201590 113.3527330
  35.3530520 100.6149070 118.9440350  34.5390360 101.0446230 119.2066140
  35.7604720 101.2267480 118.3309400  37.4155960  98.6696760 105.8440620
  37.6904800  99.5775640 105.7159840  37.2266700  98.6059290 106.7802610
  37.3121300  96.6065750 110.8370050  36.9364900  95.8393680 110.4051340
  36.5824420  96.9888450 111.3244980  21.9017060  97.2852890 117.4579100
  22.2690100  97.1980290 118.3375120  21.3327880  96.5219440 117.3585960
  36.7020920  95.7537270 120.4709570  36.4707010  95.5250020 119.5707520
  36.9625470  96.6736820 120.4254460  21.4533060  94.1961980 121.3637520
  20.5589110  94.1628740 121.7031230  21.9930610  94.3948770 122.1288770
  20.0779210  94.1099250 108.8601090  19.1743290  94.3729450 108.6852750
  20.5619830  94.3810420 108.0801050  36.5872260  94.8323240 114.1377290
  37.1109740  94.3385890 113.5067460  37.1731680  94.9673600 114.8824860
  36.7661980  94.9163110 117.6596840  35.8164690  94.8826650 117.7741830
  36.9474990  95.8263220 117.4246610  22.6206420  93.1664790 106.7695470
  23.3298120  92.7448010 106.2842750  21.9046360  93.2340020 106.1378820
  22.2680580  89.2204120 105.8098120  22.9908710  89.7613060 106.1279340
  22.5405100  88.9467540 104.9339660  21.9572770  88.4710310 115.7120740
  22.6048960  87.9207690 115.2715900  22.3774610  88.7253460 116.5336550
  38.3949660  90.5565460 105.8513520  39.3198970  90.4246640 105.6431810
  38.3725450  90.6358280 106.8049970  35.4106570 105.3667670 112.4708620
  36.0065640 105.0452240 111.7943040  35.6684720 104.8939490 113.2621890
  21.7104770  88.6265980 118.4546060  21.3619590  89.0829800 119.2204240
  21.3792470  87.7323110 118.5368490  23.3169140 101.7985580 122.6199250
  23.2738770 101.4278490 123.5013710  23.4480150 102.7363150 122.7601070
  27.0175170 103.3545170 118.2208970  26.7766530 103.6219730 117.3339490
  27.9577810 103.5250900 118.2759830  29.2229590  89.8177860 121.9765480
  29.1618480  90.4099690 122.7260890  30.1629970  89.7103820 121.8315740
  31.8604150  89.4747920 121.6157770  32.4744560  89.7927210 120.9538850
  32.4053710  88.9896510 122.2353630  22.3825410  88.1542180 121.7296830
  22.9308400  87.9730230 120.9662940  22.4480720  87.3636290 122.2653140
  23.1557170 104.7447830 119.7397030  22.5617490 104.6132530 120.4787070
  23.1481010 103.9085970 119.2739130  32.6012190  88.0380060 117.9427060
  31.7272030  88.3715170 117.7399990  32.4922940  87.5653240 118.7678930
  33.5084170  90.2450930 119.3268780  33.1797530  89.4302690 118.9470510
  34.4566470  90.2020740 119.2034470  22.7869400 102.1106210 118.6905070
  22.0603460 101.4911500 118.6231020  22.8478550 102.5046820 117.8203150
  26.3914500 104.3251210 115.4754480  26.9079520 103.7138570 114.9502740
  27.0411880 104.8279990 115.9665490  29.1310000 105.2159700 116.3023460
  29.4187810 104.9614000 115.4256470  29.6433220 104.6637060 116.8929030
  30.3487010  88.9549900 116.8819970  29.5658800  89.4295400 117.1616730
  30.0549940  88.0504730 116.7733150  21.0699400 105.4280600 111.9001830
  20.9021440 104.7951280 112.5983720  20.2033910 105.6340000 111.5496020
  22.6762100 104.1213830 109.3451970  22.1509720 104.5021860 108.6413930
  22.6006680 104.7464600 110.0661680  24.0652570  89.7861430 107.9435660
  24.5945330  88.9991230 107.8143610  24.6980890  90.4652620 108.1771190
  29.1982360 106.1375800 123.6691660  30.1249670 105.9020070 123.7127620
  29.1832790 106.9647800 123.1877690  37.4327420 105.6801370 110.6665910
  37.6079610 104.9939110 110.0226830  36.7348990 106.2048420 110.2742580
  26.3845970  88.8020550 123.4333540  26.1030240  89.3054150 122.6694360
  26.7665670  88.0042300 123.0675670  24.4369860 102.1860940 108.2247550
  23.8078740 102.6546040 108.7733380  24.5517690 101.3410160 108.6593740
  35.7659920 105.3645660 123.4932700  36.5585240 104.8694890 123.2858660
  36.0593070 106.0435800 124.1008310  24.0403450  98.3265430  97.1333780
  23.2088330  98.0714140  97.5330290  24.6484430  98.3976200  97.8691700
  24.0204710 102.3605520  97.3291800  24.3232750 101.4703260  97.1502020
  24.7648300 102.9175740  97.1014050  20.4128410  95.8872970  96.8015870
  20.9844520  95.1195170  96.8019510  20.4129950  96.1861730  95.8922480
  30.4951780  93.4973190  96.4897110  30.8716600  92.6245070  96.3770780
  30.3971290  93.8331890  95.5987550  24.6256790  91.8698820  91.9514550
  24.7323540  92.7702550  92.2583310  23.7149150  91.8216790  91.6609200
  34.2775900  90.9923630  93.4225450  35.0985520  90.5020200  93.4650930
  34.3109980  91.5821290  94.1757290  38.5675450  93.0090380  99.9869080
  37.8627620  93.3972090  99.4684190  38.8333370  93.7040670 100.5890010
  24.7500620  89.4783750 100.5503150  24.7519060  89.9956140  99.7449050
  23.9204930  89.0013930 100.5273080  26.0003470  99.1178930  98.7276650
  25.6672850  99.7447850  99.3697720  26.1770150  99.6440810  97.9478320
  34.5137380  92.9324010  96.1952990  33.8092950  93.2208900  96.7756100
  34.8749540  93.7424120  95.8352550  25.2122570 101.0859730 100.5425830
  25.8296570 101.7610810 100.2610280  24.3515690 101.4947710 100.4513330
  20.5054910 100.2759590  89.4232680  20.1282890 100.7646690  88.6917580
  20.7627980 100.9484870  90.0539210  37.5824300  92.3778800  96.5862200
  36.6349210  92.4117780  96.7177630  37.9074290  93.1917750  96.9711560
  28.1143840  88.6775980  94.8818190  28.4218820  88.1222870  94.1653690
  27.1844540  88.8120440  94.6991180  30.4893680  93.0141810  88.6145470
  29.5497350  93.1755770  88.6997930  30.8076940  93.7327490  88.0681460
  26.1081240  97.2689550  94.3998040  25.7038240  96.5566800  93.9043940
  26.1944360  96.9242790  95.2886080  26.5762940 100.9557110  96.5637250
  26.2791230 100.3502580  95.8845030  27.5262760 100.9934420  96.4526610
  32.7086590  97.5431920  89.1286310  33.1479870  96.7054350  88.9824130
  33.4215010  98.1761320  89.2150450  24.4952590  97.5652120 101.7902420
  24.3560360  98.4374920 102.1589820  23.6133950  97.2224930 101.6450360
  38.2447760 104.2900920 105.2951740  38.7207480 104.7683810 105.9740820
  38.8654920 104.2218410 104.5697240  20.4471240  99.3349670  97.7073330
  20.5251660  99.4698440  96.7629050  21.0612920  98.6265560  97.9001450
  20.5030760 100.3763840 100.2467790  20.6661800  99.9069200  99.4287160
  20.9683210  99.8687400 100.9116630  25.2749530  89.5069600  95.2828360
  24.8317680  90.2879140  94.9512880  25.8334520  89.8299490  95.9899300
  34.5623850  93.5947070 102.0160340  33.7117440  93.2952820 102.3369410
  34.4025640  93.8389080 101.1044160  28.3908350  89.1280300  90.1634190
  27.7662530  89.1240170  90.8887500  28.3038470  88.2611260  89.7670160
  27.3125430  90.0516930  97.1417960  27.6097760  90.9579760  97.0609980
  27.8610990  89.5635710  96.5277530  25.0663750  94.6303170  93.0109610
  24.8404670  94.4140340  93.9156230  24.2856280  95.0631630  92.6655580
  22.6373500  91.9402420 101.8303660  22.2436890  92.7877630 102.0376440
  21.9491900  91.3028790 102.0212300  19.9390550  89.8630880  95.8633740
  19.6503600  90.4333740  96.5758720  20.6836310  89.3835330  96.2264970
  20.1260780  93.8051000  87.0736460  20.0435450  94.7481760  87.2151450
  19.7743840  93.6625910  86.1948810  27.9258910  92.5390030  96.1406810
  27.9294970  92.0979980  95.2911350  28.8210030  92.8607360  96.2478630
  27.9879060  93.5402110  89.1313570  28.1091880  93.4988590  90.0799390
  27.6027570  94.4026260  88.9760300  31.9507430  91.3169510  97.1477260
  31.9680170  91.7678160  97.9919110  31.7023010  90.4175150  97.3610700
  27.0000560  95.8503250  88.5296870  26.4317460  95.4021500  87.9032780
  27.7089560  96.2096030  87.9962020  35.3778180  88.7301690 102.9863640
  35.7023950  87.9991350 103.5121620  35.4134690  88.4115330 102.0844630
  22.0769740  99.7515270 102.4063600  21.6924530  99.1108940 103.0046560
  22.3881930 100.4551390 102.9758330  28.2266880  96.5991810  97.8872220
  28.5937010  96.1250380  98.6333560  28.0371940  97.4733380  98.2280560
  21.0907370  91.3435500  94.0165690  20.8054290  90.9791170  94.8544310
  21.0286230  90.6115960  93.4028830  30.7645960  90.2364760  90.7379060
  29.9510570  89.7377930  90.6624370  30.5707910  91.0763010  90.3215410
  33.4794350  94.6084410  89.0341220  34.3673970  94.9201640  88.8592560
  33.4499440  93.7356660  88.6421800  29.4754940 100.7808100  89.7129390
  29.8170640 101.5250330  89.2172710  28.6467650 101.0939220  90.0754220
  22.0729980  96.4803190 101.3527790  21.7144920  97.1457040 101.9401130
  21.7784540  95.6486740 101.7240410  27.7472840  97.8667660  92.0970670
  28.2035620  98.6772910  92.3230860  27.3961050  97.5490800  92.9289160
  30.0505450 103.3774000  99.3262970  30.6947670 103.5833380 100.0036390
  30.4134890 102.6162400  98.8733820  23.6484620  88.2105310  92.5693190
  23.5199250  88.2023210  93.5178110  22.8246640  88.5488400  92.2184200
  20.9509280 105.6921830  88.5424020  21.3106920 106.2911170  87.8881290
  20.8101620 106.2381720  89.3159050  20.6478550  89.9696430 102.0299890
  19.9337070  90.1693350 102.6352500  21.0673590  89.1936000 102.4014690
  20.9351140 103.9576690 103.0166420  21.0442260 103.0171430 102.8761810
  20.2831700 104.2231440 102.3680150  26.9677900 103.0753030  89.3597690
  26.9588000 103.8082720  88.7442200  26.0476260 102.8284610  89.4524650
  29.9537500 103.1381270  88.0222880  30.0549480 102.9345260  87.0924860
  29.0539240 102.8839550  88.2270660  27.4763390  93.6961630  92.0046780
  26.7679540  94.1647970  92.4460390  27.7607870  93.0383640  92.6391970
  31.5078820  90.4212290  93.4442570  31.3846600  90.4398420  92.4952080
  32.4563380  90.4691230  93.5640970  36.3086180  91.3326290 100.8467700
  35.8059780  92.0731690 101.1861510  37.1242840  91.7210290 100.5304490
  24.5789830  98.2579070  87.8533020  25.3453100  98.1460430  88.4158450
  24.6564520  97.5617040  87.2009790  36.6033770 103.7468320  95.9683320
  36.7281190 104.5699490  96.4407130  37.4699330 103.5359050  95.6207470
  24.0751300 105.8399530  95.6400450  24.8113780 105.2914990  95.9109020
  24.4592220 106.7055540  95.5006440  23.0809580 105.0245600 104.8286030
  23.8822310 105.3457650 105.2421430  22.5661400 104.6641180 105.5505940
  27.1853610 105.0129840  87.4626020  27.9782220 105.3018670  87.0107810
  26.6657960 104.5822010  86.7838500  36.2383780 104.2399970  88.8862760
  35.9525290 103.8265110  88.0716940  36.0403330 105.1687680  88.7663280
  20.8007390  97.5119060 103.7722080  21.3046410  96.9326340 104.3438310
  20.0614810  97.7959290 104.3098450  30.9433740  99.2953280  87.9310360
  30.3943840  99.7422580  88.5753100  31.5653000  98.7902530  88.4548030
  34.9968680 100.6495380 103.8632620  35.7378150 100.9871140 103.3600080
  34.2341360 100.8187440 103.3102390  22.8330470  95.6548650 104.6672150
  22.8735810  95.3562520 105.5757380  23.6875970  96.0556260 104.5079670
  26.6108860  98.2544200  89.8275660  27.0325280  98.0884070  90.6707050
  26.7359700  97.4444430  89.3330800  29.1236500  97.2781810  87.0752760
  29.6442160  96.5630830  86.7093910  29.7704900  97.9167680  87.3753270
  33.6714340  98.7010210 102.3987830  34.0855360  98.8555290 103.2478250
  32.7365340  98.8265430 102.5613610  25.2608580  91.2003120 102.7143930
  25.1665450  90.5823870 101.9894800  24.6805970  91.9269410 102.4873840
  28.0270020  89.7576360  99.7471320  27.5787320  89.7800620  98.9016870
  27.3935220  89.3595380 100.3441620  28.4329570  98.6530690 100.3683760
  28.8517680  99.4963420 100.1960000  27.5138200  98.7902730 100.1390540
  32.3555670  92.5434030 103.2430440  31.6671190  91.8815570 103.1780430
  33.0761690  92.0972300 103.6878900  27.5235490  90.3712670  87.7467900
  27.1757490  89.6936660  87.1670350  27.7248260  89.9102180  88.5611290
  21.0316700 104.3880090  97.7843390  20.5947690 104.5680890  98.6167540
  21.5994380 105.1454710  97.6425110  37.3636790  98.3762390  89.9124610
  38.1255700  98.9459040  90.0184300  37.3791160  97.8089590  90.6832920
  20.8641130  96.9000320  94.1432270  20.2089970  96.6311960  93.4991970
  21.7019080  96.7904800  93.6934250  37.4155960  98.6696760  87.0697130
  37.6904800  99.5775640  86.9416350  37.2266700  98.6059290  88.0059120
  21.9017060  97.2852890  98.6835610  22.2690100  97.1980290  99.5631630
  21.3327880  96.5219440  98.5842470  36.7020920  95.7537270 101.6966080
  36.4707010  95.5250020 100.7964030  36.9625470  96.6736820 101.6510970
  21.4533060  94.1961980 102.5894030  20.5589110  94.1628740 102.9287740
  21.9930610  94.3948770 103.3545280  22.2680580  89.2204120  87.0354630
  22.9908710  89.7613060  87.3535850  22.5405100  88.9467540  86.1596170
  36.0772230  94.0896590  91.3026210  36.5731350  93.8567460  92.0875090
  35.8788300  93.2508430  90.8863850  37.5059390  92.7257540  93.8363890
  37.3958670  92.5713580  94.7746160  38.2666980  92.1978480  93.5939300
  35.8525110  88.6651670 100.2946890  36.4897330  89.2785810 100.6606080
  36.0000000  88.7012330  99.3496120  23.3169140 101.7985580 103.8455760
  23.2738770 101.4278490 104.7270220  23.4480150 102.7363150 103.9857580
  27.0175170 103.3545170  99.4465480  26.7766530 103.6219730  98.5596000
  27.9577810 103.5250900  99.5016340  29.2229590  89.8177860 103.2021990
  29.1618480  90.4099690 103.9517400  30.1629970  89.7103820 103.0572250
  31.8604150  89.4747920 102.8414280  32.4744560  89.7927210 102.1795360
  32.4053710  88.9896510 103.4610140  22.3825410  88.1542180 102.9553340
  22.9308400  87.9730230 102.1919450  22.4480720  87.3636290 103.4909650
  23.1557170 104.7447830 100.9653540  22.5617490 104.6132530 101.7043580
  23.1481010 103.9085970 100.4995640  32.6012190  88.0380060  99.1683570
  31.7272030  88.3715170  98.9656500  32.4922940  87.5653240  99.9935440
  33.5084170  90.2450930 100.5525290  33.1797530  89.4302690 100.1727020
  34.4566470  90.2020740 100.4290980  22.7869400 102.1106210  99.9161580
  22.0603460 101.4911500  99.8487530  22.8478550 102.5046820  99.0459660
  26.3914500 104.3251210  96.7010990  26.9079520 103.7138570  96.1759250
  27.0411880 104.8279990  97.1922000  29.1310000 105.2159700  97.5279970
  29.4187810 104.9614000  96.6512980  29.6433220 104.6637060  98.1185540
  30.3487010  88.9549900  98.1076480  29.5658800  89.4295400  98.3873240
  30.0549940  88.0504730  97.9989660  34.9008080  89.6573000  96.1525570
  35.3416170  89.6018100  95.3047170  34.6315670  90.5731010  96.2235750
  36.7646650  89.2888240  94.1634390  36.7035050  88.3449460  94.0165410
  37.5438680  89.3968330  94.7087850  21.6927420  89.2597380  90.6290200
  22.4506780  89.3726260  90.0554230  21.2304590  90.0966580  90.5833630
  28.2341230  91.3736650  93.6192510  27.4215740  90.9993540  93.2788390
  28.7382870  90.6181730  93.9213700  32.7366210  88.0379100  94.8575580
  33.3395580  88.6099310  95.3324100  31.9959200  88.6018540  94.6349480
  26.2590410  89.5236570  92.2237560  25.6293150  88.8223880  92.3907690
  25.7195550  90.2840700  92.0070720  26.3845970  88.8020550 104.6590050
  26.1030240  89.3054150 103.8950870  26.7665670  88.0042300 104.2932180
  25.2755070 106.0696210  89.4457730  26.0073890 105.7855490  88.8981620
  25.5348740 105.8309490  90.3357110  32.9861430  88.2174130 105.2370520
  32.8726880  88.5368740 106.1322040  33.8031170  88.6186640 104.9407800
  35.7659920 105.3645660 104.7189210  36.5585240 104.8694890 104.5115170
  36.0593070 106.0435800 105.3264820  24.0403450  98.3265430  78.3590290
  23.2088330  98.0714140  78.7586800  24.6484430  98.3976200  79.0948210
  24.0204710 102.3605520  78.5548310  24.3232750 101.4703260  78.3758530
  24.7648300 102.9175740  78.3270560  20.4128410  95.8872970  78.0272380
  20.9844520  95.1195170  78.0276020  20.4129950  96.1861730  77.1178990
  21.6553280  91.2957330  79.8141310  21.4756120  90.3983080  80.0944070
  21.2533360  91.8429200  80.4888260  30.4951780  93.4973190  77.7153620
  30.8716600  92.6245070  77.6027290  30.3971290  93.8331890  76.8244060
  22.2739950  93.7917830  78.4223650  22.9550060  94.0556200  79.0411050
  21.9588000  92.9518700  78.7561660  26.4664520  94.8385190  77.5096240
  26.9742740  95.3366160  78.1501260  26.9977760  94.0620390  77.3335600
  38.5675450  93.0090380  81.2125590  37.8627620  93.3972090  80.6940700
  38.8333370  93.7040670  81.8146520  24.7500620  89.4783750  81.7759660
  24.7519060  89.9956140  80.9705560  23.9204930  89.0013930  81.7529590
  26.0003470  99.1178930  79.9533160  25.6672850  99.7447850  80.5954230
  26.1770150  99.6440810  79.1734830  24.4315950  91.1893710  79.7830110
  24.7732760  92.0335760  79.4883980  23.4931760  91.3377450  79.8995450
  25.2122570 101.0859730  81.7682340  25.8296570 101.7610810  81.4866790
  24.3515690 101.4947710  81.6769840  20.5054910 100.2759590  70.6489190
  20.1282890 100.7646690  69.9174090  20.7627980 100.9484870  71.2795720
  36.1300160 102.5499140  79.6836980  35.4463680 103.2198250  79.6753650
  36.6694450 102.7479790  78.9181840  37.5824300  92.3778800  77.8118710
  36.6349210  92.4117780  77.9434140  37.9074290  93.1917750  78.1968070
  33.6658900 104.3943270  78.3982160  33.6786060 103.9905560  77.5304420
  33.1134120 105.1690560  78.2943590  33.0644340  99.2973110  79.7264770
  33.4813130  99.0833220  78.8918230  33.7884160  99.5545900  80.2973390
  37.0106440  97.6960330  79.8181010  36.1825070  97.7653420  79.3431140
  37.6056920  98.2814640  79.3496840  33.9748450  94.4829650  80.7635880
  33.5619630  95.3083360  81.0175870  33.2424400  93.8974690  80.5712240
  24.8209860  94.0432760  79.4053590  25.3724450  94.1528100  78.6306840
  25.3353370  94.4170360  80.1208820  34.6648550 104.5288980  81.4516860
  34.1879110 105.3361170  81.2589470  33.9810340 103.8767310  81.6043070
  24.4952590  97.5652120  83.0158930  24.3560360  98.4374920  83.3846330
  23.6133950  97.2224930  82.8706870  26.2932940 103.5073820  85.2244080
  26.2648370 103.9116770  84.3572510  26.1297910 102.5784180  85.0615680
  38.2447760 104.2900920  86.5208250  38.7207480 104.7683810  87.1997330
  38.8654920 104.2218410  85.7953750  20.4471240  99.3349670  78.9329840
  20.5251660  99.4698440  77.9885560  21.0612920  98.6265560  79.1257960
  21.6918870 101.0349860  75.3436020  21.2846950 101.1764450  74.4889620
  22.5831880 100.7510020  75.1407230  37.6481010 101.4813770  83.6808260
  37.7744070 101.2425650  82.7625440  37.6902390 100.6498310  84.1530340
  31.5097750 105.1841770  82.2503070  32.0242420 105.0949780  83.0525500
  30.6666830 105.5301470  82.5430980  20.5030760 100.3763840  81.4724300
  20.6661800  99.9069200  80.6543670  20.9683210  99.8687400  82.1373140
  29.5619340  92.3738120  82.1120190  29.0998710  92.5821140  82.9240130
  29.1597450  91.5597470  81.8090860  34.5623850  93.5947070  83.2416850
  33.7117440  93.2952820  83.5625920  34.4025640  93.8389080  82.3300670
  31.6573560  95.0948820  85.3415640  31.9826970  94.2612570  85.0017870
  32.4453890  95.6177340  85.4893970  27.3125430  90.0516930  78.3674470
  27.6097760  90.9579760  78.2866490  27.8610990  89.5635710  77.7534040
  27.5062960  95.5288750  84.9026390  27.4106560  94.5883480  84.7526790
  28.3494940  95.7503820  84.5074460  22.6373500  91.9402420  83.0560170
  22.2436890  92.7877630  83.2632950  21.9491900  91.3028790  83.2468810
  29.2118550  92.0237390  86.1256910  28.5216870  91.8309590  86.7603000
  29.9550850  92.3072030  86.6581210  19.9390550  89.8630880  77.0890250
  19.6503600  90.4333740  77.8015230  20.6836310  89.3835330  77.4521480
  31.4881520  95.8635830  78.9610830  30.7562640  96.3722640  79.3100930
  31.0905860  95.0465810  78.6599610  27.9258910  92.5390030  77.3663320
  27.9294970  92.0979980  76.5167860  28.8210030  92.8607360  77.4735140
  23.7761290  92.4216520  76.3257530  23.4361340  92.8991750  77.0824580
  23.0138610  91.9681640  75.9658630  31.9507430  91.3169510  78.3733770
  31.9680170  91.7678160  79.2175620  31.7023010  90.4175150  78.5867210
  35.3778180  88.7301690  84.2120150  35.7023950  87.9991350  84.7378130
  35.4134690  88.4115330  83.3101140  28.2266880  96.5991810  79.1128730
  28.5937010  96.1250380  79.8590070  28.0371940  97.4733380  79.4537070
  21.0907370  91.3435500  75.2422200  20.8054290  90.9791170  76.0800820
  21.0286230  90.6115960  74.6285340  26.0166250  95.6400450  81.4312940
  25.7123320  96.5192430  81.6563300  26.9712710  95.7000240  81.4670380
  30.6854820  98.9135860  83.7075180  30.6192130  97.9931530  83.4532770
  30.0559960  99.0111300  84.4219820  22.0729980  96.4803190  82.5784300
  21.7144920  97.1457040  83.1657640  21.7784540  95.6486740  82.9496920
  25.2743100  96.9387430  85.4623850  24.9743240  97.0844610  84.5651670
  26.0454340  96.3792720  85.3697240  35.7508620  95.9196250  69.7277590
  35.6672340  96.3510470  68.8774030  36.4702810  96.3794600  70.1604410
  36.8282760  98.3763770  82.8047560  36.1030950  98.9692550  82.6076950
  37.3558220  98.3687310  82.0060930  33.0975150 102.1801250  82.4732990
  33.4331390 102.7667940  83.1510910  32.1775490 102.0493960  82.7030780
  20.9509280 105.6921830  69.7680530  21.3106920 106.2911170  69.1137800
  20.8101620 106.2381720  70.5415560  20.6478550  89.9696430  83.2556400
  19.9337070  90.1693350  83.8609010  21.0673590  89.1936000  83.6271200
  20.9351140 103.9576690  84.2422930  21.0442260 103.0171430  84.1018320
  20.2831700 104.2231440  83.5936660  32.1417330  92.4618740  81.0057850
  32.5098150  91.6413950  81.3337420  31.2815530  92.5220630  81.4213500
  29.1019320  95.1158330  81.2295820  29.6004570  95.5904150  81.8947670
  29.2442270  94.1921850  81.4365850  36.3086180  91.3326290  82.0724210
  35.8059780  92.0731690  82.4118020  37.1242840  91.7210290  81.7561000
  36.6033770 103.7468320  77.1939830  36.7281190 104.5699490  77.6663640
  37.4699330 103.5359050  76.8463980  24.0751300 105.8399530  76.8656960
  24.8113780 105.2914990  77.1365530  24.4592220 106.7055540  76.7262950
  20.9596780 101.9073100  72.7398470  20.0336560 102.1494240  72.7303880
  21.4253210 102.7347360  72.6183220  23.0809580 105.0245600  86.0542540
  23.8822310 105.3457650  86.4677940  22.5661400 104.6641180  86.7762450
  31.9174210 101.1325470  86.0017950  31.3112370 101.1557070  85.2613700
  31.6128320 100.4008510  86.5385200  33.3474580 104.8605760  84.6127360
  34.2996330 104.7763780  84.5627600  33.2002800 105.5247470  85.2861150
  27.7031010 100.2333250  68.5524880  27.5981650  99.6185600  69.2786260
  27.5355230  99.7099140  67.7687890  22.8330470  95.6548650  85.8928660
  22.8735810  95.3562520  86.8013890  23.6875970  96.0556260  85.7336180
  24.7736280  94.2340750  83.8603150  24.2432740  93.7431700  83.2326490
  25.4424350  94.6624950  83.3261080  29.1236500  97.2781810  68.3009270
  29.6442160  96.5630830  67.9350420  29.7704900  97.9167680  68.6009780
  33.6714340  98.7010210  83.6244340  34.0855360  98.8555290  84.4734760
  32.7365340  98.8265430  83.7870120  25.2608580  91.2003120  83.9400440
  25.1665450  90.5823870  83.2151310  24.6805970  91.9269410  83.7130350
  28.0270020  89.7576360  80.9727830  27.5787320  89.7800620  80.1273380
  27.3935220  89.3595380  81.5698130  28.4329570  98.6530690  81.5940270
  28.8517680  99.4963420  81.4216510  27.5138200  98.7902730  81.3647050
  30.7693470  96.3846870  82.9778110  30.8889680  95.7888010  83.7172950
  31.6287470  96.4216560  82.5579410  33.1081370  96.9384060  81.5540620
  32.5816590  97.4626680  80.9505760  33.4512710  97.5711450  82.1850350
  26.2836990 104.9583700  82.7098000  25.7458080 105.6829760  82.3906700
  26.5370950 104.4814040  81.9195340  27.5362240  92.9268220  84.2353930
  28.1261930  92.6184070  84.9231750  26.7182480  92.4547970  84.3913830
  32.3555670  92.5434030  84.4686950  31.6671190  91.8815570  84.4036940
  33.0761690  92.0972300  84.9135410  24.3050560  91.4278050  67.9868210
  24.6076460  91.4345480  67.0787360  25.0445150  91.0775910  68.4835870
  29.1399200 106.1934910  82.9684650  29.0657900 107.0970050  83.2757020
  28.2378040 105.8746810  82.9406720  27.5235490  90.3712670  68.9724410
  27.1757490  89.6936660  68.3926860  27.7248260  89.9102180  69.7867800
  20.5426490 103.5209500  76.2718270  20.8729500 102.6530560  76.0396910
  20.9717490 103.7268020  77.1023230  21.0316700 104.3880090  79.0099900
  20.5947690 104.5680890  79.8424050  21.5994380 105.1454710  78.8681620
  36.6678880 103.8897090  83.2977210  36.0680870 103.9489650  82.5541130
  36.7972780 102.9502070  83.4274060  37.9080330 101.6314910  68.6346920
  37.0773290 101.6991560  69.1054150  38.0852160 102.5219030  68.3313780
  20.8641130  96.9000320  75.3688780  20.2089970  96.6311960  74.7248480
  21.7019080  96.7904800  74.9190760  35.3530520 100.6149070  81.3953370
  34.5390360 101.0446230  81.6579160  35.7604720 101.2267480  80.7822420
  21.9017060  97.2852890  79.9092120  22.2690100  97.1980290  80.7888140
  21.3327880  96.5219440  79.8098980  36.7020920  95.7537270  82.9222590
  36.4707010  95.5250020  82.0220540  36.9625470  96.6736820  82.8767480
  21.4533060  94.1961980  83.8150540  20.5589110  94.1628740  84.1544250
  21.9930610  94.3948770  84.5801790  35.1408990  90.9793700  85.7002290
  36.0179170  90.9877100  86.0836290  35.1529830  90.2424540  85.0894640
  20.0779210  94.1099250  71.3114110  19.1743290  94.3729450  71.1365770
  20.5619830  94.3810420  70.5314070  36.7661980  94.9163110  80.1109860
  35.8164690  94.8826650  80.2254850  36.9474990  95.8263220  79.8759630
  21.9572770  88.4710310  78.1633760  22.6048960  87.9207690  77.7228920
  22.3774610  88.7253460  78.9849570  37.5059390  92.7257540  75.0620400
  37.3958670  92.5713580  76.0002670  38.2666980  92.1978480  74.8195810
  35.8525110  88.6651670  81.5203400  36.4897330  89.2785810  81.8862590
  36.0000000  88.7012330  80.5752630  38.3949660  90.5565460  68.3026540
  39.3198970  90.4246640  68.0944830  38.3725450  90.6358280  69.2562990
  38.4688150  91.3276120  70.9283250  37.6739650  91.2621240  71.4576160
  38.6731430  92.2626760  70.9168600  21.7104770  88.6265980  80.9059080
  21.3619590  89.0829800  81.6717260  21.3792470  87.7323110  80.9881510
  23.3169140 101.7985580  85.0712270  23.2738770 101.4278490  85.9526730
  23.4480150 102.7363150  85.2114090  27.0175170 103.3545170  80.6721990
  26.7766530 103.6219730  79.7852510  27.9577810 103.5250900  80.7272850
  29.2229590  89.8177860  84.4278500  29.1618480  90.4099690  85.1773910
  30.1629970  89.7103820  84.2828760  31.8604150  89.4747920  84.0670790
  32.4744560  89.7927210  83.4051870  32.4053710  88.9896510  84.6866650
  38.2779330 105.3739550  81.4732630  37.7837610 105.7708420  80.7559760
  37.6692620 104.7488760  81.8669910  22.3825410  88.1542180  84.1809850
  22.9308400  87.9730230  83.4175960  22.4480720  87.3636290  84.7166160
  23.1557170 104.7447830  82.1910050  22.5617490 104.6132530  82.9300090
  23.1481010 103.9085970  81.7252150  32.6012190  88.0380060  80.3940080
  31.7272030  88.3715170  80.1913010  32.4922940  87.5653240  81.2191950
  33.5084170  90.2450930  81.7781800  33.1797530  89.4302690  81.3983530
  34.4566470  90.2020740  81.6547490  35.9618780 106.0162970  78.7519370
  35.5021750 106.7678780  78.3777390  35.3331240 105.2969440  78.6934170
  22.7869400 102.1106210  81.1418090  22.0603460 101.4911500  81.0744040
  22.8478550 102.5046820  80.2716170  26.3914500 104.3251210  77.9267500
  26.9079520 103.7138570  77.4015760  27.0411880 104.8279990  78.4178510
  30.3487010  88.9549900  79.3332990  29.5658800  89.4295400  79.6129750
  30.0549940  88.0504730  79.2246170  21.0699400 105.4280600  74.3514850
  20.9021440 104.7951280  75.0496740  20.2033910 105.6340000  74.0009040
  21.6927420  89.2597380  71.8546710  22.4506780  89.3726260  71.2810740
  21.2304590  90.0966580  71.8090140  28.2341230  91.3736650  74.8449020
  27.4215740  90.9993540  74.5044900  28.7382870  90.6181730  75.1470210
  32.7366210  88.0379100  76.0832090  33.3395580  88.6099310  76.5580610
  31.9959200  88.6018540  75.8605990  22.6762100 104.1213830  71.7964990
  22.1509720 104.5021860  71.0926950  22.6006680 104.7464600  72.5174700
  29.1982360 106.1375800  86.1204680  30.1249670 105.9020070  86.1640640
  29.1832790 106.9647800  85.6390710  37.4327420 105.6801370  73.1178930
  37.6079610 104.9939110  72.4739850  36.7348990 106.2048420  72.7255600
  26.3845970  88.8020550  85.8846560  26.1030240  89.3054150  85.1207380
  26.7665670  88.0042300  85.5188690  32.9861430  88.2174130  86.4627030
  32.8726880  88.5368740  87.3578550  33.8031170  88.6186640  86.1664310
  31.8919580  96.2366600  56.8261770  31.8113630  95.3221210  56.5553480
  31.4784000  96.7333670  56.1201480  30.0237620  98.0145620  58.7071040
  29.2479720  97.5346060  58.9969610  30.6750550  97.3351270  58.5327200
  24.0403450  98.3265430  59.5846800  23.2088330  98.0714140  59.9843310
  24.6484430  98.3976200  60.3204720  34.0445050 102.4205810  57.4870170
  33.5826580 101.6493050  57.8157340  34.8570600 102.4471880  57.9922620
  24.0204710 102.3605520  59.7804820  24.3232750 101.4703260  59.6015040
  24.7648300 102.9175740  59.5527070  22.4495400  93.2867320  53.3689190
  21.5612100  93.6283290  53.2669070  22.7336590  93.0867640  52.4770020
  20.4128410  95.8872970  59.2528890  20.9844520  95.1195170  59.2532530
  20.4129950  96.1861730  58.3435500  30.2708360 104.7063820  57.1074160
  29.6519800 105.1621320  56.5368600  31.1260140 104.8615280  56.7063860
  29.4646610 100.6902810  58.7141200  29.3954890  99.7492750  58.5530330
  30.2266470 100.7804220  59.2863770  21.6553280  91.2957330  61.0397820
  21.4756120  90.3983080  61.3200580  21.2533360  91.8429200  61.7144770
  30.4951780  93.4973190  58.9410130  30.8716600  92.6245070  58.8283800
  30.3971290  93.8331890  58.0500570  24.6256790  91.8698820  54.4027570
  24.7323540  92.7702550  54.7096330  23.7149150  91.8216790  54.1122220
  34.2775900  90.9923630  55.8738470  35.0985520  90.5020200  55.9163950
  34.3109980  91.5821290  56.6270310  22.2739950  93.7917830  59.6480160
  22.9550060  94.0556200  60.2667560  21.9588000  92.9518700  59.9818170
  26.4664520  94.8385190  58.7352750  26.9742740  95.3366160  59.3757770
  26.9977760  94.0620390  58.5592110  38.5675450  93.0090380  62.4382100
  37.8627620  93.3972090  61.9197210  38.8333370  93.7040670  63.0403030
  24.7500620  89.4783750  63.0016170  24.7519060  89.9956140  62.1962070
  23.9204930  89.0013930  62.9786100  31.1371710  99.5903060  54.5006070
  30.5188980 100.0552510  53.9368790  31.6494960 100.2830540  54.9175580
  34.5137380  92.9324010  58.6466010  33.8092950  93.2208900  59.2269120
  34.8749540  93.7424120  58.2865570  24.4315950  91.1893710  61.0086620
  24.7732760  92.0335760  60.7140490  23.4931760  91.3377450  61.1251960
  20.5054910 100.2759590  51.8745700  20.1282890 100.7646690  51.1430600
  20.7627980 100.9484870  52.5052230  36.1300160 102.5499140  60.9093490
  35.4463680 103.2198250  60.9010160  36.6694450 102.7479790  60.1438350
  37.5824300  92.3778800  59.0375220  36.6349210  92.4117780  59.1690650
  37.9074290  93.1917750  59.4224580  33.6658900 104.3943270  59.6238670
  33.6786060 103.9905560  58.7560930  33.1134120 105.1690560  59.5200100
  33.0644340  99.2973110  60.9521280  33.4813130  99.0833220  60.1174740
  33.7884160  99.5545900  61.5229900  30.5024600  96.7424810  54.0691330
  29.5753880  96.6762190  54.2979800  30.6549420  97.6804940  53.9546570
  30.4893680  93.0141810  51.0658490  29.5497350  93.1755770  51.1510950
  30.8076940  93.7327490  50.5194480  33.9748450  94.4829650  61.9892390
  33.5619630  95.3083360  62.2432380  33.2424400  93.8974690  61.7968750
  26.1081240  97.2689550  56.8511060  25.7038240  96.5566800  56.3556960
  26.1944360  96.9242790  57.7399100  26.5762940 100.9557110  59.0150270
  26.2791230 100.3502580  58.3358050  27.5262760 100.9934420  58.9039630
  22.8085870  96.1634530  54.3517710  22.6883470  96.8896620  53.7398980
  22.4986760  95.3937440  53.8745620  38.2447760 104.2900920  67.7464760
  38.7207480 104.7683810  68.4253840  38.8654920 104.2218410  67.0210260
  20.4471240  99.3349670  60.1586350  20.5251660  99.4698440  59.2142070
  21.0612920  98.6265560  60.3514470  21.6918870 101.0349860  56.5692530
  21.2846950 101.1764450  55.7146130  22.5831880 100.7510020  56.3663740
  25.9640530 105.2495640  54.6815200  25.7883010 104.3331180  54.4683000
  25.1096270 105.6082930  54.9213000  37.5005020  93.5346230  65.8714510
  36.8849290  94.0425900  65.3429970  37.1801440  92.6344560  65.8140450
  20.5030760 100.3763840  62.6980810  20.6661800  99.9069200  61.8800180
  20.9683210  99.8687400  63.3629650  29.5619340  92.3738120  63.3376700
  29.0998710  92.5821140  64.1496640  29.1597450  91.5597470  63.0347370
  34.5623850  93.5947070  64.4673360  33.7117440  93.2952820  64.7882430
  34.4025640  93.8389080  63.5557180  31.6573560  95.0948820  66.5672150
  31.9826970  94.2612570  66.2274380  32.4453890  95.6177340  66.7150480
  28.3908350  89.1280300  52.6147210  27.7662530  89.1240170  53.3400520
  28.3038470  88.2611260  52.2183180  25.0663750  94.6303170  55.4622630
  24.8404670  94.4140340  56.3669250  24.2856280  95.0631630  55.1168600
  32.2961510  94.6366540  54.0613280  31.6970400  95.3602340  53.8776900
  32.8441120  94.5743320  53.2789730  27.5062960  95.5288750  66.1282900
  27.4106560  94.5883480  65.9783300  28.3494940  95.7503820  65.7330970
  30.9026380  93.2730080  56.0916560  31.2955950  93.5902280  55.2785250
  31.2643230  92.3941960  56.2061080  29.2118550  92.0237390  67.3513420
  28.5216870  91.8309590  67.9859510  29.9550850  92.3072030  67.8837720
  19.9390550  89.8630880  58.3146760  19.6503600  90.4333740  59.0271740
  20.6836310  89.3835330  58.6777990  20.1260780  93.8051000  49.5249480
  20.0435450  94.7481760  49.6664470  19.7743840  93.6625910  48.6461830
  31.4881520  95.8635830  60.1867340  30.7562640  96.3722640  60.5357440
  31.0905860  95.0465810  59.8856120  23.7761290  92.4216520  57.5514040
  23.4361340  92.8991750  58.3081090  23.0138610  91.9681640  57.1915140
  27.9879060  93.5402110  51.5826590  28.1091880  93.4988590  52.5312410
  27.6027570  94.4026260  51.4273320  27.0000560  95.8503250  50.9809890
  26.4317460  95.4021500  50.3545800  27.7089560  96.2096030  50.4475040
  28.2266880  96.5991810  60.3385240  28.5937010  96.1250380  61.0846580
  28.0371940  97.4733380  60.6793580  21.0907370  91.3435500  56.4678710
  20.8054290  90.9791170  57.3057330  21.0286230  90.6115960  55.8541850
  24.5448040  99.8461440  53.2536300  23.7710300  99.3059060  53.0935020
  25.2742670  99.3268050  52.9154060  30.7645960  90.2364760  53.1892080
  29.9510570  89.7377930  53.1137390  30.5707910  91.0763010  52.7728430
  30.6854820  98.9135860  64.9331690  30.6192130  97.9931530  64.6789280
  30.0559960  99.0111300  65.6476330  33.4794350  94.6084410  51.4854240
  34.3673970  94.9201640  51.3105580  33.4499440  93.7356660  51.0934820
  24.5885440  99.5141820  56.8915110  25.1064110  98.7110080  56.8372000
  24.1369460  99.4520960  57.7331940  29.4754940 100.7808100  52.1642410
  29.8170640 101.5250330  51.6685730  28.6467650 101.0939220  52.5267240
  30.6171550 101.7356430  64.6835490  30.6316090 100.8037390  64.4654400
  29.9096650 101.8216190  65.3225260  28.4445630 100.8621630  54.9358330
  29.1316760 101.4090840  55.3165920  27.6578050 101.4062360  54.9707940
  20.5838030  96.4794450  50.4275410  21.4532880  96.7619250  50.7111330
  20.0928350  97.2930320  50.3124220  27.7472840  97.8667660  54.5483690
  28.2035620  98.6772910  54.7743880  27.3961050  97.5490800  55.3802180
  30.0505450 103.3774000  61.7775990  30.6947670 103.5833380  62.4549410
  30.4134890 102.6162400  61.3246840  23.6484620  88.2105310  55.0206210
  23.5199250  88.2023210  55.9691130  22.8246640  88.5488400  54.6697220
  31.3237530 101.3806350  60.4953440  31.9659760 100.6799510  60.6085610
  31.8486880 102.1604790  60.3150330  33.0975150 102.1801250  63.6989500
  33.4331390 102.7667940  64.3767420  32.1775490 102.0493960  63.9287290
  20.9509280 105.6921830  50.9937040  21.3106920 106.2911170  50.3394310
  20.8101620 106.2381720  51.7672070  20.6478550  89.9696430  64.4812910
  19.9337070  90.1693350  65.0865520  21.0673590  89.1936000  64.8527710
  26.9677900 103.0753030  51.8110710  26.9588000 103.8082720  51.1955220
  26.0476260 102.8284610  51.9037670  22.5684540  98.2967920  52.5557470
  21.9612490  99.0366820  52.5652770  23.0433890  98.3867280  51.7295670
  32.1417330  92.4618740  62.2314360  32.5098150  91.6413950  62.5593930
  31.2815530  92.5220630  62.6470010  35.5079360  91.4175680  53.0401920
  34.8792520  91.5221350  52.3260150  35.0131280  91.6372460  53.8295800
  27.4763390  93.6961630  54.4559800  26.7679540  94.1647970  54.8973410
  27.7607870  93.0383640  55.0904990  29.1019320  95.1158330  62.4552330
  29.6004570  95.5904150  63.1204180  29.2442270  94.1921850  62.6622360
  31.5078820  90.4212290  55.8955590  31.3846600  90.4398420  54.9465100
  32.4563380  90.4691230  56.0153990  28.5955610 105.6567590  55.1683570
  28.8497110 105.6188980  54.2462940  27.6468090 105.5300920  55.1611820
  25.6798410  92.0046710  51.8310510  26.5288940  92.4416860  51.7650700
  25.3129680  92.3166970  52.6582570  24.5789830  98.2579070  50.3046040
  25.3453100  98.1460430  50.8671470  24.6564520  97.5617040  49.6522810
  23.2736590  95.6904140  50.9878930  23.3540180  94.7431650  51.0996330
  24.1656340  96.0211020  51.0939590  24.0751300 105.8399530  58.0913470
  24.8113780 105.2914990  58.3622040  24.4592220 106.7055540  57.9519460
  20.9596780 101.9073100  53.9654980  20.0336560 102.1494240  53.9560390
  21.4253210 102.7347360  53.8439730  27.1853610 105.0129840  49.9139040
  27.9782220 105.3018670  49.4620830  26.6657960 104.5822010  49.2351520
  31.9174210 101.1325470  67.2274460  31.3112370 101.1557070  66.4870210
  31.6128320 100.4008510  67.7641710  27.7031010 100.2333250  49.7781390
  27.5981650  99.6185600  50.5042770  27.5355230  99.7099140  48.9944400
  27.8545330  98.9190050  65.7570620  27.0891000  99.4875050  65.6725290
  28.0361290  98.6266260  64.8638850  34.9968680 100.6495380  66.3145640
  35.7378150 100.9871140  65.8113100  34.2341360 100.8187440  65.7615410
  26.6108860  98.2544200  52.2788680  27.0325280  98.0884070  53.1220070
  26.7359700  97.4444430  51.7843820  29.1236500  97.2781810  49.5265780
  29.6442160  96.5630830  49.1606930  29.7704900  97.9167680  49.8266290
  33.6714340  98.7010210  64.8500850  34.0855360  98.8555290  65.6991270
  32.7365340  98.8265430  65.0126630  34.1436510  96.0406370  66.8540000
  34.7257280  95.2858690  66.7660480  34.3198280  96.5713810  66.0771480
  25.2608580  91.2003120  65.1656950  25.1665450  90.5823870  64.4407820
  24.6805970  91.9269410  64.9386860  28.4329570  98.6530690  62.8196780
  28.8517680  99.4963420  62.6473020  27.5138200  98.7902730  62.5903560
  30.7693470  96.3846870  64.2034620  30.8889680  95.7888010  64.9429460
  31.6287470  96.4216560  63.7835920  33.1081370  96.9384060  62.7797130
  32.5816590  97.4626680  62.1762270  33.4512710  97.5711450  63.4106860
  25.5067760  94.3277430  49.2246840  25.3056820  93.4644790  49.5860180
  25.3359810  94.2410790  48.2868440  27.5362240  92.9268220  65.4610440
  28.1261930  92.6184070  66.1488260  26.7182480  92.4547970  65.6170340
  32.3555670  92.5434030  65.6943460  31.6671190  91.8815570  65.6293450
  33.0761690  92.0972300  66.1391920  32.9856070  89.1385660  51.7533720
  33.2658360  88.2953560  52.1093140  32.2121800  89.3708770  52.2672470
  24.3050560  91.4278050  49.2124720  24.6076460  91.4345480  48.3043870
  25.0445150  91.0775910  49.7092380  27.5235490  90.3712670  50.1980920
  27.1757490  89.6936660  49.6183370  27.7248260  89.9102180  51.0124310
  29.6884530 105.3593420  51.8167520  30.5835320 105.6978390  51.8386280
  29.7202160 104.6372830  51.1891800  23.3280690 100.7320470  50.0454520
  23.7655560 101.2750140  50.7012100  23.8128420  99.9067420  50.0550860
  20.5426490 103.5209500  57.4974780  20.8729500 102.6530560  57.2653420
  20.9717490 103.7268020  58.3279740  25.1388410 101.8518510  55.1576750
  24.8383950 101.7283480  56.0580660  25.0325900 100.9927100  54.7492480
  21.0316700 104.3880090  60.2356410  20.5947690 104.5680890  61.0680560
  21.5994380 105.1454710  60.0938130  36.6678880 103.8897090  64.5233720
  36.0680870 103.9489650  63.7797640  36.7972780 102.9502070  64.6530570
  20.8641130  96.9000320  56.5945290  20.2089970  96.6311960  55.9504990
  21.7019080  96.7904800  56.1447270  35.3530520 100.6149070  62.6209880
  34.5390360 101.0446230  62.8835670  35.7604720 101.2267480  62.0078930
  35.1408990  90.9793700  66.9258800  36.0179170  90.9877100  67.3092800
  35.1529830  90.2424540  66.3151150  20.0779210  94.1099250  52.5370620
  19.1743290  94.3729450  52.3622280  20.5619830  94.3810420  51.7570580
  22.6206420  93.1664790  50.4465000  23.3298120  92.7448010  49.9612280
  21.9046360  93.2340020  49.8148350  22.2680580  89.2204120  49.4867650
  22.9908710  89.7613060  49.8048870  22.5405100  88.9467540  48.6109190
  36.0772230  94.0896590  53.7539230  36.5731350  93.8567460  54.5388110
  35.8788300  93.2508430  53.3376870  21.9572770  88.4710310  59.3890270
  22.6048960  87.9207690  58.9485430  22.3774610  88.7253460  60.2106080
  37.5059390  92.7257540  56.2876910  37.3958670  92.5713580  57.2259180
  38.2666980  92.1978480  56.0452320  38.3949660  90.5565460  49.5283050
  39.3198970  90.4246640  49.3201340  38.3725450  90.6358280  50.4819500
  21.7104770  88.6265980  62.1315590  21.3619590  89.0829800  62.8973770
  21.3792470  87.7323110  62.2138020  29.2229590  89.8177860  65.6535010
  29.1618480  90.4099690  66.4030420  30.1629970  89.7103820  65.5085270
  22.7869400 102.1106210  62.3674600  22.0603460 101.4911500  62.3000550
  22.8478550 102.5046820  61.4972680  26.3914500 104.3251210  59.1524010
  26.9079520 103.7138570  58.6272270  27.0411880 104.8279990  59.6435020
  29.1310000 105.2159700  59.9792990  29.4187810 104.9614000  59.1026000
  29.6433220 104.6637060  60.5698560  21.0699400 105.4280600  55.5771360
  20.9021440 104.7951280  56.2753250  20.2033910 105.6340000  55.2265550
  21.6927420  89.2597380  53.0803220  22.4506780  89.3726260  52.5067250
  21.2304590  90.0966580  53.0346650  35.8800810  88.4400660  52.5828880
  36.0751440  89.3384110  52.8496310  35.0930680  88.2087740  53.0761830
  22.6762100 104.1213830  53.0221500  22.1509720 104.5021860  52.3183460
  22.6006680 104.7464600  53.7431210  24.0652570  89.7861430  51.6205190
  24.5945330  88.9991230  51.4913140  24.6980890  90.4652620  51.8540720
  26.2590410  89.5236570  54.6750580  25.6293150  88.8223880  54.8420710
  25.7195550  90.2840700  54.4583740  29.1982360 106.1375800  67.3461190
  30.1249670 105.9020070  67.3897150  29.1832790 106.9647800  66.8647220
  26.3845970  88.8020550  67.1103070  26.1030240  89.3054150  66.3463890
  26.7665670  88.0042300  66.7445200  25.2755070 106.0696210  51.8970750
  26.0073890 105.7855490  51.3494640  25.5348740 105.8309490  52.7870130
  24.4369860 102.1860940  51.9017080  23.8078740 102.6546040  52.4502910
  24.5517690 101.3410160  52.3363270  24.0403450  98.3265430  40.8103310
  23.2088330  98.0714140  41.2099820  24.6484430  98.3976200  41.5461230
  34.0445050 102.4205810  38.7126680  33.5826580 101.6493050  39.0413850
  34.8570600 102.4471880  39.2179130  24.0204710 102.3605520  41.0061330
  24.3232750 101.4703260  40.8271550  24.7648300 102.9175740  40.7783580
  22.4495400  93.2867320  34.5945700  21.5612100  93.6283290  34.4925580
  22.7336590  93.0867640  33.7026530  20.4128410  95.8872970  40.4785400
  20.9844520  95.1195170  40.4789040  20.4129950  96.1861730  39.5692010
  30.2708360 104.7063820  38.3330670  29.6519800 105.1621320  37.7625110
  31.1260140 104.8615280  37.9320370  21.6553280  91.2957330  42.2654330
  21.4756120  90.3983080  42.5457090  21.2533360  91.8429200  42.9401280
  34.2775900  90.9923630  37.0994980  35.0985520  90.5020200  37.1420460
  34.3109980  91.5821290  37.8526820  22.2739950  93.7917830  40.8736670
  22.9550060  94.0556200  41.4924070  21.9588000  92.9518700  41.2074680
  24.7500620  89.4783750  44.2272680  24.7519060  89.9956140  43.4218580
  23.9204930  89.0013930  44.2042610  26.0003470  99.1178930  42.4046180
  25.6672850  99.7447850  43.0467250  26.1770150  99.6440810  41.6247850
  34.5137380  92.9324010  39.8722520  33.8092950  93.2208900  40.4525630
  34.8749540  93.7424120  39.5122080  24.4315950  91.1893710  42.2343130
  24.7732760  92.0335760  41.9397000  23.4931760  91.3377450  42.3508470
  25.2122570 101.0859730  44.2195360  25.8296570 101.7610810  43.9379810
  24.3515690 101.4947710  44.1282860  20.5054910 100.2759590  33.1002210
  20.1282890 100.7646690  32.3687110  20.7627980 100.9484870  33.7308740
  28.1143840  88.6775980  38.5587720  28.4218820  88.1222870  37.8423220
  27.1844540  88.8120440  38.3760710  33.0644340  99.2973110  42.1777790
  33.4813130  99.0833220  41.3431250  33.7884160  99.5545900  42.7486410
  30.4893680  93.0141810  32.2915000  29.5497350  93.1755770  32.3767460
  30.8076940  93.7327490  31.7450990  33.9748450  94.4829650  43.2148900
  33.5619630  95.3083360  43.4688890  33.2424400  93.8974690  43.0225260
  26.5762940 100.9557110  40.2406780  26.2791230 100.3502580  39.5614560
  27.5262760 100.9934420  40.1296140  24.8209860  94.0432760  41.8566610
  25.3724450  94.1528100  41.0819860  25.3353370  94.4170360  42.5721840
  25.6681370 100.6938800  46.8914580  24.7709900 100.9178770  47.1387980
  25.6934240 100.8173740  45.9425980  24.4952590  97.5652120  45.4671950
  24.3560360  98.4374920  45.8359350  23.6133950  97.2224930  45.3219890
  30.8181970 102.4827990  36.7737080  31.2577880 103.2252320  36.3592470
  30.7568860 102.7254560  37.6976040  26.2932940 103.5073820  47.6757100
  26.2648370 103.9116770  46.8085530  26.1297910 102.5784180  47.5128700
  36.2903730  88.7974730  31.1196880  35.9776390  88.8901560  32.0195950
  37.0516200  89.3755760  31.0694310  22.8085870  96.1634530  35.5774220
  22.6883470  96.8896620  34.9655490  22.4986760  95.3937440  35.1002130
  38.2447760 104.2900920  48.9721270  38.7207480 104.7683810  49.6510350
  38.8654920 104.2218410  48.2466770  20.4471240  99.3349670  41.3842860
  20.5251660  99.4698440  40.4398580  21.0612920  98.6265560  41.5770980
  21.6918870 101.0349860  37.7949040  21.2846950 101.1764450  36.9402640
  22.5831880 100.7510020  37.5920250  33.4852150 105.4697110  34.1300090
  33.3253290 105.1800050  35.0281920  33.3198860 104.6937240  33.5945320
  25.9640530 105.2495640  35.9071710  25.7883010 104.3331180  35.6939510
  25.1096270 105.6082930  36.1469510  33.1878280 102.9784670  32.6898090
  32.4943440 102.9761960  32.0300370  33.9301140 102.5543990  32.2592260
  32.7528210 104.6047380  36.7646580  33.2085160 103.8236760  37.0785200
  33.0920730 105.3154200  37.3087760  37.5005020  93.5346230  47.0971020
  36.8849290  94.0425900  46.5686480  37.1801440  92.6344560  47.0396960
  20.5030760 100.3763840  43.9237320  20.6661800  99.9069200  43.1056690
  20.9683210  99.8687400  44.5886160  25.2749530  89.5069600  38.9597890
  24.8317680  90.2879140  38.6282410  25.8334520  89.8299490  39.6668830
  29.5619340  92.3738120  44.5633210  29.0998710  92.5821140  45.3753150
  29.1597450  91.5597470  44.2603880  34.5623850  93.5947070  45.6929870
  33.7117440  93.2952820  46.0138940  34.4025640  93.8389080  44.7813690
  31.6573560  95.0948820  47.7928660  31.9826970  94.2612570  47.4530890
  32.4453890  95.6177340  47.9406990  28.3908350  89.1280300  33.8403720
  27.7662530  89.1240170  34.5657030  28.3038470  88.2611260  33.4439690
  27.3125430  90.0516930  40.8187490  27.6097760  90.9579760  40.7379510
  27.8610990  89.5635710  40.2047060  27.5062960  95.5288750  47.3539410
  27.4106560  94.5883480  47.2039810  28.3494940  95.7503820  46.9587480
  22.6373500  91.9402420  45.5073190  22.2436890  92.7877630  45.7145970
  21.9491900  91.3028790  45.6981830  29.2118550  92.0237390  48.5769930
  28.5216870  91.8309590  49.2116020  29.9550850  92.3072030  49.1094230
  19.9390550  89.8630880  39.5403270  19.6503600  90.4333740  40.2528250
  20.6836310  89.3835330  39.9034500  20.1260780  93.8051000  30.7505990
  20.0435450  94.7481760  30.8920980  19.7743840  93.6625910  29.8718340
  23.7761290  92.4216520  38.7770550  23.4361340  92.8991750  39.5337600
  23.0138610  91.9681640  38.4171650  27.9879060  93.5402110  32.8083100
  28.1091880  93.4988590  33.7568920  27.6027570  94.4026260  32.6529830
  31.9507430  91.3169510  40.8246790  31.9680170  91.7678160  41.6688640
  31.7023010  90.4175150  41.0380230  27.0000560  95.8503250  32.2066400
  26.4317460  95.4021500  31.5802310  27.7089560  96.2096030  31.6731550
  35.3778180  88.7301690  46.6633170  35.7023950  87.9991350  47.1891150
  35.4134690  88.4115330  45.7614160  22.0769740  99.7515270  46.0833130
  21.6924530  99.1108940  46.6816090  22.3881930 100.4551390  46.6527860
  21.0907370  91.3435500  37.6935220  20.8054290  90.9791170  38.5313840
  21.0286230  90.6115960  37.0798360  26.0166250  95.6400450  43.8825960
  25.7123320  96.5192430  44.1076320  26.9712710  95.7000240  43.9183400
  24.5448040  99.8461440  34.4792810  23.7710300  99.3059060  34.3191530
  25.2742670  99.3268050  34.1410570  30.7645960  90.2364760  34.4148590
  29.9510570  89.7377930  34.3393900  30.5707910  91.0763010  33.9984940
  24.5885440  99.5141820  38.1171620  25.1064110  98.7110080  38.0628510
  24.1369460  99.4520960  38.9588450  29.4754940 100.7808100  33.3898920
  29.8170640 101.5250330  32.8942240  28.6467650 101.0939220  33.7523750
  22.0729980  96.4803190  45.0297320  21.7144920  97.1457040  45.6170660
  21.7784540  95.6486740  45.4009940  25.2743100  96.9387430  47.9136870
  24.9743240  97.0844610  47.0164690  26.0454340  96.3792720  47.8210260
  36.7795870 102.7738510  34.9072740  36.1372030 102.1194130  35.1816460
  36.3926530 103.1793600  34.1313410  28.4445630 100.8621630  36.1614840
  29.1316760 101.4090840  36.5422430  27.6578050 101.4062360  36.1964450
  20.5838030  96.4794450  31.6531920  21.4532880  96.7619250  31.9367840
  20.0928350  97.2930320  31.5380730  27.7472840  97.8667660  35.7740200
  28.2035620  98.6772910  36.0000390  27.3961050  97.5490800  36.6058690
  23.6484620  88.2105310  36.2462720  23.5199250  88.2023210  37.1947640
  22.8246640  88.5488400  35.8953730  35.1693250 101.6654970  31.4449090
  34.9430830 100.9485410  32.0373730  34.7789450 101.4167410  30.6070840
  20.9509280 105.6921830  32.2193550  21.3106920 106.2911170  31.5650820
  20.8101620 106.2381720  32.9928580  20.6478550  89.9696430  45.7069420
  19.9337070  90.1693350  46.3122030  21.0673590  89.1936000  46.0784220
  20.9351140 103.9576690  46.6935950  21.0442260 103.0171430  46.5531340
  20.2831700 104.2231440  46.0449680  26.9677900 103.0753030  33.0367220
  26.9588000 103.8082720  32.4211730  26.0476260 102.8284610  33.1294180
  22.5684540  98.2967920  33.7813980  21.9612490  99.0366820  33.7909280
  23.0433890  98.3867280  32.9552180  32.1417330  92.4618740  43.4570870
  32.5098150  91.6413950  43.7850440  31.2815530  92.5220630  43.8726520
  29.9537500 103.1381270  31.6992410  30.0549480 102.9345260  30.7694390
  29.0539240 102.8839550  31.9040190  29.1019320  95.1158330  43.6808840
  29.6004570  95.5904150  44.3460690  29.2442270  94.1921850  43.8878870
  31.5078820  90.4212290  37.1212100  31.3846600  90.4398420  36.1721610
  32.4563380  90.4691230  37.2410500  28.5955610 105.6567590  36.3940080
  28.8497110 105.6188980  35.4719450  27.6468090 105.5300920  36.3868330
  25.6798410  92.0046710  33.0567020  26.5288940  92.4416860  32.9907210
  25.3129680  92.3166970  33.8839080  36.3086180  91.3326290  44.5237230
  35.8059780  92.0731690  44.8631040  37.1242840  91.7210290  44.2074020
  24.5789830  98.2579070  31.5302550  25.3453100  98.1460430  32.0927980
  24.6564520  97.5617040  30.8779320  23.2736590  95.6904140  32.2135440
  23.3540180  94.7431650  32.3252840  24.1656340  96.0211020  32.3196100
  24.0751300 105.8399530  39.3169980  24.8113780 105.2914990  39.5878550
  24.4592220 106.7055540  39.1775970  20.9596780 101.9073100  35.1911490
  20.0336560 102.1494240  35.1816900  21.4253210 102.7347360  35.0696240
  23.0809580 105.0245600  48.5055560  23.8822310 105.3457650  48.9190960
  22.5661400 104.6641180  49.2275470  27.1853610 105.0129840  31.1395550
  27.9782220 105.3018670  30.6877340  26.6657960 104.5822010  30.4608030
  36.2383780 104.2399970  32.5632290  35.9525290 103.8265110  31.7486470
  36.0403330 105.1687680  32.4432810  20.8007390  97.5119060  47.4491610
  21.3046410  96.9326340  48.0207840  20.0614810  97.7959290  47.9867980
  27.7031010 100.2333250  31.0037900  27.5981650  99.6185600  31.7299280
  27.5355230  99.7099140  30.2200910  27.8545330  98.9190050  46.9827130
  27.0891000  99.4875050  46.8981800  28.0361290  98.6266260  46.0895360
  30.9433740  99.2953280  31.6079890  30.3943840  99.7422580  32.2522630
  31.5653000  98.7902530  32.1317560  22.8330470  95.6548650  48.3441680
  22.8735810  95.3562520  49.2526910  23.6875970  96.0556260  48.1849200
  26.6108860  98.2544200  33.5045190  27.0325280  98.0884070  34.3476580
  26.7359700  97.4444430  33.0100330  24.7736280  94.2340750  46.3116170
  24.2432740  93.7431700  45.6839510  25.4424350  94.6624950  45.7774100
  29.1236500  97.2781810  30.7522290  29.6442160  96.5630830  30.3863440
  29.7704900  97.9167680  31.0522800  25.2608580  91.2003120  46.3913460
  25.1665450  90.5823870  45.6664330  24.6805970  91.9269410  46.1643370
  28.0270020  89.7576360  43.4240850  27.5787320  89.7800620  42.5786400
  27.3935220  89.3595380  44.0211150  28.4329570  98.6530690  44.0453290
  28.8517680  99.4963420  43.8729530  27.5138200  98.7902730  43.8160070
  30.7693470  96.3846870  45.4291130  30.8889680  95.7888010  46.1685970
  31.6287470  96.4216560  45.0092430  33.1081370  96.9384060  44.0053640
  32.5816590  97.4626680  43.4018780  33.4512710  97.5711450  44.6363370
  25.5067760  94.3277430  30.4503350  25.3056820  93.4644790  30.8116690
  25.3359810  94.2410790  29.5124950  26.2836990 104.9583700  45.1611020
  25.7458080 105.6829760  44.8419720  26.5370950 104.4814040  44.3708360
  27.5362240  92.9268220  46.6866950  28.1261930  92.6184070  47.3744770
  26.7182480  92.4547970  46.8426850  32.3555670  92.5434030  46.9199970
  31.6671190  91.8815570  46.8549960  33.0761690  92.0972300  47.3648430
  32.9856070  89.1385660  32.9790230  33.2658360  88.2953560  33.3349650
  32.2121800  89.3708770  33.4928980  24.3050560  91.4278050  30.4381230
  24.6076460  91.4345480  29.5300380  25.0445150  91.0775910  30.9348890
  29.1399200 106.1934910  45.4197670  29.0657900 107.0970050  45.7270040
  28.2378040 105.8746810  45.3919740  27.5235490  90.3712670  31.4237430
  27.1757490  89.6936660  30.8439880  27.7248260  89.9102180  32.2380820
  29.6884530 105.3593420  33.0424030  30.5835320 105.6978390  33.0642790
  29.7202160 104.6372830  32.4148310  23.3280690 100.7320470  31.2711030
  23.7655560 101.2750140  31.9268610  23.8128420  99.9067420  31.2807370
  20.5426490 103.5209500  38.7231290  20.8729500 102.6530560  38.4909930
  20.9717490 103.7268020  39.5536250  25.1388410 101.8518510  36.3833260
  24.8383950 101.7283480  37.2837170  25.0325900 100.9927100  35.9748990
  21.0316700 104.3880090  41.4612920  20.5947690 104.5680890  42.2937070
  21.5994380 105.1454710  41.3194640  37.9080330 101.6314910  31.0859940
  37.0773290 101.6991560  31.5567170  38.0852160 102.5219030  30.7826800
  20.8641130  96.9000320  37.8201800  20.2089970  96.6311960  37.1761500
  21.7019080  96.7904800  37.3703780  37.4155960  98.6696760  30.7466660
  37.6904800  99.5775640  30.6185880  37.2266700  98.6059290  31.6828650
  33.8131570  91.6941610  32.0420290  34.2316450  91.5072590  31.2016950
  33.5067630  90.8420660  32.3523220  21.9017060  97.2852890  42.3605140
  22.2690100  97.1980290  43.2401160  21.3327880  96.5219440  42.2612000
  21.4533060  94.1961980  46.2663560  20.5589110  94.1628740  46.6057270
  21.9930610  94.3948770  47.0314810  20.0779210  94.1099250  33.7627130
  19.1743290  94.3729450  33.5878790  20.5619830  94.3810420  32.9827090
  22.6206420  93.1664790  31.6721510  23.3298120  92.7448010  31.1868790
  21.9046360  93.2340020  31.0404860  22.2680580  89.2204120  30.7124160
  22.9908710  89.7613060  31.0305380  22.5405100  88.9467540  29.8365700
  21.9572770  88.4710310  40.6146780  22.6048960  87.9207690  40.1741940
  22.3774610  88.7253460  41.4362590  35.8525110  88.6651670  43.9716420
  36.4897330  89.2785810  44.3375610  36.0000000  88.7012330  43.0265650
  38.3949660  90.5565460  30.7539560  39.3198970  90.4246640  30.5457850
  38.3725450  90.6358280  31.7076010  35.4106570 105.3667670  37.3734660
  36.0065640 105.0452240  36.6969080  35.6684720 104.8939490  38.1647930
  21.7104770  88.6265980  43.3572100  21.3619590  89.0829800  44.1230280
  21.3792470  87.7323110  43.4394530  23.3169140 101.7985580  47.5225290
  23.2738770 101.4278490  48.4039750  23.4480150 102.7363150  47.6627110
  27.0175170 103.3545170  43.1235010  26.7766530 103.6219730  42.2365530
  27.9577810 103.5250900  43.1785870  29.2229590  89.8177860  46.8791520
  29.1618480  90.4099690  47.6286930  30.1629970  89.7103820  46.7341780
  31.8604150  89.4747920  46.5183810  32.4744560  89.7927210  45.8564890
  32.4053710  88.9896510  47.1379670  22.3825410  88.1542180  46.6322870
  22.9308400  87.9730230  45.8688980  22.4480720  87.3636290  47.1679180
  23.1557170 104.7447830  44.6423070  22.5617490 104.6132530  45.3813110
  23.1481010 103.9085970  44.1765170  32.6012190  88.0380060  42.8453100
  31.7272030  88.3715170  42.6426030  32.4922940  87.5653240  43.6704970
  33.5084170  90.2450930  44.2294820  33.1797530  89.4302690  43.8496550
  34.4566470  90.2020740  44.1060510  22.7869400 102.1106210  43.5931110
  22.0603460 101.4911500  43.5257060  22.8478550 102.5046820  42.7229190
  26.3914500 104.3251210  40.3780520  26.9079520 103.7138570  39.8528780
  27.0411880 104.8279990  40.8691530  29.1310000 105.2159700  41.2049500
  29.4187810 104.9614000  40.3282510  29.6433220 104.6637060  41.7955070
  30.3487010  88.9549900  41.7846010  29.5658800  89.4295400  42.0642770
  30.0549940  88.0504730  41.6759190  34.9008080  89.6573000  39.8295100
  35.3416170  89.6018100  38.9816700  34.6315670  90.5731010  39.9005280
  36.7646650  89.2888240  37.8403920  36.7035050  88.3449460  37.6934940
  37.5438680  89.3968330  38.3857380  21.0699400 105.4280600  36.8027870
  20.9021440 104.7951280  37.5009760  20.2033910 105.6340000  36.4522060
  21.6927420  89.2597380  34.3059730  22.4506780  89.3726260  33.7323760
  21.2304590  90.0966580  34.2603160  35.8800810  88.4400660  33.8085390
  36.0751440  89.3384110  34.0752820  35.0930680  88.2087740  34.3018340
  22.6762100 104.1213830  34.2478010  22.1509720 104.5021860  33.5439970
  22.6006680 104.7464600  34.9687720  24.0652570  89.7861430  32.8461700
  24.5945330  88.9991230  32.7169650  24.6980890  90.4652620  33.0797230
  26.2590410  89.5236570  35.9007090  25.6293150  88.8223880  36.0677220
  25.7195550  90.2840700  35.6840250  29.1982360 106.1375800  48.5717700
  30.1249670 105.9020070  48.6153660  29.1832790 106.9647800  48.0903730
  26.3845970  88.8020550  48.3359580  26.1030240  89.3054150  47.5720400
  26.7665670  88.0042300  47.9701710  25.2755070 106.0696210  33.1227260
  26.0073890 105.7855490  32.5751150  25.5348740 105.8309490  34.0126640
  24.4369860 102.1860940  33.1273590  23.8078740 102.6546040  33.6759420
  24.5517690 101.3410160  33.5619780  31.8919580  96.2366600  19.2774790
  31.8113630  95.3221210  19.0066500  31.4784000  96.7333670  18.5714500
  30.0237620  98.0145620  21.1584060  29.2479720  97.5346060  21.4482630
  30.6750550  97.3351270  20.9840220  24.0403450  98.3265430  22.0359820
  23.2088330  98.0714140  22.4356330  24.6484430  98.3976200  22.7717740
  34.0445050 102.4205810  19.9383190  33.5826580 101.6493050  20.2670360
  34.8570600 102.4471880  20.4435640  24.0204710 102.3605520  22.2317840
  24.3232750 101.4703260  22.0528060  24.7648300 102.9175740  22.0040090
  22.4495400  93.2867320  15.8202210  21.5612100  93.6283290  15.7182090
  22.7336590  93.0867640  14.9283040  20.4128410  95.8872970  21.7041910
  20.9844520  95.1195170  21.7045550  20.4129950  96.1861730  20.7948520
  30.2708360 104.7063820  19.5587180  29.6519800 105.1621320  18.9881620
  31.1260140 104.8615280  19.1576880  29.4646610 100.6902810  21.1654220
  29.3954890  99.7492750  21.0043350  30.2266470 100.7804220  21.7376790
  21.6553280  91.2957330  23.4910840  21.4756120  90.3983080  23.7713600
  21.2533360  91.8429200  24.1657790  30.4951780  93.4973190  21.3923150
  30.8716600  92.6245070  21.2796820  30.3971290  93.8331890  20.5013590
  24.6256790  91.8698820  16.8540590  24.7323540  92.7702550  17.1609350
  23.7149150  91.8216790  16.5635240  34.2775900  90.9923630  18.3251490
  35.0985520  90.5020200  18.3676970  34.3109980  91.5821290  19.0783330
  22.2739950  93.7917830  22.0993180  22.9550060  94.0556200  22.7180580
  21.9588000  92.9518700  22.4331190  26.4664520  94.8385190  21.1865770
  26.9742740  95.3366160  21.8270790  26.9977760  94.0620390  21.0105130
  38.5675450  93.0090380  24.8895120  37.8627620  93.3972090  24.3710230
  38.8333370  93.7040670  25.4916050  24.7500620  89.4783750  25.4529190
  24.7519060  89.9956140  24.6475090  23.9204930  89.0013930  25.4299120
  31.1371710  99.5903060  16.9519090  30.5188980 100.0552510  16.3881810
  31.6494960 100.2830540  17.3688600  26.0003470  99.1178930  23.6302690
  25.6672850  99.7447850  24.2723760  26.1770150  99.6440810  22.8504360
  34.5137380  92.9324010  21.0979030  33.8092950  93.2208900  21.6782140
  34.8749540  93.7424120  20.7378590  24.4315950  91.1893710  23.4599640
  24.7732760  92.0335760  23.1653510  23.4931760  91.3377450  23.5764980
  25.2122570 101.0859730  25.4451870  25.8296570 101.7610810  25.1636320
  24.3515690 101.4947710  25.3539370  20.5054910 100.2759590  14.3258720
  20.1282890 100.7646690  13.5943620  20.7627980 100.9484870  14.9565250
  36.1300160 102.5499140  23.3606510  35.4463680 103.2198250  23.3523180
  36.6694450 102.7479790  22.5951370  37.5824300  92.3778800  21.4888240
  36.6349210  92.4117780  21.6203670  37.9074290  93.1917750  21.8737600
  28.1143840  88.6775980  19.7844230  28.4218820  88.1222870  19.0679730
  27.1844540  88.8120440  19.6017220  33.6658900 104.3943270  22.0751690
  33.6786060 103.9905560  21.2073950  33.1134120 105.1690560  21.9713120
  34.9604320 101.1159490  17.1641860  34.8500650 100.1733820  17.2891280
  34.9572570 101.4775130  18.0504620  33.0644340  99.2973110  23.4034300
  33.4813130  99.0833220  22.5687760  33.7884160  99.5545900  23.9742920
  30.5024600  96.7424810  16.5204350  29.5753880  96.6762190  16.7492820
  30.6549420  97.6804940  16.4059590  30.4893680  93.0141810  13.5171510
  29.5497350  93.1755770  13.6023970  30.8076940  93.7327490  12.9707500
  37.0106440  97.6960330  23.4950540  36.1825070  97.7653420  23.0200670
  37.6056920  98.2814640  23.0266370  34.5321890  98.3045110  17.0239600
  33.9134310  97.9664660  16.3765900  34.5146340  97.6604870  17.7318790
  33.9748450  94.4829650  24.4405410  33.5619630  95.3083360  24.6945400
  33.2424400  93.8974690  24.2481770  26.1081240  97.2689550  19.3024080
  25.7038240  96.5566800  18.8069980  26.1944360  96.9242790  20.1912120
  26.5762940 100.9557110  21.4663290  26.2791230 100.3502580  20.7871070
  27.5262760 100.9934420  21.3552650  24.8209860  94.0432760  23.0823120
  25.3724450  94.1528100  22.3076370  25.3353370  94.4170360  23.7978350
  34.6648550 104.5288980  25.1286390  34.1879110 105.3361170  24.9359000
  33.9810340 103.8767310  25.2812600  25.6681370 100.6938800  28.1171090
  24.7709900 100.9178770  28.3644490  25.6934240 100.8173740  27.1682490
  32.7086590  97.5431920  14.0312350  33.1479870  96.7054350  13.8850170
  33.4215010  98.1761320  14.1176490  24.4952590  97.5652120  26.6928460
  24.3560360  98.4374920  27.0615860  23.6133950  97.2224930  26.5476400
  30.8181970 102.4827990  17.9993590  31.2577880 103.2252320  17.5848980
  30.7568860 102.7254560  18.9232550  26.2932940 103.5073820  28.9013610
  26.2648370 103.9116770  28.0342040  26.1297910 102.5784180  28.7385210
  36.2903730  88.7974730  12.3453390  35.9776390  88.8901560  13.2452460
  37.0516200  89.3755760  12.2950820  22.8085870  96.1634530  16.8030730
  22.6883470  96.8896620  16.1912000  22.4986760  95.3937440  16.3258640
  38.2447760 104.2900920  30.1977780  38.7207480 104.7683810  30.8766860
  38.8654920 104.2218410  29.4723280  20.4471240  99.3349670  22.6099370
  20.5251660  99.4698440  21.6655090  21.0612920  98.6265560  22.8027490
  21.6918870 101.0349860  19.0205550  21.2846950 101.1764450  18.1659150
  22.5831880 100.7510020  18.8176760  37.6481010 101.4813770  27.3577790
  37.7744070 101.2425650  26.4394970  37.6902390 100.6498310  27.8299870
  31.5097750 105.1841770  25.9272600  32.0242420 105.0949780  26.7295030
  30.6666830 105.5301470  26.2200510  33.4852150 105.4697110  15.3556600
  33.3253290 105.1800050  16.2538430  33.3198860 104.6937240  14.8201830
  25.9640530 105.2495640  17.1328220  25.7883010 104.3331180  16.9196020
  25.1096270 105.6082930  17.3726020  33.1878280 102.9784670  13.9154600
  32.4943440 102.9761960  13.2556880  33.9301140 102.5543990  13.4848770
  32.7528210 104.6047380  17.9903090  33.2085160 103.8236760  18.3041710
  33.0920730 105.3154200  18.5344270  37.5005020  93.5346230  28.3227530
  36.8849290  94.0425900  27.7942990  37.1801440  92.6344560  28.2653470
  20.5030760 100.3763840  25.1493830  20.6661800  99.9069200  24.3313200
  20.9683210  99.8687400  25.8142670  25.2749530  89.5069600  20.1854400
  24.8317680  90.2879140  19.8538920  25.8334520  89.8299490  20.8925340
  29.5619340  92.3738120  25.7889720  29.0998710  92.5821140  26.6009660
  29.1597450  91.5597470  25.4860390  34.5623850  93.5947070  26.9186380
  33.7117440  93.2952820  27.2395450  34.4025640  93.8389080  26.0070200
  31.6573560  95.0948820  29.0185170  31.9826970  94.2612570  28.6787400
  32.4453890  95.6177340  29.1663500  28.3908350  89.1280300  15.0660230
  27.7662530  89.1240170  15.7913540  28.3038470  88.2611260  14.6696200
  27.3125430  90.0516930  22.0444000  27.6097760  90.9579760  21.9636020
  27.8610990  89.5635710  21.4303570  25.0663750  94.6303170  17.9135650
  24.8404670  94.4140340  18.8182270  24.2856280  95.0631630  17.5681620
  32.2961510  94.6366540  16.5126300  31.6970400  95.3602340  16.3289920
  32.8441120  94.5743320  15.7302750  27.5062960  95.5288750  28.5795920
  27.4106560  94.5883480  28.4296320  28.3494940  95.7503820  28.1843990
  30.9026380  93.2730080  18.5429580  31.2955950  93.5902280  17.7298270
  31.2643230  92.3941960  18.6574100  22.6373500  91.9402420  26.7329700
  22.2436890  92.7877630  26.9402480  21.9491900  91.3028790  26.9238340
  29.2118550  92.0237390  29.8026440  28.5216870  91.8309590  30.4372530
  29.9550850  92.3072030  30.3350740  19.9390550  89.8630880  20.7659780
  19.6503600  90.4333740  21.4784760  20.6836310  89.3835330  21.1291010
  20.1260780  93.8051000  11.9762500  20.0435450  94.7481760  12.1177490
  19.7743840  93.6625910  11.0974850  31.4881520  95.8635830  22.6380360
  30.7562640  96.3722640  22.9870460  31.0905860  95.0465810  22.3369140
  27.9258910  92.5390030  21.0432850  27.9294970  92.0979980  20.1937390
  28.8210030  92.8607360  21.1504670  23.7761290  92.4216520  20.0027060
  23.4361340  92.8991750  20.7594110  23.0138610  91.9681640  19.6428160
  27.9879060  93.5402110  14.0339610  28.1091880  93.4988590  14.9825430
  27.6027570  94.4026260  13.8786340  31.9507430  91.3169510  22.0503300
  31.9680170  91.7678160  22.8945150  31.7023010  90.4175150  22.2636740
  27.0000560  95.8503250  13.4322910  26.4317460  95.4021500  12.8058820
  27.7089560  96.2096030  12.8988060  35.3778180  88.7301690  27.8889680
  35.7023950  87.9991350  28.4147660  35.4134690  88.4115330  26.9870670
  22.0769740  99.7515270  27.3089640  21.6924530  99.1108940  27.9072600
  22.3881930 100.4551390  27.8784370  28.2266880  96.5991810  22.7898260
  28.5937010  96.1250380  23.5359600  28.0371940  97.4733380  23.1306600
  21.0907370  91.3435500  18.9191730  20.8054290  90.9791170  19.7570350
  21.0286230  90.6115960  18.3054870  26.0166250  95.6400450  25.1082470
  25.7123320  96.5192430  25.3332830  26.9712710  95.7000240  25.1439910
  24.5448040  99.8461440  15.7049320  23.7710300  99.3059060  15.5448040
  25.2742670  99.3268050  15.3667080  35.3036020  98.8426800  21.4975710
  36.0235140  99.3382090  21.1071820  35.1017840  98.1644690  20.8529580
  30.7645960  90.2364760  15.6405100  29.9510570  89.7377930  15.5650410
  30.5707910  91.0763010  15.2241450  30.6854820  98.9135860  27.3844710
  30.6192130  97.9931530  27.1302300  30.0559960  99.0111300  28.0989350
  33.4794350  94.6084410  13.9367260  34.3673970  94.9201640  13.7618600
  33.4499440  93.7356660  13.5447840  24.5885440  99.5141820  19.3428130
  25.1064110  98.7110080  19.2885020  24.1369460  99.4520960  20.1844960
  29.4754940 100.7808100  14.6155430  29.8170640 101.5250330  14.1198750
  28.6467650 101.0939220  14.9780260  22.0729980  96.4803190  26.2553830
  21.7144920  97.1457040  26.8427170  21.7784540  95.6486740  26.6266450
  25.2743100  96.9387430  29.1393380  24.9743240  97.0844610  28.2421200
  26.0454340  96.3792720  29.0466770  30.6171550 101.7356430  27.1348510
  30.6316090 100.8037390  26.9167420  29.9096650 101.8216190  27.7738280
  35.7508620  95.9196250  13.4047120  35.6672340  96.3510470  12.5543560
  36.4702810  96.3794600  13.8373940  36.8282760  98.3763770  26.4817090
  36.1030950  98.9692550  26.2846480  37.3558220  98.3687310  25.6830460
  36.7795870 102.7738510  16.1329250  36.1372030 102.1194130  16.4072970
  36.3926530 103.1793600  15.3569920  32.3582350 100.1023940  19.9800940
  32.7106170  99.5052070  19.3202310  31.4744680  99.7768170  20.1509190
  28.4445630 100.8621630  17.3871350  29.1316760 101.4090840  17.7678940
  27.6578050 101.4062360  17.4220960  20.5838030  96.4794450  12.8788430
  21.4532880  96.7619250  13.1624350  20.0928350  97.2930320  12.7637240
  27.7472840  97.8667660  16.9996710  28.2035620  98.6772910  17.2256900
  27.3961050  97.5490800  17.8315200  30.0505450 103.3774000  24.2289010
  30.6947670 103.5833380  24.9062430  30.4134890 102.6162400  23.7759860
  23.6484620  88.2105310  17.4719230  23.5199250  88.2023210  18.4204150
  22.8246640  88.5488400  17.1210240  31.3237530 101.3806350  22.9466460
  31.9659760 100.6799510  23.0598630  31.8486880 102.1604790  22.7663350
  35.1693250 101.6654970  12.6705600  34.9430830 100.9485410  13.2630240
  34.7789450 101.4167410  11.8327350  33.0975150 102.1801250  26.1502520
  33.4331390 102.7667940  26.8280440  32.1775490 102.0493960  26.3800310
  20.9509280 105.6921830  13.4450060  21.3106920 106.2911170  12.7907330
  20.8101620 106.2381720  14.2185090  20.6478550  89.9696430  26.9325930
  19.9337070  90.1693350  27.5378540  21.0673590  89.1936000  27.3040730
  34.7509500  99.5826910  14.3319760  34.4631200 100.0439600  15.1197640
  35.5461670  99.1224680  14.6003980  20.9351140 103.9576690  27.9192460
  21.0442260 103.0171430  27.7787850  20.2831700 104.2231440  27.2706190
  28.9263730 102.2292580  29.3190580  28.6060600 101.5101820  29.8636270
  28.2522090 102.9047650  29.3926640  26.9677900 103.0753030  14.2623730
  26.9588000 103.8082720  13.6468240  26.0476260 102.8284610  14.3550690
  22.5684540  98.2967920  15.0070490  21.9612490  99.0366820  15.0165790
  23.0433890  98.3867280  14.1808690  32.1417330  92.4618740  24.6827380
  32.5098150  91.6413950  25.0106950  31.2815530  92.5220630  25.0983030
  35.5079360  91.4175680  15.4914940  34.8792520  91.5221350  14.7773170
  35.0131280  91.6372460  16.2808820  29.9537500 103.1381270  12.9248920
  30.0549480 102.9345260  11.9950900  29.0539240 102.8839550  13.1296700
  27.4763390  93.6961630  16.9072820  26.7679540  94.1647970  17.3486430
  27.7607870  93.0383640  17.5418010  29.1019320  95.1158330  24.9065350
  29.6004570  95.5904150  25.5717200  29.2442270  94.1921850  25.1135380
  31.5078820  90.4212290  18.3468610  31.3846600  90.4398420  17.3978120
  32.4563380  90.4691230  18.4667010  28.5955610 105.6567590  17.6196590
  28.8497110 105.6188980  16.6975960  27.6468090 105.5300920  17.6124840
  25.6798410  92.0046710  14.2823530  26.5288940  92.4416860  14.2163720
  25.3129680  92.3166970  15.1095590  36.3086180  91.3326290  25.7493740
  35.8059780  92.0731690  26.0887550  37.1242840  91.7210290  25.4330530
  34.6008190  96.5759470  19.1955100  33.6598330  96.5909700  19.3702790
  34.9152260  95.7895430  19.6415400  24.5789830  98.2579070  12.7559060
  25.3453100  98.1460430  13.3184490  24.6564520  97.5617040  12.1035830
  23.2736590  95.6904140  13.4391950  23.3540180  94.7431650  13.5509350
  24.1656340  96.0211020  13.5452610  36.6033770 103.7468320  20.8709360
  36.7281190 104.5699490  21.3433170  37.4699330 103.5359050  20.5233510
  24.0751300 105.8399530  20.5426490  24.8113780 105.2914990  20.8135060
  24.4592220 106.7055540  20.4032480  20.9596780 101.9073100  16.4168000
  20.0336560 102.1494240  16.4073410  21.4253210 102.7347360  16.2952750
  23.0809580 105.0245600  29.7312070  23.8822310 105.3457650  30.1447470
  22.5661400 104.6641180  30.4531980  27.1853610 105.0129840  12.3652060
  27.9782220 105.3018670  11.9133850  26.6657960 104.5822010  11.6864540
  31.9174210 101.1325470  29.6787480  31.3112370 101.1557070  28.9383230
  31.6128320 100.4008510  30.2154730  33.3474580 104.8605760  28.2896890
  34.2996330 104.7763780  28.2397130  33.2002800 105.5247470  28.9630680
  36.2383780 104.2399970  13.7888800  35.9525290 103.8265110  12.9742980
  36.0403330 105.1687680  13.6689320  20.8007390  97.5119060  28.6748120
  21.3046410  96.9326340  29.2464350  20.0614810  97.7959290  29.2124490
  27.7031010 100.2333250  12.2294410  27.5981650  99.6185600  12.9555790
  27.5355230  99.7099140  11.4457420  27.8545330  98.9190050  28.2083640
  27.0891000  99.4875050  28.1238310  28.0361290  98.6266260  27.3151870
  30.9433740  99.2953280  12.8336400  30.3943840  99.7422580  13.4779140
  31.5653000  98.7902530  13.3574070  34.9968680 100.6495380  28.7658660
  35.7378150 100.9871140  28.2626120  34.2341360 100.8187440  28.2128430
  22.8330470  95.6548650  29.5698190  22.8735810  95.3562520  30.4783420
  23.6875970  96.0556260  29.4105710  26.6108860  98.2544200  14.7301700
  27.0325280  98.0884070  15.5733090  26.7359700  97.4444430  14.2356840
  24.7736280  94.2340750  27.5372680  24.2432740  93.7431700  26.9096020
  25.4424350  94.6624950  27.0030610  29.1236500  97.2781810  11.9778800
  29.6442160  96.5630830  11.6119950  29.7704900  97.9167680  12.2779310
  33.6714340  98.7010210  27.3013870  34.0855360  98.8555290  28.1504290
  32.7365340  98.8265430  27.4639650  34.1436510  96.0406370  29.3053020
  34.7257280  95.2858690  29.2173500  34.3198280  96.5713810  28.5284500
  25.2608580  91.2003120  27.6169970  25.1665450  90.5823870  26.8920840
  24.6805970  91.9269410  27.3899880  28.0270020  89.7576360  24.6497360
  27.5787320  89.7800620  23.8042910  27.3935220  89.3595380  25.2467660
  28.4329570  98.6530690  25.2709800  28.8517680  99.4963420  25.0986040
  27.5138200  98.7902730  25.0416580  30.7693470  96.3846870  26.6547640
  30.8889680  95.7888010  27.3942480  31.6287470  96.4216560  26.2348940
  33.1081370  96.9384060  25.2310150  32.5816590  97.4626680  24.6275290
  33.4512710  97.5711450  25.8619880  25.5067760  94.3277430  11.6759860
  25.3056820  93.4644790  12.0373200  25.3359810  94.2410790  10.7381460
  26.2836990 104.9583700  26.3867530  25.7458080 105.6829760  26.0676230
  26.5370950 104.4814040  25.5964870  27.5362240  92.9268220  27.9123460
  28.1261930  92.6184070  28.6001280  26.7182480  92.4547970  28.0683360
  32.3555670  92.5434030  28.1456480  31.6671190  91.8815570  28.0806470
  33.0761690  92.0972300  28.5904940  32.9856070  89.1385660  14.2046740
  33.2658360  88.2953560  14.5606160  32.2121800  89.3708770  14.7185490
  24.3050560  91.4278050  11.6637740  24.6076460  91.4345480  10.7556890
  25.0445150  91.0775910  12.1605400  29.1399200 106.1934910  26.6454180
  29.0657900 107.0970050  26.9526550  28.2378040 105.8746810  26.6176250
  27.5235490  90.3712670  12.6493940  27.1757490  89.6936660  12.0696390
  27.7248260  89.9102180  13.4637330  29.6884530 105.3593420  14.2680540
  30.5835320 105.6978390  14.2899300  29.7202160 104.6372830  13.6404820
  23.3280690 100.7320470  12.4967540  23.7655560 101.2750140  13.1525120
  23.8128420  99.9067420  12.5063880  20.5426490 103.5209500  19.9487800
  20.8729500 102.6530560  19.7166440  20.9717490 103.7268020  20.7792760
  25.1388410 101.8518510  17.6089770  24.8383950 101.7283480  18.5093680
  25.0325900 100.9927100  17.2005500  21.0316700 104.3880090  22.6869430
  20.5947690 104.5680890  23.5193580  21.5994380 105.1454710  22.5451150
  36.6678880 103.8897090  26.9746740  36.0680870 103.9489650  26.2310660
  36.7972780 102.9502070  27.1043590  37.9080330 101.6314910  12.3116450
  37.0773290 101.6991560  12.7823680  38.0852160 102.5219030  12.0083310
  37.3636790  98.3762390  14.8150650  38.1255700  98.9459040  14.9210340
  37.3791160  97.8089590  15.5858960  20.8641130  96.9000320  19.0458310
  20.2089970  96.6311960  18.4018010  21.7019080  96.7904800  18.5960290
  38.3696760  99.2312490  19.6592580  38.7405590  98.4479810  19.2528550
  39.0098690  99.9201590  19.4809880  35.3530520 100.6149070  25.0722900
  34.5390360 101.0446230  25.3348690  35.7604720 101.2267480  24.4591950
  37.4155960  98.6696760  11.9723170  37.6904800  99.5775640  11.8442390
  37.2266700  98.6059290  12.9085160  33.8131570  91.6941610  13.2676800
  34.2316450  91.5072590  12.4273460  33.5067630  90.8420660  13.5779730
  37.3121300  96.6065750  16.9652600  36.9364900  95.8393680  16.5333890
  36.5824420  96.9888450  17.4527530  21.9017060  97.2852890  23.5861650
  22.2690100  97.1980290  24.4657670  21.3327880  96.5219440  23.4868510
  36.7020920  95.7537270  26.5992120  36.4707010  95.5250020  25.6990070
  36.9625470  96.6736820  26.5537010  21.4533060  94.1961980  27.4920070
  20.5589110  94.1628740  27.8313780  21.9930610  94.3948770  28.2571320
  35.1408990  90.9793700  29.3771820  36.0179170  90.9877100  29.7605820
  35.1529830  90.2424540  28.7664170  20.0779210  94.1099250  14.9883640
  19.1743290  94.3729450  14.8135300  20.5619830  94.3810420  14.2083600
  36.5872260  94.8323240  20.2659840  37.1109740  94.3385890  19.6350010
  37.1731680  94.9673600  21.0107410  36.7661980  94.9163110  23.7879390
  35.8164690  94.8826650  23.9024380  36.9474990  95.8263220  23.5529160
  22.6206420  93.1664790  12.8978020  23.3298120  92.7448010  12.4125300
  21.9046360  93.2340020  12.2661370  22.2680580  89.2204120  11.9380670
  22.9908710  89.7613060  12.2561890  22.5405100  88.9467540  11.0622210
  36.0772230  94.0896590  16.2052250  36.5731350  93.8567460  16.9901130
  35.8788300  93.2508430  15.7889890  21.9572770  88.4710310  21.8403290
  22.6048960  87.9207690  21.3998450  22.3774610  88.7253460  22.6619100
  37.5059390  92.7257540  18.7389930  37.3958670  92.5713580  19.6772200
  38.2666980  92.1978480  18.4965340  35.8525110  88.6651670  25.1972930
  36.4897330  89.2785810  25.5632120  36.0000000  88.7012330  24.2522160
  38.3949660  90.5565460  11.9796070  39.3198970  90.4246640  11.7714360
  38.3725450  90.6358280  12.9332520  38.4688150  91.3276120  14.6052780
  37.6739650  91.2621240  15.1345690  38.6731430  92.2626760  14.5938130
  35.4106570 105.3667670  18.5991170  36.0065640 105.0452240  17.9225590
  35.6684720 104.8939490  19.3904440  21.7104770  88.6265980  24.5828610
  21.3619590  89.0829800  25.3486790  21.3792470  87.7323110  24.6651040
  23.3169140 101.7985580  28.7481800  23.2738770 101.4278490  29.6296260
  23.4480150 102.7363150  28.8883620  27.0175170 103.3545170  24.3491520
  26.7766530 103.6219730  23.4622040  27.9577810 103.5250900  24.4042380
  29.2229590  89.8177860  28.1048030  29.1618480  90.4099690  28.8543440
  30.1629970  89.7103820  27.9598290  31.8604150  89.4747920  27.7440320
  32.4744560  89.7927210  27.0821400  32.4053710  88.9896510  28.3636180
  38.2779330 105.3739550  25.1502160  37.7837610 105.7708420  24.4329290
  37.6692620 104.7488760  25.5439440  22.3825410  88.1542180  27.8579380
  22.9308400  87.9730230  27.0945490  22.4480720  87.3636290  28.3935690
  23.1557170 104.7447830  25.8679580  22.5617490 104.6132530  26.6069620
  23.1481010 103.9085970  25.4021680  32.6012190  88.0380060  24.0709610
  31.7272030  88.3715170  23.8682540  32.4922940  87.5653240  24.8961480
  33.5084170  90.2450930  25.4551330  33.1797530  89.4302690  25.0753060
  34.4566470  90.2020740  25.3317020  35.9618780 106.0162970  22.4288900
  35.5021750 106.7678780  22.0546920  35.3331240 105.2969440  22.3703700
  22.7869400 102.1106210  24.8187620  22.0603460 101.4911500  24.7513570
  22.8478550 102.5046820  23.9485700  26.3914500 104.3251210  21.6037030
  26.9079520 103.7138570  21.0785290  27.0411880 104.8279990  22.0948040
  29.1310000 105.2159700  22.4306010  29.4187810 104.9614000  21.5539020
  29.6433220 104.6637060  23.0211580  30.3487010  88.9549900  23.0102520
  29.5658800  89.4295400  23.2899280  30.0549940  88.0504730  22.9015700
  34.9008080  89.6573000  21.0551610  35.3416170  89.6018100  20.2073210
  34.6315670  90.5731010  21.1261790  36.7646650  89.2888240  19.0660430
  36.7035050  88.3449460  18.9191450  37.5438680  89.3968330  19.6113890
  21.0699400 105.4280600  18.0284380  20.9021440 104.7951280  18.7266270
  20.2033910 105.6340000  17.6778570  21.6927420  89.2597380  15.5316240
  22.4506780  89.3726260  14.9580270  21.2304590  90.0966580  15.4859670
  28.2341230  91.3736650  18.5218550  27.4215740  90.9993540  18.1814430
  28.7382870  90.6181730  18.8239740  32.7366210  88.0379100  19.7601620
  33.3395580  88.6099310  20.2350140  31.9959200  88.6018540  19.5375520
  35.8800810  88.4400660  15.0341900  36.0751440  89.3384110  15.3009330
  35.0930680  88.2087740  15.5274850  22.6762100 104.1213830  15.4734520
  22.1509720 104.5021860  14.7696480  22.6006680 104.7464600  16.1944230
  24.0652570  89.7861430  14.0718210  24.5945330  88.9991230  13.9426160
  24.6980890  90.4652620  14.3053740  26.2590410  89.5236570  17.1263600
  25.6293150  88.8223880  17.2933730  25.7195550  90.2840700  16.9096760
  29.1982360 106.1375800  29.7974210  30.1249670 105.9020070  29.8410170
  29.1832790 106.9647800  29.3160240  37.4327420 105.6801370  16.7948460
  37.6079610 104.9939110  16.1509380  36.7348990 106.2048420  16.4025130
  26.3845970  88.8020550  29.5616090  26.1030240  89.3054150  28.7976910
  26.7665670  88.0042300  29.1958220  25.2755070 106.0696210  14.3483770
  26.0073890 105.7855490  13.8007660  25.5348740 105.8309490  15.2383150
  24.4369860 102.1860940  14.3530100  23.8078740 102.6546040  14.9015930
  24.5517690 101.3410160  14.7876290  32.9861430  88.2174130  30.1396560
  32.8726880  88.5368740  31.0348080  33.8031170  88.6186640  29.8433840
  35.7659920 105.3645660  29.6215250  36.5585240 104.8694890  29.4141210
  36.0593070 106.0435800  30.2290860  30.0237620  98.0145620   2.3840570
  29.2479720  97.5346060   2.6739140  30.6750550  97.3351270   2.2096730
  24.0403450  98.3265430   3.2616330  23.2088330  98.0714140   3.6612840
  24.6484430  98.3976200   3.9974250  24.0204710 102.3605520   3.4574350
  24.3232750 101.4703260   3.2784570  24.7648300 102.9175740   3.2296600
  20.4128410  95.8872970   2.9298420  20.9844520  95.1195170   2.9302060
  20.4129950  96.1861730   2.0205030  29.4646610 100.6902810   2.3910730
  29.3954890  99.7492750   2.2299860  30.2266470 100.7804220   2.9633300
  21.6553280  91.2957330   4.7167350  21.4756120  90.3983080   4.9970110
  21.2533360  91.8429200   5.3914300  30.4951780  93.4973190   2.6179660
  30.8716600  92.6245070   2.5053330  30.3971290  93.8331890   1.7270100
  22.2739950  93.7917830   3.3249690  22.9550060  94.0556200   3.9437090
  21.9588000  92.9518700   3.6587700  26.4664520  94.8385190   2.4122280
  26.9742740  95.3366160   3.0527300  26.9977760  94.0620390   2.2361640
  38.5675450  93.0090380   6.1151630  37.8627620  93.3972090   5.5966740
  38.8333370  93.7040670   6.7172560  24.7500620  89.4783750   6.6785700
  24.7519060  89.9956140   5.8731600  23.9204930  89.0013930   6.6555630
  26.0003470  99.1178930   4.8559200  25.6672850  99.7447850   5.4980270
  26.1770150  99.6440810   4.0760870  34.5137380  92.9324010   2.3235540
  33.8092950  93.2208900   2.9038650  34.8749540  93.7424120   1.9635100
  24.4315950  91.1893710   4.6856150  24.7732760  92.0335760   4.3910020
  23.4931760  91.3377450   4.8021490  25.2122570 101.0859730   6.6708380
  25.8296570 101.7610810   6.3892830  24.3515690 101.4947710   6.5795880
  36.1300160 102.5499140   4.5863020  35.4463680 103.2198250   4.5779690
  36.6694450 102.7479790   3.8207880  37.5824300  92.3778800   2.7144750
  36.6349210  92.4117780   2.8460180  37.9074290  93.1917750   3.0994110
  33.6658900 104.3943270   3.3008200  33.6786060 103.9905560   2.4330460
  33.1134120 105.1690560   3.1969630  33.0644340  99.2973110   4.6290810
  33.4813130  99.0833220   3.7944270  33.7884160  99.5545900   5.1999430
  37.0106440  97.6960330   4.7207050  36.1825070  97.7653420   4.2457180
  37.6056920  98.2814640   4.2522880  33.9748450  94.4829650   5.6661920
  33.5619630  95.3083360   5.9201910  33.2424400  93.8974690   5.4738280
  26.5762940 100.9557110   2.6919800  26.2791230 100.3502580   2.0127580
  27.5262760 100.9934420   2.5809160  24.8209860  94.0432760   4.3079630
  25.3724450  94.1528100   3.5332880  25.3353370  94.4170360   5.0234860
  34.6648550 104.5288980   6.3542900  34.1879110 105.3361170   6.1615510
  33.9810340 103.8767310   6.5069110  25.6681370 100.6938800   9.3427600
  24.7709900 100.9178770   9.5901000  25.6934240 100.8173740   8.3939000
  24.4952590  97.5652120   7.9184970  24.3560360  98.4374920   8.2872370
  23.6133950  97.2224930   7.7732910  26.2932940 103.5073820  10.1270120
  26.2648370 103.9116770   9.2598550  26.1297910 102.5784180   9.9641720
  38.2447760 104.2900920  11.4234290  38.7207480 104.7683810  12.1023370
  38.8654920 104.2218410  10.6979790  20.4471240  99.3349670   3.8355880
  20.5251660  99.4698440   2.8911600  21.0612920  98.6265560   4.0284000
  37.6481010 101.4813770   8.5834300  37.7744070 101.2425650   7.6651480
  37.6902390 100.6498310   9.0556380  31.5097750 105.1841770   7.1529110
  32.0242420 105.0949780   7.9551540  30.6666830 105.5301470   7.4457020
  37.5005020  93.5346230   9.5484040  36.8849290  94.0425900   9.0199500
  37.1801440  92.6344560   9.4909980  20.5030760 100.3763840   6.3750340
  20.6661800  99.9069200   5.5569710  20.9683210  99.8687400   7.0399180
  29.5619340  92.3738120   7.0146230  29.0998710  92.5821140   7.8266170
  29.1597450  91.5597470   6.7116900  34.5623850  93.5947070   8.1442890
  33.7117440  93.2952820   8.4651960  34.4025640  93.8389080   7.2326710
  31.6573560  95.0948820  10.2441680  31.9826970  94.2612570   9.9043910
  32.4453890  95.6177340  10.3920010  27.3125430  90.0516930   3.2700510
  27.6097760  90.9579760   3.1892530  27.8610990  89.5635710   2.6560080
  27.5062960  95.5288750   9.8052430  27.4106560  94.5883480   9.6552830
  28.3494940  95.7503820   9.4100500  22.6373500  91.9402420   7.9586210
  22.2436890  92.7877630   8.1658990  21.9491900  91.3028790   8.1494850
  29.2118550  92.0237390  11.0282950  28.5216870  91.8309590  11.6629040
  29.9550850  92.3072030  11.5607250  19.9390550  89.8630880   1.9916290
  19.6503600  90.4333740   2.7041270  20.6836310  89.3835330   2.3547520
  31.4881520  95.8635830   3.8636870  30.7562640  96.3722640   4.2126970
  31.0905860  95.0465810   3.5625650  27.9258910  92.5390030   2.2689360
  27.9294970  92.0979980   1.4193900  28.8210030  92.8607360   2.3761180
  31.9507430  91.3169510   3.2759810  31.9680170  91.7678160   4.1201660
  31.7023010  90.4175150   3.4893250  35.3778180  88.7301690   9.1146190
  35.7023950  87.9991350   9.6404170  35.4134690  88.4115330   8.2127180
  22.0769740  99.7515270   8.5346150  21.6924530  99.1108940   9.1329110
  22.3881930 100.4551390   9.1040880  28.2266880  96.5991810   4.0154770
  28.5937010  96.1250380   4.7616110  28.0371940  97.4733380   4.3563110
  26.0166250  95.6400450   6.3338980  25.7123320  96.5192430   6.5589340
  26.9712710  95.7000240   6.3696420  35.3036020  98.8426800   2.7232220
  36.0235140  99.3382090   2.3328330  35.1017840  98.1644690   2.0786090
  30.6854820  98.9135860   8.6101220  30.6192130  97.9931530   8.3558810
  30.0559960  99.0111300   9.3245860  22.0729980  96.4803190   7.4810340
  21.7144920  97.1457040   8.0683680  21.7784540  95.6486740   7.8522960
  25.2743100  96.9387430  10.3649890  24.9743240  97.0844610   9.4677710
  26.0454340  96.3792720  10.2723280  30.6171550 101.7356430   8.3605020
  30.6316090 100.8037390   8.1423930  29.9096650 101.8216190   8.9994790
  36.8282760  98.3763770   7.7073600  36.1030950  98.9692550   7.5102990
  37.3558220  98.3687310   6.9086970  30.0505450 103.3774000   5.4545520
  30.6947670 103.5833380   6.1318940  30.4134890 102.6162400   5.0016370
  31.3237530 101.3806350   4.1722970  31.9659760 100.6799510   4.2855140
  31.8486880 102.1604790   3.9919860  33.0975150 102.1801250   7.3759030
  33.4331390 102.7667940   8.0536950  32.1775490 102.0493960   7.6056820
  20.6478550  89.9696430   8.1582440  19.9337070  90.1693350   8.7635050
  21.0673590  89.1936000   8.5297240  20.9351140 103.9576690   9.1448970
  21.0442260 103.0171430   9.0044360  20.2831700 104.2231440   8.4962700
  28.9263730 102.2292580  10.5447090  28.6060600 101.5101820  11.0892780
  28.2522090 102.9047650  10.6183150  32.1417330  92.4618740   5.9083890
  32.5098150  91.6413950   6.2363460  31.2815530  92.5220630   6.3239540
  29.1019320  95.1158330   6.1321860  29.6004570  95.5904150   6.7973710
  29.2442270  94.1921850   6.3391890  36.3086180  91.3326290   6.9750250
  35.8059780  92.0731690   7.3144060  37.1242840  91.7210290   6.6587040
  36.6033770 103.7468320   2.0965870  36.7281190 104.5699490   2.5689680
  37.4699330 103.5359050   1.7490020  24.0751300 105.8399530   1.7683000
  24.8113780 105.2914990   2.0391570  24.4592220 106.7055540   1.6288990
  23.0809580 105.0245600  10.9568580  23.8822310 105.3457650  11.3703980
  22.5661400 104.6641180  11.6788490  31.9174210 101.1325470  10.9043990
  31.3112370 101.1557070  10.1639740  31.6128320 100.4008510  11.4411240
  33.3474580 104.8605760   9.5153400  34.2996330 104.7763780   9.4653640
  33.2002800 105.5247470  10.1887190  20.8007390  97.5119060   9.9004630
  21.3046410  96.9326340  10.4720860  20.0614810  97.7959290  10.4381000
  27.8545330  98.9190050   9.4340150  27.0891000  99.4875050   9.3494820
  28.0361290  98.6266260   8.5408380  34.9968680 100.6495380   9.9915170
  35.7378150 100.9871140   9.4882630  34.2341360 100.8187440   9.4384940
  22.8330470  95.6548650  10.7954700  22.8735810  95.3562520  11.7039930
  23.6875970  96.0556260  10.6362220  24.7736280  94.2340750   8.7629190
  24.2432740  93.7431700   8.1352530  25.4424350  94.6624950   8.2287120
  33.6714340  98.7010210   8.5270380  34.0855360  98.8555290   9.3760800
  32.7365340  98.8265430   8.6896160  34.1436510  96.0406370  10.5309530
  34.7257280  95.2858690  10.4430010  34.3198280  96.5713810   9.7541010
  25.2608580  91.2003120   8.8426480  25.1665450  90.5823870   8.1177350
  24.6805970  91.9269410   8.6156390  28.0270020  89.7576360   5.8753870
  27.5787320  89.7800620   5.0299420  27.3935220  89.3595380   6.4724170
  28.4329570  98.6530690   6.4966310  28.8517680  99.4963420   6.3242550
  27.5138200  98.7902730   6.2673090  30.7693470  96.3846870   7.8804150
  30.8889680  95.7888010   8.6198990  31.6287470  96.4216560   7.4605450
  33.1081370  96.9384060   6.4566660  32.5816590  97.4626680   5.8531800
  33.4512710  97.5711450   7.0876390  26.2836990 104.9583700   7.6124040
  25.7458080 105.6829760   7.2932740  26.5370950 104.4814040   6.8221380
  27.5362240  92.9268220   9.1379970  28.1261930  92.6184070   9.8257790
  26.7182480  92.4547970   9.2939870  32.3555670  92.5434030   9.3712990
  31.6671190  91.8815570   9.3062980  33.0761690  92.0972300   9.8161450
  29.1399200 106.1934910   7.8710690  29.0657900 107.0970050   8.1783060
  28.2378040 105.8746810   7.8432760  21.0316700 104.3880090   3.9125940
  20.5947690 104.5680890   4.7450090  21.5994380 105.1454710   3.7707660
  36.6678880 103.8897090   8.2003250  36.0680870 103.9489650   7.4567170
  36.7972780 102.9502070   8.3300100  35.3530520 100.6149070   6.2979410
  34.5390360 101.0446230   6.5605200  35.7604720 101.2267480   5.6848460
  21.9017060  97.2852890   4.8118160  22.2690100  97.1980290   5.6914180
  21.3327880  96.5219440   4.7125020  36.7020920  95.7537270   7.8248630
  36.4707010  95.5250020   6.9246580  36.9625470  96.6736820   7.7793520
  21.4533060  94.1961980   8.7176580  20.5589110  94.1628740   9.0570290
  21.9930610  94.3948770   9.4827830  35.1408990  90.9793700  10.6028330
  36.0179170  90.9877100  10.9862330  35.1529830  90.2424540   9.9920680
  36.7661980  94.9163110   5.0135900  35.8164690  94.8826650   5.1280890
  36.9474990  95.8263220   4.7785670  21.9572770  88.4710310   3.0659800
  22.6048960  87.9207690   2.6254960  22.3774610  88.7253460   3.8875610
  35.8525110  88.6651670   6.4229440  36.4897330  89.2785810   6.7888630
  36.0000000  88.7012330   5.4778670  21.7104770  88.6265980   5.8085120
  21.3619590  89.0829800   6.5743300  21.3792470  87.7323110   5.8907550
  23.3169140 101.7985580   9.9738310  23.2738770 101.4278490  10.8552770
  23.4480150 102.7363150  10.1140130  27.0175170 103.3545170   5.5748030
  26.7766530 103.6219730   4.6878550  27.9577810 103.5250900   5.6298890
  29.2229590  89.8177860   9.3304540  29.1618480  90.4099690  10.0799950
  30.1629970  89.7103820   9.1854800  31.8604150  89.4747920   8.9696830
  32.4744560  89.7927210   8.3077910  32.4053710  88.9896510   9.5892690
  38.2779330 105.3739550   6.3758670  37.7837610 105.7708420   5.6585800
  37.6692620 104.7488760   6.7695950  22.3825410  88.1542180   9.0835890
  22.9308400  87.9730230   8.3202000  22.4480720  87.3636290   9.6192200
  23.1557170 104.7447830   7.0936090  22.5617490 104.6132530   7.8326130
  23.1481010 103.9085970   6.6278190  32.6012190  88.0380060   5.2966120
  31.7272030  88.3715170   5.0939050  32.4922940  87.5653240   6.1217990
  33.5084170  90.2450930   6.6807840  33.1797530  89.4302690   6.3009570
  34.4566470  90.2020740   6.5573530  35.9618780 106.0162970   3.6545410
  35.5021750 106.7678780   3.2803430  35.3331240 105.2969440   3.5960210
  22.7869400 102.1106210   6.0444130  22.0603460 101.4911500   5.9770080
  22.8478550 102.5046820   5.1742210  26.3914500 104.3251210   2.8293540
  26.9079520 103.7138570   2.3041800  27.0411880 104.8279990   3.3204550
  29.1310000 105.2159700   3.6562520  29.4187810 104.9614000   2.7795530
  29.6433220 104.6637060   4.2468090  30.3487010  88.9549900   4.2359030
  29.5658800  89.4295400   4.5155790  30.0549940  88.0504730   4.1272210
  34.9008080  89.6573000   2.2808120  35.3416170  89.6018100   1.4329720
  34.6315670  90.5731010   2.3518300  29.1982360 106.1375800  11.0230720
  30.1249670 105.9020070  11.0666680  29.1832790 106.9647800  10.5416750
  26.3845970  88.8020550  10.7872600  26.1030240  89.3054150  10.0233420
  26.7665670  88.0042300  10.4214730  32.9861430  88.2174130  11.3653070
  32.8726880  88.5368740  12.2604590  33.8031170  88.6186640  11.0690350
  35.7659920 105.3645660  10.8471760  36.5585240 104.8694890  10.6397720
  36.0593070 106.0435800  11.4547370  31.8919580  77.4623110 150.6979220
  31.8113630  76.5477720 150.4270930  31.4784000  77.9590180 149.9918930
  30.0237620  79.2402130 152.5788490  29.2479720  78.7602570 152.8687060
  30.6750550  78.5607780 152.4044650  34.0445050  83.6462320 151.3587620
  33.5826580  82.8749560 151.6874790  34.8570600  83.6728390 151.8640070
  22.4495400  74.5123830 147.2406640  21.5612100  74.8539800 147.1386520
  22.7336590  74.3124150 146.3487470  20.4128410  77.1129480 153.1246340
  20.9844520  76.3451680 153.1249980  20.4129950  77.4118240 152.2152950
  30.2708360  85.9320330 150.9791610  29.6519800  86.3877830 150.4086050
  31.1260140  86.0871790 150.5781310  29.4646610  81.9159320 152.5858650
  29.3954890  80.9749260 152.4247780  30.2266470  82.0060730 153.1581220
  30.4951780  74.7229700 152.8127580  30.8716600  73.8501580 152.7001250
  30.3971290  75.0588400 151.9218020  24.6256790  73.0955330 148.2745020
  24.7323540  73.9959060 148.5813780  23.7149150  73.0473300 147.9839670
  34.2775900  72.2180140 149.7455920  35.0985520  71.7276710 149.7881400
  34.3109980  72.8077800 150.4987760  31.1371710  80.8159570 148.3723520
  30.5188980  81.2809020 147.8086240  31.6494960  81.5087050 148.7893030
  34.5137380  74.1580520 152.5183460  33.8092950  74.4465410 153.0986570
  34.8749540  74.9680630 152.1583020  20.5054910  81.5016100 145.7463150
  20.1282890  81.9903200 145.0148050  20.7627980  82.1741380 146.3769680
  28.1143840  69.9032490 151.2048660  28.4218820  69.3479380 150.4884160
  27.1844540  70.0376950 151.0221650  34.9604320  82.3416000 148.5846290
  34.8500650  81.3990330 148.7095710  34.9572570  82.7031640 149.4709050
  30.5024600  77.9681320 147.9408780  29.5753880  77.9018700 148.1697250
  30.6549420  78.9061450 147.8264020  30.4893680  74.2398320 144.9375940
  29.5497350  74.4012280 145.0228400  30.8076940  74.9584000 144.3911930
  34.5321890  79.5301620 148.4444030  33.9134310  79.1921170 147.7970330
  34.5146340  78.8861380 149.1523220  26.1081240  78.4946060 150.7228510
  25.7038240  77.7823310 150.2274410  26.1944360  78.1499300 151.6116550
  26.5762940  82.1813620 152.8867720  26.2791230  81.5759090 152.2075500
  27.5262760  82.2190930 152.7757080  32.7086590  78.7688430 145.4516780
  33.1479870  77.9310860 145.3054600  33.4215010  79.4017830 145.5380920
  30.8181970  83.7084500 149.4198020  31.2577880  84.4508830 149.0053410
  30.7568860  83.9511070 150.3436980  36.2903730  70.0231240 143.7657820
  35.9776390  70.1158070 144.6656890  37.0516200  70.6012270 143.7155250
  22.8085870  77.3891040 148.2235160  22.6883470  78.1153130 147.6116430
  22.4986760  76.6193950 147.7463070  21.6918870  82.2606370 150.4409980
  21.2846950  82.4020960 149.5863580  22.5831880  81.9766530 150.2381190
  33.4852150  86.6953620 146.7761030  33.3253290  86.4056560 147.6742860
  33.3198860  85.9193750 146.2406260  25.9640530  86.4752150 148.5532650
  25.7883010  85.5587690 148.3400450  25.1096270  86.8339440 148.7930450
  33.1878280  84.2041180 145.3359030  32.4943440  84.2018470 144.6761310
  33.9301140  83.7800500 144.9053200  32.7528210  85.8303890 149.4107520
  33.2085160  85.0493270 149.7246140  33.0920730  86.5410710 149.9548700
  25.2749530  70.7326110 151.6058830  24.8317680  71.5135650 151.2743350
  25.8334520  71.0556000 152.3129770  28.3908350  70.3536810 146.4864660
  27.7662530  70.3496680 147.2117970  28.3038470  69.4867770 146.0900630
  25.0663750  75.8559680 149.3340080  24.8404670  75.6396850 150.2386700
  24.2856280  76.2888140 148.9886050  32.2961510  75.8623050 147.9330730
  31.6970400  76.5858850 147.7494350  32.8441120  75.7999830 147.1507180
  30.9026380  74.4986590 149.9634010  31.2955950  74.8158790 149.1502700
  31.2643230  73.6198470 150.0778530  19.9390550  71.0887390 152.1864210
  19.6503600  71.6590250 152.8989190  20.6836310  70.6091840 152.5495440
  20.1260780  75.0307510 143.3966930  20.0435450  75.9738270 143.5381920
  19.7743840  74.8882420 142.5179280  27.9258910  73.7646540 152.4637280
  27.9294970  73.3236490 151.6141820  28.8210030  74.0863870 152.5709100
  23.7761290  73.6473030 151.4231490  23.4361340  74.1248260 152.1798540
  23.0138610  73.1938150 151.0632590  27.9879060  74.7658620 145.4544040
  28.1091880  74.7245100 146.4029860  27.6027570  75.6282770 145.2990770
  27.0000560  77.0759760 144.8527340  26.4317460  76.6278010 144.2263250
  27.7089560  77.4352540 144.3192490  21.0907370  72.5692010 150.3396160
  20.8054290  72.2047680 151.1774780  21.0286230  71.8372470 149.7259300
  24.5448040  81.0717950 147.1253750  23.7710300  80.5315570 146.9652470
  25.2742670  80.5524560 146.7871510  35.3036020  80.0683310 152.9180140
  36.0235140  80.5638600 152.5276250  35.1017840  79.3901200 152.2734010
  30.7645960  71.4621270 147.0609530  29.9510570  70.9634440 146.9854840
  30.5707910  72.3019520 146.6445880  33.4794350  75.8340920 145.3571690
  34.3673970  76.1458150 145.1823030  33.4499440  74.9613170 144.9652270
  24.5885440  80.7398330 150.7632560  25.1064110  79.9366590 150.7089450
  24.1369460  80.6777470 151.6049390  29.4754940  82.0064610 146.0359860
  29.8170640  82.7506840 145.5403180  28.6467650  82.3195730 146.3984690
  35.7508620  77.1452760 144.8251550  35.6672340  77.5766980 143.9747990
  36.4702810  77.6051110 145.2578370  36.7795870  83.9995020 147.5533680
  36.1372030  83.3450640 147.8277400  36.3926530  84.4050110 146.7774350
  32.3582350  81.3280450 151.4005370  32.7106170  80.7308580 150.7406740
  31.4744680  81.0024680 151.5713620  28.4445630  82.0878140 148.8075780
  29.1316760  82.6347350 149.1883370  27.6578050  82.6318870 148.8425390
  20.5838030  77.7050960 144.2992860  21.4532880  77.9875760 144.5828780
  20.0928350  78.5186830 144.1841670  27.7472840  79.0924170 148.4201140
  28.2035620  79.9029420 148.6461330  27.3961050  78.7747310 149.2519630
  23.6484620  69.4361820 148.8923660  23.5199250  69.4279720 149.8408580
  22.8246640  69.7744910 148.5414670  35.1693250  82.8911480 144.0910030
  34.9430830  82.1741920 144.6834670  34.7789450  82.6423920 143.2531780
  20.9509280  86.9178340 144.8654490  21.3106920  87.5167680 144.2111760
  20.8101620  87.4638230 145.6389520  34.7509500  80.8083420 145.7524190
  34.4631200  81.2696110 146.5402070  35.5461670  80.3481190 146.0208410
  26.9677900  84.3009540 145.6828160  26.9588000  85.0339230 145.0672670
  26.0476260  84.0541120 145.7755120  22.5684540  79.5224430 146.4274920
  21.9612490  80.2623330 146.4370220  23.0433890  79.6123790 145.6013120
  35.5079360  72.6432190 146.9119370  34.8792520  72.7477860 146.1977600
  35.0131280  72.8628970 147.7013250  29.9537500  84.3637780 144.3453350
  30.0549480  84.1601770 143.4155330  29.0539240  84.1096060 144.5501130
  27.4763390  74.9218140 148.3277250  26.7679540  75.3904480 148.7690860
  27.7607870  74.2640150 148.9622440  31.5078820  71.6468800 149.7673040
  31.3846600  71.6654930 148.8182550  32.4563380  71.6947740 149.8871440
  28.5955610  86.8824100 149.0401020  28.8497110  86.8445490 148.1180390
  27.6468090  86.7557430 149.0329270  25.6798410  73.2303220 145.7027960
  26.5288940  73.6673370 145.6368150  25.3129680  73.5423480 146.5300020
  34.6008190  77.8015980 150.6159530  33.6598330  77.8166210 150.7907220
  34.9152260  77.0151940 151.0619830  24.5789830  79.4835580 144.1763490
  25.3453100  79.3716940 144.7388920  24.6564520  78.7873550 143.5240260
  23.2736590  76.9160650 144.8596380  23.3540180  75.9688160 144.9713780
  24.1656340  77.2467530 144.9657040  36.6033770  84.9724830 152.2913790
  36.7281190  85.7956000 152.7637600  37.4699330  84.7615560 151.9437940
  24.0751300  87.0656040 151.9630920  24.8113780  86.5171500 152.2339490
  24.4592220  87.9312050 151.8236910  20.9596780  83.1329610 147.8372430
  20.0336560  83.3750750 147.8277840  21.4253210  83.9603870 147.7157180
  27.1853610  86.2386350 143.7856490  27.9782220  86.5275180 143.3338280
  26.6657960  85.8078520 143.1068970  36.2383780  85.4656480 145.2093230
  35.9525290  85.0521620 144.3947410  36.0403330  86.3944190 145.0893750
  27.7031010  81.4589760 143.6498840  27.5981650  80.8442110 144.3760220
  27.5355230  80.9355650 142.8661850  30.9433740  80.5209790 144.2540830
  30.3943840  80.9679090 144.8983570  31.5653000  80.0159040 144.7778500
  26.6108860  79.4800710 146.1506130  27.0325280  79.3140580 146.9937520
  26.7359700  78.6700940 145.6561270  29.1236500  78.5038320 143.3983230
  29.6442160  77.7887340 143.0324380  29.7704900  79.1424190 143.6983740
  25.5067760  75.5533940 143.0964290  25.3056820  74.6901300 143.4577630
  25.3359810  75.4667300 142.1585890  32.9856070  70.3642170 145.6251170
  33.2658360  69.5210070 145.9810590  32.2121800  70.5965280 146.1389920
  24.3050560  72.6534560 143.0842170  24.6076460  72.6601990 142.1761320
  25.0445150  72.3032420 143.5809830  27.5235490  71.5969180 144.0698370
  27.1757490  70.9193170 143.4900820  27.7248260  71.1358690 144.8841760
  29.6884530  86.5849930 145.6884970  30.5835320  86.9234900 145.7103730
  29.7202160  85.8629340 145.0609250  23.3280690  81.9576980 143.9171970
  23.7655560  82.5006650 144.5729550  23.8128420  81.1323930 143.9268310
  20.5426490  84.7466010 151.3692230  20.8729500  83.8787070 151.1370870
  20.9717490  84.9524530 152.1997190  25.1388410  83.0775020 149.0294200
  24.8383950  82.9539990 149.9298110  25.0325900  82.2183610 148.6209930
  37.9080330  82.8571420 143.7320880  37.0773290  82.9248070 144.2028110
  38.0852160  83.7475540 143.4287740  37.3636790  79.6018900 146.2355080
  38.1255700  80.1715550 146.3414770  37.3791160  79.0346100 147.0063390
  20.8641130  78.1256830 150.4662740  20.2089970  77.8568470 149.8222440
  21.7019080  78.0161310 150.0164720  38.3696760  80.4569000 151.0797010
  38.7405590  79.6736320 150.6732980  39.0098690  81.1458100 150.9014310
  37.4155960  79.8953270 143.3927600  37.6904800  80.8032150 143.2646820
  37.2266700  79.8315800 144.3289590  33.8131570  72.9198120 144.6881230
  34.2316450  72.7329100 143.8477890  33.5067630  72.0677170 144.9984160
  37.3121300  77.8322260 148.3857030  36.9364900  77.0650190 147.9538320
  36.5824420  78.2144960 148.8731960  20.0779210  75.3355760 146.4088070
  19.1743290  75.5985960 146.2339730  20.5619830  75.6066930 145.6288030
  36.5872260  76.0579750 151.6864270  37.1109740  75.5642400 151.0554440
  37.1731680  76.1930110 152.4311840  22.6206420  74.3921300 144.3182450
  23.3298120  73.9704520 143.8329730  21.9046360  74.4596530 143.6865800
  22.2680580  70.4460630 143.3585100  22.9908710  70.9869570 143.6766320
  22.5405100  70.1724050 142.4826640  36.0772230  75.3153100 147.6256680
  36.5731350  75.0823970 148.4105560  35.8788300  74.4764940 147.2094320
  37.5059390  73.9514050 150.1594360  37.3958670  73.7970090 151.0976630
  38.2666980  73.4234990 149.9169770  38.3949660  71.7821970 143.4000500
  39.3198970  71.6503150 143.1918790  38.3725450  71.8614790 144.3536950
  38.4688150  72.5532630 146.0257210  37.6739650  72.4877750 146.5550120
  38.6731430  73.4883270 146.0142560  35.4106570  86.5924180 150.0195600
  36.0065640  86.2708750 149.3430020  35.6684720  86.1196000 150.8108870
  34.9008080  70.8829510 152.4756040  35.3416170  70.8274610 151.6277640
  34.6315670  71.7987520 152.5466220  36.7646650  70.5144750 150.4864860
  36.7035050  69.5705970 150.3395880  37.5438680  70.6224840 151.0318320
  21.0699400  86.6537110 149.4488810  20.9021440  86.0207790 150.1470700
  20.2033910  86.8596510 149.0983000  21.6927420  70.4853890 146.9520670
  22.4506780  70.5982770 146.3784700  21.2304590  71.3223090 146.9064100
  28.2341230  72.5993160 149.9422980  27.4215740  72.2250050 149.6018860
  28.7382870  71.8438240 150.2444170  32.7366210  69.2635610 151.1806050
  33.3395580  69.8355820 151.6554570  31.9959200  69.8275050 150.9579950
  35.8800810  69.6657170 146.4546330  36.0751440  70.5640620 146.7213760
  35.0930680  69.4344250 146.9479280  22.6762100  85.3470340 146.8938950
  22.1509720  85.7278370 146.1900910  22.6006680  85.9721110 147.6148660
  24.0652570  71.0117940 145.4922640  24.5945330  70.2247740 145.3630590
  24.6980890  71.6909130 145.7258170  26.2590410  70.7493080 148.5468030
  25.6293150  70.0480390 148.7138160  25.7195550  71.5097210 148.3301190
  37.4327420  86.9057880 148.2152890  37.6079610  86.2195620 147.5713810
  36.7348990  87.4304930 147.8229560  25.2755070  87.2952720 145.7688200
  26.0073890  87.0112000 145.2212090  25.5348740  87.0566000 146.6587580
  24.4369860  83.4117450 145.7734530  23.8078740  83.8802550 146.3220360
  24.5517690  82.5666670 146.2080720  31.8919580  77.4623110 131.9235730
  31.8113630  76.5477720 131.6527440  31.4784000  77.9590180 131.2175440
  30.0237620  79.2402130 133.8045000  29.2479720  78.7602570 134.0943570
  30.6750550  78.5607780 133.6301160  24.0403450  79.5521940 134.6820760
  23.2088330  79.2970650 135.0817270  24.6484430  79.6232710 135.4178680
  34.0445050  83.6462320 132.5844130  33.5826580  82.8749560 132.9131300
  34.8570600  83.6728390 133.0896580  24.0204710  83.5862030 134.8778780
  24.3232750  82.6959770 134.6989000  24.7648300  84.1432250 134.6501030
  22.4495400  74.5123830 128.4663150  21.5612100  74.8539800 128.3643030
  22.7336590  74.3124150 127.5743980  20.4128410  77.1129480 134.3502850
  20.9844520  76.3451680 134.3506490  20.4129950  77.4118240 133.4409460
  30.2708360  85.9320330 132.2048120  29.6519800  86.3877830 131.6342560
  31.1260140  86.0871790 131.8037820  29.4646610  81.9159320 133.8115160
  29.3954890  80.9749260 133.6504290  30.2266470  82.0060730 134.3837730
  21.6553280  72.5213840 136.1371780  21.4756120  71.6239590 136.4174540
  21.2533360  73.0685710 136.8118730  30.4951780  74.7229700 134.0384090
  30.8716600  73.8501580 133.9257760  30.3971290  75.0588400 133.1474530
  24.6256790  73.0955330 129.5001530  24.7323540  73.9959060 129.8070290
  23.7149150  73.0473300 129.2096180  34.2775900  72.2180140 130.9712430
  35.0985520  71.7276710 131.0137910  34.3109980  72.8077800 131.7244270
  22.2739950  75.0174340 134.7454120  22.9550060  75.2812710 135.3641520
  21.9588000  74.1775210 135.0792130  26.4664520  76.0641700 133.8326710
  26.9742740  76.5622670 134.4731730  26.9977760  75.2876900 133.6566070
  38.5675450  74.2346890 137.5356060  37.8627620  74.6228600 137.0171170
  38.8333370  74.9297180 138.1376990  24.7500620  70.7040260 138.0990130
  24.7519060  71.2212650 137.2936030  23.9204930  70.2270440 138.0760060
  31.1371710  80.8159570 129.5980030  30.5188980  81.2809020 129.0342750
  31.6494960  81.5087050 130.0149540  26.0003470  80.3435440 136.2763630
  25.6672850  80.9704360 136.9184700  26.1770150  80.8697320 135.4965300
  34.5137380  74.1580520 133.7439970  33.8092950  74.4465410 134.3243080
  34.8749540  74.9680630 133.3839530  24.4315950  72.4150220 136.1060580
  24.7732760  73.2592270 135.8114450  23.4931760  72.5633960 136.2225920
  25.2122570  82.3116240 138.0912810  25.8296570  82.9867320 137.8097260
  24.3515690  82.7204220 138.0000310  20.5054910  81.5016100 126.9719660
  20.1282890  81.9903200 126.2404560  20.7627980  82.1741380 127.6026190
  36.1300160  83.7755650 136.0067450  35.4463680  84.4454760 135.9984120
  36.6694450  83.9736300 135.2412310  37.5824300  73.6035310 134.1349180
  36.6349210  73.6374290 134.2664610  37.9074290  74.4174260 134.5198540
  28.1143840  69.9032490 132.4305170  28.4218820  69.3479380 131.7140670
  27.1844540  70.0376950 132.2478160  33.6658900  85.6199780 134.7212630
  33.6786060  85.2162070 133.8534890  33.1134120  86.3947070 134.6174060
  34.9604320  82.3416000 129.8102800  34.8500650  81.3990330 129.9352220
  34.9572570  82.7031640 130.6965560  33.0644340  80.5229620 136.0495240
  33.4813130  80.3089730 135.2148700  33.7884160  80.7802410 136.6203860
  30.5024600  77.9681320 129.1665290  29.5753880  77.9018700 129.3953760
  30.6549420  78.9061450 129.0520530  30.4893680  74.2398320 126.1632450
  29.5497350  74.4012280 126.2484910  30.8076940  74.9584000 125.6168440
  37.0106440  78.9216840 136.1411480  36.1825070  78.9909930 135.6661610
  37.6056920  79.5071150 135.6727310  34.5321890  79.5301620 129.6700540
  33.9134310  79.1921170 129.0226840  34.5146340  78.8861380 130.3779730
  33.9748450  75.7086160 137.0866350  33.5619630  76.5339870 137.3406340
  33.2424400  75.1231200 136.8942710  26.1081240  78.4946060 131.9485020
  25.7038240  77.7823310 131.4530920  26.1944360  78.1499300 132.8373060
  26.5762940  82.1813620 134.1124230  26.2791230  81.5759090 133.4332010
  27.5262760  82.2190930 134.0013590  24.8209860  75.2689270 135.7284060
  25.3724450  75.3784610 134.9537310  25.3353370  75.6426870 136.4439290
  34.6648550  85.7545490 137.7747330  34.1879110  86.5617680 137.5819940
  33.9810340  85.1023820 137.9273540  25.6681370  81.9195310 140.7632030
  24.7709900  82.1435280 141.0105430  25.6934240  82.0430250 139.8143430
  32.7086590  78.7688430 126.6773290  33.1479870  77.9310860 126.5311110
  33.4215010  79.4017830 126.7637430  24.4952590  78.7908630 139.3389400
  24.3560360  79.6631430 139.7076800  23.6133950  78.4481440 139.1937340
  30.8181970  83.7084500 130.6454530  31.2577880  84.4508830 130.2309920
  30.7568860  83.9511070 131.5693490  26.2932940  84.7330330 141.5474550
  26.2648370  85.1373280 140.6802980  26.1297910  83.8040690 141.3846150
  36.2903730  70.0231240 124.9914330  35.9776390  70.1158070 125.8913400
  37.0516200  70.6012270 124.9411760  22.8085870  77.3891040 129.4491670
  22.6883470  78.1153130 128.8372940  22.4986760  76.6193950 128.9719580
  38.2447760  85.5157430 142.8438720  38.7207480  85.9940320 143.5227800
  38.8654920  85.4474920 142.1184220  20.4471240  80.5606180 135.2560310
  20.5251660  80.6954950 134.3116030  21.0612920  79.8522070 135.4488430
  21.6918870  82.2606370 131.6666490  21.2846950  82.4020960 130.8120090
  22.5831880  81.9766530 131.4637700  37.6481010  82.7070280 140.0038730
  37.7744070  82.4682160 139.0855910  37.6902390  81.8754820 140.4760810
  31.5097750  86.4098280 138.5733540  32.0242420  86.3206290 139.3755970
  30.6666830  86.7557980 138.8661450  25.9640530  86.4752150 129.7789160
  25.7883010  85.5587690 129.5656960  25.1096270  86.8339440 130.0186960
  32.7528210  85.8303890 130.6364030  33.2085160  85.0493270 130.9502650
  33.0920730  86.5410710 131.1805210  37.5005020  74.7602740 140.9688470
  36.8849290  75.2682410 140.4403930  37.1801440  73.8601070 140.9114410
  20.5030760  81.6020350 137.7954770  20.6661800  81.1325710 136.9774140
  20.9683210  81.0943910 138.4603610  25.2749530  70.7326110 132.8315340
  24.8317680  71.5135650 132.4999860  25.8334520  71.0556000 133.5386280
  29.5619340  73.5994630 138.4350660  29.0998710  73.8077650 139.2470600
  29.1597450  72.7853980 138.1321330  34.5623850  74.8203580 139.5647320
  33.7117440  74.5209330 139.8856390  34.4025640  75.0645590 138.6531140
  31.6573560  76.3205330 141.6646110  31.9826970  75.4869080 141.3248340
  32.4453890  76.8433850 141.8124440  28.3908350  70.3536810 127.7121170
  27.7662530  70.3496680 128.4374480  28.3038470  69.4867770 127.3157140
  27.3125430  71.2773440 134.6904940  27.6097760  72.1836270 134.6096960
  27.8610990  70.7892220 134.0764510  25.0663750  75.8559680 130.5596590
  24.8404670  75.6396850 131.4643210  24.2856280  76.2888140 130.2142560
  32.2961510  75.8623050 129.1587240  31.6970400  76.5858850 128.9750860
  32.8441120  75.7999830 128.3763690  27.5062960  76.7545260 141.2256860
  27.4106560  75.8139990 141.0757260  28.3494940  76.9760330 140.8304930
  30.9026380  74.4986590 131.1890520  31.2955950  74.8158790 130.3759210
  31.2643230  73.6198470 131.3035040  22.6373500  73.1658930 139.3790640
  22.2436890  74.0134140 139.5863420  21.9491900  72.5285300 139.5699280
  29.2118550  73.2493900 142.4487380  28.5216870  73.0566100 143.0833470
  29.9550850  73.5328540 142.9811680  19.9390550  71.0887390 133.4120720
  19.6503600  71.6590250 134.1245700  20.6836310  70.6091840 133.7751950
  20.1260780  75.0307510 124.6223440  20.0435450  75.9738270 124.7638430
  19.7743840  74.8882420 123.7435790  31.4881520  77.0892340 135.2841300
  30.7562640  77.5979150 135.6331400  31.0905860  76.2722320 134.9830080
  27.9258910  73.7646540 133.6893790  27.9294970  73.3236490 132.8398330
  28.8210030  74.0863870 133.7965610  23.7761290  73.6473030 132.6488000
  23.4361340  74.1248260 133.4055050  23.0138610  73.1938150 132.2889100
  27.9879060  74.7658620 126.6800550  28.1091880  74.7245100 127.6286370
  27.6027570  75.6282770 126.5247280  31.9507430  72.5426020 134.6964240
  31.9680170  72.9934670 135.5406090  31.7023010  71.6431660 134.9097680
  27.0000560  77.0759760 126.0783850  26.4317460  76.6278010 125.4519760
  27.7089560  77.4352540 125.5449000  35.3778180  69.9558200 140.5350620
  35.7023950  69.2247860 141.0608600  35.4134690  69.6371840 139.6331610
  22.0769740  80.9771780 139.9550580  21.6924530  80.3365450 140.5533540
  22.3881930  81.6807900 140.5245310  28.2266880  77.8248320 135.4359200
  28.5937010  77.3506890 136.1820540  28.0371940  78.6989890 135.7767540
  21.0907370  72.5692010 131.5652670  20.8054290  72.2047680 132.4031290
  21.0286230  71.8372470 130.9515810  26.0166250  76.8656960 137.7543410
  25.7123320  77.7448940 137.9793770  26.9712710  76.9256750 137.7900850
  24.5448040  81.0717950 128.3510260  23.7710300  80.5315570 128.1908980
  25.2742670  80.5524560 128.0128020  35.3036020  80.0683310 134.1436650
  36.0235140  80.5638600 133.7532760  35.1017840  79.3901200 133.4990520
  30.7645960  71.4621270 128.2866040  29.9510570  70.9634440 128.2111350
  30.5707910  72.3019520 127.8702390  30.6854820  80.1392370 140.0305650
  30.6192130  79.2188040 139.7763240  30.0559960  80.2367810 140.7450290
  33.4794350  75.8340920 126.5828200  34.3673970  76.1458150 126.4079540
  33.4499440  74.9613170 126.1908780  24.5885440  80.7398330 131.9889070
  25.1064110  79.9366590 131.9345960  24.1369460  80.6777470 132.8305900
  29.4754940  82.0064610 127.2616370  29.8170640  82.7506840 126.7659690
  28.6467650  82.3195730 127.6241200  22.0729980  77.7059700 138.9014770
  21.7144920  78.3713550 139.4888110  21.7784540  76.8743250 139.2727390
  25.2743100  78.1643940 141.7854320  24.9743240  78.3101120 140.8882140
  26.0454340  77.6049230 141.6927710  30.6171550  82.9612940 139.7809450
  30.6316090  82.0293900 139.5628360  29.9096650  83.0472700 140.4199220
  35.7508620  77.1452760 126.0508060  35.6672340  77.5766980 125.2004500
  36.4702810  77.6051110 126.4834880  36.8282760  79.6020280 139.1278030
  36.1030950  80.1949060 138.9307420  37.3558220  79.5943820 138.3291400
  36.7795870  83.9995020 128.7790190  36.1372030  83.3450640 129.0533910
  36.3926530  84.4050110 128.0030860  32.3582350  81.3280450 132.6261880
  32.7106170  80.7308580 131.9663250  31.4744680  81.0024680 132.7970130
  28.4445630  82.0878140 130.0332290  29.1316760  82.6347350 130.4139880
  27.6578050  82.6318870 130.0681900  20.5838030  77.7050960 125.5249370
  21.4532880  77.9875760 125.8085290  20.0928350  78.5186830 125.4098180
  27.7472840  79.0924170 129.6457650  28.2035620  79.9029420 129.8717840
  27.3961050  78.7747310 130.4776140  30.0505450  84.6030510 136.8749950
  30.6947670  84.8089890 137.5523370  30.4134890  83.8418910 136.4220800
  23.6484620  69.4361820 130.1180170  23.5199250  69.4279720 131.0665090
  22.8246640  69.7744910 129.7671180  31.3237530  82.6062860 135.5927400
  31.9659760  81.9056020 135.7059570  31.8486880  83.3861300 135.4124290
  33.0975150  83.4057760 138.7963460  33.4331390  83.9924450 139.4741380
  32.1775490  83.2750470 139.0261250  20.9509280  86.9178340 126.0911000
  21.3106920  87.5167680 125.4368270  20.8101620  87.4638230 126.8646030
  20.6478550  71.1952940 139.5786870  19.9337070  71.3949860 140.1839480
  21.0673590  70.4192510 139.9501670  34.7509500  80.8083420 126.9780700
  34.4631200  81.2696110 127.7658580  35.5461670  80.3481190 127.2464920
  20.9351140  85.1833200 140.5653400  21.0442260  84.2427940 140.4248790
  20.2831700  85.4487950 139.9167130  28.9263730  83.4549090 141.9651520
  28.6060600  82.7358330 142.5097210  28.2522090  84.1304160 142.0387580
  26.9677900  84.3009540 126.9084670  26.9588000  85.0339230 126.2929180
  26.0476260  84.0541120 127.0011630  22.5684540  79.5224430 127.6531430
  21.9612490  80.2623330 127.6626730  23.0433890  79.6123790 126.8269630
  32.1417330  73.6875250 137.3288320  32.5098150  72.8670460 137.6567890
  31.2815530  73.7477140 137.7443970  35.5079360  72.6432190 128.1375880
  34.8792520  72.7477860 127.4234110  35.0131280  72.8628970 128.9269760
  29.9537500  84.3637780 125.5709860  30.0549480  84.1601770 124.6411840
  29.0539240  84.1096060 125.7757640  27.4763390  74.9218140 129.5533760
  26.7679540  75.3904480 129.9947370  27.7607870  74.2640150 130.1878950
  29.1019320  76.3414840 137.5526290  29.6004570  76.8160660 138.2178140
  29.2442270  75.4178360 137.7596320  31.5078820  71.6468800 130.9929550
  31.3846600  71.6654930 130.0439060  32.4563380  71.6947740 131.1127950
  28.5955610  86.8824100 130.2657530  28.8497110  86.8445490 129.3436900
  27.6468090  86.7557430 130.2585780  25.6798410  73.2303220 126.9284470
  26.5288940  73.6673370 126.8624660  25.3129680  73.5423480 127.7556530
  36.3086180  72.5582800 138.3954680  35.8059780  73.2988200 138.7348490
  37.1242840  72.9466800 138.0791470  34.6008190  77.8015980 131.8416040
  33.6598330  77.8166210 132.0163730  34.9152260  77.0151940 132.2876340
  24.5789830  79.4835580 125.4020000  25.3453100  79.3716940 125.9645430
  24.6564520  78.7873550 124.7496770  23.2736590  76.9160650 126.0852890
  23.3540180  75.9688160 126.1970290  24.1656340  77.2467530 126.1913550
  36.6033770  84.9724830 133.5170300  36.7281190  85.7956000 133.9894110
  37.4699330  84.7615560 133.1694450  24.0751300  87.0656040 133.1887430
  24.8113780  86.5171500 133.4596000  24.4592220  87.9312050 133.0493420
  20.9596780  83.1329610 129.0628940  20.0336560  83.3750750 129.0534350
  21.4253210  83.9603870 128.9413690  23.0809580  86.2502110 142.3773010
  23.8822310  86.5714160 142.7908410  22.5661400  85.8897690 143.0992920
  27.1853610  86.2386350 125.0113000  27.9782220  86.5275180 124.5594790
  26.6657960  85.8078520 124.3325480  31.9174210  82.3581980 142.3248420
  31.3112370  82.3813580 141.5844170  31.6128320  81.6265020 142.8615670
  33.3474580  86.0862270 140.9357830  34.2996330  86.0020290 140.8858070
  33.2002800  86.7503980 141.6091620  20.8007390  78.7375570 141.3209060
  21.3046410  78.1582850 141.8925290  20.0614810  79.0215800 141.8585430
  27.7031010  81.4589760 124.8755350  27.5981650  80.8442110 125.6016730
  27.5355230  80.9355650 124.0918360  27.8545330  80.1446560 140.8544580
  27.0891000  80.7131560 140.7699250  28.0361290  79.8522770 139.9612810
  30.9433740  80.5209790 125.4797340  30.3943840  80.9679090 126.1240080
  31.5653000  80.0159040 126.0035010  34.9968680  81.8751890 141.4119600
  35.7378150  82.2127650 140.9087060  34.2341360  82.0443950 140.8589370
  22.8330470  76.8805160 142.2159130  22.8735810  76.5819030 143.1244360
  23.6875970  77.2812770 142.0566650  26.6108860  79.4800710 127.3762640
  27.0325280  79.3140580 128.2194030  26.7359700  78.6700940 126.8817780
  24.7736280  75.4597260 140.1833620  24.2432740  74.9688210 139.5556960
  25.4424350  75.8881460 139.6491550  29.1236500  78.5038320 124.6239740
  29.6442160  77.7887340 124.2580890  29.7704900  79.1424190 124.9240250
  33.6714340  79.9266720 139.9474810  34.0855360  80.0811800 140.7965230
  32.7365340  80.0521940 140.1100590  34.1436510  77.2662880 141.9513960
  34.7257280  76.5115200 141.8634440  34.3198280  77.7970320 141.1745440
  25.2608580  72.4259630 140.2630910  25.1665450  71.8080380 139.5381780
  24.6805970  73.1525920 140.0360820  28.0270020  70.9832870 137.2958300
  27.5787320  71.0057130 136.4503850  27.3935220  70.5851890 137.8928600
  28.4329570  79.8787200 137.9170740  28.8517680  80.7219930 137.7446980
  27.5138200  80.0159240 137.6877520  30.7693470  77.6103380 139.3008580
  30.8889680  77.0144520 140.0403420  31.6287470  77.6473070 138.8809880
  33.1081370  78.1640570 137.8771090  32.5816590  78.6883190 137.2736230
  33.4512710  78.7967960 138.5080820  25.5067760  75.5533940 124.3220800
  25.3056820  74.6901300 124.6834140  25.3359810  75.4667300 123.3842400
  26.2836990  86.1840210 139.0328470  25.7458080  86.9086270 138.7137170
  26.5370950  85.7070550 138.2425810  27.5362240  74.1524730 140.5584400
  28.1261930  73.8440580 141.2462220  26.7182480  73.6804480 140.7144300
  32.3555670  73.7690540 140.7917420  31.6671190  73.1072080 140.7267410
  33.0761690  73.3228810 141.2365880  32.9856070  70.3642170 126.8507680
  33.2658360  69.5210070 127.2067100  32.2121800  70.5965280 127.3646430
  24.3050560  72.6534560 124.3098680  24.6076460  72.6601990 123.4017830
  25.0445150  72.3032420 124.8066340  29.1399200  87.4191420 139.2915120
  29.0657900  88.3226560 139.5987490  28.2378040  87.1003320 139.2637190
  27.5235490  71.5969180 125.2954880  27.1757490  70.9193170 124.7157330
  27.7248260  71.1358690 126.1098270  29.6884530  86.5849930 126.9141480
  30.5835320  86.9234900 126.9360240  29.7202160  85.8629340 126.2865760
  23.3280690  81.9576980 125.1428480  23.7655560  82.5006650 125.7986060
  23.8128420  81.1323930 125.1524820  20.5426490  84.7466010 132.5948740
  20.8729500  83.8787070 132.3627380  20.9717490  84.9524530 133.4253700
  25.1388410  83.0775020 130.2550710  24.8383950  82.9539990 131.1554620
  25.0325900  82.2183610 129.8466440  21.0316700  85.6136600 135.3330370
  20.5947690  85.7937400 136.1654520  21.5994380  86.3711220 135.1912090
  36.6678880  85.1153600 139.6207680  36.0680870  85.1746160 138.8771600
  36.7972780  84.1758580 139.7504530  37.3636790  79.6018900 127.4611590
  38.1255700  80.1715550 127.5671280  37.3791160  79.0346100 128.2319900
  20.8641130  78.1256830 131.6919250  20.2089970  77.8568470 131.0478950
  21.7019080  78.0161310 131.2421230  38.3696760  80.4569000 132.3053520
  38.7405590  79.6736320 131.8989490  39.0098690  81.1458100 132.1270820
  35.3530520  81.8405580 137.7183840  34.5390360  82.2702740 137.9809630
  35.7604720  82.4523990 137.1052890  37.4155960  79.8953270 124.6184110
  37.6904800  80.8032150 124.4903330  37.2266700  79.8315800 125.5546100
  33.8131570  72.9198120 125.9137740  34.2316450  72.7329100 125.0734400
  33.5067630  72.0677170 126.2240670  37.3121300  77.8322260 129.6113540
  36.9364900  77.0650190 129.1794830  36.5824420  78.2144960 130.0988470
  21.9017060  78.5109400 136.2322590  22.2690100  78.4236800 137.1118610
  21.3327880  77.7475950 136.1329450  36.7020920  76.9793780 139.2453060
  36.4707010  76.7506530 138.3451010  36.9625470  77.8993330 139.1997950
  21.4533060  75.4218490 140.1381010  20.5589110  75.3885250 140.4774720
  21.9930610  75.6205280 140.9032260  35.1408990  72.2050210 142.0232760
  36.0179170  72.2133610 142.4066760  35.1529830  71.4681050 141.4125110
  20.0779210  75.3355760 127.6344580  19.1743290  75.5985960 127.4596240
  20.5619830  75.6066930 126.8544540  36.5872260  76.0579750 132.9120780
  37.1109740  75.5642400 132.2810950  37.1731680  76.1930110 133.6568350
  36.7661980  76.1419620 136.4340330  35.8164690  76.1083160 136.5485320
  36.9474990  77.0519730 136.1990100  22.6206420  74.3921300 125.5438960
  23.3298120  73.9704520 125.0586240  21.9046360  74.4596530 124.9122310
  22.2680580  70.4460630 124.5841610  22.9908710  70.9869570 124.9022830
  22.5405100  70.1724050 123.7083150  36.0772230  75.3153100 128.8513190
  36.5731350  75.0823970 129.6362070  35.8788300  74.4764940 128.4350830
  21.9572770  69.6966820 134.4864230  22.6048960  69.1464200 134.0459390
  22.3774610  69.9509970 135.3080040  37.5059390  73.9514050 131.3850870
  37.3958670  73.7970090 132.3233140  38.2666980  73.4234990 131.1426280
  35.8525110  69.8908180 137.8433870  36.4897330  70.5042320 138.2093060
  36.0000000  69.9268840 136.8983100  38.3949660  71.7821970 124.6257010
  39.3198970  71.6503150 124.4175300  38.3725450  71.8614790 125.5793460
  38.4688150  72.5532630 127.2513720  37.6739650  72.4877750 127.7806630
  38.6731430  73.4883270 127.2399070  35.4106570  86.5924180 131.2452110
  36.0065640  86.2708750 130.5686530  35.6684720  86.1196000 132.0365380
  21.7104770  69.8522490 137.2289550  21.3619590  70.3086310 137.9947730
  21.3792470  68.9579620 137.3111980  23.3169140  83.0242090 141.3942740
  23.2738770  82.6535000 142.2757200  23.4480150  83.9619660 141.5344560
  27.0175170  84.5801680 136.9952460  26.7766530  84.8476240 136.1082980
  27.9577810  84.7507410 137.0503320  29.2229590  71.0434370 140.7508970
  29.1618480  71.6356200 141.5004380  30.1629970  70.9360330 140.6059230
  31.8604150  70.7004430 140.3901260  32.4744560  71.0183720 139.7282340
  32.4053710  70.2153020 141.0097120  38.2779330  86.5996060 137.7963100
  37.7837610  86.9964930 137.0790230  37.6692620  85.9745270 138.1900380
  22.3825410  69.3798690 140.5040320  22.9308400  69.1986740 139.7406430
  22.4480720  68.5892800 141.0396630  23.1557170  85.9704340 138.5140520
  22.5617490  85.8389040 139.2530560  23.1481010  85.1342480 138.0482620
  32.6012190  69.2636570 136.7170550  31.7272030  69.5971680 136.5143480
  32.4922940  68.7909750 137.5422420  33.5084170  71.4707440 138.1012270
  33.1797530  70.6559200 137.7214000  34.4566470  71.4277250 137.9777960
  35.9618780  87.2419480 135.0749840  35.5021750  87.9935290 134.7007860
  35.3331240  86.5225950 135.0164640  22.7869400  83.3362720 137.4648560
  22.0603460  82.7168010 137.3974510  22.8478550  83.7303330 136.5946640
  26.3914500  85.5507720 134.2497970  26.9079520  84.9395080 133.7246230
  27.0411880  86.0536500 134.7408980  29.1310000  86.4416210 135.0766950
  29.4187810  86.1870510 134.1999960  29.6433220  85.8893570 135.6672520
  30.3487010  70.1806410 135.6563460  29.5658800  70.6551910 135.9360220
  30.0549940  69.2761240 135.5476640  34.9008080  70.8829510 133.7012550
  35.3416170  70.8274610 132.8534150  34.6315670  71.7987520 133.7722730
  36.7646650  70.5144750 131.7121370  36.7035050  69.5705970 131.5652390
  37.5438680  70.6224840 132.2574830  21.0699400  86.6537110 130.6745320
  20.9021440  86.0207790 131.3727210  20.2033910  86.8596510 130.3239510
  21.6927420  70.4853890 128.1777180  22.4506780  70.5982770 127.6041210
  21.2304590  71.3223090 128.1320610  28.2341230  72.5993160 131.1679490
  27.4215740  72.2250050 130.8275370  28.7382870  71.8438240 131.4700680
  32.7366210  69.2635610 132.4062560  33.3395580  69.8355820 132.8811080
  31.9959200  69.8275050 132.1836460  35.8800810  69.6657170 127.6802840
  36.0751440  70.5640620 127.9470270  35.0930680  69.4344250 128.1735790
  22.6762100  85.3470340 128.1195460  22.1509720  85.7278370 127.4157420
  22.6006680  85.9721110 128.8405170  24.0652570  71.0117940 126.7179150
  24.5945330  70.2247740 126.5887100  24.6980890  71.6909130 126.9514680
  26.2590410  70.7493080 129.7724540  25.6293150  70.0480390 129.9394670
  25.7195550  71.5097210 129.5557700  29.1982360  87.3632310 142.4435150
  30.1249670  87.1276580 142.4871110  29.1832790  88.1904310 141.9621180
  26.3845970  70.0277060 142.2077030  26.1030240  70.5310660 141.4437850
  26.7665670  69.2298810 141.8419160  25.2755070  87.2952720 126.9944710
  26.0073890  87.0112000 126.4468600  25.5348740  87.0566000 127.8844090
  24.4369860  83.4117450 126.9991040  23.8078740  83.8802550 127.5476870
  24.5517690  82.5666670 127.4337230  32.9861430  69.4430640 142.7857500
  32.8726880  69.7625250 143.6809020  33.8031170  69.8443150 142.4894780
  35.7659920  86.5902170 142.2676190  36.5585240  86.0951400 142.0602150
  36.0593070  87.2692310 142.8751800  31.8919580  77.4623110 113.1492240
  31.8113630  76.5477720 112.8783950  31.4784000  77.9590180 112.4431950
  24.0403450  79.5521940 115.9077270  23.2088330  79.2970650 116.3073780
  24.6484430  79.6232710 116.6435190  34.0445050  83.6462320 113.8100640
  33.5826580  82.8749560 114.1387810  34.8570600  83.6728390 114.3153090
  24.0204710  83.5862030 116.1035290  24.3232750  82.6959770 115.9245510
  24.7648300  84.1432250 115.8757540  20.4128410  77.1129480 115.5759360
  20.9844520  76.3451680 115.5763000  20.4129950  77.4118240 114.6665970
  21.6553280  72.5213840 117.3628290  21.4756120  71.6239590 117.6431050
  21.2533360  73.0685710 118.0375240  30.4951780  74.7229700 115.2640600
  30.8716600  73.8501580 115.1514270  30.3971290  75.0588400 114.3731040
  34.2775900  72.2180140 112.1968940  35.0985520  71.7276710 112.2394420
  34.3109980  72.8077800 112.9500780  22.2739950  75.0174340 115.9710630
  22.9550060  75.2812710 116.5898030  21.9588000  74.1775210 116.3048640
  38.5675450  74.2346890 118.7612570  37.8627620  74.6228600 118.2427680
  38.8333370  74.9297180 119.3633500  34.5137380  74.1580520 114.9696480
  33.8092950  74.4465410 115.5499590  34.8749540  74.9680630 114.6096040
  25.2122570  82.3116240 119.3169320  25.8296570  82.9867320 119.0353770
  24.3515690  82.7204220 119.2256820  20.5054910  81.5016100 108.1976170
  20.1282890  81.9903200 107.4661070  20.7627980  82.1741380 108.8282700
  36.1300160  83.7755650 117.2323960  35.4463680  84.4454760 117.2240630
  36.6694450  83.9736300 116.4668820  37.5824300  73.6035310 115.3605690
  36.6349210  73.6374290 115.4921120  37.9074290  74.4174260 115.7455050
  33.6658900  85.6199780 115.9469140  33.6786060  85.2162070 115.0791400
  33.1134120  86.3947070 115.8430570  34.9604320  82.3416000 111.0359310
  34.8500650  81.3990330 111.1608730  34.9572570  82.7031640 111.9222070
  37.0106440  78.9216840 117.3667990  36.1825070  78.9909930 116.8918120
  37.6056920  79.5071150 116.8983820  34.5321890  79.5301620 110.8957050
  33.9134310  79.1921170 110.2483350  34.5146340  78.8861380 111.6036240
  33.9748450  75.7086160 118.3122860  33.5619630  76.5339870 118.5662850
  33.2424400  75.1231200 118.1199220  24.8209860  75.2689270 116.9540570
  25.3724450  75.3784610 116.1793820  25.3353370  75.6426870 117.6695800
  34.6648550  85.7545490 119.0003840  34.1879110  86.5617680 118.8076450
  33.9810340  85.1023820 119.1530050  25.6681370  81.9195310 121.9888540
  24.7709900  82.1435280 122.2361940  25.6934240  82.0430250 121.0399940
  24.4952590  78.7908630 120.5645910  24.3560360  79.6631430 120.9333310
  23.6133950  78.4481440 120.4193850  30.8181970  83.7084500 111.8711040
  31.2577880  84.4508830 111.4566430  30.7568860  83.9511070 112.7950000
  26.2932940  84.7330330 122.7731060  26.2648370  85.1373280 121.9059490
  26.1297910  83.8040690 122.6102660  20.4471240  80.5606180 116.4816820
  20.5251660  80.6954950 115.5372540  21.0612920  79.8522070 116.6744940
  21.6918870  82.2606370 112.8923000  21.2846950  82.4020960 112.0376600
  22.5831880  81.9766530 112.6894210  31.5097750  86.4098280 119.7990050
  32.0242420  86.3206290 120.6012480  30.6666830  86.7557980 120.0917960
  33.4852150  86.6953620 109.2274050  33.3253290  86.4056560 110.1255880
  33.3198860  85.9193750 108.6919280  25.9640530  86.4752150 111.0045670
  25.7883010  85.5587690 110.7913470  25.1096270  86.8339440 111.2443470
  37.5005020  74.7602740 122.1944980  36.8849290  75.2682410 121.6660440
  37.1801440  73.8601070 122.1370920  20.5030760  81.6020350 119.0211280
  20.6661800  81.1325710 118.2030650  20.9683210  81.0943910 119.6860120
  29.5619340  73.5994630 119.6607170  29.0998710  73.8077650 120.4727110
  29.1597450  72.7853980 119.3577840  34.5623850  74.8203580 120.7903830
  33.7117440  74.5209330 121.1112900  34.4025640  75.0645590 119.8787650
  31.6573560  76.3205330 122.8902620  31.9826970  75.4869080 122.5504850
  32.4453890  76.8433850 123.0380950  27.5062960  76.7545260 122.4513370
  27.4106560  75.8139990 122.3013770  28.3494940  76.9760330 122.0561440
  22.6373500  73.1658930 120.6047150  22.2436890  74.0134140 120.8119930
  21.9491900  72.5285300 120.7955790  29.2118550  73.2493900 123.6743890
  28.5216870  73.0566100 124.3089980  29.9550850  73.5328540 124.2068190
  19.9390550  71.0887390 114.6377230  19.6503600  71.6590250 115.3502210
  20.6836310  70.6091840 115.0008460  20.1260780  75.0307510 105.8479950
  20.0435450  75.9738270 105.9894940  19.7743840  74.8882420 104.9692300
  31.9507430  72.5426020 115.9220750  31.9680170  72.9934670 116.7662600
  31.7023010  71.6431660 116.1354190  35.3778180  69.9558200 121.7607130
  35.7023950  69.2247860 122.2865110  35.4134690  69.6371840 120.8588120
  22.0769740  80.9771780 121.1807090  21.6924530  80.3365450 121.7790050
  22.3881930  81.6807900 121.7501820  26.0166250  76.8656960 118.9799920
  25.7123320  77.7448940 119.2050280  26.9712710  76.9256750 119.0157360
  24.5448040  81.0717950 109.5766770  23.7710300  80.5315570 109.4165490
  25.2742670  80.5524560 109.2384530  35.3036020  80.0683310 115.3693160
  36.0235140  80.5638600 114.9789270  35.1017840  79.3901200 114.7247030
  30.7645960  71.4621270 109.5122550  29.9510570  70.9634440 109.4367860
  30.5707910  72.3019520 109.0958900  33.4794350  75.8340920 107.8084710
  34.3673970  76.1458150 107.6336050  33.4499440  74.9613170 107.4165290
  22.0729980  77.7059700 120.1271280  21.7144920  78.3713550 120.7144620
  21.7784540  76.8743250 120.4983900  25.2743100  78.1643940 123.0110830
  24.9743240  78.3101120 122.1138650  26.0454340  77.6049230 122.9184220
  35.7508620  77.1452760 107.2764570  35.6672340  77.5766980 106.4261010
  36.4702810  77.6051110 107.7091390  36.8282760  79.6020280 120.3534540
  36.1030950  80.1949060 120.1563930  37.3558220  79.5943820 119.5547910
  36.7795870  83.9995020 110.0046700  36.1372030  83.3450640 110.2790420
  36.3926530  84.4050110 109.2287370  20.5838030  77.7050960 106.7505880
  21.4532880  77.9875760 107.0341800  20.0928350  78.5186830 106.6354690
  30.0505450  84.6030510 118.1006460  30.6947670  84.8089890 118.7779880
  30.4134890  83.8418910 117.6477310  23.6484620  69.4361820 111.3436680
  23.5199250  69.4279720 112.2921600  22.8246640  69.7744910 110.9927690
  33.0975150  83.4057760 120.0219970  33.4331390  83.9924450 120.6997890
  32.1775490  83.2750470 120.2517760  20.6478550  71.1952940 120.8043380
  19.9337070  71.3949860 121.4095990  21.0673590  70.4192510 121.1758180
  20.9351140  85.1833200 121.7909910  21.0442260  84.2427940 121.6505300
  20.2831700  85.4487950 121.1423640  22.5684540  79.5224430 108.8787940
  21.9612490  80.2623330 108.8883240  23.0433890  79.6123790 108.0526140
  32.1417330  73.6875250 118.5544830  32.5098150  72.8670460 118.8824400
  31.2815530  73.7477140 118.9700480  35.5079360  72.6432190 109.3632390
  34.8792520  72.7477860 108.6490620  35.0131280  72.8628970 110.1526270
  29.1019320  76.3414840 118.7782800  29.6004570  76.8160660 119.4434650
  29.2442270  75.4178360 118.9852830  31.5078820  71.6468800 112.2186060
  31.3846600  71.6654930 111.2695570  32.4563380  71.6947740 112.3384460
  36.3086180  72.5582800 119.6211190  35.8059780  73.2988200 119.9605000
  37.1242840  72.9466800 119.3047980  34.6008190  77.8015980 113.0672550
  33.6598330  77.8166210 113.2420240  34.9152260  77.0151940 113.5132850
  24.5789830  79.4835580 106.6276510  25.3453100  79.3716940 107.1901940
  24.6564520  78.7873550 105.9753280  36.6033770  84.9724830 114.7426810
  36.7281190  85.7956000 115.2150620  37.4699330  84.7615560 114.3950960
  20.9596780  83.1329610 110.2885450  20.0336560  83.3750750 110.2790860
  21.4253210  83.9603870 110.1670200  23.0809580  86.2502110 123.6029520
  23.8822310  86.5714160 124.0164920  22.5661400  85.8897690 124.3249430
  36.2383780  85.4656480 107.6606250  35.9525290  85.0521620 106.8460430
  36.0403330  86.3944190 107.5406770  20.8007390  78.7375570 122.5465570
  21.3046410  78.1582850 123.1181800  20.0614810  79.0215800 123.0841940
  27.8545330  80.1446560 122.0801090  27.0891000  80.7131560 121.9955760
  28.0361290  79.8522770 121.1869320  22.8330470  76.8805160 123.4415640
  22.8735810  76.5819030 124.3500870  23.6875970  77.2812770 123.2823160
  24.7736280  75.4597260 121.4090130  24.2432740  74.9688210 120.7813470
  25.4424350  75.8881460 120.8748060  34.1436510  77.2662880 123.1770470
  34.7257280  76.5115200 123.0890950  34.3198280  77.7970320 122.4001950
  25.2608580  72.4259630 121.4887420  25.1665450  71.8080380 120.7638290
  24.6805970  73.1525920 121.2617330  26.2836990  86.1840210 120.2584980
  25.7458080  86.9086270 119.9393680  26.5370950  85.7070550 119.4682320
  27.5362240  74.1524730 121.7840910  28.1261930  73.8440580 122.4718730
  26.7182480  73.6804480 121.9400810  32.3555670  73.7690540 122.0173930
  31.6671190  73.1072080 121.9523920  33.0761690  73.3228810 122.4622390
  29.1399200  87.4191420 120.5171630  29.0657900  88.3226560 120.8244000
  28.2378040  87.1003320 120.4893700  23.3280690  81.9576980 106.3684990
  23.7655560  82.5006650 107.0242570  23.8128420  81.1323930 106.3781330
  20.5426490  84.7466010 113.8205250  20.8729500  83.8787070 113.5883890
  20.9717490  84.9524530 114.6510210  25.1388410  83.0775020 111.4807220
  24.8383950  82.9539990 112.3811130  25.0325900  82.2183610 111.0722950
  21.0316700  85.6136600 116.5586880  20.5947690  85.7937400 117.3911030
  21.5994380  86.3711220 116.4168600  37.9080330  82.8571420 106.1833900
  37.0773290  82.9248070 106.6541130  38.0852160  83.7475540 105.8800760
  37.3636790  79.6018900 108.6868100  38.1255700  80.1715550 108.7927790
  37.3791160  79.0346100 109.4576410  38.3696760  80.4569000 113.5310030
  38.7405590  79.6736320 113.1246000  39.0098690  81.1458100 113.3527330
  35.3530520  81.8405580 118.9440350  34.5390360  82.2702740 119.2066140
  35.7604720  82.4523990 118.3309400  37.4155960  79.8953270 105.8440620
  37.6904800  80.8032150 105.7159840  37.2266700  79.8315800 106.7802610
  33.8131570  72.9198120 107.1394250  34.2316450  72.7329100 106.2990910
  33.5067630  72.0677170 107.4497180  37.3121300  77.8322260 110.8370050
  36.9364900  77.0650190 110.4051340  36.5824420  78.2144960 111.3244980
  21.9017060  78.5109400 117.4579100  22.2690100  78.4236800 118.3375120
  21.3327880  77.7475950 117.3585960  36.7020920  76.9793780 120.4709570
  36.4707010  76.7506530 119.5707520  36.9625470  77.8993330 120.4254460
  21.4533060  75.4218490 121.3637520  20.5589110  75.3885250 121.7031230
  21.9930610  75.6205280 122.1288770  35.1408990  72.2050210 123.2489270
  36.0179170  72.2133610 123.6323270  35.1529830  71.4681050 122.6381620
  36.5872260  76.0579750 114.1377290  37.1109740  75.5642400 113.5067460
  37.1731680  76.1930110 114.8824860  36.7661980  76.1419620 117.6596840
  35.8164690  76.1083160 117.7741830  36.9474990  77.0519730 117.4246610
  36.0772230  75.3153100 110.0769700  36.5731350  75.0823970 110.8618580
  35.8788300  74.4764940 109.6607340  37.5059390  73.9514050 112.6107380
  37.3958670  73.7970090 113.5489650  38.2666980  73.4234990 112.3682790
  35.8525110  69.8908180 119.0690380  36.4897330  70.5042320 119.4349570
  36.0000000  69.9268840 118.1239610  38.3949660  71.7821970 105.8513520
  39.3198970  71.6503150 105.6431810  38.3725450  71.8614790 106.8049970
  38.4688150  72.5532630 108.4770230  37.6739650  72.4877750 109.0063140
  38.6731430  73.4883270 108.4655580  21.7104770  69.8522490 118.4546060
  21.3619590  70.3086310 119.2204240  21.3792470  68.9579620 118.5368490
  23.3169140  83.0242090 122.6199250  23.2738770  82.6535000 123.5013710
  23.4480150  83.9619660 122.7601070  27.0175170  84.5801680 118.2208970
  26.7766530  84.8476240 117.3339490  27.9577810  84.7507410 118.2759830
  29.2229590  71.0434370 121.9765480  29.1618480  71.6356200 122.7260890
  30.1629970  70.9360330 121.8315740  31.8604150  70.7004430 121.6157770
  32.4744560  71.0183720 120.9538850  32.4053710  70.2153020 122.2353630
  22.3825410  69.3798690 121.7296830  22.9308400  69.1986740 120.9662940
  22.4480720  68.5892800 122.2653140  23.1557170  85.9704340 119.7397030
  22.5617490  85.8389040 120.4787070  23.1481010  85.1342480 119.2739130
  32.6012190  69.2636570 117.9427060  31.7272030  69.5971680 117.7399990
  32.4922940  68.7909750 118.7678930  33.5084170  71.4707440 119.3268780
  33.1797530  70.6559200 118.9470510  34.4566470  71.4277250 119.2034470
  35.9618780  87.2419480 116.3006350  35.5021750  87.9935290 115.9264370
  35.3331240  86.5225950 116.2421150  22.7869400  83.3362720 118.6905070
  22.0603460  82.7168010 118.6231020  22.8478550  83.7303330 117.8203150
  29.1310000  86.4416210 116.3023460  29.4187810  86.1870510 115.4256470
  29.6433220  85.8893570 116.8929030  34.9008080  70.8829510 114.9269060
  35.3416170  70.8274610 114.0790660  34.6315670  71.7987520 114.9979240
  36.7646650  70.5144750 112.9377880  36.7035050  69.5705970 112.7908900
  37.5438680  70.6224840 113.4831340  21.0699400  86.6537110 111.9001830
  20.9021440  86.0207790 112.5983720  20.2033910  86.8596510 111.5496020
  32.7366210  69.2635610 113.6319070  33.3395580  69.8355820 114.1067590
  31.9959200  69.8275050 113.4092970  29.1982360  87.3632310 123.6691660
  30.1249670  87.1276580 123.7127620  29.1832790  88.1904310 123.1877690
  26.3845970  70.0277060 123.4333540  26.1030240  70.5310660 122.6694360
  26.7665670  69.2298810 123.0675670  25.2755070  87.2952720 108.2201220
  26.0073890  87.0112000 107.6725110  25.5348740  87.0566000 109.1100600
  24.4369860  83.4117450 108.2247550  23.8078740  83.8802550 108.7733380
  24.5517690  82.5666670 108.6593740  32.9861430  69.4430640 124.0114010
  32.8726880  69.7625250 124.9065530  33.8031170  69.8443150 123.7151290
  31.8919580  77.4623110  94.3748750  31.8113630  76.5477720  94.1040460
  31.4784000  77.9590180  93.6688460  30.0237620  79.2402130  96.2558020
  29.2479720  78.7602570  96.5456590  30.6750550  78.5607780  96.0814180
  34.0445050  83.6462320  95.0357150  33.5826580  82.8749560  95.3644320
  34.8570600  83.6728390  95.5409600  22.4495400  74.5123830  90.9176170
  21.5612100  74.8539800  90.8156050  22.7336590  74.3124150  90.0257000
  30.2708360  85.9320330  94.6561140  29.6519800  86.3877830  94.0855580
  31.1260140  86.0871790  94.2550840  29.4646610  81.9159320  96.2628180
  29.3954890  80.9749260  96.1017310  30.2266470  82.0060730  96.8350750
  21.6553280  72.5213840  98.5884800  21.4756120  71.6239590  98.8687560
  21.2533360  73.0685710  99.2631750  30.4951780  74.7229700  96.4897110
  30.8716600  73.8501580  96.3770780  30.3971290  75.0588400  95.5987550
  38.5675450  74.2346890  99.9869080  37.8627620  74.6228600  99.4684190
  38.8333370  74.9297180 100.5890010  24.7500620  70.7040260 100.5503150
  24.7519060  71.2212650  99.7449050  23.9204930  70.2270440 100.5273080
  31.1371710  80.8159570  92.0493050  30.5188980  81.2809020  91.4855770
  31.6494960  81.5087050  92.4662560  24.4315950  72.4150220  98.5573600
  24.7732760  73.2592270  98.2627470  23.4931760  72.5633960  98.6738940
  20.5054910  81.5016100  89.4232680  20.1282890  81.9903200  88.6917580
  20.7627980  82.1741380  90.0539210  36.1300160  83.7755650  98.4580470
  35.4463680  84.4454760  98.4497140  36.6694450  83.9736300  97.6925330
  33.6658900  85.6199780  97.1725650  33.6786060  85.2162070  96.3047910
  33.1134120  86.3947070  97.0687080  34.9604320  82.3416000  92.2615820
  34.8500650  81.3990330  92.3865240  34.9572570  82.7031640  93.1478580
  30.5024600  77.9681320  91.6178310  29.5753880  77.9018700  91.8466780
  30.6549420  78.9061450  91.5033550  30.4893680  74.2398320  88.6145470
  29.5497350  74.4012280  88.6997930  30.8076940  74.9584000  88.0681460
  33.9748450  75.7086160  99.5379370  33.5619630  76.5339870  99.7919360
  33.2424400  75.1231200  99.3455730  34.6648550  85.7545490 100.2260350
  34.1879110  86.5617680 100.0332960  33.9810340  85.1023820 100.3786560
  32.7086590  78.7688430  89.1286310  33.1479870  77.9310860  88.9824130
  33.4215010  79.4017830  89.2150450  30.8181970  83.7084500  93.0967550
  31.2577880  84.4508830  92.6822940  30.7568860  83.9511070  94.0206510
  36.2903730  70.0231240  87.4427350  35.9776390  70.1158070  88.3426420
  37.0516200  70.6012270  87.3924780  38.2447760  85.5157430 105.2951740
  38.7207480  85.9940320 105.9740820  38.8654920  85.4474920 104.5697240
  37.6481010  82.7070280 102.4551750  37.7744070  82.4682160 101.5368930
  37.6902390  81.8754820 102.9273830  31.5097750  86.4098280 101.0246560
  32.0242420  86.3206290 101.8268990  30.6666830  86.7557980 101.3174470
  25.9640530  86.4752150  92.2302180  25.7883010  85.5587690  92.0169980
  25.1096270  86.8339440  92.4699980  33.1878280  84.2041180  89.0128560
  32.4943440  84.2018470  88.3530840  33.9301140  83.7800500  88.5822730
  32.7528210  85.8303890  93.0877050  33.2085160  85.0493270  93.4015670
  33.0920730  86.5410710  93.6318230  37.5005020  74.7602740 103.4201490
  36.8849290  75.2682410 102.8916950  37.1801440  73.8601070 103.3627430
  25.2749530  70.7326110  95.2828360  24.8317680  71.5135650  94.9512880
  25.8334520  71.0556000  95.9899300  29.5619340  73.5994630 100.8863680
  29.0998710  73.8077650 101.6983620  29.1597450  72.7853980 100.5834350
  34.5623850  74.8203580 102.0160340  33.7117440  74.5209330 102.3369410
  34.4025640  75.0645590 101.1044160  32.2961510  75.8623050  91.6100260
  31.6970400  76.5858850  91.4263880  32.8441120  75.7999830  90.8276710
  30.9026380  74.4986590  93.6403540  31.2955950  74.8158790  92.8272230
  31.2643230  73.6198470  93.7548060  22.6373500  73.1658930 101.8303660
  22.2436890  74.0134140 102.0376440  21.9491900  72.5285300 102.0212300
  20.1260780  75.0307510  87.0736460  20.0435450  75.9738270  87.2151450
  19.7743840  74.8882420  86.1948810  31.4881520  77.0892340  97.7354320
  30.7562640  77.5979150  98.0844420  31.0905860  76.2722320  97.4343100
  27.9258910  73.7646540  96.1406810  27.9294970  73.3236490  95.2911350
  28.8210030  74.0863870  96.2478630  27.9879060  74.7658620  89.1313570
  28.1091880  74.7245100  90.0799390  27.6027570  75.6282770  88.9760300
  31.9507430  72.5426020  97.1477260  31.9680170  72.9934670  97.9919110
  31.7023010  71.6431660  97.3610700  27.0000560  77.0759760  88.5296870
  26.4317460  76.6278010  87.9032780  27.7089560  77.4352540  87.9962020
  22.0769740  80.9771780 102.4063600  21.6924530  80.3365450 103.0046560
  22.3881930  81.6807900 102.9758330  28.2266880  77.8248320  97.8872220
  28.5937010  77.3506890  98.6333560  28.0371940  78.6989890  98.2280560
  26.0166250  76.8656960 100.2056430  25.7123320  77.7448940 100.4306790
  26.9712710  76.9256750 100.2413870  30.7645960  71.4621270  90.7379060
  29.9510570  70.9634440  90.6624370  30.5707910  72.3019520  90.3215410
  33.4794350  75.8340920  89.0341220  34.3673970  76.1458150  88.8592560
  33.4499440  74.9613170  88.6421800  29.4754940  82.0064610  89.7129390
  29.8170640  82.7506840  89.2172710  28.6467650  82.3195730  90.0754220
  25.2743100  78.1643940 104.2367340  24.9743240  78.3101120 103.3395160
  26.0454340  77.6049230 104.1440730  32.3582350  81.3280450  95.0774900
  32.7106170  80.7308580  94.4176270  31.4744680  81.0024680  95.2483150
  28.4445630  82.0878140  92.4845310  29.1316760  82.6347350  92.8652900
  27.6578050  82.6318870  92.5194920  20.5838030  77.7050960  87.9762390
  21.4532880  77.9875760  88.2598310  20.0928350  78.5186830  87.8611200
  27.7472840  79.0924170  92.0970670  28.2035620  79.9029420  92.3230860
  27.3961050  78.7747310  92.9289160  33.0975150  83.4057760 101.2476480
  33.4331390  83.9924450 101.9254400  32.1775490  83.2750470 101.4774270
  20.9509280  86.9178340  88.5424020  21.3106920  87.5167680  87.8881290
  20.8101620  87.4638230  89.3159050  20.6478550  71.1952940 102.0299890
  19.9337070  71.3949860 102.6352500  21.0673590  70.4192510 102.4014690
  34.7509500  80.8083420  89.4293720  34.4631200  81.2696110  90.2171600
  35.5461670  80.3481190  89.6977940  20.9351140  85.1833200 103.0166420
  21.0442260  84.2427940 102.8761810  20.2831700  85.4487950 102.3680150
  32.1417330  73.6875250  99.7801340  32.5098150  72.8670460 100.1080910
  31.2815530  73.7477140 100.1956990  35.5079360  72.6432190  90.5888900
  34.8792520  72.7477860  89.8747130  35.0131280  72.8628970  91.3782780
  27.4763390  74.9218140  92.0046780  26.7679540  75.3904480  92.4460390
  27.7607870  74.2640150  92.6391970  29.1019320  76.3414840 100.0039310
  29.6004570  76.8160660 100.6691160  29.2442270  75.4178360 100.2109340
  31.5078820  71.6468800  93.4442570  31.3846600  71.6654930  92.4952080
  32.4563380  71.6947740  93.5640970  28.5955610  86.8824100  92.7170550
  28.8497110  86.8445490  91.7949920  27.6468090  86.7557430  92.7098800
  36.3086180  72.5582800 100.8467700  35.8059780  73.2988200 101.1861510
  37.1242840  72.9466800 100.5304490  34.6008190  77.8015980  94.2929060
  33.6598330  77.8166210  94.4676750  34.9152260  77.0151940  94.7389360
  24.5789830  79.4835580  87.8533020  25.3453100  79.3716940  88.4158450
  24.6564520  78.7873550  87.2009790  23.2736590  76.9160650  88.5365910
  23.3540180  75.9688160  88.6483310  24.1656340  77.2467530  88.6426570
  36.6033770  84.9724830  95.9683320  36.7281190  85.7956000  96.4407130
  37.4699330  84.7615560  95.6207470  24.0751300  87.0656040  95.6400450
  24.8113780  86.5171500  95.9109020  24.4592220  87.9312050  95.5006440
  20.9596780  83.1329610  91.5141960  20.0336560  83.3750750  91.5047370
  21.4253210  83.9603870  91.3926710  23.0809580  86.2502110 104.8286030
  23.8822310  86.5714160 105.2421430  22.5661400  85.8897690 105.5505940
  33.3474580  86.0862270 103.3870850  34.2996330  86.0020290 103.3371090
  33.2002800  86.7503980 104.0604640  30.9433740  80.5209790  87.9310360
  30.3943840  80.9679090  88.5753100  31.5653000  80.0159040  88.4548030
  34.9968680  81.8751890 103.8632620  35.7378150  82.2127650 103.3600080
  34.2341360  82.0443950 103.3102390  26.6108860  79.4800710  89.8275660
  27.0325280  79.3140580  90.6707050  26.7359700  78.6700940  89.3330800
  29.1236500  78.5038320  87.0752760  29.6442160  77.7887340  86.7093910
  29.7704900  79.1424190  87.3753270  33.6714340  79.9266720 102.3987830
  34.0855360  80.0811800 103.2478250  32.7365340  80.0521940 102.5613610
  34.1436510  77.2662880 104.4026980  34.7257280  76.5115200 104.3147460
  34.3198280  77.7970320 103.6258460  25.5067760  75.5533940  86.7733820
  25.3056820  74.6901300  87.1347160  25.3359810  75.4667300  85.8355420
  26.2836990  86.1840210 101.4841490  25.7458080  86.9086270 101.1650190
  26.5370950  85.7070550 100.6938830  27.5362240  74.1524730 103.0097420
  28.1261930  73.8440580 103.6975240  26.7182480  73.6804480 103.1657320
  32.3555670  73.7690540 103.2430440  31.6671190  73.1072080 103.1780430
  33.0761690  73.3228810 103.6878900  32.9856070  70.3642170  89.3020700
  33.2658360  69.5210070  89.6580120  32.2121800  70.5965280  89.8159450
  24.3050560  72.6534560  86.7611700  24.6076460  72.6601990  85.8530850
  25.0445150  72.3032420  87.2579360  29.1399200  87.4191420 101.7428140
  29.0657900  88.3226560 102.0500510  28.2378040  87.1003320 101.7150210
  20.5426490  84.7466010  95.0461760  20.8729500  83.8787070  94.8140400
  20.9717490  84.9524530  95.8766720  25.1388410  83.0775020  92.7063730
  24.8383950  82.9539990  93.6067640  25.0325900  82.2183610  92.2979460
  36.6678880  85.1153600 102.0720700  36.0680870  85.1746160 101.3284620
  36.7972780  84.1758580 102.2017550  33.8131570  72.9198120  88.3650760
  34.2316450  72.7329100  87.5247420  33.5067630  72.0677170  88.6753690
  36.7020920  76.9793780 101.6966080  36.4707010  76.7506530 100.7964030
  36.9625470  77.8993330 101.6510970  35.1408990  72.2050210 104.4745780
  36.0179170  72.2133610 104.8579780  35.1529830  71.4681050 103.8638130
  20.0779210  75.3355760  90.0857600  19.1743290  75.5985960  89.9109260
  20.5619830  75.6066930  89.3057560  22.6206420  74.3921300  87.9951980
  23.3298120  73.9704520  87.5099260  21.9046360  74.4596530  87.3635330
  21.9572770  69.6966820  96.9377250  22.6048960  69.1464200  96.4972410
  22.3774610  69.9509970  97.7593060  35.8525110  69.8908180 100.2946890
  36.4897330  70.5042320 100.6606080  36.0000000  69.9268840  99.3496120
  38.3949660  71.7821970  87.0770030  39.3198970  71.6503150  86.8688320
  38.3725450  71.8614790  88.0306480  38.4688150  72.5532630  89.7026740
  37.6739650  72.4877750  90.2319650  38.6731430  73.4883270  89.6912090
  35.4106570  86.5924180  93.6965130  36.0065640  86.2708750  93.0199550
  35.6684720  86.1196000  94.4878400  21.7104770  69.8522490  99.6802570
  21.3619590  70.3086310 100.4460750  21.3792470  68.9579620  99.7625000
  23.3169140  83.0242090 103.8455760  23.2738770  82.6535000 104.7270220
  23.4480150  83.9619660 103.9857580  29.2229590  71.0434370 103.2021990
  29.1618480  71.6356200 103.9517400  30.1629970  70.9360330 103.0572250
  31.8604150  70.7004430 102.8414280  32.4744560  71.0183720 102.1795360
  32.4053710  70.2153020 103.4610140  38.2779330  86.5996060 100.2476120
  37.7837610  86.9964930  99.5303250  37.6692620  85.9745270 100.6413400
  22.3825410  69.3798690 102.9553340  22.9308400  69.1986740 102.1919450
  22.4480720  68.5892800 103.4909650  23.1557170  85.9704340 100.9653540
  22.5617490  85.8389040 101.7043580  23.1481010  85.1342480 100.4995640
  32.6012190  69.2636570  99.1683570  31.7272030  69.5971680  98.9656500
  32.4922940  68.7909750  99.9935440  33.5084170  71.4707440 100.5525290
  33.1797530  70.6559200 100.1727020  34.4566470  71.4277250 100.4290980
  35.9618780  87.2419480  97.5262860  35.5021750  87.9935290  97.1520880
  35.3331240  86.5225950  97.4677660  22.7869400  83.3362720  99.9161580
  22.0603460  82.7168010  99.8487530  22.8478550  83.7303330  99.0459660
  29.1310000  86.4416210  97.5279970  29.4187810  86.1870510  96.6512980
  29.6433220  85.8893570  98.1185540  21.0699400  86.6537110  93.1258340
  20.9021440  86.0207790  93.8240230  20.2033910  86.8596510  92.7752530
  28.2341230  72.5993160  93.6192510  27.4215740  72.2250050  93.2788390
  28.7382870  71.8438240  93.9213700  35.8800810  69.6657170  90.1315860
  36.0751440  70.5640620  90.3983290  35.0930680  69.4344250  90.6248810
  22.6762100  85.3470340  90.5708480  22.1509720  85.7278370  89.8670440
  22.6006680  85.9721110  91.2918190  29.1982360  87.3632310 104.8948170
  30.1249670  87.1276580 104.9384130  29.1832790  88.1904310 104.4134200
  25.2755070  87.2952720  89.4457730  26.0073890  87.0112000  88.8981620
  25.5348740  87.0566000  90.3357110  24.4369860  83.4117450  89.4504060
  23.8078740  83.8802550  89.9989890  24.5517690  82.5666670  89.8850250
  35.7659920  86.5902170 104.7189210  36.5585240  86.0951400 104.5115170
  36.0593070  87.2692310 105.3264820  24.0403450  79.5521940  78.3590290
  23.2088330  79.2970650  78.7586800  24.6484430  79.6232710  79.0948210
  34.0445050  83.6462320  76.2613660  33.5826580  82.8749560  76.5900830
  34.8570600  83.6728390  76.7666110  24.0204710  83.5862030  78.5548310
  24.3232750  82.6959770  78.3758530  24.7648300  84.1432250  78.3270560
  20.4128410  77.1129480  78.0272380  20.9844520  76.3451680  78.0276020
  20.4129950  77.4118240  77.1178990  30.2708360  85.9320330  75.8817650
  29.6519800  86.3877830  75.3112090  31.1260140  86.0871790  75.4807350
  29.4646610  81.9159320  77.4884690  29.3954890  80.9749260  77.3273820
  30.2266470  82.0060730  78.0607260  30.4951780  74.7229700  77.7153620
  30.8716600  73.8501580  77.6027290  30.3971290  75.0588400  76.8244060
  22.2739950  75.0174340  78.4223650  22.9550060  75.2812710  79.0411050
  21.9588000  74.1775210  78.7561660  38.5675450  74.2346890  81.2125590
  37.8627620  74.6228600  80.6940700  38.8333370  74.9297180  81.8146520
  24.7500620  70.7040260  81.7759660  24.7519060  71.2212650  80.9705560
  23.9204930  70.2270440  81.7529590  31.1371710  80.8159570  73.2749560
  30.5188980  81.2809020  72.7112280  31.6494960  81.5087050  73.6919070
  26.0003470  80.3435440  79.9533160  25.6672850  80.9704360  80.5954230
  26.1770150  80.8697320  79.1734830  34.5137380  74.1580520  77.4209500
  33.8092950  74.4465410  78.0012610  34.8749540  74.9680630  77.0609060
  24.4315950  72.4150220  79.7830110  24.7732760  73.2592270  79.4883980
  23.4931760  72.5633960  79.8995450  25.2122570  82.3116240  81.7682340
  25.8296570  82.9867320  81.4866790  24.3515690  82.7204220  81.6769840
  20.5054910  81.5016100  70.6489190  20.1282890  81.9903200  69.9174090
  20.7627980  82.1741380  71.2795720  36.1300160  83.7755650  79.6836980
  35.4463680  84.4454760  79.6753650  36.6694450  83.9736300  78.9181840
  37.5824300  73.6035310  77.8118710  36.6349210  73.6374290  77.9434140
  37.9074290  74.4174260  78.1968070  33.6658900  85.6199780  78.3982160
  33.6786060  85.2162070  77.5304420  33.1134120  86.3947070  78.2943590
  34.9604320  82.3416000  73.4872330  34.8500650  81.3990330  73.6121750
  34.9572570  82.7031640  74.3735090  37.0106440  78.9216840  79.8181010
  36.1825070  78.9909930  79.3431140  37.6056920  79.5071150  79.3496840
  34.5321890  79.5301620  73.3470070  33.9134310  79.1921170  72.6996370
  34.5146340  78.8861380  74.0549260  26.5762940  82.1813620  77.7893760
  26.2791230  81.5759090  77.1101540  27.5262760  82.2190930  77.6783120
  24.8209860  75.2689270  79.4053590  25.3724450  75.3784610  78.6306840
  25.3353370  75.6426870  80.1208820  24.4952590  78.7908630  83.0158930
  24.3560360  79.6631430  83.3846330  23.6133950  78.4481440  82.8706870
  36.2903730  70.0231240  68.6683860  35.9776390  70.1158070  69.5682930
  37.0516200  70.6012270  68.6181290  22.8085870  77.3891040  73.1261200
  22.6883470  78.1153130  72.5142470  22.4986760  76.6193950  72.6489110
  20.4471240  80.5606180  78.9329840  20.5251660  80.6954950  77.9885560
  21.0612920  79.8522070  79.1257960  21.6918870  82.2606370  75.3436020
  21.2846950  82.4020960  74.4889620  22.5831880  81.9766530  75.1407230
  37.5005020  74.7602740  84.6458000  36.8849290  75.2682410  84.1173460
  37.1801440  73.8601070  84.5883940  20.5030760  81.6020350  81.4724300
  20.6661800  81.1325710  80.6543670  20.9683210  81.0943910  82.1373140
  29.5619340  73.5994630  82.1120190  29.0998710  73.8077650  82.9240130
  29.1597450  72.7853980  81.8090860  27.5062960  76.7545260  84.9026390
  27.4106560  75.8139990  84.7526790  28.3494940  76.9760330  84.5074460
  29.2118550  73.2493900  86.1256910  28.5216870  73.0566100  86.7603000
  29.9550850  73.5328540  86.6581210  31.9507430  72.5426020  78.3733770
  31.9680170  72.9934670  79.2175620  31.7023010  71.6431660  78.5867210
  35.3778180  69.9558200  84.2120150  35.7023950  69.2247860  84.7378130
  35.4134690  69.6371840  83.3101140  26.0166250  76.8656960  81.4312940
  25.7123320  77.7448940  81.6563300  26.9712710  76.9256750  81.4670380
  24.5448040  81.0717950  72.0279790  23.7710300  80.5315570  71.8678510
  25.2742670  80.5524560  71.6897550  35.3036020  80.0683310  77.8206180
  36.0235140  80.5638600  77.4302290  35.1017840  79.3901200  77.1760050
  25.2743100  78.1643940  85.4623850  24.9743240  78.3101120  84.5651670
  26.0454340  77.6049230  85.3697240  35.7508620  77.1452760  69.7277590
  35.6672340  77.5766980  68.8774030  36.4702810  77.6051110  70.1604410
  36.8282760  79.6020280  82.8047560  36.1030950  80.1949060  82.6076950
  37.3558220  79.5943820  82.0060930  36.7795870  83.9995020  72.4559720
  36.1372030  83.3450640  72.7303440  36.3926530  84.4050110  71.6800390
  32.3582350  81.3280450  76.3031410  32.7106170  80.7308580  75.6432780
  31.4744680  81.0024680  76.4739660  28.4445630  82.0878140  73.7101820
  29.1316760  82.6347350  74.0909410  27.6578050  82.6318870  73.7451430
  27.7472840  79.0924170  73.3227180  28.2035620  79.9029420  73.5487370
  27.3961050  78.7747310  74.1545670  30.0505450  84.6030510  80.5519480
  30.6947670  84.8089890  81.2292900  30.4134890  83.8418910  80.0990330
  23.6484620  69.4361820  73.7949700  23.5199250  69.4279720  74.7434620
  22.8246640  69.7744910  73.4440710  35.1693250  82.8911480  68.9936070
  34.9430830  82.1741920  69.5860710  34.7789450  82.6423920  68.1557820
  34.7509500  80.8083420  70.6550230  34.4631200  81.2696110  71.4428110
  35.5461670  80.3481190  70.9234450  20.9351140  85.1833200  84.2422930
  21.0442260  84.2427940  84.1018320  20.2831700  85.4487950  83.5936660
  22.5684540  79.5224430  71.3300960  21.9612490  80.2623330  71.3396260
  23.0433890  79.6123790  70.5039160  32.1417330  73.6875250  81.0057850
  32.5098150  72.8670460  81.3337420  31.2815530  73.7477140  81.4213500
  36.3086180  72.5582800  82.0724210  35.8059780  73.2988200  82.4118020
  37.1242840  72.9466800  81.7561000  34.6008190  77.8015980  75.5185570
  33.6598330  77.8166210  75.6933260  34.9152260  77.0151940  75.9645870
  24.5789830  79.4835580  69.0789530  25.3453100  79.3716940  69.6414960
  24.6564520  78.7873550  68.4266300  23.2736590  76.9160650  69.7622420
  23.3540180  75.9688160  69.8739820  24.1656340  77.2467530  69.8683080
  36.6033770  84.9724830  77.1939830  36.7281190  85.7956000  77.6663640
  37.4699330  84.7615560  76.8463980  20.9596780  83.1329610  72.7398470
  20.0336560  83.3750750  72.7303880  21.4253210  83.9603870  72.6183220
  22.8330470  76.8805160  85.8928660  22.8735810  76.5819030  86.8013890
  23.6875970  77.2812770  85.7336180  26.6108860  79.4800710  71.0532170
  27.0325280  79.3140580  71.8963560  26.7359700  78.6700940  70.5587310
  24.7736280  75.4597260  83.8603150  24.2432740  74.9688210  83.2326490
  25.4424350  75.8881460  83.3261080  25.2608580  72.4259630  83.9400440
  25.1665450  71.8080380  83.2151310  24.6805970  73.1525920  83.7130350
  28.0270020  70.9832870  80.9727830  27.5787320  71.0057130  80.1273380
  27.3935220  70.5851890  81.5698130  25.5067760  75.5533940  67.9990330
  25.3056820  74.6901300  68.3603670  25.3359810  75.4667300  67.0611930
  26.2836990  86.1840210  82.7098000  25.7458080  86.9086270  82.3906700
  26.5370950  85.7070550  81.9195340  27.5362240  74.1524730  84.2353930
  28.1261930  73.8440580  84.9231750  26.7182480  73.6804480  84.3913830
  32.3555670  73.7690540  84.4686950  31.6671190  73.1072080  84.4036940
  33.0761690  73.3228810  84.9135410  24.3050560  72.6534560  67.9868210
  24.6076460  72.6601990  67.0787360  25.0445150  72.3032420  68.4835870
  29.1399200  87.4191420  82.9684650  29.0657900  88.3226560  83.2757020
  28.2378040  87.1003320  82.9406720  23.3280690  81.9576980  68.8198010
  23.7655560  82.5006650  69.4755590  23.8128420  81.1323930  68.8294350
  21.0316700  85.6136600  79.0099900  20.5947690  85.7937400  79.8424050
  21.5994380  86.3711220  78.8681620  36.6678880  85.1153600  83.2977210
  36.0680870  85.1746160  82.5541130  36.7972780  84.1758580  83.4274060
  37.9080330  82.8571420  68.6346920  37.0773290  82.9248070  69.1054150
  38.0852160  83.7475540  68.3313780  37.3636790  79.6018900  71.1381120
  38.1255700  80.1715550  71.2440810  37.3791160  79.0346100  71.9089430
  20.8641130  78.1256830  75.3688780  20.2089970  77.8568470  74.7248480
  21.7019080  78.0161310  74.9190760  38.3696760  80.4569000  75.9823050
  38.7405590  79.6736320  75.5759020  39.0098690  81.1458100  75.8040350
  35.3530520  81.8405580  81.3953370  34.5390360  82.2702740  81.6579160
  35.7604720  82.4523990  80.7822420  37.4155960  79.8953270  68.2953640
  37.6904800  80.8032150  68.1672860  37.2266700  79.8315800  69.2315630
  37.3121300  77.8322260  73.2883070  36.9364900  77.0650190  72.8564360
  36.5824420  78.2144960  73.7758000  21.9017060  78.5109400  79.9092120
  22.2690100  78.4236800  80.7888140  21.3327880  77.7475950  79.8098980
  36.7020920  76.9793780  82.9222590  36.4707010  76.7506530  82.0220540
  36.9625470  77.8993330  82.8767480  35.1408990  72.2050210  85.7002290
  36.0179170  72.2133610  86.0836290  35.1529830  71.4681050  85.0894640
  20.0779210  75.3355760  71.3114110  19.1743290  75.5985960  71.1365770
  20.5619830  75.6066930  70.5314070  36.5872260  76.0579750  76.5890310
  37.1109740  75.5642400  75.9580480  37.1731680  76.1930110  77.3337880
  36.7661980  76.1419620  80.1109860  35.8164690  76.1083160  80.2254850
  36.9474990  77.0519730  79.8759630  22.6206420  74.3921300  69.2208490
  23.3298120  73.9704520  68.7355770  21.9046360  74.4596530  68.5891840
  22.2680580  70.4460630  68.2611140  22.9908710  70.9869570  68.5792360
  22.5405100  70.1724050  67.3852680  36.0772230  75.3153100  72.5282720
  36.5731350  75.0823970  73.3131600  35.8788300  74.4764940  72.1120360
  21.9572770  69.6966820  78.1633760  22.6048960  69.1464200  77.7228920
  22.3774610  69.9509970  78.9849570  37.5059390  73.9514050  75.0620400
  37.3958670  73.7970090  76.0002670  38.2666980  73.4234990  74.8195810
  35.8525110  69.8908180  81.5203400  36.4897330  70.5042320  81.8862590
  36.0000000  69.9268840  80.5752630  38.3949660  71.7821970  68.3026540
  39.3198970  71.6503150  68.0944830  38.3725450  71.8614790  69.2562990
  38.4688150  72.5532630  70.9283250  37.6739650  72.4877750  71.4576160
  38.6731430  73.4883270  70.9168600  35.4106570  86.5924180  74.9221640
  36.0065640  86.2708750  74.2456060  35.6684720  86.1196000  75.7134910
  21.7104770  69.8522490  80.9059080  21.3619590  70.3086310  81.6717260
  21.3792470  68.9579620  80.9881510  27.0175170  84.5801680  80.6721990
  26.7766530  84.8476240  79.7852510  27.9577810  84.7507410  80.7272850
  29.2229590  71.0434370  84.4278500  29.1618480  71.6356200  85.1773910
  30.1629970  70.9360330  84.2828760  31.8604150  70.7004430  84.0670790
  32.4744560  71.0183720  83.4051870  32.4053710  70.2153020  84.6866650
  38.2779330  86.5996060  81.4732630  37.7837610  86.9964930  80.7559760
  37.6692620  85.9745270  81.8669910  22.3825410  69.3798690  84.1809850
  22.9308400  69.1986740  83.4175960  22.4480720  68.5892800  84.7166160
  23.1557170  85.9704340  82.1910050  22.5617490  85.8389040  82.9300090
  23.1481010  85.1342480  81.7252150  32.6012190  69.2636570  80.3940080
  31.7272030  69.5971680  80.1913010  32.4922940  68.7909750  81.2191950
  33.5084170  71.4707440  81.7781800  33.1797530  70.6559200  81.3983530
  34.4566470  71.4277250  81.6547490  35.9618780  87.2419480  78.7519370
  35.5021750  87.9935290  78.3777390  35.3331240  86.5225950  78.6934170
  22.7869400  83.3362720  81.1418090  22.0603460  82.7168010  81.0744040
  22.8478550  83.7303330  80.2716170  26.3914500  85.5507720  77.9267500
  26.9079520  84.9395080  77.4015760  27.0411880  86.0536500  78.4178510
  29.1310000  86.4416210  78.7536480  29.4187810  86.1870510  77.8769490
  29.6433220  85.8893570  79.3442050  30.3487010  70.1806410  79.3332990
  29.5658800  70.6551910  79.6129750  30.0549940  69.2761240  79.2246170
  34.9008080  70.8829510  77.3782080  35.3416170  70.8274610  76.5303680
  34.6315670  71.7987520  77.4492260  36.7646650  70.5144750  75.3890900
  36.7035050  69.5705970  75.2421920  37.5438680  70.6224840  75.9344360
  21.6927420  70.4853890  71.8546710  22.4506780  70.5982770  71.2810740
  21.2304590  71.3223090  71.8090140  32.7366210  69.2635610  76.0832090
  33.3395580  69.8355820  76.5580610  31.9959200  69.8275050  75.8605990
  35.8800810  69.6657170  71.3572370  36.0751440  70.5640620  71.6239800
  35.0930680  69.4344250  71.8505320  24.0652570  71.0117940  70.3948680
  24.5945330  70.2247740  70.2656630  24.6980890  71.6909130  70.6284210
  37.4327420  86.9057880  73.1178930  37.6079610  86.2195620  72.4739850
  36.7348990  87.4304930  72.7255600  26.3845970  70.0277060  85.8846560
  26.1030240  70.5310660  85.1207380  26.7665670  69.2298810  85.5188690
  32.9861430  69.4430640  86.4627030  32.8726880  69.7625250  87.3578550
  33.8031170  69.8443150  86.1664310  30.0237620  79.2402130  58.7071040
  29.2479720  78.7602570  58.9969610  30.6750550  78.5607780  58.5327200
  34.0445050  83.6462320  57.4870170  33.5826580  82.8749560  57.8157340
  34.8570600  83.6728390  57.9922620  24.0204710  83.5862030  59.7804820
  24.3232750  82.6959770  59.6015040  24.7648300  84.1432250  59.5527070
  29.4646610  81.9159320  58.7141200  29.3954890  80.9749260  58.5530330
  30.2266470  82.0060730  59.2863770  21.6553280  72.5213840  61.0397820
  21.4756120  71.6239590  61.3200580  21.2533360  73.0685710  61.7144770
  24.6256790  73.0955330  54.4027570  24.7323540  73.9959060  54.7096330
  23.7149150  73.0473300  54.1122220  22.2739950  75.0174340  59.6480160
  22.9550060  75.2812710  60.2667560  21.9588000  74.1775210  59.9818170
  26.4664520  76.0641700  58.7352750  26.9742740  76.5622670  59.3757770
  26.9977760  75.2876900  58.5592110  24.7500620  70.7040260  63.0016170
  24.7519060  71.2212650  62.1962070  23.9204930  70.2270440  62.9786100
  31.1371710  80.8159570  54.5006070  30.5188980  81.2809020  53.9368790
  31.6494960  81.5087050  54.9175580  26.0003470  80.3435440  61.1789670
  25.6672850  80.9704360  61.8210740  26.1770150  80.8697320  60.3991340
  24.4315950  72.4150220  61.0086620  24.7732760  73.2592270  60.7140490
  23.4931760  72.5633960  61.1251960  20.5054910  81.5016100  51.8745700
  20.1282890  81.9903200  51.1430600  20.7627980  82.1741380  52.5052230
  28.1143840  69.9032490  57.3331210  28.4218820  69.3479380  56.6166710
  27.1844540  70.0376950  57.1504200  34.9604320  82.3416000  54.7128840
  34.8500650  81.3990330  54.8378260  34.9572570  82.7031640  55.5991600
  33.0644340  80.5229620  60.9521280  33.4813130  80.3089730  60.1174740
  33.7884160  80.7802410  61.5229900  30.5024600  77.9681320  54.0691330
  29.5753880  77.9018700  54.2979800  30.6549420  78.9061450  53.9546570
  34.5321890  79.5301620  54.5726580  33.9134310  79.1921170  53.9252880
  34.5146340  78.8861380  55.2805770  33.9748450  75.7086160  61.9892390
  33.5619630  76.5339870  62.2432380  33.2424400  75.1231200  61.7968750
  26.1081240  78.4946060  56.8511060  25.7038240  77.7823310  56.3556960
  26.1944360  78.1499300  57.7399100  26.5762940  82.1813620  59.0150270
  26.2791230  81.5759090  58.3358050  27.5262760  82.2190930  58.9039630
  24.8209860  75.2689270  60.6310100  25.3724450  75.3784610  59.8563350
  25.3353370  75.6426870  61.3465330  24.4952590  78.7908630  64.2415440
  24.3560360  79.6631430  64.6102840  23.6133950  78.4481440  64.0963380
  30.8181970  83.7084500  55.5480570  31.2577880  84.4508830  55.1335960
  30.7568860  83.9511070  56.4719530  38.2447760  85.5157430  67.7464760
  38.7207480  85.9940320  68.4253840  38.8654920  85.4474920  67.0210260
  37.6481010  82.7070280  64.9064770  37.7744070  82.4682160  63.9881950
  37.6902390  81.8754820  65.3786850  31.5097750  86.4098280  63.4759580
  32.0242420  86.3206290  64.2782010  30.6666830  86.7557980  63.7687490
  33.4852150  86.6953620  52.9043580  33.3253290  86.4056560  53.8025410
  33.3198860  85.9193750  52.3688810  25.9640530  86.4752150  54.6815200
  25.7883010  85.5587690  54.4683000  25.1096270  86.8339440  54.9213000
  32.7528210  85.8303890  55.5390070  33.2085160  85.0493270  55.8528690
  33.0920730  86.5410710  56.0831250  25.2749530  70.7326110  57.7341380
  24.8317680  71.5135650  57.4025900  25.8334520  71.0556000  58.4412320
  29.5619340  73.5994630  63.3376700  29.0998710  73.8077650  64.1496640
  29.1597450  72.7853980  63.0347370  27.3125430  71.2773440  59.5930980
  27.6097760  72.1836270  59.5123000  27.8610990  70.7892220  58.9790550
  25.0663750  75.8559680  55.4622630  24.8404670  75.6396850  56.3669250
  24.2856280  76.2888140  55.1168600  27.5062960  76.7545260  66.1282900
  27.4106560  75.8139990  65.9783300  28.3494940  76.9760330  65.7330970
  22.6373500  73.1658930  64.2816680  22.2436890  74.0134140  64.4889460
  21.9491900  72.5285300  64.4725320  31.4881520  77.0892340  60.1867340
  30.7562640  77.5979150  60.5357440  31.0905860  76.2722320  59.8856120
  27.9258910  73.7646540  58.5919830  27.9294970  73.3236490  57.7424370
  28.8210030  74.0863870  58.6991650  23.7761290  73.6473030  57.5514040
  23.4361340  74.1248260  58.3081090  23.0138610  73.1938150  57.1915140
  35.3778180  69.9558200  65.4376660  35.7023950  69.2247860  65.9634640
  35.4134690  69.6371840  64.5357650  22.0769740  80.9771780  64.8576620
  21.6924530  80.3365450  65.4559580  22.3881930  81.6807900  65.4271350
  28.2266880  77.8248320  60.3385240  28.5937010  77.3506890  61.0846580
  28.0371940  78.6989890  60.6793580  21.0907370  72.5692010  56.4678710
  20.8054290  72.2047680  57.3057330  21.0286230  71.8372470  55.8541850
  26.0166250  76.8656960  62.6569450  25.7123320  77.7448940  62.8819810
  26.9712710  76.9256750  62.6926890  35.3036020  80.0683310  59.0462690
  36.0235140  80.5638600  58.6558800  35.1017840  79.3901200  58.4016560
  22.0729980  77.7059700  63.8040810  21.7144920  78.3713550  64.3914150
  21.7784540  76.8743250  64.1753430  25.2743100  78.1643940  66.6880360
  24.9743240  78.3101120  65.7908180  26.0454340  77.6049230  66.5953750
  36.7795870  83.9995020  53.6816230  36.1372030  83.3450640  53.9559950
  36.3926530  84.4050110  52.9056900  32.3582350  81.3280450  57.5287920
  32.7106170  80.7308580  56.8689290  31.4744680  81.0024680  57.6996170
  28.4445630  82.0878140  54.9358330  29.1316760  82.6347350  55.3165920
  27.6578050  82.6318870  54.9707940  27.7472840  79.0924170  54.5483690
  28.2035620  79.9029420  54.7743880  27.3961050  78.7747310  55.3802180
  31.3237530  82.6062860  60.4953440  31.9659760  81.9056020  60.6085610
  31.8486880  83.3861300  60.3150330  35.1693250  82.8911480  50.2192580
  34.9430830  82.1741920  50.8117220  34.7789450  82.6423920  49.3814330
  33.0975150  83.4057760  63.6989500  33.4331390  83.9924450  64.3767420
  32.1775490  83.2750470  63.9287290  20.9509280  86.9178340  50.9937040
  21.3106920  87.5167680  50.3394310  20.8101620  87.4638230  51.7672070
  20.6478550  71.1952940  64.4812910  19.9337070  71.3949860  65.0865520
  21.0673590  70.4192510  64.8527710  34.7509500  80.8083420  51.8806740
  34.4631200  81.2696110  52.6684620  35.5461670  80.3481190  52.1490960
  26.9677900  84.3009540  51.8110710  26.9588000  85.0339230  51.1955220
  26.0476260  84.0541120  51.9037670  32.1417330  73.6875250  62.2314360
  32.5098150  72.8670460  62.5593930  31.2815530  73.7477140  62.6470010
  27.4763390  74.9218140  54.4559800  26.7679540  75.3904480  54.8973410
  27.7607870  74.2640150  55.0904990  29.1019320  76.3414840  62.4552330
  29.6004570  76.8160660  63.1204180  29.2442270  75.4178360  62.6622360
  28.5955610  86.8824100  55.1683570  28.8497110  86.8445490  54.2462940
  27.6468090  86.7557430  55.1611820  34.6008190  77.8015980  56.7442080
  33.6598330  77.8166210  56.9189770  34.9152260  77.0151940  57.1902380
  24.0751300  87.0656040  58.0913470  24.8113780  86.5171500  58.3622040
  24.4592220  87.9312050  57.9519460  20.9596780  83.1329610  53.9654980
  20.0336560  83.3750750  53.9560390  21.4253210  83.9603870  53.8439730
  27.1853610  86.2386350  49.9139040  27.9782220  86.5275180  49.4620830
  26.6657960  85.8078520  49.2351520  36.2383780  85.4656480  51.3375780
  35.9525290  85.0521620  50.5229960  36.0403330  86.3944190  51.2176300
  34.9968680  81.8751890  66.3145640  35.7378150  82.2127650  65.8113100
  34.2341360  82.0443950  65.7615410  22.8330470  76.8805160  67.1185170
  22.8735810  76.5819030  68.0270400  23.6875970  77.2812770  66.9592690
  24.7736280  75.4597260  65.0859660  24.2432740  74.9688210  64.4583000
  25.4424350  75.8881460  64.5517590  25.2608580  72.4259630  65.1656950
  25.1665450  71.8080380  64.4407820  24.6805970  73.1525920  64.9386860
  28.0270020  70.9832870  62.1984340  27.5787320  71.0057130  61.3529890
  27.3935220  70.5851890  62.7954640  27.5362240  74.1524730  65.4610440
  28.1261930  73.8440580  66.1488260  26.7182480  73.6804480  65.6170340
  29.1399200  87.4191420  64.1941160  29.0657900  88.3226560  64.5013530
  28.2378040  87.1003320  64.1663230  29.6884530  86.5849930  51.8167520
  30.5835320  86.9234900  51.8386280  29.7202160  85.8629340  51.1891800
  23.3280690  81.9576980  50.0454520  23.7655560  82.5006650  50.7012100
  23.8128420  81.1323930  50.0550860  20.5426490  84.7466010  57.4974780
  20.8729500  83.8787070  57.2653420  20.9717490  84.9524530  58.3279740
  21.0316700  85.6136600  60.2356410  20.5947690  85.7937400  61.0680560
  21.5994380  86.3711220  60.0938130  37.9080330  82.8571420  49.8603430
  37.0773290  82.9248070  50.3310660  38.0852160  83.7475540  49.5570290
  20.8641130  78.1256830  56.5945290  20.2089970  77.8568470  55.9504990
  21.7019080  78.0161310  56.1447270  38.3696760  80.4569000  57.2079560
  38.7405590  79.6736320  56.8015530  39.0098690  81.1458100  57.0296860
  35.3530520  81.8405580  62.6209880  34.5390360  82.2702740  62.8835670
  35.7604720  82.4523990  62.0078930  35.1408990  72.2050210  66.9258800
  36.0179170  72.2133610  67.3092800  35.1529830  71.4681050  66.3151150
  36.5872260  76.0579750  57.8146820  37.1109740  75.5642400  57.1836990
  37.1731680  76.1930110  58.5594390  38.3949660  71.7821970  49.5283050
  39.3198970  71.6503150  49.3201340  38.3725450  71.8614790  50.4819500
  29.2229590  71.0434370  65.6535010  29.1618480  71.6356200  66.4030420
  30.1629970  70.9360330  65.5085270  31.8604150  70.7004430  65.2927300
  32.4744560  71.0183720  64.6308380  32.4053710  70.2153020  65.9123160
  22.3825410  69.3798690  65.4066360  22.9308400  69.1986740  64.6432470
  22.4480720  68.5892800  65.9422670  30.3487010  70.1806410  60.5589500
  29.5658800  70.6551910  60.8386260  30.0549940  69.2761240  60.4502680
  21.0699400  86.6537110  55.5771360  20.9021440  86.0207790  56.2753250
  20.2033910  86.8596510  55.2265550  22.6762100  85.3470340  53.0221500
  22.1509720  85.7278370  52.3183460  22.6006680  85.9721110  53.7431210
  26.2590410  70.7493080  54.6750580  25.6293150  70.0480390  54.8420710
  25.7195550  71.5097210  54.4583740  37.4327420  86.9057880  54.3435440
  37.6079610  86.2195620  53.6996360  36.7348990  87.4304930  53.9512110
  26.3845970  70.0277060  67.1103070  26.1030240  70.5310660  66.3463890
  26.7665670  69.2298810  66.7445200  25.2755070  87.2952720  51.8970750
  26.0073890  87.0112000  51.3494640  25.5348740  87.0566000  52.7870130
  24.4369860  83.4117450  51.9017080  23.8078740  83.8802550  52.4502910
  24.5517690  82.5666670  52.3363270  30.0237620  79.2402130  39.9327550
  29.2479720  78.7602570  40.2226120  30.6750550  78.5607780  39.7583710
  24.0403450  79.5521940  40.8103310  23.2088330  79.2970650  41.2099820
  24.6484430  79.6232710  41.5461230  22.4495400  74.5123830  34.5945700
  21.5612100  74.8539800  34.4925580  22.7336590  74.3124150  33.7026530
  20.4128410  77.1129480  40.4785400  20.9844520  76.3451680  40.4789040
  20.4129950  77.4118240  39.5692010  29.4646610  81.9159320  39.9397710
  29.3954890  80.9749260  39.7786840  30.2266470  82.0060730  40.5120280
  30.4951780  74.7229700  40.1666640  30.8716600  73.8501580  40.0540310
  30.3971290  75.0588400  39.2757080  24.6256790  73.0955330  35.6284080
  24.7323540  73.9959060  35.9352840  23.7149150  73.0473300  35.3378730
  22.2739950  75.0174340  40.8736670  22.9550060  75.2812710  41.4924070
  21.9588000  74.1775210  41.2074680  26.4664520  76.0641700  39.9609260
  26.9742740  76.5622670  40.6014280  26.9977760  75.2876900  39.7848620
  26.0003470  80.3435440  42.4046180  25.6672850  80.9704360  43.0467250
  26.1770150  80.8697320  41.6247850  34.5137380  74.1580520  39.8722520
  33.8092950  74.4465410  40.4525630  34.8749540  74.9680630  39.5122080
  20.5054910  81.5016100  33.1002210  20.1282890  81.9903200  32.3687110
  20.7627980  82.1741380  33.7308740  33.0644340  80.5229620  42.1777790
  33.4813130  80.3089730  41.3431250  33.7884160  80.7802410  42.7486410
  37.0106440  78.9216840  42.2694030  36.1825070  78.9909930  41.7944160
  37.6056920  79.5071150  41.8009860  33.9748450  75.7086160  43.2148900
  33.5619630  76.5339870  43.4688890  33.2424400  75.1231200  43.0225260
  26.1081240  78.4946060  38.0767570  25.7038240  77.7823310  37.5813470
  26.1944360  78.1499300  38.9655610  26.5762940  82.1813620  40.2406780
  26.2791230  81.5759090  39.5614560  27.5262760  82.2190930  40.1296140
  24.8209860  75.2689270  41.8566610  25.3724450  75.3784610  41.0819860
  25.3353370  75.6426870  42.5721840  34.6648550  85.7545490  43.9029880
  34.1879110  86.5617680  43.7102490  33.9810340  85.1023820  44.0556090
  36.2903730  70.0231240  31.1196880  35.9776390  70.1158070  32.0195950
  37.0516200  70.6012270  31.0694310  22.8085870  77.3891040  35.5774220
  22.6883470  78.1153130  34.9655490  22.4986760  76.6193950  35.1002130
  38.2447760  85.5157430  48.9721270  38.7207480  85.9940320  49.6510350
  38.8654920  85.4474920  48.2466770  20.4471240  80.5606180  41.3842860
  20.5251660  80.6954950  40.4398580  21.0612920  79.8522070  41.5770980
  21.6918870  82.2606370  37.7949040  21.2846950  82.4020960  36.9402640
  22.5831880  81.9766530  37.5920250  37.6481010  82.7070280  46.1321280
  37.7744070  82.4682160  45.2138460  37.6902390  81.8754820  46.6043360
  31.5097750  86.4098280  44.7016090  32.0242420  86.3206290  45.5038520
  30.6666830  86.7557980  44.9944000  25.9640530  86.4752150  35.9071710
  25.7883010  85.5587690  35.6939510  25.1096270  86.8339440  36.1469510
  33.1878280  84.2041180  32.6898090  32.4943440  84.2018470  32.0300370
  33.9301140  83.7800500  32.2592260  20.5030760  81.6020350  43.9237320
  20.6661800  81.1325710  43.1056690  20.9683210  81.0943910  44.5886160
  29.5619340  73.5994630  44.5633210  29.0998710  73.8077650  45.3753150
  29.1597450  72.7853980  44.2603880  34.5623850  74.8203580  45.6929870
  33.7117440  74.5209330  46.0138940  34.4025640  75.0645590  44.7813690
  28.3908350  70.3536810  33.8403720  27.7662530  70.3496680  34.5657030
  28.3038470  69.4867770  33.4439690  25.0663750  75.8559680  36.6879140
  24.8404670  75.6396850  37.5925760  24.2856280  76.2888140  36.3425110
  30.9026380  74.4986590  37.3173070  31.2955950  74.8158790  36.5041760
  31.2643230  73.6198470  37.4317590  19.9390550  71.0887390  39.5403270
  19.6503600  71.6590250  40.2528250  20.6836310  70.6091840  39.9034500
  20.1260780  75.0307510  30.7505990  20.0435450  75.9738270  30.8920980
  19.7743840  74.8882420  29.8718340  31.4881520  77.0892340  41.4123850
  30.7562640  77.5979150  41.7613950  31.0905860  76.2722320  41.1112630
  27.9258910  73.7646540  39.8176340  27.9294970  73.3236490  38.9680880
  28.8210030  74.0863870  39.9248160  23.7761290  73.6473030  38.7770550
  23.4361340  74.1248260  39.5337600  23.0138610  73.1938150  38.4171650
  35.3778180  69.9558200  46.6633170  35.7023950  69.2247860  47.1891150
  35.4134690  69.6371840  45.7614160  21.0907370  72.5692010  37.6935220
  20.8054290  72.2047680  38.5313840  21.0286230  71.8372470  37.0798360
  24.5448040  81.0717950  34.4792810  23.7710300  80.5315570  34.3191530
  25.2742670  80.5524560  34.1410570  35.3036020  80.0683310  40.2719200
  36.0235140  80.5638600  39.8815310  35.1017840  79.3901200  39.6273070
  30.7645960  71.4621270  34.4148590  29.9510570  70.9634440  34.3393900
  30.5707910  72.3019520  33.9984940  24.5885440  80.7398330  38.1171620
  25.1064110  79.9366590  38.0628510  24.1369460  80.6777470  38.9588450
  29.4754940  82.0064610  33.3898920  29.8170640  82.7506840  32.8942240
  28.6467650  82.3195730  33.7523750  36.8282760  79.6020280  45.2560580
  36.1030950  80.1949060  45.0589970  37.3558220  79.5943820  44.4573950
  32.3582350  81.3280450  38.7544430  32.7106170  80.7308580  38.0945800
  31.4744680  81.0024680  38.9252680  20.5838030  77.7050960  31.6531920
  21.4532880  77.9875760  31.9367840  20.0928350  78.5186830  31.5380730
  30.0505450  84.6030510  43.0032500  30.6947670  84.8089890  43.6805920
  30.4134890  83.8418910  42.5503350  31.3237530  82.6062860  41.7209950
  31.9659760  81.9056020  41.8342120  31.8486880  83.3861300  41.5406840
  35.1693250  82.8911480  31.4449090  34.9430830  82.1741920  32.0373730
  34.7789450  82.6423920  30.6070840  33.0975150  83.4057760  44.9246010
  33.4331390  83.9924450  45.6023930  32.1775490  83.2750470  45.1543800
  20.9509280  86.9178340  32.2193550  21.3106920  87.5167680  31.5650820
  20.8101620  87.4638230  32.9928580  20.9351140  85.1833200  46.6935950
  21.0442260  84.2427940  46.5531340  20.2831700  85.4487950  46.0449680
  26.9677900  84.3009540  33.0367220  26.9588000  85.0339230  32.4211730
  26.0476260  84.0541120  33.1294180  22.5684540  79.5224430  33.7813980
  21.9612490  80.2623330  33.7909280  23.0433890  79.6123790  32.9552180
  32.1417330  73.6875250  43.4570870  32.5098150  72.8670460  43.7850440
  31.2815530  73.7477140  43.8726520  35.5079360  72.6432190  34.2658430
  34.8792520  72.7477860  33.5516660  35.0131280  72.8628970  35.0552310
  29.9537500  84.3637780  31.6992410  30.0549480  84.1601770  30.7694390
  29.0539240  84.1096060  31.9040190  27.4763390  74.9218140  35.6816310
  26.7679540  75.3904480  36.1229920  27.7607870  74.2640150  36.3161500
  31.5078820  71.6468800  37.1212100  31.3846600  71.6654930  36.1721610
  32.4563380  71.6947740  37.2410500  28.5955610  86.8824100  36.3940080
  28.8497110  86.8445490  35.4719450  27.6468090  86.7557430  36.3868330
  25.6798410  73.2303220  33.0567020  26.5288940  73.6673370  32.9907210
  25.3129680  73.5423480  33.8839080  36.3086180  72.5582800  44.5237230
  35.8059780  73.2988200  44.8631040  37.1242840  72.9466800  44.2074020
  24.5789830  79.4835580  31.5302550  25.3453100  79.3716940  32.0927980
  24.6564520  78.7873550  30.8779320  23.2736590  76.9160650  32.2135440
  23.3540180  75.9688160  32.3252840  24.1656340  77.2467530  32.3196100
  24.0751300  87.0656040  39.3169980  24.8113780  86.5171500  39.5878550
  24.4592220  87.9312050  39.1775970  20.9596780  83.1329610  35.1911490
  20.0336560  83.3750750  35.1816900  21.4253210  83.9603870  35.0696240
  23.0809580  86.2502110  48.5055560  23.8822310  86.5714160  48.9190960
  22.5661400  85.8897690  49.2275470  27.1853610  86.2386350  31.1395550
  27.9782220  86.5275180  30.6877340  26.6657960  85.8078520  30.4608030
  33.3474580  86.0862270  47.0640380  34.2996330  86.0020290  47.0140620
  33.2002800  86.7503980  47.7374170  36.2383780  85.4656480  32.5632290
  35.9525290  85.0521620  31.7486470  36.0403330  86.3944190  32.4432810
  20.8007390  78.7375570  47.4491610  21.3046410  78.1582850  48.0207840
  20.0614810  79.0215800  47.9867980  27.7031010  81.4589760  31.0037900
  27.5981650  80.8442110  31.7299280  27.5355230  80.9355650  30.2200910
  30.9433740  80.5209790  31.6079890  30.3943840  80.9679090  32.2522630
  31.5653000  80.0159040  32.1317560  34.9968680  81.8751890  47.5402150
  35.7378150  82.2127650  47.0369610  34.2341360  82.0443950  46.9871920
  26.6108860  79.4800710  33.5045190  27.0325280  79.3140580  34.3476580
  26.7359700  78.6700940  33.0100330  33.6714340  79.9266720  46.0757360
  34.0855360  80.0811800  46.9247780  32.7365340  80.0521940  46.2383140
  33.1081370  78.1640570  44.0053640  32.5816590  78.6883190  43.4018780
  33.4512710  78.7967960  44.6363370  25.5067760  75.5533940  30.4503350
  25.3056820  74.6901300  30.8116690  25.3359810  75.4667300  29.5124950
  26.2836990  86.1840210  45.1611020  25.7458080  86.9086270  44.8419720
  26.5370950  85.7070550  44.3708360  32.9856070  70.3642170  32.9790230
  33.2658360  69.5210070  33.3349650  32.2121800  70.5965280  33.4928980
  24.3050560  72.6534560  30.4381230  24.6076460  72.6601990  29.5300380
  25.0445150  72.3032420  30.9348890  29.1399200  87.4191420  45.4197670
  29.0657900  88.3226560  45.7270040  28.2378040  87.1003320  45.3919740
  27.5235490  71.5969180  31.4237430  27.1757490  70.9193170  30.8439880
  27.7248260  71.1358690  32.2380820  29.6884530  86.5849930  33.0424030
  30.5835320  86.9234900  33.0642790  29.7202160  85.8629340  32.4148310
  23.3280690  81.9576980  31.2711030  23.7655560  82.5006650  31.9268610
  23.8128420  81.1323930  31.2807370  20.5426490  84.7466010  38.7231290
  20.8729500  83.8787070  38.4909930  20.9717490  84.9524530  39.5536250
  25.1388410  83.0775020  36.3833260  24.8383950  82.9539990  37.2837170
  25.0325900  82.2183610  35.9748990  36.6678880  85.1153600  45.7490230
  36.0680870  85.1746160  45.0054150  36.7972780  84.1758580  45.8787080
  37.9080330  82.8571420  31.0859940  37.0773290  82.9248070  31.5567170
  38.0852160  83.7475540  30.7826800  20.8641130  78.1256830  37.8201800
  20.2089970  77.8568470  37.1761500  21.7019080  78.0161310  37.3703780
  38.3696760  80.4569000  38.4336070  38.7405590  79.6736320  38.0272040
  39.0098690  81.1458100  38.2553370  35.3530520  81.8405580  43.8466390
  34.5390360  82.2702740  44.1092180  35.7604720  82.4523990  43.2335440
  37.4155960  79.8953270  30.7466660  37.6904800  80.8032150  30.6185880
  37.2266700  79.8315800  31.6828650  33.8131570  72.9198120  32.0420290
  34.2316450  72.7329100  31.2016950  33.5067630  72.0677170  32.3523220
  21.9017060  78.5109400  42.3605140  22.2690100  78.4236800  43.2401160
  21.3327880  77.7475950  42.2612000  20.0779210  75.3355760  33.7627130
  19.1743290  75.5985960  33.5878790  20.5619830  75.6066930  32.9827090
  36.5872260  76.0579750  39.0403330  37.1109740  75.5642400  38.4093500
  37.1731680  76.1930110  39.7850900  36.7661980  76.1419620  42.5622880
  35.8164690  76.1083160  42.6767870  36.9474990  77.0519730  42.3272650
  22.6206420  74.3921300  31.6721510  23.3298120  73.9704520  31.1868790
  21.9046360  74.4596530  31.0404860  22.2680580  70.4460630  30.7124160
  22.9908710  70.9869570  31.0305380  22.5405100  70.1724050  29.8365700
  35.8525110  69.8908180  43.9716420  36.4897330  70.5042320  44.3375610
  36.0000000  69.9268840  43.0265650  38.3949660  71.7821970  30.7539560
  39.3198970  71.6503150  30.5457850  38.3725450  71.8614790  31.7076010
  38.4688150  72.5532630  33.3796270  37.6739650  72.4877750  33.9089180
  38.6731430  73.4883270  33.3681620  23.3169140  83.0242090  47.5225290
  23.2738770  82.6535000  48.4039750  23.4480150  83.9619660  47.6627110
  27.0175170  84.5801680  43.1235010  26.7766530  84.8476240  42.2365530
  27.9577810  84.7507410  43.1785870  38.2779330  86.5996060  43.9245650
  37.7837610  86.9964930  43.2072780  37.6692620  85.9745270  44.3182930
  32.6012190  69.2636570  42.8453100  31.7272030  69.5971680  42.6426030
  32.4922940  68.7909750  43.6704970  33.5084170  71.4707440  44.2294820
  33.1797530  70.6559200  43.8496550  34.4566470  71.4277250  44.1060510
  26.3914500  85.5507720  40.3780520  26.9079520  84.9395080  39.8528780
  27.0411880  86.0536500  40.8691530  29.1310000  86.4416210  41.2049500
  29.4187810  86.1870510  40.3282510  29.6433220  85.8893570  41.7955070
  21.0699400  86.6537110  36.8027870  20.9021440  86.0207790  37.5009760
  20.2033910  86.8596510  36.4522060  21.6927420  70.4853890  34.3059730
  22.4506780  70.5982770  33.7323760  21.2304590  71.3223090  34.2603160
  28.2341230  72.5993160  37.2962040  27.4215740  72.2250050  36.9557920
  28.7382870  71.8438240  37.5983230  32.7366210  69.2635610  38.5345110
  33.3395580  69.8355820  39.0093630  31.9959200  69.8275050  38.3119010
  35.8800810  69.6657170  33.8085390  36.0751440  70.5640620  34.0752820
  35.0930680  69.4344250  34.3018340  22.6762100  85.3470340  34.2478010
  22.1509720  85.7278370  33.5439970  22.6006680  85.9721110  34.9687720
  24.0652570  71.0117940  32.8461700  24.5945330  70.2247740  32.7169650
  24.6980890  71.6909130  33.0797230  26.2590410  70.7493080  35.9007090
  25.6293150  70.0480390  36.0677220  25.7195550  71.5097210  35.6840250
  29.1982360  87.3632310  48.5717700  30.1249670  87.1276580  48.6153660
  29.1832790  88.1904310  48.0903730  37.4327420  86.9057880  35.5691950
  37.6079610  86.2195620  34.9252870  36.7348990  87.4304930  35.1768620
  26.3845970  70.0277060  48.3359580  26.1030240  70.5310660  47.5720400
  26.7665670  69.2298810  47.9701710  25.2755070  87.2952720  33.1227260
  26.0073890  87.0112000  32.5751150  25.5348740  87.0566000  34.0126640
  24.4369860  83.4117450  33.1273590  23.8078740  83.8802550  33.6759420
  24.5517690  82.5666670  33.5619780  35.7659920  86.5902170  48.3958740
  36.5585240  86.0951400  48.1884700  36.0593070  87.2692310  49.0034350
  31.8919580  77.4623110  19.2774790  31.8113630  76.5477720  19.0066500
  31.4784000  77.9590180  18.5714500  30.0237620  79.2402130  21.1584060
  29.2479720  78.7602570  21.4482630  30.6750550  78.5607780  20.9840220
  24.0403450  79.5521940  22.0359820  23.2088330  79.2970650  22.4356330
  24.6484430  79.6232710  22.7717740  34.0445050  83.6462320  19.9383190
  33.5826580  82.8749560  20.2670360  34.8570600  83.6728390  20.4435640
  24.0204710  83.5862030  22.2317840  24.3232750  82.6959770  22.0528060
  24.7648300  84.1432250  22.0040090  22.4495400  74.5123830  15.8202210
  21.5612100  74.8539800  15.7182090  22.7336590  74.3124150  14.9283040
  20.4128410  77.1129480  21.7041910  20.9844520  76.3451680  21.7045550
  20.4129950  77.4118240  20.7948520  30.2708360  85.9320330  19.5587180
  29.6519800  86.3877830  18.9881620  31.1260140  86.0871790  19.1576880
  29.4646610  81.9159320  21.1654220  29.3954890  80.9749260  21.0043350
  30.2266470  82.0060730  21.7376790  21.6553280  72.5213840  23.4910840
  21.4756120  71.6239590  23.7713600  21.2533360  73.0685710  24.1657790
  30.4951780  74.7229700  21.3923150  30.8716600  73.8501580  21.2796820
  30.3971290  75.0588400  20.5013590  24.6256790  73.0955330  16.8540590
  24.7323540  73.9959060  17.1609350  23.7149150  73.0473300  16.5635240
  34.2775900  72.2180140  18.3251490  35.0985520  71.7276710  18.3676970
  34.3109980  72.8077800  19.0783330  22.2739950  75.0174340  22.0993180
  22.9550060  75.2812710  22.7180580  21.9588000  74.1775210  22.4331190
  26.4664520  76.0641700  21.1865770  26.9742740  76.5622670  21.8270790
  26.9977760  75.2876900  21.0105130  38.5675450  74.2346890  24.8895120
  37.8627620  74.6228600  24.3710230  38.8333370  74.9297180  25.4916050
  24.7500620  70.7040260  25.4529190  24.7519060  71.2212650  24.6475090
  23.9204930  70.2270440  25.4299120  31.1371710  80.8159570  16.9519090
  30.5188980  81.2809020  16.3881810  31.6494960  81.5087050  17.3688600
  26.0003470  80.3435440  23.6302690  25.6672850  80.9704360  24.2723760
  26.1770150  80.8697320  22.8504360  34.5137380  74.1580520  21.0979030
  33.8092950  74.4465410  21.6782140  34.8749540  74.9680630  20.7378590
  24.4315950  72.4150220  23.4599640  24.7732760  73.2592270  23.1653510
  23.4931760  72.5633960  23.5764980  25.2122570  82.3116240  25.4451870
  25.8296570  82.9867320  25.1636320  24.3515690  82.7204220  25.3539370
  20.5054910  81.5016100  14.3258720  20.1282890  81.9903200  13.5943620
  20.7627980  82.1741380  14.9565250  36.1300160  83.7755650  23.3606510
  35.4463680  84.4454760  23.3523180  36.6694450  83.9736300  22.5951370
  37.5824300  73.6035310  21.4888240  36.6349210  73.6374290  21.6203670
  37.9074290  74.4174260  21.8737600  28.1143840  69.9032490  19.7844230
  28.4218820  69.3479380  19.0679730  27.1844540  70.0376950  19.6017220
  33.6658900  85.6199780  22.0751690  33.6786060  85.2162070  21.2073950
  33.1134120  86.3947070  21.9713120  34.9604320  82.3416000  17.1641860
  34.8500650  81.3990330  17.2891280  34.9572570  82.7031640  18.0504620
  33.0644340  80.5229620  23.4034300  33.4813130  80.3089730  22.5687760
  33.7884160  80.7802410  23.9742920  30.5024600  77.9681320  16.5204350
  29.5753880  77.9018700  16.7492820  30.6549420  78.9061450  16.4059590
  30.4893680  74.2398320  13.5171510  29.5497350  74.4012280  13.6023970
  30.8076940  74.9584000  12.9707500  37.0106440  78.9216840  23.4950540
  36.1825070  78.9909930  23.0200670  37.6056920  79.5071150  23.0266370
  34.5321890  79.5301620  17.0239600  33.9134310  79.1921170  16.3765900
  34.5146340  78.8861380  17.7318790  33.9748450  75.7086160  24.4405410
  33.5619630  76.5339870  24.6945400  33.2424400  75.1231200  24.2481770
  26.1081240  78.4946060  19.3024080  25.7038240  77.7823310  18.8069980
  26.1944360  78.1499300  20.1912120  26.5762940  82.1813620  21.4663290
  26.2791230  81.5759090  20.7871070  27.5262760  82.2190930  21.3552650
  24.8209860  75.2689270  23.0823120  25.3724450  75.3784610  22.3076370
  25.3353370  75.6426870  23.7978350  34.6648550  85.7545490  25.1286390
  34.1879110  86.5617680  24.9359000  33.9810340  85.1023820  25.2812600
  25.6681370  81.9195310  28.1171090  24.7709900  82.1435280  28.3644490
  25.6934240  82.0430250  27.1682490  32.7086590  78.7688430  14.0312350
  33.1479870  77.9310860  13.8850170  33.4215010  79.4017830  14.1176490
  24.4952590  78.7908630  26.6928460  24.3560360  79.6631430  27.0615860
  23.6133950  78.4481440  26.5476400  30.8181970  83.7084500  17.9993590
  31.2577880  84.4508830  17.5848980  30.7568860  83.9511070  18.9232550
  26.2932940  84.7330330  28.9013610  26.2648370  85.1373280  28.0342040
  26.1297910  83.8040690  28.7385210  36.2903730  70.0231240  12.3453390
  35.9776390  70.1158070  13.2452460  37.0516200  70.6012270  12.2950820
  22.8085870  77.3891040  16.8030730  22.6883470  78.1153130  16.1912000
  22.4986760  76.6193950  16.3258640  38.2447760  85.5157430  30.1977780
  38.7207480  85.9940320  30.8766860  38.8654920  85.4474920  29.4723280
  20.4471240  80.5606180  22.6099370  20.5251660  80.6954950  21.6655090
  21.0612920  79.8522070  22.8027490  21.6918870  82.2606370  19.0205550
  21.2846950  82.4020960  18.1659150  22.5831880  81.9766530  18.8176760
  31.5097750  86.4098280  25.9272600  32.0242420  86.3206290  26.7295030
  30.6666830  86.7557980  26.2200510  33.4852150  86.6953620  15.3556600
  33.3253290  86.4056560  16.2538430  33.3198860  85.9193750  14.8201830
  25.9640530  86.4752150  17.1328220  25.7883010  85.5587690  16.9196020
  25.1096270  86.8339440  17.3726020  33.1878280  84.2041180  13.9154600
  32.4943440  84.2018470  13.2556880  33.9301140  83.7800500  13.4848770
  32.7528210  85.8303890  17.9903090  33.2085160  85.0493270  18.3041710
  33.0920730  86.5410710  18.5344270  37.5005020  74.7602740  28.3227530
  36.8849290  75.2682410  27.7942990  37.1801440  73.8601070  28.2653470
  20.5030760  81.6020350  25.1493830  20.6661800  81.1325710  24.3313200
  20.9683210  81.0943910  25.8142670  25.2749530  70.7326110  20.1854400
  24.8317680  71.5135650  19.8538920  25.8334520  71.0556000  20.8925340
  29.5619340  73.5994630  25.7889720  29.0998710  73.8077650  26.6009660
  29.1597450  72.7853980  25.4860390  34.5623850  74.8203580  26.9186380
  33.7117440  74.5209330  27.2395450  34.4025640  75.0645590  26.0070200
  31.6573560  76.3205330  29.0185170  31.9826970  75.4869080  28.6787400
  32.4453890  76.8433850  29.1663500  28.3908350  70.3536810  15.0660230
  27.7662530  70.3496680  15.7913540  28.3038470  69.4867770  14.6696200
  27.3125430  71.2773440  22.0444000  27.6097760  72.1836270  21.9636020
  27.8610990  70.7892220  21.4303570  25.0663750  75.8559680  17.9135650
  24.8404670  75.6396850  18.8182270  24.2856280  76.2888140  17.5681620
  32.2961510  75.8623050  16.5126300  31.6970400  76.5858850  16.3289920
  32.8441120  75.7999830  15.7302750  27.5062960  76.7545260  28.5795920
  27.4106560  75.8139990  28.4296320  28.3494940  76.9760330  28.1843990
  30.9026380  74.4986590  18.5429580  31.2955950  74.8158790  17.7298270
  31.2643230  73.6198470  18.6574100  22.6373500  73.1658930  26.7329700
  22.2436890  74.0134140  26.9402480  21.9491900  72.5285300  26.9238340
  29.2118550  73.2493900  29.8026440  28.5216870  73.0566100  30.4372530
  29.9550850  73.5328540  30.3350740  19.9390550  71.0887390  20.7659780
  19.6503600  71.6590250  21.4784760  20.6836310  70.6091840  21.1291010
  20.1260780  75.0307510  11.9762500  20.0435450  75.9738270  12.1177490
  19.7743840  74.8882420  11.0974850  31.4881520  77.0892340  22.6380360
  30.7562640  77.5979150  22.9870460  31.0905860  76.2722320  22.3369140
  27.9258910  73.7646540  21.0432850  27.9294970  73.3236490  20.1937390
  28.8210030  74.0863870  21.1504670  23.7761290  73.6473030  20.0027060
  23.4361340  74.1248260  20.7594110  23.0138610  73.1938150  19.6428160
  27.9879060  74.7658620  14.0339610  28.1091880  74.7245100  14.9825430
  27.6027570  75.6282770  13.8786340  31.9507430  72.5426020  22.0503300
  31.9680170  72.9934670  22.8945150  31.7023010  71.6431660  22.2636740
  27.0000560  77.0759760  13.4322910  26.4317460  76.6278010  12.8058820
  27.7089560  77.4352540  12.8988060  35.3778180  69.9558200  27.8889680
  35.7023950  69.2247860  28.4147660  35.4134690  69.6371840  26.9870670
  22.0769740  80.9771780  27.3089640  21.6924530  80.3365450  27.9072600
  22.3881930  81.6807900  27.8784370  28.2266880  77.8248320  22.7898260
  28.5937010  77.3506890  23.5359600  28.0371940  78.6989890  23.1306600
  21.0907370  72.5692010  18.9191730  20.8054290  72.2047680  19.7570350
  21.0286230  71.8372470  18.3054870  26.0166250  76.8656960  25.1082470
  25.7123320  77.7448940  25.3332830  26.9712710  76.9256750  25.1439910
  24.5448040  81.0717950  15.7049320  23.7710300  80.5315570  15.5448040
  25.2742670  80.5524560  15.3667080  35.3036020  80.0683310  21.4975710
  36.0235140  80.5638600  21.1071820  35.1017840  79.3901200  20.8529580
  30.7645960  71.4621270  15.6405100  29.9510570  70.9634440  15.5650410
  30.5707910  72.3019520  15.2241450  30.6854820  80.1392370  27.3844710
  30.6192130  79.2188040  27.1302300  30.0559960  80.2367810  28.0989350
  33.4794350  75.8340920  13.9367260  34.3673970  76.1458150  13.7618600
  33.4499440  74.9613170  13.5447840  24.5885440  80.7398330  19.3428130
  25.1064110  79.9366590  19.2885020  24.1369460  80.6777470  20.1844960
  29.4754940  82.0064610  14.6155430  29.8170640  82.7506840  14.1198750
  28.6467650  82.3195730  14.9780260  22.0729980  77.7059700  26.2553830
  21.7144920  78.3713550  26.8427170  21.7784540  76.8743250  26.6266450
  25.2743100  78.1643940  29.1393380  24.9743240  78.3101120  28.2421200
  26.0454340  77.6049230  29.0466770  30.6171550  82.9612940  27.1348510
  30.6316090  82.0293900  26.9167420  29.9096650  83.0472700  27.7738280
  35.7508620  77.1452760  13.4047120  35.6672340  77.5766980  12.5543560
  36.4702810  77.6051110  13.8373940  36.7795870  83.9995020  16.1329250
  36.1372030  83.3450640  16.4072970  36.3926530  84.4050110  15.3569920
  32.3582350  81.3280450  19.9800940  32.7106170  80.7308580  19.3202310
  31.4744680  81.0024680  20.1509190  28.4445630  82.0878140  17.3871350
  29.1316760  82.6347350  17.7678940  27.6578050  82.6318870  17.4220960
  20.5838030  77.7050960  12.8788430  21.4532880  77.9875760  13.1624350
  20.0928350  78.5186830  12.7637240  27.7472840  79.0924170  16.9996710
  28.2035620  79.9029420  17.2256900  27.3961050  78.7747310  17.8315200
  30.0505450  84.6030510  24.2289010  30.6947670  84.8089890  24.9062430
  30.4134890  83.8418910  23.7759860  23.6484620  69.4361820  17.4719230
  23.5199250  69.4279720  18.4204150  22.8246640  69.7744910  17.1210240
  31.3237530  82.6062860  22.9466460  31.9659760  81.9056020  23.0598630
  31.8486880  83.3861300  22.7663350  35.1693250  82.8911480  12.6705600
  34.9430830  82.1741920  13.2630240  34.7789450  82.6423920  11.8327350
  33.0975150  83.4057760  26.1502520  33.4331390  83.9924450  26.8280440
  32.1775490  83.2750470  26.3800310  20.9509280  86.9178340  13.4450060
  21.3106920  87.5167680  12.7907330  20.8101620  87.4638230  14.2185090
  20.6478550  71.1952940  26.9325930  19.9337070  71.3949860  27.5378540
  21.0673590  70.4192510  27.3040730  34.7509500  80.8083420  14.3319760
  34.4631200  81.2696110  15.1197640  35.5461670  80.3481190  14.6003980
  20.9351140  85.1833200  27.9192460  21.0442260  84.2427940  27.7787850
  20.2831700  85.4487950  27.2706190  28.9263730  83.4549090  29.3190580
  28.6060600  82.7358330  29.8636270  28.2522090  84.1304160  29.3926640
  26.9677900  84.3009540  14.2623730  26.9588000  85.0339230  13.6468240
  26.0476260  84.0541120  14.3550690  22.5684540  79.5224430  15.0070490
  21.9612490  80.2623330  15.0165790  23.0433890  79.6123790  14.1808690
  32.1417330  73.6875250  24.6827380  32.5098150  72.8670460  25.0106950
  31.2815530  73.7477140  25.0983030  35.5079360  72.6432190  15.4914940
  34.8792520  72.7477860  14.7773170  35.0131280  72.8628970  16.2808820
  29.9537500  84.3637780  12.9248920  30.0549480  84.1601770  11.9950900
  29.0539240  84.1096060  13.1296700  27.4763390  74.9218140  16.9072820
  26.7679540  75.3904480  17.3486430  27.7607870  74.2640150  17.5418010
  29.1019320  76.3414840  24.9065350  29.6004570  76.8160660  25.5717200
  29.2442270  75.4178360  25.1135380  31.5078820  71.6468800  18.3468610
  31.3846600  71.6654930  17.3978120  32.4563380  71.6947740  18.4667010
  28.5955610  86.8824100  17.6196590  28.8497110  86.8445490  16.6975960
  27.6468090  86.7557430  17.6124840  25.6798410  73.2303220  14.2823530
  26.5288940  73.6673370  14.2163720  25.3129680  73.5423480  15.1095590
  36.3086180  72.5582800  25.7493740  35.8059780  73.2988200  26.0887550
  37.1242840  72.9466800  25.4330530  34.6008190  77.8015980  19.1955100
  33.6598330  77.8166210  19.3702790  34.9152260  77.0151940  19.6415400
  24.5789830  79.4835580  12.7559060  25.3453100  79.3716940  13.3184490
  24.6564520  78.7873550  12.1035830  23.2736590  76.9160650  13.4391950
  23.3540180  75.9688160  13.5509350  24.1656340  77.2467530  13.5452610
  36.6033770  84.9724830  20.8709360  36.7281190  85.7956000  21.3433170
  37.4699330  84.7615560  20.5233510  24.0751300  87.0656040  20.5426490
  24.8113780  86.5171500  20.8135060  24.4592220  87.9312050  20.4032480
  20.9596780  83.1329610  16.4168000  20.0336560  83.3750750  16.4073410
  21.4253210  83.9603870  16.2952750  23.0809580  86.2502110  29.7312070
  23.8822310  86.5714160  30.1447470  22.5661400  85.8897690  30.4531980
  27.1853610  86.2386350  12.3652060  27.9782220  86.5275180  11.9133850
  26.6657960  85.8078520  11.6864540  31.9174210  82.3581980  29.6787480
  31.3112370  82.3813580  28.9383230  31.6128320  81.6265020  30.2154730
  33.3474580  86.0862270  28.2896890  34.2996330  86.0020290  28.2397130
  33.2002800  86.7503980  28.9630680  36.2383780  85.4656480  13.7888800
  35.9525290  85.0521620  12.9742980  36.0403330  86.3944190  13.6689320
  20.8007390  78.7375570  28.6748120  21.3046410  78.1582850  29.2464350
  20.0614810  79.0215800  29.2124490  27.7031010  81.4589760  12.2294410
  27.5981650  80.8442110  12.9555790  27.5355230  80.9355650  11.4457420
  27.8545330  80.1446560  28.2083640  27.0891000  80.7131560  28.1238310
  28.0361290  79.8522770  27.3151870  30.9433740  80.5209790  12.8336400
  30.3943840  80.9679090  13.4779140  31.5653000  80.0159040  13.3574070
  22.8330470  76.8805160  29.5698190  22.8735810  76.5819030  30.4783420
  23.6875970  77.2812770  29.4105710  26.6108860  79.4800710  14.7301700
  27.0325280  79.3140580  15.5733090  26.7359700  78.6700940  14.2356840
  24.7736280  75.4597260  27.5372680  24.2432740  74.9688210  26.9096020
  25.4424350  75.8881460  27.0030610  29.1236500  78.5038320  11.9778800
  29.6442160  77.7887340  11.6119950  29.7704900  79.1424190  12.2779310
  33.6714340  79.9266720  27.3013870  34.0855360  80.0811800  28.1504290
  32.7365340  80.0521940  27.4639650  34.1436510  77.2662880  29.3053020
  34.7257280  76.5115200  29.2173500  34.3198280  77.7970320  28.5284500
  25.2608580  72.4259630  27.6169970  25.1665450  71.8080380  26.8920840
  24.6805970  73.1525920  27.3899880  28.0270020  70.9832870  24.6497360
  27.5787320  71.0057130  23.8042910  27.3935220  70.5851890  25.2467660
  28.4329570  79.8787200  25.2709800  28.8517680  80.7219930  25.0986040
  27.5138200  80.0159240  25.0416580  30.7693470  77.6103380  26.6547640
  30.8889680  77.0144520  27.3942480  31.6287470  77.6473070  26.2348940
  33.1081370  78.1640570  25.2310150  32.5816590  78.6883190  24.6275290
  33.4512710  78.7967960  25.8619880  25.5067760  75.5533940  11.6759860
  25.3056820  74.6901300  12.0373200  25.3359810  75.4667300  10.7381460
  26.2836990  86.1840210  26.3867530  25.7458080  86.9086270  26.0676230
  26.5370950  85.7070550  25.5964870  27.5362240  74.1524730  27.9123460
  28.1261930  73.8440580  28.6001280  26.7182480  73.6804480  28.0683360
  32.3555670  73.7690540  28.1456480  31.6671190  73.1072080  28.0806470
  33.0761690  73.3228810  28.5904940  32.9856070  70.3642170  14.2046740
  33.2658360  69.5210070  14.5606160  32.2121800  70.5965280  14.7185490
  24.3050560  72.6534560  11.6637740  24.6076460  72.6601990  10.7556890
  25.0445150  72.3032420  12.1605400  29.1399200  87.4191420  26.6454180
  29.0657900  88.3226560  26.9526550  28.2378040  87.1003320  26.6176250
  27.5235490  71.5969180  12.6493940  27.1757490  70.9193170  12.0696390
  27.7248260  71.1358690  13.4637330  29.6884530  86.5849930  14.2680540
  30.5835320  86.9234900  14.2899300  29.7202160  85.8629340  13.6404820
  23.3280690  81.9576980  12.4967540  23.7655560  82.5006650  13.1525120
  23.8128420  81.1323930  12.5063880  20.5426490  84.7466010  19.9487800
  20.8729500  83.8787070  19.7166440  20.9717490  84.9524530  20.7792760
  25.1388410  83.0775020  17.6089770  24.8383950  82.9539990  18.5093680
  25.0325900  82.2183610  17.2005500  21.0316700  85.6136600  22.6869430
  20.5947690  85.7937400  23.5193580  21.5994380  86.3711220  22.5451150
  36.6678880  85.1153600  26.9746740  36.0680870  85.1746160  26.2310660
  36.7972780  84.1758580  27.1043590  37.9080330  82.8571420  12.3116450
  37.0773290  82.9248070  12.7823680  38.0852160  83.7475540  12.0083310
  37.3636790  79.6018900  14.8150650  38.1255700  80.1715550  14.9210340
  37.3791160  79.0346100  15.5858960  20.8641130  78.1256830  19.0458310
  20.2089970  77.8568470  18.4018010  21.7019080  78.0161310  18.5960290
  38.3696760  80.4569000  19.6592580  38.7405590  79.6736320  19.2528550
  39.0098690  81.1458100  19.4809880  37.4155960  79.8953270  11.9723170
  37.6904800  80.8032150  11.8442390  37.2266700  79.8315800  12.9085160
  33.8131570  72.9198120  13.2676800  34.2316450  72.7329100  12.4273460
  33.5067630  72.0677170  13.5779730  37.3121300  77.8322260  16.9652600
  36.9364900  77.0650190  16.5333890  36.5824420  78.2144960  17.4527530
  21.9017060  78.5109400  23.5861650  22.2690100  78.4236800  24.4657670
  21.3327880  77.7475950  23.4868510  36.7020920  76.9793780  26.5992120
  36.4707010  76.7506530  25.6990070  36.9625470  77.8993330  26.5537010
  21.4533060  75.4218490  27.4920070  20.5589110  75.3885250  27.8313780
  21.9930610  75.6205280  28.2571320  35.1408990  72.2050210  29.3771820
  36.0179170  72.2133610  29.7605820  35.1529830  71.4681050  28.7664170
  20.0779210  75.3355760  14.9883640  19.1743290  75.5985960  14.8135300
  20.5619830  75.6066930  14.2083600  36.5872260  76.0579750  20.2659840
  37.1109740  75.5642400  19.6350010  37.1731680  76.1930110  21.0107410
  36.7661980  76.1419620  23.7879390  35.8164690  76.1083160  23.9024380
  36.9474990  77.0519730  23.5529160  22.6206420  74.3921300  12.8978020
  23.3298120  73.9704520  12.4125300  21.9046360  74.4596530  12.2661370
  22.2680580  70.4460630  11.9380670  22.9908710  70.9869570  12.2561890
  22.5405100  70.1724050  11.0622210  36.0772230  75.3153100  16.2052250
  36.5731350  75.0823970  16.9901130  35.8788300  74.4764940  15.7889890
  21.9572770  69.6966820  21.8403290  22.6048960  69.1464200  21.3998450
  22.3774610  69.9509970  22.6619100  37.5059390  73.9514050  18.7389930
  37.3958670  73.7970090  19.6772200  38.2666980  73.4234990  18.4965340
  35.8525110  69.8908180  25.1972930  36.4897330  70.5042320  25.5632120
  36.0000000  69.9268840  24.2522160  38.3949660  71.7821970  11.9796070
  39.3198970  71.6503150  11.7714360  38.3725450  71.8614790  12.9332520
  38.4688150  72.5532630  14.6052780  37.6739650  72.4877750  15.1345690
  38.6731430  73.4883270  14.5938130  35.4106570  86.5924180  18.5991170
  36.0065640  86.2708750  17.9225590  35.6684720  86.1196000  19.3904440
  21.7104770  69.8522490  24.5828610  21.3619590  70.3086310  25.3486790
  21.3792470  68.9579620  24.6651040  23.3169140  83.0242090  28.7481800
  23.2738770  82.6535000  29.6296260  23.4480150  83.9619660  28.8883620
  27.0175170  84.5801680  24.3491520  26.7766530  84.8476240  23.4622040
  27.9577810  84.7507410  24.4042380  29.2229590  71.0434370  28.1048030
  29.1618480  71.6356200  28.8543440  30.1629970  70.9360330  27.9598290
  31.8604150  70.7004430  27.7440320  32.4744560  71.0183720  27.0821400
  32.4053710  70.2153020  28.3636180  38.2779330  86.5996060  25.1502160
  37.7837610  86.9964930  24.4329290  37.6692620  85.9745270  25.5439440
  22.3825410  69.3798690  27.8579380  22.9308400  69.1986740  27.0945490
  22.4480720  68.5892800  28.3935690  23.1557170  85.9704340  25.8679580
  22.5617490  85.8389040  26.6069620  23.1481010  85.1342480  25.4021680
  32.6012190  69.2636570  24.0709610  31.7272030  69.5971680  23.8682540
  32.4922940  68.7909750  24.8961480  33.5084170  71.4707440  25.4551330
  33.1797530  70.6559200  25.0753060  34.4566470  71.4277250  25.3317020
  35.9618780  87.2419480  22.4288900  35.5021750  87.9935290  22.0546920
  35.3331240  86.5225950  22.3703700  22.7869400  83.3362720  24.8187620
  22.0603460  82.7168010  24.7513570  22.8478550  83.7303330  23.9485700
  26.3914500  85.5507720  21.6037030  26.9079520  84.9395080  21.0785290
  27.0411880  86.0536500  22.0948040  29.1310000  86.4416210  22.4306010
  29.4187810  86.1870510  21.5539020  29.6433220  85.8893570  23.0211580
  30.3487010  70.1806410  23.0102520  29.5658800  70.6551910  23.2899280
  30.0549940  69.2761240  22.9015700  34.9008080  70.8829510  21.0551610
  35.3416170  70.8274610  20.2073210  34.6315670  71.7987520  21.1261790
  36.7646650  70.5144750  19.0660430  36.7035050  69.5705970  18.9191450
  37.5438680  70.6224840  19.6113890  21.0699400  86.6537110  18.0284380
  20.9021440  86.0207790  18.7266270  20.2033910  86.8596510  17.6778570
  21.6927420  70.4853890  15.5316240  22.4506780  70.5982770  14.9580270
  21.2304590  71.3223090  15.4859670  28.2341230  72.5993160  18.5218550
  27.4215740  72.2250050  18.1814430  28.7382870  71.8438240  18.8239740
  32.7366210  69.2635610  19.7601620  33.3395580  69.8355820  20.2350140
  31.9959200  69.8275050  19.5375520  35.8800810  69.6657170  15.0341900
  36.0751440  70.5640620  15.3009330  35.0930680  69.4344250  15.5274850
  22.6762100  85.3470340  15.4734520  22.1509720  85.7278370  14.7696480
  22.6006680  85.9721110  16.1944230  24.0652570  71.0117940  14.0718210
  24.5945330  70.2247740  13.9426160  24.6980890  71.6909130  14.3053740
  26.2590410  70.7493080  17.1263600  25.6293150  70.0480390  17.2933730
  25.7195550  71.5097210  16.9096760  29.1982360  87.3632310  29.7974210
  30.1249670  87.1276580  29.8410170  29.1832790  88.1904310  29.3160240
  37.4327420  86.9057880  16.7948460  37.6079610  86.2195620  16.1509380
  36.7348990  87.4304930  16.4025130  26.3845970  70.0277060  29.5616090
  26.1030240  70.5310660  28.7976910  26.7665670  69.2298810  29.1958220
  25.2755070  87.2952720  14.3483770  26.0073890  87.0112000  13.8007660
  25.5348740  87.0566000  15.2383150  24.4369860  83.4117450  14.3530100
  23.8078740  83.8802550  14.9015930  24.5517690  82.5666670  14.7876290
  32.9861430  69.4430640  30.1396560  32.8726880  69.7625250  31.0348080
  33.8031170  69.8443150  29.8433840  35.7659920  86.5902170  29.6215250
  36.5585240  86.0951400  29.4141210  36.0593070  87.2692310  30.2290860
  30.0237620  79.2402130   2.3840570  29.2479720  78.7602570   2.6739140
  30.6750550  78.5607780   2.2096730  24.0403450  79.5521940   3.2616330
  23.2088330  79.2970650   3.6612840  24.6484430  79.6232710   3.9974250
  24.0204710  83.5862030   3.4574350  24.3232750  82.6959770   3.2784570
  24.7648300  84.1432250   3.2296600  20.4128410  77.1129480   2.9298420
  20.9844520  76.3451680   2.9302060  20.4129950  77.4118240   2.0205030
  29.4646610  81.9159320   2.3910730  29.3954890  80.9749260   2.2299860
  30.2266470  82.0060730   2.9633300  21.6553280  72.5213840   4.7167350
  21.4756120  71.6239590   4.9970110  21.2533360  73.0685710   5.3914300
  30.4951780  74.7229700   2.6179660  30.8716600  73.8501580   2.5053330
  30.3971290  75.0588400   1.7270100  22.2739950  75.0174340   3.3249690
  22.9550060  75.2812710   3.9437090  21.9588000  74.1775210   3.6587700
  26.4664520  76.0641700   2.4122280  26.9742740  76.5622670   3.0527300
  26.9977760  75.2876900   2.2361640  38.5675450  74.2346890   6.1151630
  37.8627620  74.6228600   5.5966740  38.8333370  74.9297180   6.7172560
  24.7500620  70.7040260   6.6785700  24.7519060  71.2212650   5.8731600
  23.9204930  70.2270440   6.6555630  26.0003470  80.3435440   4.8559200
  25.6672850  80.9704360   5.4980270  26.1770150  80.8697320   4.0760870
  34.5137380  74.1580520   2.3235540  33.8092950  74.4465410   2.9038650
  34.8749540  74.9680630   1.9635100  24.4315950  72.4150220   4.6856150
  24.7732760  73.2592270   4.3910020  23.4931760  72.5633960   4.8021490
  25.2122570  82.3116240   6.6708380  25.8296570  82.9867320   6.3892830
  24.3515690  82.7204220   6.5795880  36.1300160  83.7755650   4.5863020
  35.4463680  84.4454760   4.5779690  36.6694450  83.9736300   3.8207880
  37.5824300  73.6035310   2.7144750  36.6349210  73.6374290   2.8460180
  37.9074290  74.4174260   3.0994110  33.6658900  85.6199780   3.3008200
  33.6786060  85.2162070   2.4330460  33.1134120  86.3947070   3.1969630
  33.0644340  80.5229620   4.6290810  33.4813130  80.3089730   3.7944270
  33.7884160  80.7802410   5.1999430  37.0106440  78.9216840   4.7207050
  36.1825070  78.9909930   4.2457180  37.6056920  79.5071150   4.2522880
  33.9748450  75.7086160   5.6661920  33.5619630  76.5339870   5.9201910
  33.2424400  75.1231200   5.4738280  26.5762940  82.1813620   2.6919800
  26.2791230  81.5759090   2.0127580  27.5262760  82.2190930   2.5809160
  24.8209860  75.2689270   4.3079630  25.3724450  75.3784610   3.5332880
  25.3353370  75.6426870   5.0234860  34.6648550  85.7545490   6.3542900
  34.1879110  86.5617680   6.1615510  33.9810340  85.1023820   6.5069110
  25.6681370  81.9195310   9.3427600  24.7709900  82.1435280   9.5901000
  25.6934240  82.0430250   8.3939000  24.4952590  78.7908630   7.9184970
  24.3560360  79.6631430   8.2872370  23.6133950  78.4481440   7.7732910
  26.2932940  84.7330330  10.1270120  26.2648370  85.1373280   9.2598550
  26.1297910  83.8040690   9.9641720  38.2447760  85.5157430  11.4234290
  38.7207480  85.9940320  12.1023370  38.8654920  85.4474920  10.6979790
  20.4471240  80.5606180   3.8355880  20.5251660  80.6954950   2.8911600
  21.0612920  79.8522070   4.0284000  37.6481010  82.7070280   8.5834300
  37.7744070  82.4682160   7.6651480  37.6902390  81.8754820   9.0556380
  31.5097750  86.4098280   7.1529110  32.0242420  86.3206290   7.9551540
  30.6666830  86.7557980   7.4457020  37.5005020  74.7602740   9.5484040
  36.8849290  75.2682410   9.0199500  37.1801440  73.8601070   9.4909980
  20.5030760  81.6020350   6.3750340  20.6661800  81.1325710   5.5569710
  20.9683210  81.0943910   7.0399180  29.5619340  73.5994630   7.0146230
  29.0998710  73.8077650   7.8266170  29.1597450  72.7853980   6.7116900
  34.5623850  74.8203580   8.1442890  33.7117440  74.5209330   8.4651960
  34.4025640  75.0645590   7.2326710  31.6573560  76.3205330  10.2441680
  31.9826970  75.4869080   9.9043910  32.4453890  76.8433850  10.3920010
  27.3125430  71.2773440   3.2700510  27.6097760  72.1836270   3.1892530
  27.8610990  70.7892220   2.6560080  27.5062960  76.7545260   9.8052430
  27.4106560  75.8139990   9.6552830  28.3494940  76.9760330   9.4100500
  22.6373500  73.1658930   7.9586210  22.2436890  74.0134140   8.1658990
  21.9491900  72.5285300   8.1494850  29.2118550  73.2493900  11.0282950
  28.5216870  73.0566100  11.6629040  29.9550850  73.5328540  11.5607250
  19.9390550  71.0887390   1.9916290  19.6503600  71.6590250   2.7041270
  20.6836310  70.6091840   2.3547520  31.4881520  77.0892340   3.8636870
  30.7562640  77.5979150   4.2126970  31.0905860  76.2722320   3.5625650
  27.9258910  73.7646540   2.2689360  27.9294970  73.3236490   1.4193900
  28.8210030  74.0863870   2.3761180  31.9507430  72.5426020   3.2759810
  31.9680170  72.9934670   4.1201660  31.7023010  71.6431660   3.4893250
  35.3778180  69.9558200   9.1146190  35.7023950  69.2247860   9.6404170
  35.4134690  69.6371840   8.2127180  22.0769740  80.9771780   8.5346150
  21.6924530  80.3365450   9.1329110  22.3881930  81.6807900   9.1040880
  28.2266880  77.8248320   4.0154770  28.5937010  77.3506890   4.7616110
  28.0371940  78.6989890   4.3563110  26.0166250  76.8656960   6.3338980
  25.7123320  77.7448940   6.5589340  26.9712710  76.9256750   6.3696420
  35.3036020  80.0683310   2.7232220  36.0235140  80.5638600   2.3328330
  35.1017840  79.3901200   2.0786090  30.6854820  80.1392370   8.6101220
  30.6192130  79.2188040   8.3558810  30.0559960  80.2367810   9.3245860
  22.0729980  77.7059700   7.4810340  21.7144920  78.3713550   8.0683680
  21.7784540  76.8743250   7.8522960  25.2743100  78.1643940  10.3649890
  24.9743240  78.3101120   9.4677710  26.0454340  77.6049230  10.2723280
  30.6171550  82.9612940   8.3605020  30.6316090  82.0293900   8.1423930
  29.9096650  83.0472700   8.9994790  36.8282760  79.6020280   7.7073600
  36.1030950  80.1949060   7.5102990  37.3558220  79.5943820   6.9086970
  30.0505450  84.6030510   5.4545520  30.6947670  84.8089890   6.1318940
  30.4134890  83.8418910   5.0016370  31.3237530  82.6062860   4.1722970
  31.9659760  81.9056020   4.2855140  31.8486880  83.3861300   3.9919860
  33.0975150  83.4057760   7.3759030  33.4331390  83.9924450   8.0536950
  32.1775490  83.2750470   7.6056820  20.6478550  71.1952940   8.1582440
  19.9337070  71.3949860   8.7635050  21.0673590  70.4192510   8.5297240
  20.9351140  85.1833200   9.1448970  21.0442260  84.2427940   9.0044360
  20.2831700  85.4487950   8.4962700  28.9263730  83.4549090  10.5447090
  28.6060600  82.7358330  11.0892780  28.2522090  84.1304160  10.6183150
  32.1417330  73.6875250   5.9083890  32.5098150  72.8670460   6.2363460
  31.2815530  73.7477140   6.3239540  29.1019320  76.3414840   6.1321860
  29.6004570  76.8160660   6.7973710  29.2442270  75.4178360   6.3391890
  36.3086180  72.5582800   6.9750250  35.8059780  73.2988200   7.3144060
  37.1242840  72.9466800   6.6587040  36.6033770  84.9724830   2.0965870
  36.7281190  85.7956000   2.5689680  37.4699330  84.7615560   1.7490020
  24.0751300  87.0656040   1.7683000  24.8113780  86.5171500   2.0391570
  24.4592220  87.9312050   1.6288990  23.0809580  86.2502110  10.9568580
  23.8822310  86.5714160  11.3703980  22.5661400  85.8897690  11.6788490
  31.9174210  82.3581980  10.9043990  31.3112370  82.3813580  10.1639740
  31.6128320  81.6265020  11.4411240  33.3474580  86.0862270   9.5153400
  34.2996330  86.0020290   9.4653640  33.2002800  86.7503980  10.1887190
  20.8007390  78.7375570   9.9004630  21.3046410  78.1582850  10.4720860
  20.0614810  79.0215800  10.4381000  27.8545330  80.1446560   9.4340150
  27.0891000  80.7131560   9.3494820  28.0361290  79.8522770   8.5408380
  34.9968680  81.8751890   9.9915170  35.7378150  82.2127650   9.4882630
  34.2341360  82.0443950   9.4384940  22.8330470  76.8805160  10.7954700
  22.8735810  76.5819030  11.7039930  23.6875970  77.2812770  10.6362220
  24.7736280  75.4597260   8.7629190  24.2432740  74.9688210   8.1352530
  25.4424350  75.8881460   8.2287120  33.6714340  79.9266720   8.5270380
  34.0855360  80.0811800   9.3760800  32.7365340  80.0521940   8.6896160
  34.1436510  77.2662880  10.5309530  34.7257280  76.5115200  10.4430010
  34.3198280  77.7970320   9.7541010  25.2608580  72.4259630   8.8426480
  25.1665450  71.8080380   8.1177350  24.6805970  73.1525920   8.6156390
  28.0270020  70.9832870   5.8753870  27.5787320  71.0057130   5.0299420
  27.3935220  70.5851890   6.4724170  28.4329570  79.8787200   6.4966310
  28.8517680  80.7219930   6.3242550  27.5138200  80.0159240   6.2673090
  30.7693470  77.6103380   7.8804150  30.8889680  77.0144520   8.6198990
  31.6287470  77.6473070   7.4605450  33.1081370  78.1640570   6.4566660
  32.5816590  78.6883190   5.8531800  33.4512710  78.7967960   7.0876390
  26.2836990  86.1840210   7.6124040  25.7458080  86.9086270   7.2932740
  26.5370950  85.7070550   6.8221380  27.5362240  74.1524730   9.1379970
  28.1261930  73.8440580   9.8257790  26.7182480  73.6804480   9.2939870
  32.3555670  73.7690540   9.3712990  31.6671190  73.1072080   9.3062980
  33.0761690  73.3228810   9.8161450  29.1399200  87.4191420   7.8710690
  29.0657900  88.3226560   8.1783060  28.2378040  87.1003320   7.8432760
  21.0316700  85.6136600   3.9125940  20.5947690  85.7937400   4.7450090
  21.5994380  86.3711220   3.7707660  36.6678880  85.1153600   8.2003250
  36.0680870  85.1746160   7.4567170  36.7972780  84.1758580   8.3300100
  35.3530520  81.8405580   6.2979410  34.5390360  82.2702740   6.5605200
  35.7604720  82.4523990   5.6848460  21.9017060  78.5109400   4.8118160
  22.2690100  78.4236800   5.6914180  21.3327880  77.7475950   4.7125020
  36.7020920  76.9793780   7.8248630  36.4707010  76.7506530   6.9246580
  36.9625470  77.8993330   7.7793520  21.4533060  75.4218490   8.7176580
  20.5589110  75.3885250   9.0570290  21.9930610  75.6205280   9.4827830
  35.1408990  72.2050210  10.6028330  36.0179170  72.2133610  10.9862330
  35.1529830  71.4681050   9.9920680  36.7661980  76.1419620   5.0135900
  35.8164690  76.1083160   5.1280890  36.9474990  77.0519730   4.7785670
  21.9572770  69.6966820   3.0659800  22.6048960  69.1464200   2.6254960
  22.3774610  69.9509970   3.8875610  35.8525110  69.8908180   6.4229440
  36.4897330  70.5042320   6.7888630  36.0000000  69.9268840   5.4778670
  21.7104770  69.8522490   5.8085120  21.3619590  70.3086310   6.5743300
  21.3792470  68.9579620   5.8907550  23.3169140  83.0242090   9.9738310
  23.2738770  82.6535000  10.8552770  23.4480150  83.9619660  10.1140130
  27.0175170  84.5801680   5.5748030  26.7766530  84.8476240   4.6878550
  27.9577810  84.7507410   5.6298890  29.2229590  71.0434370   9.3304540
  29.1618480  71.6356200  10.0799950  30.1629970  70.9360330   9.1854800
  31.8604150  70.7004430   8.9696830  32.4744560  71.0183720   8.3077910
  32.4053710  70.2153020   9.5892690  38.2779330  86.5996060   6.3758670
  37.7837610  86.9964930   5.6585800  37.6692620  85.9745270   6.7695950
  22.3825410  69.3798690   9.0835890  22.9308400  69.1986740   8.3202000
  22.4480720  68.5892800   9.6192200  23.1557170  85.9704340   7.0936090
  22.5617490  85.8389040   7.8326130  23.1481010  85.1342480   6.6278190
  32.6012190  69.2636570   5.2966120  31.7272030  69.5971680   5.0939050
  32.4922940  68.7909750   6.1217990  33.5084170  71.4707440   6.6807840
  33.1797530  70.6559200   6.3009570  34.4566470  71.4277250   6.5573530
  35.9618780  87.2419480   3.6545410  35.5021750  87.9935290   3.2803430
  35.3331240  86.5225950   3.5960210  22.7869400  83.3362720   6.0444130
  22.0603460  82.7168010   5.9770080  22.8478550  83.7303330   5.1742210
  26.3914500  85.5507720   2.8293540  26.9079520  84.9395080   2.3041800
  27.0411880  86.0536500   3.3204550  29.1310000  86.4416210   3.6562520
  29.4187810  86.1870510   2.7795530  29.6433220  85.8893570   4.2468090
  30.3487010  70.1806410   4.2359030  29.5658800  70.6551910   4.5155790
  30.0549940  69.2761240   4.1272210  34.9008080  70.8829510   2.2808120
  35.3416170  70.8274610   1.4329720  34.6315670  71.7987520   2.3518300
  29.1982360  87.3632310  11.0230720  30.1249670  87.1276580  11.0666680
  29.1832790  88.1904310  10.5416750  26.3845970  70.0277060  10.7872600
  26.1030240  70.5310660  10.0233420  26.7665670  69.2298810  10.4214730
  32.9861430  69.4430640  11.3653070  32.8726880  69.7625250  12.2604590
  33.8031170  69.8443150  11.0690350  35.7659920  86.5902170  10.8471760
  36.5585240  86.0951400  10.6397720  36.0593070  87.2692310  11.4547370
  31.8919580  58.6879620 150.6979220  31.8113630  57.7734230 150.4270930
  31.4784000  59.1846690 149.9918930  30.0237620  60.4658640 152.5788490
  29.2479720  59.9859080 152.8687060  30.6750550  59.7864290 152.4044650
  34.0445050  64.8718830 151.3587620  33.5826580  64.1006070 151.6874790
  34.8570600  64.8984900 151.8640070  22.4495400  55.7380340 147.2406640
  21.5612100  56.0796310 147.1386520  22.7336590  55.5380660 146.3487470
  20.4128410  58.3385990 153.1246340  20.9844520  57.5708190 153.1249980
  20.4129950  58.6374750 152.2152950  30.2708360  67.1576840 150.9791610
  29.6519800  67.6134340 150.4086050  31.1260140  67.3128300 150.5781310
  29.4646610  63.1415830 152.5858650  29.3954890  62.2005770 152.4247780
  30.2266470  63.2317240 153.1581220  30.4951780  55.9486210 152.8127580
  30.8716600  55.0758090 152.7001250  30.3971290  56.2844910 151.9218020
  24.6256790  54.3211840 148.2745020  24.7323540  55.2215570 148.5813780
  23.7149150  54.2729810 147.9839670  34.2775900  53.4436650 149.7455920
  35.0985520  52.9533220 149.7881400  34.3109980  54.0334310 150.4987760
  31.1371710  62.0416080 148.3723520  30.5188980  62.5065530 147.8086240
  31.6494960  62.7343560 148.7893030  34.5137380  55.3837030 152.5183460
  33.8092950  55.6721920 153.0986570  34.8749540  56.1937140 152.1583020
  20.5054910  62.7272610 145.7463150  20.1282890  63.2159710 145.0148050
  20.7627980  63.3997890 146.3769680  28.1143840  51.1289000 151.2048660
  28.4218820  50.5735890 150.4884160  27.1844540  51.2633460 151.0221650
  34.9604320  63.5672510 148.5846290  34.8500650  62.6246840 148.7095710
  34.9572570  63.9288150 149.4709050  30.5024600  59.1937830 147.9408780
  29.5753880  59.1275210 148.1697250  30.6549420  60.1317960 147.8264020
  30.4893680  55.4654830 144.9375940  29.5497350  55.6268790 145.0228400
  30.8076940  56.1840510 144.3911930  34.5321890  60.7558130 148.4444030
  33.9134310  60.4177680 147.7970330  34.5146340  60.1117890 149.1523220
  26.1081240  59.7202570 150.7228510  25.7038240  59.0079820 150.2274410
  26.1944360  59.3755810 151.6116550  26.5762940  63.4070130 152.8867720
  26.2791230  62.8015600 152.2075500  27.5262760  63.4447440 152.7757080
  32.7086590  59.9944940 145.4516780  33.1479870  59.1567370 145.3054600
  33.4215010  60.6274340 145.5380920  30.8181970  64.9341010 149.4198020
  31.2577880  65.6765340 149.0053410  30.7568860  65.1767580 150.3436980
  36.2903730  51.2487750 143.7657820  35.9776390  51.3414580 144.6656890
  37.0516200  51.8268780 143.7155250  22.8085870  58.6147550 148.2235160
  22.6883470  59.3409640 147.6116430  22.4986760  57.8450460 147.7463070
  21.6918870  63.4862880 150.4409980  21.2846950  63.6277470 149.5863580
  22.5831880  63.2023040 150.2381190  33.4852150  67.9210130 146.7761030
  33.3253290  67.6313070 147.6742860  33.3198860  67.1450260 146.2406260
  25.9640530  67.7008660 148.5532650  25.7883010  66.7844200 148.3400450
  25.1096270  68.0595950 148.7930450  33.1878280  65.4297690 145.3359030
  32.4943440  65.4274980 144.6761310  33.9301140  65.0057010 144.9053200
  32.7528210  67.0560400 149.4107520  33.2085160  66.2749780 149.7246140
  33.0920730  67.7667220 149.9548700  25.2749530  51.9582620 151.6058830
  24.8317680  52.7392160 151.2743350  25.8334520  52.2812510 152.3129770
  28.3908350  51.5793320 146.4864660  27.7662530  51.5753190 147.2117970
  28.3038470  50.7124280 146.0900630  25.0663750  57.0816190 149.3340080
  24.8404670  56.8653360 150.2386700  24.2856280  57.5144650 148.9886050
  32.2961510  57.0879560 147.9330730  31.6970400  57.8115360 147.7494350
  32.8441120  57.0256340 147.1507180  30.9026380  55.7243100 149.9634010
  31.2955950  56.0415300 149.1502700  31.2643230  54.8454980 150.0778530
  19.9390550  52.3143900 152.1864210  19.6503600  52.8846760 152.8989190
  20.6836310  51.8348350 152.5495440  20.1260780  56.2564020 143.3966930
  20.0435450  57.1994780 143.5381920  19.7743840  56.1138930 142.5179280
  27.9258910  54.9903050 152.4637280  27.9294970  54.5493000 151.6141820
  28.8210030  55.3120380 152.5709100  23.7761290  54.8729540 151.4231490
  23.4361340  55.3504770 152.1798540  23.0138610  54.4194660 151.0632590
  27.9879060  55.9915130 145.4544040  28.1091880  55.9501610 146.4029860
  27.6027570  56.8539280 145.2990770  27.0000560  58.3016270 144.8527340
  26.4317460  57.8534520 144.2263250  27.7089560  58.6609050 144.3192490
  21.0907370  53.7948520 150.3396160  20.8054290  53.4304190 151.1774780
  21.0286230  53.0628980 149.7259300  24.5448040  62.2974460 147.1253750
  23.7710300  61.7572080 146.9652470  25.2742670  61.7781070 146.7871510
  35.3036020  61.2939820 152.9180140  36.0235140  61.7895110 152.5276250
  35.1017840  60.6157710 152.2734010  30.7645960  52.6877780 147.0609530
  29.9510570  52.1890950 146.9854840  30.5707910  53.5276030 146.6445880
  33.4794350  57.0597430 145.3571690  34.3673970  57.3714660 145.1823030
  33.4499440  56.1869680 144.9652270  24.5885440  61.9654840 150.7632560
  25.1064110  61.1623100 150.7089450  24.1369460  61.9033980 151.6049390
  29.4754940  63.2321120 146.0359860  29.8170640  63.9763350 145.5403180
  28.6467650  63.5452240 146.3984690  35.7508620  58.3709270 144.8251550
  35.6672340  58.8023490 143.9747990  36.4702810  58.8307620 145.2578370
  36.7795870  65.2251530 147.5533680  36.1372030  64.5707150 147.8277400
  36.3926530  65.6306620 146.7774350  32.3582350  62.5536960 151.4005370
  32.7106170  61.9565090 150.7406740  31.4744680  62.2281190 151.5713620
  28.4445630  63.3134650 148.8075780  29.1316760  63.8603860 149.1883370
  27.6578050  63.8575380 148.8425390  20.5838030  58.9307470 144.2992860
  21.4532880  59.2132270 144.5828780  20.0928350  59.7443340 144.1841670
  27.7472840  60.3180680 148.4201140  28.2035620  61.1285930 148.6461330
  27.3961050  60.0003820 149.2519630  23.6484620  50.6618330 148.8923660
  23.5199250  50.6536230 149.8408580  22.8246640  51.0001420 148.5414670
  35.1693250  64.1167990 144.0910030  34.9430830  63.3998430 144.6834670
  34.7789450  63.8680430 143.2531780  20.9509280  68.1434850 144.8654490
  21.3106920  68.7424190 144.2111760  20.8101620  68.6894740 145.6389520
  34.7509500  62.0339930 145.7524190  34.4631200  62.4952620 146.5402070
  35.5461670  61.5737700 146.0208410  26.9677900  65.5266050 145.6828160
  26.9588000  66.2595740 145.0672670  26.0476260  65.2797630 145.7755120
  22.5684540  60.7480940 146.4274920  21.9612490  61.4879840 146.4370220
  23.0433890  60.8380300 145.6013120  35.5079360  53.8688700 146.9119370
  34.8792520  53.9734370 146.1977600  35.0131280  54.0885480 147.7013250
  29.9537500  65.5894290 144.3453350  30.0549480  65.3858280 143.4155330
  29.0539240  65.3352570 144.5501130  27.4763390  56.1474650 148.3277250
  26.7679540  56.6160990 148.7690860  27.7607870  55.4896660 148.9622440
  31.5078820  52.8725310 149.7673040  31.3846600  52.8911440 148.8182550
  32.4563380  52.9204250 149.8871440  28.5955610  68.1080610 149.0401020
  28.8497110  68.0702000 148.1180390  27.6468090  67.9813940 149.0329270
  25.6798410  54.4559730 145.7027960  26.5288940  54.8929880 145.6368150
  25.3129680  54.7679990 146.5300020  34.6008190  59.0272490 150.6159530
  33.6598330  59.0422720 150.7907220  34.9152260  58.2408450 151.0619830
  24.5789830  60.7092090 144.1763490  25.3453100  60.5973450 144.7388920
  24.6564520  60.0130060 143.5240260  23.2736590  58.1417160 144.8596380
  23.3540180  57.1944670 144.9713780  24.1656340  58.4724040 144.9657040
  36.6033770  66.1981340 152.2913790  36.7281190  67.0212510 152.7637600
  37.4699330  65.9872070 151.9437940  24.0751300  68.2912550 151.9630920
  24.8113780  67.7428010 152.2339490  24.4592220  69.1568560 151.8236910
  20.9596780  64.3586120 147.8372430  20.0336560  64.6007260 147.8277840
  21.4253210  65.1860380 147.7157180  27.1853610  67.4642860 143.7856490
  27.9782220  67.7531690 143.3338280  26.6657960  67.0335030 143.1068970
  36.2383780  66.6912990 145.2093230  35.9525290  66.2778130 144.3947410
  36.0403330  67.6200700 145.0893750  27.7031010  62.6846270 143.6498840
  27.5981650  62.0698620 144.3760220  27.5355230  62.1612160 142.8661850
  30.9433740  61.7466300 144.2540830  30.3943840  62.1935600 144.8983570
  31.5653000  61.2415550 144.7778500  26.6108860  60.7057220 146.1506130
  27.0325280  60.5397090 146.9937520  26.7359700  59.8957450 145.6561270
  29.1236500  59.7294830 143.3983230  29.6442160  59.0143850 143.0324380
  29.7704900  60.3680700 143.6983740  25.5067760  56.7790450 143.0964290
  25.3056820  55.9157810 143.4577630  25.3359810  56.6923810 142.1585890
  32.9856070  51.5898680 145.6251170  33.2658360  50.7466580 145.9810590
  32.2121800  51.8221790 146.1389920  24.3050560  53.8791070 143.0842170
  24.6076460  53.8858500 142.1761320  25.0445150  53.5288930 143.5809830
  27.5235490  52.8225690 144.0698370  27.1757490  52.1449680 143.4900820
  27.7248260  52.3615200 144.8841760  29.6884530  67.8106440 145.6884970
  30.5835320  68.1491410 145.7103730  29.7202160  67.0885850 145.0609250
  23.3280690  63.1833490 143.9171970  23.7655560  63.7263160 144.5729550
  23.8128420  62.3580440 143.9268310  20.5426490  65.9722520 151.3692230
  20.8729500  65.1043580 151.1370870  20.9717490  66.1781040 152.1997190
  25.1388410  64.3031530 149.0294200  24.8383950  64.1796500 149.9298110
  25.0325900  63.4440120 148.6209930  37.9080330  64.0827930 143.7320880
  37.0773290  64.1504580 144.2028110  38.0852160  64.9732050 143.4287740
  37.3636790  60.8275410 146.2355080  38.1255700  61.3972060 146.3414770
  37.3791160  60.2602610 147.0063390  20.8641130  59.3513340 150.4662740
  20.2089970  59.0824980 149.8222440  21.7019080  59.2417820 150.0164720
  38.3696760  61.6825510 151.0797010  38.7405590  60.8992830 150.6732980
  39.0098690  62.3714610 150.9014310  37.4155960  61.1209780 143.3927600
  37.6904800  62.0288660 143.2646820  37.2266700  61.0572310 144.3289590
  33.8131570  54.1454630 144.6881230  34.2316450  53.9585610 143.8477890
  33.5067630  53.2933680 144.9984160  37.3121300  59.0578770 148.3857030
  36.9364900  58.2906700 147.9538320  36.5824420  59.4401470 148.8731960
  20.0779210  56.5612270 146.4088070  19.1743290  56.8242470 146.2339730
  20.5619830  56.8323440 145.6288030  36.5872260  57.2836260 151.6864270
  37.1109740  56.7898910 151.0554440  37.1731680  57.4186620 152.4311840
  22.6206420  55.6177810 144.3182450  23.3298120  55.1961030 143.8329730
  21.9046360  55.6853040 143.6865800  22.2680580  51.6717140 143.3585100
  22.9908710  52.2126080 143.6766320  22.5405100  51.3980560 142.4826640
  36.0772230  56.5409610 147.6256680  36.5731350  56.3080480 148.4105560
  35.8788300  55.7021450 147.2094320  37.5059390  55.1770560 150.1594360
  37.3958670  55.0226600 151.0976630  38.2666980  54.6491500 149.9169770
  38.3949660  53.0078480 143.4000500  39.3198970  52.8759660 143.1918790
  38.3725450  53.0871300 144.3536950  38.4688150  53.7789140 146.0257210
  37.6739650  53.7134260 146.5550120  38.6731430  54.7139780 146.0142560
  35.4106570  67.8180690 150.0195600  36.0065640  67.4965260 149.3430020
  35.6684720  67.3452510 150.8108870  34.9008080  52.1086020 152.4756040
  35.3416170  52.0531120 151.6277640  34.6315670  53.0244030 152.5466220
  36.7646650  51.7401260 150.4864860  36.7035050  50.7962480 150.3395880
  37.5438680  51.8481350 151.0318320  21.0699400  67.8793620 149.4488810
  20.9021440  67.2464300 150.1470700  20.2033910  68.0853020 149.0983000
  21.6927420  51.7110400 146.9520670  22.4506780  51.8239280 146.3784700
  21.2304590  52.5479600 146.9064100  28.2341230  53.8249670 149.9422980
  27.4215740  53.4506560 149.6018860  28.7382870  53.0694750 150.2444170
  32.7366210  50.4892120 151.1806050  33.3395580  51.0612330 151.6554570
  31.9959200  51.0531560 150.9579950  35.8800810  50.8913680 146.4546330
  36.0751440  51.7897130 146.7213760  35.0930680  50.6600760 146.9479280
  22.6762100  66.5726850 146.8938950  22.1509720  66.9534880 146.1900910
  22.6006680  67.1977620 147.6148660  24.0652570  52.2374450 145.4922640
  24.5945330  51.4504250 145.3630590  24.6980890  52.9165640 145.7258170
  26.2590410  51.9749590 148.5468030  25.6293150  51.2736900 148.7138160
  25.7195550  52.7353720 148.3301190  37.4327420  68.1314390 148.2152890
  37.6079610  67.4452130 147.5713810  36.7348990  68.6561440 147.8229560
  25.2755070  68.5209230 145.7688200  26.0073890  68.2368510 145.2212090
  25.5348740  68.2822510 146.6587580  24.4369860  64.6373960 145.7734530
  23.8078740  65.1059060 146.3220360  24.5517690  63.7923180 146.2080720
  31.8919580  58.6879620 131.9235730  31.8113630  57.7734230 131.6527440
  31.4784000  59.1846690 131.2175440  30.0237620  60.4658640 133.8045000
  29.2479720  59.9859080 134.0943570  30.6750550  59.7864290 133.6301160
  24.0403450  60.7778450 134.6820760  23.2088330  60.5227160 135.0817270
  24.6484430  60.8489220 135.4178680  34.0445050  64.8718830 132.5844130
  33.5826580  64.1006070 132.9131300  34.8570600  64.8984900 133.0896580
  24.0204710  64.8118540 134.8778780  24.3232750  63.9216280 134.6989000
  24.7648300  65.3688760 134.6501030  22.4495400  55.7380340 128.4663150
  21.5612100  56.0796310 128.3643030  22.7336590  55.5380660 127.5743980
  20.4128410  58.3385990 134.3502850  20.9844520  57.5708190 134.3506490
  20.4129950  58.6374750 133.4409460  30.2708360  67.1576840 132.2048120
  29.6519800  67.6134340 131.6342560  31.1260140  67.3128300 131.8037820
  29.4646610  63.1415830 133.8115160  29.3954890  62.2005770 133.6504290
  30.2266470  63.2317240 134.3837730  21.6553280  53.7470350 136.1371780
  21.4756120  52.8496100 136.4174540  21.2533360  54.2942220 136.8118730
  30.4951780  55.9486210 134.0384090  30.8716600  55.0758090 133.9257760
  30.3971290  56.2844910 133.1474530  24.6256790  54.3211840 129.5001530
  24.7323540  55.2215570 129.8070290  23.7149150  54.2729810 129.2096180
  34.2775900  53.4436650 130.9712430  35.0985520  52.9533220 131.0137910
  34.3109980  54.0334310 131.7244270  22.2739950  56.2430850 134.7454120
  22.9550060  56.5069220 135.3641520  21.9588000  55.4031720 135.0792130
  26.4664520  57.2898210 133.8326710  26.9742740  57.7879180 134.4731730
  26.9977760  56.5133410 133.6566070  38.5675450  55.4603400 137.5356060
  37.8627620  55.8485110 137.0171170  38.8333370  56.1553690 138.1376990
  24.7500620  51.9296770 138.0990130  24.7519060  52.4469160 137.2936030
  23.9204930  51.4526950 138.0760060  31.1371710  62.0416080 129.5980030
  30.5188980  62.5065530 129.0342750  31.6494960  62.7343560 130.0149540
  26.0003470  61.5691950 136.2763630  25.6672850  62.1960870 136.9184700
  26.1770150  62.0953830 135.4965300  34.5137380  55.3837030 133.7439970
  33.8092950  55.6721920 134.3243080  34.8749540  56.1937140 133.3839530
  24.4315950  53.6406730 136.1060580  24.7732760  54.4848780 135.8114450
  23.4931760  53.7890470 136.2225920  25.2122570  63.5372750 138.0912810
  25.8296570  64.2123830 137.8097260  24.3515690  63.9460730 138.0000310
  20.5054910  62.7272610 126.9719660  20.1282890  63.2159710 126.2404560
  20.7627980  63.3997890 127.6026190  36.1300160  65.0012160 136.0067450
  35.4463680  65.6711270 135.9984120  36.6694450  65.1992810 135.2412310
  37.5824300  54.8291820 134.1349180  36.6349210  54.8630800 134.2664610
  37.9074290  55.6430770 134.5198540  28.1143840  51.1289000 132.4305170
  28.4218820  50.5735890 131.7140670  27.1844540  51.2633460 132.2478160
  33.6658900  66.8456290 134.7212630  33.6786060  66.4418580 133.8534890
  33.1134120  67.6203580 134.6174060  34.9604320  63.5672510 129.8102800
  34.8500650  62.6246840 129.9352220  34.9572570  63.9288150 130.6965560
  33.0644340  61.7486130 136.0495240  33.4813130  61.5346240 135.2148700
  33.7884160  62.0058920 136.6203860  30.5024600  59.1937830 129.1665290
  29.5753880  59.1275210 129.3953760  30.6549420  60.1317960 129.0520530
  30.4893680  55.4654830 126.1632450  29.5497350  55.6268790 126.2484910
  30.8076940  56.1840510 125.6168440  37.0106440  60.1473350 136.1411480
  36.1825070  60.2166440 135.6661610  37.6056920  60.7327660 135.6727310
  34.5321890  60.7558130 129.6700540  33.9134310  60.4177680 129.0226840
  34.5146340  60.1117890 130.3779730  33.9748450  56.9342670 137.0866350
  33.5619630  57.7596380 137.3406340  33.2424400  56.3487710 136.8942710
  26.1081240  59.7202570 131.9485020  25.7038240  59.0079820 131.4530920
  26.1944360  59.3755810 132.8373060  26.5762940  63.4070130 134.1124230
  26.2791230  62.8015600 133.4332010  27.5262760  63.4447440 134.0013590
  24.8209860  56.4945780 135.7284060  25.3724450  56.6041120 134.9537310
  25.3353370  56.8683380 136.4439290  34.6648550  66.9802000 137.7747330
  34.1879110  67.7874190 137.5819940  33.9810340  66.3280330 137.9273540
  25.6681370  63.1451820 140.7632030  24.7709900  63.3691790 141.0105430
  25.6934240  63.2686760 139.8143430  32.7086590  59.9944940 126.6773290
  33.1479870  59.1567370 126.5311110  33.4215010  60.6274340 126.7637430
  24.4952590  60.0165140 139.3389400  24.3560360  60.8887940 139.7076800
  23.6133950  59.6737950 139.1937340  30.8181970  64.9341010 130.6454530
  31.2577880  65.6765340 130.2309920  30.7568860  65.1767580 131.5693490
  26.2932940  65.9586840 141.5474550  26.2648370  66.3629790 140.6802980
  26.1297910  65.0297200 141.3846150  36.2903730  51.2487750 124.9914330
  35.9776390  51.3414580 125.8913400  37.0516200  51.8268780 124.9411760
  22.8085870  58.6147550 129.4491670  22.6883470  59.3409640 128.8372940
  22.4986760  57.8450460 128.9719580  38.2447760  66.7413940 142.8438720
  38.7207480  67.2196830 143.5227800  38.8654920  66.6731430 142.1184220
  20.4471240  61.7862690 135.2560310  20.5251660  61.9211460 134.3116030
  21.0612920  61.0778580 135.4488430  21.6918870  63.4862880 131.6666490
  21.2846950  63.6277470 130.8120090  22.5831880  63.2023040 131.4637700
  37.6481010  63.9326790 140.0038730  37.7744070  63.6938670 139.0855910
  37.6902390  63.1011330 140.4760810  31.5097750  67.6354790 138.5733540
  32.0242420  67.5462800 139.3755970  30.6666830  67.9814490 138.8661450
  33.4852150  67.9210130 128.0017540  33.3253290  67.6313070 128.8999370
  33.3198860  67.1450260 127.4662770  25.9640530  67.7008660 129.7789160
  25.7883010  66.7844200 129.5656960  25.1096270  68.0595950 130.0186960
  33.1878280  65.4297690 126.5615540  32.4943440  65.4274980 125.9017820
  33.9301140  65.0057010 126.1309710  32.7528210  67.0560400 130.6364030
  33.2085160  66.2749780 130.9502650  33.0920730  67.7667220 131.1805210
  37.5005020  55.9859250 140.9688470  36.8849290  56.4938920 140.4403930
  37.1801440  55.0857580 140.9114410  20.5030760  62.8276860 137.7954770
  20.6661800  62.3582220 136.9774140  20.9683210  62.3200420 138.4603610
  25.2749530  51.9582620 132.8315340  24.8317680  52.7392160 132.4999860
  25.8334520  52.2812510 133.5386280  29.5619340  54.8251140 138.4350660
  29.0998710  55.0334160 139.2470600  29.1597450  54.0110490 138.1321330
  34.5623850  56.0460090 139.5647320  33.7117440  55.7465840 139.8856390
  34.4025640  56.2902100 138.6531140  31.6573560  57.5461840 141.6646110
  31.9826970  56.7125590 141.3248340  32.4453890  58.0690360 141.8124440
  28.3908350  51.5793320 127.7121170  27.7662530  51.5753190 128.4374480
  28.3038470  50.7124280 127.3157140  27.3125430  52.5029950 134.6904940
  27.6097760  53.4092780 134.6096960  27.8610990  52.0148730 134.0764510
  25.0663750  57.0816190 130.5596590  24.8404670  56.8653360 131.4643210
  24.2856280  57.5144650 130.2142560  32.2961510  57.0879560 129.1587240
  31.6970400  57.8115360 128.9750860  32.8441120  57.0256340 128.3763690
  27.5062960  57.9801770 141.2256860  27.4106560  57.0396500 141.0757260
  28.3494940  58.2016840 140.8304930  30.9026380  55.7243100 131.1890520
  31.2955950  56.0415300 130.3759210  31.2643230  54.8454980 131.3035040
  22.6373500  54.3915440 139.3790640  22.2436890  55.2390650 139.5863420
  21.9491900  53.7541810 139.5699280  29.2118550  54.4750410 142.4487380
  28.5216870  54.2822610 143.0833470  29.9550850  54.7585050 142.9811680
  19.9390550  52.3143900 133.4120720  19.6503600  52.8846760 134.1245700
  20.6836310  51.8348350 133.7751950  20.1260780  56.2564020 124.6223440
  20.0435450  57.1994780 124.7638430  19.7743840  56.1138930 123.7435790
  31.4881520  58.3148850 135.2841300  30.7562640  58.8235660 135.6331400
  31.0905860  57.4978830 134.9830080  27.9258910  54.9903050 133.6893790
  27.9294970  54.5493000 132.8398330  28.8210030  55.3120380 133.7965610
  23.7761290  54.8729540 132.6488000  23.4361340  55.3504770 133.4055050
  23.0138610  54.4194660 132.2889100  27.9879060  55.9915130 126.6800550
  28.1091880  55.9501610 127.6286370  27.6027570  56.8539280 126.5247280
  31.9507430  53.7682530 134.6964240  31.9680170  54.2191180 135.5406090
  31.7023010  52.8688170 134.9097680  27.0000560  58.3016270 126.0783850
  26.4317460  57.8534520 125.4519760  27.7089560  58.6609050 125.5449000
  35.3778180  51.1814710 140.5350620  35.7023950  50.4504370 141.0608600
  35.4134690  50.8628350 139.6331610  22.0769740  62.2028290 139.9550580
  21.6924530  61.5621960 140.5533540  22.3881930  62.9064410 140.5245310
  28.2266880  59.0504830 135.4359200  28.5937010  58.5763400 136.1820540
  28.0371940  59.9246400 135.7767540  21.0907370  53.7948520 131.5652670
  20.8054290  53.4304190 132.4031290  21.0286230  53.0628980 130.9515810
  26.0166250  58.0913470 137.7543410  25.7123320  58.9705450 137.9793770
  26.9712710  58.1513260 137.7900850  24.5448040  62.2974460 128.3510260
  23.7710300  61.7572080 128.1908980  25.2742670  61.7781070 128.0128020
  35.3036020  61.2939820 134.1436650  36.0235140  61.7895110 133.7532760
  35.1017840  60.6157710 133.4990520  30.7645960  52.6877780 128.2866040
  29.9510570  52.1890950 128.2111350  30.5707910  53.5276030 127.8702390
  30.6854820  61.3648880 140.0305650  30.6192130  60.4444550 139.7763240
  30.0559960  61.4624320 140.7450290  33.4794350  57.0597430 126.5828200
  34.3673970  57.3714660 126.4079540  33.4499440  56.1869680 126.1908780
  24.5885440  61.9654840 131.9889070  25.1064110  61.1623100 131.9345960
  24.1369460  61.9033980 132.8305900  29.4754940  63.2321120 127.2616370
  29.8170640  63.9763350 126.7659690  28.6467650  63.5452240 127.6241200
  22.0729980  58.9316210 138.9014770  21.7144920  59.5970060 139.4888110
  21.7784540  58.0999760 139.2727390  25.2743100  59.3900450 141.7854320
  24.9743240  59.5357630 140.8882140  26.0454340  58.8305740 141.6927710
  30.6171550  64.1869450 139.7809450  30.6316090  63.2550410 139.5628360
  29.9096650  64.2729210 140.4199220  35.7508620  58.3709270 126.0508060
  35.6672340  58.8023490 125.2004500  36.4702810  58.8307620 126.4834880
  36.8282760  60.8276790 139.1278030  36.1030950  61.4205570 138.9307420
  37.3558220  60.8200330 138.3291400  36.7795870  65.2251530 128.7790190
  36.1372030  64.5707150 129.0533910  36.3926530  65.6306620 128.0030860
  32.3582350  62.5536960 132.6261880  32.7106170  61.9565090 131.9663250
  31.4744680  62.2281190 132.7970130  28.4445630  63.3134650 130.0332290
  29.1316760  63.8603860 130.4139880  27.6578050  63.8575380 130.0681900
  20.5838030  58.9307470 125.5249370  21.4532880  59.2132270 125.8085290
  20.0928350  59.7443340 125.4098180  27.7472840  60.3180680 129.6457650
  28.2035620  61.1285930 129.8717840  27.3961050  60.0003820 130.4776140
  30.0505450  65.8287020 136.8749950  30.6947670  66.0346400 137.5523370
  30.4134890  65.0675420 136.4220800  23.6484620  50.6618330 130.1180170
  23.5199250  50.6536230 131.0665090  22.8246640  51.0001420 129.7671180
  31.3237530  63.8319370 135.5927400  31.9659760  63.1312530 135.7059570
  31.8486880  64.6117810 135.4124290  35.1693250  64.1167990 125.3166540
  34.9430830  63.3998430 125.9091180  34.7789450  63.8680430 124.4788290
  33.0975150  64.6314270 138.7963460  33.4331390  65.2180960 139.4741380
  32.1775490  64.5006980 139.0261250  20.9509280  68.1434850 126.0911000
  21.3106920  68.7424190 125.4368270  20.8101620  68.6894740 126.8646030
  20.6478550  52.4209450 139.5786870  19.9337070  52.6206370 140.1839480
  21.0673590  51.6449020 139.9501670  34.7509500  62.0339930 126.9780700
  34.4631200  62.4952620 127.7658580  35.5461670  61.5737700 127.2464920
  20.9351140  66.4089710 140.5653400  21.0442260  65.4684450 140.4248790
  20.2831700  66.6744460 139.9167130  28.9263730  64.6805600 141.9651520
  28.6060600  63.9614840 142.5097210  28.2522090  65.3560670 142.0387580
  26.9677900  65.5266050 126.9084670  26.9588000  66.2595740 126.2929180
  26.0476260  65.2797630 127.0011630  22.5684540  60.7480940 127.6531430
  21.9612490  61.4879840 127.6626730  23.0433890  60.8380300 126.8269630
  32.1417330  54.9131760 137.3288320  32.5098150  54.0926970 137.6567890
  31.2815530  54.9733650 137.7443970  35.5079360  53.8688700 128.1375880
  34.8792520  53.9734370 127.4234110  35.0131280  54.0885480 128.9269760
  29.9537500  65.5894290 125.5709860  30.0549480  65.3858280 124.6411840
  29.0539240  65.3352570 125.7757640  27.4763390  56.1474650 129.5533760
  26.7679540  56.6160990 129.9947370  27.7607870  55.4896660 130.1878950
  29.1019320  57.5671350 137.5526290  29.6004570  58.0417170 138.2178140
  29.2442270  56.6434870 137.7596320  31.5078820  52.8725310 130.9929550
  31.3846600  52.8911440 130.0439060  32.4563380  52.9204250 131.1127950
  28.5955610  68.1080610 130.2657530  28.8497110  68.0702000 129.3436900
  27.6468090  67.9813940 130.2585780  25.6798410  54.4559730 126.9284470
  26.5288940  54.8929880 126.8624660  25.3129680  54.7679990 127.7556530
  36.3086180  53.7839310 138.3954680  35.8059780  54.5244710 138.7348490
  37.1242840  54.1723310 138.0791470  34.6008190  59.0272490 131.8416040
  33.6598330  59.0422720 132.0163730  34.9152260  58.2408450 132.2876340
  24.5789830  60.7092090 125.4020000  25.3453100  60.5973450 125.9645430
  24.6564520  60.0130060 124.7496770  23.2736590  58.1417160 126.0852890
  23.3540180  57.1944670 126.1970290  24.1656340  58.4724040 126.1913550
  36.6033770  66.1981340 133.5170300  36.7281190  67.0212510 133.9894110
  37.4699330  65.9872070 133.1694450  24.0751300  68.2912550 133.1887430
  24.8113780  67.7428010 133.4596000  24.4592220  69.1568560 133.0493420
  20.9596780  64.3586120 129.0628940  20.0336560  64.6007260 129.0534350
  21.4253210  65.1860380 128.9413690  23.0809580  67.4758620 142.3773010
  23.8822310  67.7970670 142.7908410  22.5661400  67.1154200 143.0992920
  27.1853610  67.4642860 125.0113000  27.9782220  67.7531690 124.5594790
  26.6657960  67.0335030 124.3325480  31.9174210  63.5838490 142.3248420
  31.3112370  63.6070090 141.5844170  31.6128320  62.8521530 142.8615670
  33.3474580  67.3118780 140.9357830  34.2996330  67.2276800 140.8858070
  33.2002800  67.9760490 141.6091620  36.2383780  66.6912990 126.4349740
  35.9525290  66.2778130 125.6203920  36.0403330  67.6200700 126.3150260
  20.8007390  59.9632080 141.3209060  21.3046410  59.3839360 141.8925290
  20.0614810  60.2472310 141.8585430  27.7031010  62.6846270 124.8755350
  27.5981650  62.0698620 125.6016730  27.5355230  62.1612160 124.0918360
  27.8545330  61.3703070 140.8544580  27.0891000  61.9388070 140.7699250
  28.0361290  61.0779280 139.9612810  30.9433740  61.7466300 125.4797340
  30.3943840  62.1935600 126.1240080  31.5653000  61.2415550 126.0035010
  34.9968680  63.1008400 141.4119600  35.7378150  63.4384160 140.9087060
  34.2341360  63.2700460 140.8589370  22.8330470  58.1061670 142.2159130
  22.8735810  57.8075540 143.1244360  23.6875970  58.5069280 142.0566650
  26.6108860  60.7057220 127.3762640  27.0325280  60.5397090 128.2194030
  26.7359700  59.8957450 126.8817780  24.7736280  56.6853770 140.1833620
  24.2432740  56.1944720 139.5556960  25.4424350  57.1137970 139.6491550
  29.1236500  59.7294830 124.6239740  29.6442160  59.0143850 124.2580890
  29.7704900  60.3680700 124.9240250  33.6714340  61.1523230 139.9474810
  34.0855360  61.3068310 140.7965230  32.7365340  61.2778450 140.1100590
  34.1436510  58.4919390 141.9513960  34.7257280  57.7371710 141.8634440
  34.3198280  59.0226830 141.1745440  25.2608580  53.6516140 140.2630910
  25.1665450  53.0336890 139.5381780  24.6805970  54.3782430 140.0360820
  28.0270020  52.2089380 137.2958300  27.5787320  52.2313640 136.4503850
  27.3935220  51.8108400 137.8928600  28.4329570  61.1043710 137.9170740
  28.8517680  61.9476440 137.7446980  27.5138200  61.2415750 137.6877520
  30.7693470  58.8359890 139.3008580  30.8889680  58.2401030 140.0403420
  31.6287470  58.8729580 138.8809880  33.1081370  59.3897080 137.8771090
  32.5816590  59.9139700 137.2736230  33.4512710  60.0224470 138.5080820
  25.5067760  56.7790450 124.3220800  25.3056820  55.9157810 124.6834140
  25.3359810  56.6923810 123.3842400  26.2836990  67.4096720 139.0328470
  25.7458080  68.1342780 138.7137170  26.5370950  66.9327060 138.2425810
  27.5362240  55.3781240 140.5584400  28.1261930  55.0697090 141.2462220
  26.7182480  54.9060990 140.7144300  32.3555670  54.9947050 140.7917420
  31.6671190  54.3328590 140.7267410  33.0761690  54.5485320 141.2365880
  32.9856070  51.5898680 126.8507680  33.2658360  50.7466580 127.2067100
  32.2121800  51.8221790 127.3646430  24.3050560  53.8791070 124.3098680
  24.6076460  53.8858500 123.4017830  25.0445150  53.5288930 124.8066340
  29.1399200  68.6447930 139.2915120  29.0657900  69.5483070 139.5987490
  28.2378040  68.3259830 139.2637190  27.5235490  52.8225690 125.2954880
  27.1757490  52.1449680 124.7157330  27.7248260  52.3615200 126.1098270
  29.6884530  67.8106440 126.9141480  30.5835320  68.1491410 126.9360240
  29.7202160  67.0885850 126.2865760  23.3280690  63.1833490 125.1428480
  23.7655560  63.7263160 125.7986060  23.8128420  62.3580440 125.1524820
  20.5426490  65.9722520 132.5948740  20.8729500  65.1043580 132.3627380
  20.9717490  66.1781040 133.4253700  25.1388410  64.3031530 130.2550710
  24.8383950  64.1796500 131.1554620  25.0325900  63.4440120 129.8466440
  21.0316700  66.8393110 135.3330370  20.5947690  67.0193910 136.1654520
  21.5994380  67.5967730 135.1912090  36.6678880  66.3410110 139.6207680
  36.0680870  66.4002670 138.8771600  36.7972780  65.4015090 139.7504530
  37.9080330  64.0827930 124.9577390  37.0773290  64.1504580 125.4284620
  38.0852160  64.9732050 124.6544250  37.3636790  60.8275410 127.4611590
  38.1255700  61.3972060 127.5671280  37.3791160  60.2602610 128.2319900
  20.8641130  59.3513340 131.6919250  20.2089970  59.0824980 131.0478950
  21.7019080  59.2417820 131.2421230  38.3696760  61.6825510 132.3053520
  38.7405590  60.8992830 131.8989490  39.0098690  62.3714610 132.1270820
  35.3530520  63.0662090 137.7183840  34.5390360  63.4959250 137.9809630
  35.7604720  63.6780500 137.1052890  37.4155960  61.1209780 124.6184110
  37.6904800  62.0288660 124.4903330  37.2266700  61.0572310 125.5546100
  33.8131570  54.1454630 125.9137740  34.2316450  53.9585610 125.0734400
  33.5067630  53.2933680 126.2240670  37.3121300  59.0578770 129.6113540
  36.9364900  58.2906700 129.1794830  36.5824420  59.4401470 130.0988470
  21.9017060  59.7365910 136.2322590  22.2690100  59.6493310 137.1118610
  21.3327880  58.9732460 136.1329450  36.7020920  58.2050290 139.2453060
  36.4707010  57.9763040 138.3451010  36.9625470  59.1249840 139.1997950
  21.4533060  56.6475000 140.1381010  20.5589110  56.6141760 140.4774720
  21.9930610  56.8461790 140.9032260  35.1408990  53.4306720 142.0232760
  36.0179170  53.4390120 142.4066760  35.1529830  52.6937560 141.4125110
  20.0779210  56.5612270 127.6344580  19.1743290  56.8242470 127.4596240
  20.5619830  56.8323440 126.8544540  36.5872260  57.2836260 132.9120780
  37.1109740  56.7898910 132.2810950  37.1731680  57.4186620 133.6568350
  36.7661980  57.3676130 136.4340330  35.8164690  57.3339670 136.5485320
  36.9474990  58.2776240 136.1990100  22.6206420  55.6177810 125.5438960
  23.3298120  55.1961030 125.0586240  21.9046360  55.6853040 124.9122310
  22.2680580  51.6717140 124.5841610  22.9908710  52.2126080 124.9022830
  22.5405100  51.3980560 123.7083150  36.0772230  56.5409610 128.8513190
  36.5731350  56.3080480 129.6362070  35.8788300  55.7021450 128.4350830
  21.9572770  50.9223330 134.4864230  22.6048960  50.3720710 134.0459390
  22.3774610  51.1766480 135.3080040  37.5059390  55.1770560 131.3850870
  37.3958670  55.0226600 132.3233140  38.2666980  54.6491500 131.1426280
  35.8525110  51.1164690 137.8433870  36.4897330  51.7298830 138.2093060
  36.0000000  51.1525350 136.8983100  38.3949660  53.0078480 124.6257010
  39.3198970  52.8759660 124.4175300  38.3725450  53.0871300 125.5793460
  38.4688150  53.7789140 127.2513720  37.6739650  53.7134260 127.7806630
  38.6731430  54.7139780 127.2399070  35.4106570  67.8180690 131.2452110
  36.0065640  67.4965260 130.5686530  35.6684720  67.3452510 132.0365380
  21.7104770  51.0779000 137.2289550  21.3619590  51.5342820 137.9947730
  21.3792470  50.1836130 137.3111980  23.3169140  64.2498600 141.3942740
  23.2738770  63.8791510 142.2757200  23.4480150  65.1876170 141.5344560
  27.0175170  65.8058190 136.9952460  26.7766530  66.0732750 136.1082980
  27.9577810  65.9763920 137.0503320  29.2229590  52.2690880 140.7508970
  29.1618480  52.8612710 141.5004380  30.1629970  52.1616840 140.6059230
  31.8604150  51.9260940 140.3901260  32.4744560  52.2440230 139.7282340
  32.4053710  51.4409530 141.0097120  38.2779330  67.8252570 137.7963100
  37.7837610  68.2221440 137.0790230  37.6692620  67.2001780 138.1900380
  22.3825410  50.6055200 140.5040320  22.9308400  50.4243250 139.7406430
  22.4480720  49.8149310 141.0396630  23.1557170  67.1960850 138.5140520
  22.5617490  67.0645550 139.2530560  23.1481010  66.3598990 138.0482620
  32.6012190  50.4893080 136.7170550  31.7272030  50.8228190 136.5143480
  32.4922940  50.0166260 137.5422420  33.5084170  52.6963950 138.1012270
  33.1797530  51.8815710 137.7214000  34.4566470  52.6533760 137.9777960
  35.9618780  68.4675990 135.0749840  35.5021750  69.2191800 134.7007860
  35.3331240  67.7482460 135.0164640  22.7869400  64.5619230 137.4648560
  22.0603460  63.9424520 137.3974510  22.8478550  64.9559840 136.5946640
  26.3914500  66.7764230 134.2497970  26.9079520  66.1651590 133.7246230
  27.0411880  67.2793010 134.7408980  29.1310000  67.6672720 135.0766950
  29.4187810  67.4127020 134.1999960  29.6433220  67.1150080 135.6672520
  30.3487010  51.4062920 135.6563460  29.5658800  51.8808420 135.9360220
  30.0549940  50.5017750 135.5476640  34.9008080  52.1086020 133.7012550
  35.3416170  52.0531120 132.8534150  34.6315670  53.0244030 133.7722730
  36.7646650  51.7401260 131.7121370  36.7035050  50.7962480 131.5652390
  37.5438680  51.8481350 132.2574830  21.0699400  67.8793620 130.6745320
  20.9021440  67.2464300 131.3727210  20.2033910  68.0853020 130.3239510
  21.6927420  51.7110400 128.1777180  22.4506780  51.8239280 127.6041210
  21.2304590  52.5479600 128.1320610  28.2341230  53.8249670 131.1679490
  27.4215740  53.4506560 130.8275370  28.7382870  53.0694750 131.4700680
  32.7366210  50.4892120 132.4062560  33.3395580  51.0612330 132.8811080
  31.9959200  51.0531560 132.1836460  35.8800810  50.8913680 127.6802840
  36.0751440  51.7897130 127.9470270  35.0930680  50.6600760 128.1735790
  22.6762100  66.5726850 128.1195460  22.1509720  66.9534880 127.4157420
  22.6006680  67.1977620 128.8405170  24.0652570  52.2374450 126.7179150
  24.5945330  51.4504250 126.5887100  24.6980890  52.9165640 126.9514680
  26.2590410  51.9749590 129.7724540  25.6293150  51.2736900 129.9394670
  25.7195550  52.7353720 129.5557700  29.1982360  68.5888820 142.4435150
  30.1249670  68.3533090 142.4871110  29.1832790  69.4160820 141.9621180
  37.4327420  68.1314390 129.4409400  37.6079610  67.4452130 128.7970320
  36.7348990  68.6561440 129.0486070  26.3845970  51.2533570 142.2077030
  26.1030240  51.7567170 141.4437850  26.7665670  50.4555320 141.8419160
  25.2755070  68.5209230 126.9944710  26.0073890  68.2368510 126.4468600
  25.5348740  68.2822510 127.8844090  24.4369860  64.6373960 126.9991040
  23.8078740  65.1059060 127.5476870  24.5517690  63.7923180 127.4337230
  32.9861430  50.6687150 142.7857500  32.8726880  50.9881760 143.6809020
  33.8031170  51.0699660 142.4894780  35.7659920  67.8158680 142.2676190
  36.5585240  67.3207910 142.0602150  36.0593070  68.4948820 142.8751800
  31.8919580  58.6879620 113.1492240  31.8113630  57.7734230 112.8783950
  31.4784000  59.1846690 112.4431950  30.0237620  60.4658640 115.0301510
  29.2479720  59.9859080 115.3200080  30.6750550  59.7864290 114.8557670
  24.0403450  60.7778450 115.9077270  23.2088330  60.5227160 116.3073780
  24.6484430  60.8489220 116.6435190  24.0204710  64.8118540 116.1035290
  24.3232750  63.9216280 115.9245510  24.7648300  65.3688760 115.8757540
  22.4495400  55.7380340 109.6919660  21.5612100  56.0796310 109.5899540
  22.7336590  55.5380660 108.8000490  20.4128410  58.3385990 115.5759360
  20.9844520  57.5708190 115.5763000  20.4129950  58.6374750 114.6665970
  29.4646610  63.1415830 115.0371670  29.3954890  62.2005770 114.8760800
  30.2266470  63.2317240 115.6094240  21.6553280  53.7470350 117.3628290
  21.4756120  52.8496100 117.6431050  21.2533360  54.2942220 118.0375240
  24.6256790  54.3211840 110.7258040  24.7323540  55.2215570 111.0326800
  23.7149150  54.2729810 110.4352690  22.2739950  56.2430850 115.9710630
  22.9550060  56.5069220 116.5898030  21.9588000  55.4031720 116.3048640
  26.4664520  57.2898210 115.0583220  26.9742740  57.7879180 115.6988240
  26.9977760  56.5133410 114.8822580  38.5675450  55.4603400 118.7612570
  37.8627620  55.8485110 118.2427680  38.8333370  56.1553690 119.3633500
  24.7500620  51.9296770 119.3246640  24.7519060  52.4469160 118.5192540
  23.9204930  51.4526950 119.3016570  26.0003470  61.5691950 117.5020140
  25.6672850  62.1960870 118.1441210  26.1770150  62.0953830 116.7221810
  24.4315950  53.6406730 117.3317090  24.7732760  54.4848780 117.0370960
  23.4931760  53.7890470 117.4482430  25.2122570  63.5372750 119.3169320
  25.8296570  64.2123830 119.0353770  24.3515690  63.9460730 119.2256820
  20.5054910  62.7272610 108.1976170  20.1282890  63.2159710 107.4661070
  20.7627980  63.3997890 108.8282700  36.1300160  65.0012160 117.2323960
  35.4463680  65.6711270 117.2240630  36.6694450  65.1992810 116.4668820
  28.1143840  51.1289000 113.6561680  28.4218820  50.5735890 112.9397180
  27.1844540  51.2633460 113.4734670  33.0644340  61.7486130 117.2751750
  33.4813130  61.5346240 116.4405210  33.7884160  62.0058920 117.8460370
  30.5024600  59.1937830 110.3921800  29.5753880  59.1275210 110.6210270
  30.6549420  60.1317960 110.2777040  37.0106440  60.1473350 117.3667990
  36.1825070  60.2166440 116.8918120  37.6056920  60.7327660 116.8983820
  26.1081240  59.7202570 113.1741530  25.7038240  59.0079820 112.6787430
  26.1944360  59.3755810 114.0629570  26.5762940  63.4070130 115.3380740
  26.2791230  62.8015600 114.6588520  27.5262760  63.4447440 115.2270100
  24.8209860  56.4945780 116.9540570  25.3724450  56.6041120 116.1793820
  25.3353370  56.8683380 117.6695800  34.6648550  66.9802000 119.0003840
  34.1879110  67.7874190 118.8076450  33.9810340  66.3280330 119.1530050
  25.6681370  63.1451820 121.9888540  24.7709900  63.3691790 122.2361940
  25.6934240  63.2686760 121.0399940  32.7086590  59.9944940 107.9029800
  33.1479870  59.1567370 107.7567620  33.4215010  60.6274340 107.9893940
  24.4952590  60.0165140 120.5645910  24.3560360  60.8887940 120.9333310
  23.6133950  59.6737950 120.4193850  26.2932940  65.9586840 122.7731060
  26.2648370  66.3629790 121.9059490  26.1297910  65.0297200 122.6102660
  22.8085870  58.6147550 110.6748180  22.6883470  59.3409640 110.0629450
  22.4986760  57.8450460 110.1976090  38.2447760  66.7413940 124.0695230
  38.7207480  67.2196830 124.7484310  38.8654920  66.6731430 123.3440730
  20.4471240  61.7862690 116.4816820  20.5251660  61.9211460 115.5372540
  21.0612920  61.0778580 116.6744940  21.6918870  63.4862880 112.8923000
  21.2846950  63.6277470 112.0376600  22.5831880  63.2023040 112.6894210
  37.6481010  63.9326790 121.2295240  37.7744070  63.6938670 120.3112420
  37.6902390  63.1011330 121.7017320  31.5097750  67.6354790 119.7990050
  32.0242420  67.5462800 120.6012480  30.6666830  67.9814490 120.0917960
  25.9640530  67.7008660 111.0045670  25.7883010  66.7844200 110.7913470
  25.1096270  68.0595950 111.2443470  37.5005020  55.9859250 122.1944980
  36.8849290  56.4938920 121.6660440  37.1801440  55.0857580 122.1370920
  20.5030760  62.8276860 119.0211280  20.6661800  62.3582220 118.2030650
  20.9683210  62.3200420 119.6860120  25.2749530  51.9582620 114.0571850
  24.8317680  52.7392160 113.7256370  25.8334520  52.2812510 114.7642790
  34.5623850  56.0460090 120.7903830  33.7117440  55.7465840 121.1112900
  34.4025640  56.2902100 119.8787650  31.6573560  57.5461840 122.8902620
  31.9826970  56.7125590 122.5504850  32.4453890  58.0690360 123.0380950
  27.3125430  52.5029950 115.9161450  27.6097760  53.4092780 115.8353470
  27.8610990  52.0148730 115.3021020  25.0663750  57.0816190 111.7853100
  24.8404670  56.8653360 112.6899720  24.2856280  57.5144650 111.4399070
  32.2961510  57.0879560 110.3843750  31.6970400  57.8115360 110.2007370
  32.8441120  57.0256340 109.6020200  27.5062960  57.9801770 122.4513370
  27.4106560  57.0396500 122.3013770  28.3494940  58.2016840 122.0561440
  22.6373500  54.3915440 120.6047150  22.2436890  55.2390650 120.8119930
  21.9491900  53.7541810 120.7955790  29.2118550  54.4750410 123.6743890
  28.5216870  54.2822610 124.3089980  29.9550850  54.7585050 124.2068190
  19.9390550  52.3143900 114.6377230  19.6503600  52.8846760 115.3502210
  20.6836310  51.8348350 115.0008460  20.1260780  56.2564020 105.8479950
  20.0435450  57.1994780 105.9894940  19.7743840  56.1138930 104.9692300
  23.7761290  54.8729540 113.8744510  23.4361340  55.3504770 114.6311560
  23.0138610  54.4194660 113.5145610  35.3778180  51.1814710 121.7607130
  35.7023950  50.4504370 122.2865110  35.4134690  50.8628350 120.8588120
  22.0769740  62.2028290 121.1807090  21.6924530  61.5621960 121.7790050
  22.3881930  62.9064410 121.7501820  28.2266880  59.0504830 116.6615710
  28.5937010  58.5763400 117.4077050  28.0371940  59.9246400 117.0024050
  21.0907370  53.7948520 112.7909180  20.8054290  53.4304190 113.6287800
  21.0286230  53.0628980 112.1772320  26.0166250  58.0913470 118.9799920
  25.7123320  58.9705450 119.2050280  26.9712710  58.1513260 119.0157360
  24.5448040  62.2974460 109.5766770  23.7710300  61.7572080 109.4165490
  25.2742670  61.7781070 109.2384530  30.6854820  61.3648880 121.2562160
  30.6192130  60.4444550 121.0019750  30.0559960  61.4624320 121.9706800
  33.4794350  57.0597430 107.8084710  34.3673970  57.3714660 107.6336050
  33.4499440  56.1869680 107.4165290  24.5885440  61.9654840 113.2145580
  25.1064110  61.1623100 113.1602470  24.1369460  61.9033980 114.0562410
  22.0729980  58.9316210 120.1271280  21.7144920  59.5970060 120.7144620
  21.7784540  58.0999760 120.4983900  25.2743100  59.3900450 123.0110830
  24.9743240  59.5357630 122.1138650  26.0454340  58.8305740 122.9184220
  30.6171550  64.1869450 121.0065960  30.6316090  63.2550410 120.7884870
  29.9096650  64.2729210 121.6455730  35.7508620  58.3709270 107.2764570
  35.6672340  58.8023490 106.4261010  36.4702810  58.8307620 107.7091390
  36.8282760  60.8276790 120.3534540  36.1030950  61.4205570 120.1563930
  37.3558220  60.8200330 119.5547910  20.5838030  58.9307470 106.7505880
  21.4532880  59.2132270 107.0341800  20.0928350  59.7443340 106.6354690
  27.7472840  60.3180680 110.8714160  28.2035620  61.1285930 111.0974350
  27.3961050  60.0003820 111.7032650  30.0505450  65.8287020 118.1006460
  30.6947670  66.0346400 118.7779880  30.4134890  65.0675420 117.6477310
  23.6484620  50.6618330 111.3436680  23.5199250  50.6536230 112.2921600
  22.8246640  51.0001420 110.9927690  31.3237530  63.8319370 116.8183910
  31.9659760  63.1312530 116.9316080  31.8486880  64.6117810 116.6380800
  33.0975150  64.6314270 120.0219970  33.4331390  65.2180960 120.6997890
  32.1775490  64.5006980 120.2517760  20.9509280  68.1434850 107.3167510
  21.3106920  68.7424190 106.6624780  20.8101620  68.6894740 108.0902540
  20.6478550  52.4209450 120.8043380  19.9337070  52.6206370 121.4095990
  21.0673590  51.6449020 121.1758180  34.7509500  62.0339930 108.2037210
  34.4631200  62.4952620 108.9915090  35.5461670  61.5737700 108.4721430
  20.9351140  66.4089710 121.7909910  21.0442260  65.4684450 121.6505300
  20.2831700  66.6744460 121.1423640  28.9263730  64.6805600 123.1908030
  28.6060600  63.9614840 123.7353720  28.2522090  65.3560670 123.2644090
  22.5684540  60.7480940 108.8787940  21.9612490  61.4879840 108.8883240
  23.0433890  60.8380300 108.0526140  35.5079360  53.8688700 109.3632390
  34.8792520  53.9734370 108.6490620  35.0131280  54.0885480 110.1526270
  36.3086180  53.7839310 119.6211190  35.8059780  54.5244710 119.9605000
  37.1242840  54.1723310 119.3047980  34.6008190  59.0272490 113.0672550
  33.6598330  59.0422720 113.2420240  34.9152260  58.2408450 113.5132850
  24.5789830  60.7092090 106.6276510  25.3453100  60.5973450 107.1901940
  24.6564520  60.0130060 105.9753280  23.2736590  58.1417160 107.3109400
  23.3540180  57.1944670 107.4226800  24.1656340  58.4724040 107.4170060
  20.9596780  64.3586120 110.2885450  20.0336560  64.6007260 110.2790860
  21.4253210  65.1860380 110.1670200  23.0809580  67.4758620 123.6029520
  23.8822310  67.7970670 124.0164920  22.5661400  67.1154200 124.3249430
  31.9174210  63.5838490 123.5504930  31.3112370  63.6070090 122.8100680
  31.6128320  62.8521530 124.0872180  33.3474580  67.3118780 122.1614340
  34.2996330  67.2276800 122.1114580  33.2002800  67.9760490 122.8348130
  20.8007390  59.9632080 122.5465570  21.3046410  59.3839360 123.1181800
  20.0614810  60.2472310 123.0841940  27.8545330  61.3703070 122.0801090
  27.0891000  61.9388070 121.9955760  28.0361290  61.0779280 121.1869320
  34.9968680  63.1008400 122.6376110  35.7378150  63.4384160 122.1343570
  34.2341360  63.2700460 122.0845880  22.8330470  58.1061670 123.4415640
  22.8735810  57.8075540 124.3500870  23.6875970  58.5069280 123.2823160
  26.6108860  60.7057220 108.6019150  27.0325280  60.5397090 109.4450540
  26.7359700  59.8957450 108.1074290  24.7736280  56.6853770 121.4090130
  24.2432740  56.1944720 120.7813470  25.4424350  57.1137970 120.8748060
  33.6714340  61.1523230 121.1731320  34.0855360  61.3068310 122.0221740
  32.7365340  61.2778450 121.3357100  34.1436510  58.4919390 123.1770470
  34.7257280  57.7371710 123.0890950  34.3198280  59.0226830 122.4001950
  25.2608580  53.6516140 121.4887420  25.1665450  53.0336890 120.7638290
  24.6805970  54.3782430 121.2617330  28.0270020  52.2089380 118.5214810
  27.5787320  52.2313640 117.6760360  27.3935220  51.8108400 119.1185110
  28.4329570  61.1043710 119.1427250  28.8517680  61.9476440 118.9703490
  27.5138200  61.2415750 118.9134030  30.7693470  58.8359890 120.5265090
  30.8889680  58.2401030 121.2659930  31.6287470  58.8729580 120.1066390
  33.1081370  59.3897080 119.1027600  32.5816590  59.9139700 118.4992740
  33.4512710  60.0224470 119.7337330  26.2836990  67.4096720 120.2584980
  25.7458080  68.1342780 119.9393680  26.5370950  66.9327060 119.4682320
  27.5362240  55.3781240 121.7840910  28.1261930  55.0697090 122.4718730
  26.7182480  54.9060990 121.9400810  32.3555670  54.9947050 122.0173930
  31.6671190  54.3328590 121.9523920  33.0761690  54.5485320 122.4622390
  29.1399200  68.6447930 120.5171630  29.0657900  69.5483070 120.8244000
  28.2378040  68.3259830 120.4893700  23.3280690  63.1833490 106.3684990
  23.7655560  63.7263160 107.0242570  23.8128420  62.3580440 106.3781330
  20.5426490  65.9722520 113.8205250  20.8729500  65.1043580 113.5883890
  20.9717490  66.1781040 114.6510210  25.1388410  64.3031530 111.4807220
  24.8383950  64.1796500 112.3811130  25.0325900  63.4440120 111.0722950
  21.0316700  66.8393110 116.5586880  20.5947690  67.0193910 117.3911030
  21.5994380  67.5967730 116.4168600  36.6678880  66.3410110 120.8464190
  36.0680870  66.4002670 120.1028110  36.7972780  65.4015090 120.9761040
  37.9080330  64.0827930 106.1833900  37.0773290  64.1504580 106.6541130
  38.0852160  64.9732050 105.8800760  37.3636790  60.8275410 108.6868100
  38.1255700  61.3972060 108.7927790  37.3791160  60.2602610 109.4576410
  20.8641130  59.3513340 112.9175760  20.2089970  59.0824980 112.2735460
  21.7019080  59.2417820 112.4677740  35.3530520  63.0662090 118.9440350
  34.5390360  63.4959250 119.2066140  35.7604720  63.6780500 118.3309400
  37.4155960  61.1209780 105.8440620  37.6904800  62.0288660 105.7159840
  37.2266700  61.0572310 106.7802610  33.8131570  54.1454630 107.1394250
  34.2316450  53.9585610 106.2990910  33.5067630  53.2933680 107.4497180
  37.3121300  59.0578770 110.8370050  36.9364900  58.2906700 110.4051340
  36.5824420  59.4401470 111.3244980  21.9017060  59.7365910 117.4579100
  22.2690100  59.6493310 118.3375120  21.3327880  58.9732460 117.3585960
  36.7020920  58.2050290 120.4709570  36.4707010  57.9763040 119.5707520
  36.9625470  59.1249840 120.4254460  21.4533060  56.6475000 121.3637520
  20.5589110  56.6141760 121.7031230  21.9930610  56.8461790 122.1288770
  35.1408990  53.4306720 123.2489270  36.0179170  53.4390120 123.6323270
  35.1529830  52.6937560 122.6381620  20.0779210  56.5612270 108.8601090
  19.1743290  56.8242470 108.6852750  20.5619830  56.8323440 108.0801050
  36.5872260  57.2836260 114.1377290  37.1109740  56.7898910 113.5067460
  37.1731680  57.4186620 114.8824860  36.7661980  57.3676130 117.6596840
  35.8164690  57.3339670 117.7741830  36.9474990  58.2776240 117.4246610
  22.6206420  55.6177810 106.7695470  23.3298120  55.1961030 106.2842750
  21.9046360  55.6853040 106.1378820  22.2680580  51.6717140 105.8098120
  22.9908710  52.2126080 106.1279340  22.5405100  51.3980560 104.9339660
  36.0772230  56.5409610 110.0769700  36.5731350  56.3080480 110.8618580
  35.8788300  55.7021450 109.6607340  21.9572770  50.9223330 115.7120740
  22.6048960  50.3720710 115.2715900  22.3774610  51.1766480 116.5336550
  35.8525110  51.1164690 119.0690380  36.4897330  51.7298830 119.4349570
  36.0000000  51.1525350 118.1239610  38.3949660  53.0078480 105.8513520
  39.3198970  52.8759660 105.6431810  38.3725450  53.0871300 106.8049970
  38.4688150  53.7789140 108.4770230  37.6739650  53.7134260 109.0063140
  38.6731430  54.7139780 108.4655580  21.7104770  51.0779000 118.4546060
  21.3619590  51.5342820 119.2204240  21.3792470  50.1836130 118.5368490
  23.3169140  64.2498600 122.6199250  23.2738770  63.8791510 123.5013710
  23.4480150  65.1876170 122.7601070  27.0175170  65.8058190 118.2208970
  26.7766530  66.0732750 117.3339490  27.9577810  65.9763920 118.2759830
  29.2229590  52.2690880 121.9765480  29.1618480  52.8612710 122.7260890
  30.1629970  52.1616840 121.8315740  31.8604150  51.9260940 121.6157770
  32.4744560  52.2440230 120.9538850  32.4053710  51.4409530 122.2353630
  38.2779330  67.8252570 119.0219610  37.7837610  68.2221440 118.3046740
  37.6692620  67.2001780 119.4156890  22.3825410  50.6055200 121.7296830
  22.9308400  50.4243250 120.9662940  22.4480720  49.8149310 122.2653140
  23.1557170  67.1960850 119.7397030  22.5617490  67.0645550 120.4787070
  23.1481010  66.3598990 119.2739130  32.6012190  50.4893080 117.9427060
  31.7272030  50.8228190 117.7399990  32.4922940  50.0166260 118.7678930
  35.9618780  68.4675990 116.3006350  35.5021750  69.2191800 115.9264370
  35.3331240  67.7482460 116.2421150  22.7869400  64.5619230 118.6905070
  22.0603460  63.9424520 118.6231020  22.8478550  64.9559840 117.8203150
  21.0699400  67.8793620 111.9001830  20.9021440  67.2464300 112.5983720
  20.2033910  68.0853020 111.5496020  21.6927420  51.7110400 109.4033690
  22.4506780  51.8239280 108.8297720  21.2304590  52.5479600 109.3577120
  35.8800810  50.8913680 108.9059350  36.0751440  51.7897130 109.1726780
  35.0930680  50.6600760 109.3992300  22.6762100  66.5726850 109.3451970
  22.1509720  66.9534880 108.6413930  22.6006680  67.1977620 110.0661680
  24.0652570  52.2374450 107.9435660  24.5945330  51.4504250 107.8143610
  24.6980890  52.9165640 108.1771190  26.2590410  51.9749590 110.9981050
  25.6293150  51.2736900 111.1651180  25.7195550  52.7353720 110.7814210
  29.1982360  68.5888820 123.6691660  30.1249670  68.3533090 123.7127620
  29.1832790  69.4160820 123.1877690  26.3845970  51.2533570 123.4333540
  26.1030240  51.7567170 122.6694360  26.7665670  50.4555320 123.0675670
  25.2755070  68.5209230 108.2201220  26.0073890  68.2368510 107.6725110
  25.5348740  68.2822510 109.1100600  24.4369860  64.6373960 108.2247550
  23.8078740  65.1059060 108.7733380  24.5517690  63.7923180 108.6593740
  32.9861430  50.6687150 124.0114010  32.8726880  50.9881760 124.9065530
  33.8031170  51.0699660 123.7151290  35.7659920  67.8158680 123.4932700
  36.5585240  67.3207910 123.2858660  36.0593070  68.4948820 124.1008310
  30.0237620  60.4658640  96.2558020  29.2479720  59.9859080  96.5456590
  30.6750550  59.7864290  96.0814180  24.0403450  60.7778450  97.1333780
  23.2088330  60.5227160  97.5330290  24.6484430  60.8489220  97.8691700
  24.0204710  64.8118540  97.3291800  24.3232750  63.9216280  97.1502020
  24.7648300  65.3688760  97.1014050  20.4128410  58.3385990  96.8015870
  20.9844520  57.5708190  96.8019510  20.4129950  58.6374750  95.8922480
  24.6256790  54.3211840  91.9514550  24.7323540  55.2215570  92.2583310
  23.7149150  54.2729810  91.6609200  34.2775900  53.4436650  93.4225450
  35.0985520  52.9533220  93.4650930  34.3109980  54.0334310  94.1757290
  38.5675450  55.4603400  99.9869080  37.8627620  55.8485110  99.4684190
  38.8333370  56.1553690 100.5890010  24.7500620  51.9296770 100.5503150
  24.7519060  52.4469160  99.7449050  23.9204930  51.4526950 100.5273080
  26.0003470  61.5691950  98.7276650  25.6672850  62.1960870  99.3697720
  26.1770150  62.0953830  97.9478320  24.4315950  53.6406730  98.5573600
  24.7732760  54.4848780  98.2627470  23.4931760  53.7890470  98.6738940
  25.2122570  63.5372750 100.5425830  25.8296570  64.2123830 100.2610280
  24.3515690  63.9460730 100.4513330  36.1300160  65.0012160  98.4580470
  35.4463680  65.6711270  98.4497140  36.6694450  65.1992810  97.6925330
  37.5824300  54.8291820  96.5862200  36.6349210  54.8630800  96.7177630
  37.9074290  55.6430770  96.9711560  33.6658900  66.8456290  97.1725650
  33.6786060  66.4418580  96.3047910  33.1134120  67.6203580  97.0687080
  33.0644340  61.7486130  98.5008260  33.4813130  61.5346240  97.6661720
  33.7884160  62.0058920  99.0716880  30.5024600  59.1937830  91.6178310
  29.5753880  59.1275210  91.8466780  30.6549420  60.1317960  91.5033550
  30.4893680  55.4654830  88.6145470  29.5497350  55.6268790  88.6997930
  30.8076940  56.1840510  88.0681460  37.0106440  60.1473350  98.5924500
  36.1825070  60.2166440  98.1174630  37.6056920  60.7327660  98.1240330
  26.5762940  63.4070130  96.5637250  26.2791230  62.8015600  95.8845030
  27.5262760  63.4447440  96.4526610  34.6648550  66.9802000 100.2260350
  34.1879110  67.7874190 100.0332960  33.9810340  66.3280330 100.3786560
  32.7086590  59.9944940  89.1286310  33.1479870  59.1567370  88.9824130
  33.4215010  60.6274340  89.2150450  24.4952590  60.0165140 101.7902420
  24.3560360  60.8887940 102.1589820  23.6133950  59.6737950 101.6450360
  36.2903730  51.2487750  87.4427350  35.9776390  51.3414580  88.3426420
  37.0516200  51.8268780  87.3924780  20.4471240  61.7862690  97.7073330
  20.5251660  61.9211460  96.7629050  21.0612920  61.0778580  97.9001450
  37.6481010  63.9326790 102.4551750  37.7744070  63.6938670 101.5368930
  37.6902390  63.1011330 102.9273830  33.4852150  67.9210130  90.4530560
  33.3253290  67.6313070  91.3512390  33.3198860  67.1450260  89.9175790
  37.5005020  55.9859250 103.4201490  36.8849290  56.4938920 102.8916950
  37.1801440  55.0857580 103.3627430  20.5030760  62.8276860 100.2467790
  20.6661800  62.3582220  99.4287160  20.9683210  62.3200420 100.9116630
  25.2749530  51.9582620  95.2828360  24.8317680  52.7392160  94.9512880
  25.8334520  52.2812510  95.9899300  29.5619340  54.8251140 100.8863680
  29.0998710  55.0334160 101.6983620  29.1597450  54.0110490 100.5834350
  28.3908350  51.5793320  90.1634190  27.7662530  51.5753190  90.8887500
  28.3038470  50.7124280  89.7670160  32.2961510  57.0879560  91.6100260
  31.6970400  57.8115360  91.4263880  32.8441120  57.0256340  90.8276710
  22.6373500  54.3915440 101.8303660  22.2436890  55.2390650 102.0376440
  21.9491900  53.7541810 102.0212300  19.9390550  52.3143900  95.8633740
  19.6503600  52.8846760  96.5758720  20.6836310  51.8348350  96.2264970
  20.1260780  56.2564020  87.0736460  20.0435450  57.1994780  87.2151450
  19.7743840  56.1138930  86.1948810  23.7761290  54.8729540  95.1001020
  23.4361340  55.3504770  95.8568070  23.0138610  54.4194660  94.7402120
  27.9879060  55.9915130  89.1313570  28.1091880  55.9501610  90.0799390
  27.6027570  56.8539280  88.9760300  27.0000560  58.3016270  88.5296870
  26.4317460  57.8534520  87.9032780  27.7089560  58.6609050  87.9962020
  22.0769740  62.2028290 102.4063600  21.6924530  61.5621960 103.0046560
  22.3881930  62.9064410 102.9758330  28.2266880  59.0504830  97.8872220
  28.5937010  58.5763400  98.6333560  28.0371940  59.9246400  98.2280560
  30.7645960  52.6877780  90.7379060  29.9510570  52.1890950  90.6624370
  30.5707910  53.5276030  90.3215410  33.4794350  57.0597430  89.0341220
  34.3673970  57.3714660  88.8592560  33.4499440  56.1869680  88.6421800
  22.0729980  58.9316210 101.3527790  21.7144920  59.5970060 101.9401130
  21.7784540  58.0999760 101.7240410  25.2743100  59.3900450 104.2367340
  24.9743240  59.5357630 103.3395160  26.0454340  58.8305740 104.1440730
  35.7508620  58.3709270  88.5021080  35.6672340  58.8023490  87.6517520
  36.4702810  58.8307620  88.9347900  36.8282760  60.8276790 101.5791050
  36.1030950  61.4205570 101.3820440  37.3558220  60.8200330 100.7804420
  20.5838030  58.9307470  87.9762390  21.4532880  59.2132270  88.2598310
  20.0928350  59.7443340  87.8611200  35.1693250  64.1167990  87.7679560
  34.9430830  63.3998430  88.3604200  34.7789450  63.8680430  86.9301310
  33.0975150  64.6314270 101.2476480  33.4331390  65.2180960 101.9254400
  32.1775490  64.5006980 101.4774270  20.6478550  52.4209450 102.0299890
  19.9337070  52.6206370 102.6352500  21.0673590  51.6449020 102.4014690
  20.9351140  66.4089710 103.0166420  21.0442260  65.4684450 102.8761810
  20.2831700  66.6744460 102.3680150  26.9677900  65.5266050  89.3597690
  26.9588000  66.2595740  88.7442200  26.0476260  65.2797630  89.4524650
  35.5079360  53.8688700  90.5888900  34.8792520  53.9734370  89.8747130
  35.0131280  54.0885480  91.3782780  29.9537500  65.5894290  88.0222880
  30.0549480  65.3858280  87.0924860  29.0539240  65.3352570  88.2270660
  27.4763390  56.1474650  92.0046780  26.7679540  56.6160990  92.4460390
  27.7607870  55.4896660  92.6391970  25.6798410  54.4559730  89.3797490
  26.5288940  54.8929880  89.3137680  25.3129680  54.7679990  90.2069550
  36.3086180  53.7839310 100.8467700  35.8059780  54.5244710 101.1861510
  37.1242840  54.1723310 100.5304490  34.6008190  59.0272490  94.2929060
  33.6598330  59.0422720  94.4676750  34.9152260  58.2408450  94.7389360
  24.0751300  68.2912550  95.6400450  24.8113780  67.7428010  95.9109020
  24.4592220  69.1568560  95.5006440  27.1853610  67.4642860  87.4626020
  27.9782220  67.7531690  87.0107810  26.6657960  67.0335030  86.7838500
  20.8007390  59.9632080 103.7722080  21.3046410  59.3839360 104.3438310
  20.0614810  60.2472310 104.3098450  27.7031010  62.6846270  87.3268370
  27.5981650  62.0698620  88.0529750  27.5355230  62.1612160  86.5431380
  30.9433740  61.7466300  87.9310360  30.3943840  62.1935600  88.5753100
  31.5653000  61.2415550  88.4548030  34.9968680  63.1008400 103.8632620
  35.7378150  63.4384160 103.3600080  34.2341360  63.2700460 103.3102390
  22.8330470  58.1061670 104.6672150  22.8735810  57.8075540 105.5757380
  23.6875970  58.5069280 104.5079670  29.1236500  59.7294830  87.0752760
  29.6442160  59.0143850  86.7093910  29.7704900  60.3680700  87.3753270
  28.4329570  61.1043710 100.3683760  28.8517680  61.9476440 100.1960000
  27.5138200  61.2415750 100.1390540  25.5067760  56.7790450  86.7733820
  25.3056820  55.9157810  87.1347160  25.3359810  56.6923810  85.8355420
  32.9856070  51.5898680  89.3020700  33.2658360  50.7466580  89.6580120
  32.2121800  51.8221790  89.8159450  24.3050560  53.8791070  86.7611700
  24.6076460  53.8858500  85.8530850  25.0445150  53.5288930  87.2579360
  27.5235490  52.8225690  87.7467900  27.1757490  52.1449680  87.1670350
  27.7248260  52.3615200  88.5611290  29.6884530  67.8106440  89.3654500
  30.5835320  68.1491410  89.3873260  29.7202160  67.0885850  88.7378780
  23.3280690  63.1833490  87.5941500  23.7655560  63.7263160  88.2499080
  23.8128420  62.3580440  87.6037840  21.0316700  66.8393110  97.7843390
  20.5947690  67.0193910  98.6167540  21.5994380  67.5967730  97.6425110
  36.6678880  66.3410110 102.0720700  36.0680870  66.4002670 101.3284620
  36.7972780  65.4015090 102.2017550  37.9080330  64.0827930  87.4090410
  37.0773290  64.1504580  87.8797640  38.0852160  64.9732050  87.1057270
  35.3530520  63.0662090 100.1696860  34.5390360  63.4959250 100.4322650
  35.7604720  63.6780500  99.5565910  37.4155960  61.1209780  87.0697130
  37.6904800  62.0288660  86.9416350  37.2266700  61.0572310  88.0059120
  33.8131570  54.1454630  88.3650760  34.2316450  53.9585610  87.5247420
  33.5067630  53.2933680  88.6753690  37.3121300  59.0578770  92.0626560
  36.9364900  58.2906700  91.6307850  36.5824420  59.4401470  92.5501490
  21.9017060  59.7365910  98.6835610  22.2690100  59.6493310  99.5631630
  21.3327880  58.9732460  98.5842470  36.7020920  58.2050290 101.6966080
  36.4707010  57.9763040 100.7964030  36.9625470  59.1249840 101.6510970
  21.4533060  56.6475000 102.5894030  20.5589110  56.6141760 102.9287740
  21.9930610  56.8461790 103.3545280  35.1408990  53.4306720 104.4745780
  36.0179170  53.4390120 104.8579780  35.1529830  52.6937560 103.8638130
  20.0779210  56.5612270  90.0857600  19.1743290  56.8242470  89.9109260
  20.5619830  56.8323440  89.3057560  36.5872260  57.2836260  95.3633800
  37.1109740  56.7898910  94.7323970  37.1731680  57.4186620  96.1081370
  36.7661980  57.3676130  98.8853350  35.8164690  57.3339670  98.9998340
  36.9474990  58.2776240  98.6503120  22.6206420  55.6177810  87.9951980
  23.3298120  55.1961030  87.5099260  21.9046360  55.6853040  87.3635330
  36.0772230  56.5409610  91.3026210  36.5731350  56.3080480  92.0875090
  35.8788300  55.7021450  90.8863850  21.9572770  50.9223330  96.9377250
  22.6048960  50.3720710  96.4972410  22.3774610  51.1766480  97.7593060
  37.5059390  55.1770560  93.8363890  37.3958670  55.0226600  94.7746160
  38.2666980  54.6491500  93.5939300  35.8525110  51.1164690 100.2946890
  36.4897330  51.7298830 100.6606080  36.0000000  51.1525350  99.3496120
  38.3949660  53.0078480  87.0770030  39.3198970  52.8759660  86.8688320
  38.3725450  53.0871300  88.0306480  38.4688150  53.7789140  89.7026740
  37.6739650  53.7134260  90.2319650  38.6731430  54.7139780  89.6912090
  35.4106570  67.8180690  93.6965130  36.0065640  67.4965260  93.0199550
  35.6684720  67.3452510  94.4878400  21.7104770  51.0779000  99.6802570
  21.3619590  51.5342820 100.4460750  21.3792470  50.1836130  99.7625000
  23.3169140  64.2498600 103.8455760  23.2738770  63.8791510 104.7270220
  23.4480150  65.1876170 103.9857580  38.2779330  67.8252570 100.2476120
  37.7837610  68.2221440  99.5303250  37.6692620  67.2001780 100.6413400
  22.3825410  50.6055200 102.9553340  22.9308400  50.4243250 102.1919450
  22.4480720  49.8149310 103.4909650  23.1557170  67.1960850 100.9653540
  22.5617490  67.0645550 101.7043580  23.1481010  66.3598990 100.4995640
  22.7869400  64.5619230  99.9161580  22.0603460  63.9424520  99.8487530
  22.8478550  64.9559840  99.0459660  26.3914500  66.7764230  96.7010990
  26.9079520  66.1651590  96.1759250  27.0411880  67.2793010  97.1922000
  34.9008080  52.1086020  96.1525570  35.3416170  52.0531120  95.3047170
  34.6315670  53.0244030  96.2235750  36.7646650  51.7401260  94.1634390
  36.7035050  50.7962480  94.0165410  37.5438680  51.8481350  94.7087850
  32.7366210  50.4892120  94.8575580  33.3395580  51.0612330  95.3324100
  31.9959200  51.0531560  94.6349480  35.8800810  50.8913680  90.1315860
  36.0751440  51.7897130  90.3983290  35.0930680  50.6600760  90.6248810
  26.2590410  51.9749590  92.2237560  25.6293150  51.2736900  92.3907690
  25.7195550  52.7353720  92.0070720  37.4327420  68.1314390  91.8922420
  37.6079610  67.4452130  91.2483340  36.7348990  68.6561440  91.4999090
  31.8919580  58.6879620  75.6005260  31.8113630  57.7734230  75.3296970
  31.4784000  59.1846690  74.8944970  30.0237620  60.4658640  77.4814530
  29.2479720  59.9859080  77.7713100  30.6750550  59.7864290  77.3070690
  34.0445050  64.8718830  76.2613660  33.5826580  64.1006070  76.5900830
  34.8570600  64.8984900  76.7666110  24.0204710  64.8118540  78.5548310
  24.3232750  63.9216280  78.3758530  24.7648300  65.3688760  78.3270560
  22.4495400  55.7380340  72.1432680  21.5612100  56.0796310  72.0412560
  22.7336590  55.5380660  71.2513510  20.4128410  58.3385990  78.0272380
  20.9844520  57.5708190  78.0276020  20.4129950  58.6374750  77.1178990
  30.2708360  67.1576840  75.8817650  29.6519800  67.6134340  75.3112090
  31.1260140  67.3128300  75.4807350  29.4646610  63.1415830  77.4884690
  29.3954890  62.2005770  77.3273820  30.2266470  63.2317240  78.0607260
  21.6553280  53.7470350  79.8141310  21.4756120  52.8496100  80.0944070
  21.2533360  54.2942220  80.4888260  24.6256790  54.3211840  73.1771060
  24.7323540  55.2215570  73.4839820  23.7149150  54.2729810  72.8865710
  34.2775900  53.4436650  74.6481960  35.0985520  52.9533220  74.6907440
  34.3109980  54.0334310  75.4013800  38.5675450  55.4603400  81.2125590
  37.8627620  55.8485110  80.6940700  38.8333370  56.1553690  81.8146520
  31.1371710  62.0416080  73.2749560  30.5188980  62.5065530  72.7112280
  31.6494960  62.7343560  73.6919070  34.5137380  55.3837030  77.4209500
  33.8092950  55.6721920  78.0012610  34.8749540  56.1937140  77.0609060
  24.4315950  53.6406730  79.7830110  24.7732760  54.4848780  79.4883980
  23.4931760  53.7890470  79.8995450  25.2122570  63.5372750  81.7682340
  25.8296570  64.2123830  81.4866790  24.3515690  63.9460730  81.6769840
  36.1300160  65.0012160  79.6836980  35.4463680  65.6711270  79.6753650
  36.6694450  65.1992810  78.9181840  33.6658900  66.8456290  78.3982160
  33.6786060  66.4418580  77.5304420  33.1134120  67.6203580  78.2943590
  34.9604320  63.5672510  73.4872330  34.8500650  62.6246840  73.6121750
  34.9572570  63.9288150  74.3735090  30.5024600  59.1937830  72.8434820
  29.5753880  59.1275210  73.0723290  30.6549420  60.1317960  72.7290060
  30.4893680  55.4654830  69.8401980  29.5497350  55.6268790  69.9254440
  30.8076940  56.1840510  69.2937970  34.5321890  60.7558130  73.3470070
  33.9134310  60.4177680  72.6996370  34.5146340  60.1117890  74.0549260
  33.9748450  56.9342670  80.7635880  33.5619630  57.7596380  81.0175870
  33.2424400  56.3487710  80.5712240  26.5762940  63.4070130  77.7893760
  26.2791230  62.8015600  77.1101540  27.5262760  63.4447440  77.6783120
  34.6648550  66.9802000  81.4516860  34.1879110  67.7874190  81.2589470
  33.9810340  66.3280330  81.6043070  25.6681370  63.1451820  84.4401560
  24.7709900  63.3691790  84.6874960  25.6934240  63.2686760  83.4912960
  32.7086590  59.9944940  70.3542820  33.1479870  59.1567370  70.2080640
  33.4215010  60.6274340  70.4406960  30.8181970  64.9341010  74.3224060
  31.2577880  65.6765340  73.9079450  30.7568860  65.1767580  75.2463020
  26.2932940  65.9586840  85.2244080  26.2648370  66.3629790  84.3572510
  26.1297910  65.0297200  85.0615680  22.8085870  58.6147550  73.1261200
  22.6883470  59.3409640  72.5142470  22.4986760  57.8450460  72.6489110
  38.2447760  66.7413940  86.5208250  38.7207480  67.2196830  87.1997330
  38.8654920  66.6731430  85.7953750  20.4471240  61.7862690  78.9329840
  20.5251660  61.9211460  77.9885560  21.0612920  61.0778580  79.1257960
  21.6918870  63.4862880  75.3436020  21.2846950  63.6277470  74.4889620
  22.5831880  63.2023040  75.1407230  37.6481010  63.9326790  83.6808260
  37.7744070  63.6938670  82.7625440  37.6902390  63.1011330  84.1530340
  31.5097750  67.6354790  82.2503070  32.0242420  67.5462800  83.0525500
  30.6666830  67.9814490  82.5430980  33.1878280  65.4297690  70.2385070
  32.4943440  65.4274980  69.5787350  33.9301140  65.0057010  69.8079240
  32.7528210  67.0560400  74.3133560  33.2085160  66.2749780  74.6272180
  33.0920730  67.7667220  74.8574740  37.5005020  55.9859250  84.6458000
  36.8849290  56.4938920  84.1173460  37.1801440  55.0857580  84.5883940
  20.5030760  62.8276860  81.4724300  20.6661800  62.3582220  80.6543670
  20.9683210  62.3200420  82.1373140  29.5619340  54.8251140  82.1120190
  29.0998710  55.0334160  82.9240130  29.1597450  54.0110490  81.8090860
  34.5623850  56.0460090  83.2416850  33.7117440  55.7465840  83.5625920
  34.4025640  56.2902100  82.3300670  31.6573560  57.5461840  85.3415640
  31.9826970  56.7125590  85.0017870  32.4453890  58.0690360  85.4893970
  28.3908350  51.5793320  71.3890700  27.7662530  51.5753190  72.1144010
  28.3038470  50.7124280  70.9926670  25.0663750  57.0816190  74.2366120
  24.8404670  56.8653360  75.1412740  24.2856280  57.5144650  73.8912090
  32.2961510  57.0879560  72.8356770  31.6970400  57.8115360  72.6520390
  32.8441120  57.0256340  72.0533220  27.5062960  57.9801770  84.9026390
  27.4106560  57.0396500  84.7526790  28.3494940  58.2016840  84.5074460
  30.9026380  55.7243100  74.8660050  31.2955950  56.0415300  74.0528740
  31.2643230  54.8454980  74.9804570  22.6373500  54.3915440  83.0560170
  22.2436890  55.2390650  83.2632950  21.9491900  53.7541810  83.2468810
  29.2118550  54.4750410  86.1256910  28.5216870  54.2822610  86.7603000
  29.9550850  54.7585050  86.6581210  31.4881520  58.3148850  78.9610830
  30.7562640  58.8235660  79.3100930  31.0905860  57.4978830  78.6599610
  27.9879060  55.9915130  70.3570080  28.1091880  55.9501610  71.3055900
  27.6027570  56.8539280  70.2016810  31.9507430  53.7682530  78.3733770
  31.9680170  54.2191180  79.2175620  31.7023010  52.8688170  78.5867210
  27.0000560  58.3016270  69.7553380  26.4317460  57.8534520  69.1289290
  27.7089560  58.6609050  69.2218530  35.3778180  51.1814710  84.2120150
  35.7023950  50.4504370  84.7378130  35.4134690  50.8628350  83.3101140
  22.0769740  62.2028290  83.6320110  21.6924530  61.5621960  84.2303070
  22.3881930  62.9064410  84.2014840  24.5448040  62.2974460  72.0279790
  23.7710300  61.7572080  71.8678510  25.2742670  61.7781070  71.6897550
  30.7645960  52.6877780  71.9635570  29.9510570  52.1890950  71.8880880
  30.5707910  53.5276030  71.5471920  30.6854820  61.3648880  83.7075180
  30.6192130  60.4444550  83.4532770  30.0559960  61.4624320  84.4219820
  33.4794350  57.0597430  70.2597730  34.3673970  57.3714660  70.0849070
  33.4499440  56.1869680  69.8678310  29.4754940  63.2321120  70.9385900
  29.8170640  63.9763350  70.4429220  28.6467650  63.5452240  71.3010730
  25.2743100  59.3900450  85.4623850  24.9743240  59.5357630  84.5651670
  26.0454340  58.8305740  85.3697240  30.6171550  64.1869450  83.4578980
  30.6316090  63.2550410  83.2397890  29.9096650  64.2729210  84.0968750
  36.8282760  60.8276790  82.8047560  36.1030950  61.4205570  82.6076950
  37.3558220  60.8200330  82.0060930  36.7795870  65.2251530  72.4559720
  36.1372030  64.5707150  72.7303440  36.3926530  65.6306620  71.6800390
  32.3582350  62.5536960  76.3031410  32.7106170  61.9565090  75.6432780
  31.4744680  62.2281190  76.4739660  28.4445630  63.3134650  73.7101820
  29.1316760  63.8603860  74.0909410  27.6578050  63.8575380  73.7451430
  27.7472840  60.3180680  73.3227180  28.2035620  61.1285930  73.5487370
  27.3961050  60.0003820  74.1545670  30.0505450  65.8287020  80.5519480
  30.6947670  66.0346400  81.2292900  30.4134890  65.0675420  80.0990330
  23.6484620  50.6618330  73.7949700  23.5199250  50.6536230  74.7434620
  22.8246640  51.0001420  73.4440710  31.3237530  63.8319370  79.2696930
  31.9659760  63.1312530  79.3829100  31.8486880  64.6117810  79.0893820
  35.1693250  64.1167990  68.9936070  34.9430830  63.3998430  69.5860710
  34.7789450  63.8680430  68.1557820  33.0975150  64.6314270  82.4732990
  33.4331390  65.2180960  83.1510910  32.1775490  64.5006980  82.7030780
  20.9509280  68.1434850  69.7680530  21.3106920  68.7424190  69.1137800
  20.8101620  68.6894740  70.5415560  20.6478550  52.4209450  83.2556400
  19.9337070  52.6206370  83.8609010  21.0673590  51.6449020  83.6271200
  34.7509500  62.0339930  70.6550230  34.4631200  62.4952620  71.4428110
  35.5461670  61.5737700  70.9234450  20.9351140  66.4089710  84.2422930
  21.0442260  65.4684450  84.1018320  20.2831700  66.6744460  83.5936660
  28.9263730  64.6805600  85.6421050  28.6060600  63.9614840  86.1866740
  28.2522090  65.3560670  85.7157110  26.9677900  65.5266050  70.5854200
  26.9588000  66.2595740  69.9698710  26.0476260  65.2797630  70.6781160
  22.5684540  60.7480940  71.3300960  21.9612490  61.4879840  71.3396260
  23.0433890  60.8380300  70.5039160  32.1417330  54.9131760  81.0057850
  32.5098150  54.0926970  81.3337420  31.2815530  54.9733650  81.4213500
  29.9537500  65.5894290  69.2479390  30.0549480  65.3858280  68.3181370
  29.0539240  65.3352570  69.4527170  27.4763390  56.1474650  73.2303290
  26.7679540  56.6160990  73.6716900  27.7607870  55.4896660  73.8648480
  29.1019320  57.5671350  81.2295820  29.6004570  58.0417170  81.8947670
  29.2442270  56.6434870  81.4365850  25.6798410  54.4559730  70.6054000
  26.5288940  54.8929880  70.5394190  25.3129680  54.7679990  71.4326060
  36.3086180  53.7839310  82.0724210  35.8059780  54.5244710  82.4118020
  37.1242840  54.1723310  81.7561000  34.6008190  59.0272490  75.5185570
  33.6598330  59.0422720  75.6933260  34.9152260  58.2408450  75.9645870
  24.5789830  60.7092090  69.0789530  25.3453100  60.5973450  69.6414960
  24.6564520  60.0130060  68.4266300  36.6033770  66.1981340  77.1939830
  36.7281190  67.0212510  77.6663640  37.4699330  65.9872070  76.8463980
  24.0751300  68.2912550  76.8656960  24.8113780  67.7428010  77.1365530
  24.4592220  69.1568560  76.7262950  20.9596780  64.3586120  72.7398470
  20.0336560  64.6007260  72.7303880  21.4253210  65.1860380  72.6183220
  27.1853610  67.4642860  68.6882530  27.9782220  67.7531690  68.2364320
  26.6657960  67.0335030  68.0095010  31.9174210  63.5838490  86.0017950
  31.3112370  63.6070090  85.2613700  31.6128320  62.8521530  86.5385200
  33.3474580  67.3118780  84.6127360  34.2996330  67.2276800  84.5627600
  33.2002800  67.9760490  85.2861150  36.2383780  66.6912990  70.1119270
  35.9525290  66.2778130  69.2973450  36.0403330  67.6200700  69.9919790
  20.8007390  59.9632080  84.9978590  21.3046410  59.3839360  85.5694820
  20.0614810  60.2472310  85.5354960  27.8545330  61.3703070  84.5314110
  27.0891000  61.9388070  84.4468780  28.0361290  61.0779280  83.6382340
  30.9433740  61.7466300  69.1566870  30.3943840  62.1935600  69.8009610
  31.5653000  61.2415550  69.6804540  34.9968680  63.1008400  85.0889130
  35.7378150  63.4384160  84.5856590  34.2341360  63.2700460  84.5358900
  22.8330470  58.1061670  85.8928660  22.8735810  57.8075540  86.8013890
  23.6875970  58.5069280  85.7336180  26.6108860  60.7057220  71.0532170
  27.0325280  60.5397090  71.8963560  26.7359700  59.8957450  70.5587310
  33.6714340  61.1523230  83.6244340  34.0855360  61.3068310  84.4734760
  32.7365340  61.2778450  83.7870120  34.1436510  58.4919390  85.6283490
  34.7257280  57.7371710  85.5403970  34.3198280  59.0226830  84.8514970
  25.2608580  53.6516140  83.9400440  25.1665450  53.0336890  83.2151310
  24.6805970  54.3782430  83.7130350  28.4329570  61.1043710  81.5940270
  28.8517680  61.9476440  81.4216510  27.5138200  61.2415750  81.3647050
  30.7693470  58.8359890  82.9778110  30.8889680  58.2401030  83.7172950
  31.6287470  58.8729580  82.5579410  33.1081370  59.3897080  81.5540620
  32.5816590  59.9139700  80.9505760  33.4512710  60.0224470  82.1850350
  25.5067760  56.7790450  67.9990330  25.3056820  55.9157810  68.3603670
  25.3359810  56.6923810  67.0611930  26.2836990  67.4096720  82.7098000
  25.7458080  68.1342780  82.3906700  26.5370950  66.9327060  81.9195340
  27.5362240  55.3781240  84.2353930  28.1261930  55.0697090  84.9231750
  26.7182480  54.9060990  84.3913830  32.3555670  54.9947050  84.4686950
  31.6671190  54.3328590  84.4036940  33.0761690  54.5485320  84.9135410
  32.9856070  51.5898680  70.5277210  33.2658360  50.7466580  70.8836630
  32.2121800  51.8221790  71.0415960  29.1399200  68.6447930  82.9684650
  29.0657900  69.5483070  83.2757020  28.2378040  68.3259830  82.9406720
  27.5235490  52.8225690  68.9724410  27.1757490  52.1449680  68.3926860
  27.7248260  52.3615200  69.7867800  29.6884530  67.8106440  70.5911010
  30.5835320  68.1491410  70.6129770  29.7202160  67.0885850  69.9635290
  23.3280690  63.1833490  68.8198010  23.7655560  63.7263160  69.4755590
  23.8128420  62.3580440  68.8294350  20.5426490  65.9722520  76.2718270
  20.8729500  65.1043580  76.0396910  20.9717490  66.1781040  77.1023230
  25.1388410  64.3031530  73.9320240  24.8383950  64.1796500  74.8324150
  25.0325900  63.4440120  73.5235970  21.0316700  66.8393110  79.0099900
  20.5947690  67.0193910  79.8424050  21.5994380  67.5967730  78.8681620
  36.6678880  66.3410110  83.2977210  36.0680870  66.4002670  82.5541130
  36.7972780  65.4015090  83.4274060  37.9080330  64.0827930  68.6346920
  37.0773290  64.1504580  69.1054150  38.0852160  64.9732050  68.3313780
  37.3636790  60.8275410  71.1381120  38.1255700  61.3972060  71.2440810
  37.3791160  60.2602610  71.9089430  20.8641130  59.3513340  75.3688780
  20.2089970  59.0824980  74.7248480  21.7019080  59.2417820  74.9190760
  38.3696760  61.6825510  75.9823050  38.7405590  60.8992830  75.5759020
  39.0098690  62.3714610  75.8040350  37.4155960  61.1209780  68.2953640
  37.6904800  62.0288660  68.1672860  37.2266700  61.0572310  69.2315630
  33.8131570  54.1454630  69.5907270  34.2316450  53.9585610  68.7503930
  33.5067630  53.2933680  69.9010200  37.3121300  59.0578770  73.2883070
  36.9364900  58.2906700  72.8564360  36.5824420  59.4401470  73.7758000
  36.7020920  58.2050290  82.9222590  36.4707010  57.9763040  82.0220540
  36.9625470  59.1249840  82.8767480  35.1408990  53.4306720  85.7002290
  36.0179170  53.4390120  86.0836290  35.1529830  52.6937560  85.0894640
  22.2680580  51.6717140  68.2611140  22.9908710  52.2126080  68.5792360
  22.5405100  51.3980560  67.3852680  21.9572770  50.9223330  78.1633760
  22.6048960  50.3720710  77.7228920  22.3774610  51.1766480  78.9849570
  35.8525110  51.1164690  81.5203400  36.4897330  51.7298830  81.8862590
  36.0000000  51.1525350  80.5752630  35.4106570  67.8180690  74.9221640
  36.0065640  67.4965260  74.2456060  35.6684720  67.3452510  75.7134910
  21.7104770  51.0779000  80.9059080  21.3619590  51.5342820  81.6717260
  21.3792470  50.1836130  80.9881510  23.3169140  64.2498600  85.0712270
  23.2738770  63.8791510  85.9526730  23.4480150  65.1876170  85.2114090
  27.0175170  65.8058190  80.6721990  26.7766530  66.0732750  79.7852510
  27.9577810  65.9763920  80.7272850  29.2229590  52.2690880  84.4278500
  29.1618480  52.8612710  85.1773910  30.1629970  52.1616840  84.2828760
  31.8604150  51.9260940  84.0670790  32.4744560  52.2440230  83.4051870
  32.4053710  51.4409530  84.6866650  38.2779330  67.8252570  81.4732630
  37.7837610  68.2221440  80.7559760  37.6692620  67.2001780  81.8669910
  23.1557170  67.1960850  82.1910050  22.5617490  67.0645550  82.9300090
  23.1481010  66.3598990  81.7252150  33.5084170  52.6963950  81.7781800
  33.1797530  51.8815710  81.3983530  34.4566470  52.6533760  81.6547490
  35.9618780  68.4675990  78.7519370  35.5021750  69.2191800  78.3777390
  35.3331240  67.7482460  78.6934170  22.7869400  64.5619230  81.1418090
  22.0603460  63.9424520  81.0744040  22.8478550  64.9559840  80.2716170
  26.3914500  66.7764230  77.9267500  26.9079520  66.1651590  77.4015760
  27.0411880  67.2793010  78.4178510  29.1310000  67.6672720  78.7536480
  29.4187810  67.4127020  77.8769490  29.6433220  67.1150080  79.3442050
  34.9008080  52.1086020  77.3782080  35.3416170  52.0531120  76.5303680
  34.6315670  53.0244030  77.4492260  36.7646650  51.7401260  75.3890900
  36.7035050  50.7962480  75.2421920  37.5438680  51.8481350  75.9344360
  21.0699400  67.8793620  74.3514850  20.9021440  67.2464300  75.0496740
  20.2033910  68.0853020  74.0009040  21.6927420  51.7110400  71.8546710
  22.4506780  51.8239280  71.2810740  21.2304590  52.5479600  71.8090140
  35.8800810  50.8913680  71.3572370  36.0751440  51.7897130  71.6239800
  35.0930680  50.6600760  71.8505320  22.6762100  66.5726850  71.7964990
  22.1509720  66.9534880  71.0926950  22.6006680  67.1977620  72.5174700
  24.0652570  52.2374450  70.3948680  24.5945330  51.4504250  70.2656630
  24.6980890  52.9165640  70.6284210  29.1982360  68.5888820  86.1204680
  30.1249670  68.3533090  86.1640640  29.1832790  69.4160820  85.6390710
  37.4327420  68.1314390  73.1178930  37.6079610  67.4452130  72.4739850
  36.7348990  68.6561440  72.7255600  25.2755070  68.5209230  70.6714240
  26.0073890  68.2368510  70.1238130  25.5348740  68.2822510  71.5613620
  24.4369860  64.6373960  70.6760570  23.8078740  65.1059060  71.2246400
  24.5517690  63.7923180  71.1106760  32.9861430  50.6687150  86.4627030
  32.8726880  50.9881760  87.3578550  33.8031170  51.0699660  86.1664310
  35.7659920  67.8158680  85.9445720  36.5585240  67.3207910  85.7371680
  36.0593070  68.4948820  86.5521330  24.0403450  60.7778450  59.5846800
  23.2088330  60.5227160  59.9843310  24.6484430  60.8489220  60.3204720
  34.0445050  64.8718830  57.4870170  33.5826580  64.1006070  57.8157340
  34.8570600  64.8984900  57.9922620  22.4495400  55.7380340  53.3689190
  21.5612100  56.0796310  53.2669070  22.7336590  55.5380660  52.4770020
  30.2708360  67.1576840  57.1074160  29.6519800  67.6134340  56.5368600
  31.1260140  67.3128300  56.7063860  29.4646610  63.1415830  58.7141200
  29.3954890  62.2005770  58.5530330  30.2266470  63.2317240  59.2863770
  21.6553280  53.7470350  61.0397820  21.4756120  52.8496100  61.3200580
  21.2533360  54.2942220  61.7144770  24.6256790  54.3211840  54.4027570
  24.7323540  55.2215570  54.7096330  23.7149150  54.2729810  54.1122220
  22.2739950  56.2430850  59.6480160  22.9550060  56.5069220  60.2667560
  21.9588000  55.4031720  59.9818170  25.2122570  63.5372750  62.9938850
  25.8296570  64.2123830  62.7123300  24.3515690  63.9460730  62.9026350
  28.1143840  51.1289000  57.3331210  28.4218820  50.5735890  56.6166710
  27.1844540  51.2633460  57.1504200  34.9604320  63.5672510  54.7128840
  34.8500650  62.6246840  54.8378260  34.9572570  63.9288150  55.5991600
  30.4893680  55.4654830  51.0658490  29.5497350  55.6268790  51.1510950
  30.8076940  56.1840510  50.5194480  37.0106440  60.1473350  61.0437520
  36.1825070  60.2166440  60.5687650  37.6056920  60.7327660  60.5753350
  33.9748450  56.9342670  61.9892390  33.5619630  57.7596380  62.2432380
  33.2424400  56.3487710  61.7968750  26.1081240  59.7202570  56.8511060
  25.7038240  59.0079820  56.3556960  26.1944360  59.3755810  57.7399100
  26.5762940  63.4070130  59.0150270  26.2791230  62.8015600  58.3358050
  27.5262760  63.4447440  58.9039630  30.8181970  64.9341010  55.5480570
  31.2577880  65.6765340  55.1335960  30.7568860  65.1767580  56.4719530
  36.2903730  51.2487750  49.8940370  35.9776390  51.3414580  50.7939440
  37.0516200  51.8268780  49.8437800  22.8085870  58.6147550  54.3517710
  22.6883470  59.3409640  53.7398980  22.4986760  57.8450460  53.8745620
  38.2447760  66.7413940  67.7464760  38.7207480  67.2196830  68.4253840
  38.8654920  66.6731430  67.0210260  20.4471240  61.7862690  60.1586350
  20.5251660  61.9211460  59.2142070  21.0612920  61.0778580  60.3514470
  25.9640530  67.7008660  54.6815200  25.7883010  66.7844200  54.4683000
  25.1096270  68.0595950  54.9213000  32.7528210  67.0560400  55.5390070
  33.2085160  66.2749780  55.8528690  33.0920730  67.7667220  56.0831250
  25.2749530  51.9582620  57.7341380  24.8317680  52.7392160  57.4025900
  25.8334520  52.2812510  58.4412320  31.6573560  57.5461840  66.5672150
  31.9826970  56.7125590  66.2274380  32.4453890  58.0690360  66.7150480
  28.3908350  51.5793320  52.6147210  27.7662530  51.5753190  53.3400520
  28.3038470  50.7124280  52.2183180  25.0663750  57.0816190  55.4622630
  24.8404670  56.8653360  56.3669250  24.2856280  57.5144650  55.1168600
  27.5062960  57.9801770  66.1282900  27.4106560  57.0396500  65.9783300
  28.3494940  58.2016840  65.7330970  29.2118550  54.4750410  67.3513420
  28.5216870  54.2822610  67.9859510  29.9550850  54.7585050  67.8837720
  19.9390550  52.3143900  58.3146760  19.6503600  52.8846760  59.0271740
  20.6836310  51.8348350  58.6777990  20.1260780  56.2564020  49.5249480
  20.0435450  57.1994780  49.6664470  19.7743840  56.1138930  48.6461830
  23.7761290  54.8729540  57.5514040  23.4361340  55.3504770  58.3081090
  23.0138610  54.4194660  57.1915140  27.9879060  55.9915130  51.5826590
  28.1091880  55.9501610  52.5312410  27.6027570  56.8539280  51.4273320
  31.9507430  53.7682530  59.5990280  31.9680170  54.2191180  60.4432130
  31.7023010  52.8688170  59.8123720  27.0000560  58.3016270  50.9809890
  26.4317460  57.8534520  50.3545800  27.7089560  58.6609050  50.4475040
  22.0769740  62.2028290  64.8576620  21.6924530  61.5621960  65.4559580
  22.3881930  62.9064410  65.4271350  21.0907370  53.7948520  56.4678710
  20.8054290  53.4304190  57.3057330  21.0286230  53.0628980  55.8541850
  30.7645960  52.6877780  53.1892080  29.9510570  52.1890950  53.1137390
  30.5707910  53.5276030  52.7728430  29.4754940  63.2321120  52.1642410
  29.8170640  63.9763350  51.6685730  28.6467650  63.5452240  52.5267240
  25.2743100  59.3900450  66.6880360  24.9743240  59.5357630  65.7908180
  26.0454340  58.8305740  66.5953750  36.7795870  65.2251530  53.6816230
  36.1372030  64.5707150  53.9559950  36.3926530  65.6306620  52.9056900
  28.4445630  63.3134650  54.9358330  29.1316760  63.8603860  55.3165920
  27.6578050  63.8575380  54.9707940  27.7472840  60.3180680  54.5483690
  28.2035620  61.1285930  54.7743880  27.3961050  60.0003820  55.3802180
  23.6484620  50.6618330  55.0206210  23.5199250  50.6536230  55.9691130
  22.8246640  51.0001420  54.6697220  31.3237530  63.8319370  60.4953440
  31.9659760  63.1312530  60.6085610  31.8486880  64.6117810  60.3150330
  20.6478550  52.4209450  64.4812910  19.9337070  52.6206370  65.0865520
  21.0673590  51.6449020  64.8527710  20.9351140  66.4089710  65.4679440
  21.0442260  65.4684450  65.3274830  20.2831700  66.6744460  64.8193170
  29.9537500  65.5894290  50.4735900  30.0549480  65.3858280  49.5437880
  29.0539240  65.3352570  50.6783680  27.4763390  56.1474650  54.4559800
  26.7679540  56.6160990  54.8973410  27.7607870  55.4896660  55.0904990
  31.5078820  52.8725310  55.8955590  31.3846600  52.8911440  54.9465100
  32.4563380  52.9204250  56.0153990  28.5955610  68.1080610  55.1683570
  28.8497110  68.0702000  54.2462940  27.6468090  67.9813940  55.1611820
  25.6798410  54.4559730  51.8310510  26.5288940  54.8929880  51.7650700
  25.3129680  54.7679990  52.6582570  24.5789830  60.7092090  50.3046040
  25.3453100  60.5973450  50.8671470  24.6564520  60.0130060  49.6522810
  23.2736590  58.1417160  50.9878930  23.3540180  57.1944670  51.0996330
  24.1656340  58.4724040  51.0939590  36.6033770  66.1981340  58.4196340
  36.7281190  67.0212510  58.8920150  37.4699330  65.9872070  58.0720490
  23.0809580  67.4758620  67.2799050  23.8822310  67.7970670  67.6934450
  22.5661400  67.1154200  68.0018960  27.1853610  67.4642860  49.9139040
  27.9782220  67.7531690  49.4620830  26.6657960  67.0335030  49.2351520
  27.7031010  62.6846270  49.7781390  27.5981650  62.0698620  50.5042770
  27.5355230  62.1612160  48.9944400  30.9433740  61.7466300  50.3823380
  30.3943840  62.1935600  51.0266120  31.5653000  61.2415550  50.9061050
  26.6108860  60.7057220  52.2788680  27.0325280  60.5397090  53.1220070
  26.7359700  59.8957450  51.7843820  29.1236500  59.7294830  49.5265780
  29.6442160  59.0143850  49.1606930  29.7704900  60.3680700  49.8266290
  34.1436510  58.4919390  66.8540000  34.7257280  57.7371710  66.7660480
  34.3198280  59.0226830  66.0771480  26.2836990  67.4096720  63.9354510
  25.7458080  68.1342780  63.6163210  26.5370950  66.9327060  63.1451850
  32.3555670  54.9947050  65.6943460  31.6671190  54.3328590  65.6293450
  33.0761690  54.5485320  66.1391920  32.9856070  51.5898680  51.7533720
  33.2658360  50.7466580  52.1093140  32.2121800  51.8221790  52.2672470
  24.3050560  53.8791070  49.2124720  24.6076460  53.8858500  48.3043870
  25.0445150  53.5288930  49.7092380  27.5235490  52.8225690  50.1980920
  27.1757490  52.1449680  49.6183370  27.7248260  52.3615200  51.0124310
  29.6884530  67.8106440  51.8167520  30.5835320  68.1491410  51.8386280
  29.7202160  67.0885850  51.1891800  38.3696760  61.6825510  57.2079560
  38.7405590  60.8992830  56.8015530  39.0098690  62.3714610  57.0296860
  33.8131570  54.1454630  50.8163780  34.2316450  53.9585610  49.9760440
  33.5067630  53.2933680  51.1266710  21.9017060  59.7365910  61.1348630
  22.2690100  59.6493310  62.0144650  21.3327880  58.9732460  61.0355490
  20.0779210  56.5612270  52.5370620  19.1743290  56.8242470  52.3622280
  20.5619830  56.8323440  51.7570580  36.5872260  57.2836260  57.8146820
  37.1109740  56.7898910  57.1836990  37.1731680  57.4186620  58.5594390
  22.6206420  55.6177810  50.4465000  23.3298120  55.1961030  49.9612280
  21.9046360  55.6853040  49.8148350  22.2680580  51.6717140  49.4867650
  22.9908710  52.2126080  49.8048870  22.5405100  51.3980560  48.6109190
  21.9572770  50.9223330  59.3890270  22.6048960  50.3720710  58.9485430
  22.3774610  51.1766480  60.2106080  37.5059390  55.1770560  56.2876910
  37.3958670  55.0226600  57.2259180  38.2666980  54.6491500  56.0452320
  38.3949660  53.0078480  49.5283050  39.3198970  52.8759660  49.3201340
  38.3725450  53.0871300  50.4819500  35.4106570  67.8180690  56.1478150
  36.0065640  67.4965260  55.4712570  35.6684720  67.3452510  56.9391420
  23.3169140  64.2498600  66.2968780  23.2738770  63.8791510  67.1783240
  23.4480150  65.1876170  66.4370600  27.0175170  65.8058190  61.8978500
  26.7766530  66.0732750  61.0109020  27.9577810  65.9763920  61.9529360
  31.8604150  51.9260940  65.2927300  32.4744560  52.2440230  64.6308380
  32.4053710  51.4409530  65.9123160  32.6012190  50.4893080  61.6196590
  31.7272030  50.8228190  61.4169520  32.4922940  50.0166260  62.4448460
  33.5084170  52.6963950  63.0038310  33.1797530  51.8815710  62.6240040
  34.4566470  52.6533760  62.8804000  29.1310000  67.6672720  59.9792990
  29.4187810  67.4127020  59.1026000  29.6433220  67.1150080  60.5698560
  30.3487010  51.4062920  60.5589500  29.5658800  51.8808420  60.8386260
  30.0549940  50.5017750  60.4502680  34.9008080  52.1086020  58.6038590
  35.3416170  52.0531120  57.7560190  34.6315670  53.0244030  58.6748770
  21.6927420  51.7110400  53.0803220  22.4506780  51.8239280  52.5067250
  21.2304590  52.5479600  53.0346650  28.2341230  53.8249670  56.0705530
  27.4215740  53.4506560  55.7301410  28.7382870  53.0694750  56.3726720
  32.7366210  50.4892120  57.3088600  33.3395580  51.0612330  57.7837120
  31.9959200  51.0531560  57.0862500  24.0652570  52.2374450  51.6205190
  24.5945330  51.4504250  51.4913140  24.6980890  52.9165640  51.8540720
  26.2590410  51.9749590  54.6750580  25.6293150  51.2736900  54.8420710
  25.7195550  52.7353720  54.4583740  29.1982360  68.5888820  67.3461190
  30.1249670  68.3533090  67.3897150  29.1832790  69.4160820  66.8647220
  35.7659920  67.8158680  67.1702230  36.5585240  67.3207910  66.9628190
  36.0593070  68.4948820  67.7777840  31.8919580  58.6879620  38.0518280
  31.8113630  57.7734230  37.7809990  31.4784000  59.1846690  37.3457990
  30.0237620  60.4658640  39.9327550  29.2479720  59.9859080  40.2226120
  30.6750550  59.7864290  39.7583710  24.0403450  60.7778450  40.8103310
  23.2088330  60.5227160  41.2099820  24.6484430  60.8489220  41.5461230
  22.4495400  55.7380340  34.5945700  21.5612100  56.0796310  34.4925580
  22.7336590  55.5380660  33.7026530  20.4128410  58.3385990  40.4785400
  20.9844520  57.5708190  40.4789040  20.4129950  58.6374750  39.5692010
  30.2708360  67.1576840  38.3330670  29.6519800  67.6134340  37.7625110
  31.1260140  67.3128300  37.9320370  29.4646610  63.1415830  39.9397710
  29.3954890  62.2005770  39.7786840  30.2266470  63.2317240  40.5120280
  21.6553280  53.7470350  42.2654330  21.4756120  52.8496100  42.5457090
  21.2533360  54.2942220  42.9401280  30.4951780  55.9486210  40.1666640
  30.8716600  55.0758090  40.0540310  30.3971290  56.2844910  39.2757080
  24.6256790  54.3211840  35.6284080  24.7323540  55.2215570  35.9352840
  23.7149150  54.2729810  35.3378730  34.2775900  53.4436650  37.0994980
  35.0985520  52.9533220  37.1420460  34.3109980  54.0334310  37.8526820
  22.2739950  56.2430850  40.8736670  22.9550060  56.5069220  41.4924070
  21.9588000  55.4031720  41.2074680  26.4664520  57.2898210  39.9609260
  26.9742740  57.7879180  40.6014280  26.9977760  56.5133410  39.7848620
  24.7500620  51.9296770  44.2272680  24.7519060  52.4469160  43.4218580
  23.9204930  51.4526950  44.2042610  31.1371710  62.0416080  35.7262580
  30.5188980  62.5065530  35.1625300  31.6494960  62.7343560  36.1432090
  26.0003470  61.5691950  42.4046180  25.6672850  62.1960870  43.0467250
  26.1770150  62.0953830  41.6247850  34.5137380  55.3837030  39.8722520
  33.8092950  55.6721920  40.4525630  34.8749540  56.1937140  39.5122080
  24.4315950  53.6406730  42.2343130  24.7732760  54.4848780  41.9397000
  23.4931760  53.7890470  42.3508470  25.2122570  63.5372750  44.2195360
  25.8296570  64.2123830  43.9379810  24.3515690  63.9460730  44.1282860
  20.5054910  62.7272610  33.1002210  20.1282890  63.2159710  32.3687110
  20.7627980  63.3997890  33.7308740  36.1300160  65.0012160  42.1350000
  35.4463680  65.6711270  42.1266670  36.6694450  65.1992810  41.3694860
  28.1143840  51.1289000  38.5587720  28.4218820  50.5735890  37.8423220
  27.1844540  51.2633460  38.3760710  33.6658900  66.8456290  40.8495180
  33.6786060  66.4418580  39.9817440  33.1134120  67.6203580  40.7456610
  33.0644340  61.7486130  42.1777790  33.4813130  61.5346240  41.3431250
  33.7884160  62.0058920  42.7486410  30.5024600  59.1937830  35.2947840
  29.5753880  59.1275210  35.5236310  30.6549420  60.1317960  35.1803080
  30.4893680  55.4654830  32.2915000  29.5497350  55.6268790  32.3767460
  30.8076940  56.1840510  31.7450990  33.9748450  56.9342670  43.2148900
  33.5619630  57.7596380  43.4688890  33.2424400  56.3487710  43.0225260
  26.1081240  59.7202570  38.0767570  25.7038240  59.0079820  37.5813470
  26.1944360  59.3755810  38.9655610  24.8209860  56.4945780  41.8566610
  25.3724450  56.6041120  41.0819860  25.3353370  56.8683380  42.5721840
  34.6648550  66.9802000  43.9029880  34.1879110  67.7874190  43.7102490
  33.9810340  66.3280330  44.0556090  25.6681370  63.1451820  46.8914580
  24.7709900  63.3691790  47.1387980  25.6934240  63.2686760  45.9425980
  30.8181970  64.9341010  36.7737080  31.2577880  65.6765340  36.3592470
  30.7568860  65.1767580  37.6976040  36.2903730  51.2487750  31.1196880
  35.9776390  51.3414580  32.0195950  37.0516200  51.8268780  31.0694310
  22.8085870  58.6147550  35.5774220  22.6883470  59.3409640  34.9655490
  22.4986760  57.8450460  35.1002130  20.4471240  61.7862690  41.3842860
  20.5251660  61.9211460  40.4398580  21.0612920  61.0778580  41.5770980
  21.6918870  63.4862880  37.7949040  21.2846950  63.6277470  36.9402640
  22.5831880  63.2023040  37.5920250  31.5097750  67.6354790  44.7016090
  32.0242420  67.5462800  45.5038520  30.6666830  67.9814490  44.9944000
  33.4852150  67.9210130  34.1300090  33.3253290  67.6313070  35.0281920
  33.3198860  67.1450260  33.5945320  33.1878280  65.4297690  32.6898090
  32.4943440  65.4274980  32.0300370  33.9301140  65.0057010  32.2592260
  32.7528210  67.0560400  36.7646580  33.2085160  66.2749780  37.0785200
  33.0920730  67.7667220  37.3087760  20.5030760  62.8276860  43.9237320
  20.6661800  62.3582220  43.1056690  20.9683210  62.3200420  44.5886160
  25.2749530  51.9582620  38.9597890  24.8317680  52.7392160  38.6282410
  25.8334520  52.2812510  39.6668830  34.5623850  56.0460090  45.6929870
  33.7117440  55.7465840  46.0138940  34.4025640  56.2902100  44.7813690
  31.6573560  57.5461840  47.7928660  31.9826970  56.7125590  47.4530890
  32.4453890  58.0690360  47.9406990  28.3908350  51.5793320  33.8403720
  27.7662530  51.5753190  34.5657030  28.3038470  50.7124280  33.4439690
  27.3125430  52.5029950  40.8187490  27.6097760  53.4092780  40.7379510
  27.8610990  52.0148730  40.2047060  25.0663750  57.0816190  36.6879140
  24.8404670  56.8653360  37.5925760  24.2856280  57.5144650  36.3425110
  32.2961510  57.0879560  35.2869790  31.6970400  57.8115360  35.1033410
  32.8441120  57.0256340  34.5046240  30.9026380  55.7243100  37.3173070
  31.2955950  56.0415300  36.5041760  31.2643230  54.8454980  37.4317590
  22.6373500  54.3915440  45.5073190  22.2436890  55.2390650  45.7145970
  21.9491900  53.7541810  45.6981830  19.9390550  52.3143900  39.5403270
  19.6503600  52.8846760  40.2528250  20.6836310  51.8348350  39.9034500
  20.1260780  56.2564020  30.7505990  20.0435450  57.1994780  30.8920980
  19.7743840  56.1138930  29.8718340  31.4881520  58.3148850  41.4123850
  30.7562640  58.8235660  41.7613950  31.0905860  57.4978830  41.1112630
  27.9258910  54.9903050  39.8176340  27.9294970  54.5493000  38.9680880
  28.8210030  55.3120380  39.9248160  23.7761290  54.8729540  38.7770550
  23.4361340  55.3504770  39.5337600  23.0138610  54.4194660  38.4171650
  27.9879060  55.9915130  32.8083100  28.1091880  55.9501610  33.7568920
  27.6027570  56.8539280  32.6529830  31.9507430  53.7682530  40.8246790
  31.9680170  54.2191180  41.6688640  31.7023010  52.8688170  41.0380230
  27.0000560  58.3016270  32.2066400  26.4317460  57.8534520  31.5802310
  27.7089560  58.6609050  31.6731550  35.3778180  51.1814710  46.6633170
  35.7023950  50.4504370  47.1891150  35.4134690  50.8628350  45.7614160
  22.0769740  62.2028290  46.0833130  21.6924530  61.5621960  46.6816090
  22.3881930  62.9064410  46.6527860  21.0907370  53.7948520  37.6935220
  20.8054290  53.4304190  38.5313840  21.0286230  53.0628980  37.0798360
  24.5448040  62.2974460  34.4792810  23.7710300  61.7572080  34.3191530
  25.2742670  61.7781070  34.1410570  30.7645960  52.6877780  34.4148590
  29.9510570  52.1890950  34.3393900  30.5707910  53.5276030  33.9984940
  30.6854820  61.3648880  46.1588200  30.6192130  60.4444550  45.9045790
  30.0559960  61.4624320  46.8732840  33.4794350  57.0597430  32.7110750
  34.3673970  57.3714660  32.5362090  33.4499440  56.1869680  32.3191330
  24.5885440  61.9654840  38.1171620  25.1064110  61.1623100  38.0628510
  24.1369460  61.9033980  38.9588450  29.4754940  63.2321120  33.3898920
  29.8170640  63.9763350  32.8942240  28.6467650  63.5452240  33.7523750
  22.0729980  58.9316210  45.0297320  21.7144920  59.5970060  45.6170660
  21.7784540  58.0999760  45.4009940  35.7508620  58.3709270  32.1790610
  35.6672340  58.8023490  31.3287050  36.4702810  58.8307620  32.6117430
  32.3582350  62.5536960  38.7544430  32.7106170  61.9565090  38.0945800
  31.4744680  62.2281190  38.9252680  28.4445630  63.3134650  36.1614840
  29.1316760  63.8603860  36.5422430  27.6578050  63.8575380  36.1964450
  20.5838030  58.9307470  31.6531920  21.4532880  59.2132270  31.9367840
  20.0928350  59.7443340  31.5380730  27.7472840  60.3180680  35.7740200
  28.2035620  61.1285930  36.0000390  27.3961050  60.0003820  36.6058690
  23.6484620  50.6618330  36.2462720  23.5199250  50.6536230  37.1947640
  22.8246640  51.0001420  35.8953730  31.3237530  63.8319370  41.7209950
  31.9659760  63.1312530  41.8342120  31.8486880  64.6117810  41.5406840
  35.1693250  64.1167990  31.4449090  34.9430830  63.3998430  32.0373730
  34.7789450  63.8680430  30.6070840  33.0975150  64.6314270  44.9246010
  33.4331390  65.2180960  45.6023930  32.1775490  64.5006980  45.1543800
  20.9509280  68.1434850  32.2193550  21.3106920  68.7424190  31.5650820
  20.8101620  68.6894740  32.9928580  20.6478550  52.4209450  45.7069420
  19.9337070  52.6206370  46.3122030  21.0673590  51.6449020  46.0784220
  20.9351140  66.4089710  46.6935950  21.0442260  65.4684450  46.5531340
  20.2831700  66.6744460  46.0449680  26.9677900  65.5266050  33.0367220
  26.9588000  66.2595740  32.4211730  26.0476260  65.2797630  33.1294180
  22.5684540  60.7480940  33.7813980  21.9612490  61.4879840  33.7909280
  23.0433890  60.8380300  32.9552180  32.1417330  54.9131760  43.4570870
  32.5098150  54.0926970  43.7850440  31.2815530  54.9733650  43.8726520
  35.5079360  53.8688700  34.2658430  34.8792520  53.9734370  33.5516660
  35.0131280  54.0885480  35.0552310  29.9537500  65.5894290  31.6992410
  30.0549480  65.3858280  30.7694390  29.0539240  65.3352570  31.9040190
  27.4763390  56.1474650  35.6816310  26.7679540  56.6160990  36.1229920
  27.7607870  55.4896660  36.3161500  31.5078820  52.8725310  37.1212100
  31.3846600  52.8911440  36.1721610  32.4563380  52.9204250  37.2410500
  28.5955610  68.1080610  36.3940080  28.8497110  68.0702000  35.4719450
  27.6468090  67.9813940  36.3868330  25.6798410  54.4559730  33.0567020
  26.5288940  54.8929880  32.9907210  25.3129680  54.7679990  33.8839080
  36.3086180  53.7839310  44.5237230  35.8059780  54.5244710  44.8631040
  37.1242840  54.1723310  44.2074020  34.6008190  59.0272490  37.9698590
  33.6598330  59.0422720  38.1446280  34.9152260  58.2408450  38.4158890
  24.5789830  60.7092090  31.5302550  25.3453100  60.5973450  32.0927980
  24.6564520  60.0130060  30.8779320  23.2736590  58.1417160  32.2135440
  23.3540180  57.1944670  32.3252840  24.1656340  58.4724040  32.3196100
  20.9596780  64.3586120  35.1911490  20.0336560  64.6007260  35.1816900
  21.4253210  65.1860380  35.0696240  27.1853610  67.4642860  31.1395550
  27.9782220  67.7531690  30.6877340  26.6657960  67.0335030  30.4608030
  20.8007390  59.9632080  47.4491610  21.3046410  59.3839360  48.0207840
  20.0614810  60.2472310  47.9867980  27.7031010  62.6846270  31.0037900
  27.5981650  62.0698620  31.7299280  27.5355230  62.1612160  30.2200910
  30.9433740  61.7466300  31.6079890  30.3943840  62.1935600  32.2522630
  31.5653000  61.2415550  32.1317560  26.6108860  60.7057220  33.5045190
  27.0325280  60.5397090  34.3476580  26.7359700  59.8957450  33.0100330
  29.1236500  59.7294830  30.7522290  29.6442160  59.0143850  30.3863440
  29.7704900  60.3680700  31.0522800  33.6714340  61.1523230  46.0757360
  34.0855360  61.3068310  46.9247780  32.7365340  61.2778450  46.2383140
  25.2608580  53.6516140  46.3913460  25.1665450  53.0336890  45.6664330
  24.6805970  54.3782430  46.1643370  28.0270020  52.2089380  43.4240850
  27.5787320  52.2313640  42.5786400  27.3935220  51.8108400  44.0211150
  33.1081370  59.3897080  44.0053640  32.5816590  59.9139700  43.4018780
  33.4512710  60.0224470  44.6363370  25.5067760  56.7790450  30.4503350
  25.3056820  55.9157810  30.8116690  25.3359810  56.6923810  29.5124950
  26.2836990  67.4096720  45.1611020  25.7458080  68.1342780  44.8419720
  26.5370950  66.9327060  44.3708360  32.3555670  54.9947050  46.9199970
  31.6671190  54.3328590  46.8549960  33.0761690  54.5485320  47.3648430
  32.9856070  51.5898680  32.9790230  33.2658360  50.7466580  33.3349650
  32.2121800  51.8221790  33.4928980  24.3050560  53.8791070  30.4381230
  24.6076460  53.8858500  29.5300380  25.0445150  53.5288930  30.9348890
  27.5235490  52.8225690  31.4237430  27.1757490  52.1449680  30.8439880
  27.7248260  52.3615200  32.2380820  29.6884530  67.8106440  33.0424030
  30.5835320  68.1491410  33.0642790  29.7202160  67.0885850  32.4148310
  23.3280690  63.1833490  31.2711030  23.7655560  63.7263160  31.9268610
  23.8128420  62.3580440  31.2807370  20.5426490  65.9722520  38.7231290
  20.8729500  65.1043580  38.4909930  20.9717490  66.1781040  39.5536250
  37.9080330  64.0827930  31.0859940  37.0773290  64.1504580  31.5567170
  38.0852160  64.9732050  30.7826800  20.8641130  59.3513340  37.8201800
  20.2089970  59.0824980  37.1761500  21.7019080  59.2417820  37.3703780
  35.3530520  63.0662090  43.8466390  34.5390360  63.4959250  44.1092180
  35.7604720  63.6780500  43.2335440  33.8131570  54.1454630  32.0420290
  34.2316450  53.9585610  31.2016950  33.5067630  53.2933680  32.3523220
  21.9017060  59.7365910  42.3605140  22.2690100  59.6493310  43.2401160
  21.3327880  58.9732460  42.2612000  21.4533060  56.6475000  46.2663560
  20.5589110  56.6141760  46.6057270  21.9930610  56.8461790  47.0314810
  35.1408990  53.4306720  48.1515310  36.0179170  53.4390120  48.5349310
  35.1529830  52.6937560  47.5407660  20.0779210  56.5612270  33.7627130
  19.1743290  56.8242470  33.5878790  20.5619830  56.8323440  32.9827090
  22.6206420  55.6177810  31.6721510  23.3298120  55.1961030  31.1868790
  21.9046360  55.6853040  31.0404860  22.2680580  51.6717140  30.7124160
  22.9908710  52.2126080  31.0305380  22.5405100  51.3980560  29.8365700
  36.0772230  56.5409610  34.9795740  36.5731350  56.3080480  35.7644620
  35.8788300  55.7021450  34.5633380  21.9572770  50.9223330  40.6146780
  22.6048960  50.3720710  40.1741940  22.3774610  51.1766480  41.4362590
  35.8525110  51.1164690  43.9716420  36.4897330  51.7298830  44.3375610
  36.0000000  51.1525350  43.0265650  38.3949660  53.0078480  30.7539560
  39.3198970  52.8759660  30.5457850  38.3725450  53.0871300  31.7076010
  38.4688150  53.7789140  33.3796270  37.6739650  53.7134260  33.9089180
  38.6731430  54.7139780  33.3681620  21.7104770  51.0779000  43.3572100
  21.3619590  51.5342820  44.1230280  21.3792470  50.1836130  43.4394530
  23.3169140  64.2498600  47.5225290  23.2738770  63.8791510  48.4039750
  23.4480150  65.1876170  47.6627110  29.2229590  52.2690880  46.8791520
  29.1618480  52.8612710  47.6286930  30.1629970  52.1616840  46.7341780
  31.8604150  51.9260940  46.5183810  32.4744560  52.2440230  45.8564890
  32.4053710  51.4409530  47.1379670  38.2779330  67.8252570  43.9245650
  37.7837610  68.2221440  43.2072780  37.6692620  67.2001780  44.3182930
  22.3825410  50.6055200  46.6322870  22.9308400  50.4243250  45.8688980
  22.4480720  49.8149310  47.1679180  23.1557170  67.1960850  44.6423070
  22.5617490  67.0645550  45.3813110  23.1481010  66.3598990  44.1765170
  32.6012190  50.4893080  42.8453100  31.7272030  50.8228190  42.6426030
  32.4922940  50.0166260  43.6704970  33.5084170  52.6963950  44.2294820
  33.1797530  51.8815710  43.8496550  34.4566470  52.6533760  44.1060510
  35.9618780  68.4675990  41.2032390  35.5021750  69.2191800  40.8290410
  35.3331240  67.7482460  41.1447190  22.7869400  64.5619230  43.5931110
  22.0603460  63.9424520  43.5257060  22.8478550  64.9559840  42.7229190
  30.3487010  51.4062920  41.7846010  29.5658800  51.8808420  42.0642770
  30.0549940  50.5017750  41.6759190  34.9008080  52.1086020  39.8295100
  35.3416170  52.0531120  38.9816700  34.6315670  53.0244030  39.9005280
  36.7646650  51.7401260  37.8403920  36.7035050  50.7962480  37.6934940
  37.5438680  51.8481350  38.3857380  21.0699400  67.8793620  36.8027870
  20.9021440  67.2464300  37.5009760  20.2033910  68.0853020  36.4522060
  21.6927420  51.7110400  34.3059730  22.4506780  51.8239280  33.7323760
  21.2304590  52.5479600  34.2603160  28.2341230  53.8249670  37.2962040
  27.4215740  53.4506560  36.9557920  28.7382870  53.0694750  37.5983230
  32.7366210  50.4892120  38.5345110  33.3395580  51.0612330  39.0093630
  31.9959200  51.0531560  38.3119010  35.8800810  50.8913680  33.8085390
  36.0751440  51.7897130  34.0752820  35.0930680  50.6600760  34.3018340
  22.6762100  66.5726850  34.2478010  22.1509720  66.9534880  33.5439970
  22.6006680  67.1977620  34.9687720  24.0652570  52.2374450  32.8461700
  24.5945330  51.4504250  32.7169650  24.6980890  52.9165640  33.0797230
  26.2590410  51.9749590  35.9007090  25.6293150  51.2736900  36.0677220
  25.7195550  52.7353720  35.6840250  26.3845970  51.2533570  48.3359580
  26.1030240  51.7567170  47.5720400  26.7665670  50.4555320  47.9701710
  25.2755070  68.5209230  33.1227260  26.0073890  68.2368510  32.5751150
  25.5348740  68.2822510  34.0126640  24.4369860  64.6373960  33.1273590
  23.8078740  65.1059060  33.6759420  24.5517690  63.7923180  33.5619780
  32.9861430  50.6687150  48.9140050  32.8726880  50.9881760  49.8091570
  33.8031170  51.0699660  48.6177330  31.8919580  58.6879620  19.2774790
  31.8113630  57.7734230  19.0066500  31.4784000  59.1846690  18.5714500
  30.0237620  60.4658640  21.1584060  29.2479720  59.9859080  21.4482630
  30.6750550  59.7864290  20.9840220  24.0403450  60.7778450  22.0359820
  23.2088330  60.5227160  22.4356330  24.6484430  60.8489220  22.7717740
  34.0445050  64.8718830  19.9383190  33.5826580  64.1006070  20.2670360
  34.8570600  64.8984900  20.4435640  24.0204710  64.8118540  22.2317840
  24.3232750  63.9216280  22.0528060  24.7648300  65.3688760  22.0040090
  22.4495400  55.7380340  15.8202210  21.5612100  56.0796310  15.7182090
  22.7336590  55.5380660  14.9283040  20.4128410  58.3385990  21.7041910
  20.9844520  57.5708190  21.7045550  20.4129950  58.6374750  20.7948520
  30.2708360  67.1576840  19.5587180  29.6519800  67.6134340  18.9881620
  31.1260140  67.3128300  19.1576880  29.4646610  63.1415830  21.1654220
  29.3954890  62.2005770  21.0043350  30.2266470  63.2317240  21.7376790
  21.6553280  53.7470350  23.4910840  21.4756120  52.8496100  23.7713600
  21.2533360  54.2942220  24.1657790  30.4951780  55.9486210  21.3923150
  30.8716600  55.0758090  21.2796820  30.3971290  56.2844910  20.5013590
  24.6256790  54.3211840  16.8540590  24.7323540  55.2215570  17.1609350
  23.7149150  54.2729810  16.5635240  34.2775900  53.4436650  18.3251490
  35.0985520  52.9533220  18.3676970  34.3109980  54.0334310  19.0783330
  22.2739950  56.2430850  22.0993180  22.9550060  56.5069220  22.7180580
  21.9588000  55.4031720  22.4331190  26.4664520  57.2898210  21.1865770
  26.9742740  57.7879180  21.8270790  26.9977760  56.5133410  21.0105130
  38.5675450  55.4603400  24.8895120  37.8627620  55.8485110  24.3710230
  38.8333370  56.1553690  25.4916050  24.7500620  51.9296770  25.4529190
  24.7519060  52.4469160  24.6475090  23.9204930  51.4526950  25.4299120
  31.1371710  62.0416080  16.9519090  30.5188980  62.5065530  16.3881810
  31.6494960  62.7343560  17.3688600  26.0003470  61.5691950  23.6302690
  25.6672850  62.1960870  24.2723760  26.1770150  62.0953830  22.8504360
  34.5137380  55.3837030  21.0979030  33.8092950  55.6721920  21.6782140
  34.8749540  56.1937140  20.7378590  24.4315950  53.6406730  23.4599640
  24.7732760  54.4848780  23.1653510  23.4931760  53.7890470  23.5764980
  25.2122570  63.5372750  25.4451870  25.8296570  64.2123830  25.1636320
  24.3515690  63.9460730  25.3539370  20.5054910  62.7272610  14.3258720
  20.1282890  63.2159710  13.5943620  20.7627980  63.3997890  14.9565250
  36.1300160  65.0012160  23.3606510  35.4463680  65.6711270  23.3523180
  36.6694450  65.1992810  22.5951370  37.5824300  54.8291820  21.4888240
  36.6349210  54.8630800  21.6203670  37.9074290  55.6430770  21.8737600
  28.1143840  51.1289000  19.7844230  28.4218820  50.5735890  19.0679730
  27.1844540  51.2633460  19.6017220  33.6658900  66.8456290  22.0751690
  33.6786060  66.4418580  21.2073950  33.1134120  67.6203580  21.9713120
  34.9604320  63.5672510  17.1641860  34.8500650  62.6246840  17.2891280
  34.9572570  63.9288150  18.0504620  33.0644340  61.7486130  23.4034300
  33.4813130  61.5346240  22.5687760  33.7884160  62.0058920  23.9742920
  30.5024600  59.1937830  16.5204350  29.5753880  59.1275210  16.7492820
  30.6549420  60.1317960  16.4059590  30.4893680  55.4654830  13.5171510
  29.5497350  55.6268790  13.6023970  30.8076940  56.1840510  12.9707500
  37.0106440  60.1473350  23.4950540  36.1825070  60.2166440  23.0200670
  37.6056920  60.7327660  23.0266370  34.5321890  60.7558130  17.0239600
  33.9134310  60.4177680  16.3765900  34.5146340  60.1117890  17.7318790
  33.9748450  56.9342670  24.4405410  33.5619630  57.7596380  24.6945400
  33.2424400  56.3487710  24.2481770  26.1081240  59.7202570  19.3024080
  25.7038240  59.0079820  18.8069980  26.1944360  59.3755810  20.1912120
  26.5762940  63.4070130  21.4663290  26.2791230  62.8015600  20.7871070
  27.5262760  63.4447440  21.3552650  24.8209860  56.4945780  23.0823120
  25.3724450  56.6041120  22.3076370  25.3353370  56.8683380  23.7978350
  34.6648550  66.9802000  25.1286390  34.1879110  67.7874190  24.9359000
  33.9810340  66.3280330  25.2812600  25.6681370  63.1451820  28.1171090
  24.7709900  63.3691790  28.3644490  25.6934240  63.2686760  27.1682490
  32.7086590  59.9944940  14.0312350  33.1479870  59.1567370  13.8850170
  33.4215010  60.6274340  14.1176490  24.4952590  60.0165140  26.6928460
  24.3560360  60.8887940  27.0615860  23.6133950  59.6737950  26.5476400
  30.8181970  64.9341010  17.9993590  31.2577880  65.6765340  17.5848980
  30.7568860  65.1767580  18.9232550  26.2932940  65.9586840  28.9013610
  26.2648370  66.3629790  28.0342040  26.1297910  65.0297200  28.7385210
  36.2903730  51.2487750  12.3453390  35.9776390  51.3414580  13.2452460
  37.0516200  51.8268780  12.2950820  22.8085870  58.6147550  16.8030730
  22.6883470  59.3409640  16.1912000  22.4986760  57.8450460  16.3258640
  20.4471240  61.7862690  22.6099370  20.5251660  61.9211460  21.6655090
  21.0612920  61.0778580  22.8027490  21.6918870  63.4862880  19.0205550
  21.2846950  63.6277470  18.1659150  22.5831880  63.2023040  18.8176760
  37.6481010  63.9326790  27.3577790  37.7744070  63.6938670  26.4394970
  37.6902390  63.1011330  27.8299870  31.5097750  67.6354790  25.9272600
  32.0242420  67.5462800  26.7295030  30.6666830  67.9814490  26.2200510
  33.4852150  67.9210130  15.3556600  33.3253290  67.6313070  16.2538430
  33.3198860  67.1450260  14.8201830  25.9640530  67.7008660  17.1328220
  25.7883010  66.7844200  16.9196020  25.1096270  68.0595950  17.3726020
  33.1878280  65.4297690  13.9154600  32.4943440  65.4274980  13.2556880
  33.9301140  65.0057010  13.4848770  32.7528210  67.0560400  17.9903090
  33.2085160  66.2749780  18.3041710  33.0920730  67.7667220  18.5344270
  20.5030760  62.8276860  25.1493830  20.6661800  62.3582220  24.3313200
  20.9683210  62.3200420  25.8142670  25.2749530  51.9582620  20.1854400
  24.8317680  52.7392160  19.8538920  25.8334520  52.2812510  20.8925340
  29.5619340  54.8251140  25.7889720  29.0998710  55.0334160  26.6009660
  29.1597450  54.0110490  25.4860390  34.5623850  56.0460090  26.9186380
  33.7117440  55.7465840  27.2395450  34.4025640  56.2902100  26.0070200
  31.6573560  57.5461840  29.0185170  31.9826970  56.7125590  28.6787400
  32.4453890  58.0690360  29.1663500  28.3908350  51.5793320  15.0660230
  27.7662530  51.5753190  15.7913540  28.3038470  50.7124280  14.6696200
  27.3125430  52.5029950  22.0444000  27.6097760  53.4092780  21.9636020
  27.8610990  52.0148730  21.4303570  25.0663750  57.0816190  17.9135650
  24.8404670  56.8653360  18.8182270  24.2856280  57.5144650  17.5681620
  32.2961510  57.0879560  16.5126300  31.6970400  57.8115360  16.3289920
  32.8441120  57.0256340  15.7302750  27.5062960  57.9801770  28.5795920
  27.4106560  57.0396500  28.4296320  28.3494940  58.2016840  28.1843990
  30.9026380  55.7243100  18.5429580  31.2955950  56.0415300  17.7298270
  31.2643230  54.8454980  18.6574100  22.6373500  54.3915440  26.7329700
  22.2436890  55.2390650  26.9402480  21.9491900  53.7541810  26.9238340
  29.2118550  54.4750410  29.8026440  28.5216870  54.2822610  30.4372530
  29.9550850  54.7585050  30.3350740  19.9390550  52.3143900  20.7659780
  19.6503600  52.8846760  21.4784760  20.6836310  51.8348350  21.1291010
  20.1260780  56.2564020  11.9762500  20.0435450  57.1994780  12.1177490
  19.7743840  56.1138930  11.0974850  31.4881520  58.3148850  22.6380360
  30.7562640  58.8235660  22.9870460  31.0905860  57.4978830  22.3369140
  27.9258910  54.9903050  21.0432850  27.9294970  54.5493000  20.1937390
  28.8210030  55.3120380  21.1504670  23.7761290  54.8729540  20.0027060
  23.4361340  55.3504770  20.7594110  23.0138610  54.4194660  19.6428160
  27.9879060  55.9915130  14.0339610  28.1091880  55.9501610  14.9825430
  27.6027570  56.8539280  13.8786340  31.9507430  53.7682530  22.0503300
  31.9680170  54.2191180  22.8945150  31.7023010  52.8688170  22.2636740
  27.0000560  58.3016270  13.4322910  26.4317460  57.8534520  12.8058820
  27.7089560  58.6609050  12.8988060  35.3778180  51.1814710  27.8889680
  35.7023950  50.4504370  28.4147660  35.4134690  50.8628350  26.9870670
  22.0769740  62.2028290  27.3089640  21.6924530  61.5621960  27.9072600
  22.3881930  62.9064410  27.8784370  28.2266880  59.0504830  22.7898260
  28.5937010  58.5763400  23.5359600  28.0371940  59.9246400  23.1306600
  21.0907370  53.7948520  18.9191730  20.8054290  53.4304190  19.7570350
  21.0286230  53.0628980  18.3054870  26.0166250  58.0913470  25.1082470
  25.7123320  58.9705450  25.3332830  26.9712710  58.1513260  25.1439910
  24.5448040  62.2974460  15.7049320  23.7710300  61.7572080  15.5448040
  25.2742670  61.7781070  15.3667080  35.3036020  61.2939820  21.4975710
  36.0235140  61.7895110  21.1071820  35.1017840  60.6157710  20.8529580
  30.7645960  52.6877780  15.6405100  29.9510570  52.1890950  15.5650410
  30.5707910  53.5276030  15.2241450  30.6854820  61.3648880  27.3844710
  30.6192130  60.4444550  27.1302300  30.0559960  61.4624320  28.0989350
  33.4794350  57.0597430  13.9367260  34.3673970  57.3714660  13.7618600
  33.4499440  56.1869680  13.5447840  24.5885440  61.9654840  19.3428130
  25.1064110  61.1623100  19.2885020  24.1369460  61.9033980  20.1844960
  29.4754940  63.2321120  14.6155430  29.8170640  63.9763350  14.1198750
  28.6467650  63.5452240  14.9780260  22.0729980  58.9316210  26.2553830
  21.7144920  59.5970060  26.8427170  21.7784540  58.0999760  26.6266450
  25.2743100  59.3900450  29.1393380  24.9743240  59.5357630  28.2421200
  26.0454340  58.8305740  29.0466770  30.6171550  64.1869450  27.1348510
  30.6316090  63.2550410  26.9167420  29.9096650  64.2729210  27.7738280
  35.7508620  58.3709270  13.4047120  35.6672340  58.8023490  12.5543560
  36.4702810  58.8307620  13.8373940  36.8282760  60.8276790  26.4817090
  36.1030950  61.4205570  26.2846480  37.3558220  60.8200330  25.6830460
  36.7795870  65.2251530  16.1329250  36.1372030  64.5707150  16.4072970
  36.3926530  65.6306620  15.3569920  32.3582350  62.5536960  19.9800940
  32.7106170  61.9565090  19.3202310  31.4744680  62.2281190  20.1509190
  28.4445630  63.3134650  17.3871350  29.1316760  63.8603860  17.7678940
  27.6578050  63.8575380  17.4220960  20.5838030  58.9307470  12.8788430
  21.4532880  59.2132270  13.1624350  20.0928350  59.7443340  12.7637240
  27.7472840  60.3180680  16.9996710  28.2035620  61.1285930  17.2256900
  27.3961050  60.0003820  17.8315200  30.0505450  65.8287020  24.2289010
  30.6947670  66.0346400  24.9062430  30.4134890  65.0675420  23.7759860
  23.6484620  50.6618330  17.4719230  23.5199250  50.6536230  18.4204150
  22.8246640  51.0001420  17.1210240  31.3237530  63.8319370  22.9466460
  31.9659760  63.1312530  23.0598630  31.8486880  64.6117810  22.7663350
  35.1693250  64.1167990  12.6705600  34.9430830  63.3998430  13.2630240
  34.7789450  63.8680430  11.8327350  33.0975150  64.6314270  26.1502520
  33.4331390  65.2180960  26.8280440  32.1775490  64.5006980  26.3800310
  20.9509280  68.1434850  13.4450060  21.3106920  68.7424190  12.7907330
  20.8101620  68.6894740  14.2185090  20.6478550  52.4209450  26.9325930
  19.9337070  52.6206370  27.5378540  21.0673590  51.6449020  27.3040730
  34.7509500  62.0339930  14.3319760  34.4631200  62.4952620  15.1197640
  35.5461670  61.5737700  14.6003980  20.9351140  66.4089710  27.9192460
  21.0442260  65.4684450  27.7787850  20.2831700  66.6744460  27.2706190
  28.9263730  64.6805600  29.3190580  28.6060600  63.9614840  29.8636270
  28.2522090  65.3560670  29.3926640  26.9677900  65.5266050  14.2623730
  26.9588000  66.2595740  13.6468240  26.0476260  65.2797630  14.3550690
  22.5684540  60.7480940  15.0070490  21.9612490  61.4879840  15.0165790
  23.0433890  60.8380300  14.1808690  32.1417330  54.9131760  24.6827380
  32.5098150  54.0926970  25.0106950  31.2815530  54.9733650  25.0983030
  35.5079360  53.8688700  15.4914940  34.8792520  53.9734370  14.7773170
  35.0131280  54.0885480  16.2808820  29.9537500  65.5894290  12.9248920
  30.0549480  65.3858280  11.9950900  29.0539240  65.3352570  13.1296700
  27.4763390  56.1474650  16.9072820  26.7679540  56.6160990  17.3486430
  27.7607870  55.4896660  17.5418010  29.1019320  57.5671350  24.9065350
  29.6004570  58.0417170  25.5717200  29.2442270  56.6434870  25.1135380
  31.5078820  52.8725310  18.3468610  31.3846600  52.8911440  17.3978120
  32.4563380  52.9204250  18.4667010  28.5955610  68.1080610  17.6196590
  28.8497110  68.0702000  16.6975960  27.6468090  67.9813940  17.6124840
  25.6798410  54.4559730  14.2823530  26.5288940  54.8929880  14.2163720
  25.3129680  54.7679990  15.1095590  36.3086180  53.7839310  25.7493740
  35.8059780  54.5244710  26.0887550  37.1242840  54.1723310  25.4330530
  34.6008190  59.0272490  19.1955100  33.6598330  59.0422720  19.3702790
  34.9152260  58.2408450  19.6415400  24.5789830  60.7092090  12.7559060
  25.3453100  60.5973450  13.3184490  24.6564520  60.0130060  12.1035830
  23.2736590  58.1417160  13.4391950  23.3540180  57.1944670  13.5509350
  24.1656340  58.4724040  13.5452610  36.6033770  66.1981340  20.8709360
  36.7281190  67.0212510  21.3433170  37.4699330  65.9872070  20.5233510
  24.0751300  68.2912550  20.5426490  24.8113780  67.7428010  20.8135060
  24.4592220  69.1568560  20.4032480  20.9596780  64.3586120  16.4168000
  20.0336560  64.6007260  16.4073410  21.4253210  65.1860380  16.2952750
  23.0809580  67.4758620  29.7312070  23.8822310  67.7970670  30.1447470
  22.5661400  67.1154200  30.4531980  27.1853610  67.4642860  12.3652060
  27.9782220  67.7531690  11.9133850  26.6657960  67.0335030  11.6864540
  31.9174210  63.5838490  29.6787480  31.3112370  63.6070090  28.9383230
  31.6128320  62.8521530  30.2154730  33.3474580  67.3118780  28.2896890
  34.2996330  67.2276800  28.2397130  33.2002800  67.9760490  28.9630680
  36.2383780  66.6912990  13.7888800  35.9525290  66.2778130  12.9742980
  36.0403330  67.6200700  13.6689320  20.8007390  59.9632080  28.6748120
  21.3046410  59.3839360  29.2464350  20.0614810  60.2472310  29.2124490
  27.7031010  62.6846270  12.2294410  27.5981650  62.0698620  12.9555790
  27.5355230  62.1612160  11.4457420  27.8545330  61.3703070  28.2083640
  27.0891000  61.9388070  28.1238310  28.0361290  61.0779280  27.3151870
  30.9433740  61.7466300  12.8336400  30.3943840  62.1935600  13.4779140
  31.5653000  61.2415550  13.3574070  34.9968680  63.1008400  28.7658660
  35.7378150  63.4384160  28.2626120  34.2341360  63.2700460  28.2128430
  22.8330470  58.1061670  29.5698190  22.8735810  57.8075540  30.4783420
  23.6875970  58.5069280  29.4105710  26.6108860  60.7057220  14.7301700
  27.0325280  60.5397090  15.5733090  26.7359700  59.8957450  14.2356840
  24.7736280  56.6853770  27.5372680  24.2432740  56.1944720  26.9096020
  25.4424350  57.1137970  27.0030610  29.1236500  59.7294830  11.9778800
  29.6442160  59.0143850  11.6119950  29.7704900  60.3680700  12.2779310
  33.6714340  61.1523230  27.3013870  34.0855360  61.3068310  28.1504290
  32.7365340  61.2778450  27.4639650  34.1436510  58.4919390  29.3053020
  34.7257280  57.7371710  29.2173500  34.3198280  59.0226830  28.5284500
  25.2608580  53.6516140  27.6169970  25.1665450  53.0336890  26.8920840
  24.6805970  54.3782430  27.3899880  28.0270020  52.2089380  24.6497360
  27.5787320  52.2313640  23.8042910  27.3935220  51.8108400  25.2467660
  28.4329570  61.1043710  25.2709800  28.8517680  61.9476440  25.0986040
  27.5138200  61.2415750  25.0416580  30.7693470  58.8359890  26.6547640
  30.8889680  58.2401030  27.3942480  31.6287470  58.8729580  26.2348940
  33.1081370  59.3897080  25.2310150  32.5816590  59.9139700  24.6275290
  33.4512710  60.0224470  25.8619880  25.5067760  56.7790450  11.6759860
  25.3056820  55.9157810  12.0373200  25.3359810  56.6923810  10.7381460
  26.2836990  67.4096720  26.3867530  25.7458080  68.1342780  26.0676230
  26.5370950  66.9327060  25.5964870  27.5362240  55.3781240  27.9123460
  28.1261930  55.0697090  28.6001280  26.7182480  54.9060990  28.0683360
  32.3555670  54.9947050  28.1456480  31.6671190  54.3328590  28.0806470
  33.0761690  54.5485320  28.5904940  32.9856070  51.5898680  14.2046740
  33.2658360  50.7466580  14.5606160  32.2121800  51.8221790  14.7185490
  24.3050560  53.8791070  11.6637740  24.6076460  53.8858500  10.7556890
  25.0445150  53.5288930  12.1605400  29.1399200  68.6447930  26.6454180
  29.0657900  69.5483070  26.9526550  28.2378040  68.3259830  26.6176250
  27.5235490  52.8225690  12.6493940  27.1757490  52.1449680  12.0696390
  27.7248260  52.3615200  13.4637330  29.6884530  67.8106440  14.2680540
  30.5835320  68.1491410  14.2899300  29.7202160  67.0885850  13.6404820
  23.3280690  63.1833490  12.4967540  23.7655560  63.7263160  13.1525120
  23.8128420  62.3580440  12.5063880  20.5426490  65.9722520  19.9487800
  20.8729500  65.1043580  19.7166440  20.9717490  66.1781040  20.7792760
  25.1388410  64.3031530  17.6089770  24.8383950  64.1796500  18.5093680
  25.0325900  63.4440120  17.2005500  21.0316700  66.8393110  22.6869430
  20.5947690  67.0193910  23.5193580  21.5994380  67.5967730  22.5451150
  36.6678880  66.3410110  26.9746740  36.0680870  66.4002670  26.2310660
  36.7972780  65.4015090  27.1043590  37.9080330  64.0827930  12.3116450
  37.0773290  64.1504580  12.7823680  38.0852160  64.9732050  12.0083310
  37.3636790  60.8275410  14.8150650  38.1255700  61.3972060  14.9210340
  37.3791160  60.2602610  15.5858960  20.8641130  59.3513340  19.0458310
  20.2089970  59.0824980  18.4018010  21.7019080  59.2417820  18.5960290
  38.3696760  61.6825510  19.6592580  38.7405590  60.8992830  19.2528550
  39.0098690  62.3714610  19.4809880  35.3530520  63.0662090  25.0722900
  34.5390360  63.4959250  25.3348690  35.7604720  63.6780500  24.4591950
  37.4155960  61.1209780  11.9723170  37.6904800  62.0288660  11.8442390
  37.2266700  61.0572310  12.9085160  33.8131570  54.1454630  13.2676800
  34.2316450  53.9585610  12.4273460  33.5067630  53.2933680  13.5779730
  37.3121300  59.0578770  16.9652600  36.9364900  58.2906700  16.5333890
  36.5824420  59.4401470  17.4527530  21.9017060  59.7365910  23.5861650
  22.2690100  59.6493310  24.4657670  21.3327880  58.9732460  23.4868510
  36.7020920  58.2050290  26.5992120  36.4707010  57.9763040  25.6990070
  36.9625470  59.1249840  26.5537010  21.4533060  56.6475000  27.4920070
  20.5589110  56.6141760  27.8313780  21.9930610  56.8461790  28.2571320
  35.1408990  53.4306720  29.3771820  36.0179170  53.4390120  29.7605820
  35.1529830  52.6937560  28.7664170  20.0779210  56.5612270  14.9883640
  19.1743290  56.8242470  14.8135300  20.5619830  56.8323440  14.2083600
  36.5872260  57.2836260  20.2659840  37.1109740  56.7898910  19.6350010
  37.1731680  57.4186620  21.0107410  36.7661980  57.3676130  23.7879390
  35.8164690  57.3339670  23.9024380  36.9474990  58.2776240  23.5529160
  22.6206420  55.6177810  12.8978020  23.3298120  55.1961030  12.4125300
  21.9046360  55.6853040  12.2661370  22.2680580  51.6717140  11.9380670
  22.9908710  52.2126080  12.2561890  22.5405100  51.3980560  11.0622210
  36.0772230  56.5409610  16.2052250  36.5731350  56.3080480  16.9901130
  35.8788300  55.7021450  15.7889890  21.9572770  50.9223330  21.8403290
  22.6048960  50.3720710  21.3998450  22.3774610  51.1766480  22.6619100
  37.5059390  55.1770560  18.7389930  37.3958670  55.0226600  19.6772200
  38.2666980  54.6491500  18.4965340  35.8525110  51.1164690  25.1972930
  36.4897330  51.7298830  25.5632120  36.0000000  51.1525350  24.2522160
  38.3949660  53.0078480  11.9796070  39.3198970  52.8759660  11.7714360
  38.3725450  53.0871300  12.9332520  38.4688150  53.7789140  14.6052780
  37.6739650  53.7134260  15.1345690  38.6731430  54.7139780  14.5938130
  35.4106570  67.8180690  18.5991170  36.0065640  67.4965260  17.9225590
  35.6684720  67.3452510  19.3904440  21.7104770  51.0779000  24.5828610
  21.3619590  51.5342820  25.3486790  21.3792470  50.1836130  24.6651040
  23.3169140  64.2498600  28.7481800  23.2738770  63.8791510  29.6296260
  23.4480150  65.1876170  28.8883620  27.0175170  65.8058190  24.3491520
  26.7766530  66.0732750  23.4622040  27.9577810  65.9763920  24.4042380
  29.2229590  52.2690880  28.1048030  29.1618480  52.8612710  28.8543440
  30.1629970  52.1616840  27.9598290  31.8604150  51.9260940  27.7440320
  32.4744560  52.2440230  27.0821400  32.4053710  51.4409530  28.3636180
  38.2779330  67.8252570  25.1502160  37.7837610  68.2221440  24.4329290
  37.6692620  67.2001780  25.5439440  22.3825410  50.6055200  27.8579380
  22.9308400  50.4243250  27.0945490  22.4480720  49.8149310  28.3935690
  23.1557170  67.1960850  25.8679580  22.5617490  67.0645550  26.6069620
  23.1481010  66.3598990  25.4021680  32.6012190  50.4893080  24.0709610
  31.7272030  50.8228190  23.8682540  32.4922940  50.0166260  24.8961480
  33.5084170  52.6963950  25.4551330  33.1797530  51.8815710  25.0753060
  34.4566470  52.6533760  25.3317020  35.9618780  68.4675990  22.4288900
  35.5021750  69.2191800  22.0546920  35.3331240  67.7482460  22.3703700
  22.7869400  64.5619230  24.8187620  22.0603460  63.9424520  24.7513570
  22.8478550  64.9559840  23.9485700  26.3914500  66.7764230  21.6037030
  26.9079520  66.1651590  21.0785290  27.0411880  67.2793010  22.0948040
  29.1310000  67.6672720  22.4306010  29.4187810  67.4127020  21.5539020
  29.6433220  67.1150080  23.0211580  30.3487010  51.4062920  23.0102520
  29.5658800  51.8808420  23.2899280  30.0549940  50.5017750  22.9015700
  34.9008080  52.1086020  21.0551610  35.3416170  52.0531120  20.2073210
  34.6315670  53.0244030  21.1261790  36.7646650  51.7401260  19.0660430
  36.7035050  50.7962480  18.9191450  37.5438680  51.8481350  19.6113890
  21.0699400  67.8793620  18.0284380  20.9021440  67.2464300  18.7266270
  20.2033910  68.0853020  17.6778570  21.6927420  51.7110400  15.5316240
  22.4506780  51.8239280  14.9580270  21.2304590  52.5479600  15.4859670
  28.2341230  53.8249670  18.5218550  27.4215740  53.4506560  18.1814430
  28.7382870  53.0694750  18.8239740  32.7366210  50.4892120  19.7601620
  33.3395580  51.0612330  20.2350140  31.9959200  51.0531560  19.5375520
  35.8800810  50.8913680  15.0341900  36.0751440  51.7897130  15.3009330
  35.0930680  50.6600760  15.5274850  22.6762100  66.5726850  15.4734520
  22.1509720  66.9534880  14.7696480  22.6006680  67.1977620  16.1944230
  24.0652570  52.2374450  14.0718210  24.5945330  51.4504250  13.9426160
  24.6980890  52.9165640  14.3053740  26.2590410  51.9749590  17.1263600
  25.6293150  51.2736900  17.2933730  25.7195550  52.7353720  16.9096760
  29.1982360  68.5888820  29.7974210  30.1249670  68.3533090  29.8410170
  29.1832790  69.4160820  29.3160240  37.4327420  68.1314390  16.7948460
  37.6079610  67.4452130  16.1509380  36.7348990  68.6561440  16.4025130
  26.3845970  51.2533570  29.5616090  26.1030240  51.7567170  28.7976910
  26.7665670  50.4555320  29.1958220  25.2755070  68.5209230  14.3483770
  26.0073890  68.2368510  13.8007660  25.5348740  68.2822510  15.2383150
  24.4369860  64.6373960  14.3530100  23.8078740  65.1059060  14.9015930
  24.5517690  63.7923180  14.7876290  32.9861430  50.6687150  30.1396560
  32.8726880  50.9881760  31.0348080  33.8031170  51.0699660  29.8433840
  35.7659920  67.8158680  29.6215250  36.5585240  67.3207910  29.4141210
  36.0593070  68.4948820  30.2290860  30.0237620  60.4658640   2.3840570
  29.2479720  59.9859080   2.6739140  30.6750550  59.7864290   2.2096730
  24.0403450  60.7778450   3.2616330  23.2088330  60.5227160   3.6612840
  24.6484430  60.8489220   3.9974250  24.0204710  64.8118540   3.4574350
  24.3232750  63.9216280   3.2784570  24.7648300  65.3688760   3.2296600
  20.4128410  58.3385990   2.9298420  20.9844520  57.5708190   2.9302060
  20.4129950  58.6374750   2.0205030  29.4646610  63.1415830   2.3910730
  29.3954890  62.2005770   2.2299860  30.2266470  63.2317240   2.9633300
  21.6553280  53.7470350   4.7167350  21.4756120  52.8496100   4.9970110
  21.2533360  54.2942220   5.3914300  30.4951780  55.9486210   2.6179660
  30.8716600  55.0758090   2.5053330  30.3971290  56.2844910   1.7270100
  22.2739950  56.2430850   3.3249690  22.9550060  56.5069220   3.9437090
  21.9588000  55.4031720   3.6587700  26.4664520  57.2898210   2.4122280
  26.9742740  57.7879180   3.0527300  26.9977760  56.5133410   2.2361640
  38.5675450  55.4603400   6.1151630  37.8627620  55.8485110   5.5966740
  38.8333370  56.1553690   6.7172560  24.7500620  51.9296770   6.6785700
  24.7519060  52.4469160   5.8731600  23.9204930  51.4526950   6.6555630
  26.0003470  61.5691950   4.8559200  25.6672850  62.1960870   5.4980270
  26.1770150  62.0953830   4.0760870  34.5137380  55.3837030   2.3235540
  33.8092950  55.6721920   2.9038650  34.8749540  56.1937140   1.9635100
  24.4315950  53.6406730   4.6856150  24.7732760  54.4848780   4.3910020
  23.4931760  53.7890470   4.8021490  25.2122570  63.5372750   6.6708380
  25.8296570  64.2123830   6.3892830  24.3515690  63.9460730   6.5795880
  36.1300160  65.0012160   4.5863020  35.4463680  65.6711270   4.5779690
  36.6694450  65.1992810   3.8207880  37.5824300  54.8291820   2.7144750
  36.6349210  54.8630800   2.8460180  37.9074290  55.6430770   3.0994110
  33.6658900  66.8456290   3.3008200  33.6786060  66.4418580   2.4330460
  33.1134120  67.6203580   3.1969630  33.0644340  61.7486130   4.6290810
  33.4813130  61.5346240   3.7944270  33.7884160  62.0058920   5.1999430
  37.0106440  60.1473350   4.7207050  36.1825070  60.2166440   4.2457180
  37.6056920  60.7327660   4.2522880  33.9748450  56.9342670   5.6661920
  33.5619630  57.7596380   5.9201910  33.2424400  56.3487710   5.4738280
  26.5762940  63.4070130   2.6919800  26.2791230  62.8015600   2.0127580
  27.5262760  63.4447440   2.5809160  24.8209860  56.4945780   4.3079630
  25.3724450  56.6041120   3.5332880  25.3353370  56.8683380   5.0234860
  34.6648550  66.9802000   6.3542900  34.1879110  67.7874190   6.1615510
  33.9810340  66.3280330   6.5069110  25.6681370  63.1451820   9.3427600
  24.7709900  63.3691790   9.5901000  25.6934240  63.2686760   8.3939000
  24.4952590  60.0165140   7.9184970  24.3560360  60.8887940   8.2872370
  23.6133950  59.6737950   7.7732910  26.2932940  65.9586840  10.1270120
  26.2648370  66.3629790   9.2598550  26.1297910  65.0297200   9.9641720
  38.2447760  66.7413940  11.4234290  38.7207480  67.2196830  12.1023370
  38.8654920  66.6731430  10.6979790  20.4471240  61.7862690   3.8355880
  20.5251660  61.9211460   2.8911600  21.0612920  61.0778580   4.0284000
  37.6481010  63.9326790   8.5834300  37.7744070  63.6938670   7.6651480
  37.6902390  63.1011330   9.0556380  31.5097750  67.6354790   7.1529110
  32.0242420  67.5462800   7.9551540  30.6666830  67.9814490   7.4457020
  37.5005020  55.9859250   9.5484040  36.8849290  56.4938920   9.0199500
  37.1801440  55.0857580   9.4909980  20.5030760  62.8276860   6.3750340
  20.6661800  62.3582220   5.5569710  20.9683210  62.3200420   7.0399180
  29.5619340  54.8251140   7.0146230  29.0998710  55.0334160   7.8266170
  29.1597450  54.0110490   6.7116900  34.5623850  56.0460090   8.1442890
  33.7117440  55.7465840   8.4651960  34.4025640  56.2902100   7.2326710
  31.6573560  57.5461840  10.2441680  31.9826970  56.7125590   9.9043910
  32.4453890  58.0690360  10.3920010  27.3125430  52.5029950   3.2700510
  27.6097760  53.4092780   3.1892530  27.8610990  52.0148730   2.6560080
  27.5062960  57.9801770   9.8052430  27.4106560  57.0396500   9.6552830
  28.3494940  58.2016840   9.4100500  22.6373500  54.3915440   7.9586210
  22.2436890  55.2390650   8.1658990  21.9491900  53.7541810   8.1494850
  29.2118550  54.4750410  11.0282950  28.5216870  54.2822610  11.6629040
  29.9550850  54.7585050  11.5607250  19.9390550  52.3143900   1.9916290
  19.6503600  52.8846760   2.7041270  20.6836310  51.8348350   2.3547520
  31.4881520  58.3148850   3.8636870  30.7562640  58.8235660   4.2126970
  31.0905860  57.4978830   3.5625650  27.9258910  54.9903050   2.2689360
  27.9294970  54.5493000   1.4193900  28.8210030  55.3120380   2.3761180
  31.9507430  53.7682530   3.2759810  31.9680170  54.2191180   4.1201660
  31.7023010  52.8688170   3.4893250  35.3778180  51.1814710   9.1146190
  35.7023950  50.4504370   9.6404170  35.4134690  50.8628350   8.2127180
  22.0769740  62.2028290   8.5346150  21.6924530  61.5621960   9.1329110
  22.3881930  62.9064410   9.1040880  28.2266880  59.0504830   4.0154770
  28.5937010  58.5763400   4.7616110  28.0371940  59.9246400   4.3563110
  26.0166250  58.0913470   6.3338980  25.7123320  58.9705450   6.5589340
  26.9712710  58.1513260   6.3696420  35.3036020  61.2939820   2.7232220
  36.0235140  61.7895110   2.3328330  35.1017840  60.6157710   2.0786090
  30.6854820  61.3648880   8.6101220  30.6192130  60.4444550   8.3558810
  30.0559960  61.4624320   9.3245860  22.0729980  58.9316210   7.4810340
  21.7144920  59.5970060   8.0683680  21.7784540  58.0999760   7.8522960
  25.2743100  59.3900450  10.3649890  24.9743240  59.5357630   9.4677710
  26.0454340  58.8305740  10.2723280  30.6171550  64.1869450   8.3605020
  30.6316090  63.2550410   8.1423930  29.9096650  64.2729210   8.9994790
  36.8282760  60.8276790   7.7073600  36.1030950  61.4205570   7.5102990
  37.3558220  60.8200330   6.9086970  30.0505450  65.8287020   5.4545520
  30.6947670  66.0346400   6.1318940  30.4134890  65.0675420   5.0016370
  31.3237530  63.8319370   4.1722970  31.9659760  63.1312530   4.2855140
  31.8486880  64.6117810   3.9919860  33.0975150  64.6314270   7.3759030
  33.4331390  65.2180960   8.0536950  32.1775490  64.5006980   7.6056820
  20.6478550  52.4209450   8.1582440  19.9337070  52.6206370   8.7635050
  21.0673590  51.6449020   8.5297240  20.9351140  66.4089710   9.1448970
  21.0442260  65.4684450   9.0044360  20.2831700  66.6744460   8.4962700
  28.9263730  64.6805600  10.5447090  28.6060600  63.9614840  11.0892780
  28.2522090  65.3560670  10.6183150  32.1417330  54.9131760   5.9083890
  32.5098150  54.0926970   6.2363460  31.2815530  54.9733650   6.3239540
  29.1019320  57.5671350   6.1321860  29.6004570  58.0417170   6.7973710
  29.2442270  56.6434870   6.3391890  36.3086180  53.7839310   6.9750250
  35.8059780  54.5244710   7.3144060  37.1242840  54.1723310   6.6587040
  36.6033770  66.1981340   2.0965870  36.7281190  67.0212510   2.5689680
  37.4699330  65.9872070   1.7490020  24.0751300  68.2912550   1.7683000
  24.8113780  67.7428010   2.0391570  24.4592220  69.1568560   1.6288990
  23.0809580  67.4758620  10.9568580  23.8822310  67.7970670  11.3703980
  22.5661400  67.1154200  11.6788490  31.9174210  63.5838490  10.9043990
  31.3112370  63.6070090  10.1639740  31.6128320  62.8521530  11.4411240
  33.3474580  67.3118780   9.5153400  34.2996330  67.2276800   9.4653640
  33.2002800  67.9760490  10.1887190  20.8007390  59.9632080   9.9004630
  21.3046410  59.3839360  10.4720860  20.0614810  60.2472310  10.4381000
  27.8545330  61.3703070   9.4340150  27.0891000  61.9388070   9.3494820
  28.0361290  61.0779280   8.5408380  34.9968680  63.1008400   9.9915170
  35.7378150  63.4384160   9.4882630  34.2341360  63.2700460   9.4384940
  22.8330470  58.1061670  10.7954700  22.8735810  57.8075540  11.7039930
  23.6875970  58.5069280  10.6362220  24.7736280  56.6853770   8.7629190
  24.2432740  56.1944720   8.1352530  25.4424350  57.1137970   8.2287120
  33.6714340  61.1523230   8.5270380  34.0855360  61.3068310   9.3760800
  32.7365340  61.2778450   8.6896160  34.1436510  58.4919390  10.5309530
  34.7257280  57.7371710  10.4430010  34.3198280  59.0226830   9.7541010
  25.2608580  53.6516140   8.8426480  25.1665450  53.0336890   8.1177350
  24.6805970  54.3782430   8.6156390  28.0270020  52.2089380   5.8753870
  27.5787320  52.2313640   5.0299420  27.3935220  51.8108400   6.4724170
  28.4329570  61.1043710   6.4966310  28.8517680  61.9476440   6.3242550
  27.5138200  61.2415750   6.2673090  30.7693470  58.8359890   7.8804150
  30.8889680  58.2401030   8.6198990  31.6287470  58.8729580   7.4605450
  33.1081370  59.3897080   6.4566660  32.5816590  59.9139700   5.8531800
  33.4512710  60.0224470   7.0876390  26.2836990  67.4096720   7.6124040
  25.7458080  68.1342780   7.2932740  26.5370950  66.9327060   6.8221380
  27.5362240  55.3781240   9.1379970  28.1261930  55.0697090   9.8257790
  26.7182480  54.9060990   9.2939870  32.3555670  54.9947050   9.3712990
  31.6671190  54.3328590   9.3062980  33.0761690  54.5485320   9.8161450
  29.1399200  68.6447930   7.8710690  29.0657900  69.5483070   8.1783060
  28.2378040  68.3259830   7.8432760  21.0316700  66.8393110   3.9125940
  20.5947690  67.0193910   4.7450090  21.5994380  67.5967730   3.7707660
  36.6678880  66.3410110   8.2003250  36.0680870  66.4002670   7.4567170
  36.7972780  65.4015090   8.3300100  35.3530520  63.0662090   6.2979410
  34.5390360  63.4959250   6.5605200  35.7604720  63.6780500   5.6848460
  21.9017060  59.7365910   4.8118160  22.2690100  59.6493310   5.6914180
  21.3327880  58.9732460   4.7125020  36.7020920  58.2050290   7.8248630
  36.4707010  57.9763040   6.9246580  36.9625470  59.1249840   7.7793520
  21.4533060  56.6475000   8.7176580  20.5589110  56.6141760   9.0570290
  21.9930610  56.8461790   9.4827830  35.1408990  53.4306720  10.6028330
  36.0179170  53.4390120  10.9862330  35.1529830  52.6937560   9.9920680
  36.7661980  57.3676130   5.0135900  35.8164690  57.3339670   5.1280890
  36.9474990  58.2776240   4.7785670  21.9572770  50.9223330   3.0659800
  22.6048960  50.3720710   2.6254960  22.3774610  51.1766480   3.8875610
  35.8525110  51.1164690   6.4229440  36.4897330  51.7298830   6.7888630
  36.0000000  51.1525350   5.4778670  21.7104770  51.0779000   5.8085120
  21.3619590  51.5342820   6.5743300  21.3792470  50.1836130   5.8907550
  23.3169140  64.2498600   9.9738310  23.2738770  63.8791510  10.8552770
  23.4480150  65.1876170  10.1140130  27.0175170  65.8058190   5.5748030
  26.7766530  66.0732750   4.6878550  27.9577810  65.9763920   5.6298890
  29.2229590  52.2690880   9.3304540  29.1618480  52.8612710  10.0799950
  30.1629970  52.1616840   9.1854800  31.8604150  51.9260940   8.9696830
  32.4744560  52.2440230   8.3077910  32.4053710  51.4409530   9.5892690
  38.2779330  67.8252570   6.3758670  37.7837610  68.2221440   5.6585800
  37.6692620  67.2001780   6.7695950  22.3825410  50.6055200   9.0835890
  22.9308400  50.4243250   8.3202000  22.4480720  49.8149310   9.6192200
  23.1557170  67.1960850   7.0936090  22.5617490  67.0645550   7.8326130
  23.1481010  66.3598990   6.6278190  32.6012190  50.4893080   5.2966120
  31.7272030  50.8228190   5.0939050  32.4922940  50.0166260   6.1217990
  33.5084170  52.6963950   6.6807840  33.1797530  51.8815710   6.3009570
  34.4566470  52.6533760   6.5573530  35.9618780  68.4675990   3.6545410
  35.5021750  69.2191800   3.2803430  35.3331240  67.7482460   3.5960210
  22.7869400  64.5619230   6.0444130  22.0603460  63.9424520   5.9770080
  22.8478550  64.9559840   5.1742210  26.3914500  66.7764230   2.8293540
  26.9079520  66.1651590   2.3041800  27.0411880  67.2793010   3.3204550
  29.1310000  67.6672720   3.6562520  29.4187810  67.4127020   2.7795530
  29.6433220  67.1150080   4.2468090  30.3487010  51.4062920   4.2359030
  29.5658800  51.8808420   4.5155790  30.0549940  50.5017750   4.1272210
  34.9008080  52.1086020   2.2808120  35.3416170  52.0531120   1.4329720
  34.6315670  53.0244030   2.3518300  29.1982360  68.5888820  11.0230720
  30.1249670  68.3533090  11.0666680  29.1832790  69.4160820  10.5416750
  26.3845970  51.2533570  10.7872600  26.1030240  51.7567170  10.0233420
  26.7665670  50.4555320  10.4214730  32.9861430  50.6687150  11.3653070
  32.8726880  50.9881760  12.2604590  33.8031170  51.0699660  11.0690350
  35.7659920  67.8158680  10.8471760  36.5585240  67.3207910  10.6397720
  36.0593070  68.4948820  11.4547370  31.8919580  39.9136130 150.6979220
  31.8113630  38.9990740 150.4270930  31.4784000  40.4103200 149.9918930
  30.0237620  41.6915150 152.5788490  29.2479720  41.2115590 152.8687060
  30.6750550  41.0120800 152.4044650  34.0445050  46.0975340 151.3587620
  33.5826580  45.3262580 151.6874790  34.8570600  46.1241410 151.8640070
  22.4495400  36.9636850 147.2406640  21.5612100  37.3052820 147.1386520
  22.7336590  36.7637170 146.3487470  20.4128410  39.5642500 153.1246340
  20.9844520  38.7964700 153.1249980  20.4129950  39.8631260 152.2152950
  30.2708360  48.3833350 150.9791610  29.6519800  48.8390850 150.4086050
  31.1260140  48.5384810 150.5781310  29.4646610  44.3672340 152.5858650
  29.3954890  43.4262280 152.4247780  30.2266470  44.4573750 153.1581220
  30.4951780  37.1742720 152.8127580  30.8716600  36.3014600 152.7001250
  30.3971290  37.5101420 151.9218020  24.6256790  35.5468350 148.2745020
  24.7323540  36.4472080 148.5813780  23.7149150  35.4986320 147.9839670
  34.2775900  34.6693160 149.7455920  35.0985520  34.1789730 149.7881400
  34.3109980  35.2590820 150.4987760  31.1371710  43.2672590 148.3723520
  30.5188980  43.7322040 147.8086240  31.6494960  43.9600070 148.7893030
  34.5137380  36.6093540 152.5183460  33.8092950  36.8978430 153.0986570
  34.8749540  37.4193650 152.1583020  20.5054910  43.9529120 145.7463150
  20.1282890  44.4416220 145.0148050  20.7627980  44.6254400 146.3769680
  28.1143840  32.3545510 151.2048660  28.4218820  31.7992400 150.4884160
  27.1844540  32.4889970 151.0221650  34.9604320  44.7929020 148.5846290
  34.8500650  43.8503350 148.7095710  34.9572570  45.1544660 149.4709050
  30.5024600  40.4194340 147.9408780  29.5753880  40.3531720 148.1697250
  30.6549420  41.3574470 147.8264020  30.4893680  36.6911340 144.9375940
  29.5497350  36.8525300 145.0228400  30.8076940  37.4097020 144.3911930
  34.5321890  41.9814640 148.4444030  33.9134310  41.6434190 147.7970330
  34.5146340  41.3374400 149.1523220  26.1081240  40.9459080 150.7228510
  25.7038240  40.2336330 150.2274410  26.1944360  40.6012320 151.6116550
  26.5762940  44.6326640 152.8867720  26.2791230  44.0272110 152.2075500
  27.5262760  44.6703950 152.7757080  32.7086590  41.2201450 145.4516780
  33.1479870  40.3823880 145.3054600  33.4215010  41.8530850 145.5380920
  30.8181970  46.1597520 149.4198020  31.2577880  46.9021850 149.0053410
  30.7568860  46.4024090 150.3436980  36.2903730  32.4744260 143.7657820
  35.9776390  32.5671090 144.6656890  37.0516200  33.0525290 143.7155250
  22.8085870  39.8404060 148.2235160  22.6883470  40.5666150 147.6116430
  22.4986760  39.0706970 147.7463070  21.6918870  44.7119390 150.4409980
  21.2846950  44.8533980 149.5863580  22.5831880  44.4279550 150.2381190
  33.4852150  49.1466640 146.7761030  33.3253290  48.8569580 147.6742860
  33.3198860  48.3706770 146.2406260  25.9640530  48.9265170 148.5532650
  25.7883010  48.0100710 148.3400450  25.1096270  49.2852460 148.7930450
  33.1878280  46.6554200 145.3359030  32.4943440  46.6531490 144.6761310
  33.9301140  46.2313520 144.9053200  32.7528210  48.2816910 149.4107520
  33.2085160  47.5006290 149.7246140  33.0920730  48.9923730 149.9548700
  25.2749530  33.1839130 151.6058830  24.8317680  33.9648670 151.2743350
  25.8334520  33.5069020 152.3129770  28.3908350  32.8049830 146.4864660
  27.7662530  32.8009700 147.2117970  28.3038470  31.9380790 146.0900630
  25.0663750  38.3072700 149.3340080  24.8404670  38.0909870 150.2386700
  24.2856280  38.7401160 148.9886050  32.2961510  38.3136070 147.9330730
  31.6970400  39.0371870 147.7494350  32.8441120  38.2512850 147.1507180
  30.9026380  36.9499610 149.9634010  31.2955950  37.2671810 149.1502700
  31.2643230  36.0711490 150.0778530  19.9390550  33.5400410 152.1864210
  19.6503600  34.1103270 152.8989190  20.6836310  33.0604860 152.5495440
  20.1260780  37.4820530 143.3966930  20.0435450  38.4251290 143.5381920
  19.7743840  37.3395440 142.5179280  27.9258910  36.2159560 152.4637280
  27.9294970  35.7749510 151.6141820  28.8210030  36.5376890 152.5709100
  23.7761290  36.0986050 151.4231490  23.4361340  36.5761280 152.1798540
  23.0138610  35.6451170 151.0632590  27.9879060  37.2171640 145.4544040
  28.1091880  37.1758120 146.4029860  27.6027570  38.0795790 145.2990770
  27.0000560  39.5272780 144.8527340  26.4317460  39.0791030 144.2263250
  27.7089560  39.8865560 144.3192490  21.0907370  35.0205030 150.3396160
  20.8054290  34.6560700 151.1774780  21.0286230  34.2885490 149.7259300
  24.5448040  43.5230970 147.1253750  23.7710300  42.9828590 146.9652470
  25.2742670  43.0037580 146.7871510  35.3036020  42.5196330 152.9180140
  36.0235140  43.0151620 152.5276250  35.1017840  41.8414220 152.2734010
  30.7645960  33.9134290 147.0609530  29.9510570  33.4147460 146.9854840
  30.5707910  34.7532540 146.6445880  33.4794350  38.2853940 145.3571690
  34.3673970  38.5971170 145.1823030  33.4499440  37.4126190 144.9652270
  24.5885440  43.1911350 150.7632560  25.1064110  42.3879610 150.7089450
  24.1369460  43.1290490 151.6049390  29.4754940  44.4577630 146.0359860
  29.8170640  45.2019860 145.5403180  28.6467650  44.7708750 146.3984690
  35.7508620  39.5965780 144.8251550  35.6672340  40.0280000 143.9747990
  36.4702810  40.0564130 145.2578370  36.7795870  46.4508040 147.5533680
  36.1372030  45.7963660 147.8277400  36.3926530  46.8563130 146.7774350
  32.3582350  43.7793470 151.4005370  32.7106170  43.1821600 150.7406740
  31.4744680  43.4537700 151.5713620  28.4445630  44.5391160 148.8075780
  29.1316760  45.0860370 149.1883370  27.6578050  45.0831890 148.8425390
  20.5838030  40.1563980 144.2992860  21.4532880  40.4388780 144.5828780
  20.0928350  40.9699850 144.1841670  27.7472840  41.5437190 148.4201140
  28.2035620  42.3542440 148.6461330  27.3961050  41.2260330 149.2519630
  23.6484620  31.8874840 148.8923660  23.5199250  31.8792740 149.8408580
  22.8246640  32.2257930 148.5414670  35.1693250  45.3424500 144.0910030
  34.9430830  44.6254940 144.6834670  34.7789450  45.0936940 143.2531780
  20.9509280  49.3691360 144.8654490  21.3106920  49.9680700 144.2111760
  20.8101620  49.9151250 145.6389520  34.7509500  43.2596440 145.7524190
  34.4631200  43.7209130 146.5402070  35.5461670  42.7994210 146.0208410
  26.9677900  46.7522560 145.6828160  26.9588000  47.4852250 145.0672670
  26.0476260  46.5054140 145.7755120  22.5684540  41.9737450 146.4274920
  21.9612490  42.7136350 146.4370220  23.0433890  42.0636810 145.6013120
  35.5079360  35.0945210 146.9119370  34.8792520  35.1990880 146.1977600
  35.0131280  35.3141990 147.7013250  29.9537500  46.8150800 144.3453350
  30.0549480  46.6114790 143.4155330  29.0539240  46.5609080 144.5501130
  27.4763390  37.3731160 148.3277250  26.7679540  37.8417500 148.7690860
  27.7607870  36.7153170 148.9622440  31.5078820  34.0981820 149.7673040
  31.3846600  34.1167950 148.8182550  32.4563380  34.1460760 149.8871440
  28.5955610  49.3337120 149.0401020  28.8497110  49.2958510 148.1180390
  27.6468090  49.2070450 149.0329270  25.6798410  35.6816240 145.7027960
  26.5288940  36.1186390 145.6368150  25.3129680  35.9936500 146.5300020
  34.6008190  40.2529000 150.6159530  33.6598330  40.2679230 150.7907220
  34.9152260  39.4664960 151.0619830  24.5789830  41.9348600 144.1763490
  25.3453100  41.8229960 144.7388920  24.6564520  41.2386570 143.5240260
  23.2736590  39.3673670 144.8596380  23.3540180  38.4201180 144.9713780
  24.1656340  39.6980550 144.9657040  36.6033770  47.4237850 152.2913790
  36.7281190  48.2469020 152.7637600  37.4699330  47.2128580 151.9437940
  24.0751300  49.5169060 151.9630920  24.8113780  48.9684520 152.2339490
  24.4592220  50.3825070 151.8236910  20.9596780  45.5842630 147.8372430
  20.0336560  45.8263770 147.8277840  21.4253210  46.4116890 147.7157180
  27.1853610  48.6899370 143.7856490  27.9782220  48.9788200 143.3338280
  26.6657960  48.2591540 143.1068970  36.2383780  47.9169500 145.2093230
  35.9525290  47.5034640 144.3947410  36.0403330  48.8457210 145.0893750
  27.7031010  43.9102780 143.6498840  27.5981650  43.2955130 144.3760220
  27.5355230  43.3868670 142.8661850  30.9433740  42.9722810 144.2540830
  30.3943840  43.4192110 144.8983570  31.5653000  42.4672060 144.7778500
  26.6108860  41.9313730 146.1506130  27.0325280  41.7653600 146.9937520
  26.7359700  41.1213960 145.6561270  29.1236500  40.9551340 143.3983230
  29.6442160  40.2400360 143.0324380  29.7704900  41.5937210 143.6983740
  25.5067760  38.0046960 143.0964290  25.3056820  37.1414320 143.4577630
  25.3359810  37.9180320 142.1585890  32.9856070  32.8155190 145.6251170
  33.2658360  31.9723090 145.9810590  32.2121800  33.0478300 146.1389920
  24.3050560  35.1047580 143.0842170  24.6076460  35.1115010 142.1761320
  25.0445150  34.7545440 143.5809830  27.5235490  34.0482200 144.0698370
  27.1757490  33.3706190 143.4900820  27.7248260  33.5871710 144.8841760
  29.6884530  49.0362950 145.6884970  30.5835320  49.3747920 145.7103730
  29.7202160  48.3142360 145.0609250  23.3280690  44.4090000 143.9171970
  23.7655560  44.9519670 144.5729550  23.8128420  43.5836950 143.9268310
  20.5426490  47.1979030 151.3692230  20.8729500  46.3300090 151.1370870
  20.9717490  47.4037550 152.1997190  25.1388410  45.5288040 149.0294200
  24.8383950  45.4053010 149.9298110  25.0325900  44.6696630 148.6209930
  37.9080330  45.3084440 143.7320880  37.0773290  45.3761090 144.2028110
  38.0852160  46.1988560 143.4287740  37.3636790  42.0531920 146.2355080
  38.1255700  42.6228570 146.3414770  37.3791160  41.4859120 147.0063390
  20.8641130  40.5769850 150.4662740  20.2089970  40.3081490 149.8222440
  21.7019080  40.4674330 150.0164720  38.3696760  42.9082020 151.0797010
  38.7405590  42.1249340 150.6732980  39.0098690  43.5971120 150.9014310
  37.4155960  42.3466290 143.3927600  37.6904800  43.2545170 143.2646820
  37.2266700  42.2828820 144.3289590  33.8131570  35.3711140 144.6881230
  34.2316450  35.1842120 143.8477890  33.5067630  34.5190190 144.9984160
  37.3121300  40.2835280 148.3857030  36.9364900  39.5163210 147.9538320
  36.5824420  40.6657980 148.8731960  20.0779210  37.7868780 146.4088070
  19.1743290  38.0498980 146.2339730  20.5619830  38.0579950 145.6288030
  36.5872260  38.5092770 151.6864270  37.1109740  38.0155420 151.0554440
  37.1731680  38.6443130 152.4311840  22.6206420  36.8434320 144.3182450
  23.3298120  36.4217540 143.8329730  21.9046360  36.9109550 143.6865800
  22.2680580  32.8973650 143.3585100  22.9908710  33.4382590 143.6766320
  22.5405100  32.6237070 142.4826640  36.0772230  37.7666120 147.6256680
  36.5731350  37.5336990 148.4105560  35.8788300  36.9277960 147.2094320
  37.5059390  36.4027070 150.1594360  37.3958670  36.2483110 151.0976630
  38.2666980  35.8748010 149.9169770  38.3949660  34.2334990 143.4000500
  39.3198970  34.1016170 143.1918790  38.3725450  34.3127810 144.3536950
  38.4688150  35.0045650 146.0257210  37.6739650  34.9390770 146.5550120
  38.6731430  35.9396290 146.0142560  35.4106570  49.0437200 150.0195600
  36.0065640  48.7221770 149.3430020  35.6684720  48.5709020 150.8108870
  34.9008080  33.3342530 152.4756040  35.3416170  33.2787630 151.6277640
  34.6315670  34.2500540 152.5466220  36.7646650  32.9657770 150.4864860
  36.7035050  32.0218990 150.3395880  37.5438680  33.0737860 151.0318320
  21.0699400  49.1050130 149.4488810  20.9021440  48.4720810 150.1470700
  20.2033910  49.3109530 149.0983000  21.6927420  32.9366910 146.9520670
  22.4506780  33.0495790 146.3784700  21.2304590  33.7736110 146.9064100
  28.2341230  35.0506180 149.9422980  27.4215740  34.6763070 149.6018860
  28.7382870  34.2951260 150.2444170  32.7366210  31.7148630 151.1806050
  33.3395580  32.2868840 151.6554570  31.9959200  32.2788070 150.9579950
  35.8800810  32.1170190 146.4546330  36.0751440  33.0153640 146.7213760
  35.0930680  31.8857270 146.9479280  22.6762100  47.7983360 146.8938950
  22.1509720  48.1791390 146.1900910  22.6006680  48.4234130 147.6148660
  24.0652570  33.4630960 145.4922640  24.5945330  32.6760760 145.3630590
  24.6980890  34.1422150 145.7258170  26.2590410  33.2006100 148.5468030
  25.6293150  32.4993410 148.7138160  25.7195550  33.9610230 148.3301190
  37.4327420  49.3570900 148.2152890  37.6079610  48.6708640 147.5713810
  36.7348990  49.8817950 147.8229560  25.2755070  49.7465740 145.7688200
  26.0073890  49.4625020 145.2212090  25.5348740  49.5079020 146.6587580
  24.4369860  45.8630470 145.7734530  23.8078740  46.3315570 146.3220360
  24.5517690  45.0179690 146.2080720  31.8919580  39.9136130 131.9235730
  31.8113630  38.9990740 131.6527440  31.4784000  40.4103200 131.2175440
  30.0237620  41.6915150 133.8045000  29.2479720  41.2115590 134.0943570
  30.6750550  41.0120800 133.6301160  24.0403450  42.0034960 134.6820760
  23.2088330  41.7483670 135.0817270  24.6484430  42.0745730 135.4178680
  34.0445050  46.0975340 132.5844130  33.5826580  45.3262580 132.9131300
  34.8570600  46.1241410 133.0896580  24.0204710  46.0375050 134.8778780
  24.3232750  45.1472790 134.6989000  24.7648300  46.5945270 134.6501030
  22.4495400  36.9636850 128.4663150  21.5612100  37.3052820 128.3643030
  22.7336590  36.7637170 127.5743980  20.4128410  39.5642500 134.3502850
  20.9844520  38.7964700 134.3506490  20.4129950  39.8631260 133.4409460
  30.2708360  48.3833350 132.2048120  29.6519800  48.8390850 131.6342560
  31.1260140  48.5384810 131.8037820  29.4646610  44.3672340 133.8115160
  29.3954890  43.4262280 133.6504290  30.2266470  44.4573750 134.3837730
  21.6553280  34.9726860 136.1371780  21.4756120  34.0752610 136.4174540
  21.2533360  35.5198730 136.8118730  30.4951780  37.1742720 134.0384090
  30.8716600  36.3014600 133.9257760  30.3971290  37.5101420 133.1474530
  24.6256790  35.5468350 129.5001530  24.7323540  36.4472080 129.8070290
  23.7149150  35.4986320 129.2096180  34.2775900  34.6693160 130.9712430
  35.0985520  34.1789730 131.0137910  34.3109980  35.2590820 131.7244270
  22.2739950  37.4687360 134.7454120  22.9550060  37.7325730 135.3641520
  21.9588000  36.6288230 135.0792130  26.4664520  38.5154720 133.8326710
  26.9742740  39.0135690 134.4731730  26.9977760  37.7389920 133.6566070
  38.5675450  36.6859910 137.5356060  37.8627620  37.0741620 137.0171170
  38.8333370  37.3810200 138.1376990  24.7500620  33.1553280 138.0990130
  24.7519060  33.6725670 137.2936030  23.9204930  32.6783460 138.0760060
  31.1371710  43.2672590 129.5980030  30.5188980  43.7322040 129.0342750
  31.6494960  43.9600070 130.0149540  26.0003470  42.7948460 136.2763630
  25.6672850  43.4217380 136.9184700  26.1770150  43.3210340 135.4965300
  34.5137380  36.6093540 133.7439970  33.8092950  36.8978430 134.3243080
  34.8749540  37.4193650 133.3839530  24.4315950  34.8663240 136.1060580
  24.7732760  35.7105290 135.8114450  23.4931760  35.0146980 136.2225920
  25.2122570  44.7629260 138.0912810  25.8296570  45.4380340 137.8097260
  24.3515690  45.1717240 138.0000310  20.5054910  43.9529120 126.9719660
  20.1282890  44.4416220 126.2404560  20.7627980  44.6254400 127.6026190
  36.1300160  46.2268670 136.0067450  35.4463680  46.8967780 135.9984120
  36.6694450  46.4249320 135.2412310  37.5824300  36.0548330 134.1349180
  36.6349210  36.0887310 134.2664610  37.9074290  36.8687280 134.5198540
  28.1143840  32.3545510 132.4305170  28.4218820  31.7992400 131.7140670
  27.1844540  32.4889970 132.2478160  33.6658900  48.0712800 134.7212630
  33.6786060  47.6675090 133.8534890  33.1134120  48.8460090 134.6174060
  34.9604320  44.7929020 129.8102800  34.8500650  43.8503350 129.9352220
  34.9572570  45.1544660 130.6965560  33.0644340  42.9742640 136.0495240
  33.4813130  42.7602750 135.2148700  33.7884160  43.2315430 136.6203860
  30.5024600  40.4194340 129.1665290  29.5753880  40.3531720 129.3953760
  30.6549420  41.3574470 129.0520530  30.4893680  36.6911340 126.1632450
  29.5497350  36.8525300 126.2484910  30.8076940  37.4097020 125.6168440
  37.0106440  41.3729860 136.1411480  36.1825070  41.4422950 135.6661610
  37.6056920  41.9584170 135.6727310  34.5321890  41.9814640 129.6700540
  33.9134310  41.6434190 129.0226840  34.5146340  41.3374400 130.3779730
  33.9748450  38.1599180 137.0866350  33.5619630  38.9852890 137.3406340
  33.2424400  37.5744220 136.8942710  26.1081240  40.9459080 131.9485020
  25.7038240  40.2336330 131.4530920  26.1944360  40.6012320 132.8373060
  26.5762940  44.6326640 134.1124230  26.2791230  44.0272110 133.4332010
  27.5262760  44.6703950 134.0013590  24.8209860  37.7202290 135.7284060
  25.3724450  37.8297630 134.9537310  25.3353370  38.0939890 136.4439290
  34.6648550  48.2058510 137.7747330  34.1879110  49.0130700 137.5819940
  33.9810340  47.5536840 137.9273540  25.6681370  44.3708330 140.7632030
  24.7709900  44.5948300 141.0105430  25.6934240  44.4943270 139.8143430
  32.7086590  41.2201450 126.6773290  33.1479870  40.3823880 126.5311110
  33.4215010  41.8530850 126.7637430  24.4952590  41.2421650 139.3389400
  24.3560360  42.1144450 139.7076800  23.6133950  40.8994460 139.1937340
  30.8181970  46.1597520 130.6454530  31.2577880  46.9021850 130.2309920
  30.7568860  46.4024090 131.5693490  26.2932940  47.1843350 141.5474550
  26.2648370  47.5886300 140.6802980  26.1297910  46.2553710 141.3846150
  36.2903730  32.4744260 124.9914330  35.9776390  32.5671090 125.8913400
  37.0516200  33.0525290 124.9411760  22.8085870  39.8404060 129.4491670
  22.6883470  40.5666150 128.8372940  22.4986760  39.0706970 128.9719580
  38.2447760  47.9670450 142.8438720  38.7207480  48.4453340 143.5227800
  38.8654920  47.8987940 142.1184220  20.4471240  43.0119200 135.2560310
  20.5251660  43.1467970 134.3116030  21.0612920  42.3035090 135.4488430
  21.6918870  44.7119390 131.6666490  21.2846950  44.8533980 130.8120090
  22.5831880  44.4279550 131.4637700  37.6481010  45.1583300 140.0038730
  37.7744070  44.9195180 139.0855910  37.6902390  44.3267840 140.4760810
  31.5097750  48.8611300 138.5733540  32.0242420  48.7719310 139.3755970
  30.6666830  49.2071000 138.8661450  33.4852150  49.1466640 128.0017540
  33.3253290  48.8569580 128.8999370  33.3198860  48.3706770 127.4662770
  25.9640530  48.9265170 129.7789160  25.7883010  48.0100710 129.5656960
  25.1096270  49.2852460 130.0186960  33.1878280  46.6554200 126.5615540
  32.4943440  46.6531490 125.9017820  33.9301140  46.2313520 126.1309710
  32.7528210  48.2816910 130.6364030  33.2085160  47.5006290 130.9502650
  33.0920730  48.9923730 131.1805210  37.5005020  37.2115760 140.9688470
  36.8849290  37.7195430 140.4403930  37.1801440  36.3114090 140.9114410
  20.5030760  44.0533370 137.7954770  20.6661800  43.5838730 136.9774140
  20.9683210  43.5456930 138.4603610  25.2749530  33.1839130 132.8315340
  24.8317680  33.9648670 132.4999860  25.8334520  33.5069020 133.5386280
  29.5619340  36.0507650 138.4350660  29.0998710  36.2590670 139.2470600
  29.1597450  35.2367000 138.1321330  34.5623850  37.2716600 139.5647320
  33.7117440  36.9722350 139.8856390  34.4025640  37.5158610 138.6531140
  31.6573560  38.7718350 141.6646110  31.9826970  37.9382100 141.3248340
  32.4453890  39.2946870 141.8124440  28.3908350  32.8049830 127.7121170
  27.7662530  32.8009700 128.4374480  28.3038470  31.9380790 127.3157140
  27.3125430  33.7286460 134.6904940  27.6097760  34.6349290 134.6096960
  27.8610990  33.2405240 134.0764510  25.0663750  38.3072700 130.5596590
  24.8404670  38.0909870 131.4643210  24.2856280  38.7401160 130.2142560
  32.2961510  38.3136070 129.1587240  31.6970400  39.0371870 128.9750860
  32.8441120  38.2512850 128.3763690  27.5062960  39.2058280 141.2256860
  27.4106560  38.2653010 141.0757260  28.3494940  39.4273350 140.8304930
  30.9026380  36.9499610 131.1890520  31.2955950  37.2671810 130.3759210
  31.2643230  36.0711490 131.3035040  22.6373500  35.6171950 139.3790640
  22.2436890  36.4647160 139.5863420  21.9491900  34.9798320 139.5699280
  29.2118550  35.7006920 142.4487380  28.5216870  35.5079120 143.0833470
  29.9550850  35.9841560 142.9811680  19.9390550  33.5400410 133.4120720
  19.6503600  34.1103270 134.1245700  20.6836310  33.0604860 133.7751950
  20.1260780  37.4820530 124.6223440  20.0435450  38.4251290 124.7638430
  19.7743840  37.3395440 123.7435790  31.4881520  39.5405360 135.2841300
  30.7562640  40.0492170 135.6331400  31.0905860  38.7235340 134.9830080
  27.9258910  36.2159560 133.6893790  27.9294970  35.7749510 132.8398330
  28.8210030  36.5376890 133.7965610  23.7761290  36.0986050 132.6488000
  23.4361340  36.5761280 133.4055050  23.0138610  35.6451170 132.2889100
  27.9879060  37.2171640 126.6800550  28.1091880  37.1758120 127.6286370
  27.6027570  38.0795790 126.5247280  31.9507430  34.9939040 134.6964240
  31.9680170  35.4447690 135.5406090  31.7023010  34.0944680 134.9097680
  27.0000560  39.5272780 126.0783850  26.4317460  39.0791030 125.4519760
  27.7089560  39.8865560 125.5449000  35.3778180  32.4071220 140.5350620
  35.7023950  31.6760880 141.0608600  35.4134690  32.0884860 139.6331610
  22.0769740  43.4284800 139.9550580  21.6924530  42.7878470 140.5533540
  22.3881930  44.1320920 140.5245310  28.2266880  40.2761340 135.4359200
  28.5937010  39.8019910 136.1820540  28.0371940  41.1502910 135.7767540
  21.0907370  35.0205030 131.5652670  20.8054290  34.6560700 132.4031290
  21.0286230  34.2885490 130.9515810  26.0166250  39.3169980 137.7543410
  25.7123320  40.1961960 137.9793770  26.9712710  39.3769770 137.7900850
  24.5448040  43.5230970 128.3510260  23.7710300  42.9828590 128.1908980
  25.2742670  43.0037580 128.0128020  35.3036020  42.5196330 134.1436650
  36.0235140  43.0151620 133.7532760  35.1017840  41.8414220 133.4990520
  30.7645960  33.9134290 128.2866040  29.9510570  33.4147460 128.2111350
  30.5707910  34.7532540 127.8702390  30.6854820  42.5905390 140.0305650
  30.6192130  41.6701060 139.7763240  30.0559960  42.6880830 140.7450290
  33.4794350  38.2853940 126.5828200  34.3673970  38.5971170 126.4079540
  33.4499440  37.4126190 126.1908780  24.5885440  43.1911350 131.9889070
  25.1064110  42.3879610 131.9345960  24.1369460  43.1290490 132.8305900
  29.4754940  44.4577630 127.2616370  29.8170640  45.2019860 126.7659690
  28.6467650  44.7708750 127.6241200  22.0729980  40.1572720 138.9014770
  21.7144920  40.8226570 139.4888110  21.7784540  39.3256270 139.2727390
  25.2743100  40.6156960 141.7854320  24.9743240  40.7614140 140.8882140
  26.0454340  40.0562250 141.6927710  30.6171550  45.4125960 139.7809450
  30.6316090  44.4806920 139.5628360  29.9096650  45.4985720 140.4199220
  35.7508620  39.5965780 126.0508060  35.6672340  40.0280000 125.2004500
  36.4702810  40.0564130 126.4834880  36.8282760  42.0533300 139.1278030
  36.1030950  42.6462080 138.9307420  37.3558220  42.0456840 138.3291400
  36.7795870  46.4508040 128.7790190  36.1372030  45.7963660 129.0533910
  36.3926530  46.8563130 128.0030860  32.3582350  43.7793470 132.6261880
  32.7106170  43.1821600 131.9663250  31.4744680  43.4537700 132.7970130
  28.4445630  44.5391160 130.0332290  29.1316760  45.0860370 130.4139880
  27.6578050  45.0831890 130.0681900  20.5838030  40.1563980 125.5249370
  21.4532880  40.4388780 125.8085290  20.0928350  40.9699850 125.4098180
  27.7472840  41.5437190 129.6457650  28.2035620  42.3542440 129.8717840
  27.3961050  41.2260330 130.4776140  30.0505450  47.0543530 136.8749950
  30.6947670  47.2602910 137.5523370  30.4134890  46.2931930 136.4220800
  23.6484620  31.8874840 130.1180170  23.5199250  31.8792740 131.0665090
  22.8246640  32.2257930 129.7671180  31.3237530  45.0575880 135.5927400
  31.9659760  44.3569040 135.7059570  31.8486880  45.8374320 135.4124290
  35.1693250  45.3424500 125.3166540  34.9430830  44.6254940 125.9091180
  34.7789450  45.0936940 124.4788290  33.0975150  45.8570780 138.7963460
  33.4331390  46.4437470 139.4741380  32.1775490  45.7263490 139.0261250
  20.9509280  49.3691360 126.0911000  21.3106920  49.9680700 125.4368270
  20.8101620  49.9151250 126.8646030  20.6478550  33.6465960 139.5786870
  19.9337070  33.8462880 140.1839480  21.0673590  32.8705530 139.9501670
  34.7509500  43.2596440 126.9780700  34.4631200  43.7209130 127.7658580
  35.5461670  42.7994210 127.2464920  20.9351140  47.6346220 140.5653400
  21.0442260  46.6940960 140.4248790  20.2831700  47.9000970 139.9167130
  28.9263730  45.9062110 141.9651520  28.6060600  45.1871350 142.5097210
  28.2522090  46.5817180 142.0387580  26.9677900  46.7522560 126.9084670
  26.9588000  47.4852250 126.2929180  26.0476260  46.5054140 127.0011630
  22.5684540  41.9737450 127.6531430  21.9612490  42.7136350 127.6626730
  23.0433890  42.0636810 126.8269630  32.1417330  36.1388270 137.3288320
  32.5098150  35.3183480 137.6567890  31.2815530  36.1990160 137.7443970
  35.5079360  35.0945210 128.1375880  34.8792520  35.1990880 127.4234110
  35.0131280  35.3141990 128.9269760  29.9537500  46.8150800 125.5709860
  30.0549480  46.6114790 124.6411840  29.0539240  46.5609080 125.7757640
  27.4763390  37.3731160 129.5533760  26.7679540  37.8417500 129.9947370
  27.7607870  36.7153170 130.1878950  29.1019320  38.7927860 137.5526290
  29.6004570  39.2673680 138.2178140  29.2442270  37.8691380 137.7596320
  31.5078820  34.0981820 130.9929550  31.3846600  34.1167950 130.0439060
  32.4563380  34.1460760 131.1127950  28.5955610  49.3337120 130.2657530
  28.8497110  49.2958510 129.3436900  27.6468090  49.2070450 130.2585780
  25.6798410  35.6816240 126.9284470  26.5288940  36.1186390 126.8624660
  25.3129680  35.9936500 127.7556530  36.3086180  35.0095820 138.3954680
  35.8059780  35.7501220 138.7348490  37.1242840  35.3979820 138.0791470
  34.6008190  40.2529000 131.8416040  33.6598330  40.2679230 132.0163730
  34.9152260  39.4664960 132.2876340  24.5789830  41.9348600 125.4020000
  25.3453100  41.8229960 125.9645430  24.6564520  41.2386570 124.7496770
  23.2736590  39.3673670 126.0852890  23.3540180  38.4201180 126.1970290
  24.1656340  39.6980550 126.1913550  36.6033770  47.4237850 133.5170300
  36.7281190  48.2469020 133.9894110  37.4699330  47.2128580 133.1694450
  24.0751300  49.5169060 133.1887430  24.8113780  48.9684520 133.4596000
  24.4592220  50.3825070 133.0493420  20.9596780  45.5842630 129.0628940
  20.0336560  45.8263770 129.0534350  21.4253210  46.4116890 128.9413690
  23.0809580  48.7015130 142.3773010  23.8822310  49.0227180 142.7908410
  22.5661400  48.3410710 143.0992920  27.1853610  48.6899370 125.0113000
  27.9782220  48.9788200 124.5594790  26.6657960  48.2591540 124.3325480
  31.9174210  44.8095000 142.3248420  31.3112370  44.8326600 141.5844170
  31.6128320  44.0778040 142.8615670  33.3474580  48.5375290 140.9357830
  34.2996330  48.4533310 140.8858070  33.2002800  49.2017000 141.6091620
  36.2383780  47.9169500 126.4349740  35.9525290  47.5034640 125.6203920
  36.0403330  48.8457210 126.3150260  20.8007390  41.1888590 141.3209060
  21.3046410  40.6095870 141.8925290  20.0614810  41.4728820 141.8585430
  27.7031010  43.9102780 124.8755350  27.5981650  43.2955130 125.6016730
  27.5355230  43.3868670 124.0918360  27.8545330  42.5959580 140.8544580
  27.0891000  43.1644580 140.7699250  28.0361290  42.3035790 139.9612810
  30.9433740  42.9722810 125.4797340  30.3943840  43.4192110 126.1240080
  31.5653000  42.4672060 126.0035010  34.9968680  44.3264910 141.4119600
  35.7378150  44.6640670 140.9087060  34.2341360  44.4956970 140.8589370
  22.8330470  39.3318180 142.2159130  22.8735810  39.0332050 143.1244360
  23.6875970  39.7325790 142.0566650  26.6108860  41.9313730 127.3762640
  27.0325280  41.7653600 128.2194030  26.7359700  41.1213960 126.8817780
  24.7736280  37.9110280 140.1833620  24.2432740  37.4201230 139.5556960
  25.4424350  38.3394480 139.6491550  29.1236500  40.9551340 124.6239740
  29.6442160  40.2400360 124.2580890  29.7704900  41.5937210 124.9240250
  33.6714340  42.3779740 139.9474810  34.0855360  42.5324820 140.7965230
  32.7365340  42.5034960 140.1100590  34.1436510  39.7175900 141.9513960
  34.7257280  38.9628220 141.8634440  34.3198280  40.2483340 141.1745440
  25.2608580  34.8772650 140.2630910  25.1665450  34.2593400 139.5381780
  24.6805970  35.6038940 140.0360820  28.0270020  33.4345890 137.2958300
  27.5787320  33.4570150 136.4503850  27.3935220  33.0364910 137.8928600
  28.4329570  42.3300220 137.9170740  28.8517680  43.1732950 137.7446980
  27.5138200  42.4672260 137.6877520  30.7693470  40.0616400 139.3008580
  30.8889680  39.4657540 140.0403420  31.6287470  40.0986090 138.8809880
  33.1081370  40.6153590 137.8771090  32.5816590  41.1396210 137.2736230
  33.4512710  41.2480980 138.5080820  25.5067760  38.0046960 124.3220800
  25.3056820  37.1414320 124.6834140  25.3359810  37.9180320 123.3842400
  26.2836990  48.6353230 139.0328470  25.7458080  49.3599290 138.7137170
  26.5370950  48.1583570 138.2425810  27.5362240  36.6037750 140.5584400
  28.1261930  36.2953600 141.2462220  26.7182480  36.1317500 140.7144300
  32.3555670  36.2203560 140.7917420  31.6671190  35.5585100 140.7267410
  33.0761690  35.7741830 141.2365880  32.9856070  32.8155190 126.8507680
  33.2658360  31.9723090 127.2067100  32.2121800  33.0478300 127.3646430
  24.3050560  35.1047580 124.3098680  24.6076460  35.1115010 123.4017830
  25.0445150  34.7545440 124.8066340  29.1399200  49.8704440 139.2915120
  29.0657900  50.7739580 139.5987490  28.2378040  49.5516340 139.2637190
  27.5235490  34.0482200 125.2954880  27.1757490  33.3706190 124.7157330
  27.7248260  33.5871710 126.1098270  29.6884530  49.0362950 126.9141480
  30.5835320  49.3747920 126.9360240  29.7202160  48.3142360 126.2865760
  23.3280690  44.4090000 125.1428480  23.7655560  44.9519670 125.7986060
  23.8128420  43.5836950 125.1524820  20.5426490  47.1979030 132.5948740
  20.8729500  46.3300090 132.3627380  20.9717490  47.4037550 133.4253700
  25.1388410  45.5288040 130.2550710  24.8383950  45.4053010 131.1554620
  25.0325900  44.6696630 129.8466440  21.0316700  48.0649620 135.3330370
  20.5947690  48.2450420 136.1654520  21.5994380  48.8224240 135.1912090
  36.6678880  47.5666620 139.6207680  36.0680870  47.6259180 138.8771600
  36.7972780  46.6271600 139.7504530  37.9080330  45.3084440 124.9577390
  37.0773290  45.3761090 125.4284620  38.0852160  46.1988560 124.6544250
  37.3636790  42.0531920 127.4611590  38.1255700  42.6228570 127.5671280
  37.3791160  41.4859120 128.2319900  20.8641130  40.5769850 131.6919250
  20.2089970  40.3081490 131.0478950  21.7019080  40.4674330 131.2421230
  38.3696760  42.9082020 132.3053520  38.7405590  42.1249340 131.8989490
  39.0098690  43.5971120 132.1270820  35.3530520  44.2918600 137.7183840
  34.5390360  44.7215760 137.9809630  35.7604720  44.9037010 137.1052890
  37.4155960  42.3466290 124.6184110  37.6904800  43.2545170 124.4903330
  37.2266700  42.2828820 125.5546100  33.8131570  35.3711140 125.9137740
  34.2316450  35.1842120 125.0734400  33.5067630  34.5190190 126.2240670
  37.3121300  40.2835280 129.6113540  36.9364900  39.5163210 129.1794830
  36.5824420  40.6657980 130.0988470  21.9017060  40.9622420 136.2322590
  22.2690100  40.8749820 137.1118610  21.3327880  40.1988970 136.1329450
  36.7020920  39.4306800 139.2453060  36.4707010  39.2019550 138.3451010
  36.9625470  40.3506350 139.1997950  21.4533060  37.8731510 140.1381010
  20.5589110  37.8398270 140.4774720  21.9930610  38.0718300 140.9032260
  35.1408990  34.6563230 142.0232760  36.0179170  34.6646630 142.4066760
  35.1529830  33.9194070 141.4125110  20.0779210  37.7868780 127.6344580
  19.1743290  38.0498980 127.4596240  20.5619830  38.0579950 126.8544540
  36.5872260  38.5092770 132.9120780  37.1109740  38.0155420 132.2810950
  37.1731680  38.6443130 133.6568350  36.7661980  38.5932640 136.4340330
  35.8164690  38.5596180 136.5485320  36.9474990  39.5032750 136.1990100
  22.6206420  36.8434320 125.5438960  23.3298120  36.4217540 125.0586240
  21.9046360  36.9109550 124.9122310  22.2680580  32.8973650 124.5841610
  22.9908710  33.4382590 124.9022830  22.5405100  32.6237070 123.7083150
  36.0772230  37.7666120 128.8513190  36.5731350  37.5336990 129.6362070
  35.8788300  36.9277960 128.4350830  21.9572770  32.1479840 134.4864230
  22.6048960  31.5977220 134.0459390  22.3774610  32.4022990 135.3080040
  37.5059390  36.4027070 131.3850870  37.3958670  36.2483110 132.3233140
  38.2666980  35.8748010 131.1426280  35.8525110  32.3421200 137.8433870
  36.4897330  32.9555340 138.2093060  36.0000000  32.3781860 136.8983100
  38.3949660  34.2334990 124.6257010  39.3198970  34.1016170 124.4175300
  38.3725450  34.3127810 125.5793460  38.4688150  35.0045650 127.2513720
  37.6739650  34.9390770 127.7806630  38.6731430  35.9396290 127.2399070
  35.4106570  49.0437200 131.2452110  36.0065640  48.7221770 130.5686530
  35.6684720  48.5709020 132.0365380  21.7104770  32.3035510 137.2289550
  21.3619590  32.7599330 137.9947730  21.3792470  31.4092640 137.3111980
  23.3169140  45.4755110 141.3942740  23.2738770  45.1048020 142.2757200
  23.4480150  46.4132680 141.5344560  27.0175170  47.0314700 136.9952460
  26.7766530  47.2989260 136.1082980  27.9577810  47.2020430 137.0503320
  29.2229590  33.4947390 140.7508970  29.1618480  34.0869220 141.5004380
  30.1629970  33.3873350 140.6059230  31.8604150  33.1517450 140.3901260
  32.4744560  33.4696740 139.7282340  32.4053710  32.6666040 141.0097120
  38.2779330  49.0509080 137.7963100  37.7837610  49.4477950 137.0790230
  37.6692620  48.4258290 138.1900380  22.3825410  31.8311710 140.5040320
  22.9308400  31.6499760 139.7406430  22.4480720  31.0405820 141.0396630
  23.1557170  48.4217360 138.5140520  22.5617490  48.2902060 139.2530560
  23.1481010  47.5855500 138.0482620  32.6012190  31.7149590 136.7170550
  31.7272030  32.0484700 136.5143480  32.4922940  31.2422770 137.5422420
  33.5084170  33.9220460 138.1012270  33.1797530  33.1072220 137.7214000
  34.4566470  33.8790270 137.9777960  35.9618780  49.6932500 135.0749840
  35.5021750  50.4448310 134.7007860  35.3331240  48.9738970 135.0164640
  22.7869400  45.7875740 137.4648560  22.0603460  45.1681030 137.3974510
  22.8478550  46.1816350 136.5946640  26.3914500  48.0020740 134.2497970
  26.9079520  47.3908100 133.7246230  27.0411880  48.5049520 134.7408980
  29.1310000  48.8929230 135.0766950  29.4187810  48.6383530 134.1999960
  29.6433220  48.3406590 135.6672520  30.3487010  32.6319430 135.6563460
  29.5658800  33.1064930 135.9360220  30.0549940  31.7274260 135.5476640
  34.9008080  33.3342530 133.7012550  35.3416170  33.2787630 132.8534150
  34.6315670  34.2500540 133.7722730  36.7646650  32.9657770 131.7121370
  36.7035050  32.0218990 131.5652390  37.5438680  33.0737860 132.2574830
  21.0699400  49.1050130 130.6745320  20.9021440  48.4720810 131.3727210
  20.2033910  49.3109530 130.3239510  21.6927420  32.9366910 128.1777180
  22.4506780  33.0495790 127.6041210  21.2304590  33.7736110 128.1320610
  28.2341230  35.0506180 131.1679490  27.4215740  34.6763070 130.8275370
  28.7382870  34.2951260 131.4700680  32.7366210  31.7148630 132.4062560
  33.3395580  32.2868840 132.8811080  31.9959200  32.2788070 132.1836460
  35.8800810  32.1170190 127.6802840  36.0751440  33.0153640 127.9470270
  35.0930680  31.8857270 128.1735790  22.6762100  47.7983360 128.1195460
  22.1509720  48.1791390 127.4157420  22.6006680  48.4234130 128.8405170
  24.0652570  33.4630960 126.7179150  24.5945330  32.6760760 126.5887100
  24.6980890  34.1422150 126.9514680  26.2590410  33.2006100 129.7724540
  25.6293150  32.4993410 129.9394670  25.7195550  33.9610230 129.5557700
  29.1982360  49.8145330 142.4435150  30.1249670  49.5789600 142.4871110
  29.1832790  50.6417330 141.9621180  37.4327420  49.3570900 129.4409400
  37.6079610  48.6708640 128.7970320  36.7348990  49.8817950 129.0486070
  26.3845970  32.4790080 142.2077030  26.1030240  32.9823680 141.4437850
  26.7665670  31.6811830 141.8419160  25.2755070  49.7465740 126.9944710
  26.0073890  49.4625020 126.4468600  25.5348740  49.5079020 127.8844090
  24.4369860  45.8630470 126.9991040  23.8078740  46.3315570 127.5476870
  24.5517690  45.0179690 127.4337230  32.9861430  31.8943660 142.7857500
  32.8726880  32.2138270 143.6809020  33.8031170  32.2956170 142.4894780
  35.7659920  49.0415190 142.2676190  36.5585240  48.5464420 142.0602150
  36.0593070  49.7205330 142.8751800  31.8919580  39.9136130 113.1492240
  31.8113630  38.9990740 112.8783950  31.4784000  40.4103200 112.4431950
  30.0237620  41.6915150 115.0301510  29.2479720  41.2115590 115.3200080
  30.6750550  41.0120800 114.8557670  24.0403450  42.0034960 115.9077270
  23.2088330  41.7483670 116.3073780  24.6484430  42.0745730 116.6435190
  34.0445050  46.0975340 113.8100640  33.5826580  45.3262580 114.1387810
  34.8570600  46.1241410 114.3153090  24.0204710  46.0375050 116.1035290
  24.3232750  45.1472790 115.9245510  24.7648300  46.5945270 115.8757540
  22.4495400  36.9636850 109.6919660  21.5612100  37.3052820 109.5899540
  22.7336590  36.7637170 108.8000490  20.4128410  39.5642500 115.5759360
  20.9844520  38.7964700 115.5763000  20.4129950  39.8631260 114.6665970
  30.2708360  48.3833350 113.4304630  29.6519800  48.8390850 112.8599070
  31.1260140  48.5384810 113.0294330  29.4646610  44.3672340 115.0371670
  29.3954890  43.4262280 114.8760800  30.2266470  44.4573750 115.6094240
  21.6553280  34.9726860 117.3628290  21.4756120  34.0752610 117.6431050
  21.2533360  35.5198730 118.0375240  30.4951780  37.1742720 115.2640600
  30.8716600  36.3014600 115.1514270  30.3971290  37.5101420 114.3731040
  24.6256790  35.5468350 110.7258040  24.7323540  36.4472080 111.0326800
  23.7149150  35.4986320 110.4352690  34.2775900  34.6693160 112.1968940
  35.0985520  34.1789730 112.2394420  34.3109980  35.2590820 112.9500780
  22.2739950  37.4687360 115.9710630  22.9550060  37.7325730 116.5898030
  21.9588000  36.6288230 116.3048640  26.4664520  38.5154720 115.0583220
  26.9742740  39.0135690 115.6988240  26.9977760  37.7389920 114.8822580
  38.5675450  36.6859910 118.7612570  37.8627620  37.0741620 118.2427680
  38.8333370  37.3810200 119.3633500  24.7500620  33.1553280 119.3246640
  24.7519060  33.6725670 118.5192540  23.9204930  32.6783460 119.3016570
  31.1371710  43.2672590 110.8236540  30.5188980  43.7322040 110.2599260
  31.6494960  43.9600070 111.2406050  26.0003470  42.7948460 117.5020140
  25.6672850  43.4217380 118.1441210  26.1770150  43.3210340 116.7221810
  34.5137380  36.6093540 114.9696480  33.8092950  36.8978430 115.5499590
  34.8749540  37.4193650 114.6096040  24.4315950  34.8663240 117.3317090
  24.7732760  35.7105290 117.0370960  23.4931760  35.0146980 117.4482430
  25.2122570  44.7629260 119.3169320  25.8296570  45.4380340 119.0353770
  24.3515690  45.1717240 119.2256820  20.5054910  43.9529120 108.1976170
  20.1282890  44.4416220 107.4661070  20.7627980  44.6254400 108.8282700
  36.1300160  46.2268670 117.2323960  35.4463680  46.8967780 117.2240630
  36.6694450  46.4249320 116.4668820  37.5824300  36.0548330 115.3605690
  36.6349210  36.0887310 115.4921120  37.9074290  36.8687280 115.7455050
  28.1143840  32.3545510 113.6561680  28.4218820  31.7992400 112.9397180
  27.1844540  32.4889970 113.4734670  33.6658900  48.0712800 115.9469140
  33.6786060  47.6675090 115.0791400  33.1134120  48.8460090 115.8430570
  33.0644340  42.9742640 117.2751750  33.4813130  42.7602750 116.4405210
  33.7884160  43.2315430 117.8460370  30.5024600  40.4194340 110.3921800
  29.5753880  40.3531720 110.6210270  30.6549420  41.3574470 110.2777040
  30.4893680  36.6911340 107.3888960  29.5497350  36.8525300 107.4741420
  30.8076940  37.4097020 106.8424950  37.0106440  41.3729860 117.3667990
  36.1825070  41.4422950 116.8918120  37.6056920  41.9584170 116.8983820
  33.9748450  38.1599180 118.3122860  33.5619630  38.9852890 118.5662850
  33.2424400  37.5744220 118.1199220  26.1081240  40.9459080 113.1741530
  25.7038240  40.2336330 112.6787430  26.1944360  40.6012320 114.0629570
  26.5762940  44.6326640 115.3380740  26.2791230  44.0272110 114.6588520
  27.5262760  44.6703950 115.2270100  24.8209860  37.7202290 116.9540570
  25.3724450  37.8297630 116.1793820  25.3353370  38.0939890 117.6695800
  34.6648550  48.2058510 119.0003840  34.1879110  49.0130700 118.8076450
  33.9810340  47.5536840 119.1530050  25.6681370  44.3708330 121.9888540
  24.7709900  44.5948300 122.2361940  25.6934240  44.4943270 121.0399940
  24.4952590  41.2421650 120.5645910  24.3560360  42.1144450 120.9333310
  23.6133950  40.8994460 120.4193850  30.8181970  46.1597520 111.8711040
  31.2577880  46.9021850 111.4566430  30.7568860  46.4024090 112.7950000
  26.2932940  47.1843350 122.7731060  26.2648370  47.5886300 121.9059490
  26.1297910  46.2553710 122.6102660  36.2903730  32.4744260 106.2170840
  35.9776390  32.5671090 107.1169910  37.0516200  33.0525290 106.1668270
  22.8085870  39.8404060 110.6748180  22.6883470  40.5666150 110.0629450
  22.4986760  39.0706970 110.1976090  38.2447760  47.9670450 124.0695230
  38.7207480  48.4453340 124.7484310  38.8654920  47.8987940 123.3440730
  20.4471240  43.0119200 116.4816820  20.5251660  43.1467970 115.5372540
  21.0612920  42.3035090 116.6744940  21.6918870  44.7119390 112.8923000
  21.2846950  44.8533980 112.0376600  22.5831880  44.4279550 112.6894210
  37.6481010  45.1583300 121.2295240  37.7744070  44.9195180 120.3112420
  37.6902390  44.3267840 121.7017320  31.5097750  48.8611300 119.7990050
  32.0242420  48.7719310 120.6012480  30.6666830  49.2071000 120.0917960
  25.9640530  48.9265170 111.0045670  25.7883010  48.0100710 110.7913470
  25.1096270  49.2852460 111.2443470  37.5005020  37.2115760 122.1944980
  36.8849290  37.7195430 121.6660440  37.1801440  36.3114090 122.1370920
  20.5030760  44.0533370 119.0211280  20.6661800  43.5838730 118.2030650
  20.9683210  43.5456930 119.6860120  25.2749530  33.1839130 114.0571850
  24.8317680  33.9648670 113.7256370  25.8334520  33.5069020 114.7642790
  29.5619340  36.0507650 119.6607170  29.0998710  36.2590670 120.4727110
  29.1597450  35.2367000 119.3577840  34.5623850  37.2716600 120.7903830
  33.7117440  36.9722350 121.1112900  34.4025640  37.5158610 119.8787650
  31.6573560  38.7718350 122.8902620  31.9826970  37.9382100 122.5504850
  32.4453890  39.2946870 123.0380950  28.3908350  32.8049830 108.9377680
  27.7662530  32.8009700 109.6630990  28.3038470  31.9380790 108.5413650
  27.3125430  33.7286460 115.9161450  27.6097760  34.6349290 115.8353470
  27.8610990  33.2405240 115.3021020  25.0663750  38.3072700 111.7853100
  24.8404670  38.0909870 112.6899720  24.2856280  38.7401160 111.4399070
  32.2961510  38.3136070 110.3843750  31.6970400  39.0371870 110.2007370
  32.8441120  38.2512850 109.6020200  27.5062960  39.2058280 122.4513370
  27.4106560  38.2653010 122.3013770  28.3494940  39.4273350 122.0561440
  30.9026380  36.9499610 112.4147030  31.2955950  37.2671810 111.6015720
  31.2643230  36.0711490 112.5291550  22.6373500  35.6171950 120.6047150
  22.2436890  36.4647160 120.8119930  21.9491900  34.9798320 120.7955790
  29.2118550  35.7006920 123.6743890  28.5216870  35.5079120 124.3089980
  29.9550850  35.9841560 124.2068190  19.9390550  33.5400410 114.6377230
  19.6503600  34.1103270 115.3502210  20.6836310  33.0604860 115.0008460
  20.1260780  37.4820530 105.8479950  20.0435450  38.4251290 105.9894940
  19.7743840  37.3395440 104.9692300  31.4881520  39.5405360 116.5097810
  30.7562640  40.0492170 116.8587910  31.0905860  38.7235340 116.2086590
  27.9258910  36.2159560 114.9150300  27.9294970  35.7749510 114.0654840
  28.8210030  36.5376890 115.0222120  23.7761290  36.0986050 113.8744510
  23.4361340  36.5761280 114.6311560  23.0138610  35.6451170 113.5145610
  27.9879060  37.2171640 107.9057060  28.1091880  37.1758120 108.8542880
  27.6027570  38.0795790 107.7503790  31.9507430  34.9939040 115.9220750
  31.9680170  35.4447690 116.7662600  31.7023010  34.0944680 116.1354190
  27.0000560  39.5272780 107.3040360  26.4317460  39.0791030 106.6776270
  27.7089560  39.8865560 106.7705510  35.3778180  32.4071220 121.7607130
  35.7023950  31.6760880 122.2865110  35.4134690  32.0884860 120.8588120
  22.0769740  43.4284800 121.1807090  21.6924530  42.7878470 121.7790050
  22.3881930  44.1320920 121.7501820  28.2266880  40.2761340 116.6615710
  28.5937010  39.8019910 117.4077050  28.0371940  41.1502910 117.0024050
  21.0907370  35.0205030 112.7909180  20.8054290  34.6560700 113.6287800
  21.0286230  34.2885490 112.1772320  26.0166250  39.3169980 118.9799920
  25.7123320  40.1961960 119.2050280  26.9712710  39.3769770 119.0157360
  24.5448040  43.5230970 109.5766770  23.7710300  42.9828590 109.4165490
  25.2742670  43.0037580 109.2384530  35.3036020  42.5196330 115.3693160
  36.0235140  43.0151620 114.9789270  35.1017840  41.8414220 114.7247030
  30.7645960  33.9134290 109.5122550  29.9510570  33.4147460 109.4367860
  30.5707910  34.7532540 109.0958900  30.6854820  42.5905390 121.2562160
  30.6192130  41.6701060 121.0019750  30.0559960  42.6880830 121.9706800
  24.5885440  43.1911350 113.2145580  25.1064110  42.3879610 113.1602470
  24.1369460  43.1290490 114.0562410  22.0729980  40.1572720 120.1271280
  21.7144920  40.8226570 120.7144620  21.7784540  39.3256270 120.4983900
  25.2743100  40.6156960 123.0110830  24.9743240  40.7614140 122.1138650
  26.0454340  40.0562250 122.9184220  30.6171550  45.4125960 121.0065960
  30.6316090  44.4806920 120.7884870  29.9096650  45.4985720 121.6455730
  36.8282760  42.0533300 120.3534540  36.1030950  42.6462080 120.1563930
  37.3558220  42.0456840 119.5547910  32.3582350  43.7793470 113.8518390
  32.7106170  43.1821600 113.1919760  31.4744680  43.4537700 114.0226640
  28.4445630  44.5391160 111.2588800  29.1316760  45.0860370 111.6396390
  27.6578050  45.0831890 111.2938410  20.5838030  40.1563980 106.7505880
  21.4532880  40.4388780 107.0341800  20.0928350  40.9699850 106.6354690
  27.7472840  41.5437190 110.8714160  28.2035620  42.3542440 111.0974350
  27.3961050  41.2260330 111.7032650  30.0505450  47.0543530 118.1006460
  30.6947670  47.2602910 118.7779880  30.4134890  46.2931930 117.6477310
  23.6484620  31.8874840 111.3436680  23.5199250  31.8792740 112.2921600
  22.8246640  32.2257930 110.9927690  31.3237530  45.0575880 116.8183910
  31.9659760  44.3569040 116.9316080  31.8486880  45.8374320 116.6380800
  33.0975150  45.8570780 120.0219970  33.4331390  46.4437470 120.6997890
  32.1775490  45.7263490 120.2517760  20.9509280  49.3691360 107.3167510
  21.3106920  49.9680700 106.6624780  20.8101620  49.9151250 108.0902540
  20.6478550  33.6465960 120.8043380  19.9337070  33.8462880 121.4095990
  21.0673590  32.8705530 121.1758180  20.9351140  47.6346220 121.7909910
  21.0442260  46.6940960 121.6505300  20.2831700  47.9000970 121.1423640
  28.9263730  45.9062110 123.1908030  28.6060600  45.1871350 123.7353720
  28.2522090  46.5817180 123.2644090  22.5684540  41.9737450 108.8787940
  21.9612490  42.7136350 108.8883240  23.0433890  42.0636810 108.0526140
  32.1417330  36.1388270 118.5544830  32.5098150  35.3183480 118.8824400
  31.2815530  36.1990160 118.9700480  35.5079360  35.0945210 109.3632390
  34.8792520  35.1990880 108.6490620  35.0131280  35.3141990 110.1526270
  27.4763390  37.3731160 110.7790270  26.7679540  37.8417500 111.2203880
  27.7607870  36.7153170 111.4135460  29.1019320  38.7927860 118.7782800
  29.6004570  39.2673680 119.4434650  29.2442270  37.8691380 118.9852830
  31.5078820  34.0981820 112.2186060  31.3846600  34.1167950 111.2695570
  32.4563380  34.1460760 112.3384460  28.5955610  49.3337120 111.4914040
  28.8497110  49.2958510 110.5693410  27.6468090  49.2070450 111.4842290
  25.6798410  35.6816240 108.1540980  26.5288940  36.1186390 108.0881170
  25.3129680  35.9936500 108.9813040  36.3086180  35.0095820 119.6211190
  35.8059780  35.7501220 119.9605000  37.1242840  35.3979820 119.3047980
  34.6008190  40.2529000 113.0672550  33.6598330  40.2679230 113.2420240
  34.9152260  39.4664960 113.5132850  24.5789830  41.9348600 106.6276510
  25.3453100  41.8229960 107.1901940  24.6564520  41.2386570 105.9753280
  23.2736590  39.3673670 107.3109400  23.3540180  38.4201180 107.4226800
  24.1656340  39.6980550 107.4170060  36.6033770  47.4237850 114.7426810
  36.7281190  48.2469020 115.2150620  37.4699330  47.2128580 114.3950960
  24.0751300  49.5169060 114.4143940  24.8113780  48.9684520 114.6852510
  24.4592220  50.3825070 114.2749930  20.9596780  45.5842630 110.2885450
  20.0336560  45.8263770 110.2790860  21.4253210  46.4116890 110.1670200
  23.0809580  48.7015130 123.6029520  23.8822310  49.0227180 124.0164920
  22.5661400  48.3410710 124.3249430  31.9174210  44.8095000 123.5504930
  31.3112370  44.8326600 122.8100680  31.6128320  44.0778040 124.0872180
  33.3474580  48.5375290 122.1614340  34.2996330  48.4533310 122.1114580
  33.2002800  49.2017000 122.8348130  20.8007390  41.1888590 122.5465570
  21.3046410  40.6095870 123.1181800  20.0614810  41.4728820 123.0841940
  27.8545330  42.5959580 122.0801090  27.0891000  43.1644580 121.9955760
  28.0361290  42.3035790 121.1869320  34.9968680  44.3264910 122.6376110
  35.7378150  44.6640670 122.1343570  34.2341360  44.4956970 122.0845880
  22.8330470  39.3318180 123.4415640  22.8735810  39.0332050 124.3500870
  23.6875970  39.7325790 123.2823160  26.6108860  41.9313730 108.6019150
  27.0325280  41.7653600 109.4450540  26.7359700  41.1213960 108.1074290
  24.7736280  37.9110280 121.4090130  24.2432740  37.4201230 120.7813470
  25.4424350  38.3394480 120.8748060  29.1236500  40.9551340 105.8496250
  29.6442160  40.2400360 105.4837400  29.7704900  41.5937210 106.1496760
  33.6714340  42.3779740 121.1731320  34.0855360  42.5324820 122.0221740
  32.7365340  42.5034960 121.3357100  34.1436510  39.7175900 123.1770470
  34.7257280  38.9628220 123.0890950  34.3198280  40.2483340 122.4001950
  25.2608580  34.8772650 121.4887420  25.1665450  34.2593400 120.7638290
  24.6805970  35.6038940 121.2617330  28.0270020  33.4345890 118.5214810
  27.5787320  33.4570150 117.6760360  27.3935220  33.0364910 119.1185110
  28.4329570  42.3300220 119.1427250  28.8517680  43.1732950 118.9703490
  27.5138200  42.4672260 118.9134030  30.7693470  40.0616400 120.5265090
  30.8889680  39.4657540 121.2659930  31.6287470  40.0986090 120.1066390
  33.1081370  40.6153590 119.1027600  32.5816590  41.1396210 118.4992740
  33.4512710  41.2480980 119.7337330  25.5067760  38.0046960 105.5477310
  25.3056820  37.1414320 105.9090650  25.3359810  37.9180320 104.6098910
  26.2836990  48.6353230 120.2584980  25.7458080  49.3599290 119.9393680
  26.5370950  48.1583570 119.4682320  27.5362240  36.6037750 121.7840910
  28.1261930  36.2953600 122.4718730  26.7182480  36.1317500 121.9400810
  32.3555670  36.2203560 122.0173930  31.6671190  35.5585100 121.9523920
  33.0761690  35.7741830 122.4622390  32.9856070  32.8155190 108.0764190
  33.2658360  31.9723090 108.4323610  32.2121800  33.0478300 108.5902940
  24.3050560  35.1047580 105.5355190  24.6076460  35.1115010 104.6274340
  25.0445150  34.7545440 106.0322850  29.1399200  49.8704440 120.5171630
  29.0657900  50.7739580 120.8244000  28.2378040  49.5516340 120.4893700
  27.5235490  34.0482200 106.5211390  27.1757490  33.3706190 105.9413840
  27.7248260  33.5871710 107.3354780  23.3280690  44.4090000 106.3684990
  23.7655560  44.9519670 107.0242570  23.8128420  43.5836950 106.3781330
  20.5426490  47.1979030 113.8205250  20.8729500  46.3300090 113.5883890
  20.9717490  47.4037550 114.6510210  25.1388410  45.5288040 111.4807220
  24.8383950  45.4053010 112.3811130  25.0325900  44.6696630 111.0722950
  21.0316700  48.0649620 116.5586880  20.5947690  48.2450420 117.3911030
  21.5994380  48.8224240 116.4168600  36.6678880  47.5666620 120.8464190
  36.0680870  47.6259180 120.1028110  36.7972780  46.6271600 120.9761040
  20.8641130  40.5769850 112.9175760  20.2089970  40.3081490 112.2735460
  21.7019080  40.4674330 112.4677740  38.3696760  42.9082020 113.5310030
  38.7405590  42.1249340 113.1246000  39.0098690  43.5971120 113.3527330
  35.3530520  44.2918600 118.9440350  34.5390360  44.7215760 119.2066140
  35.7604720  44.9037010 118.3309400  33.8131570  35.3711140 107.1394250
  34.2316450  35.1842120 106.2990910  33.5067630  34.5190190 107.4497180
  21.9017060  40.9622420 117.4579100  22.2690100  40.8749820 118.3375120
  21.3327880  40.1988970 117.3585960  36.7020920  39.4306800 120.4709570
  36.4707010  39.2019550 119.5707520  36.9625470  40.3506350 120.4254460
  21.4533060  37.8731510 121.3637520  20.5589110  37.8398270 121.7031230
  21.9930610  38.0718300 122.1288770  35.1408990  34.6563230 123.2489270
  36.0179170  34.6646630 123.6323270  35.1529830  33.9194070 122.6381620
  20.0779210  37.7868780 108.8601090  19.1743290  38.0498980 108.6852750
  20.5619830  38.0579950 108.0801050  36.5872260  38.5092770 114.1377290
  37.1109740  38.0155420 113.5067460  37.1731680  38.6443130 114.8824860
  36.7661980  38.5932640 117.6596840  35.8164690  38.5596180 117.7741830
  36.9474990  39.5032750 117.4246610  22.6206420  36.8434320 106.7695470
  23.3298120  36.4217540 106.2842750  21.9046360  36.9109550 106.1378820
  22.2680580  32.8973650 105.8098120  22.9908710  33.4382590 106.1279340
  22.5405100  32.6237070 104.9339660  21.9572770  32.1479840 115.7120740
  22.6048960  31.5977220 115.2715900  22.3774610  32.4022990 116.5336550
  37.5059390  36.4027070 112.6107380  37.3958670  36.2483110 113.5489650
  38.2666980  35.8748010 112.3682790  35.8525110  32.3421200 119.0690380
  36.4897330  32.9555340 119.4349570  36.0000000  32.3781860 118.1239610
  38.3949660  34.2334990 105.8513520  39.3198970  34.1016170 105.6431810
  38.3725450  34.3127810 106.8049970  38.4688150  35.0045650 108.4770230
  37.6739650  34.9390770 109.0063140  38.6731430  35.9396290 108.4655580
  21.7104770  32.3035510 118.4546060  21.3619590  32.7599330 119.2204240
  21.3792470  31.4092640 118.5368490  23.3169140  45.4755110 122.6199250
  23.2738770  45.1048020 123.5013710  23.4480150  46.4132680 122.7601070
  27.0175170  47.0314700 118.2208970  26.7766530  47.2989260 117.3339490
  27.9577810  47.2020430 118.2759830  29.2229590  33.4947390 121.9765480
  29.1618480  34.0869220 122.7260890  30.1629970  33.3873350 121.8315740
  31.8604150  33.1517450 121.6157770  32.4744560  33.4696740 120.9538850
  32.4053710  32.6666040 122.2353630  38.2779330  49.0509080 119.0219610
  37.7837610  49.4477950 118.3046740  37.6692620  48.4258290 119.4156890
  22.3825410  31.8311710 121.7296830  22.9308400  31.6499760 120.9662940
  22.4480720  31.0405820 122.2653140  23.1557170  48.4217360 119.7397030
  22.5617490  48.2902060 120.4787070  23.1481010  47.5855500 119.2739130
  32.6012190  31.7149590 117.9427060  31.7272030  32.0484700 117.7399990
  32.4922940  31.2422770 118.7678930  33.5084170  33.9220460 119.3268780
  33.1797530  33.1072220 118.9470510  34.4566470  33.8790270 119.2034470
  35.9618780  49.6932500 116.3006350  35.5021750  50.4448310 115.9264370
  35.3331240  48.9738970 116.2421150  22.7869400  45.7875740 118.6905070
  22.0603460  45.1681030 118.6231020  22.8478550  46.1816350 117.8203150
  26.3914500  48.0020740 115.4754480  26.9079520  47.3908100 114.9502740
  27.0411880  48.5049520 115.9665490  29.1310000  48.8929230 116.3023460
  29.4187810  48.6383530 115.4256470  29.6433220  48.3406590 116.8929030
  30.3487010  32.6319430 116.8819970  29.5658800  33.1064930 117.1616730
  30.0549940  31.7274260 116.7733150  34.9008080  33.3342530 114.9269060
  35.3416170  33.2787630 114.0790660  34.6315670  34.2500540 114.9979240
  36.7646650  32.9657770 112.9377880  36.7035050  32.0218990 112.7908900
  37.5438680  33.0737860 113.4831340  21.0699400  49.1050130 111.9001830
  20.9021440  48.4720810 112.5983720  20.2033910  49.3109530 111.5496020
  21.6927420  32.9366910 109.4033690  22.4506780  33.0495790 108.8297720
  21.2304590  33.7736110 109.3577120  28.2341230  35.0506180 112.3936000
  27.4215740  34.6763070 112.0531880  28.7382870  34.2951260 112.6957190
  32.7366210  31.7148630 113.6319070  33.3395580  32.2868840 114.1067590
  31.9959200  32.2788070 113.4092970  35.8800810  32.1170190 108.9059350
  36.0751440  33.0153640 109.1726780  35.0930680  31.8857270 109.3992300
  22.6762100  47.7983360 109.3451970  22.1509720  48.1791390 108.6413930
  22.6006680  48.4234130 110.0661680  24.0652570  33.4630960 107.9435660
  24.5945330  32.6760760 107.8143610  24.6980890  34.1422150 108.1771190
  26.2590410  33.2006100 110.9981050  25.6293150  32.4993410 111.1651180
  25.7195550  33.9610230 110.7814210  29.1982360  49.8145330 123.6691660
  30.1249670  49.5789600 123.7127620  29.1832790  50.6417330 123.1877690
  37.4327420  49.3570900 110.6665910  37.6079610  48.6708640 110.0226830
  36.7348990  49.8817950 110.2742580  26.3845970  32.4790080 123.4333540
  26.1030240  32.9823680 122.6694360  26.7665670  31.6811830 123.0675670
  25.2755070  49.7465740 108.2201220  26.0073890  49.4625020 107.6725110
  25.5348740  49.5079020 109.1100600  24.4369860  45.8630470 108.2247550
  23.8078740  46.3315570 108.7733380  24.5517690  45.0179690 108.6593740
  32.9861430  31.8943660 124.0114010  32.8726880  32.2138270 124.9065530
  33.8031170  32.2956170 123.7151290  35.7659920  49.0415190 123.4932700
  36.5585240  48.5464420 123.2858660  36.0593070  49.7205330 124.1008310
  31.8919580  39.9136130  94.3748750  31.8113630  38.9990740  94.1040460
  31.4784000  40.4103200  93.6688460  30.0237620  41.6915150  96.2558020
  29.2479720  41.2115590  96.5456590  30.6750550  41.0120800  96.0814180
  24.0403450  42.0034960  97.1333780  23.2088330  41.7483670  97.5330290
  24.6484430  42.0745730  97.8691700  34.0445050  46.0975340  95.0357150
  33.5826580  45.3262580  95.3644320  34.8570600  46.1241410  95.5409600
  24.0204710  46.0375050  97.3291800  24.3232750  45.1472790  97.1502020
  24.7648300  46.5945270  97.1014050  22.4495400  36.9636850  90.9176170
  21.5612100  37.3052820  90.8156050  22.7336590  36.7637170  90.0257000
  20.4128410  39.5642500  96.8015870  20.9844520  38.7964700  96.8019510
  20.4129950  39.8631260  95.8922480  29.4646610  44.3672340  96.2628180
  29.3954890  43.4262280  96.1017310  30.2266470  44.4573750  96.8350750
  21.6553280  34.9726860  98.5884800  21.4756120  34.0752610  98.8687560
  21.2533360  35.5198730  99.2631750  30.4951780  37.1742720  96.4897110
  30.8716600  36.3014600  96.3770780  30.3971290  37.5101420  95.5987550
  24.6256790  35.5468350  91.9514550  24.7323540  36.4472080  92.2583310
  23.7149150  35.4986320  91.6609200  22.2739950  37.4687360  97.1967140
  22.9550060  37.7325730  97.8154540  21.9588000  36.6288230  97.5305150
  26.4664520  38.5154720  96.2839730  26.9742740  39.0135690  96.9244750
  26.9977760  37.7389920  96.1079090  24.7500620  33.1553280 100.5503150
  24.7519060  33.6725670  99.7449050  23.9204930  32.6783460 100.5273080
  31.1371710  43.2672590  92.0493050  30.5188980  43.7322040  91.4855770
  31.6494960  43.9600070  92.4662560  26.0003470  42.7948460  98.7276650
  25.6672850  43.4217380  99.3697720  26.1770150  43.3210340  97.9478320
  24.4315950  34.8663240  98.5573600  24.7732760  35.7105290  98.2627470
  23.4931760  35.0146980  98.6738940  20.5054910  43.9529120  89.4232680
  20.1282890  44.4416220  88.6917580  20.7627980  44.6254400  90.0539210
  28.1143840  32.3545510  94.8818190  28.4218820  31.7992400  94.1653690
  27.1844540  32.4889970  94.6991180  33.6658900  48.0712800  97.1725650
  33.6786060  47.6675090  96.3047910  33.1134120  48.8460090  97.0687080
  34.9604320  44.7929020  92.2615820  34.8500650  43.8503350  92.3865240
  34.9572570  45.1544660  93.1478580  33.0644340  42.9742640  98.5008260
  33.4813130  42.7602750  97.6661720  33.7884160  43.2315430  99.0716880
  30.5024600  40.4194340  91.6178310  29.5753880  40.3531720  91.8466780
  30.6549420  41.3574470  91.5033550  30.4893680  36.6911340  88.6145470
  29.5497350  36.8525300  88.6997930  30.8076940  37.4097020  88.0681460
  37.0106440  41.3729860  98.5924500  36.1825070  41.4422950  98.1174630
  37.6056920  41.9584170  98.1240330  34.5321890  41.9814640  92.1213560
  33.9134310  41.6434190  91.4739860  34.5146340  41.3374400  92.8292750
  26.1081240  40.9459080  94.3998040  25.7038240  40.2336330  93.9043940
  26.1944360  40.6012320  95.2886080  26.5762940  44.6326640  96.5637250
  26.2791230  44.0272110  95.8845030  27.5262760  44.6703950  96.4526610
  24.8209860  37.7202290  98.1797080  25.3724450  37.8297630  97.4050330
  25.3353370  38.0939890  98.8952310  24.4952590  41.2421650 101.7902420
  24.3560360  42.1144450 102.1589820  23.6133950  40.8994460 101.6450360
  30.8181970  46.1597520  93.0967550  31.2577880  46.9021850  92.6822940
  30.7568860  46.4024090  94.0206510  36.2903730  32.4744260  87.4427350
  35.9776390  32.5671090  88.3426420  37.0516200  33.0525290  87.3924780
  22.8085870  39.8404060  91.9004690  22.6883470  40.5666150  91.2885960
  22.4986760  39.0706970  91.4232600  20.4471240  43.0119200  97.7073330
  20.5251660  43.1467970  96.7629050  21.0612920  42.3035090  97.9001450
  21.6918870  44.7119390  94.1179510  21.2846950  44.8533980  93.2633110
  22.5831880  44.4279550  93.9150720  33.4852150  49.1466640  90.4530560
  33.3253290  48.8569580  91.3512390  33.3198860  48.3706770  89.9175790
  33.1878280  46.6554200  89.0128560  32.4943440  46.6531490  88.3530840
  33.9301140  46.2313520  88.5822730  32.7528210  48.2816910  93.0877050
  33.2085160  47.5006290  93.4015670  33.0920730  48.9923730  93.6318230
  37.5005020  37.2115760 103.4201490  36.8849290  37.7195430 102.8916950
  37.1801440  36.3114090 103.3627430  20.5030760  44.0533370 100.2467790
  20.6661800  43.5838730  99.4287160  20.9683210  43.5456930 100.9116630
  25.2749530  33.1839130  95.2828360  24.8317680  33.9648670  94.9512880
  25.8334520  33.5069020  95.9899300  29.5619340  36.0507650 100.8863680
  29.0998710  36.2590670 101.6983620  29.1597450  35.2367000 100.5834350
  34.5623850  37.2716600 102.0160340  33.7117440  36.9722350 102.3369410
  34.4025640  37.5158610 101.1044160  31.6573560  38.7718350 104.1159130
  31.9826970  37.9382100 103.7761360  32.4453890  39.2946870 104.2637460
  28.3908350  32.8049830  90.1634190  27.7662530  32.8009700  90.8887500
  28.3038470  31.9380790  89.7670160  27.3125430  33.7286460  97.1417960
  27.6097760  34.6349290  97.0609980  27.8610990  33.2405240  96.5277530
  25.0663750  38.3072700  93.0109610  24.8404670  38.0909870  93.9156230
  24.2856280  38.7401160  92.6655580  32.2961510  38.3136070  91.6100260
  31.6970400  39.0371870  91.4263880  32.8441120  38.2512850  90.8276710
  27.5062960  39.2058280 103.6769880  27.4106560  38.2653010 103.5270280
  28.3494940  39.4273350 103.2817950  30.9026380  36.9499610  93.6403540
  31.2955950  37.2671810  92.8272230  31.2643230  36.0711490  93.7548060
  22.6373500  35.6171950 101.8303660  22.2436890  36.4647160 102.0376440
  21.9491900  34.9798320 102.0212300  29.2118550  35.7006920 104.9000400
  28.5216870  35.5079120 105.5346490  29.9550850  35.9841560 105.4324700
  19.9390550  33.5400410  95.8633740  19.6503600  34.1103270  96.5758720
  20.6836310  33.0604860  96.2264970  20.1260780  37.4820530  87.0736460
  20.0435450  38.4251290  87.2151450  19.7743840  37.3395440  86.1948810
  27.9258910  36.2159560  96.1406810  27.9294970  35.7749510  95.2911350
  28.8210030  36.5376890  96.2478630  23.7761290  36.0986050  95.1001020
  23.4361340  36.5761280  95.8568070  23.0138610  35.6451170  94.7402120
  27.9879060  37.2171640  89.1313570  28.1091880  37.1758120  90.0799390
  27.6027570  38.0795790  88.9760300  31.9507430  34.9939040  97.1477260
  31.9680170  35.4447690  97.9919110  31.7023010  34.0944680  97.3610700
  27.0000560  39.5272780  88.5296870  26.4317460  39.0791030  87.9032780
  27.7089560  39.8865560  87.9962020  35.3778180  32.4071220 102.9863640
  35.7023950  31.6760880 103.5121620  35.4134690  32.0884860 102.0844630
  22.0769740  43.4284800 102.4063600  21.6924530  42.7878470 103.0046560
  22.3881930  44.1320920 102.9758330  28.2266880  40.2761340  97.8872220
  28.5937010  39.8019910  98.6333560  28.0371940  41.1502910  98.2280560
  21.0907370  35.0205030  94.0165690  20.8054290  34.6560700  94.8544310
  21.0286230  34.2885490  93.4028830  26.0166250  39.3169980 100.2056430
  25.7123320  40.1961960 100.4306790  26.9712710  39.3769770 100.2413870
  24.5448040  43.5230970  90.8023280  23.7710300  42.9828590  90.6422000
  25.2742670  43.0037580  90.4641040  35.3036020  42.5196330  96.5949670
  36.0235140  43.0151620  96.2045780  35.1017840  41.8414220  95.9503540
  30.7645960  33.9134290  90.7379060  29.9510570  33.4147460  90.6624370
  30.5707910  34.7532540  90.3215410  24.5885440  43.1911350  94.4402090
  25.1064110  42.3879610  94.3858980  24.1369460  43.1290490  95.2818920
  29.4754940  44.4577630  89.7129390  29.8170640  45.2019860  89.2172710
  28.6467650  44.7708750  90.0754220  22.0729980  40.1572720 101.3527790
  21.7144920  40.8226570 101.9401130  21.7784540  39.3256270 101.7240410
  25.2743100  40.6156960 104.2367340  24.9743240  40.7614140 103.3395160
  26.0454340  40.0562250 104.1440730  36.7795870  46.4508040  91.2303210
  36.1372030  45.7963660  91.5046930  36.3926530  46.8563130  90.4543880
  32.3582350  43.7793470  95.0774900  32.7106170  43.1821600  94.4176270
  31.4744680  43.4537700  95.2483150  28.4445630  44.5391160  92.4845310
  29.1316760  45.0860370  92.8652900  27.6578050  45.0831890  92.5194920
  20.5838030  40.1563980  87.9762390  21.4532880  40.4388780  88.2598310
  20.0928350  40.9699850  87.8611200  27.7472840  41.5437190  92.0970670
  28.2035620  42.3542440  92.3230860  27.3961050  41.2260330  92.9289160
  23.6484620  31.8874840  92.5693190  23.5199250  31.8792740  93.5178110
  22.8246640  32.2257930  92.2184200  31.3237530  45.0575880  98.0440420
  31.9659760  44.3569040  98.1572590  31.8486880  45.8374320  97.8637310
  20.6478550  33.6465960 102.0299890  19.9337070  33.8462880 102.6352500
  21.0673590  32.8705530 102.4014690  34.7509500  43.2596440  89.4293720
  34.4631200  43.7209130  90.2171600  35.5461670  42.7994210  89.6977940
  20.9351140  47.6346220 103.0166420  21.0442260  46.6940960 102.8761810
  20.2831700  47.9000970 102.3680150  22.5684540  41.9737450  90.1044450
  21.9612490  42.7136350  90.1139750  23.0433890  42.0636810  89.2782650
  32.1417330  36.1388270  99.7801340  32.5098150  35.3183480 100.1080910
  31.2815530  36.1990160 100.1956990  35.5079360  35.0945210  90.5888900
  34.8792520  35.1990880  89.8747130  35.0131280  35.3141990  91.3782780
  29.9537500  46.8150800  88.0222880  30.0549480  46.6114790  87.0924860
  29.0539240  46.5609080  88.2270660  27.4763390  37.3731160  92.0046780
  26.7679540  37.8417500  92.4460390  27.7607870  36.7153170  92.6391970
  29.1019320  38.7927860 100.0039310  29.6004570  39.2673680 100.6691160
  29.2442270  37.8691380 100.2109340  31.5078820  34.0981820  93.4442570
  31.3846600  34.1167950  92.4952080  32.4563380  34.1460760  93.5640970
  25.6798410  35.6816240  89.3797490  26.5288940  36.1186390  89.3137680
  25.3129680  35.9936500  90.2069550  34.6008190  40.2529000  94.2929060
  33.6598330  40.2679230  94.4676750  34.9152260  39.4664960  94.7389360
  24.5789830  41.9348600  87.8533020  25.3453100  41.8229960  88.4158450
  24.6564520  41.2386570  87.2009790  23.2736590  39.3673670  88.5365910
  23.3540180  38.4201180  88.6483310  24.1656340  39.6980550  88.6426570
  36.6033770  47.4237850  95.9683320  36.7281190  48.2469020  96.4407130
  37.4699330  47.2128580  95.6207470  24.0751300  49.5169060  95.6400450
  24.8113780  48.9684520  95.9109020  24.4592220  50.3825070  95.5006440
  23.0809580  48.7015130 104.8286030  23.8822310  49.0227180 105.2421430
  22.5661400  48.3410710 105.5505940  27.1853610  48.6899370  87.4626020
  27.9782220  48.9788200  87.0107810  26.6657960  48.2591540  86.7838500
  36.2383780  47.9169500  88.8862760  35.9525290  47.5034640  88.0716940
  36.0403330  48.8457210  88.7663280  20.8007390  41.1888590 103.7722080
  21.3046410  40.6095870 104.3438310  20.0614810  41.4728820 104.3098450
  27.7031010  43.9102780  87.3268370  27.5981650  43.2955130  88.0529750
  27.5355230  43.3868670  86.5431380  22.8330470  39.3318180 104.6672150
  22.8735810  39.0332050 105.5757380  23.6875970  39.7325790 104.5079670
  26.6108860  41.9313730  89.8275660  27.0325280  41.7653600  90.6707050
  26.7359700  41.1213960  89.3330800  24.7736280  37.9110280 102.6346640
  24.2432740  37.4201230 102.0069980  25.4424350  38.3394480 102.1004570
  34.1436510  39.7175900 104.4026980  34.7257280  38.9628220 104.3147460
  34.3198280  40.2483340 103.6258460  25.2608580  34.8772650 102.7143930
  25.1665450  34.2593400 101.9894800  24.6805970  35.6038940 102.4873840
  28.0270020  33.4345890  99.7471320  27.5787320  33.4570150  98.9016870
  27.3935220  33.0364910 100.3441620  28.4329570  42.3300220 100.3683760
  28.8517680  43.1732950 100.1960000  27.5138200  42.4672260 100.1390540
  30.7693470  40.0616400 101.7521600  30.8889680  39.4657540 102.4916440
  31.6287470  40.0986090 101.3322900  25.5067760  38.0046960  86.7733820
  25.3056820  37.1414320  87.1347160  25.3359810  37.9180320  85.8355420
  27.5362240  36.6037750 103.0097420  28.1261930  36.2953600 103.6975240
  26.7182480  36.1317500 103.1657320  32.3555670  36.2203560 103.2430440
  31.6671190  35.5585100 103.1780430  33.0761690  35.7741830 103.6878900
  32.9856070  32.8155190  89.3020700  33.2658360  31.9723090  89.6580120
  32.2121800  33.0478300  89.8159450  24.3050560  35.1047580  86.7611700
  24.6076460  35.1115010  85.8530850  25.0445150  34.7545440  87.2579360
  27.5235490  34.0482200  87.7467900  27.1757490  33.3706190  87.1670350
  27.7248260  33.5871710  88.5611290  29.6884530  49.0362950  89.3654500
  30.5835320  49.3747920  89.3873260  29.7202160  48.3142360  88.7378780
  20.5426490  47.1979030  95.0461760  20.8729500  46.3300090  94.8140400
  20.9717490  47.4037550  95.8766720  25.1388410  45.5288040  92.7063730
  24.8383950  45.4053010  93.6067640  25.0325900  44.6696630  92.2979460
  21.0316700  48.0649620  97.7843390  20.5947690  48.2450420  98.6167540
  21.5994380  48.8224240  97.6425110  20.8641130  40.5769850  94.1432270
  20.2089970  40.3081490  93.4991970  21.7019080  40.4674330  93.6934250
  38.3696760  42.9082020  94.7566540  38.7405590  42.1249340  94.3502510
  39.0098690  43.5971120  94.5783840  33.8131570  35.3711140  88.3650760
  34.2316450  35.1842120  87.5247420  33.5067630  34.5190190  88.6753690
  21.9017060  40.9622420  98.6835610  22.2690100  40.8749820  99.5631630
  21.3327880  40.1988970  98.5842470  36.7020920  39.4306800 101.6966080
  36.4707010  39.2019550 100.7964030  36.9625470  40.3506350 101.6510970
  21.4533060  37.8731510 102.5894030  20.5589110  37.8398270 102.9287740
  21.9930610  38.0718300 103.3545280  35.1408990  34.6563230 104.4745780
  36.0179170  34.6646630 104.8579780  35.1529830  33.9194070 103.8638130
  20.0779210  37.7868780  90.0857600  19.1743290  38.0498980  89.9109260
  20.5619830  38.0579950  89.3057560  22.6206420  36.8434320  87.9951980
  23.3298120  36.4217540  87.5099260  21.9046360  36.9109550  87.3635330
  22.2680580  32.8973650  87.0354630  22.9908710  33.4382590  87.3535850
  22.5405100  32.6237070  86.1596170  21.9572770  32.1479840  96.9377250
  22.6048960  31.5977220  96.4972410  22.3774610  32.4022990  97.7593060
  38.3949660  34.2334990  87.0770030  39.3198970  34.1016170  86.8688320
  38.3725450  34.3127810  88.0306480  38.4688150  35.0045650  89.7026740
  37.6739650  34.9390770  90.2319650  38.6731430  35.9396290  89.6912090
  35.4106570  49.0437200  93.6965130  36.0065640  48.7221770  93.0199550
  35.6684720  48.5709020  94.4878400  21.7104770  32.3035510  99.6802570
  21.3619590  32.7599330 100.4460750  21.3792470  31.4092640  99.7625000
  23.3169140  45.4755110 103.8455760  23.2738770  45.1048020 104.7270220
  23.4480150  46.4132680 103.9857580  29.2229590  33.4947390 103.2021990
  29.1618480  34.0869220 103.9517400  30.1629970  33.3873350 103.0572250
  31.8604150  33.1517450 102.8414280  32.4744560  33.4696740 102.1795360
  32.4053710  32.6666040 103.4610140  22.3825410  31.8311710 102.9553340
  22.9308400  31.6499760 102.1919450  22.4480720  31.0405820 103.4909650
  23.1557170  48.4217360 100.9653540  22.5617490  48.2902060 101.7043580
  23.1481010  47.5855500 100.4995640  32.6012190  31.7149590  99.1683570
  31.7272030  32.0484700  98.9656500  32.4922940  31.2422770  99.9935440
  33.5084170  33.9220460 100.5525290  33.1797530  33.1072220 100.1727020
  34.4566470  33.8790270 100.4290980  35.9618780  49.6932500  97.5262860
  35.5021750  50.4448310  97.1520880  35.3331240  48.9738970  97.4677660
  22.7869400  45.7875740  99.9161580  22.0603460  45.1681030  99.8487530
  22.8478550  46.1816350  99.0459660  26.3914500  48.0020740  96.7010990
  26.9079520  47.3908100  96.1759250  27.0411880  48.5049520  97.1922000
  30.3487010  32.6319430  98.1076480  29.5658800  33.1064930  98.3873240
  30.0549940  31.7274260  97.9989660  34.9008080  33.3342530  96.1525570
  35.3416170  33.2787630  95.3047170  34.6315670  34.2500540  96.2235750
  21.6927420  32.9366910  90.6290200  22.4506780  33.0495790  90.0554230
  21.2304590  33.7736110  90.5833630  28.2341230  35.0506180  93.6192510
  27.4215740  34.6763070  93.2788390  28.7382870  34.2951260  93.9213700
  32.7366210  31.7148630  94.8575580  33.3395580  32.2868840  95.3324100
  31.9959200  32.2788070  94.6349480  35.8800810  32.1170190  90.1315860
  36.0751440  33.0153640  90.3983290  35.0930680  31.8857270  90.6248810
  24.0652570  33.4630960  89.1692170  24.5945330  32.6760760  89.0400120
  24.6980890  34.1422150  89.4027700  26.2590410  33.2006100  92.2237560
  25.6293150  32.4993410  92.3907690  25.7195550  33.9610230  92.0070720
  37.4327420  49.3570900  91.8922420  37.6079610  48.6708640  91.2483340
  36.7348990  49.8817950  91.4999090  26.3845970  32.4790080 104.6590050
  26.1030240  32.9823680 103.8950870  26.7665670  31.6811830 104.2932180
  32.9861430  31.8943660 105.2370520  32.8726880  32.2138270 106.1322040
  33.8031170  32.2956170 104.9407800  24.0403450  42.0034960  78.3590290
  23.2088330  41.7483670  78.7586800  24.6484430  42.0745730  79.0948210
  34.0445050  46.0975340  76.2613660  33.5826580  45.3262580  76.5900830
  34.8570600  46.1241410  76.7666110  24.0204710  46.0375050  78.5548310
  24.3232750  45.1472790  78.3758530  24.7648300  46.5945270  78.3270560
  22.4495400  36.9636850  72.1432680  21.5612100  37.3052820  72.0412560
  22.7336590  36.7637170  71.2513510  20.4128410  39.5642500  78.0272380
  20.9844520  38.7964700  78.0276020  20.4129950  39.8631260  77.1178990
  29.4646610  44.3672340  77.4884690  29.3954890  43.4262280  77.3273820
  30.2266470  44.4573750  78.0607260  21.6553280  34.9726860  79.8141310
  21.4756120  34.0752610  80.0944070  21.2533360  35.5198730  80.4888260
  24.6256790  35.5468350  73.1771060  24.7323540  36.4472080  73.4839820
  23.7149150  35.4986320  72.8865710  22.2739950  37.4687360  78.4223650
  22.9550060  37.7325730  79.0411050  21.9588000  36.6288230  78.7561660
  26.4664520  38.5154720  77.5096240  26.9742740  39.0135690  78.1501260
  26.9977760  37.7389920  77.3335600  38.5675450  36.6859910  81.2125590
  37.8627620  37.0741620  80.6940700  38.8333370  37.3810200  81.8146520
  24.7500620  33.1553280  81.7759660  24.7519060  33.6725670  80.9705560
  23.9204930  32.6783460  81.7529590  26.0003470  42.7948460  79.9533160
  25.6672850  43.4217380  80.5954230  26.1770150  43.3210340  79.1734830
  24.4315950  34.8663240  79.7830110  24.7732760  35.7105290  79.4883980
  23.4931760  35.0146980  79.8995450  25.2122570  44.7629260  81.7682340
  25.8296570  45.4380340  81.4866790  24.3515690  45.1717240  81.6769840
  20.5054910  43.9529120  70.6489190  20.1282890  44.4416220  69.9174090
  20.7627980  44.6254400  71.2795720  28.1143840  32.3545510  76.1074700
  28.4218820  31.7992400  75.3910200  27.1844540  32.4889970  75.9247690
  34.9604320  44.7929020  73.4872330  34.8500650  43.8503350  73.6121750
  34.9572570  45.1544660  74.3735090  33.0644340  42.9742640  79.7264770
  33.4813130  42.7602750  78.8918230  33.7884160  43.2315430  80.2973390
  30.4893680  36.6911340  69.8401980  29.5497350  36.8525300  69.9254440
  30.8076940  37.4097020  69.2937970  37.0106440  41.3729860  79.8181010
  36.1825070  41.4422950  79.3431140  37.6056920  41.9584170  79.3496840
  33.9748450  38.1599180  80.7635880  33.5619630  38.9852890  81.0175870
  33.2424400  37.5744220  80.5712240  26.5762940  44.6326640  77.7893760
  26.2791230  44.0272110  77.1101540  27.5262760  44.6703950  77.6783120
  24.8209860  37.7202290  79.4053590  25.3724450  37.8297630  78.6306840
  25.3353370  38.0939890  80.1208820  25.6681370  44.3708330  84.4401560
  24.7709900  44.5948300  84.6874960  25.6934240  44.4943270  83.4912960
  24.4952590  41.2421650  83.0158930  24.3560360  42.1144450  83.3846330
  23.6133950  40.8994460  82.8706870  30.8181970  46.1597520  74.3224060
  31.2577880  46.9021850  73.9079450  30.7568860  46.4024090  75.2463020
  26.2932940  47.1843350  85.2244080  26.2648370  47.5886300  84.3572510
  26.1297910  46.2553710  85.0615680  36.2903730  32.4744260  68.6683860
  35.9776390  32.5671090  69.5682930  37.0516200  33.0525290  68.6181290
  22.8085870  39.8404060  73.1261200  22.6883470  40.5666150  72.5142470
  22.4986760  39.0706970  72.6489110  38.2447760  47.9670450  86.5208250
  38.7207480  48.4453340  87.1997330  38.8654920  47.8987940  85.7953750
  20.4471240  43.0119200  78.9329840  20.5251660  43.1467970  77.9885560
  21.0612920  42.3035090  79.1257960  21.6918870  44.7119390  75.3436020
  21.2846950  44.8533980  74.4889620  22.5831880  44.4279550  75.1407230
  37.6481010  45.1583300  83.6808260  37.7744070  44.9195180  82.7625440
  37.6902390  44.3267840  84.1530340  31.5097750  48.8611300  82.2503070
  32.0242420  48.7719310  83.0525500  30.6666830  49.2071000  82.5430980
  33.4852150  49.1466640  71.6787070  33.3253290  48.8569580  72.5768900
  33.3198860  48.3706770  71.1432300  33.1878280  46.6554200  70.2385070
  32.4943440  46.6531490  69.5787350  33.9301140  46.2313520  69.8079240
  32.7528210  48.2816910  74.3133560  33.2085160  47.5006290  74.6272180
  33.0920730  48.9923730  74.8574740  37.5005020  37.2115760  84.6458000
  36.8849290  37.7195430  84.1173460  37.1801440  36.3114090  84.5883940
  20.5030760  44.0533370  81.4724300  20.6661800  43.5838730  80.6543670
  20.9683210  43.5456930  82.1373140  25.2749530  33.1839130  76.5084870
  24.8317680  33.9648670  76.1769390  25.8334520  33.5069020  77.2155810
  29.5619340  36.0507650  82.1120190  29.0998710  36.2590670  82.9240130
  29.1597450  35.2367000  81.8090860  28.3908350  32.8049830  71.3890700
  27.7662530  32.8009700  72.1144010  28.3038470  31.9380790  70.9926670
  27.3125430  33.7286460  78.3674470  27.6097760  34.6349290  78.2866490
  27.8610990  33.2405240  77.7534040  27.5062960  39.2058280  84.9026390
  27.4106560  38.2653010  84.7526790  28.3494940  39.4273350  84.5074460
  22.6373500  35.6171950  83.0560170  22.2436890  36.4647160  83.2632950
  21.9491900  34.9798320  83.2468810  29.2118550  35.7006920  86.1256910
  28.5216870  35.5079120  86.7603000  29.9550850  35.9841560  86.6581210
  19.9390550  33.5400410  77.0890250  19.6503600  34.1103270  77.8015230
  20.6836310  33.0604860  77.4521480  20.1260780  37.4820530  68.2992970
  20.0435450  38.4251290  68.4407960  19.7743840  37.3395440  67.4205320
  31.4881520  39.5405360  78.9610830  30.7562640  40.0492170  79.3100930
  31.0905860  38.7235340  78.6599610  27.9258910  36.2159560  77.3663320
  27.9294970  35.7749510  76.5167860  28.8210030  36.5376890  77.4735140
  23.7761290  36.0986050  76.3257530  23.4361340  36.5761280  77.0824580
  23.0138610  35.6451170  75.9658630  35.3778180  32.4071220  84.2120150
  35.7023950  31.6760880  84.7378130  35.4134690  32.0884860  83.3101140
  22.0769740  43.4284800  83.6320110  21.6924530  42.7878470  84.2303070
  22.3881930  44.1320920  84.2014840  28.2266880  40.2761340  79.1128730
  28.5937010  39.8019910  79.8590070  28.0371940  41.1502910  79.4537070
  21.0907370  35.0205030  75.2422200  20.8054290  34.6560700  76.0800820
  21.0286230  34.2885490  74.6285340  26.0166250  39.3169980  81.4312940
  25.7123320  40.1961960  81.6563300  26.9712710  39.3769770  81.4670380
  24.5448040  43.5230970  72.0279790  23.7710300  42.9828590  71.8678510
  25.2742670  43.0037580  71.6897550  30.7645960  33.9134290  71.9635570
  29.9510570  33.4147460  71.8880880  30.5707910  34.7532540  71.5471920
  33.4794350  38.2853940  70.2597730  34.3673970  38.5971170  70.0849070
  33.4499440  37.4126190  69.8678310  24.5885440  43.1911350  75.6658600
  25.1064110  42.3879610  75.6115490  24.1369460  43.1290490  76.5075430
  22.0729980  40.1572720  82.5784300  21.7144920  40.8226570  83.1657640
  21.7784540  39.3256270  82.9496920  25.2743100  40.6156960  85.4623850
  24.9743240  40.7614140  84.5651670  26.0454340  40.0562250  85.3697240
  36.7795870  46.4508040  72.4559720  36.1372030  45.7963660  72.7303440
  36.3926530  46.8563130  71.6800390  28.4445630  44.5391160  73.7101820
  29.1316760  45.0860370  74.0909410  27.6578050  45.0831890  73.7451430
  20.5838030  40.1563980  69.2018900  21.4532880  40.4388780  69.4854820
  20.0928350  40.9699850  69.0867710  23.6484620  31.8874840  73.7949700
  23.5199250  31.8792740  74.7434620  22.8246640  32.2257930  73.4440710
  31.3237530  45.0575880  79.2696930  31.9659760  44.3569040  79.3829100
  31.8486880  45.8374320  79.0893820  35.1693250  45.3424500  68.9936070
  34.9430830  44.6254940  69.5860710  34.7789450  45.0936940  68.1557820
  33.0975150  45.8570780  82.4732990  33.4331390  46.4437470  83.1510910
  32.1775490  45.7263490  82.7030780  20.9509280  49.3691360  69.7680530
  21.3106920  49.9680700  69.1137800  20.8101620  49.9151250  70.5415560
  20.6478550  33.6465960  83.2556400  19.9337070  33.8462880  83.8609010
  21.0673590  32.8705530  83.6271200  20.9351140  47.6346220  84.2422930
  21.0442260  46.6940960  84.1018320  20.2831700  47.9000970  83.5936660
  28.9263730  45.9062110  85.6421050  28.6060600  45.1871350  86.1866740
  28.2522090  46.5817180  85.7157110  26.9677900  46.7522560  70.5854200
  26.9588000  47.4852250  69.9698710  26.0476260  46.5054140  70.6781160
  22.5684540  41.9737450  71.3300960  21.9612490  42.7136350  71.3396260
  23.0433890  42.0636810  70.5039160  32.1417330  36.1388270  81.0057850
  32.5098150  35.3183480  81.3337420  31.2815530  36.1990160  81.4213500
  29.9537500  46.8150800  69.2479390  30.0549480  46.6114790  68.3181370
  29.0539240  46.5609080  69.4527170  29.1019320  38.7927860  81.2295820
  29.6004570  39.2673680  81.8947670  29.2442270  37.8691380  81.4365850
  25.6798410  35.6816240  70.6054000  26.5288940  36.1186390  70.5394190
  25.3129680  35.9936500  71.4326060  36.3086180  35.0095820  82.0724210
  35.8059780  35.7501220  82.4118020  37.1242840  35.3979820  81.7561000
  24.5789830  41.9348600  69.0789530  25.3453100  41.8229960  69.6414960
  24.6564520  41.2386570  68.4266300  23.2736590  39.3673670  69.7622420
  23.3540180  38.4201180  69.8739820  24.1656340  39.6980550  69.8683080
  36.6033770  47.4237850  77.1939830  36.7281190  48.2469020  77.6663640
  37.4699330  47.2128580  76.8463980  24.0751300  49.5169060  76.8656960
  24.8113780  48.9684520  77.1365530  24.4592220  50.3825070  76.7262950
  20.9596780  45.5842630  72.7398470  20.0336560  45.8263770  72.7303880
  21.4253210  46.4116890  72.6183220  27.1853610  48.6899370  68.6882530
  27.9782220  48.9788200  68.2364320  26.6657960  48.2591540  68.0095010
  31.9174210  44.8095000  86.0017950  31.3112370  44.8326600  85.2613700
  31.6128320  44.0778040  86.5385200  33.3474580  48.5375290  84.6127360
  34.2996330  48.4533310  84.5627600  33.2002800  49.2017000  85.2861150
  36.2383780  47.9169500  70.1119270  35.9525290  47.5034640  69.2973450
  36.0403330  48.8457210  69.9919790  20.8007390  41.1888590  84.9978590
  21.3046410  40.6095870  85.5694820  20.0614810  41.4728820  85.5354960
  22.8330470  39.3318180  85.8928660  22.8735810  39.0332050  86.8013890
  23.6875970  39.7325790  85.7336180  24.7736280  37.9110280  83.8603150
  24.2432740  37.4201230  83.2326490  25.4424350  38.3394480  83.3261080
  25.2608580  34.8772650  83.9400440  25.1665450  34.2593400  83.2151310
  24.6805970  35.6038940  83.7130350  28.0270020  33.4345890  80.9727830
  27.5787320  33.4570150  80.1273380  27.3935220  33.0364910  81.5698130
  33.1081370  40.6153590  81.5540620  32.5816590  41.1396210  80.9505760
  33.4512710  41.2480980  82.1850350  25.5067760  38.0046960  67.9990330
  25.3056820  37.1414320  68.3603670  25.3359810  37.9180320  67.0611930
  27.5362240  36.6037750  84.2353930  28.1261930  36.2953600  84.9231750
  26.7182480  36.1317500  84.3913830  24.3050560  35.1047580  67.9868210
  24.6076460  35.1115010  67.0787360  25.0445150  34.7545440  68.4835870
  29.1399200  49.8704440  82.9684650  29.0657900  50.7739580  83.2757020
  28.2378040  49.5516340  82.9406720  27.5235490  34.0482200  68.9724410
  27.1757490  33.3706190  68.3926860  27.7248260  33.5871710  69.7867800
  29.6884530  49.0362950  70.5911010  30.5835320  49.3747920  70.6129770
  29.7202160  48.3142360  69.9635290  23.3280690  44.4090000  68.8198010
  23.7655560  44.9519670  69.4755590  23.8128420  43.5836950  68.8294350
  20.5426490  47.1979030  76.2718270  20.8729500  46.3300090  76.0396910
  20.9717490  47.4037550  77.1023230  25.1388410  45.5288040  73.9320240
  24.8383950  45.4053010  74.8324150  25.0325900  44.6696630  73.5235970
  21.0316700  48.0649620  79.0099900  20.5947690  48.2450420  79.8424050
  21.5994380  48.8224240  78.8681620  36.6678880  47.5666620  83.2977210
  36.0680870  47.6259180  82.5541130  36.7972780  46.6271600  83.4274060
  37.9080330  45.3084440  68.6346920  37.0773290  45.3761090  69.1054150
  38.0852160  46.1988560  68.3313780  20.8641130  40.5769850  75.3688780
  20.2089970  40.3081490  74.7248480  21.7019080  40.4674330  74.9190760
  38.3696760  42.9082020  75.9823050  38.7405590  42.1249340  75.5759020
  39.0098690  43.5971120  75.8040350  35.3530520  44.2918600  81.3953370
  34.5390360  44.7215760  81.6579160  35.7604720  44.9037010  80.7822420
  33.8131570  35.3711140  69.5907270  34.2316450  35.1842120  68.7503930
  33.5067630  34.5190190  69.9010200  21.9017060  40.9622420  79.9092120
  22.2690100  40.8749820  80.7888140  21.3327880  40.1988970  79.8098980
  21.4533060  37.8731510  83.8150540  20.5589110  37.8398270  84.1544250
  21.9930610  38.0718300  84.5801790  35.1408990  34.6563230  85.7002290
  36.0179170  34.6646630  86.0836290  35.1529830  33.9194070  85.0894640
  20.0779210  37.7868780  71.3114110  19.1743290  38.0498980  71.1365770
  20.5619830  38.0579950  70.5314070  36.7661980  38.5932640  80.1109860
  35.8164690  38.5596180  80.2254850  36.9474990  39.5032750  79.8759630
  22.6206420  36.8434320  69.2208490  23.3298120  36.4217540  68.7355770
  21.9046360  36.9109550  68.5891840  22.2680580  32.8973650  68.2611140
  22.9908710  33.4382590  68.5792360  22.5405100  32.6237070  67.3852680
  21.9572770  32.1479840  78.1633760  22.6048960  31.5977220  77.7228920
  22.3774610  32.4022990  78.9849570  37.5059390  36.4027070  75.0620400
  37.3958670  36.2483110  76.0002670  38.2666980  35.8748010  74.8195810
  35.4106570  49.0437200  74.9221640  36.0065640  48.7221770  74.2456060
  35.6684720  48.5709020  75.7134910  21.7104770  32.3035510  80.9059080
  21.3619590  32.7599330  81.6717260  21.3792470  31.4092640  80.9881510
  23.3169140  45.4755110  85.0712270  23.2738770  45.1048020  85.9526730
  23.4480150  46.4132680  85.2114090  27.0175170  47.0314700  80.6721990
  26.7766530  47.2989260  79.7852510  27.9577810  47.2020430  80.7272850
  29.2229590  33.4947390  84.4278500  29.1618480  34.0869220  85.1773910
  30.1629970  33.3873350  84.2828760  31.8604150  33.1517450  84.0670790
  32.4744560  33.4696740  83.4051870  32.4053710  32.6666040  84.6866650
  38.2779330  49.0509080  81.4732630  37.7837610  49.4477950  80.7559760
  37.6692620  48.4258290  81.8669910  22.3825410  31.8311710  84.1809850
  22.9308400  31.6499760  83.4175960  22.4480720  31.0405820  84.7166160
  23.1557170  48.4217360  82.1910050  22.5617490  48.2902060  82.9300090
  23.1481010  47.5855500  81.7252150  32.6012190  31.7149590  80.3940080
  31.7272030  32.0484700  80.1913010  32.4922940  31.2422770  81.2191950
  33.5084170  33.9220460  81.7781800  33.1797530  33.1072220  81.3983530
  34.4566470  33.8790270  81.6547490  22.7869400  45.7875740  81.1418090
  22.0603460  45.1681030  81.0744040  22.8478550  46.1816350  80.2716170
  21.0699400  49.1050130  74.3514850  20.9021440  48.4720810  75.0496740
  20.2033910  49.3109530  74.0009040  21.6927420  32.9366910  71.8546710
  22.4506780  33.0495790  71.2810740  21.2304590  33.7736110  71.8090140
  28.2341230  35.0506180  74.8449020  27.4215740  34.6763070  74.5044900
  28.7382870  34.2951260  75.1470210  22.6762100  47.7983360  71.7964990
  22.1509720  48.1791390  71.0926950  22.6006680  48.4234130  72.5174700
  24.0652570  33.4630960  70.3948680  24.5945330  32.6760760  70.2656630
  24.6980890  34.1422150  70.6284210  26.2590410  33.2006100  73.4494070
  25.6293150  32.4993410  73.6164200  25.7195550  33.9610230  73.2327230
  29.1982360  49.8145330  86.1204680  30.1249670  49.5789600  86.1640640
  29.1832790  50.6417330  85.6390710  37.4327420  49.3570900  73.1178930
  37.6079610  48.6708640  72.4739850  36.7348990  49.8817950  72.7255600
  26.3845970  32.4790080  85.8846560  26.1030240  32.9823680  85.1207380
  26.7665670  31.6811830  85.5188690  25.2755070  49.7465740  70.6714240
  26.0073890  49.4625020  70.1238130  25.5348740  49.5079020  71.5613620
  24.4369860  45.8630470  70.6760570  23.8078740  46.3315570  71.2246400
  24.5517690  45.0179690  71.1106760  32.9861430  31.8943660  86.4627030
  32.8726880  32.2138270  87.3578550  33.8031170  32.2956170  86.1664310
  35.7659920  49.0415190  85.9445720  36.5585240  48.5464420  85.7371680
  36.0593070  49.7205330  86.5521330  30.0237620  41.6915150  58.7071040
  29.2479720  41.2115590  58.9969610  30.6750550  41.0120800  58.5327200
  24.0403450  42.0034960  59.5846800  23.2088330  41.7483670  59.9843310
  24.6484430  42.0745730  60.3204720  34.0445050  46.0975340  57.4870170
  33.5826580  45.3262580  57.8157340  34.8570600  46.1241410  57.9922620
  24.0204710  46.0375050  59.7804820  24.3232750  45.1472790  59.6015040
  24.7648300  46.5945270  59.5527070  22.4495400  36.9636850  53.3689190
  21.5612100  37.3052820  53.2669070  22.7336590  36.7637170  52.4770020
  20.4128410  39.5642500  59.2528890  20.9844520  38.7964700  59.2532530
  20.4129950  39.8631260  58.3435500  30.2708360  48.3833350  57.1074160
  29.6519800  48.8390850  56.5368600  31.1260140  48.5384810  56.7063860
  21.6553280  34.9726860  61.0397820  21.4756120  34.0752610  61.3200580
  21.2533360  35.5198730  61.7144770  24.6256790  35.5468350  54.4027570
  24.7323540  36.4472080  54.7096330  23.7149150  35.4986320  54.1122220
  22.2739950  37.4687360  59.6480160  22.9550060  37.7325730  60.2667560
  21.9588000  36.6288230  59.9818170  26.4664520  38.5154720  58.7352750
  26.9742740  39.0135690  59.3757770  26.9977760  37.7389920  58.5592110
  38.5675450  36.6859910  62.4382100  37.8627620  37.0741620  61.9197210
  38.8333370  37.3810200  63.0403030  24.7500620  33.1553280  63.0016170
  24.7519060  33.6725670  62.1962070  23.9204930  32.6783460  62.9786100
  31.1371710  43.2672590  54.5006070  30.5188980  43.7322040  53.9368790
  31.6494960  43.9600070  54.9175580  26.0003470  42.7948460  61.1789670
  25.6672850  43.4217380  61.8210740  26.1770150  43.3210340  60.3991340
  24.4315950  34.8663240  61.0086620  24.7732760  35.7105290  60.7140490
  23.4931760  35.0146980  61.1251960  25.2122570  44.7629260  62.9938850
  25.8296570  45.4380340  62.7123300  24.3515690  45.1717240  62.9026350
  20.5054910  43.9529120  51.8745700  20.1282890  44.4416220  51.1430600
  20.7627980  44.6254400  52.5052230  36.1300160  46.2268670  60.9093490
  35.4463680  46.8967780  60.9010160  36.6694450  46.4249320  60.1438350
  37.5824300  36.0548330  59.0375220  36.6349210  36.0887310  59.1690650
  37.9074290  36.8687280  59.4224580  28.1143840  32.3545510  57.3331210
  28.4218820  31.7992400  56.6166710  27.1844540  32.4889970  57.1504200
  33.6658900  48.0712800  59.6238670  33.6786060  47.6675090  58.7560930
  33.1134120  48.8460090  59.5200100  30.4893680  36.6911340  51.0658490
  29.5497350  36.8525300  51.1510950  30.8076940  37.4097020  50.5194480
  33.9748450  38.1599180  61.9892390  33.5619630  38.9852890  62.2432380
  33.2424400  37.5744220  61.7968750  26.1081240  40.9459080  56.8511060
  25.7038240  40.2336330  56.3556960  26.1944360  40.6012320  57.7399100
  26.5762940  44.6326640  59.0150270  26.2791230  44.0272110  58.3358050
  27.5262760  44.6703950  58.9039630  24.8209860  37.7202290  60.6310100
  25.3724450  37.8297630  59.8563350  25.3353370  38.0939890  61.3465330
  34.6648550  48.2058510  62.6773370  34.1879110  49.0130700  62.4845980
  33.9810340  47.5536840  62.8299580  25.6681370  44.3708330  65.6658070
  24.7709900  44.5948300  65.9131470  25.6934240  44.4943270  64.7169470
  32.7086590  41.2201450  51.5799330  33.1479870  40.3823880  51.4337150
  33.4215010  41.8530850  51.6663470  24.4952590  41.2421650  64.2415440
  24.3560360  42.1144450  64.6102840  23.6133950  40.8994460  64.0963380
  30.8181970  46.1597520  55.5480570  31.2577880  46.9021850  55.1335960
  30.7568860  46.4024090  56.4719530  26.2932940  47.1843350  66.4500590
  26.2648370  47.5886300  65.5829020  26.1297910  46.2553710  66.2872190
  22.8085870  39.8404060  54.3517710  22.6883470  40.5666150  53.7398980
  22.4986760  39.0706970  53.8745620  20.4471240  43.0119200  60.1586350
  20.5251660  43.1467970  59.2142070  21.0612920  42.3035090  60.3514470
  21.6918870  44.7119390  56.5692530  21.2846950  44.8533980  55.7146130
  22.5831880  44.4279550  56.3663740  37.6481010  45.1583300  64.9064770
  37.7744070  44.9195180  63.9881950  37.6902390  44.3267840  65.3786850
  31.5097750  48.8611300  63.4759580  32.0242420  48.7719310  64.2782010
  30.6666830  49.2071000  63.7687490  33.4852150  49.1466640  52.9043580
  33.3253290  48.8569580  53.8025410  33.3198860  48.3706770  52.3688810
  25.9640530  48.9265170  54.6815200  25.7883010  48.0100710  54.4683000
  25.1096270  49.2852460  54.9213000  33.1878280  46.6554200  51.4641580
  32.4943440  46.6531490  50.8043860  33.9301140  46.2313520  51.0335750
  32.7528210  48.2816910  55.5390070  33.2085160  47.5006290  55.8528690
  33.0920730  48.9923730  56.0831250  20.5030760  44.0533370  62.6980810
  20.6661800  43.5838730  61.8800180  20.9683210  43.5456930  63.3629650
  25.2749530  33.1839130  57.7341380  24.8317680  33.9648670  57.4025900
  25.8334520  33.5069020  58.4412320  29.5619340  36.0507650  63.3376700
  29.0998710  36.2590670  64.1496640  29.1597450  35.2367000  63.0347370
  34.5623850  37.2716600  64.4673360  33.7117440  36.9722350  64.7882430
  34.4025640  37.5158610  63.5557180  31.6573560  38.7718350  66.5672150
  31.9826970  37.9382100  66.2274380  32.4453890  39.2946870  66.7150480
  28.3908350  32.8049830  52.6147210  27.7662530  32.8009700  53.3400520
  28.3038470  31.9380790  52.2183180  27.3125430  33.7286460  59.5930980
  27.6097760  34.6349290  59.5123000  27.8610990  33.2405240  58.9790550
  25.0663750  38.3072700  55.4622630  24.8404670  38.0909870  56.3669250
  24.2856280  38.7401160  55.1168600  22.6373500  35.6171950  64.2816680
  22.2436890  36.4647160  64.4889460  21.9491900  34.9798320  64.4725320
  29.2118550  35.7006920  67.3513420  28.5216870  35.5079120  67.9859510
  29.9550850  35.9841560  67.8837720  19.9390550  33.5400410  58.3146760
  19.6503600  34.1103270  59.0271740  20.6836310  33.0604860  58.6777990
  20.1260780  37.4820530  49.5249480  20.0435450  38.4251290  49.6664470
  19.7743840  37.3395440  48.6461830  31.4881520  39.5405360  60.1867340
  30.7562640  40.0492170  60.5357440  31.0905860  38.7235340  59.8856120
  27.9258910  36.2159560  58.5919830  27.9294970  35.7749510  57.7424370
  28.8210030  36.5376890  58.6991650  23.7761290  36.0986050  57.5514040
  23.4361340  36.5761280  58.3081090  23.0138610  35.6451170  57.1915140
  27.9879060  37.2171640  51.5826590  28.1091880  37.1758120  52.5312410
  27.6027570  38.0795790  51.4273320  31.9507430  34.9939040  59.5990280
  31.9680170  35.4447690  60.4432130  31.7023010  34.0944680  59.8123720
  27.0000560  39.5272780  50.9809890  26.4317460  39.0791030  50.3545800
  27.7089560  39.8865560  50.4475040  35.3778180  32.4071220  65.4376660
  35.7023950  31.6760880  65.9634640  35.4134690  32.0884860  64.5357650
  22.0769740  43.4284800  64.8576620  21.6924530  42.7878470  65.4559580
  22.3881930  44.1320920  65.4271350  28.2266880  40.2761340  60.3385240
  28.5937010  39.8019910  61.0846580  28.0371940  41.1502910  60.6793580
  21.0907370  35.0205030  56.4678710  20.8054290  34.6560700  57.3057330
  21.0286230  34.2885490  55.8541850  26.0166250  39.3169980  62.6569450
  25.7123320  40.1961960  62.8819810  26.9712710  39.3769770  62.6926890
  24.5448040  43.5230970  53.2536300  23.7710300  42.9828590  53.0935020
  25.2742670  43.0037580  52.9154060  35.3036020  42.5196330  59.0462690
  36.0235140  43.0151620  58.6558800  35.1017840  41.8414220  58.4016560
  30.7645960  33.9134290  53.1892080  29.9510570  33.4147460  53.1137390
  30.5707910  34.7532540  52.7728430  30.6854820  42.5905390  64.9331690
  30.6192130  41.6701060  64.6789280  30.0559960  42.6880830  65.6476330
  33.4794350  38.2853940  51.4854240  34.3673970  38.5971170  51.3105580
  33.4499440  37.4126190  51.0934820  24.5885440  43.1911350  56.8915110
  25.1064110  42.3879610  56.8372000  24.1369460  43.1290490  57.7331940
  29.4754940  44.4577630  52.1642410  29.8170640  45.2019860  51.6685730
  28.6467650  44.7708750  52.5267240  22.0729980  40.1572720  63.8040810
  21.7144920  40.8226570  64.3914150  21.7784540  39.3256270  64.1753430
  25.2743100  40.6156960  66.6880360  24.9743240  40.7614140  65.7908180
  26.0454340  40.0562250  66.5953750  30.6171550  45.4125960  64.6835490
  30.6316090  44.4806920  64.4654400  29.9096650  45.4985720  65.3225260
  35.7508620  39.5965780  50.9534100  35.6672340  40.0280000  50.1030540
  36.4702810  40.0564130  51.3860920  36.8282760  42.0533300  64.0304070
  36.1030950  42.6462080  63.8333460  37.3558220  42.0456840  63.2317440
  28.4445630  44.5391160  54.9358330  29.1316760  45.0860370  55.3165920
  27.6578050  45.0831890  54.9707940  20.5838030  40.1563980  50.4275410
  21.4532880  40.4388780  50.7111330  20.0928350  40.9699850  50.3124220
  27.7472840  41.5437190  54.5483690  28.2035620  42.3542440  54.7743880
  27.3961050  41.2260330  55.3802180  30.0505450  47.0543530  61.7775990
  30.6947670  47.2602910  62.4549410  30.4134890  46.2931930  61.3246840
  23.6484620  31.8874840  55.0206210  23.5199250  31.8792740  55.9691130
  22.8246640  32.2257930  54.6697220  35.1693250  45.3424500  50.2192580
  34.9430830  44.6254940  50.8117220  34.7789450  45.0936940  49.3814330
  33.0975150  45.8570780  63.6989500  33.4331390  46.4437470  64.3767420
  32.1775490  45.7263490  63.9287290  20.9509280  49.3691360  50.9937040
  21.3106920  49.9680700  50.3394310  20.8101620  49.9151250  51.7672070
  20.6478550  33.6465960  64.4812910  19.9337070  33.8462880  65.0865520
  21.0673590  32.8705530  64.8527710  20.9351140  47.6346220  65.4679440
  21.0442260  46.6940960  65.3274830  20.2831700  47.9000970  64.8193170
  28.9263730  45.9062110  66.8677560  28.6060600  45.1871350  67.4123250
  28.2522090  46.5817180  66.9413620  26.9677900  46.7522560  51.8110710
  26.9588000  47.4852250  51.1955220  26.0476260  46.5054140  51.9037670
  22.5684540  41.9737450  52.5557470  21.9612490  42.7136350  52.5652770
  23.0433890  42.0636810  51.7295670  32.1417330  36.1388270  62.2314360
  32.5098150  35.3183480  62.5593930  31.2815530  36.1990160  62.6470010
  29.9537500  46.8150800  50.4735900  30.0549480  46.6114790  49.5437880
  29.0539240  46.5609080  50.6783680  27.4763390  37.3731160  54.4559800
  26.7679540  37.8417500  54.8973410  27.7607870  36.7153170  55.0904990
  29.1019320  38.7927860  62.4552330  29.6004570  39.2673680  63.1204180
  29.2442270  37.8691380  62.6622360  28.5955610  49.3337120  55.1683570
  28.8497110  49.2958510  54.2462940  27.6468090  49.2070450  55.1611820
  25.6798410  35.6816240  51.8310510  26.5288940  36.1186390  51.7650700
  25.3129680  35.9936500  52.6582570  36.3086180  35.0095820  63.2980720
  35.8059780  35.7501220  63.6374530  37.1242840  35.3979820  62.9817510
  24.5789830  41.9348600  50.3046040  25.3453100  41.8229960  50.8671470
  24.6564520  41.2386570  49.6522810  23.2736590  39.3673670  50.9878930
  23.3540180  38.4201180  51.0996330  24.1656340  39.6980550  51.0939590
  36.6033770  47.4237850  58.4196340  36.7281190  48.2469020  58.8920150
  37.4699330  47.2128580  58.0720490  24.0751300  49.5169060  58.0913470
  24.8113780  48.9684520  58.3622040  24.4592220  50.3825070  57.9519460
  20.9596780  45.5842630  53.9654980  20.0336560  45.8263770  53.9560390
  21.4253210  46.4116890  53.8439730  23.0809580  48.7015130  67.2799050
  23.8822310  49.0227180  67.6934450  22.5661400  48.3410710  68.0018960
  27.1853610  48.6899370  49.9139040  27.9782220  48.9788200  49.4620830
  26.6657960  48.2591540  49.2351520  31.9174210  44.8095000  67.2274460
  31.3112370  44.8326600  66.4870210  31.6128320  44.0778040  67.7641710
  33.3474580  48.5375290  65.8383870  34.2996330  48.4533310  65.7884110
  33.2002800  49.2017000  66.5117660  36.2383780  47.9169500  51.3375780
  35.9525290  47.5034640  50.5229960  36.0403330  48.8457210  51.2176300
  20.8007390  41.1888590  66.2235100  21.3046410  40.6095870  66.7951330
  20.0614810  41.4728820  66.7611470  27.7031010  43.9102780  49.7781390
  27.5981650  43.2955130  50.5042770  27.5355230  43.3868670  48.9944400
  27.8545330  42.5959580  65.7570620  27.0891000  43.1644580  65.6725290
  28.0361290  42.3035790  64.8638850  30.9433740  42.9722810  50.3823380
  30.3943840  43.4192110  51.0266120  31.5653000  42.4672060  50.9061050
  34.9968680  44.3264910  66.3145640  35.7378150  44.6640670  65.8113100
  34.2341360  44.4956970  65.7615410  22.8330470  39.3318180  67.1185170
  22.8735810  39.0332050  68.0270400  23.6875970  39.7325790  66.9592690
  26.6108860  41.9313730  52.2788680  27.0325280  41.7653600  53.1220070
  26.7359700  41.1213960  51.7843820  24.7736280  37.9110280  65.0859660
  24.2432740  37.4201230  64.4583000  25.4424350  38.3394480  64.5517590
  29.1236500  40.9551340  49.5265780  29.6442160  40.2400360  49.1606930
  29.7704900  41.5937210  49.8266290  33.6714340  42.3779740  64.8500850
  34.0855360  42.5324820  65.6991270  32.7365340  42.5034960  65.0126630
  25.2608580  34.8772650  65.1656950  25.1665450  34.2593400  64.4407820
  24.6805970  35.6038940  64.9386860  28.0270020  33.4345890  62.1984340
  27.5787320  33.4570150  61.3529890  27.3935220  33.0364910  62.7954640
  28.4329570  42.3300220  62.8196780  28.8517680  43.1732950  62.6473020
  27.5138200  42.4672260  62.5903560  30.7693470  40.0616400  64.2034620
  30.8889680  39.4657540  64.9429460  31.6287470  40.0986090  63.7835920
  33.1081370  40.6153590  62.7797130  32.5816590  41.1396210  62.1762270
  33.4512710  41.2480980  63.4106860  25.5067760  38.0046960  49.2246840
  25.3056820  37.1414320  49.5860180  25.3359810  37.9180320  48.2868440
  27.5362240  36.6037750  65.4610440  28.1261930  36.2953600  66.1488260
  26.7182480  36.1317500  65.6170340  32.3555670  36.2203560  65.6943460
  31.6671190  35.5585100  65.6293450  33.0761690  35.7741830  66.1391920
  32.9856070  32.8155190  51.7533720  33.2658360  31.9723090  52.1093140
  32.2121800  33.0478300  52.2672470  24.3050560  35.1047580  49.2124720
  24.6076460  35.1115010  48.3043870  25.0445150  34.7545440  49.7092380
  27.5235490  34.0482200  50.1980920  27.1757490  33.3706190  49.6183370
  27.7248260  33.5871710  51.0124310  29.6884530  49.0362950  51.8167520
  30.5835320  49.3747920  51.8386280  29.7202160  48.3142360  51.1891800
  23.3280690  44.4090000  50.0454520  23.7655560  44.9519670  50.7012100
  23.8128420  43.5836950  50.0550860  20.5426490  47.1979030  57.4974780
  20.8729500  46.3300090  57.2653420  20.9717490  47.4037550  58.3279740
  25.1388410  45.5288040  55.1576750  24.8383950  45.4053010  56.0580660
  25.0325900  44.6696630  54.7492480  21.0316700  48.0649620  60.2356410
  20.5947690  48.2450420  61.0680560  21.5994380  48.8224240  60.0938130
  37.9080330  45.3084440  49.8603430  37.0773290  45.3761090  50.3310660
  38.0852160  46.1988560  49.5570290  37.3636790  42.0531920  52.3637630
  38.1255700  42.6228570  52.4697320  37.3791160  41.4859120  53.1345940
  20.8641130  40.5769850  56.5945290  20.2089970  40.3081490  55.9504990
  21.7019080  40.4674330  56.1447270  38.3696760  42.9082020  57.2079560
  38.7405590  42.1249340  56.8015530  39.0098690  43.5971120  57.0296860
  35.3530520  44.2918600  62.6209880  34.5390360  44.7215760  62.8835670
  35.7604720  44.9037010  62.0078930  37.4155960  42.3466290  49.5210150
  37.6904800  43.2545170  49.3929370  37.2266700  42.2828820  50.4572140
  33.8131570  35.3711140  50.8163780  34.2316450  35.1842120  49.9760440
  33.5067630  34.5190190  51.1266710  21.9017060  40.9622420  61.1348630
  22.2690100  40.8749820  62.0144650  21.3327880  40.1988970  61.0355490
  36.7020920  39.4306800  64.1479100  36.4707010  39.2019550  63.2477050
  36.9625470  40.3506350  64.1023990  21.4533060  37.8731510  65.0407050
  20.5589110  37.8398270  65.3800760  21.9930610  38.0718300  65.8058300
  35.1408990  34.6563230  66.9258800  36.0179170  34.6646630  67.3092800
  35.1529830  33.9194070  66.3151150  20.0779210  37.7868780  52.5370620
  19.1743290  38.0498980  52.3622280  20.5619830  38.0579950  51.7570580
  36.7661980  38.5932640  61.3366370  35.8164690  38.5596180  61.4511360
  36.9474990  39.5032750  61.1016140  22.6206420  36.8434320  50.4465000
  23.3298120  36.4217540  49.9612280  21.9046360  36.9109550  49.8148350
  22.2680580  32.8973650  49.4867650  22.9908710  33.4382590  49.8048870
  22.5405100  32.6237070  48.6109190  21.9572770  32.1479840  59.3890270
  22.6048960  31.5977220  58.9485430  22.3774610  32.4022990  60.2106080
  35.8525110  32.3421200  62.7459910  36.4897330  32.9555340  63.1119100
  36.0000000  32.3781860  61.8009140  35.4106570  49.0437200  56.1478150
  36.0065640  48.7221770  55.4712570  35.6684720  48.5709020  56.9391420
  21.7104770  32.3035510  62.1315590  21.3619590  32.7599330  62.8973770
  21.3792470  31.4092640  62.2138020  23.3169140  45.4755110  66.2968780
  23.2738770  45.1048020  67.1783240  23.4480150  46.4132680  66.4370600
  27.0175170  47.0314700  61.8978500  26.7766530  47.2989260  61.0109020
  27.9577810  47.2020430  61.9529360  29.2229590  33.4947390  65.6535010
  29.1618480  34.0869220  66.4030420  30.1629970  33.3873350  65.5085270
  31.8604150  33.1517450  65.2927300  32.4744560  33.4696740  64.6308380
  32.4053710  32.6666040  65.9123160  22.3825410  31.8311710  65.4066360
  22.9308400  31.6499760  64.6432470  22.4480720  31.0405820  65.9422670
  32.6012190  31.7149590  61.6196590  31.7272030  32.0484700  61.4169520
  32.4922940  31.2422770  62.4448460  33.5084170  33.9220460  63.0038310
  33.1797530  33.1072220  62.6240040  34.4566470  33.8790270  62.8804000
  35.9618780  49.6932500  59.9775880  35.5021750  50.4448310  59.6033900
  35.3331240  48.9738970  59.9190680  22.7869400  45.7875740  62.3674600
  22.0603460  45.1681030  62.3000550  22.8478550  46.1816350  61.4972680
  26.3914500  48.0020740  59.1524010  26.9079520  47.3908100  58.6272270
  27.0411880  48.5049520  59.6435020  29.1310000  48.8929230  59.9792990
  29.4187810  48.6383530  59.1026000  29.6433220  48.3406590  60.5698560
  30.3487010  32.6319430  60.5589500  29.5658800  33.1064930  60.8386260
  30.0549940  31.7274260  60.4502680  34.9008080  33.3342530  58.6038590
  35.3416170  33.2787630  57.7560190  34.6315670  34.2500540  58.6748770
  36.7646650  32.9657770  56.6147410  36.7035050  32.0218990  56.4678430
  37.5438680  33.0737860  57.1600870  21.0699400  49.1050130  55.5771360
  20.9021440  48.4720810  56.2753250  20.2033910  49.3109530  55.2265550
  21.6927420  32.9366910  53.0803220  22.4506780  33.0495790  52.5067250
  21.2304590  33.7736110  53.0346650  28.2341230  35.0506180  56.0705530
  27.4215740  34.6763070  55.7301410  28.7382870  34.2951260  56.3726720
  32.7366210  31.7148630  57.3088600  33.3395580  32.2868840  57.7837120
  31.9959200  32.2788070  57.0862500  22.6762100  47.7983360  53.0221500
  22.1509720  48.1791390  52.3183460  22.6006680  48.4234130  53.7431210
  24.0652570  33.4630960  51.6205190  24.5945330  32.6760760  51.4913140
  24.6980890  34.1422150  51.8540720  26.2590410  33.2006100  54.6750580
  25.6293150  32.4993410  54.8420710  25.7195550  33.9610230  54.4583740
  29.1982360  49.8145330  67.3461190  30.1249670  49.5789600  67.3897150
  29.1832790  50.6417330  66.8647220  37.4327420  49.3570900  54.3435440
  37.6079610  48.6708640  53.6996360  36.7348990  49.8817950  53.9512110
  26.3845970  32.4790080  67.1103070  26.1030240  32.9823680  66.3463890
  26.7665670  31.6811830  66.7445200  25.2755070  49.7465740  51.8970750
  26.0073890  49.4625020  51.3494640  25.5348740  49.5079020  52.7870130
  24.4369860  45.8630470  51.9017080  23.8078740  46.3315570  52.4502910
  24.5517690  45.0179690  52.3363270  32.9861430  31.8943660  67.6883540
  32.8726880  32.2138270  68.5835060  33.8031170  32.2956170  67.3920820
  31.8919580  39.9136130  38.0518280  31.8113630  38.9990740  37.7809990
  31.4784000  40.4103200  37.3457990  30.0237620  41.6915150  39.9327550
  29.2479720  41.2115590  40.2226120  30.6750550  41.0120800  39.7583710
  24.0403450  42.0034960  40.8103310  23.2088330  41.7483670  41.2099820
  24.6484430  42.0745730  41.5461230  34.0445050  46.0975340  38.7126680
  33.5826580  45.3262580  39.0413850  34.8570600  46.1241410  39.2179130
  24.0204710  46.0375050  41.0061330  24.3232750  45.1472790  40.8271550
  24.7648300  46.5945270  40.7783580  22.4495400  36.9636850  34.5945700
  21.5612100  37.3052820  34.4925580  22.7336590  36.7637170  33.7026530
  20.4128410  39.5642500  40.4785400  20.9844520  38.7964700  40.4789040
  20.4129950  39.8631260  39.5692010  30.2708360  48.3833350  38.3330670
  29.6519800  48.8390850  37.7625110  31.1260140  48.5384810  37.9320370
  29.4646610  44.3672340  39.9397710  29.3954890  43.4262280  39.7786840
  30.2266470  44.4573750  40.5120280  21.6553280  34.9726860  42.2654330
  21.4756120  34.0752610  42.5457090  21.2533360  35.5198730  42.9401280
  30.4951780  37.1742720  40.1666640  30.8716600  36.3014600  40.0540310
  30.3971290  37.5101420  39.2757080  24.6256790  35.5468350  35.6284080
  24.7323540  36.4472080  35.9352840  23.7149150  35.4986320  35.3378730
  34.2775900  34.6693160  37.0994980  35.0985520  34.1789730  37.1420460
  34.3109980  35.2590820  37.8526820  22.2739950  37.4687360  40.8736670
  22.9550060  37.7325730  41.4924070  21.9588000  36.6288230  41.2074680
  26.4664520  38.5154720  39.9609260  26.9742740  39.0135690  40.6014280
  26.9977760  37.7389920  39.7848620  24.7500620  33.1553280  44.2272680
  24.7519060  33.6725670  43.4218580  23.9204930  32.6783460  44.2042610
  31.1371710  43.2672590  35.7262580  30.5188980  43.7322040  35.1625300
  31.6494960  43.9600070  36.1432090  26.0003470  42.7948460  42.4046180
  25.6672850  43.4217380  43.0467250  26.1770150  43.3210340  41.6247850
  34.5137380  36.6093540  39.8722520  33.8092950  36.8978430  40.4525630
  34.8749540  37.4193650  39.5122080  24.4315950  34.8663240  42.2343130
  24.7732760  35.7105290  41.9397000  23.4931760  35.0146980  42.3508470
  25.2122570  44.7629260  44.2195360  25.8296570  45.4380340  43.9379810
  24.3515690  45.1717240  44.1282860  20.5054910  43.9529120  33.1002210
  20.1282890  44.4416220  32.3687110  20.7627980  44.6254400  33.7308740
  37.5824300  36.0548330  40.2631730  36.6349210  36.0887310  40.3947160
  37.9074290  36.8687280  40.6481090  28.1143840  32.3545510  38.5587720
  28.4218820  31.7992400  37.8423220  27.1844540  32.4889970  38.3760710
  33.6658900  48.0712800  40.8495180  33.6786060  47.6675090  39.9817440
  33.1134120  48.8460090  40.7456610  34.9604320  44.7929020  35.9385350
  34.8500650  43.8503350  36.0634770  34.9572570  45.1544660  36.8248110
  33.0644340  42.9742640  42.1777790  33.4813130  42.7602750  41.3431250
  33.7884160  43.2315430  42.7486410  30.5024600  40.4194340  35.2947840
  29.5753880  40.3531720  35.5236310  30.6549420  41.3574470  35.1803080
  30.4893680  36.6911340  32.2915000  29.5497350  36.8525300  32.3767460
  30.8076940  37.4097020  31.7450990  34.5321890  41.9814640  35.7983090
  33.9134310  41.6434190  35.1509390  34.5146340  41.3374400  36.5062280
  33.9748450  38.1599180  43.2148900  33.5619630  38.9852890  43.4688890
  33.2424400  37.5744220  43.0225260  26.1081240  40.9459080  38.0767570
  25.7038240  40.2336330  37.5813470  26.1944360  40.6012320  38.9655610
  26.5762940  44.6326640  40.2406780  26.2791230  44.0272110  39.5614560
  27.5262760  44.6703950  40.1296140  24.8209860  37.7202290  41.8566610
  25.3724450  37.8297630  41.0819860  25.3353370  38.0939890  42.5721840
  34.6648550  48.2058510  43.9029880  34.1879110  49.0130700  43.7102490
  33.9810340  47.5536840  44.0556090  25.6681370  44.3708330  46.8914580
  24.7709900  44.5948300  47.1387980  25.6934240  44.4943270  45.9425980
  32.7086590  41.2201450  32.8055840  33.1479870  40.3823880  32.6593660
  33.4215010  41.8530850  32.8919980  24.4952590  41.2421650  45.4671950
  24.3560360  42.1144450  45.8359350  23.6133950  40.8994460  45.3219890
  30.8181970  46.1597520  36.7737080  31.2577880  46.9021850  36.3592470
  30.7568860  46.4024090  37.6976040  26.2932940  47.1843350  47.6757100
  26.2648370  47.5886300  46.8085530  26.1297910  46.2553710  47.5128700
  36.2903730  32.4744260  31.1196880  35.9776390  32.5671090  32.0195950
  37.0516200  33.0525290  31.0694310  22.8085870  39.8404060  35.5774220
  22.6883470  40.5666150  34.9655490  22.4986760  39.0706970  35.1002130
  38.2447760  47.9670450  48.9721270  38.7207480  48.4453340  49.6510350
  38.8654920  47.8987940  48.2466770  20.4471240  43.0119200  41.3842860
  20.5251660  43.1467970  40.4398580  21.0612920  42.3035090  41.5770980
  21.6918870  44.7119390  37.7949040  21.2846950  44.8533980  36.9402640
  22.5831880  44.4279550  37.5920250  37.6481010  45.1583300  46.1321280
  37.7744070  44.9195180  45.2138460  37.6902390  44.3267840  46.6043360
  31.5097750  48.8611300  44.7016090  32.0242420  48.7719310  45.5038520
  30.6666830  49.2071000  44.9944000  33.4852150  49.1466640  34.1300090
  33.3253290  48.8569580  35.0281920  33.3198860  48.3706770  33.5945320
  25.9640530  48.9265170  35.9071710  25.7883010  48.0100710  35.6939510
  25.1096270  49.2852460  36.1469510  33.1878280  46.6554200  32.6898090
  32.4943440  46.6531490  32.0300370  33.9301140  46.2313520  32.2592260
  32.7528210  48.2816910  36.7646580  33.2085160  47.5006290  37.0785200
  33.0920730  48.9923730  37.3087760  37.5005020  37.2115760  47.0971020
  36.8849290  37.7195430  46.5686480  37.1801440  36.3114090  47.0396960
  20.5030760  44.0533370  43.9237320  20.6661800  43.5838730  43.1056690
  20.9683210  43.5456930  44.5886160  25.2749530  33.1839130  38.9597890
  24.8317680  33.9648670  38.6282410  25.8334520  33.5069020  39.6668830
  29.5619340  36.0507650  44.5633210  29.0998710  36.2590670  45.3753150
  29.1597450  35.2367000  44.2603880  34.5623850  37.2716600  45.6929870
  33.7117440  36.9722350  46.0138940  34.4025640  37.5158610  44.7813690
  31.6573560  38.7718350  47.7928660  31.9826970  37.9382100  47.4530890
  32.4453890  39.2946870  47.9406990  28.3908350  32.8049830  33.8403720
  27.7662530  32.8009700  34.5657030  28.3038470  31.9380790  33.4439690
  27.3125430  33.7286460  40.8187490  27.6097760  34.6349290  40.7379510
  27.8610990  33.2405240  40.2047060  25.0663750  38.3072700  36.6879140
  24.8404670  38.0909870  37.5925760  24.2856280  38.7401160  36.3425110
  32.2961510  38.3136070  35.2869790  31.6970400  39.0371870  35.1033410
  32.8441120  38.2512850  34.5046240  27.5062960  39.2058280  47.3539410
  27.4106560  38.2653010  47.2039810  28.3494940  39.4273350  46.9587480
  30.9026380  36.9499610  37.3173070  31.2955950  37.2671810  36.5041760
  31.2643230  36.0711490  37.4317590  22.6373500  35.6171950  45.5073190
  22.2436890  36.4647160  45.7145970  21.9491900  34.9798320  45.6981830
  29.2118550  35.7006920  48.5769930  28.5216870  35.5079120  49.2116020
  29.9550850  35.9841560  49.1094230  19.9390550  33.5400410  39.5403270
  19.6503600  34.1103270  40.2528250  20.6836310  33.0604860  39.9034500
  20.1260780  37.4820530  30.7505990  20.0435450  38.4251290  30.8920980
  19.7743840  37.3395440  29.8718340  31.4881520  39.5405360  41.4123850
  30.7562640  40.0492170  41.7613950  31.0905860  38.7235340  41.1112630
  27.9258910  36.2159560  39.8176340  27.9294970  35.7749510  38.9680880
  28.8210030  36.5376890  39.9248160  23.7761290  36.0986050  38.7770550
  23.4361340  36.5761280  39.5337600  23.0138610  35.6451170  38.4171650
  27.9879060  37.2171640  32.8083100  28.1091880  37.1758120  33.7568920
  27.6027570  38.0795790  32.6529830  31.9507430  34.9939040  40.8246790
  31.9680170  35.4447690  41.6688640  31.7023010  34.0944680  41.0380230
  27.0000560  39.5272780  32.2066400  26.4317460  39.0791030  31.5802310
  27.7089560  39.8865560  31.6731550  35.3778180  32.4071220  46.6633170
  35.7023950  31.6760880  47.1891150  35.4134690  32.0884860  45.7614160
  22.0769740  43.4284800  46.0833130  21.6924530  42.7878470  46.6816090
  22.3881930  44.1320920  46.6527860  28.2266880  40.2761340  41.5641750
  28.5937010  39.8019910  42.3103090  28.0371940  41.1502910  41.9050090
  21.0907370  35.0205030  37.6935220  20.8054290  34.6560700  38.5313840
  21.0286230  34.2885490  37.0798360  26.0166250  39.3169980  43.8825960
  25.7123320  40.1961960  44.1076320  26.9712710  39.3769770  43.9183400
  24.5448040  43.5230970  34.4792810  23.7710300  42.9828590  34.3191530
  25.2742670  43.0037580  34.1410570  30.7645960  33.9134290  34.4148590
  29.9510570  33.4147460  34.3393900  30.5707910  34.7532540  33.9984940
  30.6854820  42.5905390  46.1588200  30.6192130  41.6701060  45.9045790
  30.0559960  42.6880830  46.8732840  33.4794350  38.2853940  32.7110750
  34.3673970  38.5971170  32.5362090  33.4499440  37.4126190  32.3191330
  24.5885440  43.1911350  38.1171620  25.1064110  42.3879610  38.0628510
  24.1369460  43.1290490  38.9588450  29.4754940  44.4577630  33.3898920
  29.8170640  45.2019860  32.8942240  28.6467650  44.7708750  33.7523750
  22.0729980  40.1572720  45.0297320  21.7144920  40.8226570  45.6170660
  21.7784540  39.3256270  45.4009940  25.2743100  40.6156960  47.9136870
  24.9743240  40.7614140  47.0164690  26.0454340  40.0562250  47.8210260
  30.6171550  45.4125960  45.9092000  30.6316090  44.4806920  45.6910910
  29.9096650  45.4985720  46.5481770  35.7508620  39.5965780  32.1790610
  35.6672340  40.0280000  31.3287050  36.4702810  40.0564130  32.6117430
  36.8282760  42.0533300  45.2560580  36.1030950  42.6462080  45.0589970
  37.3558220  42.0456840  44.4573950  36.7795870  46.4508040  34.9072740
  36.1372030  45.7963660  35.1816460  36.3926530  46.8563130  34.1313410
  32.3582350  43.7793470  38.7544430  32.7106170  43.1821600  38.0945800
  31.4744680  43.4537700  38.9252680  28.4445630  44.5391160  36.1614840
  29.1316760  45.0860370  36.5422430  27.6578050  45.0831890  36.1964450
  20.5838030  40.1563980  31.6531920  21.4532880  40.4388780  31.9367840
  20.0928350  40.9699850  31.5380730  27.7472840  41.5437190  35.7740200
  28.2035620  42.3542440  36.0000390  27.3961050  41.2260330  36.6058690
  30.0505450  47.0543530  43.0032500  30.6947670  47.2602910  43.6805920
  30.4134890  46.2931930  42.5503350  23.6484620  31.8874840  36.2462720
  23.5199250  31.8792740  37.1947640  22.8246640  32.2257930  35.8953730
  31.3237530  45.0575880  41.7209950  31.9659760  44.3569040  41.8342120
  31.8486880  45.8374320  41.5406840  35.1693250  45.3424500  31.4449090
  34.9430830  44.6254940  32.0373730  34.7789450  45.0936940  30.6070840
  33.0975150  45.8570780  44.9246010  33.4331390  46.4437470  45.6023930
  32.1775490  45.7263490  45.1543800  20.9509280  49.3691360  32.2193550
  21.3106920  49.9680700  31.5650820  20.8101620  49.9151250  32.9928580
  20.6478550  33.6465960  45.7069420  19.9337070  33.8462880  46.3122030
  21.0673590  32.8705530  46.0784220  34.7509500  43.2596440  33.1063250
  34.4631200  43.7209130  33.8941130  35.5461670  42.7994210  33.3747470
  20.9351140  47.6346220  46.6935950  21.0442260  46.6940960  46.5531340
  20.2831700  47.9000970  46.0449680  28.9263730  45.9062110  48.0934070
  28.6060600  45.1871350  48.6379760  28.2522090  46.5817180  48.1670130
  26.9677900  46.7522560  33.0367220  26.9588000  47.4852250  32.4211730
  26.0476260  46.5054140  33.1294180  22.5684540  41.9737450  33.7813980
  21.9612490  42.7136350  33.7909280  23.0433890  42.0636810  32.9552180
  32.1417330  36.1388270  43.4570870  32.5098150  35.3183480  43.7850440
  31.2815530  36.1990160  43.8726520  35.5079360  35.0945210  34.2658430
  34.8792520  35.1990880  33.5516660  35.0131280  35.3141990  35.0552310
  29.9537500  46.8150800  31.6992410  30.0549480  46.6114790  30.7694390
  29.0539240  46.5609080  31.9040190  27.4763390  37.3731160  35.6816310
  26.7679540  37.8417500  36.1229920  27.7607870  36.7153170  36.3161500
  29.1019320  38.7927860  43.6808840  29.6004570  39.2673680  44.3460690
  29.2442270  37.8691380  43.8878870  31.5078820  34.0981820  37.1212100
  31.3846600  34.1167950  36.1721610  32.4563380  34.1460760  37.2410500
  28.5955610  49.3337120  36.3940080  28.8497110  49.2958510  35.4719450
  27.6468090  49.2070450  36.3868330  25.6798410  35.6816240  33.0567020
  26.5288940  36.1186390  32.9907210  25.3129680  35.9936500  33.8839080
  36.3086180  35.0095820  44.5237230  35.8059780  35.7501220  44.8631040
  37.1242840  35.3979820  44.2074020  34.6008190  40.2529000  37.9698590
  33.6598330  40.2679230  38.1446280  34.9152260  39.4664960  38.4158890
  24.5789830  41.9348600  31.5302550  25.3453100  41.8229960  32.0927980
  24.6564520  41.2386570  30.8779320  23.2736590  39.3673670  32.2135440
  23.3540180  38.4201180  32.3252840  24.1656340  39.6980550  32.3196100
  36.6033770  47.4237850  39.6452850  36.7281190  48.2469020  40.1176660
  37.4699330  47.2128580  39.2977000  24.0751300  49.5169060  39.3169980
  24.8113780  48.9684520  39.5878550  24.4592220  50.3825070  39.1775970
  20.9596780  45.5842630  35.1911490  20.0336560  45.8263770  35.1816900
  21.4253210  46.4116890  35.0696240  23.0809580  48.7015130  48.5055560
  23.8822310  49.0227180  48.9190960  22.5661400  48.3410710  49.2275470
  27.1853610  48.6899370  31.1395550  27.9782220  48.9788200  30.6877340
  26.6657960  48.2591540  30.4608030  31.9174210  44.8095000  48.4530970
  31.3112370  44.8326600  47.7126720  31.6128320  44.0778040  48.9898220
  33.3474580  48.5375290  47.0640380  34.2996330  48.4533310  47.0140620
  33.2002800  49.2017000  47.7374170  36.2383780  47.9169500  32.5632290
  35.9525290  47.5034640  31.7486470  36.0403330  48.8457210  32.4432810
  20.8007390  41.1888590  47.4491610  21.3046410  40.6095870  48.0207840
  20.0614810  41.4728820  47.9867980  27.7031010  43.9102780  31.0037900
  27.5981650  43.2955130  31.7299280  27.5355230  43.3868670  30.2200910
  27.8545330  42.5959580  46.9827130  27.0891000  43.1644580  46.8981800
  28.0361290  42.3035790  46.0895360  30.9433740  42.9722810  31.6079890
  30.3943840  43.4192110  32.2522630  31.5653000  42.4672060  32.1317560
  34.9968680  44.3264910  47.5402150  35.7378150  44.6640670  47.0369610
  34.2341360  44.4956970  46.9871920  22.8330470  39.3318180  48.3441680
  22.8735810  39.0332050  49.2526910  23.6875970  39.7325790  48.1849200
  26.6108860  41.9313730  33.5045190  27.0325280  41.7653600  34.3476580
  26.7359700  41.1213960  33.0100330  24.7736280  37.9110280  46.3116170
  24.2432740  37.4201230  45.6839510  25.4424350  38.3394480  45.7774100
  29.1236500  40.9551340  30.7522290  29.6442160  40.2400360  30.3863440
  29.7704900  41.5937210  31.0522800  33.6714340  42.3779740  46.0757360
  34.0855360  42.5324820  46.9247780  32.7365340  42.5034960  46.2383140
  34.1436510  39.7175900  48.0796510  34.7257280  38.9628220  47.9916990
  34.3198280  40.2483340  47.3027990  25.2608580  34.8772650  46.3913460
  25.1665450  34.2593400  45.6664330  24.6805970  35.6038940  46.1643370
  28.0270020  33.4345890  43.4240850  27.5787320  33.4570150  42.5786400
  27.3935220  33.0364910  44.0211150  28.4329570  42.3300220  44.0453290
  28.8517680  43.1732950  43.8729530  27.5138200  42.4672260  43.8160070
  30.7693470  40.0616400  45.4291130  30.8889680  39.4657540  46.1685970
  31.6287470  40.0986090  45.0092430  33.1081370  40.6153590  44.0053640
  32.5816590  41.1396210  43.4018780  33.4512710  41.2480980  44.6363370
  25.5067760  38.0046960  30.4503350  25.3056820  37.1414320  30.8116690
  25.3359810  37.9180320  29.5124950  26.2836990  48.6353230  45.1611020
  25.7458080  49.3599290  44.8419720  26.5370950  48.1583570  44.3708360
  27.5362240  36.6037750  46.6866950  28.1261930  36.2953600  47.3744770
  26.7182480  36.1317500  46.8426850  32.3555670  36.2203560  46.9199970
  31.6671190  35.5585100  46.8549960  33.0761690  35.7741830  47.3648430
  32.9856070  32.8155190  32.9790230  33.2658360  31.9723090  33.3349650
  32.2121800  33.0478300  33.4928980  24.3050560  35.1047580  30.4381230
  24.6076460  35.1115010  29.5300380  25.0445150  34.7545440  30.9348890
  29.1399200  49.8704440  45.4197670  29.0657900  50.7739580  45.7270040
  28.2378040  49.5516340  45.3919740  27.5235490  34.0482200  31.4237430
  27.1757490  33.3706190  30.8439880  27.7248260  33.5871710  32.2380820
  29.6884530  49.0362950  33.0424030  30.5835320  49.3747920  33.0642790
  29.7202160  48.3142360  32.4148310  23.3280690  44.4090000  31.2711030
  23.7655560  44.9519670  31.9268610  23.8128420  43.5836950  31.2807370
  20.5426490  47.1979030  38.7231290  20.8729500  46.3300090  38.4909930
  20.9717490  47.4037550  39.5536250  25.1388410  45.5288040  36.3833260
  24.8383950  45.4053010  37.2837170  25.0325900  44.6696630  35.9748990
  21.0316700  48.0649620  41.4612920  20.5947690  48.2450420  42.2937070
  21.5994380  48.8224240  41.3194640  36.6678880  47.5666620  45.7490230
  36.0680870  47.6259180  45.0054150  36.7972780  46.6271600  45.8787080
  37.9080330  45.3084440  31.0859940  37.0773290  45.3761090  31.5567170
  38.0852160  46.1988560  30.7826800  37.3636790  42.0531920  33.5894140
  38.1255700  42.6228570  33.6953830  37.3791160  41.4859120  34.3602450
  20.8641130  40.5769850  37.8201800  20.2089970  40.3081490  37.1761500
  21.7019080  40.4674330  37.3703780  38.3696760  42.9082020  38.4336070
  38.7405590  42.1249340  38.0272040  39.0098690  43.5971120  38.2553370
  37.4155960  42.3466290  30.7466660  37.6904800  43.2545170  30.6185880
  37.2266700  42.2828820  31.6828650  33.8131570  35.3711140  32.0420290
  34.2316450  35.1842120  31.2016950  33.5067630  34.5190190  32.3523220
  37.3121300  40.2835280  35.7396090  36.9364900  39.5163210  35.3077380
  36.5824420  40.6657980  36.2271020  21.9017060  40.9622420  42.3605140
  22.2690100  40.8749820  43.2401160  21.3327880  40.1988970  42.2612000
  21.4533060  37.8731510  46.2663560  20.5589110  37.8398270  46.6057270
  21.9930610  38.0718300  47.0314810  35.1408990  34.6563230  48.1515310
  36.0179170  34.6646630  48.5349310  35.1529830  33.9194070  47.5407660
  20.0779210  37.7868780  33.7627130  19.1743290  38.0498980  33.5878790
  20.5619830  38.0579950  32.9827090  36.5872260  38.5092770  39.0403330
  37.1109740  38.0155420  38.4093500  37.1731680  38.6443130  39.7850900
  22.6206420  36.8434320  31.6721510  23.3298120  36.4217540  31.1868790
  21.9046360  36.9109550  31.0404860  22.2680580  32.8973650  30.7124160
  22.9908710  33.4382590  31.0305380  22.5405100  32.6237070  29.8365700
  36.0772230  37.7666120  34.9795740  36.5731350  37.5336990  35.7644620
  35.8788300  36.9277960  34.5633380  21.9572770  32.1479840  40.6146780
  22.6048960  31.5977220  40.1741940  22.3774610  32.4022990  41.4362590
  37.5059390  36.4027070  37.5133420  37.3958670  36.2483110  38.4515690
  38.2666980  35.8748010  37.2708830  35.8525110  32.3421200  43.9716420
  36.4897330  32.9555340  44.3375610  36.0000000  32.3781860  43.0265650
  38.3949660  34.2334990  30.7539560  39.3198970  34.1016170  30.5457850
  38.3725450  34.3127810  31.7076010  38.4688150  35.0045650  33.3796270
  37.6739650  34.9390770  33.9089180  38.6731430  35.9396290  33.3681620
  35.4106570  49.0437200  37.3734660  36.0065640  48.7221770  36.6969080
  35.6684720  48.5709020  38.1647930  21.7104770  32.3035510  43.3572100
  21.3619590  32.7599330  44.1230280  21.3792470  31.4092640  43.4394530
  23.3169140  45.4755110  47.5225290  23.2738770  45.1048020  48.4039750
  23.4480150  46.4132680  47.6627110  27.0175170  47.0314700  43.1235010
  26.7766530  47.2989260  42.2365530  27.9577810  47.2020430  43.1785870
  29.2229590  33.4947390  46.8791520  29.1618480  34.0869220  47.6286930
  30.1629970  33.3873350  46.7341780  31.8604150  33.1517450  46.5183810
  32.4744560  33.4696740  45.8564890  32.4053710  32.6666040  47.1379670
  38.2779330  49.0509080  43.9245650  37.7837610  49.4477950  43.2072780
  37.6692620  48.4258290  44.3182930  22.3825410  31.8311710  46.6322870
  22.9308400  31.6499760  45.8688980  22.4480720  31.0405820  47.1679180
  23.1557170  48.4217360  44.6423070  22.5617490  48.2902060  45.3813110
  23.1481010  47.5855500  44.1765170  32.6012190  31.7149590  42.8453100
  31.7272030  32.0484700  42.6426030  32.4922940  31.2422770  43.6704970
  33.5084170  33.9220460  44.2294820  33.1797530  33.1072220  43.8496550
  34.4566470  33.8790270  44.1060510  35.9618780  49.6932500  41.2032390
  35.5021750  50.4448310  40.8290410  35.3331240  48.9738970  41.1447190
  22.7869400  45.7875740  43.5931110  22.0603460  45.1681030  43.5257060
  22.8478550  46.1816350  42.7229190  26.3914500  48.0020740  40.3780520
  26.9079520  47.3908100  39.8528780  27.0411880  48.5049520  40.8691530
  29.1310000  48.8929230  41.2049500  29.4187810  48.6383530  40.3282510
  29.6433220  48.3406590  41.7955070  30.3487010  32.6319430  41.7846010
  29.5658800  33.1064930  42.0642770  30.0549940  31.7274260  41.6759190
  34.9008080  33.3342530  39.8295100  35.3416170  33.2787630  38.9816700
  34.6315670  34.2500540  39.9005280  36.7646650  32.9657770  37.8403920
  36.7035050  32.0218990  37.6934940  37.5438680  33.0737860  38.3857380
  21.0699400  49.1050130  36.8027870  20.9021440  48.4720810  37.5009760
  20.2033910  49.3109530  36.4522060  21.6927420  32.9366910  34.3059730
  22.4506780  33.0495790  33.7323760  21.2304590  33.7736110  34.2603160
  28.2341230  35.0506180  37.2962040  27.4215740  34.6763070  36.9557920
  28.7382870  34.2951260  37.5983230  32.7366210  31.7148630  38.5345110
  33.3395580  32.2868840  39.0093630  31.9959200  32.2788070  38.3119010
  35.8800810  32.1170190  33.8085390  36.0751440  33.0153640  34.0752820
  35.0930680  31.8857270  34.3018340  22.6762100  47.7983360  34.2478010
  22.1509720  48.1791390  33.5439970  22.6006680  48.4234130  34.9687720
  24.0652570  33.4630960  32.8461700  24.5945330  32.6760760  32.7169650
  24.6980890  34.1422150  33.0797230  26.2590410  33.2006100  35.9007090
  25.6293150  32.4993410  36.0677220  25.7195550  33.9610230  35.6840250
  29.1982360  49.8145330  48.5717700  30.1249670  49.5789600  48.6153660
  29.1832790  50.6417330  48.0903730  37.4327420  49.3570900  35.5691950
  37.6079610  48.6708640  34.9252870  36.7348990  49.8817950  35.1768620
  26.3845970  32.4790080  48.3359580  26.1030240  32.9823680  47.5720400
  26.7665670  31.6811830  47.9701710  25.2755070  49.7465740  33.1227260
  26.0073890  49.4625020  32.5751150  25.5348740  49.5079020  34.0126640
  24.4369860  45.8630470  33.1273590  23.8078740  46.3315570  33.6759420
  24.5517690  45.0179690  33.5619780  32.9861430  31.8943660  48.9140050
  32.8726880  32.2138270  49.8091570  33.8031170  32.2956170  48.6177330
  35.7659920  49.0415190  48.3958740  36.5585240  48.5464420  48.1884700
  36.0593070  49.7205330  49.0034350  31.8919580  39.9136130  19.2774790
  31.8113630  38.9990740  19.0066500  31.4784000  40.4103200  18.5714500
  30.0237620  41.6915150  21.1584060  29.2479720  41.2115590  21.4482630
  30.6750550  41.0120800  20.9840220  24.0403450  42.0034960  22.0359820
  23.2088330  41.7483670  22.4356330  24.6484430  42.0745730  22.7717740
  34.0445050  46.0975340  19.9383190  33.5826580  45.3262580  20.2670360
  34.8570600  46.1241410  20.4435640  24.0204710  46.0375050  22.2317840
  24.3232750  45.1472790  22.0528060  24.7648300  46.5945270  22.0040090
  22.4495400  36.9636850  15.8202210  21.5612100  37.3052820  15.7182090
  22.7336590  36.7637170  14.9283040  20.4128410  39.5642500  21.7041910
  20.9844520  38.7964700  21.7045550  20.4129950  39.8631260  20.7948520
  30.2708360  48.3833350  19.5587180  29.6519800  48.8390850  18.9881620
  31.1260140  48.5384810  19.1576880  29.4646610  44.3672340  21.1654220
  29.3954890  43.4262280  21.0043350  30.2266470  44.4573750  21.7376790
  21.6553280  34.9726860  23.4910840  21.4756120  34.0752610  23.7713600
  21.2533360  35.5198730  24.1657790  30.4951780  37.1742720  21.3923150
  30.8716600  36.3014600  21.2796820  30.3971290  37.5101420  20.5013590
  24.6256790  35.5468350  16.8540590  24.7323540  36.4472080  17.1609350
  23.7149150  35.4986320  16.5635240  34.2775900  34.6693160  18.3251490
  35.0985520  34.1789730  18.3676970  34.3109980  35.2590820  19.0783330
  22.2739950  37.4687360  22.0993180  22.9550060  37.7325730  22.7180580
  21.9588000  36.6288230  22.4331190  26.4664520  38.5154720  21.1865770
  26.9742740  39.0135690  21.8270790  26.9977760  37.7389920  21.0105130
  38.5675450  36.6859910  24.8895120  37.8627620  37.0741620  24.3710230
  38.8333370  37.3810200  25.4916050  24.7500620  33.1553280  25.4529190
  24.7519060  33.6725670  24.6475090  23.9204930  32.6783460  25.4299120
  31.1371710  43.2672590  16.9519090  30.5188980  43.7322040  16.3881810
  31.6494960  43.9600070  17.3688600  26.0003470  42.7948460  23.6302690
  25.6672850  43.4217380  24.2723760  26.1770150  43.3210340  22.8504360
  34.5137380  36.6093540  21.0979030  33.8092950  36.8978430  21.6782140
  34.8749540  37.4193650  20.7378590  24.4315950  34.8663240  23.4599640
  24.7732760  35.7105290  23.1653510  23.4931760  35.0146980  23.5764980
  25.2122570  44.7629260  25.4451870  25.8296570  45.4380340  25.1636320
  24.3515690  45.1717240  25.3539370  20.5054910  43.9529120  14.3258720
  20.1282890  44.4416220  13.5943620  20.7627980  44.6254400  14.9565250
  36.1300160  46.2268670  23.3606510  35.4463680  46.8967780  23.3523180
  36.6694450  46.4249320  22.5951370  37.5824300  36.0548330  21.4888240
  36.6349210  36.0887310  21.6203670  37.9074290  36.8687280  21.8737600
  28.1143840  32.3545510  19.7844230  28.4218820  31.7992400  19.0679730
  27.1844540  32.4889970  19.6017220  33.6658900  48.0712800  22.0751690
  33.6786060  47.6675090  21.2073950  33.1134120  48.8460090  21.9713120
  34.9604320  44.7929020  17.1641860  34.8500650  43.8503350  17.2891280
  34.9572570  45.1544660  18.0504620  33.0644340  42.9742640  23.4034300
  33.4813130  42.7602750  22.5687760  33.7884160  43.2315430  23.9742920
  30.5024600  40.4194340  16.5204350  29.5753880  40.3531720  16.7492820
  30.6549420  41.3574470  16.4059590  30.4893680  36.6911340  13.5171510
  29.5497350  36.8525300  13.6023970  30.8076940  37.4097020  12.9707500
  37.0106440  41.3729860  23.4950540  36.1825070  41.4422950  23.0200670
  37.6056920  41.9584170  23.0266370  34.5321890  41.9814640  17.0239600
  33.9134310  41.6434190  16.3765900  34.5146340  41.3374400  17.7318790
  33.9748450  38.1599180  24.4405410  33.5619630  38.9852890  24.6945400
  33.2424400  37.5744220  24.2481770  26.1081240  40.9459080  19.3024080
  25.7038240  40.2336330  18.8069980  26.1944360  40.6012320  20.1912120
  26.5762940  44.6326640  21.4663290  26.2791230  44.0272110  20.7871070
  27.5262760  44.6703950  21.3552650  24.8209860  37.7202290  23.0823120
  25.3724450  37.8297630  22.3076370  25.3353370  38.0939890  23.7978350
  34.6648550  48.2058510  25.1286390  34.1879110  49.0130700  24.9359000
  33.9810340  47.5536840  25.2812600  25.6681370  44.3708330  28.1171090
  24.7709900  44.5948300  28.3644490  25.6934240  44.4943270  27.1682490
  32.7086590  41.2201450  14.0312350  33.1479870  40.3823880  13.8850170
  33.4215010  41.8530850  14.1176490  24.4952590  41.2421650  26.6928460
  24.3560360  42.1144450  27.0615860  23.6133950  40.8994460  26.5476400
  30.8181970  46.1597520  17.9993590  31.2577880  46.9021850  17.5848980
  30.7568860  46.4024090  18.9232550  26.2932940  47.1843350  28.9013610
  26.2648370  47.5886300  28.0342040  26.1297910  46.2553710  28.7385210
  36.2903730  32.4744260  12.3453390  35.9776390  32.5671090  13.2452460
  37.0516200  33.0525290  12.2950820  22.8085870  39.8404060  16.8030730
  22.6883470  40.5666150  16.1912000  22.4986760  39.0706970  16.3258640
  38.2447760  47.9670450  30.1977780  38.7207480  48.4453340  30.8766860
  38.8654920  47.8987940  29.4723280  20.4471240  43.0119200  22.6099370
  20.5251660  43.1467970  21.6655090  21.0612920  42.3035090  22.8027490
  21.6918870  44.7119390  19.0205550  21.2846950  44.8533980  18.1659150
  22.5831880  44.4279550  18.8176760  37.6481010  45.1583300  27.3577790
  37.7744070  44.9195180  26.4394970  37.6902390  44.3267840  27.8299870
  31.5097750  48.8611300  25.9272600  32.0242420  48.7719310  26.7295030
  30.6666830  49.2071000  26.2200510  33.4852150  49.1466640  15.3556600
  33.3253290  48.8569580  16.2538430  33.3198860  48.3706770  14.8201830
  25.9640530  48.9265170  17.1328220  25.7883010  48.0100710  16.9196020
  25.1096270  49.2852460  17.3726020  33.1878280  46.6554200  13.9154600
  32.4943440  46.6531490  13.2556880  33.9301140  46.2313520  13.4848770
  32.7528210  48.2816910  17.9903090  33.2085160  47.5006290  18.3041710
  33.0920730  48.9923730  18.5344270  37.5005020  37.2115760  28.3227530
  36.8849290  37.7195430  27.7942990  37.1801440  36.3114090  28.2653470
  20.5030760  44.0533370  25.1493830  20.6661800  43.5838730  24.3313200
  20.9683210  43.5456930  25.8142670  25.2749530  33.1839130  20.1854400
  24.8317680  33.9648670  19.8538920  25.8334520  33.5069020  20.8925340
  29.5619340  36.0507650  25.7889720  29.0998710  36.2590670  26.6009660
  29.1597450  35.2367000  25.4860390  34.5623850  37.2716600  26.9186380
  33.7117440  36.9722350  27.2395450  34.4025640  37.5158610  26.0070200
  31.6573560  38.7718350  29.0185170  31.9826970  37.9382100  28.6787400
  32.4453890  39.2946870  29.1663500  28.3908350  32.8049830  15.0660230
  27.7662530  32.8009700  15.7913540  28.3038470  31.9380790  14.6696200
  27.3125430  33.7286460  22.0444000  27.6097760  34.6349290  21.9636020
  27.8610990  33.2405240  21.4303570  25.0663750  38.3072700  17.9135650
  24.8404670  38.0909870  18.8182270  24.2856280  38.7401160  17.5681620
  32.2961510  38.3136070  16.5126300  31.6970400  39.0371870  16.3289920
  32.8441120  38.2512850  15.7302750  27.5062960  39.2058280  28.5795920
  27.4106560  38.2653010  28.4296320  28.3494940  39.4273350  28.1843990
  30.9026380  36.9499610  18.5429580  31.2955950  37.2671810  17.7298270
  31.2643230  36.0711490  18.6574100  22.6373500  35.6171950  26.7329700
  22.2436890  36.4647160  26.9402480  21.9491900  34.9798320  26.9238340
  29.2118550  35.7006920  29.8026440  28.5216870  35.5079120  30.4372530
  29.9550850  35.9841560  30.3350740  19.9390550  33.5400410  20.7659780
  19.6503600  34.1103270  21.4784760  20.6836310  33.0604860  21.1291010
  20.1260780  37.4820530  11.9762500  20.0435450  38.4251290  12.1177490
  19.7743840  37.3395440  11.0974850  31.4881520  39.5405360  22.6380360
  30.7562640  40.0492170  22.9870460  31.0905860  38.7235340  22.3369140
  27.9258910  36.2159560  21.0432850  27.9294970  35.7749510  20.1937390
  28.8210030  36.5376890  21.1504670  23.7761290  36.0986050  20.0027060
  23.4361340  36.5761280  20.7594110  23.0138610  35.6451170  19.6428160
  27.9879060  37.2171640  14.0339610  28.1091880  37.1758120  14.9825430
  27.6027570  38.0795790  13.8786340  31.9507430  34.9939040  22.0503300
  31.9680170  35.4447690  22.8945150  31.7023010  34.0944680  22.2636740
  27.0000560  39.5272780  13.4322910  26.4317460  39.0791030  12.8058820
  27.7089560  39.8865560  12.8988060  35.3778180  32.4071220  27.8889680
  35.7023950  31.6760880  28.4147660  35.4134690  32.0884860  26.9870670
  22.0769740  43.4284800  27.3089640  21.6924530  42.7878470  27.9072600
  22.3881930  44.1320920  27.8784370  28.2266880  40.2761340  22.7898260
  28.5937010  39.8019910  23.5359600  28.0371940  41.1502910  23.1306600
  21.0907370  35.0205030  18.9191730  20.8054290  34.6560700  19.7570350
  21.0286230  34.2885490  18.3054870  26.0166250  39.3169980  25.1082470
  25.7123320  40.1961960  25.3332830  26.9712710  39.3769770  25.1439910
  24.5448040  43.5230970  15.7049320  23.7710300  42.9828590  15.5448040
  25.2742670  43.0037580  15.3667080  35.3036020  42.5196330  21.4975710
  36.0235140  43.0151620  21.1071820  35.1017840  41.8414220  20.8529580
  30.7645960  33.9134290  15.6405100  29.9510570  33.4147460  15.5650410
  30.5707910  34.7532540  15.2241450  30.6854820  42.5905390  27.3844710
  30.6192130  41.6701060  27.1302300  30.0559960  42.6880830  28.0989350
  33.4794350  38.2853940  13.9367260  34.3673970  38.5971170  13.7618600
  33.4499440  37.4126190  13.5447840  24.5885440  43.1911350  19.3428130
  25.1064110  42.3879610  19.2885020  24.1369460  43.1290490  20.1844960
  29.4754940  44.4577630  14.6155430  29.8170640  45.2019860  14.1198750
  28.6467650  44.7708750  14.9780260  22.0729980  40.1572720  26.2553830
  21.7144920  40.8226570  26.8427170  21.7784540  39.3256270  26.6266450
  25.2743100  40.6156960  29.1393380  24.9743240  40.7614140  28.2421200
  26.0454340  40.0562250  29.0466770  30.6171550  45.4125960  27.1348510
  30.6316090  44.4806920  26.9167420  29.9096650  45.4985720  27.7738280
  35.7508620  39.5965780  13.4047120  35.6672340  40.0280000  12.5543560
  36.4702810  40.0564130  13.8373940  36.8282760  42.0533300  26.4817090
  36.1030950  42.6462080  26.2846480  37.3558220  42.0456840  25.6830460
  36.7795870  46.4508040  16.1329250  36.1372030  45.7963660  16.4072970
  36.3926530  46.8563130  15.3569920  32.3582350  43.7793470  19.9800940
  32.7106170  43.1821600  19.3202310  31.4744680  43.4537700  20.1509190
  28.4445630  44.5391160  17.3871350  29.1316760  45.0860370  17.7678940
  27.6578050  45.0831890  17.4220960  20.5838030  40.1563980  12.8788430
  21.4532880  40.4388780  13.1624350  20.0928350  40.9699850  12.7637240
  27.7472840  41.5437190  16.9996710  28.2035620  42.3542440  17.2256900
  27.3961050  41.2260330  17.8315200  30.0505450  47.0543530  24.2289010
  30.6947670  47.2602910  24.9062430  30.4134890  46.2931930  23.7759860
  23.6484620  31.8874840  17.4719230  23.5199250  31.8792740  18.4204150
  22.8246640  32.2257930  17.1210240  31.3237530  45.0575880  22.9466460
  31.9659760  44.3569040  23.0598630  31.8486880  45.8374320  22.7663350
  35.1693250  45.3424500  12.6705600  34.9430830  44.6254940  13.2630240
  34.7789450  45.0936940  11.8327350  33.0975150  45.8570780  26.1502520
  33.4331390  46.4437470  26.8280440  32.1775490  45.7263490  26.3800310
  20.9509280  49.3691360  13.4450060  21.3106920  49.9680700  12.7907330
  20.8101620  49.9151250  14.2185090  20.6478550  33.6465960  26.9325930
  19.9337070  33.8462880  27.5378540  21.0673590  32.8705530  27.3040730
  34.7509500  43.2596440  14.3319760  34.4631200  43.7209130  15.1197640
  35.5461670  42.7994210  14.6003980  20.9351140  47.6346220  27.9192460
  21.0442260  46.6940960  27.7787850  20.2831700  47.9000970  27.2706190
  28.9263730  45.9062110  29.3190580  28.6060600  45.1871350  29.8636270
  28.2522090  46.5817180  29.3926640  26.9677900  46.7522560  14.2623730
  26.9588000  47.4852250  13.6468240  26.0476260  46.5054140  14.3550690
  22.5684540  41.9737450  15.0070490  21.9612490  42.7136350  15.0165790
  23.0433890  42.0636810  14.1808690  32.1417330  36.1388270  24.6827380
  32.5098150  35.3183480  25.0106950  31.2815530  36.1990160  25.0983030
  35.5079360  35.0945210  15.4914940  34.8792520  35.1990880  14.7773170
  35.0131280  35.3141990  16.2808820  29.9537500  46.8150800  12.9248920
  30.0549480  46.6114790  11.9950900  29.0539240  46.5609080  13.1296700
  27.4763390  37.3731160  16.9072820  26.7679540  37.8417500  17.3486430
  27.7607870  36.7153170  17.5418010  29.1019320  38.7927860  24.9065350
  29.6004570  39.2673680  25.5717200  29.2442270  37.8691380  25.1135380
  31.5078820  34.0981820  18.3468610  31.3846600  34.1167950  17.3978120
  32.4563380  34.1460760  18.4667010  28.5955610  49.3337120  17.6196590
  28.8497110  49.2958510  16.6975960  27.6468090  49.2070450  17.6124840
  25.6798410  35.6816240  14.2823530  26.5288940  36.1186390  14.2163720
  25.3129680  35.9936500  15.1095590  36.3086180  35.0095820  25.7493740
  35.8059780  35.7501220  26.0887550  37.1242840  35.3979820  25.4330530
  34.6008190  40.2529000  19.1955100  33.6598330  40.2679230  19.3702790
  34.9152260  39.4664960  19.6415400  24.5789830  41.9348600  12.7559060
  25.3453100  41.8229960  13.3184490  24.6564520  41.2386570  12.1035830
  23.2736590  39.3673670  13.4391950  23.3540180  38.4201180  13.5509350
  24.1656340  39.6980550  13.5452610  36.6033770  47.4237850  20.8709360
  36.7281190  48.2469020  21.3433170  37.4699330  47.2128580  20.5233510
  24.0751300  49.5169060  20.5426490  24.8113780  48.9684520  20.8135060
  24.4592220  50.3825070  20.4032480  20.9596780  45.5842630  16.4168000
  20.0336560  45.8263770  16.4073410  21.4253210  46.4116890  16.2952750
  23.0809580  48.7015130  29.7312070  23.8822310  49.0227180  30.1447470
  22.5661400  48.3410710  30.4531980  27.1853610  48.6899370  12.3652060
  27.9782220  48.9788200  11.9133850  26.6657960  48.2591540  11.6864540
  31.9174210  44.8095000  29.6787480  31.3112370  44.8326600  28.9383230
  31.6128320  44.0778040  30.2154730  33.3474580  48.5375290  28.2896890
  34.2996330  48.4533310  28.2397130  33.2002800  49.2017000  28.9630680
  36.2383780  47.9169500  13.7888800  35.9525290  47.5034640  12.9742980
  36.0403330  48.8457210  13.6689320  20.8007390  41.1888590  28.6748120
  21.3046410  40.6095870  29.2464350  20.0614810  41.4728820  29.2124490
  27.7031010  43.9102780  12.2294410  27.5981650  43.2955130  12.9555790
  27.5355230  43.3868670  11.4457420  27.8545330  42.5959580  28.2083640
  27.0891000  43.1644580  28.1238310  28.0361290  42.3035790  27.3151870
  30.9433740  42.9722810  12.8336400  30.3943840  43.4192110  13.4779140
  31.5653000  42.4672060  13.3574070  34.9968680  44.3264910  28.7658660
  35.7378150  44.6640670  28.2626120  34.2341360  44.4956970  28.2128430
  22.8330470  39.3318180  29.5698190  22.8735810  39.0332050  30.4783420
  23.6875970  39.7325790  29.4105710  26.6108860  41.9313730  14.7301700
  27.0325280  41.7653600  15.5733090  26.7359700  41.1213960  14.2356840
  24.7736280  37.9110280  27.5372680  24.2432740  37.4201230  26.9096020
  25.4424350  38.3394480  27.0030610  29.1236500  40.9551340  11.9778800
  29.6442160  40.2400360  11.6119950  29.7704900  41.5937210  12.2779310
  33.6714340  42.3779740  27.3013870  34.0855360  42.5324820  28.1504290
  32.7365340  42.5034960  27.4639650  34.1436510  39.7175900  29.3053020
  34.7257280  38.9628220  29.2173500  34.3198280  40.2483340  28.5284500
  25.2608580  34.8772650  27.6169970  25.1665450  34.2593400  26.8920840
  24.6805970  35.6038940  27.3899880  28.0270020  33.4345890  24.6497360
  27.5787320  33.4570150  23.8042910  27.3935220  33.0364910  25.2467660
  28.4329570  42.3300220  25.2709800  28.8517680  43.1732950  25.0986040
  27.5138200  42.4672260  25.0416580  30.7693470  40.0616400  26.6547640
  30.8889680  39.4657540  27.3942480  31.6287470  40.0986090  26.2348940
  33.1081370  40.6153590  25.2310150  32.5816590  41.1396210  24.6275290
  33.4512710  41.2480980  25.8619880  25.5067760  38.0046960  11.6759860
  25.3056820  37.1414320  12.0373200  25.3359810  37.9180320  10.7381460
  26.2836990  48.6353230  26.3867530  25.7458080  49.3599290  26.0676230
  26.5370950  48.1583570  25.5964870  27.5362240  36.6037750  27.9123460
  28.1261930  36.2953600  28.6001280  26.7182480  36.1317500  28.0683360
  32.3555670  36.2203560  28.1456480  31.6671190  35.5585100  28.0806470
  33.0761690  35.7741830  28.5904940  32.9856070  32.8155190  14.2046740
  33.2658360  31.9723090  14.5606160  32.2121800  33.0478300  14.7185490
  24.3050560  35.1047580  11.6637740  24.6076460  35.1115010  10.7556890
  25.0445150  34.7545440  12.1605400  29.1399200  49.8704440  26.6454180
  29.0657900  50.7739580  26.9526550  28.2378040  49.5516340  26.6176250
  27.5235490  34.0482200  12.6493940  27.1757490  33.3706190  12.0696390
  27.7248260  33.5871710  13.4637330  29.6884530  49.0362950  14.2680540
  30.5835320  49.3747920  14.2899300  29.7202160  48.3142360  13.6404820
  23.3280690  44.4090000  12.4967540  23.7655560  44.9519670  13.1525120
  23.8128420  43.5836950  12.5063880  20.5426490  47.1979030  19.9487800
  20.8729500  46.3300090  19.7166440  20.9717490  47.4037550  20.7792760
  25.1388410  45.5288040  17.6089770  24.8383950  45.4053010  18.5093680
  25.0325900  44.6696630  17.2005500  21.0316700  48.0649620  22.6869430
  20.5947690  48.2450420  23.5193580  21.5994380  48.8224240  22.5451150
  36.6678880  47.5666620  26.9746740  36.0680870  47.6259180  26.2310660
  36.7972780  46.6271600  27.1043590  37.9080330  45.3084440  12.3116450
  37.0773290  45.3761090  12.7823680  38.0852160  46.1988560  12.0083310
  37.3636790  42.0531920  14.8150650  38.1255700  42.6228570  14.9210340
  37.3791160  41.4859120  15.5858960  20.8641130  40.5769850  19.0458310
  20.2089970  40.3081490  18.4018010  21.7019080  40.4674330  18.5960290
  38.3696760  42.9082020  19.6592580  38.7405590  42.1249340  19.2528550
  39.0098690  43.5971120  19.4809880  35.3530520  44.2918600  25.0722900
  34.5390360  44.7215760  25.3348690  35.7604720  44.9037010  24.4591950
  37.4155960  42.3466290  11.9723170  37.6904800  43.2545170  11.8442390
  37.2266700  42.2828820  12.9085160  33.8131570  35.3711140  13.2676800
  34.2316450  35.1842120  12.4273460  33.5067630  34.5190190  13.5779730
  37.3121300  40.2835280  16.9652600  36.9364900  39.5163210  16.5333890
  36.5824420  40.6657980  17.4527530  21.9017060  40.9622420  23.5861650
  22.2690100  40.8749820  24.4657670  21.3327880  40.1988970  23.4868510
  36.7020920  39.4306800  26.5992120  36.4707010  39.2019550  25.6990070
  36.9625470  40.3506350  26.5537010  21.4533060  37.8731510  27.4920070
  20.5589110  37.8398270  27.8313780  21.9930610  38.0718300  28.2571320
  35.1408990  34.6563230  29.3771820  36.0179170  34.6646630  29.7605820
  35.1529830  33.9194070  28.7664170  20.0779210  37.7868780  14.9883640
  19.1743290  38.0498980  14.8135300  20.5619830  38.0579950  14.2083600
  36.5872260  38.5092770  20.2659840  37.1109740  38.0155420  19.6350010
  37.1731680  38.6443130  21.0107410  36.7661980  38.5932640  23.7879390
  35.8164690  38.5596180  23.9024380  36.9474990  39.5032750  23.5529160
  22.6206420  36.8434320  12.8978020  23.3298120  36.4217540  12.4125300
  21.9046360  36.9109550  12.2661370  22.2680580  32.8973650  11.9380670
  22.9908710  33.4382590  12.2561890  22.5405100  32.6237070  11.0622210
  36.0772230  37.7666120  16.2052250  36.5731350  37.5336990  16.9901130
  35.8788300  36.9277960  15.7889890  21.9572770  32.1479840  21.8403290
  22.6048960  31.5977220  21.3998450  22.3774610  32.4022990  22.6619100
  37.5059390  36.4027070  18.7389930  37.3958670  36.2483110  19.6772200
  38.2666980  35.8748010  18.4965340  35.8525110  32.3421200  25.1972930
  36.4897330  32.9555340  25.5632120  36.0000000  32.3781860  24.2522160
  38.3949660  34.2334990  11.9796070  39.3198970  34.1016170  11.7714360
  38.3725450  34.3127810  12.9332520  38.4688150  35.0045650  14.6052780
  37.6739650  34.9390770  15.1345690  38.6731430  35.9396290  14.5938130
  35.4106570  49.0437200  18.5991170  36.0065640  48.7221770  17.9225590
  35.6684720  48.5709020  19.3904440  21.7104770  32.3035510  24.5828610
  21.3619590  32.7599330  25.3486790  21.3792470  31.4092640  24.6651040
  23.3169140  45.4755110  28.7481800  23.2738770  45.1048020  29.6296260
  23.4480150  46.4132680  28.8883620  27.0175170  47.0314700  24.3491520
  26.7766530  47.2989260  23.4622040  27.9577810  47.2020430  24.4042380
  29.2229590  33.4947390  28.1048030  29.1618480  34.0869220  28.8543440
  30.1629970  33.3873350  27.9598290  31.8604150  33.1517450  27.7440320
  32.4744560  33.4696740  27.0821400  32.4053710  32.6666040  28.3636180
  38.2779330  49.0509080  25.1502160  37.7837610  49.4477950  24.4329290
  37.6692620  48.4258290  25.5439440  22.3825410  31.8311710  27.8579380
  22.9308400  31.6499760  27.0945490  22.4480720  31.0405820  28.3935690
  23.1557170  48.4217360  25.8679580  22.5617490  48.2902060  26.6069620
  23.1481010  47.5855500  25.4021680  32.6012190  31.7149590  24.0709610
  31.7272030  32.0484700  23.8682540  32.4922940  31.2422770  24.8961480
  33.5084170  33.9220460  25.4551330  33.1797530  33.1072220  25.0753060
  34.4566470  33.8790270  25.3317020  35.9618780  49.6932500  22.4288900
  35.5021750  50.4448310  22.0546920  35.3331240  48.9738970  22.3703700
  22.7869400  45.7875740  24.8187620  22.0603460  45.1681030  24.7513570
  22.8478550  46.1816350  23.9485700  26.3914500  48.0020740  21.6037030
  26.9079520  47.3908100  21.0785290  27.0411880  48.5049520  22.0948040
  29.1310000  48.8929230  22.4306010  29.4187810  48.6383530  21.5539020
  29.6433220  48.3406590  23.0211580  30.3487010  32.6319430  23.0102520
  29.5658800  33.1064930  23.2899280  30.0549940  31.7274260  22.9015700
  34.9008080  33.3342530  21.0551610  35.3416170  33.2787630  20.2073210
  34.6315670  34.2500540  21.1261790  36.7646650  32.9657770  19.0660430
  36.7035050  32.0218990  18.9191450  37.5438680  33.0737860  19.6113890
  21.0699400  49.1050130  18.0284380  20.9021440  48.4720810  18.7266270
  20.2033910  49.3109530  17.6778570  21.6927420  32.9366910  15.5316240
  22.4506780  33.0495790  14.9580270  21.2304590  33.7736110  15.4859670
  28.2341230  35.0506180  18.5218550  27.4215740  34.6763070  18.1814430
  28.7382870  34.2951260  18.8239740  32.7366210  31.7148630  19.7601620
  33.3395580  32.2868840  20.2350140  31.9959200  32.2788070  19.5375520
  35.8800810  32.1170190  15.0341900  36.0751440  33.0153640  15.3009330
  35.0930680  31.8857270  15.5274850  22.6762100  47.7983360  15.4734520
  22.1509720  48.1791390  14.7696480  22.6006680  48.4234130  16.1944230
  24.0652570  33.4630960  14.0718210  24.5945330  32.6760760  13.9426160
  24.6980890  34.1422150  14.3053740  26.2590410  33.2006100  17.1263600
  25.6293150  32.4993410  17.2933730  25.7195550  33.9610230  16.9096760
  29.1982360  49.8145330  29.7974210  30.1249670  49.5789600  29.8410170
  29.1832790  50.6417330  29.3160240  37.4327420  49.3570900  16.7948460
  37.6079610  48.6708640  16.1509380  36.7348990  49.8817950  16.4025130
  26.3845970  32.4790080  29.5616090  26.1030240  32.9823680  28.7976910
  26.7665670  31.6811830  29.1958220  25.2755070  49.7465740  14.3483770
  26.0073890  49.4625020  13.8007660  25.5348740  49.5079020  15.2383150
  24.4369860  45.8630470  14.3530100  23.8078740  46.3315570  14.9015930
  24.5517690  45.0179690  14.7876290  32.9861430  31.8943660  30.1396560
  32.8726880  32.2138270  31.0348080  33.8031170  32.2956170  29.8433840
  35.7659920  49.0415190  29.6215250  36.5585240  48.5464420  29.4141210
  36.0593070  49.7205330  30.2290860  30.0237620  41.6915150   2.3840570
  29.2479720  41.2115590   2.6739140  30.6750550  41.0120800   2.2096730
  24.0403450  42.0034960   3.2616330  23.2088330  41.7483670   3.6612840
  24.6484430  42.0745730   3.9974250  24.0204710  46.0375050   3.4574350
  24.3232750  45.1472790   3.2784570  24.7648300  46.5945270   3.2296600
  20.4128410  39.5642500   2.9298420  20.9844520  38.7964700   2.9302060
  20.4129950  39.8631260   2.0205030  29.4646610  44.3672340   2.3910730
  29.3954890  43.4262280   2.2299860  30.2266470  44.4573750   2.9633300
  21.6553280  34.9726860   4.7167350  21.4756120  34.0752610   4.9970110
  21.2533360  35.5198730   5.3914300  30.4951780  37.1742720   2.6179660
  30.8716600  36.3014600   2.5053330  30.3971290  37.5101420   1.7270100
  22.2739950  37.4687360   3.3249690  22.9550060  37.7325730   3.9437090
  21.9588000  36.6288230   3.6587700  26.4664520  38.5154720   2.4122280
  26.9742740  39.0135690   3.0527300  26.9977760  37.7389920   2.2361640
  38.5675450  36.6859910   6.1151630  37.8627620  37.0741620   5.5966740
  38.8333370  37.3810200   6.7172560  24.7500620  33.1553280   6.6785700
  24.7519060  33.6725670   5.8731600  23.9204930  32.6783460   6.6555630
  26.0003470  42.7948460   4.8559200  25.6672850  43.4217380   5.4980270
  26.1770150  43.3210340   4.0760870  34.5137380  36.6093540   2.3235540
  33.8092950  36.8978430   2.9038650  34.8749540  37.4193650   1.9635100
  24.4315950  34.8663240   4.6856150  24.7732760  35.7105290   4.3910020
  23.4931760  35.0146980   4.8021490  25.2122570  44.7629260   6.6708380
  25.8296570  45.4380340   6.3892830  24.3515690  45.1717240   6.5795880
  36.1300160  46.2268670   4.5863020  35.4463680  46.8967780   4.5779690
  36.6694450  46.4249320   3.8207880  37.5824300  36.0548330   2.7144750
  36.6349210  36.0887310   2.8460180  37.9074290  36.8687280   3.0994110
  33.6658900  48.0712800   3.3008200  33.6786060  47.6675090   2.4330460
  33.1134120  48.8460090   3.1969630  33.0644340  42.9742640   4.6290810
  33.4813130  42.7602750   3.7944270  33.7884160  43.2315430   5.1999430
  37.0106440  41.3729860   4.7207050  36.1825070  41.4422950   4.2457180
  37.6056920  41.9584170   4.2522880  33.9748450  38.1599180   5.6661920
  33.5619630  38.9852890   5.9201910  33.2424400  37.5744220   5.4738280
  26.5762940  44.6326640   2.6919800  26.2791230  44.0272110   2.0127580
  27.5262760  44.6703950   2.5809160  24.8209860  37.7202290   4.3079630
  25.3724450  37.8297630   3.5332880  25.3353370  38.0939890   5.0234860
  34.6648550  48.2058510   6.3542900  34.1879110  49.0130700   6.1615510
  33.9810340  47.5536840   6.5069110  25.6681370  44.3708330   9.3427600
  24.7709900  44.5948300   9.5901000  25.6934240  44.4943270   8.3939000
  24.4952590  41.2421650   7.9184970  24.3560360  42.1144450   8.2872370
  23.6133950  40.8994460   7.7732910  26.2932940  47.1843350  10.1270120
  26.2648370  47.5886300   9.2598550  26.1297910  46.2553710   9.9641720
  38.2447760  47.9670450  11.4234290  38.7207480  48.4453340  12.1023370
  38.8654920  47.8987940  10.6979790  20.4471240  43.0119200   3.8355880
  20.5251660  43.1467970   2.8911600  21.0612920  42.3035090   4.0284000
  37.6481010  45.1583300   8.5834300  37.7744070  44.9195180   7.6651480
  37.6902390  44.3267840   9.0556380  31.5097750  48.8611300   7.1529110
  32.0242420  48.7719310   7.9551540  30.6666830  49.2071000   7.4457020
  37.5005020  37.2115760   9.5484040  36.8849290  37.7195430   9.0199500
  37.1801440  36.3114090   9.4909980  20.5030760  44.0533370   6.3750340
  20.6661800  43.5838730   5.5569710  20.9683210  43.5456930   7.0399180
  29.5619340  36.0507650   7.0146230  29.0998710  36.2590670   7.8266170
  29.1597450  35.2367000   6.7116900  34.5623850  37.2716600   8.1442890
  33.7117440  36.9722350   8.4651960  34.4025640  37.5158610   7.2326710
  31.6573560  38.7718350  10.2441680  31.9826970  37.9382100   9.9043910
  32.4453890  39.2946870  10.3920010  27.3125430  33.7286460   3.2700510
  27.6097760  34.6349290   3.1892530  27.8610990  33.2405240   2.6560080
  27.5062960  39.2058280   9.8052430  27.4106560  38.2653010   9.6552830
  28.3494940  39.4273350   9.4100500  22.6373500  35.6171950   7.9586210
  22.2436890  36.4647160   8.1658990  21.9491900  34.9798320   8.1494850
  29.2118550  35.7006920  11.0282950  28.5216870  35.5079120  11.6629040
  29.9550850  35.9841560  11.5607250  19.9390550  33.5400410   1.9916290
  19.6503600  34.1103270   2.7041270  20.6836310  33.0604860   2.3547520
  31.4881520  39.5405360   3.8636870  30.7562640  40.0492170   4.2126970
  31.0905860  38.7235340   3.5625650  27.9258910  36.2159560   2.2689360
  27.9294970  35.7749510   1.4193900  28.8210030  36.5376890   2.3761180
  31.9507430  34.9939040   3.2759810  31.9680170  35.4447690   4.1201660
  31.7023010  34.0944680   3.4893250  35.3778180  32.4071220   9.1146190
  35.7023950  31.6760880   9.6404170  35.4134690  32.0884860   8.2127180
  22.0769740  43.4284800   8.5346150  21.6924530  42.7878470   9.1329110
  22.3881930  44.1320920   9.1040880  28.2266880  40.2761340   4.0154770
  28.5937010  39.8019910   4.7616110  28.0371940  41.1502910   4.3563110
  26.0166250  39.3169980   6.3338980  25.7123320  40.1961960   6.5589340
  26.9712710  39.3769770   6.3696420  35.3036020  42.5196330   2.7232220
  36.0235140  43.0151620   2.3328330  35.1017840  41.8414220   2.0786090
  30.6854820  42.5905390   8.6101220  30.6192130  41.6701060   8.3558810
  30.0559960  42.6880830   9.3245860  22.0729980  40.1572720   7.4810340
  21.7144920  40.8226570   8.0683680  21.7784540  39.3256270   7.8522960
  25.2743100  40.6156960  10.3649890  24.9743240  40.7614140   9.4677710
  26.0454340  40.0562250  10.2723280  30.6171550  45.4125960   8.3605020
  30.6316090  44.4806920   8.1423930  29.9096650  45.4985720   8.9994790
  36.8282760  42.0533300   7.7073600  36.1030950  42.6462080   7.5102990
  37.3558220  42.0456840   6.9086970  30.0505450  47.0543530   5.4545520
  30.6947670  47.2602910   6.1318940  30.4134890  46.2931930   5.0016370
  31.3237530  45.0575880   4.1722970  31.9659760  44.3569040   4.2855140
  31.8486880  45.8374320   3.9919860  33.0975150  45.8570780   7.3759030
  33.4331390  46.4437470   8.0536950  32.1775490  45.7263490   7.6056820
  20.6478550  33.6465960   8.1582440  19.9337070  33.8462880   8.7635050
  21.0673590  32.8705530   8.5297240  20.9351140  47.6346220   9.1448970
  21.0442260  46.6940960   9.0044360  20.2831700  47.9000970   8.4962700
  28.9263730  45.9062110  10.5447090  28.6060600  45.1871350  11.0892780
  28.2522090  46.5817180  10.6183150  32.1417330  36.1388270   5.9083890
  32.5098150  35.3183480   6.2363460  31.2815530  36.1990160   6.3239540
  29.1019320  38.7927860   6.1321860  29.6004570  39.2673680   6.7973710
  29.2442270  37.8691380   6.3391890  36.3086180  35.0095820   6.9750250
  35.8059780  35.7501220   7.3144060  37.1242840  35.3979820   6.6587040
  36.6033770  47.4237850   2.0965870  36.7281190  48.2469020   2.5689680
  37.4699330  47.2128580   1.7490020  24.0751300  49.5169060   1.7683000
  24.8113780  48.9684520   2.0391570  24.4592220  50.3825070   1.6288990
  23.0809580  48.7015130  10.9568580  23.8822310  49.0227180  11.3703980
  22.5661400  48.3410710  11.6788490  31.9174210  44.8095000  10.9043990
  31.3112370  44.8326600  10.1639740  31.6128320  44.0778040  11.4411240
  33.3474580  48.5375290   9.5153400  34.2996330  48.4533310   9.4653640
  33.2002800  49.2017000  10.1887190  20.8007390  41.1888590   9.9004630
  21.3046410  40.6095870  10.4720860  20.0614810  41.4728820  10.4381000
  27.8545330  42.5959580   9.4340150  27.0891000  43.1644580   9.3494820
  28.0361290  42.3035790   8.5408380  34.9968680  44.3264910   9.9915170
  35.7378150  44.6640670   9.4882630  34.2341360  44.4956970   9.4384940
  22.8330470  39.3318180  10.7954700  22.8735810  39.0332050  11.7039930
  23.6875970  39.7325790  10.6362220  24.7736280  37.9110280   8.7629190
  24.2432740  37.4201230   8.1352530  25.4424350  38.3394480   8.2287120
  33.6714340  42.3779740   8.5270380  34.0855360  42.5324820   9.3760800
  32.7365340  42.5034960   8.6896160  34.1436510  39.7175900  10.5309530
  34.7257280  38.9628220  10.4430010  34.3198280  40.2483340   9.7541010
  25.2608580  34.8772650   8.8426480  25.1665450  34.2593400   8.1177350
  24.6805970  35.6038940   8.6156390  28.0270020  33.4345890   5.8753870
  27.5787320  33.4570150   5.0299420  27.3935220  33.0364910   6.4724170
  28.4329570  42.3300220   6.4966310  28.8517680  43.1732950   6.3242550
  27.5138200  42.4672260   6.2673090  30.7693470  40.0616400   7.8804150
  30.8889680  39.4657540   8.6198990  31.6287470  40.0986090   7.4605450
  33.1081370  40.6153590   6.4566660  32.5816590  41.1396210   5.8531800
  33.4512710  41.2480980   7.0876390  26.2836990  48.6353230   7.6124040
  25.7458080  49.3599290   7.2932740  26.5370950  48.1583570   6.8221380
  27.5362240  36.6037750   9.1379970  28.1261930  36.2953600   9.8257790
  26.7182480  36.1317500   9.2939870  32.3555670  36.2203560   9.3712990
  31.6671190  35.5585100   9.3062980  33.0761690  35.7741830   9.8161450
  29.1399200  49.8704440   7.8710690  29.0657900  50.7739580   8.1783060
  28.2378040  49.5516340   7.8432760  21.0316700  48.0649620   3.9125940
  20.5947690  48.2450420   4.7450090  21.5994380  48.8224240   3.7707660
  36.6678880  47.5666620   8.2003250  36.0680870  47.6259180   7.4567170
  36.7972780  46.6271600   8.3300100  35.3530520  44.2918600   6.2979410
  34.5390360  44.7215760   6.5605200  35.7604720  44.9037010   5.6848460
  21.9017060  40.9622420   4.8118160  22.2690100  40.8749820   5.6914180
  21.3327880  40.1988970   4.7125020  36.7020920  39.4306800   7.8248630
  36.4707010  39.2019550   6.9246580  36.9625470  40.3506350   7.7793520
  21.4533060  37.8731510   8.7176580  20.5589110  37.8398270   9.0570290
  21.9930610  38.0718300   9.4827830  35.1408990  34.6563230  10.6028330
  36.0179170  34.6646630  10.9862330  35.1529830  33.9194070   9.9920680
  36.7661980  38.5932640   5.0135900  35.8164690  38.5596180   5.1280890
  36.9474990  39.5032750   4.7785670  21.9572770  32.1479840   3.0659800
  22.6048960  31.5977220   2.6254960  22.3774610  32.4022990   3.8875610
  35.8525110  32.3421200   6.4229440  36.4897330  32.9555340   6.7888630
  36.0000000  32.3781860   5.4778670  21.7104770  32.3035510   5.8085120
  21.3619590  32.7599330   6.5743300  21.3792470  31.4092640   5.8907550
  23.3169140  45.4755110   9.9738310  23.2738770  45.1048020  10.8552770
  23.4480150  46.4132680  10.1140130  27.0175170  47.0314700   5.5748030
  26.7766530  47.2989260   4.6878550  27.9577810  47.2020430   5.6298890
  29.2229590  33.4947390   9.3304540  29.1618480  34.0869220  10.0799950
  30.1629970  33.3873350   9.1854800  31.8604150  33.1517450   8.9696830
  32.4744560  33.4696740   8.3077910  32.4053710  32.6666040   9.5892690
  38.2779330  49.0509080   6.3758670  37.7837610  49.4477950   5.6585800
  37.6692620  48.4258290   6.7695950  22.3825410  31.8311710   9.0835890
  22.9308400  31.6499760   8.3202000  22.4480720  31.0405820   9.6192200
  23.1557170  48.4217360   7.0936090  22.5617490  48.2902060   7.8326130
  23.1481010  47.5855500   6.6278190  32.6012190  31.7149590   5.2966120
  31.7272030  32.0484700   5.0939050  32.4922940  31.2422770   6.1217990
  33.5084170  33.9220460   6.6807840  33.1797530  33.1072220   6.3009570
  34.4566470  33.8790270   6.5573530  35.9618780  49.6932500   3.6545410
  35.5021750  50.4448310   3.2803430  35.3331240  48.9738970   3.5960210
  22.7869400  45.7875740   6.0444130  22.0603460  45.1681030   5.9770080
  22.8478550  46.1816350   5.1742210  26.3914500  48.0020740   2.8293540
  26.9079520  47.3908100   2.3041800  27.0411880  48.5049520   3.3204550
  29.1310000  48.8929230   3.6562520  29.4187810  48.6383530   2.7795530
  29.6433220  48.3406590   4.2468090  30.3487010  32.6319430   4.2359030
  29.5658800  33.1064930   4.5155790  30.0549940  31.7274260   4.1272210
  34.9008080  33.3342530   2.2808120  35.3416170  33.2787630   1.4329720
  34.6315670  34.2500540   2.3518300  29.1982360  49.8145330  11.0230720
  30.1249670  49.5789600  11.0666680  29.1832790  50.6417330  10.5416750
  26.3845970  32.4790080  10.7872600  26.1030240  32.9823680  10.0233420
  26.7665670  31.6811830  10.4214730  32.9861430  31.8943660  11.3653070
  32.8726880  32.2138270  12.2604590  33.8031170  32.2956170  11.0690350
  35.7659920  49.0415190  10.8471760  36.5585240  48.5464420  10.6397720
  36.0593070  49.7205330  11.4547370  31.8919580  21.1392640 150.6979220
  31.8113630  20.2247250 150.4270930  31.4784000  21.6359710 149.9918930
  30.0237620  22.9171660 152.5788490  29.2479720  22.4372100 152.8687060
  30.6750550  22.2377310 152.4044650  34.0445050  27.3231850 151.3587620
  33.5826580  26.5519090 151.6874790  34.8570600  27.3497920 151.8640070
  22.4495400  18.1893360 147.2406640  21.5612100  18.5309330 147.1386520
  22.7336590  17.9893680 146.3487470  20.4128410  20.7899010 153.1246340
  20.9844520  20.0221210 153.1249980  20.4129950  21.0887770 152.2152950
  30.2708360  29.6089860 150.9791610  29.6519800  30.0647360 150.4086050
  31.1260140  29.7641320 150.5781310  29.4646610  25.5928850 152.5858650
  29.3954890  24.6518790 152.4247780  30.2266470  25.6830260 153.1581220
  30.4951780  18.3999230 152.8127580  30.8716600  17.5271110 152.7001250
  30.3971290  18.7357930 151.9218020  24.6256790  16.7724860 148.2745020
  24.7323540  17.6728590 148.5813780  23.7149150  16.7242830 147.9839670
  34.2775900  15.8949670 149.7455920  35.0985520  15.4046240 149.7881400
  34.3109980  16.4847330 150.4987760  31.1371710  24.4929100 148.3723520
  30.5188980  24.9578550 147.8086240  31.6494960  25.1856580 148.7893030
  34.5137380  17.8350050 152.5183460  33.8092950  18.1234940 153.0986570
  34.8749540  18.6450160 152.1583020  20.5054910  25.1785630 145.7463150
  20.1282890  25.6672730 145.0148050  20.7627980  25.8510910 146.3769680
  28.1143840  13.5802020 151.2048660  28.4218820  13.0248910 150.4884160
  27.1844540  13.7146480 151.0221650  34.9604320  26.0185530 148.5846290
  34.8500650  25.0759860 148.7095710  34.9572570  26.3801170 149.4709050
  30.5024600  21.6450850 147.9408780  29.5753880  21.5788230 148.1697250
  30.6549420  22.5830980 147.8264020  30.4893680  17.9167850 144.9375940
  29.5497350  18.0781810 145.0228400  30.8076940  18.6353530 144.3911930
  34.5321890  23.2071150 148.4444030  33.9134310  22.8690700 147.7970330
  34.5146340  22.5630910 149.1523220  26.1081240  22.1715590 150.7228510
  25.7038240  21.4592840 150.2274410  26.1944360  21.8268830 151.6116550
  26.5762940  25.8583150 152.8867720  26.2791230  25.2528620 152.2075500
  27.5262760  25.8960460 152.7757080  32.7086590  22.4457960 145.4516780
  33.1479870  21.6080390 145.3054600  33.4215010  23.0787360 145.5380920
  30.8181970  27.3854030 149.4198020  31.2577880  28.1278360 149.0053410
  30.7568860  27.6280600 150.3436980  36.2903730  13.7000770 143.7657820
  35.9776390  13.7927600 144.6656890  37.0516200  14.2781800 143.7155250
  22.8085870  21.0660570 148.2235160  22.6883470  21.7922660 147.6116430
  22.4986760  20.2963480 147.7463070  21.6918870  25.9375900 150.4409980
  21.2846950  26.0790490 149.5863580  22.5831880  25.6536060 150.2381190
  33.4852150  30.3723150 146.7761030  33.3253290  30.0826090 147.6742860
  33.3198860  29.5963280 146.2406260  25.9640530  30.1521680 148.5532650
  25.7883010  29.2357220 148.3400450  25.1096270  30.5108970 148.7930450
  33.1878280  27.8810710 145.3359030  32.4943440  27.8788000 144.6761310
  33.9301140  27.4570030 144.9053200  32.7528210  29.5073420 149.4107520
  33.2085160  28.7262800 149.7246140  33.0920730  30.2180240 149.9548700
  25.2749530  14.4095640 151.6058830  24.8317680  15.1905180 151.2743350
  25.8334520  14.7325530 152.3129770  28.3908350  14.0306340 146.4864660
  27.7662530  14.0266210 147.2117970  28.3038470  13.1637300 146.0900630
  25.0663750  19.5329210 149.3340080  24.8404670  19.3166380 150.2386700
  24.2856280  19.9657670 148.9886050  32.2961510  19.5392580 147.9330730
  31.6970400  20.2628380 147.7494350  32.8441120  19.4769360 147.1507180
  30.9026380  18.1756120 149.9634010  31.2955950  18.4928320 149.1502700
  31.2643230  17.2968000 150.0778530  19.9390550  14.7656920 152.1864210
  19.6503600  15.3359780 152.8989190  20.6836310  14.2861370 152.5495440
  20.1260780  18.7077040 143.3966930  20.0435450  19.6507800 143.5381920
  19.7743840  18.5651950 142.5179280  27.9258910  17.4416070 152.4637280
  27.9294970  17.0006020 151.6141820  28.8210030  17.7633400 152.5709100
  23.7761290  17.3242560 151.4231490  23.4361340  17.8017790 152.1798540
  23.0138610  16.8707680 151.0632590  27.9879060  18.4428150 145.4544040
  28.1091880  18.4014630 146.4029860  27.6027570  19.3052300 145.2990770
  27.0000560  20.7529290 144.8527340  26.4317460  20.3047540 144.2263250
  27.7089560  21.1122070 144.3192490  21.0907370  16.2461540 150.3396160
  20.8054290  15.8817210 151.1774780  21.0286230  15.5142000 149.7259300
  24.5448040  24.7487480 147.1253750  23.7710300  24.2085100 146.9652470
  25.2742670  24.2294090 146.7871510  35.3036020  23.7452840 152.9180140
  36.0235140  24.2408130 152.5276250  35.1017840  23.0670730 152.2734010
  30.7645960  15.1390800 147.0609530  29.9510570  14.6403970 146.9854840
  30.5707910  15.9789050 146.6445880  33.4794350  19.5110450 145.3571690
  34.3673970  19.8227680 145.1823030  33.4499440  18.6382700 144.9652270
  24.5885440  24.4167860 150.7632560  25.1064110  23.6136120 150.7089450
  24.1369460  24.3547000 151.6049390  29.4754940  25.6834140 146.0359860
  29.8170640  26.4276370 145.5403180  28.6467650  25.9965260 146.3984690
  35.7508620  20.8222290 144.8251550  35.6672340  21.2536510 143.9747990
  36.4702810  21.2820640 145.2578370  36.7795870  27.6764550 147.5533680
  36.1372030  27.0220170 147.8277400  36.3926530  28.0819640 146.7774350
  32.3582350  25.0049980 151.4005370  32.7106170  24.4078110 150.7406740
  31.4744680  24.6794210 151.5713620  28.4445630  25.7647670 148.8075780
  29.1316760  26.3116880 149.1883370  27.6578050  26.3088400 148.8425390
  20.5838030  21.3820490 144.2992860  21.4532880  21.6645290 144.5828780
  20.0928350  22.1956360 144.1841670  27.7472840  22.7693700 148.4201140
  28.2035620  23.5798950 148.6461330  27.3961050  22.4516840 149.2519630
  23.6484620  13.1131350 148.8923660  23.5199250  13.1049250 149.8408580
  22.8246640  13.4514440 148.5414670  35.1693250  26.5681010 144.0910030
  34.9430830  25.8511450 144.6834670  34.7789450  26.3193450 143.2531780
  20.9509280  30.5947870 144.8654490  21.3106920  31.1937210 144.2111760
  20.8101620  31.1407760 145.6389520  34.7509500  24.4852950 145.7524190
  34.4631200  24.9465640 146.5402070  35.5461670  24.0250720 146.0208410
  26.9677900  27.9779070 145.6828160  26.9588000  28.7108760 145.0672670
  26.0476260  27.7310650 145.7755120  22.5684540  23.1993960 146.4274920
  21.9612490  23.9392860 146.4370220  23.0433890  23.2893320 145.6013120
  35.5079360  16.3201720 146.9119370  34.8792520  16.4247390 146.1977600
  35.0131280  16.5398500 147.7013250  29.9537500  28.0407310 144.3453350
  30.0549480  27.8371300 143.4155330  29.0539240  27.7865590 144.5501130
  27.4763390  18.5987670 148.3277250  26.7679540  19.0674010 148.7690860
  27.7607870  17.9409680 148.9622440  31.5078820  15.3238330 149.7673040
  31.3846600  15.3424460 148.8182550  32.4563380  15.3717270 149.8871440
  28.5955610  30.5593630 149.0401020  28.8497110  30.5215020 148.1180390
  27.6468090  30.4326960 149.0329270  25.6798410  16.9072750 145.7027960
  26.5288940  17.3442900 145.6368150  25.3129680  17.2193010 146.5300020
  34.6008190  21.4785510 150.6159530  33.6598330  21.4935740 150.7907220
  34.9152260  20.6921470 151.0619830  24.5789830  23.1605110 144.1763490
  25.3453100  23.0486470 144.7388920  24.6564520  22.4643080 143.5240260
  23.2736590  20.5930180 144.8596380  23.3540180  19.6457690 144.9713780
  24.1656340  20.9237060 144.9657040  36.6033770  28.6494360 152.2913790
  36.7281190  29.4725530 152.7637600  37.4699330  28.4385090 151.9437940
  24.0751300  30.7425570 151.9630920  24.8113780  30.1941030 152.2339490
  24.4592220  31.6081580 151.8236910  20.9596780  26.8099140 147.8372430
  20.0336560  27.0520280 147.8277840  21.4253210  27.6373400 147.7157180
  27.1853610  29.9155880 143.7856490  27.9782220  30.2044710 143.3338280
  26.6657960  29.4848050 143.1068970  36.2383780  29.1426010 145.2093230
  35.9525290  28.7291150 144.3947410  36.0403330  30.0713720 145.0893750
  27.7031010  25.1359290 143.6498840  27.5981650  24.5211640 144.3760220
  27.5355230  24.6125180 142.8661850  30.9433740  24.1979320 144.2540830
  30.3943840  24.6448620 144.8983570  31.5653000  23.6928570 144.7778500
  26.6108860  23.1570240 146.1506130  27.0325280  22.9910110 146.9937520
  26.7359700  22.3470470 145.6561270  29.1236500  22.1807850 143.3983230
  29.6442160  21.4656870 143.0324380  29.7704900  22.8193720 143.6983740
  25.5067760  19.2303470 143.0964290  25.3056820  18.3670830 143.4577630
  25.3359810  19.1436830 142.1585890  32.9856070  14.0411700 145.6251170
  33.2658360  13.1979600 145.9810590  32.2121800  14.2734810 146.1389920
  24.3050560  16.3304090 143.0842170  24.6076460  16.3371520 142.1761320
  25.0445150  15.9801950 143.5809830  27.5235490  15.2738710 144.0698370
  27.1757490  14.5962700 143.4900820  27.7248260  14.8128220 144.8841760
  29.6884530  30.2619460 145.6884970  30.5835320  30.6004430 145.7103730
  29.7202160  29.5398870 145.0609250  23.3280690  25.6346510 143.9171970
  23.7655560  26.1776180 144.5729550  23.8128420  24.8093460 143.9268310
  20.5426490  28.4235540 151.3692230  20.8729500  27.5556600 151.1370870
  20.9717490  28.6294060 152.1997190  25.1388410  26.7544550 149.0294200
  24.8383950  26.6309520 149.9298110  25.0325900  25.8953140 148.6209930
  37.9080330  26.5340950 143.7320880  37.0773290  26.6017600 144.2028110
  38.0852160  27.4245070 143.4287740  37.3636790  23.2788430 146.2355080
  38.1255700  23.8485080 146.3414770  37.3791160  22.7115630 147.0063390
  20.8641130  21.8026360 150.4662740  20.2089970  21.5338000 149.8222440
  21.7019080  21.6930840 150.0164720  38.3696760  24.1338530 151.0797010
  38.7405590  23.3505850 150.6732980  39.0098690  24.8227630 150.9014310
  37.4155960  23.5722800 143.3927600  37.6904800  24.4801680 143.2646820
  37.2266700  23.5085330 144.3289590  33.8131570  16.5967650 144.6881230
  34.2316450  16.4098630 143.8477890  33.5067630  15.7446700 144.9984160
  37.3121300  21.5091790 148.3857030  36.9364900  20.7419720 147.9538320
  36.5824420  21.8914490 148.8731960  20.0779210  19.0125290 146.4088070
  19.1743290  19.2755490 146.2339730  20.5619830  19.2836460 145.6288030
  36.5872260  19.7349280 151.6864270  37.1109740  19.2411930 151.0554440
  37.1731680  19.8699640 152.4311840  22.6206420  18.0690830 144.3182450
  23.3298120  17.6474050 143.8329730  21.9046360  18.1366060 143.6865800
  22.2680580  14.1230160 143.3585100  22.9908710  14.6639100 143.6766320
  22.5405100  13.8493580 142.4826640  36.0772230  18.9922630 147.6256680
  36.5731350  18.7593500 148.4105560  35.8788300  18.1534470 147.2094320
  37.5059390  17.6283580 150.1594360  37.3958670  17.4739620 151.0976630
  38.2666980  17.1004520 149.9169770  38.3949660  15.4591500 143.4000500
  39.3198970  15.3272680 143.1918790  38.3725450  15.5384320 144.3536950
  38.4688150  16.2302160 146.0257210  37.6739650  16.1647280 146.5550120
  38.6731430  17.1652800 146.0142560  35.4106570  30.2693710 150.0195600
  36.0065640  29.9478280 149.3430020  35.6684720  29.7965530 150.8108870
  34.9008080  14.5599040 152.4756040  35.3416170  14.5044140 151.6277640
  34.6315670  15.4757050 152.5466220  36.7646650  14.1914280 150.4864860
  36.7035050  13.2475500 150.3395880  37.5438680  14.2994370 151.0318320
  21.0699400  30.3306640 149.4488810  20.9021440  29.6977320 150.1470700
  20.2033910  30.5366040 149.0983000  21.6927420  14.1623420 146.9520670
  22.4506780  14.2752300 146.3784700  21.2304590  14.9992620 146.9064100
  28.2341230  16.2762690 149.9422980  27.4215740  15.9019580 149.6018860
  28.7382870  15.5207770 150.2444170  32.7366210  12.9405140 151.1806050
  33.3395580  13.5125350 151.6554570  31.9959200  13.5044580 150.9579950
  35.8800810  13.3426700 146.4546330  36.0751440  14.2410150 146.7213760
  35.0930680  13.1113780 146.9479280  22.6762100  29.0239870 146.8938950
  22.1509720  29.4047900 146.1900910  22.6006680  29.6490640 147.6148660
  24.0652570  14.6887470 145.4922640  24.5945330  13.9017270 145.3630590
  24.6980890  15.3678660 145.7258170  26.2590410  14.4262610 148.5468030
  25.6293150  13.7249920 148.7138160  25.7195550  15.1866740 148.3301190
  37.4327420  30.5827410 148.2152890  37.6079610  29.8965150 147.5713810
  36.7348990  31.1074460 147.8229560  25.2755070  30.9722250 145.7688200
  26.0073890  30.6881530 145.2212090  25.5348740  30.7335530 146.6587580
  24.4369860  27.0886980 145.7734530  23.8078740  27.5572080 146.3220360
  24.5517690  26.2436200 146.2080720  31.8919580  21.1392640 131.9235730
  31.8113630  20.2247250 131.6527440  31.4784000  21.6359710 131.2175440
  30.0237620  22.9171660 133.8045000  29.2479720  22.4372100 134.0943570
  30.6750550  22.2377310 133.6301160  24.0403450  23.2291470 134.6820760
  23.2088330  22.9740180 135.0817270  24.6484430  23.3002240 135.4178680
  34.0445050  27.3231850 132.5844130  33.5826580  26.5519090 132.9131300
  34.8570600  27.3497920 133.0896580  24.0204710  27.2631560 134.8778780
  24.3232750  26.3729300 134.6989000  24.7648300  27.8201780 134.6501030
  22.4495400  18.1893360 128.4663150  21.5612100  18.5309330 128.3643030
  22.7336590  17.9893680 127.5743980  20.4128410  20.7899010 134.3502850
  20.9844520  20.0221210 134.3506490  20.4129950  21.0887770 133.4409460
  30.2708360  29.6089860 132.2048120  29.6519800  30.0647360 131.6342560
  31.1260140  29.7641320 131.8037820  29.4646610  25.5928850 133.8115160
  29.3954890  24.6518790 133.6504290  30.2266470  25.6830260 134.3837730
  21.6553280  16.1983370 136.1371780  21.4756120  15.3009120 136.4174540
  21.2533360  16.7455240 136.8118730  30.4951780  18.3999230 134.0384090
  30.8716600  17.5271110 133.9257760  30.3971290  18.7357930 133.1474530
  24.6256790  16.7724860 129.5001530  24.7323540  17.6728590 129.8070290
  23.7149150  16.7242830 129.2096180  34.2775900  15.8949670 130.9712430
  35.0985520  15.4046240 131.0137910  34.3109980  16.4847330 131.7244270
  22.2739950  18.6943870 134.7454120  22.9550060  18.9582240 135.3641520
  21.9588000  17.8544740 135.0792130  26.4664520  19.7411230 133.8326710
  26.9742740  20.2392200 134.4731730  26.9977760  18.9646430 133.6566070
  38.5675450  17.9116420 137.5356060  37.8627620  18.2998130 137.0171170
  38.8333370  18.6066710 138.1376990  24.7500620  14.3809790 138.0990130
  24.7519060  14.8982180 137.2936030  23.9204930  13.9039970 138.0760060
  31.1371710  24.4929100 129.5980030  30.5188980  24.9578550 129.0342750
  31.6494960  25.1856580 130.0149540  26.0003470  24.0204970 136.2763630
  25.6672850  24.6473890 136.9184700  26.1770150  24.5466850 135.4965300
  34.5137380  17.8350050 133.7439970  33.8092950  18.1234940 134.3243080
  34.8749540  18.6450160 133.3839530  24.4315950  16.0919750 136.1060580
  24.7732760  16.9361800 135.8114450  23.4931760  16.2403490 136.2225920
  25.2122570  25.9885770 138.0912810  25.8296570  26.6636850 137.8097260
  24.3515690  26.3973750 138.0000310  20.5054910  25.1785630 126.9719660
  20.1282890  25.6672730 126.2404560  20.7627980  25.8510910 127.6026190
  36.1300160  27.4525180 136.0067450  35.4463680  28.1224290 135.9984120
  36.6694450  27.6505830 135.2412310  37.5824300  17.2804840 134.1349180
  36.6349210  17.3143820 134.2664610  37.9074290  18.0943790 134.5198540
  28.1143840  13.5802020 132.4305170  28.4218820  13.0248910 131.7140670
  27.1844540  13.7146480 132.2478160  33.6658900  29.2969310 134.7212630
  33.6786060  28.8931600 133.8534890  33.1134120  30.0716600 134.6174060
  34.9604320  26.0185530 129.8102800  34.8500650  25.0759860 129.9352220
  34.9572570  26.3801170 130.6965560  33.0644340  24.1999150 136.0495240
  33.4813130  23.9859260 135.2148700  33.7884160  24.4571940 136.6203860
  30.5024600  21.6450850 129.1665290  29.5753880  21.5788230 129.3953760
  30.6549420  22.5830980 129.0520530  30.4893680  17.9167850 126.1632450
  29.5497350  18.0781810 126.2484910  30.8076940  18.6353530 125.6168440
  37.0106440  22.5986370 136.1411480  36.1825070  22.6679460 135.6661610
  37.6056920  23.1840680 135.6727310  34.5321890  23.2071150 129.6700540
  33.9134310  22.8690700 129.0226840  34.5146340  22.5630910 130.3779730
  33.9748450  19.3855690 137.0866350  33.5619630  20.2109400 137.3406340
  33.2424400  18.8000730 136.8942710  26.1081240  22.1715590 131.9485020
  25.7038240  21.4592840 131.4530920  26.1944360  21.8268830 132.8373060
  26.5762940  25.8583150 134.1124230  26.2791230  25.2528620 133.4332010
  27.5262760  25.8960460 134.0013590  24.8209860  18.9458800 135.7284060
  25.3724450  19.0554140 134.9537310  25.3353370  19.3196400 136.4439290
  34.6648550  29.4315020 137.7747330  34.1879110  30.2387210 137.5819940
  33.9810340  28.7793350 137.9273540  25.6681370  25.5964840 140.7632030
  24.7709900  25.8204810 141.0105430  25.6934240  25.7199780 139.8143430
  32.7086590  22.4457960 126.6773290  33.1479870  21.6080390 126.5311110
  33.4215010  23.0787360 126.7637430  24.4952590  22.4678160 139.3389400
  24.3560360  23.3400960 139.7076800  23.6133950  22.1250970 139.1937340
  30.8181970  27.3854030 130.6454530  31.2577880  28.1278360 130.2309920
  30.7568860  27.6280600 131.5693490  26.2932940  28.4099860 141.5474550
  26.2648370  28.8142810 140.6802980  26.1297910  27.4810220 141.3846150
  36.2903730  13.7000770 124.9914330  35.9776390  13.7927600 125.8913400
  37.0516200  14.2781800 124.9411760  22.8085870  21.0660570 129.4491670
  22.6883470  21.7922660 128.8372940  22.4986760  20.2963480 128.9719580
  38.2447760  29.1926960 142.8438720  38.7207480  29.6709850 143.5227800
  38.8654920  29.1244450 142.1184220  20.4471240  24.2375710 135.2560310
  20.5251660  24.3724480 134.3116030  21.0612920  23.5291600 135.4488430
  21.6918870  25.9375900 131.6666490  21.2846950  26.0790490 130.8120090
  22.5831880  25.6536060 131.4637700  37.6481010  26.3839810 140.0038730
  37.7744070  26.1451690 139.0855910  37.6902390  25.5524350 140.4760810
  31.5097750  30.0867810 138.5733540  32.0242420  29.9975820 139.3755970
  30.6666830  30.4327510 138.8661450  33.4852150  30.3723150 128.0017540
  33.3253290  30.0826090 128.8999370  33.3198860  29.5963280 127.4662770
  25.9640530  30.1521680 129.7789160  25.7883010  29.2357220 129.5656960
  25.1096270  30.5108970 130.0186960  33.1878280  27.8810710 126.5615540
  32.4943440  27.8788000 125.9017820  33.9301140  27.4570030 126.1309710
  32.7528210  29.5073420 130.6364030  33.2085160  28.7262800 130.9502650
  33.0920730  30.2180240 131.1805210  37.5005020  18.4372270 140.9688470
  36.8849290  18.9451940 140.4403930  37.1801440  17.5370600 140.9114410
  20.5030760  25.2789880 137.7954770  20.6661800  24.8095240 136.9774140
  20.9683210  24.7713440 138.4603610  25.2749530  14.4095640 132.8315340
  24.8317680  15.1905180 132.4999860  25.8334520  14.7325530 133.5386280
  29.5619340  17.2764160 138.4350660  29.0998710  17.4847180 139.2470600
  29.1597450  16.4623510 138.1321330  34.5623850  18.4973110 139.5647320
  33.7117440  18.1978860 139.8856390  34.4025640  18.7415120 138.6531140
  31.6573560  19.9974860 141.6646110  31.9826970  19.1638610 141.3248340
  32.4453890  20.5203380 141.8124440  28.3908350  14.0306340 127.7121170
  27.7662530  14.0266210 128.4374480  28.3038470  13.1637300 127.3157140
  27.3125430  14.9542970 134.6904940  27.6097760  15.8605800 134.6096960
  27.8610990  14.4661750 134.0764510  25.0663750  19.5329210 130.5596590
  24.8404670  19.3166380 131.4643210  24.2856280  19.9657670 130.2142560
  32.2961510  19.5392580 129.1587240  31.6970400  20.2628380 128.9750860
  32.8441120  19.4769360 128.3763690  27.5062960  20.4314790 141.2256860
  27.4106560  19.4909520 141.0757260  28.3494940  20.6529860 140.8304930
  30.9026380  18.1756120 131.1890520  31.2955950  18.4928320 130.3759210
  31.2643230  17.2968000 131.3035040  22.6373500  16.8428460 139.3790640
  22.2436890  17.6903670 139.5863420  21.9491900  16.2054830 139.5699280
  29.2118550  16.9263430 142.4487380  28.5216870  16.7335630 143.0833470
  29.9550850  17.2098070 142.9811680  19.9390550  14.7656920 133.4120720
  19.6503600  15.3359780 134.1245700  20.6836310  14.2861370 133.7751950
  20.1260780  18.7077040 124.6223440  20.0435450  19.6507800 124.7638430
  19.7743840  18.5651950 123.7435790  31.4881520  20.7661870 135.2841300
  30.7562640  21.2748680 135.6331400  31.0905860  19.9491850 134.9830080
  27.9258910  17.4416070 133.6893790  27.9294970  17.0006020 132.8398330
  28.8210030  17.7633400 133.7965610  23.7761290  17.3242560 132.6488000
  23.4361340  17.8017790 133.4055050  23.0138610  16.8707680 132.2889100
  27.9879060  18.4428150 126.6800550  28.1091880  18.4014630 127.6286370
  27.6027570  19.3052300 126.5247280  31.9507430  16.2195550 134.6964240
  31.9680170  16.6704200 135.5406090  31.7023010  15.3201190 134.9097680
  27.0000560  20.7529290 126.0783850  26.4317460  20.3047540 125.4519760
  27.7089560  21.1122070 125.5449000  35.3778180  13.6327730 140.5350620
  35.7023950  12.9017390 141.0608600  35.4134690  13.3141370 139.6331610
  22.0769740  24.6541310 139.9550580  21.6924530  24.0134980 140.5533540
  22.3881930  25.3577430 140.5245310  28.2266880  21.5017850 135.4359200
  28.5937010  21.0276420 136.1820540  28.0371940  22.3759420 135.7767540
  21.0907370  16.2461540 131.5652670  20.8054290  15.8817210 132.4031290
  21.0286230  15.5142000 130.9515810  26.0166250  20.5426490 137.7543410
  25.7123320  21.4218470 137.9793770  26.9712710  20.6026280 137.7900850
  24.5448040  24.7487480 128.3510260  23.7710300  24.2085100 128.1908980
  25.2742670  24.2294090 128.0128020  35.3036020  23.7452840 134.1436650
  36.0235140  24.2408130 133.7532760  35.1017840  23.0670730 133.4990520
  30.7645960  15.1390800 128.2866040  29.9510570  14.6403970 128.2111350
  30.5707910  15.9789050 127.8702390  30.6854820  23.8161900 140.0305650
  30.6192130  22.8957570 139.7763240  30.0559960  23.9137340 140.7450290
  33.4794350  19.5110450 126.5828200  34.3673970  19.8227680 126.4079540
  33.4499440  18.6382700 126.1908780  24.5885440  24.4167860 131.9889070
  25.1064110  23.6136120 131.9345960  24.1369460  24.3547000 132.8305900
  29.4754940  25.6834140 127.2616370  29.8170640  26.4276370 126.7659690
  28.6467650  25.9965260 127.6241200  22.0729980  21.3829230 138.9014770
  21.7144920  22.0483080 139.4888110  21.7784540  20.5512780 139.2727390
  25.2743100  21.8413470 141.7854320  24.9743240  21.9870650 140.8882140
  26.0454340  21.2818760 141.6927710  30.6171550  26.6382470 139.7809450
  30.6316090  25.7063430 139.5628360  29.9096650  26.7242230 140.4199220
  35.7508620  20.8222290 126.0508060  35.6672340  21.2536510 125.2004500
  36.4702810  21.2820640 126.4834880  36.8282760  23.2789810 139.1278030
  36.1030950  23.8718590 138.9307420  37.3558220  23.2713350 138.3291400
  36.7795870  27.6764550 128.7790190  36.1372030  27.0220170 129.0533910
  36.3926530  28.0819640 128.0030860  32.3582350  25.0049980 132.6261880
  32.7106170  24.4078110 131.9663250  31.4744680  24.6794210 132.7970130
  28.4445630  25.7647670 130.0332290  29.1316760  26.3116880 130.4139880
  27.6578050  26.3088400 130.0681900  20.5838030  21.3820490 125.5249370
  21.4532880  21.6645290 125.8085290  20.0928350  22.1956360 125.4098180
  27.7472840  22.7693700 129.6457650  28.2035620  23.5798950 129.8717840
  27.3961050  22.4516840 130.4776140  30.0505450  28.2800040 136.8749950
  30.6947670  28.4859420 137.5523370  30.4134890  27.5188440 136.4220800
  23.6484620  13.1131350 130.1180170  23.5199250  13.1049250 131.0665090
  22.8246640  13.4514440 129.7671180  31.3237530  26.2832390 135.5927400
  31.9659760  25.5825550 135.7059570  31.8486880  27.0630830 135.4124290
  35.1693250  26.5681010 125.3166540  34.9430830  25.8511450 125.9091180
  34.7789450  26.3193450 124.4788290  33.0975150  27.0827290 138.7963460
  33.4331390  27.6693980 139.4741380  32.1775490  26.9520000 139.0261250
  20.9509280  30.5947870 126.0911000  21.3106920  31.1937210 125.4368270
  20.8101620  31.1407760 126.8646030  20.6478550  14.8722470 139.5786870
  19.9337070  15.0719390 140.1839480  21.0673590  14.0962040 139.9501670
  34.7509500  24.4852950 126.9780700  34.4631200  24.9465640 127.7658580
  35.5461670  24.0250720 127.2464920  20.9351140  28.8602730 140.5653400
  21.0442260  27.9197470 140.4248790  20.2831700  29.1257480 139.9167130
  28.9263730  27.1318620 141.9651520  28.6060600  26.4127860 142.5097210
  28.2522090  27.8073690 142.0387580  26.9677900  27.9779070 126.9084670
  26.9588000  28.7108760 126.2929180  26.0476260  27.7310650 127.0011630
  22.5684540  23.1993960 127.6531430  21.9612490  23.9392860 127.6626730
  23.0433890  23.2893320 126.8269630  32.1417330  17.3644780 137.3288320
  32.5098150  16.5439990 137.6567890  31.2815530  17.4246670 137.7443970
  35.5079360  16.3201720 128.1375880  34.8792520  16.4247390 127.4234110
  35.0131280  16.5398500 128.9269760  29.9537500  28.0407310 125.5709860
  30.0549480  27.8371300 124.6411840  29.0539240  27.7865590 125.7757640
  27.4763390  18.5987670 129.5533760  26.7679540  19.0674010 129.9947370
  27.7607870  17.9409680 130.1878950  29.1019320  20.0184370 137.5526290
  29.6004570  20.4930190 138.2178140  29.2442270  19.0947890 137.7596320
  31.5078820  15.3238330 130.9929550  31.3846600  15.3424460 130.0439060
  32.4563380  15.3717270 131.1127950  28.5955610  30.5593630 130.2657530
  28.8497110  30.5215020 129.3436900  27.6468090  30.4326960 130.2585780
  25.6798410  16.9072750 126.9284470  26.5288940  17.3442900 126.8624660
  25.3129680  17.2193010 127.7556530  36.3086180  16.2352330 138.3954680
  35.8059780  16.9757730 138.7348490  37.1242840  16.6236330 138.0791470
  34.6008190  21.4785510 131.8416040  33.6598330  21.4935740 132.0163730
  34.9152260  20.6921470 132.2876340  24.5789830  23.1605110 125.4020000
  25.3453100  23.0486470 125.9645430  24.6564520  22.4643080 124.7496770
  23.2736590  20.5930180 126.0852890  23.3540180  19.6457690 126.1970290
  24.1656340  20.9237060 126.1913550  36.6033770  28.6494360 133.5170300
  36.7281190  29.4725530 133.9894110  37.4699330  28.4385090 133.1694450
  24.0751300  30.7425570 133.1887430  24.8113780  30.1941030 133.4596000
  24.4592220  31.6081580 133.0493420  20.9596780  26.8099140 129.0628940
  20.0336560  27.0520280 129.0534350  21.4253210  27.6373400 128.9413690
  23.0809580  29.9271640 142.3773010  23.8822310  30.2483690 142.7908410
  22.5661400  29.5667220 143.0992920  27.1853610  29.9155880 125.0113000
  27.9782220  30.2044710 124.5594790  26.6657960  29.4848050 124.3325480
  31.9174210  26.0351510 142.3248420  31.3112370  26.0583110 141.5844170
  31.6128320  25.3034550 142.8615670  33.3474580  29.7631800 140.9357830
  34.2996330  29.6789820 140.8858070  33.2002800  30.4273510 141.6091620
  36.2383780  29.1426010 126.4349740  35.9525290  28.7291150 125.6203920
  36.0403330  30.0713720 126.3150260  20.8007390  22.4145100 141.3209060
  21.3046410  21.8352380 141.8925290  20.0614810  22.6985330 141.8585430
  27.7031010  25.1359290 124.8755350  27.5981650  24.5211640 125.6016730
  27.5355230  24.6125180 124.0918360  27.8545330  23.8216090 140.8544580
  27.0891000  24.3901090 140.7699250  28.0361290  23.5292300 139.9612810
  30.9433740  24.1979320 125.4797340  30.3943840  24.6448620 126.1240080
  31.5653000  23.6928570 126.0035010  34.9968680  25.5521420 141.4119600
  35.7378150  25.8897180 140.9087060  34.2341360  25.7213480 140.8589370
  22.8330470  20.5574690 142.2159130  22.8735810  20.2588560 143.1244360
  23.6875970  20.9582300 142.0566650  26.6108860  23.1570240 127.3762640
  27.0325280  22.9910110 128.2194030  26.7359700  22.3470470 126.8817780
  24.7736280  19.1366790 140.1833620  24.2432740  18.6457740 139.5556960
  25.4424350  19.5650990 139.6491550  29.1236500  22.1807850 124.6239740
  29.6442160  21.4656870 124.2580890  29.7704900  22.8193720 124.9240250
  33.6714340  23.6036250 139.9474810  34.0855360  23.7581330 140.7965230
  32.7365340  23.7291470 140.1100590  34.1436510  20.9432410 141.9513960
  34.7257280  20.1884730 141.8634440  34.3198280  21.4739850 141.1745440
  25.2608580  16.1029160 140.2630910  25.1665450  15.4849910 139.5381780
  24.6805970  16.8295450 140.0360820  28.0270020  14.6602400 137.2958300
  27.5787320  14.6826660 136.4503850  27.3935220  14.2621420 137.8928600
  28.4329570  23.5556730 137.9170740  28.8517680  24.3989460 137.7446980
  27.5138200  23.6928770 137.6877520  30.7693470  21.2872910 139.3008580
  30.8889680  20.6914050 140.0403420  31.6287470  21.3242600 138.8809880
  33.1081370  21.8410100 137.8771090  32.5816590  22.3652720 137.2736230
  33.4512710  22.4737490 138.5080820  25.5067760  19.2303470 124.3220800
  25.3056820  18.3670830 124.6834140  25.3359810  19.1436830 123.3842400
  26.2836990  29.8609740 139.0328470  25.7458080  30.5855800 138.7137170
  26.5370950  29.3840080 138.2425810  27.5362240  17.8294260 140.5584400
  28.1261930  17.5210110 141.2462220  26.7182480  17.3574010 140.7144300
  32.3555670  17.4460070 140.7917420  31.6671190  16.7841610 140.7267410
  33.0761690  16.9998340 141.2365880  32.9856070  14.0411700 126.8507680
  33.2658360  13.1979600 127.2067100  32.2121800  14.2734810 127.3646430
  24.3050560  16.3304090 124.3098680  24.6076460  16.3371520 123.4017830
  25.0445150  15.9801950 124.8066340  29.1399200  31.0960950 139.2915120
  29.0657900  31.9996090 139.5987490  28.2378040  30.7772850 139.2637190
  27.5235490  15.2738710 125.2954880  27.1757490  14.5962700 124.7157330
  27.7248260  14.8128220 126.1098270  29.6884530  30.2619460 126.9141480
  30.5835320  30.6004430 126.9360240  29.7202160  29.5398870 126.2865760
  23.3280690  25.6346510 125.1428480  23.7655560  26.1776180 125.7986060
  23.8128420  24.8093460 125.1524820  20.5426490  28.4235540 132.5948740
  20.8729500  27.5556600 132.3627380  20.9717490  28.6294060 133.4253700
  25.1388410  26.7544550 130.2550710  24.8383950  26.6309520 131.1554620
  25.0325900  25.8953140 129.8466440  21.0316700  29.2906130 135.3330370
  20.5947690  29.4706930 136.1654520  21.5994380  30.0480750 135.1912090
  36.6678880  28.7923130 139.6207680  36.0680870  28.8515690 138.8771600
  36.7972780  27.8528110 139.7504530  37.9080330  26.5340950 124.9577390
  37.0773290  26.6017600 125.4284620  38.0852160  27.4245070 124.6544250
  37.3636790  23.2788430 127.4611590  38.1255700  23.8485080 127.5671280
  37.3791160  22.7115630 128.2319900  20.8641130  21.8026360 131.6919250
  20.2089970  21.5338000 131.0478950  21.7019080  21.6930840 131.2421230
  38.3696760  24.1338530 132.3053520  38.7405590  23.3505850 131.8989490
  39.0098690  24.8227630 132.1270820  35.3530520  25.5175110 137.7183840
  34.5390360  25.9472270 137.9809630  35.7604720  26.1293520 137.1052890
  37.4155960  23.5722800 124.6184110  37.6904800  24.4801680 124.4903330
  37.2266700  23.5085330 125.5546100  33.8131570  16.5967650 125.9137740
  34.2316450  16.4098630 125.0734400  33.5067630  15.7446700 126.2240670
  37.3121300  21.5091790 129.6113540  36.9364900  20.7419720 129.1794830
  36.5824420  21.8914490 130.0988470  21.9017060  22.1878930 136.2322590
  22.2690100  22.1006330 137.1118610  21.3327880  21.4245480 136.1329450
  36.7020920  20.6563310 139.2453060  36.4707010  20.4276060 138.3451010
  36.9625470  21.5762860 139.1997950  21.4533060  19.0988020 140.1381010
  20.5589110  19.0654780 140.4774720  21.9930610  19.2974810 140.9032260
  35.1408990  15.8819740 142.0232760  36.0179170  15.8903140 142.4066760
  35.1529830  15.1450580 141.4125110  20.0779210  19.0125290 127.6344580
  19.1743290  19.2755490 127.4596240  20.5619830  19.2836460 126.8544540
  36.5872260  19.7349280 132.9120780  37.1109740  19.2411930 132.2810950
  37.1731680  19.8699640 133.6568350  36.7661980  19.8189150 136.4340330
  35.8164690  19.7852690 136.5485320  36.9474990  20.7289260 136.1990100
  22.6206420  18.0690830 125.5438960  23.3298120  17.6474050 125.0586240
  21.9046360  18.1366060 124.9122310  22.2680580  14.1230160 124.5841610
  22.9908710  14.6639100 124.9022830  22.5405100  13.8493580 123.7083150
  36.0772230  18.9922630 128.8513190  36.5731350  18.7593500 129.6362070
  35.8788300  18.1534470 128.4350830  21.9572770  13.3736350 134.4864230
  22.6048960  12.8233730 134.0459390  22.3774610  13.6279500 135.3080040
  37.5059390  17.6283580 131.3850870  37.3958670  17.4739620 132.3233140
  38.2666980  17.1004520 131.1426280  35.8525110  13.5677710 137.8433870
  36.4897330  14.1811850 138.2093060  36.0000000  13.6038370 136.8983100
  38.3949660  15.4591500 124.6257010  39.3198970  15.3272680 124.4175300
  38.3725450  15.5384320 125.5793460  38.4688150  16.2302160 127.2513720
  37.6739650  16.1647280 127.7806630  38.6731430  17.1652800 127.2399070
  35.4106570  30.2693710 131.2452110  36.0065640  29.9478280 130.5686530
  35.6684720  29.7965530 132.0365380  21.7104770  13.5292020 137.2289550
  21.3619590  13.9855840 137.9947730  21.3792470  12.6349150 137.3111980
  23.3169140  26.7011620 141.3942740  23.2738770  26.3304530 142.2757200
  23.4480150  27.6389190 141.5344560  27.0175170  28.2571210 136.9952460
  26.7766530  28.5245770 136.1082980  27.9577810  28.4276940 137.0503320
  29.2229590  14.7203900 140.7508970  29.1618480  15.3125730 141.5004380
  30.1629970  14.6129860 140.6059230  31.8604150  14.3773960 140.3901260
  32.4744560  14.6953250 139.7282340  32.4053710  13.8922550 141.0097120
  38.2779330  30.2765590 137.7963100  37.7837610  30.6734460 137.0790230
  37.6692620  29.6514800 138.1900380  22.3825410  13.0568220 140.5040320
  22.9308400  12.8756270 139.7406430  22.4480720  12.2662330 141.0396630
  23.1557170  29.6473870 138.5140520  22.5617490  29.5158570 139.2530560
  23.1481010  28.8112010 138.0482620  32.6012190  12.9406100 136.7170550
  31.7272030  13.2741210 136.5143480  32.4922940  12.4679280 137.5422420
  33.5084170  15.1476970 138.1012270  33.1797530  14.3328730 137.7214000
  34.4566470  15.1046780 137.9777960  35.9618780  30.9189010 135.0749840
  35.5021750  31.6704820 134.7007860  35.3331240  30.1995480 135.0164640
  22.7869400  27.0132250 137.4648560  22.0603460  26.3937540 137.3974510
  22.8478550  27.4072860 136.5946640  26.3914500  29.2277250 134.2497970
  26.9079520  28.6164610 133.7246230  27.0411880  29.7306030 134.7408980
  29.1310000  30.1185740 135.0766950  29.4187810  29.8640040 134.1999960
  29.6433220  29.5663100 135.6672520  30.3487010  13.8575940 135.6563460
  29.5658800  14.3321440 135.9360220  30.0549940  12.9530770 135.5476640
  34.9008080  14.5599040 133.7012550  35.3416170  14.5044140 132.8534150
  34.6315670  15.4757050 133.7722730  36.7646650  14.1914280 131.7121370
  36.7035050  13.2475500 131.5652390  37.5438680  14.2994370 132.2574830
  21.0699400  30.3306640 130.6745320  20.9021440  29.6977320 131.3727210
  20.2033910  30.5366040 130.3239510  21.6927420  14.1623420 128.1777180
  22.4506780  14.2752300 127.6041210  21.2304590  14.9992620 128.1320610
  28.2341230  16.2762690 131.1679490  27.4215740  15.9019580 130.8275370
  28.7382870  15.5207770 131.4700680  32.7366210  12.9405140 132.4062560
  33.3395580  13.5125350 132.8811080  31.9959200  13.5044580 132.1836460
  35.8800810  13.3426700 127.6802840  36.0751440  14.2410150 127.9470270
  35.0930680  13.1113780 128.1735790  22.6762100  29.0239870 128.1195460
  22.1509720  29.4047900 127.4157420  22.6006680  29.6490640 128.8405170
  24.0652570  14.6887470 126.7179150  24.5945330  13.9017270 126.5887100
  24.6980890  15.3678660 126.9514680  26.2590410  14.4262610 129.7724540
  25.6293150  13.7249920 129.9394670  25.7195550  15.1866740 129.5557700
  29.1982360  31.0401840 142.4435150  30.1249670  30.8046110 142.4871110
  29.1832790  31.8673840 141.9621180  37.4327420  30.5827410 129.4409400
  37.6079610  29.8965150 128.7970320  36.7348990  31.1074460 129.0486070
  26.3845970  13.7046590 142.2077030  26.1030240  14.2080190 141.4437850
  26.7665670  12.9068340 141.8419160  25.2755070  30.9722250 126.9944710
  26.0073890  30.6881530 126.4468600  25.5348740  30.7335530 127.8844090
  24.4369860  27.0886980 126.9991040  23.8078740  27.5572080 127.5476870
  24.5517690  26.2436200 127.4337230  32.9861430  13.1200170 142.7857500
  32.8726880  13.4394780 143.6809020  33.8031170  13.5212680 142.4894780
  35.7659920  30.2671700 142.2676190  36.5585240  29.7720930 142.0602150
  36.0593070  30.9461840 142.8751800  31.8919580  21.1392640 113.1492240
  31.8113630  20.2247250 112.8783950  31.4784000  21.6359710 112.4431950
  30.0237620  22.9171660 115.0301510  29.2479720  22.4372100 115.3200080
  30.6750550  22.2377310 114.8557670  24.0403450  23.2291470 115.9077270
  23.2088330  22.9740180 116.3073780  24.6484430  23.3002240 116.6435190
  34.0445050  27.3231850 113.8100640  33.5826580  26.5519090 114.1387810
  34.8570600  27.3497920 114.3153090  24.0204710  27.2631560 116.1035290
  24.3232750  26.3729300 115.9245510  24.7648300  27.8201780 115.8757540
  22.4495400  18.1893360 109.6919660  21.5612100  18.5309330 109.5899540
  22.7336590  17.9893680 108.8000490  20.4128410  20.7899010 115.5759360
  20.9844520  20.0221210 115.5763000  20.4129950  21.0887770 114.6665970
  30.2708360  29.6089860 113.4304630  29.6519800  30.0647360 112.8599070
  31.1260140  29.7641320 113.0294330  29.4646610  25.5928850 115.0371670
  29.3954890  24.6518790 114.8760800  30.2266470  25.6830260 115.6094240
  21.6553280  16.1983370 117.3628290  21.4756120  15.3009120 117.6431050
  21.2533360  16.7455240 118.0375240  30.4951780  18.3999230 115.2640600
  30.8716600  17.5271110 115.1514270  30.3971290  18.7357930 114.3731040
  24.6256790  16.7724860 110.7258040  24.7323540  17.6728590 111.0326800
  23.7149150  16.7242830 110.4352690  34.2775900  15.8949670 112.1968940
  35.0985520  15.4046240 112.2394420  34.3109980  16.4847330 112.9500780
  22.2739950  18.6943870 115.9710630  22.9550060  18.9582240 116.5898030
  21.9588000  17.8544740 116.3048640  26.4664520  19.7411230 115.0583220
  26.9742740  20.2392200 115.6988240  26.9977760  18.9646430 114.8822580
  38.5675450  17.9116420 118.7612570  37.8627620  18.2998130 118.2427680
  38.8333370  18.6066710 119.3633500  24.7500620  14.3809790 119.3246640
  24.7519060  14.8982180 118.5192540  23.9204930  13.9039970 119.3016570
  31.1371710  24.4929100 110.8236540  30.5188980  24.9578550 110.2599260
  31.6494960  25.1856580 111.2406050  26.0003470  24.0204970 117.5020140
  25.6672850  24.6473890 118.1441210  26.1770150  24.5466850 116.7221810
  34.5137380  17.8350050 114.9696480  33.8092950  18.1234940 115.5499590
  34.8749540  18.6450160 114.6096040  24.4315950  16.0919750 117.3317090
  24.7732760  16.9361800 117.0370960  23.4931760  16.2403490 117.4482430
  25.2122570  25.9885770 119.3169320  25.8296570  26.6636850 119.0353770
  24.3515690  26.3973750 119.2256820  20.5054910  25.1785630 108.1976170
  20.1282890  25.6672730 107.4661070  20.7627980  25.8510910 108.8282700
  36.1300160  27.4525180 117.2323960  35.4463680  28.1224290 117.2240630
  36.6694450  27.6505830 116.4668820  37.5824300  17.2804840 115.3605690
  36.6349210  17.3143820 115.4921120  37.9074290  18.0943790 115.7455050
  28.1143840  13.5802020 113.6561680  28.4218820  13.0248910 112.9397180
  27.1844540  13.7146480 113.4734670  33.6658900  29.2969310 115.9469140
  33.6786060  28.8931600 115.0791400  33.1134120  30.0716600 115.8430570
  34.9604320  26.0185530 111.0359310  34.8500650  25.0759860 111.1608730
  34.9572570  26.3801170 111.9222070  33.0644340  24.1999150 117.2751750
  33.4813130  23.9859260 116.4405210  33.7884160  24.4571940 117.8460370
  30.5024600  21.6450850 110.3921800  29.5753880  21.5788230 110.6210270
  30.6549420  22.5830980 110.2777040  30.4893680  17.9167850 107.3888960
  29.5497350  18.0781810 107.4741420  30.8076940  18.6353530 106.8424950
  37.0106440  22.5986370 117.3667990  36.1825070  22.6679460 116.8918120
  37.6056920  23.1840680 116.8983820  34.5321890  23.2071150 110.8957050
  33.9134310  22.8690700 110.2483350  34.5146340  22.5630910 111.6036240
  33.9748450  19.3855690 118.3122860  33.5619630  20.2109400 118.5662850
  33.2424400  18.8000730 118.1199220  26.1081240  22.1715590 113.1741530
  25.7038240  21.4592840 112.6787430  26.1944360  21.8268830 114.0629570
  26.5762940  25.8583150 115.3380740  26.2791230  25.2528620 114.6588520
  27.5262760  25.8960460 115.2270100  24.8209860  18.9458800 116.9540570
  25.3724450  19.0554140 116.1793820  25.3353370  19.3196400 117.6695800
  34.6648550  29.4315020 119.0003840  34.1879110  30.2387210 118.8076450
  33.9810340  28.7793350 119.1530050  25.6681370  25.5964840 121.9888540
  24.7709900  25.8204810 122.2361940  25.6934240  25.7199780 121.0399940
  32.7086590  22.4457960 107.9029800  33.1479870  21.6080390 107.7567620
  33.4215010  23.0787360 107.9893940  24.4952590  22.4678160 120.5645910
  24.3560360  23.3400960 120.9333310  23.6133950  22.1250970 120.4193850
  30.8181970  27.3854030 111.8711040  31.2577880  28.1278360 111.4566430
  30.7568860  27.6280600 112.7950000  26.2932940  28.4099860 122.7731060
  26.2648370  28.8142810 121.9059490  26.1297910  27.4810220 122.6102660
  36.2903730  13.7000770 106.2170840  35.9776390  13.7927600 107.1169910
  37.0516200  14.2781800 106.1668270  22.8085870  21.0660570 110.6748180
  22.6883470  21.7922660 110.0629450  22.4986760  20.2963480 110.1976090
  38.2447760  29.1926960 124.0695230  38.7207480  29.6709850 124.7484310
  38.8654920  29.1244450 123.3440730  20.4471240  24.2375710 116.4816820
  20.5251660  24.3724480 115.5372540  21.0612920  23.5291600 116.6744940
  21.6918870  25.9375900 112.8923000  21.2846950  26.0790490 112.0376600
  22.5831880  25.6536060 112.6894210  37.6481010  26.3839810 121.2295240
  37.7744070  26.1451690 120.3112420  37.6902390  25.5524350 121.7017320
  31.5097750  30.0867810 119.7990050  32.0242420  29.9975820 120.6012480
  30.6666830  30.4327510 120.0917960  33.4852150  30.3723150 109.2274050
  33.3253290  30.0826090 110.1255880  33.3198860  29.5963280 108.6919280
  25.9640530  30.1521680 111.0045670  25.7883010  29.2357220 110.7913470
  25.1096270  30.5108970 111.2443470  33.1878280  27.8810710 107.7872050
  32.4943440  27.8788000 107.1274330  33.9301140  27.4570030 107.3566220
  32.7528210  29.5073420 111.8620540  33.2085160  28.7262800 112.1759160
  33.0920730  30.2180240 112.4061720  37.5005020  18.4372270 122.1944980
  36.8849290  18.9451940 121.6660440  37.1801440  17.5370600 122.1370920
  20.5030760  25.2789880 119.0211280  20.6661800  24.8095240 118.2030650
  20.9683210  24.7713440 119.6860120  25.2749530  14.4095640 114.0571850
  24.8317680  15.1905180 113.7256370  25.8334520  14.7325530 114.7642790
  29.5619340  17.2764160 119.6607170  29.0998710  17.4847180 120.4727110
  29.1597450  16.4623510 119.3577840  34.5623850  18.4973110 120.7903830
  33.7117440  18.1978860 121.1112900  34.4025640  18.7415120 119.8787650
  31.6573560  19.9974860 122.8902620  31.9826970  19.1638610 122.5504850
  32.4453890  20.5203380 123.0380950  28.3908350  14.0306340 108.9377680
  27.7662530  14.0266210 109.6630990  28.3038470  13.1637300 108.5413650
  27.3125430  14.9542970 115.9161450  27.6097760  15.8605800 115.8353470
  27.8610990  14.4661750 115.3021020  25.0663750  19.5329210 111.7853100
  24.8404670  19.3166380 112.6899720  24.2856280  19.9657670 111.4399070
  32.2961510  19.5392580 110.3843750  31.6970400  20.2628380 110.2007370
  32.8441120  19.4769360 109.6020200  27.5062960  20.4314790 122.4513370
  27.4106560  19.4909520 122.3013770  28.3494940  20.6529860 122.0561440
  30.9026380  18.1756120 112.4147030  31.2955950  18.4928320 111.6015720
  31.2643230  17.2968000 112.5291550  22.6373500  16.8428460 120.6047150
  22.2436890  17.6903670 120.8119930  21.9491900  16.2054830 120.7955790
  29.2118550  16.9263430 123.6743890  28.5216870  16.7335630 124.3089980
  29.9550850  17.2098070 124.2068190  19.9390550  14.7656920 114.6377230
  19.6503600  15.3359780 115.3502210  20.6836310  14.2861370 115.0008460
  20.1260780  18.7077040 105.8479950  20.0435450  19.6507800 105.9894940
  19.7743840  18.5651950 104.9692300  31.4881520  20.7661870 116.5097810
  30.7562640  21.2748680 116.8587910  31.0905860  19.9491850 116.2086590
  27.9258910  17.4416070 114.9150300  27.9294970  17.0006020 114.0654840
  28.8210030  17.7633400 115.0222120  23.7761290  17.3242560 113.8744510
  23.4361340  17.8017790 114.6311560  23.0138610  16.8707680 113.5145610
  27.9879060  18.4428150 107.9057060  28.1091880  18.4014630 108.8542880
  27.6027570  19.3052300 107.7503790  31.9507430  16.2195550 115.9220750
  31.9680170  16.6704200 116.7662600  31.7023010  15.3201190 116.1354190
  27.0000560  20.7529290 107.3040360  26.4317460  20.3047540 106.6776270
  27.7089560  21.1122070 106.7705510  35.3778180  13.6327730 121.7607130
  35.7023950  12.9017390 122.2865110  35.4134690  13.3141370 120.8588120
  22.0769740  24.6541310 121.1807090  21.6924530  24.0134980 121.7790050
  22.3881930  25.3577430 121.7501820  28.2266880  21.5017850 116.6615710
  28.5937010  21.0276420 117.4077050  28.0371940  22.3759420 117.0024050
  21.0907370  16.2461540 112.7909180  20.8054290  15.8817210 113.6287800
  21.0286230  15.5142000 112.1772320  26.0166250  20.5426490 118.9799920
  25.7123320  21.4218470 119.2050280  26.9712710  20.6026280 119.0157360
  24.5448040  24.7487480 109.5766770  23.7710300  24.2085100 109.4165490
  25.2742670  24.2294090 109.2384530  35.3036020  23.7452840 115.3693160
  36.0235140  24.2408130 114.9789270  35.1017840  23.0670730 114.7247030
  30.7645960  15.1390800 109.5122550  29.9510570  14.6403970 109.4367860
  30.5707910  15.9789050 109.0958900  30.6854820  23.8161900 121.2562160
  30.6192130  22.8957570 121.0019750  30.0559960  23.9137340 121.9706800
  33.4794350  19.5110450 107.8084710  34.3673970  19.8227680 107.6336050
  33.4499440  18.6382700 107.4165290  24.5885440  24.4167860 113.2145580
  25.1064110  23.6136120 113.1602470  24.1369460  24.3547000 114.0562410
  29.4754940  25.6834140 108.4872880  29.8170640  26.4276370 107.9916200
  28.6467650  25.9965260 108.8497710  22.0729980  21.3829230 120.1271280
  21.7144920  22.0483080 120.7144620  21.7784540  20.5512780 120.4983900
  25.2743100  21.8413470 123.0110830  24.9743240  21.9870650 122.1138650
  26.0454340  21.2818760 122.9184220  30.6171550  26.6382470 121.0065960
  30.6316090  25.7063430 120.7884870  29.9096650  26.7242230 121.6455730
  35.7508620  20.8222290 107.2764570  35.6672340  21.2536510 106.4261010
  36.4702810  21.2820640 107.7091390  36.8282760  23.2789810 120.3534540
  36.1030950  23.8718590 120.1563930  37.3558220  23.2713350 119.5547910
  36.7795870  27.6764550 110.0046700  36.1372030  27.0220170 110.2790420
  36.3926530  28.0819640 109.2287370  32.3582350  25.0049980 113.8518390
  32.7106170  24.4078110 113.1919760  31.4744680  24.6794210 114.0226640
  28.4445630  25.7647670 111.2588800  29.1316760  26.3116880 111.6396390
  27.6578050  26.3088400 111.2938410  20.5838030  21.3820490 106.7505880
  21.4532880  21.6645290 107.0341800  20.0928350  22.1956360 106.6354690
  27.7472840  22.7693700 110.8714160  28.2035620  23.5798950 111.0974350
  27.3961050  22.4516840 111.7032650  30.0505450  28.2800040 118.1006460
  30.6947670  28.4859420 118.7779880  30.4134890  27.5188440 117.6477310
  23.6484620  13.1131350 111.3436680  23.5199250  13.1049250 112.2921600
  22.8246640  13.4514440 110.9927690  31.3237530  26.2832390 116.8183910
  31.9659760  25.5825550 116.9316080  31.8486880  27.0630830 116.6380800
  35.1693250  26.5681010 106.5423050  34.9430830  25.8511450 107.1347690
  34.7789450  26.3193450 105.7044800  33.0975150  27.0827290 120.0219970
  33.4331390  27.6693980 120.6997890  32.1775490  26.9520000 120.2517760
  20.9509280  30.5947870 107.3167510  21.3106920  31.1937210 106.6624780
  20.8101620  31.1407760 108.0902540  20.6478550  14.8722470 120.8043380
  19.9337070  15.0719390 121.4095990  21.0673590  14.0962040 121.1758180
  34.7509500  24.4852950 108.2037210  34.4631200  24.9465640 108.9915090
  35.5461670  24.0250720 108.4721430  20.9351140  28.8602730 121.7909910
  21.0442260  27.9197470 121.6505300  20.2831700  29.1257480 121.1423640
  28.9263730  27.1318620 123.1908030  28.6060600  26.4127860 123.7353720
  28.2522090  27.8073690 123.2644090  26.9677900  27.9779070 108.1341180
  26.9588000  28.7108760 107.5185690  26.0476260  27.7310650 108.2268140
  22.5684540  23.1993960 108.8787940  21.9612490  23.9392860 108.8883240
  23.0433890  23.2893320 108.0526140  32.1417330  17.3644780 118.5544830
  32.5098150  16.5439990 118.8824400  31.2815530  17.4246670 118.9700480
  35.5079360  16.3201720 109.3632390  34.8792520  16.4247390 108.6490620
  35.0131280  16.5398500 110.1526270  29.9537500  28.0407310 106.7966370
  30.0549480  27.8371300 105.8668350  29.0539240  27.7865590 107.0014150
  27.4763390  18.5987670 110.7790270  26.7679540  19.0674010 111.2203880
  27.7607870  17.9409680 111.4135460  29.1019320  20.0184370 118.7782800
  29.6004570  20.4930190 119.4434650  29.2442270  19.0947890 118.9852830
  31.5078820  15.3238330 112.2186060  31.3846600  15.3424460 111.2695570
  32.4563380  15.3717270 112.3384460  28.5955610  30.5593630 111.4914040
  28.8497110  30.5215020 110.5693410  27.6468090  30.4326960 111.4842290
  25.6798410  16.9072750 108.1540980  26.5288940  17.3442900 108.0881170
  25.3129680  17.2193010 108.9813040  36.3086180  16.2352330 119.6211190
  35.8059780  16.9757730 119.9605000  37.1242840  16.6236330 119.3047980
  34.6008190  21.4785510 113.0672550  33.6598330  21.4935740 113.2420240
  34.9152260  20.6921470 113.5132850  24.5789830  23.1605110 106.6276510
  25.3453100  23.0486470 107.1901940  24.6564520  22.4643080 105.9753280
  23.2736590  20.5930180 107.3109400  23.3540180  19.6457690 107.4226800
  24.1656340  20.9237060 107.4170060  36.6033770  28.6494360 114.7426810
  36.7281190  29.4725530 115.2150620  37.4699330  28.4385090 114.3950960
  24.0751300  30.7425570 114.4143940  24.8113780  30.1941030 114.6852510
  24.4592220  31.6081580 114.2749930  20.9596780  26.8099140 110.2885450
  20.0336560  27.0520280 110.2790860  21.4253210  27.6373400 110.1670200
  23.0809580  29.9271640 123.6029520  23.8822310  30.2483690 124.0164920
  22.5661400  29.5667220 124.3249430  27.1853610  29.9155880 106.2369510
  27.9782220  30.2044710 105.7851300  26.6657960  29.4848050 105.5581990
  31.9174210  26.0351510 123.5504930  31.3112370  26.0583110 122.8100680
  31.6128320  25.3034550 124.0872180  33.3474580  29.7631800 122.1614340
  34.2996330  29.6789820 122.1114580  33.2002800  30.4273510 122.8348130
  36.2383780  29.1426010 107.6606250  35.9525290  28.7291150 106.8460430
  36.0403330  30.0713720 107.5406770  20.8007390  22.4145100 122.5465570
  21.3046410  21.8352380 123.1181800  20.0614810  22.6985330 123.0841940
  27.7031010  25.1359290 106.1011860  27.5981650  24.5211640 106.8273240
  27.5355230  24.6125180 105.3174870  27.8545330  23.8216090 122.0801090
  27.0891000  24.3901090 121.9955760  28.0361290  23.5292300 121.1869320
  30.9433740  24.1979320 106.7053850  30.3943840  24.6448620 107.3496590
  31.5653000  23.6928570 107.2291520  34.9968680  25.5521420 122.6376110
  35.7378150  25.8897180 122.1343570  34.2341360  25.7213480 122.0845880
  22.8330470  20.5574690 123.4415640  22.8735810  20.2588560 124.3500870
  23.6875970  20.9582300 123.2823160  26.6108860  23.1570240 108.6019150
  27.0325280  22.9910110 109.4450540  26.7359700  22.3470470 108.1074290
  24.7736280  19.1366790 121.4090130  24.2432740  18.6457740 120.7813470
  25.4424350  19.5650990 120.8748060  29.1236500  22.1807850 105.8496250
  29.6442160  21.4656870 105.4837400  29.7704900  22.8193720 106.1496760
  33.6714340  23.6036250 121.1731320  34.0855360  23.7581330 122.0221740
  32.7365340  23.7291470 121.3357100  34.1436510  20.9432410 123.1770470
  34.7257280  20.1884730 123.0890950  34.3198280  21.4739850 122.4001950
  25.2608580  16.1029160 121.4887420  25.1665450  15.4849910 120.7638290
  24.6805970  16.8295450 121.2617330  28.0270020  14.6602400 118.5214810
  27.5787320  14.6826660 117.6760360  27.3935220  14.2621420 119.1185110
  28.4329570  23.5556730 119.1427250  28.8517680  24.3989460 118.9703490
  27.5138200  23.6928770 118.9134030  30.7693470  21.2872910 120.5265090
  30.8889680  20.6914050 121.2659930  31.6287470  21.3242600 120.1066390
  33.1081370  21.8410100 119.1027600  32.5816590  22.3652720 118.4992740
  33.4512710  22.4737490 119.7337330  25.5067760  19.2303470 105.5477310
  25.3056820  18.3670830 105.9090650  25.3359810  19.1436830 104.6098910
  26.2836990  29.8609740 120.2584980  25.7458080  30.5855800 119.9393680
  26.5370950  29.3840080 119.4682320  27.5362240  17.8294260 121.7840910
  28.1261930  17.5210110 122.4718730  26.7182480  17.3574010 121.9400810
  32.3555670  17.4460070 122.0173930  31.6671190  16.7841610 121.9523920
  33.0761690  16.9998340 122.4622390  32.9856070  14.0411700 108.0764190
  33.2658360  13.1979600 108.4323610  32.2121800  14.2734810 108.5902940
  24.3050560  16.3304090 105.5355190  24.6076460  16.3371520 104.6274340
  25.0445150  15.9801950 106.0322850  29.1399200  31.0960950 120.5171630
  29.0657900  31.9996090 120.8244000  28.2378040  30.7772850 120.4893700
  27.5235490  15.2738710 106.5211390  27.1757490  14.5962700 105.9413840
  27.7248260  14.8128220 107.3354780  29.6884530  30.2619460 108.1397990
  30.5835320  30.6004430 108.1616750  29.7202160  29.5398870 107.5122270
  23.3280690  25.6346510 106.3684990  23.7655560  26.1776180 107.0242570
  23.8128420  24.8093460 106.3781330  20.5426490  28.4235540 113.8205250
  20.8729500  27.5556600 113.5883890  20.9717490  28.6294060 114.6510210
  25.1388410  26.7544550 111.4807220  24.8383950  26.6309520 112.3811130
  25.0325900  25.8953140 111.0722950  21.0316700  29.2906130 116.5586880
  20.5947690  29.4706930 117.3911030  21.5994380  30.0480750 116.4168600
  36.6678880  28.7923130 120.8464190  36.0680870  28.8515690 120.1028110
  36.7972780  27.8528110 120.9761040  37.9080330  26.5340950 106.1833900
  37.0773290  26.6017600 106.6541130  38.0852160  27.4245070 105.8800760
  37.3636790  23.2788430 108.6868100  38.1255700  23.8485080 108.7927790
  37.3791160  22.7115630 109.4576410  20.8641130  21.8026360 112.9175760
  20.2089970  21.5338000 112.2735460  21.7019080  21.6930840 112.4677740
  38.3696760  24.1338530 113.5310030  38.7405590  23.3505850 113.1246000
  39.0098690  24.8227630 113.3527330  35.3530520  25.5175110 118.9440350
  34.5390360  25.9472270 119.2066140  35.7604720  26.1293520 118.3309400
  37.4155960  23.5722800 105.8440620  37.6904800  24.4801680 105.7159840
  37.2266700  23.5085330 106.7802610  33.8131570  16.5967650 107.1394250
  34.2316450  16.4098630 106.2990910  33.5067630  15.7446700 107.4497180
  37.3121300  21.5091790 110.8370050  36.9364900  20.7419720 110.4051340
  36.5824420  21.8914490 111.3244980  21.9017060  22.1878930 117.4579100
  22.2690100  22.1006330 118.3375120  21.3327880  21.4245480 117.3585960
  36.7020920  20.6563310 120.4709570  36.4707010  20.4276060 119.5707520
  36.9625470  21.5762860 120.4254460  21.4533060  19.0988020 121.3637520
  20.5589110  19.0654780 121.7031230  21.9930610  19.2974810 122.1288770
  35.1408990  15.8819740 123.2489270  36.0179170  15.8903140 123.6323270
  35.1529830  15.1450580 122.6381620  20.0779210  19.0125290 108.8601090
  19.1743290  19.2755490 108.6852750  20.5619830  19.2836460 108.0801050
  36.5872260  19.7349280 114.1377290  37.1109740  19.2411930 113.5067460
  37.1731680  19.8699640 114.8824860  36.7661980  19.8189150 117.6596840
  35.8164690  19.7852690 117.7741830  36.9474990  20.7289260 117.4246610
  22.6206420  18.0690830 106.7695470  23.3298120  17.6474050 106.2842750
  21.9046360  18.1366060 106.1378820  22.2680580  14.1230160 105.8098120
  22.9908710  14.6639100 106.1279340  22.5405100  13.8493580 104.9339660
  36.0772230  18.9922630 110.0769700  36.5731350  18.7593500 110.8618580
  35.8788300  18.1534470 109.6607340  21.9572770  13.3736350 115.7120740
  22.6048960  12.8233730 115.2715900  22.3774610  13.6279500 116.5336550
  37.5059390  17.6283580 112.6107380  37.3958670  17.4739620 113.5489650
  38.2666980  17.1004520 112.3682790  35.8525110  13.5677710 119.0690380
  36.4897330  14.1811850 119.4349570  36.0000000  13.6038370 118.1239610
  38.3949660  15.4591500 105.8513520  39.3198970  15.3272680 105.6431810
  38.3725450  15.5384320 106.8049970  38.4688150  16.2302160 108.4770230
  37.6739650  16.1647280 109.0063140  38.6731430  17.1652800 108.4655580
  35.4106570  30.2693710 112.4708620  36.0065640  29.9478280 111.7943040
  35.6684720  29.7965530 113.2621890  21.7104770  13.5292020 118.4546060
  21.3619590  13.9855840 119.2204240  21.3792470  12.6349150 118.5368490
  23.3169140  26.7011620 122.6199250  23.2738770  26.3304530 123.5013710
  23.4480150  27.6389190 122.7601070  27.0175170  28.2571210 118.2208970
  26.7766530  28.5245770 117.3339490  27.9577810  28.4276940 118.2759830
  29.2229590  14.7203900 121.9765480  29.1618480  15.3125730 122.7260890
  30.1629970  14.6129860 121.8315740  31.8604150  14.3773960 121.6157770
  32.4744560  14.6953250 120.9538850  32.4053710  13.8922550 122.2353630
  38.2779330  30.2765590 119.0219610  37.7837610  30.6734460 118.3046740
  37.6692620  29.6514800 119.4156890  22.3825410  13.0568220 121.7296830
  22.9308400  12.8756270 120.9662940  22.4480720  12.2662330 122.2653140
  23.1557170  29.6473870 119.7397030  22.5617490  29.5158570 120.4787070
  23.1481010  28.8112010 119.2739130  32.6012190  12.9406100 117.9427060
  31.7272030  13.2741210 117.7399990  32.4922940  12.4679280 118.7678930
  33.5084170  15.1476970 119.3268780  33.1797530  14.3328730 118.9470510
  34.4566470  15.1046780 119.2034470  35.9618780  30.9189010 116.3006350
  35.5021750  31.6704820 115.9264370  35.3331240  30.1995480 116.2421150
  22.7869400  27.0132250 118.6905070  22.0603460  26.3937540 118.6231020
  22.8478550  27.4072860 117.8203150  26.3914500  29.2277250 115.4754480
  26.9079520  28.6164610 114.9502740  27.0411880  29.7306030 115.9665490
  29.1310000  30.1185740 116.3023460  29.4187810  29.8640040 115.4256470
  29.6433220  29.5663100 116.8929030  30.3487010  13.8575940 116.8819970
  29.5658800  14.3321440 117.1616730  30.0549940  12.9530770 116.7733150
  34.9008080  14.5599040 114.9269060  35.3416170  14.5044140 114.0790660
  34.6315670  15.4757050 114.9979240  36.7646650  14.1914280 112.9377880
  36.7035050  13.2475500 112.7908900  37.5438680  14.2994370 113.4831340
  21.0699400  30.3306640 111.9001830  20.9021440  29.6977320 112.5983720
  20.2033910  30.5366040 111.5496020  21.6927420  14.1623420 109.4033690
  22.4506780  14.2752300 108.8297720  21.2304590  14.9992620 109.3577120
  28.2341230  16.2762690 112.3936000  27.4215740  15.9019580 112.0531880
  28.7382870  15.5207770 112.6957190  32.7366210  12.9405140 113.6319070
  33.3395580  13.5125350 114.1067590  31.9959200  13.5044580 113.4092970
  35.8800810  13.3426700 108.9059350  36.0751440  14.2410150 109.1726780
  35.0930680  13.1113780 109.3992300  22.6762100  29.0239870 109.3451970
  22.1509720  29.4047900 108.6413930  22.6006680  29.6490640 110.0661680
  24.0652570  14.6887470 107.9435660  24.5945330  13.9017270 107.8143610
  24.6980890  15.3678660 108.1771190  26.2590410  14.4262610 110.9981050
  25.6293150  13.7249920 111.1651180  25.7195550  15.1866740 110.7814210
  29.1982360  31.0401840 123.6691660  30.1249670  30.8046110 123.7127620
  29.1832790  31.8673840 123.1877690  37.4327420  30.5827410 110.6665910
  37.6079610  29.8965150 110.0226830  36.7348990  31.1074460 110.2742580
  26.3845970  13.7046590 123.4333540  26.1030240  14.2080190 122.6694360
  26.7665670  12.9068340 123.0675670  25.2755070  30.9722250 108.2201220
  26.0073890  30.6881530 107.6725110  25.5348740  30.7335530 109.1100600
  24.4369860  27.0886980 108.2247550  23.8078740  27.5572080 108.7733380
  24.5517690  26.2436200 108.6593740  32.9861430  13.1200170 124.0114010
  32.8726880  13.4394780 124.9065530  33.8031170  13.5212680 123.7151290
  35.7659920  30.2671700 123.4932700  36.5585240  29.7720930 123.2858660
  36.0593070  30.9461840 124.1008310  31.8919580  21.1392640  94.3748750
  31.8113630  20.2247250  94.1040460  31.4784000  21.6359710  93.6688460
  30.0237620  22.9171660  96.2558020  29.2479720  22.4372100  96.5456590
  30.6750550  22.2377310  96.0814180  24.0403450  23.2291470  97.1333780
  23.2088330  22.9740180  97.5330290  24.6484430  23.3002240  97.8691700
  34.0445050  27.3231850  95.0357150  33.5826580  26.5519090  95.3644320
  34.8570600  27.3497920  95.5409600  24.0204710  27.2631560  97.3291800
  24.3232750  26.3729300  97.1502020  24.7648300  27.8201780  97.1014050
  22.4495400  18.1893360  90.9176170  21.5612100  18.5309330  90.8156050
  22.7336590  17.9893680  90.0257000  20.4128410  20.7899010  96.8015870
  20.9844520  20.0221210  96.8019510  20.4129950  21.0887770  95.8922480
  30.2708360  29.6089860  94.6561140  29.6519800  30.0647360  94.0855580
  31.1260140  29.7641320  94.2550840  29.4646610  25.5928850  96.2628180
  29.3954890  24.6518790  96.1017310  30.2266470  25.6830260  96.8350750
  21.6553280  16.1983370  98.5884800  21.4756120  15.3009120  98.8687560
  21.2533360  16.7455240  99.2631750  30.4951780  18.3999230  96.4897110
  30.8716600  17.5271110  96.3770780  30.3971290  18.7357930  95.5987550
  24.6256790  16.7724860  91.9514550  24.7323540  17.6728590  92.2583310
  23.7149150  16.7242830  91.6609200  34.2775900  15.8949670  93.4225450
  35.0985520  15.4046240  93.4650930  34.3109980  16.4847330  94.1757290
  22.2739950  18.6943870  97.1967140  22.9550060  18.9582240  97.8154540
  21.9588000  17.8544740  97.5305150  26.4664520  19.7411230  96.2839730
  26.9742740  20.2392200  96.9244750  26.9977760  18.9646430  96.1079090
  38.5675450  17.9116420  99.9869080  37.8627620  18.2998130  99.4684190
  38.8333370  18.6066710 100.5890010  24.7500620  14.3809790 100.5503150
  24.7519060  14.8982180  99.7449050  23.9204930  13.9039970 100.5273080
  31.1371710  24.4929100  92.0493050  30.5188980  24.9578550  91.4855770
  31.6494960  25.1856580  92.4662560  26.0003470  24.0204970  98.7276650
  25.6672850  24.6473890  99.3697720  26.1770150  24.5466850  97.9478320
  34.5137380  17.8350050  96.1952990  33.8092950  18.1234940  96.7756100
  34.8749540  18.6450160  95.8352550  24.4315950  16.0919750  98.5573600
  24.7732760  16.9361800  98.2627470  23.4931760  16.2403490  98.6738940
  25.2122570  25.9885770 100.5425830  25.8296570  26.6636850 100.2610280
  24.3515690  26.3973750 100.4513330  20.5054910  25.1785630  89.4232680
  20.1282890  25.6672730  88.6917580  20.7627980  25.8510910  90.0539210
  36.1300160  27.4525180  98.4580470  35.4463680  28.1224290  98.4497140
  36.6694450  27.6505830  97.6925330  37.5824300  17.2804840  96.5862200
  36.6349210  17.3143820  96.7177630  37.9074290  18.0943790  96.9711560
  28.1143840  13.5802020  94.8818190  28.4218820  13.0248910  94.1653690
  27.1844540  13.7146480  94.6991180  33.6658900  29.2969310  97.1725650
  33.6786060  28.8931600  96.3047910  33.1134120  30.0716600  97.0687080
  34.9604320  26.0185530  92.2615820  34.8500650  25.0759860  92.3865240
  34.9572570  26.3801170  93.1478580  33.0644340  24.1999150  98.5008260
  33.4813130  23.9859260  97.6661720  33.7884160  24.4571940  99.0716880
  30.5024600  21.6450850  91.6178310  29.5753880  21.5788230  91.8466780
  30.6549420  22.5830980  91.5033550  30.4893680  17.9167850  88.6145470
  29.5497350  18.0781810  88.6997930  30.8076940  18.6353530  88.0681460
  37.0106440  22.5986370  98.5924500  36.1825070  22.6679460  98.1174630
  37.6056920  23.1840680  98.1240330  34.5321890  23.2071150  92.1213560
  33.9134310  22.8690700  91.4739860  34.5146340  22.5630910  92.8292750
  33.9748450  19.3855690  99.5379370  33.5619630  20.2109400  99.7919360
  33.2424400  18.8000730  99.3455730  26.1081240  22.1715590  94.3998040
  25.7038240  21.4592840  93.9043940  26.1944360  21.8268830  95.2886080
  26.5762940  25.8583150  96.5637250  26.2791230  25.2528620  95.8845030
  27.5262760  25.8960460  96.4526610  24.8209860  18.9458800  98.1797080
  25.3724450  19.0554140  97.4050330  25.3353370  19.3196400  98.8952310
  34.6648550  29.4315020 100.2260350  34.1879110  30.2387210 100.0332960
  33.9810340  28.7793350 100.3786560  25.6681370  25.5964840 103.2145050
  24.7709900  25.8204810 103.4618450  25.6934240  25.7199780 102.2656450
  32.7086590  22.4457960  89.1286310  33.1479870  21.6080390  88.9824130
  33.4215010  23.0787360  89.2150450  24.4952590  22.4678160 101.7902420
  24.3560360  23.3400960 102.1589820  23.6133950  22.1250970 101.6450360
  30.8181970  27.3854030  93.0967550  31.2577880  28.1278360  92.6822940
  30.7568860  27.6280600  94.0206510  26.2932940  28.4099860 103.9987570
  26.2648370  28.8142810 103.1316000  26.1297910  27.4810220 103.8359170
  36.2903730  13.7000770  87.4427350  35.9776390  13.7927600  88.3426420
  37.0516200  14.2781800  87.3924780  22.8085870  21.0660570  91.9004690
  22.6883470  21.7922660  91.2885960  22.4986760  20.2963480  91.4232600
  38.2447760  29.1926960 105.2951740  38.7207480  29.6709850 105.9740820
  38.8654920  29.1244450 104.5697240  20.4471240  24.2375710  97.7073330
  20.5251660  24.3724480  96.7629050  21.0612920  23.5291600  97.9001450
  21.6918870  25.9375900  94.1179510  21.2846950  26.0790490  93.2633110
  22.5831880  25.6536060  93.9150720  37.6481010  26.3839810 102.4551750
  37.7744070  26.1451690 101.5368930  37.6902390  25.5524350 102.9273830
  31.5097750  30.0867810 101.0246560  32.0242420  29.9975820 101.8268990
  30.6666830  30.4327510 101.3174470  33.4852150  30.3723150  90.4530560
  33.3253290  30.0826090  91.3512390  33.3198860  29.5963280  89.9175790
  25.9640530  30.1521680  92.2302180  25.7883010  29.2357220  92.0169980
  25.1096270  30.5108970  92.4699980  33.1878280  27.8810710  89.0128560
  32.4943440  27.8788000  88.3530840  33.9301140  27.4570030  88.5822730
  32.7528210  29.5073420  93.0877050  33.2085160  28.7262800  93.4015670
  33.0920730  30.2180240  93.6318230  37.5005020  18.4372270 103.4201490
  36.8849290  18.9451940 102.8916950  37.1801440  17.5370600 103.3627430
  20.5030760  25.2789880 100.2467790  20.6661800  24.8095240  99.4287160
  20.9683210  24.7713440 100.9116630  25.2749530  14.4095640  95.2828360
  24.8317680  15.1905180  94.9512880  25.8334520  14.7325530  95.9899300
  29.5619340  17.2764160 100.8863680  29.0998710  17.4847180 101.6983620
  29.1597450  16.4623510 100.5834350  34.5623850  18.4973110 102.0160340
  33.7117440  18.1978860 102.3369410  34.4025640  18.7415120 101.1044160
  31.6573560  19.9974860 104.1159130  31.9826970  19.1638610 103.7761360
  32.4453890  20.5203380 104.2637460  28.3908350  14.0306340  90.1634190
  27.7662530  14.0266210  90.8887500  28.3038470  13.1637300  89.7670160
  27.3125430  14.9542970  97.1417960  27.6097760  15.8605800  97.0609980
  27.8610990  14.4661750  96.5277530  25.0663750  19.5329210  93.0109610
  24.8404670  19.3166380  93.9156230  24.2856280  19.9657670  92.6655580
  32.2961510  19.5392580  91.6100260  31.6970400  20.2628380  91.4263880
  32.8441120  19.4769360  90.8276710  27.5062960  20.4314790 103.6769880
  27.4106560  19.4909520 103.5270280  28.3494940  20.6529860 103.2817950
  30.9026380  18.1756120  93.6403540  31.2955950  18.4928320  92.8272230
  31.2643230  17.2968000  93.7548060  22.6373500  16.8428460 101.8303660
  22.2436890  17.6903670 102.0376440  21.9491900  16.2054830 102.0212300
  29.2118550  16.9263430 104.9000400  28.5216870  16.7335630 105.5346490
  29.9550850  17.2098070 105.4324700  19.9390550  14.7656920  95.8633740
  19.6503600  15.3359780  96.5758720  20.6836310  14.2861370  96.2264970
  20.1260780  18.7077040  87.0736460  20.0435450  19.6507800  87.2151450
  19.7743840  18.5651950  86.1948810  31.4881520  20.7661870  97.7354320
  30.7562640  21.2748680  98.0844420  31.0905860  19.9491850  97.4343100
  27.9258910  17.4416070  96.1406810  27.9294970  17.0006020  95.2911350
  28.8210030  17.7633400  96.2478630  23.7761290  17.3242560  95.1001020
  23.4361340  17.8017790  95.8568070  23.0138610  16.8707680  94.7402120
  27.9879060  18.4428150  89.1313570  28.1091880  18.4014630  90.0799390
  27.6027570  19.3052300  88.9760300  31.9507430  16.2195550  97.1477260
  31.9680170  16.6704200  97.9919110  31.7023010  15.3201190  97.3610700
  27.0000560  20.7529290  88.5296870  26.4317460  20.3047540  87.9032780
  27.7089560  21.1122070  87.9962020  35.3778180  13.6327730 102.9863640
  35.7023950  12.9017390 103.5121620  35.4134690  13.3141370 102.0844630
  22.0769740  24.6541310 102.4063600  21.6924530  24.0134980 103.0046560
  22.3881930  25.3577430 102.9758330  28.2266880  21.5017850  97.8872220
  28.5937010  21.0276420  98.6333560  28.0371940  22.3759420  98.2280560
  21.0907370  16.2461540  94.0165690  20.8054290  15.8817210  94.8544310
  21.0286230  15.5142000  93.4028830  26.0166250  20.5426490 100.2056430
  25.7123320  21.4218470 100.4306790  26.9712710  20.6026280 100.2413870
  24.5448040  24.7487480  90.8023280  23.7710300  24.2085100  90.6422000
  25.2742670  24.2294090  90.4641040  35.3036020  23.7452840  96.5949670
  36.0235140  24.2408130  96.2045780  35.1017840  23.0670730  95.9503540
  30.7645960  15.1390800  90.7379060  29.9510570  14.6403970  90.6624370
  30.5707910  15.9789050  90.3215410  30.6854820  23.8161900 102.4818670
  30.6192130  22.8957570 102.2276260  30.0559960  23.9137340 103.1963310
  33.4794350  19.5110450  89.0341220  34.3673970  19.8227680  88.8592560
  33.4499440  18.6382700  88.6421800  24.5885440  24.4167860  94.4402090
  25.1064110  23.6136120  94.3858980  24.1369460  24.3547000  95.2818920
  29.4754940  25.6834140  89.7129390  29.8170640  26.4276370  89.2172710
  28.6467650  25.9965260  90.0754220  22.0729980  21.3829230 101.3527790
  21.7144920  22.0483080 101.9401130  21.7784540  20.5512780 101.7240410
  25.2743100  21.8413470 104.2367340  24.9743240  21.9870650 103.3395160
  26.0454340  21.2818760 104.1440730  30.6171550  26.6382470 102.2322470
  30.6316090  25.7063430 102.0141380  29.9096650  26.7242230 102.8712240
  35.7508620  20.8222290  88.5021080  35.6672340  21.2536510  87.6517520
  36.4702810  21.2820640  88.9347900  36.8282760  23.2789810 101.5791050
  36.1030950  23.8718590 101.3820440  37.3558220  23.2713350 100.7804420
  36.7795870  27.6764550  91.2303210  36.1372030  27.0220170  91.5046930
  36.3926530  28.0819640  90.4543880  32.3582350  25.0049980  95.0774900
  32.7106170  24.4078110  94.4176270  31.4744680  24.6794210  95.2483150
  28.4445630  25.7647670  92.4845310  29.1316760  26.3116880  92.8652900
  27.6578050  26.3088400  92.5194920  20.5838030  21.3820490  87.9762390
  21.4532880  21.6645290  88.2598310  20.0928350  22.1956360  87.8611200
  27.7472840  22.7693700  92.0970670  28.2035620  23.5798950  92.3230860
  27.3961050  22.4516840  92.9289160  30.0505450  28.2800040  99.3262970
  30.6947670  28.4859420 100.0036390  30.4134890  27.5188440  98.8733820
  23.6484620  13.1131350  92.5693190  23.5199250  13.1049250  93.5178110
  22.8246640  13.4514440  92.2184200  31.3237530  26.2832390  98.0440420
  31.9659760  25.5825550  98.1572590  31.8486880  27.0630830  97.8637310
  35.1693250  26.5681010  87.7679560  34.9430830  25.8511450  88.3604200
  34.7789450  26.3193450  86.9301310  33.0975150  27.0827290 101.2476480
  33.4331390  27.6693980 101.9254400  32.1775490  26.9520000 101.4774270
  20.9509280  30.5947870  88.5424020  21.3106920  31.1937210  87.8881290
  20.8101620  31.1407760  89.3159050  20.6478550  14.8722470 102.0299890
  19.9337070  15.0719390 102.6352500  21.0673590  14.0962040 102.4014690
  34.7509500  24.4852950  89.4293720  34.4631200  24.9465640  90.2171600
  35.5461670  24.0250720  89.6977940  20.9351140  28.8602730 103.0166420
  21.0442260  27.9197470 102.8761810  20.2831700  29.1257480 102.3680150
  28.9263730  27.1318620 104.4164540  28.6060600  26.4127860 104.9610230
  28.2522090  27.8073690 104.4900600  26.9677900  27.9779070  89.3597690
  26.9588000  28.7108760  88.7442200  26.0476260  27.7310650  89.4524650
  22.5684540  23.1993960  90.1044450  21.9612490  23.9392860  90.1139750
  23.0433890  23.2893320  89.2782650  32.1417330  17.3644780  99.7801340
  32.5098150  16.5439990 100.1080910  31.2815530  17.4246670 100.1956990
  35.5079360  16.3201720  90.5888900  34.8792520  16.4247390  89.8747130
  35.0131280  16.5398500  91.3782780  29.9537500  28.0407310  88.0222880
  30.0549480  27.8371300  87.0924860  29.0539240  27.7865590  88.2270660
  27.4763390  18.5987670  92.0046780  26.7679540  19.0674010  92.4460390
  27.7607870  17.9409680  92.6391970  29.1019320  20.0184370 100.0039310
  29.6004570  20.4930190 100.6691160  29.2442270  19.0947890 100.2109340
  31.5078820  15.3238330  93.4442570  31.3846600  15.3424460  92.4952080
  32.4563380  15.3717270  93.5640970  28.5955610  30.5593630  92.7170550
  28.8497110  30.5215020  91.7949920  27.6468090  30.4326960  92.7098800
  25.6798410  16.9072750  89.3797490  26.5288940  17.3442900  89.3137680
  25.3129680  17.2193010  90.2069550  36.3086180  16.2352330 100.8467700
  35.8059780  16.9757730 101.1861510  37.1242840  16.6236330 100.5304490
  34.6008190  21.4785510  94.2929060  33.6598330  21.4935740  94.4676750
  34.9152260  20.6921470  94.7389360  24.5789830  23.1605110  87.8533020
  25.3453100  23.0486470  88.4158450  24.6564520  22.4643080  87.2009790
  23.2736590  20.5930180  88.5365910  23.3540180  19.6457690  88.6483310
  24.1656340  20.9237060  88.6426570  36.6033770  28.6494360  95.9683320
  36.7281190  29.4725530  96.4407130  37.4699330  28.4385090  95.6207470
  24.0751300  30.7425570  95.6400450  24.8113780  30.1941030  95.9109020
  24.4592220  31.6081580  95.5006440  20.9596780  26.8099140  91.5141960
  20.0336560  27.0520280  91.5047370  21.4253210  27.6373400  91.3926710
  23.0809580  29.9271640 104.8286030  23.8822310  30.2483690 105.2421430
  22.5661400  29.5667220 105.5505940  27.1853610  29.9155880  87.4626020
  27.9782220  30.2044710  87.0107810  26.6657960  29.4848050  86.7838500
  31.9174210  26.0351510 104.7761440  31.3112370  26.0583110 104.0357190
  31.6128320  25.3034550 105.3128690  33.3474580  29.7631800 103.3870850
  34.2996330  29.6789820 103.3371090  33.2002800  30.4273510 104.0604640
  36.2383780  29.1426010  88.8862760  35.9525290  28.7291150  88.0716940
  36.0403330  30.0713720  88.7663280  20.8007390  22.4145100 103.7722080
  21.3046410  21.8352380 104.3438310  20.0614810  22.6985330 104.3098450
  27.7031010  25.1359290  87.3268370  27.5981650  24.5211640  88.0529750
  27.5355230  24.6125180  86.5431380  27.8545330  23.8216090 103.3057600
  27.0891000  24.3901090 103.2212270  28.0361290  23.5292300 102.4125830
  30.9433740  24.1979320  87.9310360  30.3943840  24.6448620  88.5753100
  31.5653000  23.6928570  88.4548030  34.9968680  25.5521420 103.8632620
  35.7378150  25.8897180 103.3600080  34.2341360  25.7213480 103.3102390
  22.8330470  20.5574690 104.6672150  22.8735810  20.2588560 105.5757380
  23.6875970  20.9582300 104.5079670  26.6108860  23.1570240  89.8275660
  27.0325280  22.9910110  90.6707050  26.7359700  22.3470470  89.3330800
  24.7736280  19.1366790 102.6346640  24.2432740  18.6457740 102.0069980
  25.4424350  19.5650990 102.1004570  29.1236500  22.1807850  87.0752760
  29.6442160  21.4656870  86.7093910  29.7704900  22.8193720  87.3753270
  33.6714340  23.6036250 102.3987830  34.0855360  23.7581330 103.2478250
  32.7365340  23.7291470 102.5613610  34.1436510  20.9432410 104.4026980
  34.7257280  20.1884730 104.3147460  34.3198280  21.4739850 103.6258460
  25.2608580  16.1029160 102.7143930  25.1665450  15.4849910 101.9894800
  24.6805970  16.8295450 102.4873840  28.0270020  14.6602400  99.7471320
  27.5787320  14.6826660  98.9016870  27.3935220  14.2621420 100.3441620
  28.4329570  23.5556730 100.3683760  28.8517680  24.3989460 100.1960000
  27.5138200  23.6928770 100.1390540  30.7693470  21.2872910 101.7521600
  30.8889680  20.6914050 102.4916440  31.6287470  21.3242600 101.3322900
  33.1081370  21.8410100 100.3284110  32.5816590  22.3652720  99.7249250
  33.4512710  22.4737490 100.9593840  25.5067760  19.2303470  86.7733820
  25.3056820  18.3670830  87.1347160  25.3359810  19.1436830  85.8355420
  26.2836990  29.8609740 101.4841490  25.7458080  30.5855800 101.1650190
  26.5370950  29.3840080 100.6938830  27.5362240  17.8294260 103.0097420
  28.1261930  17.5210110 103.6975240  26.7182480  17.3574010 103.1657320
  32.3555670  17.4460070 103.2430440  31.6671190  16.7841610 103.1780430
  33.0761690  16.9998340 103.6878900  32.9856070  14.0411700  89.3020700
  33.2658360  13.1979600  89.6580120  32.2121800  14.2734810  89.8159450
  24.3050560  16.3304090  86.7611700  24.6076460  16.3371520  85.8530850
  25.0445150  15.9801950  87.2579360  29.1399200  31.0960950 101.7428140
  29.0657900  31.9996090 102.0500510  28.2378040  30.7772850 101.7150210
  27.5235490  15.2738710  87.7467900  27.1757490  14.5962700  87.1670350
  27.7248260  14.8128220  88.5611290  29.6884530  30.2619460  89.3654500
  30.5835320  30.6004430  89.3873260  29.7202160  29.5398870  88.7378780
  23.3280690  25.6346510  87.5941500  23.7655560  26.1776180  88.2499080
  23.8128420  24.8093460  87.6037840  20.5426490  28.4235540  95.0461760
  20.8729500  27.5556600  94.8140400  20.9717490  28.6294060  95.8766720
  25.1388410  26.7544550  92.7063730  24.8383950  26.6309520  93.6067640
  25.0325900  25.8953140  92.2979460  21.0316700  29.2906130  97.7843390
  20.5947690  29.4706930  98.6167540  21.5994380  30.0480750  97.6425110
  36.6678880  28.7923130 102.0720700  36.0680870  28.8515690 101.3284620
  36.7972780  27.8528110 102.2017550  37.9080330  26.5340950  87.4090410
  37.0773290  26.6017600  87.8797640  38.0852160  27.4245070  87.1057270
  37.3636790  23.2788430  89.9124610  38.1255700  23.8485080  90.0184300
  37.3791160  22.7115630  90.6832920  20.8641130  21.8026360  94.1432270
  20.2089970  21.5338000  93.4991970  21.7019080  21.6930840  93.6934250
  38.3696760  24.1338530  94.7566540  38.7405590  23.3505850  94.3502510
  39.0098690  24.8227630  94.5783840  35.3530520  25.5175110 100.1696860
  34.5390360  25.9472270 100.4322650  35.7604720  26.1293520  99.5565910
  37.4155960  23.5722800  87.0697130  37.6904800  24.4801680  86.9416350
  37.2266700  23.5085330  88.0059120  33.8131570  16.5967650  88.3650760
  34.2316450  16.4098630  87.5247420  33.5067630  15.7446700  88.6753690
  37.3121300  21.5091790  92.0626560  36.9364900  20.7419720  91.6307850
  36.5824420  21.8914490  92.5501490  21.9017060  22.1878930  98.6835610
  22.2690100  22.1006330  99.5631630  21.3327880  21.4245480  98.5842470
  36.7020920  20.6563310 101.6966080  36.4707010  20.4276060 100.7964030
  36.9625470  21.5762860 101.6510970  21.4533060  19.0988020 102.5894030
  20.5589110  19.0654780 102.9287740  21.9930610  19.2974810 103.3545280
  35.1408990  15.8819740 104.4745780  36.0179170  15.8903140 104.8579780
  35.1529830  15.1450580 103.8638130  20.0779210  19.0125290  90.0857600
  19.1743290  19.2755490  89.9109260  20.5619830  19.2836460  89.3057560
  36.5872260  19.7349280  95.3633800  37.1109740  19.2411930  94.7323970
  37.1731680  19.8699640  96.1081370  36.7661980  19.8189150  98.8853350
  35.8164690  19.7852690  98.9998340  36.9474990  20.7289260  98.6503120
  22.6206420  18.0690830  87.9951980  23.3298120  17.6474050  87.5099260
  21.9046360  18.1366060  87.3635330  22.2680580  14.1230160  87.0354630
  22.9908710  14.6639100  87.3535850  22.5405100  13.8493580  86.1596170
  36.0772230  18.9922630  91.3026210  36.5731350  18.7593500  92.0875090
  35.8788300  18.1534470  90.8863850  21.9572770  13.3736350  96.9377250
  22.6048960  12.8233730  96.4972410  22.3774610  13.6279500  97.7593060
  37.5059390  17.6283580  93.8363890  37.3958670  17.4739620  94.7746160
  38.2666980  17.1004520  93.5939300  35.8525110  13.5677710 100.2946890
  36.4897330  14.1811850 100.6606080  36.0000000  13.6038370  99.3496120
  38.3949660  15.4591500  87.0770030  39.3198970  15.3272680  86.8688320
  38.3725450  15.5384320  88.0306480  38.4688150  16.2302160  89.7026740
  37.6739650  16.1647280  90.2319650  38.6731430  17.1652800  89.6912090
  35.4106570  30.2693710  93.6965130  36.0065640  29.9478280  93.0199550
  35.6684720  29.7965530  94.4878400  21.7104770  13.5292020  99.6802570
  21.3619590  13.9855840 100.4460750  21.3792470  12.6349150  99.7625000
  23.3169140  26.7011620 103.8455760  23.2738770  26.3304530 104.7270220
  23.4480150  27.6389190 103.9857580  27.0175170  28.2571210  99.4465480
  26.7766530  28.5245770  98.5596000  27.9577810  28.4276940  99.5016340
  29.2229590  14.7203900 103.2021990  29.1618480  15.3125730 103.9517400
  30.1629970  14.6129860 103.0572250  31.8604150  14.3773960 102.8414280
  32.4744560  14.6953250 102.1795360  32.4053710  13.8922550 103.4610140
  22.3825410  13.0568220 102.9553340  22.9308400  12.8756270 102.1919450
  22.4480720  12.2662330 103.4909650  23.1557170  29.6473870 100.9653540
  22.5617490  29.5158570 101.7043580  23.1481010  28.8112010 100.4995640
  32.6012190  12.9406100  99.1683570  31.7272030  13.2741210  98.9656500
  32.4922940  12.4679280  99.9935440  33.5084170  15.1476970 100.5525290
  33.1797530  14.3328730 100.1727020  34.4566470  15.1046780 100.4290980
  35.9618780  30.9189010  97.5262860  35.5021750  31.6704820  97.1520880
  35.3331240  30.1995480  97.4677660  22.7869400  27.0132250  99.9161580
  22.0603460  26.3937540  99.8487530  22.8478550  27.4072860  99.0459660
  26.3914500  29.2277250  96.7010990  26.9079520  28.6164610  96.1759250
  27.0411880  29.7306030  97.1922000  29.1310000  30.1185740  97.5279970
  29.4187810  29.8640040  96.6512980  29.6433220  29.5663100  98.1185540
  30.3487010  13.8575940  98.1076480  29.5658800  14.3321440  98.3873240
  30.0549940  12.9530770  97.9989660  34.9008080  14.5599040  96.1525570
  35.3416170  14.5044140  95.3047170  34.6315670  15.4757050  96.2235750
  36.7646650  14.1914280  94.1634390  36.7035050  13.2475500  94.0165410
  37.5438680  14.2994370  94.7087850  21.0699400  30.3306640  93.1258340
  20.9021440  29.6977320  93.8240230  20.2033910  30.5366040  92.7752530
  21.6927420  14.1623420  90.6290200  22.4506780  14.2752300  90.0554230
  21.2304590  14.9992620  90.5833630  28.2341230  16.2762690  93.6192510
  27.4215740  15.9019580  93.2788390  28.7382870  15.5207770  93.9213700
  32.7366210  12.9405140  94.8575580  33.3395580  13.5125350  95.3324100
  31.9959200  13.5044580  94.6349480  35.8800810  13.3426700  90.1315860
  36.0751440  14.2410150  90.3983290  35.0930680  13.1113780  90.6248810
  22.6762100  29.0239870  90.5708480  22.1509720  29.4047900  89.8670440
  22.6006680  29.6490640  91.2918190  24.0652570  14.6887470  89.1692170
  24.5945330  13.9017270  89.0400120  24.6980890  15.3678660  89.4027700
  26.2590410  14.4262610  92.2237560  25.6293150  13.7249920  92.3907690
  25.7195550  15.1866740  92.0070720  29.1982360  31.0401840 104.8948170
  30.1249670  30.8046110 104.9384130  29.1832790  31.8673840 104.4134200
  37.4327420  30.5827410  91.8922420  37.6079610  29.8965150  91.2483340
  36.7348990  31.1074460  91.4999090  26.3845970  13.7046590 104.6590050
  26.1030240  14.2080190 103.8950870  26.7665670  12.9068340 104.2932180
  25.2755070  30.9722250  89.4457730  26.0073890  30.6881530  88.8981620
  25.5348740  30.7335530  90.3357110  24.4369860  27.0886980  89.4504060
  23.8078740  27.5572080  89.9989890  24.5517690  26.2436200  89.8850250
  32.9861430  13.1200170 105.2370520  32.8726880  13.4394780 106.1322040
  33.8031170  13.5212680 104.9407800  35.7659920  30.2671700 104.7189210
  36.5585240  29.7720930 104.5115170  36.0593070  30.9461840 105.3264820
  31.8919580  21.1392640  75.6005260  31.8113630  20.2247250  75.3296970
  31.4784000  21.6359710  74.8944970  30.0237620  22.9171660  77.4814530
  29.2479720  22.4372100  77.7713100  30.6750550  22.2377310  77.3070690
  24.0403450  23.2291470  78.3590290  23.2088330  22.9740180  78.7586800
  24.6484430  23.3002240  79.0948210  34.0445050  27.3231850  76.2613660
  33.5826580  26.5519090  76.5900830  34.8570600  27.3497920  76.7666110
  24.0204710  27.2631560  78.5548310  24.3232750  26.3729300  78.3758530
  24.7648300  27.8201780  78.3270560  22.4495400  18.1893360  72.1432680
  21.5612100  18.5309330  72.0412560  22.7336590  17.9893680  71.2513510
  20.4128410  20.7899010  78.0272380  20.9844520  20.0221210  78.0276020
  20.4129950  21.0887770  77.1178990  30.2708360  29.6089860  75.8817650
  29.6519800  30.0647360  75.3112090  31.1260140  29.7641320  75.4807350
  29.4646610  25.5928850  77.4884690  29.3954890  24.6518790  77.3273820
  30.2266470  25.6830260  78.0607260  21.6553280  16.1983370  79.8141310
  21.4756120  15.3009120  80.0944070  21.2533360  16.7455240  80.4888260
  30.4951780  18.3999230  77.7153620  30.8716600  17.5271110  77.6027290
  30.3971290  18.7357930  76.8244060  24.6256790  16.7724860  73.1771060
  24.7323540  17.6728590  73.4839820  23.7149150  16.7242830  72.8865710
  34.2775900  15.8949670  74.6481960  35.0985520  15.4046240  74.6907440
  34.3109980  16.4847330  75.4013800  22.2739950  18.6943870  78.4223650
  22.9550060  18.9582240  79.0411050  21.9588000  17.8544740  78.7561660
  26.4664520  19.7411230  77.5096240  26.9742740  20.2392200  78.1501260
  26.9977760  18.9646430  77.3335600  38.5675450  17.9116420  81.2125590
  37.8627620  18.2998130  80.6940700  38.8333370  18.6066710  81.8146520
  24.7500620  14.3809790  81.7759660  24.7519060  14.8982180  80.9705560
  23.9204930  13.9039970  81.7529590  31.1371710  24.4929100  73.2749560
  30.5188980  24.9578550  72.7112280  31.6494960  25.1856580  73.6919070
  26.0003470  24.0204970  79.9533160  25.6672850  24.6473890  80.5954230
  26.1770150  24.5466850  79.1734830  34.5137380  17.8350050  77.4209500
  33.8092950  18.1234940  78.0012610  34.8749540  18.6450160  77.0609060
  24.4315950  16.0919750  79.7830110  24.7732760  16.9361800  79.4883980
  23.4931760  16.2403490  79.8995450  25.2122570  25.9885770  81.7682340
  25.8296570  26.6636850  81.4866790  24.3515690  26.3973750  81.6769840
  20.5054910  25.1785630  70.6489190  20.1282890  25.6672730  69.9174090
  20.7627980  25.8510910  71.2795720  36.1300160  27.4525180  79.6836980
  35.4463680  28.1224290  79.6753650  36.6694450  27.6505830  78.9181840
  37.5824300  17.2804840  77.8118710  36.6349210  17.3143820  77.9434140
  37.9074290  18.0943790  78.1968070  28.1143840  13.5802020  76.1074700
  28.4218820  13.0248910  75.3910200  27.1844540  13.7146480  75.9247690
  33.0644340  24.1999150  79.7264770  33.4813130  23.9859260  78.8918230
  33.7884160  24.4571940  80.2973390  30.5024600  21.6450850  72.8434820
  29.5753880  21.5788230  73.0723290  30.6549420  22.5830980  72.7290060
  30.4893680  17.9167850  69.8401980  29.5497350  18.0781810  69.9254440
  30.8076940  18.6353530  69.2937970  37.0106440  22.5986370  79.8181010
  36.1825070  22.6679460  79.3431140  37.6056920  23.1840680  79.3496840
  34.5321890  23.2071150  73.3470070  33.9134310  22.8690700  72.6996370
  34.5146340  22.5630910  74.0549260  33.9748450  19.3855690  80.7635880
  33.5619630  20.2109400  81.0175870  33.2424400  18.8000730  80.5712240
  26.1081240  22.1715590  75.6254550  25.7038240  21.4592840  75.1300450
  26.1944360  21.8268830  76.5142590  26.5762940  25.8583150  77.7893760
  26.2791230  25.2528620  77.1101540  27.5262760  25.8960460  77.6783120
  24.8209860  18.9458800  79.4053590  25.3724450  19.0554140  78.6306840
  25.3353370  19.3196400  80.1208820  25.6681370  25.5964840  84.4401560
  24.7709900  25.8204810  84.6874960  25.6934240  25.7199780  83.4912960
  32.7086590  22.4457960  70.3542820  33.1479870  21.6080390  70.2080640
  33.4215010  23.0787360  70.4406960  24.4952590  22.4678160  83.0158930
  24.3560360  23.3400960  83.3846330  23.6133950  22.1250970  82.8706870
  30.8181970  27.3854030  74.3224060  31.2577880  28.1278360  73.9079450
  30.7568860  27.6280600  75.2463020  26.2932940  28.4099860  85.2244080
  26.2648370  28.8142810  84.3572510  26.1297910  27.4810220  85.0615680
  36.2903730  13.7000770  68.6683860  35.9776390  13.7927600  69.5682930
  37.0516200  14.2781800  68.6181290  22.8085870  21.0660570  73.1261200
  22.6883470  21.7922660  72.5142470  22.4986760  20.2963480  72.6489110
  38.2447760  29.1926960  86.5208250  38.7207480  29.6709850  87.1997330
  38.8654920  29.1244450  85.7953750  20.4471240  24.2375710  78.9329840
  20.5251660  24.3724480  77.9885560  21.0612920  23.5291600  79.1257960
  21.6918870  25.9375900  75.3436020  21.2846950  26.0790490  74.4889620
  22.5831880  25.6536060  75.1407230  37.6481010  26.3839810  83.6808260
  37.7744070  26.1451690  82.7625440  37.6902390  25.5524350  84.1530340
  31.5097750  30.0867810  82.2503070  32.0242420  29.9975820  83.0525500
  30.6666830  30.4327510  82.5430980  25.9640530  30.1521680  73.4558690
  25.7883010  29.2357220  73.2426490  25.1096270  30.5108970  73.6956490
  37.5005020  18.4372270  84.6458000  36.8849290  18.9451940  84.1173460
  37.1801440  17.5370600  84.5883940  20.5030760  25.2789880  81.4724300
  20.6661800  24.8095240  80.6543670  20.9683210  24.7713440  82.1373140
  25.2749530  14.4095640  76.5084870  24.8317680  15.1905180  76.1769390
  25.8334520  14.7325530  77.2155810  29.5619340  17.2764160  82.1120190
  29.0998710  17.4847180  82.9240130  29.1597450  16.4623510  81.8090860
  34.5623850  18.4973110  83.2416850  33.7117440  18.1978860  83.5625920
  34.4025640  18.7415120  82.3300670  31.6573560  19.9974860  85.3415640
  31.9826970  19.1638610  85.0017870  32.4453890  20.5203380  85.4893970
  28.3908350  14.0306340  71.3890700  27.7662530  14.0266210  72.1144010
  28.3038470  13.1637300  70.9926670  27.3125430  14.9542970  78.3674470
  27.6097760  15.8605800  78.2866490  27.8610990  14.4661750  77.7534040
  25.0663750  19.5329210  74.2366120  24.8404670  19.3166380  75.1412740
  24.2856280  19.9657670  73.8912090  32.2961510  19.5392580  72.8356770
  31.6970400  20.2628380  72.6520390  32.8441120  19.4769360  72.0533220
  27.5062960  20.4314790  84.9026390  27.4106560  19.4909520  84.7526790
  28.3494940  20.6529860  84.5074460  30.9026380  18.1756120  74.8660050
  31.2955950  18.4928320  74.0528740  31.2643230  17.2968000  74.9804570
  22.6373500  16.8428460  83.0560170  22.2436890  17.6903670  83.2632950
  21.9491900  16.2054830  83.2468810  29.2118550  16.9263430  86.1256910
  28.5216870  16.7335630  86.7603000  29.9550850  17.2098070  86.6581210
  19.9390550  14.7656920  77.0890250  19.6503600  15.3359780  77.8015230
  20.6836310  14.2861370  77.4521480  20.1260780  18.7077040  68.2992970
  20.0435450  19.6507800  68.4407960  19.7743840  18.5651950  67.4205320
  31.4881520  20.7661870  78.9610830  30.7562640  21.2748680  79.3100930
  31.0905860  19.9491850  78.6599610  27.9258910  17.4416070  77.3663320
  27.9294970  17.0006020  76.5167860  28.8210030  17.7633400  77.4735140
  23.7761290  17.3242560  76.3257530  23.4361340  17.8017790  77.0824580
  23.0138610  16.8707680  75.9658630  27.9879060  18.4428150  70.3570080
  28.1091880  18.4014630  71.3055900  27.6027570  19.3052300  70.2016810
  31.9507430  16.2195550  78.3733770  31.9680170  16.6704200  79.2175620
  31.7023010  15.3201190  78.5867210  27.0000560  20.7529290  69.7553380
  26.4317460  20.3047540  69.1289290  27.7089560  21.1122070  69.2218530
  35.3778180  13.6327730  84.2120150  35.7023950  12.9017390  84.7378130
  35.4134690  13.3141370  83.3101140  22.0769740  24.6541310  83.6320110
  21.6924530  24.0134980  84.2303070  22.3881930  25.3577430  84.2014840
  28.2266880  21.5017850  79.1128730  28.5937010  21.0276420  79.8590070
  28.0371940  22.3759420  79.4537070  21.0907370  16.2461540  75.2422200
  20.8054290  15.8817210  76.0800820  21.0286230  15.5142000  74.6285340
  26.0166250  20.5426490  81.4312940  25.7123320  21.4218470  81.6563300
  26.9712710  20.6026280  81.4670380  24.5448040  24.7487480  72.0279790
  23.7710300  24.2085100  71.8678510  25.2742670  24.2294090  71.6897550
  35.3036020  23.7452840  77.8206180  36.0235140  24.2408130  77.4302290
  35.1017840  23.0670730  77.1760050  30.7645960  15.1390800  71.9635570
  29.9510570  14.6403970  71.8880880  30.5707910  15.9789050  71.5471920
  30.6854820  23.8161900  83.7075180  30.6192130  22.8957570  83.4532770
  30.0559960  23.9137340  84.4219820  33.4794350  19.5110450  70.2597730
  34.3673970  19.8227680  70.0849070  33.4499440  18.6382700  69.8678310
  24.5885440  24.4167860  75.6658600  25.1064110  23.6136120  75.6115490
  24.1369460  24.3547000  76.5075430  29.4754940  25.6834140  70.9385900
  29.8170640  26.4276370  70.4429220  28.6467650  25.9965260  71.3010730
  22.0729980  21.3829230  82.5784300  21.7144920  22.0483080  83.1657640
  21.7784540  20.5512780  82.9496920  25.2743100  21.8413470  85.4623850
  24.9743240  21.9870650  84.5651670  26.0454340  21.2818760  85.3697240
  30.6171550  26.6382470  83.4578980  30.6316090  25.7063430  83.2397890
  29.9096650  26.7242230  84.0968750  35.7508620  20.8222290  69.7277590
  35.6672340  21.2536510  68.8774030  36.4702810  21.2820640  70.1604410
  36.8282760  23.2789810  82.8047560  36.1030950  23.8718590  82.6076950
  37.3558220  23.2713350  82.0060930  32.3582350  25.0049980  76.3031410
  32.7106170  24.4078110  75.6432780  31.4744680  24.6794210  76.4739660
  28.4445630  25.7647670  73.7101820  29.1316760  26.3116880  74.0909410
  27.6578050  26.3088400  73.7451430  20.5838030  21.3820490  69.2018900
  21.4532880  21.6645290  69.4854820  20.0928350  22.1956360  69.0867710
  27.7472840  22.7693700  73.3227180  28.2035620  23.5798950  73.5487370
  27.3961050  22.4516840  74.1545670  30.0505450  28.2800040  80.5519480
  30.6947670  28.4859420  81.2292900  30.4134890  27.5188440  80.0990330
  23.6484620  13.1131350  73.7949700  23.5199250  13.1049250  74.7434620
  22.8246640  13.4514440  73.4440710  31.3237530  26.2832390  79.2696930
  31.9659760  25.5825550  79.3829100  31.8486880  27.0630830  79.0893820
  33.0975150  27.0827290  82.4732990  33.4331390  27.6693980  83.1510910
  32.1775490  26.9520000  82.7030780  20.9509280  30.5947870  69.7680530
  21.3106920  31.1937210  69.1137800  20.8101620  31.1407760  70.5415560
  20.6478550  14.8722470  83.2556400  19.9337070  15.0719390  83.8609010
  21.0673590  14.0962040  83.6271200  34.7509500  24.4852950  70.6550230
  34.4631200  24.9465640  71.4428110  35.5461670  24.0250720  70.9234450
  20.9351140  28.8602730  84.2422930  21.0442260  27.9197470  84.1018320
  20.2831700  29.1257480  83.5936660  28.9263730  27.1318620  85.6421050
  28.6060600  26.4127860  86.1866740  28.2522090  27.8073690  85.7157110
  26.9677900  27.9779070  70.5854200  26.9588000  28.7108760  69.9698710
  26.0476260  27.7310650  70.6781160  22.5684540  23.1993960  71.3300960
  21.9612490  23.9392860  71.3396260  23.0433890  23.2893320  70.5039160
  32.1417330  17.3644780  81.0057850  32.5098150  16.5439990  81.3337420
  31.2815530  17.4246670  81.4213500  35.5079360  16.3201720  71.8145410
  34.8792520  16.4247390  71.1003640  35.0131280  16.5398500  72.6039290
  29.9537500  28.0407310  69.2479390  30.0549480  27.8371300  68.3181370
  29.0539240  27.7865590  69.4527170  27.4763390  18.5987670  73.2303290
  26.7679540  19.0674010  73.6716900  27.7607870  17.9409680  73.8648480
  29.1019320  20.0184370  81.2295820  29.6004570  20.4930190  81.8947670
  29.2442270  19.0947890  81.4365850  31.5078820  15.3238330  74.6699080
  31.3846600  15.3424460  73.7208590  32.4563380  15.3717270  74.7897480
  28.5955610  30.5593630  73.9427060  28.8497110  30.5215020  73.0206430
  27.6468090  30.4326960  73.9355310  25.6798410  16.9072750  70.6054000
  26.5288940  17.3442900  70.5394190  25.3129680  17.2193010  71.4326060
  36.3086180  16.2352330  82.0724210  35.8059780  16.9757730  82.4118020
  37.1242840  16.6236330  81.7561000  34.6008190  21.4785510  75.5185570
  33.6598330  21.4935740  75.6933260  34.9152260  20.6921470  75.9645870
  24.5789830  23.1605110  69.0789530  25.3453100  23.0486470  69.6414960
  24.6564520  22.4643080  68.4266300  23.2736590  20.5930180  69.7622420
  23.3540180  19.6457690  69.8739820  24.1656340  20.9237060  69.8683080
  24.0751300  30.7425570  76.8656960  24.8113780  30.1941030  77.1365530
  24.4592220  31.6081580  76.7262950  20.9596780  26.8099140  72.7398470
  20.0336560  27.0520280  72.7303880  21.4253210  27.6373400  72.6183220
  23.0809580  29.9271640  86.0542540  23.8822310  30.2483690  86.4677940
  22.5661400  29.5667220  86.7762450  27.1853610  29.9155880  68.6882530
  27.9782220  30.2044710  68.2364320  26.6657960  29.4848050  68.0095010
  31.9174210  26.0351510  86.0017950  31.3112370  26.0583110  85.2613700
  31.6128320  25.3034550  86.5385200  33.3474580  29.7631800  84.6127360
  34.2996330  29.6789820  84.5627600  33.2002800  30.4273510  85.2861150
  20.8007390  22.4145100  84.9978590  21.3046410  21.8352380  85.5694820
  20.0614810  22.6985330  85.5354960  27.7031010  25.1359290  68.5524880
  27.5981650  24.5211640  69.2786260  27.5355230  24.6125180  67.7687890
  27.8545330  23.8216090  84.5314110  27.0891000  24.3901090  84.4468780
  28.0361290  23.5292300  83.6382340  30.9433740  24.1979320  69.1566870
  30.3943840  24.6448620  69.8009610  31.5653000  23.6928570  69.6804540
  34.9968680  25.5521420  85.0889130  35.7378150  25.8897180  84.5856590
  34.2341360  25.7213480  84.5358900  22.8330470  20.5574690  85.8928660
  22.8735810  20.2588560  86.8013890  23.6875970  20.9582300  85.7336180
  26.6108860  23.1570240  71.0532170  27.0325280  22.9910110  71.8963560
  26.7359700  22.3470470  70.5587310  24.7736280  19.1366790  83.8603150
  24.2432740  18.6457740  83.2326490  25.4424350  19.5650990  83.3261080
  29.1236500  22.1807850  68.3009270  29.6442160  21.4656870  67.9350420
  29.7704900  22.8193720  68.6009780  33.6714340  23.6036250  83.6244340
  34.0855360  23.7581330  84.4734760  32.7365340  23.7291470  83.7870120
  34.1436510  20.9432410  85.6283490  34.7257280  20.1884730  85.5403970
  34.3198280  21.4739850  84.8514970  25.2608580  16.1029160  83.9400440
  25.1665450  15.4849910  83.2151310  24.6805970  16.8295450  83.7130350
  28.0270020  14.6602400  80.9727830  27.5787320  14.6826660  80.1273380
  27.3935220  14.2621420  81.5698130  28.4329570  23.5556730  81.5940270
  28.8517680  24.3989460  81.4216510  27.5138200  23.6928770  81.3647050
  30.7693470  21.2872910  82.9778110  30.8889680  20.6914050  83.7172950
  31.6287470  21.3242600  82.5579410  33.1081370  21.8410100  81.5540620
  32.5816590  22.3652720  80.9505760  33.4512710  22.4737490  82.1850350
  25.5067760  19.2303470  67.9990330  25.3056820  18.3670830  68.3603670
  25.3359810  19.1436830  67.0611930  26.2836990  29.8609740  82.7098000
  25.7458080  30.5855800  82.3906700  26.5370950  29.3840080  81.9195340
  27.5362240  17.8294260  84.2353930  28.1261930  17.5210110  84.9231750
  26.7182480  17.3574010  84.3913830  32.3555670  17.4460070  84.4686950
  31.6671190  16.7841610  84.4036940  33.0761690  16.9998340  84.9135410
  32.9856070  14.0411700  70.5277210  33.2658360  13.1979600  70.8836630
  32.2121800  14.2734810  71.0415960  24.3050560  16.3304090  67.9868210
  24.6076460  16.3371520  67.0787360  25.0445150  15.9801950  68.4835870
  29.1399200  31.0960950  82.9684650  29.0657900  31.9996090  83.2757020
  28.2378040  30.7772850  82.9406720  27.5235490  15.2738710  68.9724410
  27.1757490  14.5962700  68.3926860  27.7248260  14.8128220  69.7867800
  29.6884530  30.2619460  70.5911010  30.5835320  30.6004430  70.6129770
  29.7202160  29.5398870  69.9635290  23.3280690  25.6346510  68.8198010
  23.7655560  26.1776180  69.4755590  23.8128420  24.8093460  68.8294350
  20.5426490  28.4235540  76.2718270  20.8729500  27.5556600  76.0396910
  20.9717490  28.6294060  77.1023230  25.1388410  26.7544550  73.9320240
  24.8383950  26.6309520  74.8324150  25.0325900  25.8953140  73.5235970
  21.0316700  29.2906130  79.0099900  20.5947690  29.4706930  79.8424050
  21.5994380  30.0480750  78.8681620  37.9080330  26.5340950  68.6346920
  37.0773290  26.6017600  69.1054150  38.0852160  27.4245070  68.3313780
  37.3636790  23.2788430  71.1381120  38.1255700  23.8485080  71.2440810
  37.3791160  22.7115630  71.9089430  20.8641130  21.8026360  75.3688780
  20.2089970  21.5338000  74.7248480  21.7019080  21.6930840  74.9190760
  38.3696760  24.1338530  75.9823050  38.7405590  23.3505850  75.5759020
  39.0098690  24.8227630  75.8040350  35.3530520  25.5175110  81.3953370
  34.5390360  25.9472270  81.6579160  35.7604720  26.1293520  80.7822420
  37.4155960  23.5722800  68.2953640  37.6904800  24.4801680  68.1672860
  37.2266700  23.5085330  69.2315630  33.8131570  16.5967650  69.5907270
  34.2316450  16.4098630  68.7503930  33.5067630  15.7446700  69.9010200
  37.3121300  21.5091790  73.2883070  36.9364900  20.7419720  72.8564360
  36.5824420  21.8914490  73.7758000  21.9017060  22.1878930  79.9092120
  22.2690100  22.1006330  80.7888140  21.3327880  21.4245480  79.8098980
  36.7020920  20.6563310  82.9222590  36.4707010  20.4276060  82.0220540
  36.9625470  21.5762860  82.8767480  21.4533060  19.0988020  83.8150540
  20.5589110  19.0654780  84.1544250  21.9930610  19.2974810  84.5801790
  35.1408990  15.8819740  85.7002290  36.0179170  15.8903140  86.0836290
  35.1529830  15.1450580  85.0894640  20.0779210  19.0125290  71.3114110
  19.1743290  19.2755490  71.1365770  20.5619830  19.2836460  70.5314070
  36.5872260  19.7349280  76.5890310  37.1109740  19.2411930  75.9580480
  37.1731680  19.8699640  77.3337880  36.7661980  19.8189150  80.1109860
  35.8164690  19.7852690  80.2254850  36.9474990  20.7289260  79.8759630
  22.6206420  18.0690830  69.2208490  23.3298120  17.6474050  68.7355770
  21.9046360  18.1366060  68.5891840  22.2680580  14.1230160  68.2611140
  22.9908710  14.6639100  68.5792360  22.5405100  13.8493580  67.3852680
  36.0772230  18.9922630  72.5282720  36.5731350  18.7593500  73.3131600
  35.8788300  18.1534470  72.1120360  21.9572770  13.3736350  78.1633760
  22.6048960  12.8233730  77.7228920  22.3774610  13.6279500  78.9849570
  37.5059390  17.6283580  75.0620400  37.3958670  17.4739620  76.0002670
  38.2666980  17.1004520  74.8195810  35.8525110  13.5677710  81.5203400
  36.4897330  14.1811850  81.8862590  36.0000000  13.6038370  80.5752630
  38.3949660  15.4591500  68.3026540  39.3198970  15.3272680  68.0944830
  38.3725450  15.5384320  69.2562990  38.4688150  16.2302160  70.9283250
  37.6739650  16.1647280  71.4576160  38.6731430  17.1652800  70.9168600
  21.7104770  13.5292020  80.9059080  21.3619590  13.9855840  81.6717260
  21.3792470  12.6349150  80.9881510  23.3169140  26.7011620  85.0712270
  23.2738770  26.3304530  85.9526730  23.4480150  27.6389190  85.2114090
  27.0175170  28.2571210  80.6721990  26.7766530  28.5245770  79.7852510
  27.9577810  28.4276940  80.7272850  29.2229590  14.7203900  84.4278500
  29.1618480  15.3125730  85.1773910  30.1629970  14.6129860  84.2828760
  31.8604150  14.3773960  84.0670790  32.4744560  14.6953250  83.4051870
  32.4053710  13.8922550  84.6866650  22.3825410  13.0568220  84.1809850
  22.9308400  12.8756270  83.4175960  22.4480720  12.2662330  84.7166160
  23.1557170  29.6473870  82.1910050  22.5617490  29.5158570  82.9300090
  23.1481010  28.8112010  81.7252150  32.6012190  12.9406100  80.3940080
  31.7272030  13.2741210  80.1913010  32.4922940  12.4679280  81.2191950
  33.5084170  15.1476970  81.7781800  33.1797530  14.3328730  81.3983530
  34.4566470  15.1046780  81.6547490  22.7869400  27.0132250  81.1418090
  22.0603460  26.3937540  81.0744040  22.8478550  27.4072860  80.2716170
  26.3914500  29.2277250  77.9267500  26.9079520  28.6164610  77.4015760
  27.0411880  29.7306030  78.4178510  29.1310000  30.1185740  78.7536480
  29.4187810  29.8640040  77.8769490  29.6433220  29.5663100  79.3442050
  30.3487010  13.8575940  79.3332990  29.5658800  14.3321440  79.6129750
  30.0549940  12.9530770  79.2246170  34.9008080  14.5599040  77.3782080
  35.3416170  14.5044140  76.5303680  34.6315670  15.4757050  77.4492260
  36.7646650  14.1914280  75.3890900  36.7035050  13.2475500  75.2421920
  37.5438680  14.2994370  75.9344360  21.0699400  30.3306640  74.3514850
  20.9021440  29.6977320  75.0496740  20.2033910  30.5366040  74.0009040
  21.6927420  14.1623420  71.8546710  22.4506780  14.2752300  71.2810740
  21.2304590  14.9992620  71.8090140  28.2341230  16.2762690  74.8449020
  27.4215740  15.9019580  74.5044900  28.7382870  15.5207770  75.1470210
  32.7366210  12.9405140  76.0832090  33.3395580  13.5125350  76.5580610
  31.9959200  13.5044580  75.8605990  35.8800810  13.3426700  71.3572370
  36.0751440  14.2410150  71.6239800  35.0930680  13.1113780  71.8505320
  22.6762100  29.0239870  71.7964990  22.1509720  29.4047900  71.0926950
  22.6006680  29.6490640  72.5174700  24.0652570  14.6887470  70.3948680
  24.5945330  13.9017270  70.2656630  24.6980890  15.3678660  70.6284210
  26.2590410  14.4262610  73.4494070  25.6293150  13.7249920  73.6164200
  25.7195550  15.1866740  73.2327230  29.1982360  31.0401840  86.1204680
  30.1249670  30.8046110  86.1640640  29.1832790  31.8673840  85.6390710
  26.3845970  13.7046590  85.8846560  26.1030240  14.2080190  85.1207380
  26.7665670  12.9068340  85.5188690  25.2755070  30.9722250  70.6714240
  26.0073890  30.6881530  70.1238130  25.5348740  30.7335530  71.5613620
  24.4369860  27.0886980  70.6760570  23.8078740  27.5572080  71.2246400
  24.5517690  26.2436200  71.1106760  32.9861430  13.1200170  86.4627030
  32.8726880  13.4394780  87.3578550  33.8031170  13.5212680  86.1664310
  35.7659920  30.2671700  85.9445720  36.5585240  29.7720930  85.7371680
  36.0593070  30.9461840  86.5521330  31.8919580  21.1392640  56.8261770
  31.8113630  20.2247250  56.5553480  31.4784000  21.6359710  56.1201480
  30.0237620  22.9171660  58.7071040  29.2479720  22.4372100  58.9969610
  30.6750550  22.2377310  58.5327200  24.0403450  23.2291470  59.5846800
  23.2088330  22.9740180  59.9843310  24.6484430  23.3002240  60.3204720
  34.0445050  27.3231850  57.4870170  33.5826580  26.5519090  57.8157340
  34.8570600  27.3497920  57.9922620  24.0204710  27.2631560  59.7804820
  24.3232750  26.3729300  59.6015040  24.7648300  27.8201780  59.5527070
  22.4495400  18.1893360  53.3689190  21.5612100  18.5309330  53.2669070
  22.7336590  17.9893680  52.4770020  20.4128410  20.7899010  59.2528890
  20.9844520  20.0221210  59.2532530  20.4129950  21.0887770  58.3435500
  30.2708360  29.6089860  57.1074160  29.6519800  30.0647360  56.5368600
  31.1260140  29.7641320  56.7063860  29.4646610  25.5928850  58.7141200
  29.3954890  24.6518790  58.5530330  30.2266470  25.6830260  59.2863770
  21.6553280  16.1983370  61.0397820  21.4756120  15.3009120  61.3200580
  21.2533360  16.7455240  61.7144770  30.4951780  18.3999230  58.9410130
  30.8716600  17.5271110  58.8283800  30.3971290  18.7357930  58.0500570
  24.6256790  16.7724860  54.4027570  24.7323540  17.6728590  54.7096330
  23.7149150  16.7242830  54.1122220  34.2775900  15.8949670  55.8738470
  35.0985520  15.4046240  55.9163950  34.3109980  16.4847330  56.6270310
  22.2739950  18.6943870  59.6480160  22.9550060  18.9582240  60.2667560
  21.9588000  17.8544740  59.9818170  26.4664520  19.7411230  58.7352750
  26.9742740  20.2392200  59.3757770  26.9977760  18.9646430  58.5592110
  38.5675450  17.9116420  62.4382100  37.8627620  18.2998130  61.9197210
  38.8333370  18.6066710  63.0403030  24.7500620  14.3809790  63.0016170
  24.7519060  14.8982180  62.1962070  23.9204930  13.9039970  62.9786100
  31.1371710  24.4929100  54.5006070  30.5188980  24.9578550  53.9368790
  31.6494960  25.1856580  54.9175580  26.0003470  24.0204970  61.1789670
  25.6672850  24.6473890  61.8210740  26.1770150  24.5466850  60.3991340
  34.5137380  17.8350050  58.6466010  33.8092950  18.1234940  59.2269120
  34.8749540  18.6450160  58.2865570  24.4315950  16.0919750  61.0086620
  24.7732760  16.9361800  60.7140490  23.4931760  16.2403490  61.1251960
  25.2122570  25.9885770  62.9938850  25.8296570  26.6636850  62.7123300
  24.3515690  26.3973750  62.9026350  20.5054910  25.1785630  51.8745700
  20.1282890  25.6672730  51.1430600  20.7627980  25.8510910  52.5052230
  36.1300160  27.4525180  60.9093490  35.4463680  28.1224290  60.9010160
  36.6694450  27.6505830  60.1438350  37.5824300  17.2804840  59.0375220
  36.6349210  17.3143820  59.1690650  37.9074290  18.0943790  59.4224580
  28.1143840  13.5802020  57.3331210  28.4218820  13.0248910  56.6166710
  27.1844540  13.7146480  57.1504200  33.6658900  29.2969310  59.6238670
  33.6786060  28.8931600  58.7560930  33.1134120  30.0716600  59.5200100
  34.9604320  26.0185530  54.7128840  34.8500650  25.0759860  54.8378260
  34.9572570  26.3801170  55.5991600  33.0644340  24.1999150  60.9521280
  33.4813130  23.9859260  60.1174740  33.7884160  24.4571940  61.5229900
  30.5024600  21.6450850  54.0691330  29.5753880  21.5788230  54.2979800
  30.6549420  22.5830980  53.9546570  30.4893680  17.9167850  51.0658490
  29.5497350  18.0781810  51.1510950  30.8076940  18.6353530  50.5194480
  37.0106440  22.5986370  61.0437520  36.1825070  22.6679460  60.5687650
  37.6056920  23.1840680  60.5753350  34.5321890  23.2071150  54.5726580
  33.9134310  22.8690700  53.9252880  34.5146340  22.5630910  55.2805770
  33.9748450  19.3855690  61.9892390  33.5619630  20.2109400  62.2432380
  33.2424400  18.8000730  61.7968750  26.1081240  22.1715590  56.8511060
  25.7038240  21.4592840  56.3556960  26.1944360  21.8268830  57.7399100
  26.5762940  25.8583150  59.0150270  26.2791230  25.2528620  58.3358050
  27.5262760  25.8960460  58.9039630  24.8209860  18.9458800  60.6310100
  25.3724450  19.0554140  59.8563350  25.3353370  19.3196400  61.3465330
  34.6648550  29.4315020  62.6773370  34.1879110  30.2387210  62.4845980
  33.9810340  28.7793350  62.8299580  25.6681370  25.5964840  65.6658070
  24.7709900  25.8204810  65.9131470  25.6934240  25.7199780  64.7169470
  32.7086590  22.4457960  51.5799330  33.1479870  21.6080390  51.4337150
  33.4215010  23.0787360  51.6663470  24.4952590  22.4678160  64.2415440
  24.3560360  23.3400960  64.6102840  23.6133950  22.1250970  64.0963380
  30.8181970  27.3854030  55.5480570  31.2577880  28.1278360  55.1335960
  30.7568860  27.6280600  56.4719530  26.2932940  28.4099860  66.4500590
  26.2648370  28.8142810  65.5829020  26.1297910  27.4810220  66.2872190
  36.2903730  13.7000770  49.8940370  35.9776390  13.7927600  50.7939440
  37.0516200  14.2781800  49.8437800  22.8085870  21.0660570  54.3517710
  22.6883470  21.7922660  53.7398980  22.4986760  20.2963480  53.8745620
  38.2447760  29.1926960  67.7464760  38.7207480  29.6709850  68.4253840
  38.8654920  29.1244450  67.0210260  20.4471240  24.2375710  60.1586350
  20.5251660  24.3724480  59.2142070  21.0612920  23.5291600  60.3514470
  21.6918870  25.9375900  56.5692530  21.2846950  26.0790490  55.7146130
  22.5831880  25.6536060  56.3663740  37.6481010  26.3839810  64.9064770
  37.7744070  26.1451690  63.9881950  37.6902390  25.5524350  65.3786850
  31.5097750  30.0867810  63.4759580  32.0242420  29.9975820  64.2782010
  30.6666830  30.4327510  63.7687490  33.4852150  30.3723150  52.9043580
  33.3253290  30.0826090  53.8025410  33.3198860  29.5963280  52.3688810
  25.9640530  30.1521680  54.6815200  25.7883010  29.2357220  54.4683000
  25.1096270  30.5108970  54.9213000  33.1878280  27.8810710  51.4641580
  32.4943440  27.8788000  50.8043860  33.9301140  27.4570030  51.0335750
  32.7528210  29.5073420  55.5390070  33.2085160  28.7262800  55.8528690
  33.0920730  30.2180240  56.0831250  37.5005020  18.4372270  65.8714510
  36.8849290  18.9451940  65.3429970  37.1801440  17.5370600  65.8140450
  20.5030760  25.2789880  62.6980810  20.6661800  24.8095240  61.8800180
  20.9683210  24.7713440  63.3629650  25.2749530  14.4095640  57.7341380
  24.8317680  15.1905180  57.4025900  25.8334520  14.7325530  58.4412320
  29.5619340  17.2764160  63.3376700  29.0998710  17.4847180  64.1496640
  29.1597450  16.4623510  63.0347370  34.5623850  18.4973110  64.4673360
  33.7117440  18.1978860  64.7882430  34.4025640  18.7415120  63.5557180
  31.6573560  19.9974860  66.5672150  31.9826970  19.1638610  66.2274380
  32.4453890  20.5203380  66.7150480  28.3908350  14.0306340  52.6147210
  27.7662530  14.0266210  53.3400520  28.3038470  13.1637300  52.2183180
  27.3125430  14.9542970  59.5930980  27.6097760  15.8605800  59.5123000
  27.8610990  14.4661750  58.9790550  25.0663750  19.5329210  55.4622630
  24.8404670  19.3166380  56.3669250  24.2856280  19.9657670  55.1168600
  32.2961510  19.5392580  54.0613280  31.6970400  20.2628380  53.8776900
  32.8441120  19.4769360  53.2789730  27.5062960  20.4314790  66.1282900
  27.4106560  19.4909520  65.9783300  28.3494940  20.6529860  65.7330970
  30.9026380  18.1756120  56.0916560  31.2955950  18.4928320  55.2785250
  31.2643230  17.2968000  56.2061080  22.6373500  16.8428460  64.2816680
  22.2436890  17.6903670  64.4889460  21.9491900  16.2054830  64.4725320
  29.2118550  16.9263430  67.3513420  28.5216870  16.7335630  67.9859510
  29.9550850  17.2098070  67.8837720  19.9390550  14.7656920  58.3146760
  19.6503600  15.3359780  59.0271740  20.6836310  14.2861370  58.6777990
  20.1260780  18.7077040  49.5249480  20.0435450  19.6507800  49.6664470
  19.7743840  18.5651950  48.6461830  31.4881520  20.7661870  60.1867340
  30.7562640  21.2748680  60.5357440  31.0905860  19.9491850  59.8856120
  27.9258910  17.4416070  58.5919830  27.9294970  17.0006020  57.7424370
  28.8210030  17.7633400  58.6991650  23.7761290  17.3242560  57.5514040
  23.4361340  17.8017790  58.3081090  23.0138610  16.8707680  57.1915140
  27.9879060  18.4428150  51.5826590  28.1091880  18.4014630  52.5312410
  27.6027570  19.3052300  51.4273320  31.9507430  16.2195550  59.5990280
  31.9680170  16.6704200  60.4432130  31.7023010  15.3201190  59.8123720
  27.0000560  20.7529290  50.9809890  26.4317460  20.3047540  50.3545800
  27.7089560  21.1122070  50.4475040  35.3778180  13.6327730  65.4376660
  35.7023950  12.9017390  65.9634640  35.4134690  13.3141370  64.5357650
  22.0769740  24.6541310  64.8576620  21.6924530  24.0134980  65.4559580
  22.3881930  25.3577430  65.4271350  28.2266880  21.5017850  60.3385240
  28.5937010  21.0276420  61.0846580  28.0371940  22.3759420  60.6793580
  21.0907370  16.2461540  56.4678710  20.8054290  15.8817210  57.3057330
  21.0286230  15.5142000  55.8541850  26.0166250  20.5426490  62.6569450
  25.7123320  21.4218470  62.8819810  26.9712710  20.6026280  62.6926890
  24.5448040  24.7487480  53.2536300  23.7710300  24.2085100  53.0935020
  25.2742670  24.2294090  52.9154060  35.3036020  23.7452840  59.0462690
  36.0235140  24.2408130  58.6558800  35.1017840  23.0670730  58.4016560
  30.7645960  15.1390800  53.1892080  29.9510570  14.6403970  53.1137390
  30.5707910  15.9789050  52.7728430  30.6854820  23.8161900  64.9331690
  30.6192130  22.8957570  64.6789280  30.0559960  23.9137340  65.6476330
  33.4794350  19.5110450  51.4854240  34.3673970  19.8227680  51.3105580
  33.4499440  18.6382700  51.0934820  24.5885440  24.4167860  56.8915110
  25.1064110  23.6136120  56.8372000  24.1369460  24.3547000  57.7331940
  29.4754940  25.6834140  52.1642410  29.8170640  26.4276370  51.6685730
  28.6467650  25.9965260  52.5267240  22.0729980  21.3829230  63.8040810
  21.7144920  22.0483080  64.3914150  21.7784540  20.5512780  64.1753430
  25.2743100  21.8413470  66.6880360  24.9743240  21.9870650  65.7908180
  26.0454340  21.2818760  66.5953750  30.6171550  26.6382470  64.6835490
  30.6316090  25.7063430  64.4654400  29.9096650  26.7242230  65.3225260
  35.7508620  20.8222290  50.9534100  35.6672340  21.2536510  50.1030540
  36.4702810  21.2820640  51.3860920  36.8282760  23.2789810  64.0304070
  36.1030950  23.8718590  63.8333460  37.3558220  23.2713350  63.2317440
  36.7795870  27.6764550  53.6816230  36.1372030  27.0220170  53.9559950
  36.3926530  28.0819640  52.9056900  32.3582350  25.0049980  57.5287920
  32.7106170  24.4078110  56.8689290  31.4744680  24.6794210  57.6996170
  28.4445630  25.7647670  54.9358330  29.1316760  26.3116880  55.3165920
  27.6578050  26.3088400  54.9707940  20.5838030  21.3820490  50.4275410
  21.4532880  21.6645290  50.7111330  20.0928350  22.1956360  50.3124220
  27.7472840  22.7693700  54.5483690  28.2035620  23.5798950  54.7743880
  27.3961050  22.4516840  55.3802180  30.0505450  28.2800040  61.7775990
  30.6947670  28.4859420  62.4549410  30.4134890  27.5188440  61.3246840
  23.6484620  13.1131350  55.0206210  23.5199250  13.1049250  55.9691130
  22.8246640  13.4514440  54.6697220  31.3237530  26.2832390  60.4953440
  31.9659760  25.5825550  60.6085610  31.8486880  27.0630830  60.3150330
  35.1693250  26.5681010  50.2192580  34.9430830  25.8511450  50.8117220
  34.7789450  26.3193450  49.3814330  33.0975150  27.0827290  63.6989500
  33.4331390  27.6693980  64.3767420  32.1775490  26.9520000  63.9287290
  20.9509280  30.5947870  50.9937040  21.3106920  31.1937210  50.3394310
  20.8101620  31.1407760  51.7672070  20.6478550  14.8722470  64.4812910
  19.9337070  15.0719390  65.0865520  21.0673590  14.0962040  64.8527710
  34.7509500  24.4852950  51.8806740  34.4631200  24.9465640  52.6684620
  35.5461670  24.0250720  52.1490960  20.9351140  28.8602730  65.4679440
  21.0442260  27.9197470  65.3274830  20.2831700  29.1257480  64.8193170
  28.9263730  27.1318620  66.8677560  28.6060600  26.4127860  67.4123250
  28.2522090  27.8073690  66.9413620  26.9677900  27.9779070  51.8110710
  26.9588000  28.7108760  51.1955220  26.0476260  27.7310650  51.9037670
  22.5684540  23.1993960  52.5557470  21.9612490  23.9392860  52.5652770
  23.0433890  23.2893320  51.7295670  32.1417330  17.3644780  62.2314360
  32.5098150  16.5439990  62.5593930  31.2815530  17.4246670  62.6470010
  35.5079360  16.3201720  53.0401920  34.8792520  16.4247390  52.3260150
  35.0131280  16.5398500  53.8295800  29.9537500  28.0407310  50.4735900
  30.0549480  27.8371300  49.5437880  29.0539240  27.7865590  50.6783680
  27.4763390  18.5987670  54.4559800  26.7679540  19.0674010  54.8973410
  27.7607870  17.9409680  55.0904990  29.1019320  20.0184370  62.4552330
  29.6004570  20.4930190  63.1204180  29.2442270  19.0947890  62.6622360
  31.5078820  15.3238330  55.8955590  31.3846600  15.3424460  54.9465100
  32.4563380  15.3717270  56.0153990  28.5955610  30.5593630  55.1683570
  28.8497110  30.5215020  54.2462940  27.6468090  30.4326960  55.1611820
  25.6798410  16.9072750  51.8310510  26.5288940  17.3442900  51.7650700
  25.3129680  17.2193010  52.6582570  36.3086180  16.2352330  63.2980720
  35.8059780  16.9757730  63.6374530  37.1242840  16.6236330  62.9817510
  34.6008190  21.4785510  56.7442080  33.6598330  21.4935740  56.9189770
  34.9152260  20.6921470  57.1902380  24.5789830  23.1605110  50.3046040
  25.3453100  23.0486470  50.8671470  24.6564520  22.4643080  49.6522810
  23.2736590  20.5930180  50.9878930  23.3540180  19.6457690  51.0996330
  24.1656340  20.9237060  51.0939590  36.6033770  28.6494360  58.4196340
  36.7281190  29.4725530  58.8920150  37.4699330  28.4385090  58.0720490
  24.0751300  30.7425570  58.0913470  24.8113780  30.1941030  58.3622040
  24.4592220  31.6081580  57.9519460  20.9596780  26.8099140  53.9654980
  20.0336560  27.0520280  53.9560390  21.4253210  27.6373400  53.8439730
  23.0809580  29.9271640  67.2799050  23.8822310  30.2483690  67.6934450
  22.5661400  29.5667220  68.0018960  27.1853610  29.9155880  49.9139040
  27.9782220  30.2044710  49.4620830  26.6657960  29.4848050  49.2351520
  31.9174210  26.0351510  67.2274460  31.3112370  26.0583110  66.4870210
  31.6128320  25.3034550  67.7641710  33.3474580  29.7631800  65.8383870
  34.2996330  29.6789820  65.7884110  33.2002800  30.4273510  66.5117660
  36.2383780  29.1426010  51.3375780  35.9525290  28.7291150  50.5229960
  36.0403330  30.0713720  51.2176300  20.8007390  22.4145100  66.2235100
  21.3046410  21.8352380  66.7951330  20.0614810  22.6985330  66.7611470
  27.7031010  25.1359290  49.7781390  27.5981650  24.5211640  50.5042770
  27.5355230  24.6125180  48.9944400  27.8545330  23.8216090  65.7570620
  27.0891000  24.3901090  65.6725290  28.0361290  23.5292300  64.8638850
  30.9433740  24.1979320  50.3823380  30.3943840  24.6448620  51.0266120
  31.5653000  23.6928570  50.9061050  34.9968680  25.5521420  66.3145640
  35.7378150  25.8897180  65.8113100  34.2341360  25.7213480  65.7615410
  22.8330470  20.5574690  67.1185170  22.8735810  20.2588560  68.0270400
  23.6875970  20.9582300  66.9592690  26.6108860  23.1570240  52.2788680
  27.0325280  22.9910110  53.1220070  26.7359700  22.3470470  51.7843820
  24.7736280  19.1366790  65.0859660  24.2432740  18.6457740  64.4583000
  25.4424350  19.5650990  64.5517590  29.1236500  22.1807850  49.5265780
  29.6442160  21.4656870  49.1606930  29.7704900  22.8193720  49.8266290
  33.6714340  23.6036250  64.8500850  34.0855360  23.7581330  65.6991270
  32.7365340  23.7291470  65.0126630  34.1436510  20.9432410  66.8540000
  34.7257280  20.1884730  66.7660480  34.3198280  21.4739850  66.0771480
  25.2608580  16.1029160  65.1656950  25.1665450  15.4849910  64.4407820
  24.6805970  16.8295450  64.9386860  28.0270020  14.6602400  62.1984340
  27.5787320  14.6826660  61.3529890  27.3935220  14.2621420  62.7954640
  28.4329570  23.5556730  62.8196780  28.8517680  24.3989460  62.6473020
  27.5138200  23.6928770  62.5903560  30.7693470  21.2872910  64.2034620
  30.8889680  20.6914050  64.9429460  31.6287470  21.3242600  63.7835920
  33.1081370  21.8410100  62.7797130  32.5816590  22.3652720  62.1762270
  33.4512710  22.4737490  63.4106860  25.5067760  19.2303470  49.2246840
  25.3056820  18.3670830  49.5860180  25.3359810  19.1436830  48.2868440
  26.2836990  29.8609740  63.9354510  25.7458080  30.5855800  63.6163210
  26.5370950  29.3840080  63.1451850  27.5362240  17.8294260  65.4610440
  28.1261930  17.5210110  66.1488260  26.7182480  17.3574010  65.6170340
  32.3555670  17.4460070  65.6943460  31.6671190  16.7841610  65.6293450
  33.0761690  16.9998340  66.1391920  32.9856070  14.0411700  51.7533720
  33.2658360  13.1979600  52.1093140  32.2121800  14.2734810  52.2672470
  24.3050560  16.3304090  49.2124720  24.6076460  16.3371520  48.3043870
  25.0445150  15.9801950  49.7092380  29.1399200  31.0960950  64.1941160
  29.0657900  31.9996090  64.5013530  28.2378040  30.7772850  64.1663230
  27.5235490  15.2738710  50.1980920  27.1757490  14.5962700  49.6183370
  27.7248260  14.8128220  51.0124310  29.6884530  30.2619460  51.8167520
  30.5835320  30.6004430  51.8386280  29.7202160  29.5398870  51.1891800
  23.3280690  25.6346510  50.0454520  23.7655560  26.1776180  50.7012100
  23.8128420  24.8093460  50.0550860  20.5426490  28.4235540  57.4974780
  20.8729500  27.5556600  57.2653420  20.9717490  28.6294060  58.3279740
  25.1388410  26.7544550  55.1576750  24.8383950  26.6309520  56.0580660
  25.0325900  25.8953140  54.7492480  21.0316700  29.2906130  60.2356410
  20.5947690  29.4706930  61.0680560  21.5994380  30.0480750  60.0938130
  36.6678880  28.7923130  64.5233720  36.0680870  28.8515690  63.7797640
  36.7972780  27.8528110  64.6530570  37.9080330  26.5340950  49.8603430
  37.0773290  26.6017600  50.3310660  38.0852160  27.4245070  49.5570290
  37.3636790  23.2788430  52.3637630  38.1255700  23.8485080  52.4697320
  37.3791160  22.7115630  53.1345940  20.8641130  21.8026360  56.5945290
  20.2089970  21.5338000  55.9504990  21.7019080  21.6930840  56.1447270
  38.3696760  24.1338530  57.2079560  38.7405590  23.3505850  56.8015530
  39.0098690  24.8227630  57.0296860  35.3530520  25.5175110  62.6209880
  34.5390360  25.9472270  62.8835670  35.7604720  26.1293520  62.0078930
  37.4155960  23.5722800  49.5210150  37.6904800  24.4801680  49.3929370
  37.2266700  23.5085330  50.4572140  33.8131570  16.5967650  50.8163780
  34.2316450  16.4098630  49.9760440  33.5067630  15.7446700  51.1266710
  37.3121300  21.5091790  54.5139580  36.9364900  20.7419720  54.0820870
  36.5824420  21.8914490  55.0014510  21.9017060  22.1878930  61.1348630
  22.2690100  22.1006330  62.0144650  21.3327880  21.4245480  61.0355490
  36.7020920  20.6563310  64.1479100  36.4707010  20.4276060  63.2477050
  36.9625470  21.5762860  64.1023990  21.4533060  19.0988020  65.0407050
  20.5589110  19.0654780  65.3800760  21.9930610  19.2974810  65.8058300
  35.1408990  15.8819740  66.9258800  36.0179170  15.8903140  67.3092800
  35.1529830  15.1450580  66.3151150  20.0779210  19.0125290  52.5370620
  19.1743290  19.2755490  52.3622280  20.5619830  19.2836460  51.7570580
  36.5872260  19.7349280  57.8146820  37.1109740  19.2411930  57.1836990
  37.1731680  19.8699640  58.5594390  36.7661980  19.8189150  61.3366370
  35.8164690  19.7852690  61.4511360  36.9474990  20.7289260  61.1016140
  22.6206420  18.0690830  50.4465000  23.3298120  17.6474050  49.9612280
  21.9046360  18.1366060  49.8148350  22.2680580  14.1230160  49.4867650
  22.9908710  14.6639100  49.8048870  22.5405100  13.8493580  48.6109190
  36.0772230  18.9922630  53.7539230  36.5731350  18.7593500  54.5388110
  35.8788300  18.1534470  53.3376870  21.9572770  13.3736350  59.3890270
  22.6048960  12.8233730  58.9485430  22.3774610  13.6279500  60.2106080
  37.5059390  17.6283580  56.2876910  37.3958670  17.4739620  57.2259180
  38.2666980  17.1004520  56.0452320  35.8525110  13.5677710  62.7459910
  36.4897330  14.1811850  63.1119100  36.0000000  13.6038370  61.8009140
  38.3949660  15.4591500  49.5283050  39.3198970  15.3272680  49.3201340
  38.3725450  15.5384320  50.4819500  38.4688150  16.2302160  52.1539760
  37.6739650  16.1647280  52.6832670  38.6731430  17.1652800  52.1425110
  35.4106570  30.2693710  56.1478150  36.0065640  29.9478280  55.4712570
  35.6684720  29.7965530  56.9391420  21.7104770  13.5292020  62.1315590
  21.3619590  13.9855840  62.8973770  21.3792470  12.6349150  62.2138020
  23.3169140  26.7011620  66.2968780  23.2738770  26.3304530  67.1783240
  23.4480150  27.6389190  66.4370600  27.0175170  28.2571210  61.8978500
  26.7766530  28.5245770  61.0109020  27.9577810  28.4276940  61.9529360
  29.2229590  14.7203900  65.6535010  29.1618480  15.3125730  66.4030420
  30.1629970  14.6129860  65.5085270  31.8604150  14.3773960  65.2927300
  32.4744560  14.6953250  64.6308380  32.4053710  13.8922550  65.9123160
  38.2779330  30.2765590  62.6989140  37.7837610  30.6734460  61.9816270
  37.6692620  29.6514800  63.0926420  22.3825410  13.0568220  65.4066360
  22.9308400  12.8756270  64.6432470  22.4480720  12.2662330  65.9422670
  23.1557170  29.6473870  63.4166560  22.5617490  29.5158570  64.1556600
  23.1481010  28.8112010  62.9508660  32.6012190  12.9406100  61.6196590
  31.7272030  13.2741210  61.4169520  32.4922940  12.4679280  62.4448460
  33.5084170  15.1476970  63.0038310  33.1797530  14.3328730  62.6240040
  34.4566470  15.1046780  62.8804000  35.9618780  30.9189010  59.9775880
  35.5021750  31.6704820  59.6033900  35.3331240  30.1995480  59.9190680
  22.7869400  27.0132250  62.3674600  22.0603460  26.3937540  62.3000550
  22.8478550  27.4072860  61.4972680  26.3914500  29.2277250  59.1524010
  26.9079520  28.6164610  58.6272270  27.0411880  29.7306030  59.6435020
  29.1310000  30.1185740  59.9792990  29.4187810  29.8640040  59.1026000
  29.6433220  29.5663100  60.5698560  30.3487010  13.8575940  60.5589500
  29.5658800  14.3321440  60.8386260  30.0549940  12.9530770  60.4502680
  34.9008080  14.5599040  58.6038590  35.3416170  14.5044140  57.7560190
  34.6315670  15.4757050  58.6748770  36.7646650  14.1914280  56.6147410
  36.7035050  13.2475500  56.4678430  37.5438680  14.2994370  57.1600870
  21.0699400  30.3306640  55.5771360  20.9021440  29.6977320  56.2753250
  20.2033910  30.5366040  55.2265550  21.6927420  14.1623420  53.0803220
  22.4506780  14.2752300  52.5067250  21.2304590  14.9992620  53.0346650
  28.2341230  16.2762690  56.0705530  27.4215740  15.9019580  55.7301410
  28.7382870  15.5207770  56.3726720  32.7366210  12.9405140  57.3088600
  33.3395580  13.5125350  57.7837120  31.9959200  13.5044580  57.0862500
  35.8800810  13.3426700  52.5828880  36.0751440  14.2410150  52.8496310
  35.0930680  13.1113780  53.0761830  22.6762100  29.0239870  53.0221500
  22.1509720  29.4047900  52.3183460  22.6006680  29.6490640  53.7431210
  24.0652570  14.6887470  51.6205190  24.5945330  13.9017270  51.4913140
  24.6980890  15.3678660  51.8540720  26.2590410  14.4262610  54.6750580
  25.6293150  13.7249920  54.8420710  25.7195550  15.1866740  54.4583740
  29.1982360  31.0401840  67.3461190  30.1249670  30.8046110  67.3897150
  29.1832790  31.8673840  66.8647220  26.3845970  13.7046590  67.1103070
  26.1030240  14.2080190  66.3463890  26.7665670  12.9068340  66.7445200
  25.2755070  30.9722250  51.8970750  26.0073890  30.6881530  51.3494640
  25.5348740  30.7335530  52.7870130  24.4369860  27.0886980  51.9017080
  23.8078740  27.5572080  52.4502910  24.5517690  26.2436200  52.3363270
  32.9861430  13.1200170  67.6883540  32.8726880  13.4394780  68.5835060
  33.8031170  13.5212680  67.3920820  35.7659920  30.2671700  67.1702230
  36.5585240  29.7720930  66.9628190  36.0593070  30.9461840  67.7777840
  31.8919580  21.1392640  38.0518280  31.8113630  20.2247250  37.7809990
  31.4784000  21.6359710  37.3457990  30.0237620  22.9171660  39.9327550
  29.2479720  22.4372100  40.2226120  30.6750550  22.2377310  39.7583710
  24.0403450  23.2291470  40.8103310  23.2088330  22.9740180  41.2099820
  24.6484430  23.3002240  41.5461230  34.0445050  27.3231850  38.7126680
  33.5826580  26.5519090  39.0413850  34.8570600  27.3497920  39.2179130
  24.0204710  27.2631560  41.0061330  24.3232750  26.3729300  40.8271550
  24.7648300  27.8201780  40.7783580  22.4495400  18.1893360  34.5945700
  21.5612100  18.5309330  34.4925580  22.7336590  17.9893680  33.7026530
  20.4128410  20.7899010  40.4785400  20.9844520  20.0221210  40.4789040
  20.4129950  21.0887770  39.5692010  30.2708360  29.6089860  38.3330670
  29.6519800  30.0647360  37.7625110  31.1260140  29.7641320  37.9320370
  29.4646610  25.5928850  39.9397710  29.3954890  24.6518790  39.7786840
  30.2266470  25.6830260  40.5120280  21.6553280  16.1983370  42.2654330
  21.4756120  15.3009120  42.5457090  21.2533360  16.7455240  42.9401280
  30.4951780  18.3999230  40.1666640  30.8716600  17.5271110  40.0540310
  30.3971290  18.7357930  39.2757080  24.6256790  16.7724860  35.6284080
  24.7323540  17.6728590  35.9352840  23.7149150  16.7242830  35.3378730
  34.2775900  15.8949670  37.0994980  35.0985520  15.4046240  37.1420460
  34.3109980  16.4847330  37.8526820  22.2739950  18.6943870  40.8736670
  22.9550060  18.9582240  41.4924070  21.9588000  17.8544740  41.2074680
  26.4664520  19.7411230  39.9609260  26.9742740  20.2392200  40.6014280
  26.9977760  18.9646430  39.7848620  38.5675450  17.9116420  43.6638610
  37.8627620  18.2998130  43.1453720  38.8333370  18.6066710  44.2659540
  24.7500620  14.3809790  44.2272680  24.7519060  14.8982180  43.4218580
  23.9204930  13.9039970  44.2042610  31.1371710  24.4929100  35.7262580
  30.5188980  24.9578550  35.1625300  31.6494960  25.1856580  36.1432090
  26.0003470  24.0204970  42.4046180  25.6672850  24.6473890  43.0467250
  26.1770150  24.5466850  41.6247850  34.5137380  17.8350050  39.8722520
  33.8092950  18.1234940  40.4525630  34.8749540  18.6450160  39.5122080
  24.4315950  16.0919750  42.2343130  24.7732760  16.9361800  41.9397000
  23.4931760  16.2403490  42.3508470  25.2122570  25.9885770  44.2195360
  25.8296570  26.6636850  43.9379810  24.3515690  26.3973750  44.1282860
  20.5054910  25.1785630  33.1002210  20.1282890  25.6672730  32.3687110
  20.7627980  25.8510910  33.7308740  36.1300160  27.4525180  42.1350000
  35.4463680  28.1224290  42.1266670  36.6694450  27.6505830  41.3694860
  37.5824300  17.2804840  40.2631730  36.6349210  17.3143820  40.3947160
  37.9074290  18.0943790  40.6481090  28.1143840  13.5802020  38.5587720
  28.4218820  13.0248910  37.8423220  27.1844540  13.7146480  38.3760710
  33.6658900  29.2969310  40.8495180  33.6786060  28.8931600  39.9817440
  33.1134120  30.0716600  40.7456610  34.9604320  26.0185530  35.9385350
  34.8500650  25.0759860  36.0634770  34.9572570  26.3801170  36.8248110
  33.0644340  24.1999150  42.1777790  33.4813130  23.9859260  41.3431250
  33.7884160  24.4571940  42.7486410  30.5024600  21.6450850  35.2947840
  29.5753880  21.5788230  35.5236310  30.6549420  22.5830980  35.1803080
  30.4893680  17.9167850  32.2915000  29.5497350  18.0781810  32.3767460
  30.8076940  18.6353530  31.7450990  37.0106440  22.5986370  42.2694030
  36.1825070  22.6679460  41.7944160  37.6056920  23.1840680  41.8009860
  34.5321890  23.2071150  35.7983090  33.9134310  22.8690700  35.1509390
  34.5146340  22.5630910  36.5062280  33.9748450  19.3855690  43.2148900
  33.5619630  20.2109400  43.4688890  33.2424400  18.8000730  43.0225260
  26.1081240  22.1715590  38.0767570  25.7038240  21.4592840  37.5813470
  26.1944360  21.8268830  38.9655610  26.5762940  25.8583150  40.2406780
  26.2791230  25.2528620  39.5614560  27.5262760  25.8960460  40.1296140
  24.8209860  18.9458800  41.8566610  25.3724450  19.0554140  41.0819860
  25.3353370  19.3196400  42.5721840  34.6648550  29.4315020  43.9029880
  34.1879110  30.2387210  43.7102490  33.9810340  28.7793350  44.0556090
  25.6681370  25.5964840  46.8914580  24.7709900  25.8204810  47.1387980
  25.6934240  25.7199780  45.9425980  32.7086590  22.4457960  32.8055840
  33.1479870  21.6080390  32.6593660  33.4215010  23.0787360  32.8919980
  24.4952590  22.4678160  45.4671950  24.3560360  23.3400960  45.8359350
  23.6133950  22.1250970  45.3219890  30.8181970  27.3854030  36.7737080
  31.2577880  28.1278360  36.3592470  30.7568860  27.6280600  37.6976040
  26.2932940  28.4099860  47.6757100  26.2648370  28.8142810  46.8085530
  26.1297910  27.4810220  47.5128700  36.2903730  13.7000770  31.1196880
  35.9776390  13.7927600  32.0195950  37.0516200  14.2781800  31.0694310
  22.8085870  21.0660570  35.5774220  22.6883470  21.7922660  34.9655490
  22.4986760  20.2963480  35.1002130  38.2447760  29.1926960  48.9721270
  38.7207480  29.6709850  49.6510350  38.8654920  29.1244450  48.2466770
  20.4471240  24.2375710  41.3842860  20.5251660  24.3724480  40.4398580
  21.0612920  23.5291600  41.5770980  21.6918870  25.9375900  37.7949040
  21.2846950  26.0790490  36.9402640  22.5831880  25.6536060  37.5920250
  37.6481010  26.3839810  46.1321280  37.7744070  26.1451690  45.2138460
  37.6902390  25.5524350  46.6043360  31.5097750  30.0867810  44.7016090
  32.0242420  29.9975820  45.5038520  30.6666830  30.4327510  44.9944000
  33.4852150  30.3723150  34.1300090  33.3253290  30.0826090  35.0281920
  33.3198860  29.5963280  33.5945320  25.9640530  30.1521680  35.9071710
  25.7883010  29.2357220  35.6939510  25.1096270  30.5108970  36.1469510
  33.1878280  27.8810710  32.6898090  32.4943440  27.8788000  32.0300370
  33.9301140  27.4570030  32.2592260  32.7528210  29.5073420  36.7646580
  33.2085160  28.7262800  37.0785200  33.0920730  30.2180240  37.3087760
  37.5005020  18.4372270  47.0971020  36.8849290  18.9451940  46.5686480
  37.1801440  17.5370600  47.0396960  20.5030760  25.2789880  43.9237320
  20.6661800  24.8095240  43.1056690  20.9683210  24.7713440  44.5886160
  25.2749530  14.4095640  38.9597890  24.8317680  15.1905180  38.6282410
  25.8334520  14.7325530  39.6668830  29.5619340  17.2764160  44.5633210
  29.0998710  17.4847180  45.3753150  29.1597450  16.4623510  44.2603880
  34.5623850  18.4973110  45.6929870  33.7117440  18.1978860  46.0138940
  34.4025640  18.7415120  44.7813690  31.6573560  19.9974860  47.7928660
  31.9826970  19.1638610  47.4530890  32.4453890  20.5203380  47.9406990
  28.3908350  14.0306340  33.8403720  27.7662530  14.0266210  34.5657030
  28.3038470  13.1637300  33.4439690  27.3125430  14.9542970  40.8187490
  27.6097760  15.8605800  40.7379510  27.8610990  14.4661750  40.2047060
  25.0663750  19.5329210  36.6879140  24.8404670  19.3166380  37.5925760
  24.2856280  19.9657670  36.3425110  32.2961510  19.5392580  35.2869790
  31.6970400  20.2628380  35.1033410  32.8441120  19.4769360  34.5046240
  27.5062960  20.4314790  47.3539410  27.4106560  19.4909520  47.2039810
  28.3494940  20.6529860  46.9587480  30.9026380  18.1756120  37.3173070
  31.2955950  18.4928320  36.5041760  31.2643230  17.2968000  37.4317590
  22.6373500  16.8428460  45.5073190  22.2436890  17.6903670  45.7145970
  21.9491900  16.2054830  45.6981830  29.2118550  16.9263430  48.5769930
  28.5216870  16.7335630  49.2116020  29.9550850  17.2098070  49.1094230
  19.9390550  14.7656920  39.5403270  19.6503600  15.3359780  40.2528250
  20.6836310  14.2861370  39.9034500  20.1260780  18.7077040  30.7505990
  20.0435450  19.6507800  30.8920980  19.7743840  18.5651950  29.8718340
  31.4881520  20.7661870  41.4123850  30.7562640  21.2748680  41.7613950
  31.0905860  19.9491850  41.1112630  27.9258910  17.4416070  39.8176340
  27.9294970  17.0006020  38.9680880  28.8210030  17.7633400  39.9248160
  23.7761290  17.3242560  38.7770550  23.4361340  17.8017790  39.5337600
  23.0138610  16.8707680  38.4171650  27.9879060  18.4428150  32.8083100
  28.1091880  18.4014630  33.7568920  27.6027570  19.3052300  32.6529830
  31.9507430  16.2195550  40.8246790  31.9680170  16.6704200  41.6688640
  31.7023010  15.3201190  41.0380230  27.0000560  20.7529290  32.2066400
  26.4317460  20.3047540  31.5802310  27.7089560  21.1122070  31.6731550
  35.3778180  13.6327730  46.6633170  35.7023950  12.9017390  47.1891150
  35.4134690  13.3141370  45.7614160  22.0769740  24.6541310  46.0833130
  21.6924530  24.0134980  46.6816090  22.3881930  25.3577430  46.6527860
  28.2266880  21.5017850  41.5641750  28.5937010  21.0276420  42.3103090
  28.0371940  22.3759420  41.9050090  21.0907370  16.2461540  37.6935220
  20.8054290  15.8817210  38.5313840  21.0286230  15.5142000  37.0798360
  26.0166250  20.5426490  43.8825960  25.7123320  21.4218470  44.1076320
  26.9712710  20.6026280  43.9183400  24.5448040  24.7487480  34.4792810
  23.7710300  24.2085100  34.3191530  25.2742670  24.2294090  34.1410570
  35.3036020  23.7452840  40.2719200  36.0235140  24.2408130  39.8815310
  35.1017840  23.0670730  39.6273070  30.7645960  15.1390800  34.4148590
  29.9510570  14.6403970  34.3393900  30.5707910  15.9789050  33.9984940
  30.6854820  23.8161900  46.1588200  30.6192130  22.8957570  45.9045790
  30.0559960  23.9137340  46.8732840  33.4794350  19.5110450  32.7110750
  34.3673970  19.8227680  32.5362090  33.4499440  18.6382700  32.3191330
  24.5885440  24.4167860  38.1171620  25.1064110  23.6136120  38.0628510
  24.1369460  24.3547000  38.9588450  29.4754940  25.6834140  33.3898920
  29.8170640  26.4276370  32.8942240  28.6467650  25.9965260  33.7523750
  22.0729980  21.3829230  45.0297320  21.7144920  22.0483080  45.6170660
  21.7784540  20.5512780  45.4009940  25.2743100  21.8413470  47.9136870
  24.9743240  21.9870650  47.0164690  26.0454340  21.2818760  47.8210260
  30.6171550  26.6382470  45.9092000  30.6316090  25.7063430  45.6910910
  29.9096650  26.7242230  46.5481770  35.7508620  20.8222290  32.1790610
  35.6672340  21.2536510  31.3287050  36.4702810  21.2820640  32.6117430
  36.8282760  23.2789810  45.2560580  36.1030950  23.8718590  45.0589970
  37.3558220  23.2713350  44.4573950  36.7795870  27.6764550  34.9072740
  36.1372030  27.0220170  35.1816460  36.3926530  28.0819640  34.1313410
  32.3582350  25.0049980  38.7544430  32.7106170  24.4078110  38.0945800
  31.4744680  24.6794210  38.9252680  28.4445630  25.7647670  36.1614840
  29.1316760  26.3116880  36.5422430  27.6578050  26.3088400  36.1964450
  20.5838030  21.3820490  31.6531920  21.4532880  21.6645290  31.9367840
  20.0928350  22.1956360  31.5380730  27.7472840  22.7693700  35.7740200
  28.2035620  23.5798950  36.0000390  27.3961050  22.4516840  36.6058690
  30.0505450  28.2800040  43.0032500  30.6947670  28.4859420  43.6805920
  30.4134890  27.5188440  42.5503350  23.6484620  13.1131350  36.2462720
  23.5199250  13.1049250  37.1947640  22.8246640  13.4514440  35.8953730
  31.3237530  26.2832390  41.7209950  31.9659760  25.5825550  41.8342120
  31.8486880  27.0630830  41.5406840  35.1693250  26.5681010  31.4449090
  34.9430830  25.8511450  32.0373730  34.7789450  26.3193450  30.6070840
  33.0975150  27.0827290  44.9246010  33.4331390  27.6693980  45.6023930
  32.1775490  26.9520000  45.1543800  20.9509280  30.5947870  32.2193550
  21.3106920  31.1937210  31.5650820  20.8101620  31.1407760  32.9928580
  20.6478550  14.8722470  45.7069420  19.9337070  15.0719390  46.3122030
  21.0673590  14.0962040  46.0784220  34.7509500  24.4852950  33.1063250
  34.4631200  24.9465640  33.8941130  35.5461670  24.0250720  33.3747470
  20.9351140  28.8602730  46.6935950  21.0442260  27.9197470  46.5531340
  20.2831700  29.1257480  46.0449680  28.9263730  27.1318620  48.0934070
  28.6060600  26.4127860  48.6379760  28.2522090  27.8073690  48.1670130
  26.9677900  27.9779070  33.0367220  26.9588000  28.7108760  32.4211730
  26.0476260  27.7310650  33.1294180  22.5684540  23.1993960  33.7813980
  21.9612490  23.9392860  33.7909280  23.0433890  23.2893320  32.9552180
  32.1417330  17.3644780  43.4570870  32.5098150  16.5439990  43.7850440
  31.2815530  17.4246670  43.8726520  35.5079360  16.3201720  34.2658430
  34.8792520  16.4247390  33.5516660  35.0131280  16.5398500  35.0552310
  29.9537500  28.0407310  31.6992410  30.0549480  27.8371300  30.7694390
  29.0539240  27.7865590  31.9040190  27.4763390  18.5987670  35.6816310
  26.7679540  19.0674010  36.1229920  27.7607870  17.9409680  36.3161500
  29.1019320  20.0184370  43.6808840  29.6004570  20.4930190  44.3460690
  29.2442270  19.0947890  43.8878870  31.5078820  15.3238330  37.1212100
  31.3846600  15.3424460  36.1721610  32.4563380  15.3717270  37.2410500
  28.5955610  30.5593630  36.3940080  28.8497110  30.5215020  35.4719450
  27.6468090  30.4326960  36.3868330  25.6798410  16.9072750  33.0567020
  26.5288940  17.3442900  32.9907210  25.3129680  17.2193010  33.8839080
  36.3086180  16.2352330  44.5237230  35.8059780  16.9757730  44.8631040
  37.1242840  16.6236330  44.2074020  34.6008190  21.4785510  37.9698590
  33.6598330  21.4935740  38.1446280  34.9152260  20.6921470  38.4158890
  24.5789830  23.1605110  31.5302550  25.3453100  23.0486470  32.0927980
  24.6564520  22.4643080  30.8779320  23.2736590  20.5930180  32.2135440
  23.3540180  19.6457690  32.3252840  24.1656340  20.9237060  32.3196100
  36.6033770  28.6494360  39.6452850  36.7281190  29.4725530  40.1176660
  37.4699330  28.4385090  39.2977000  24.0751300  30.7425570  39.3169980
  24.8113780  30.1941030  39.5878550  24.4592220  31.6081580  39.1775970
  20.9596780  26.8099140  35.1911490  20.0336560  27.0520280  35.1816900
  21.4253210  27.6373400  35.0696240  23.0809580  29.9271640  48.5055560
  23.8822310  30.2483690  48.9190960  22.5661400  29.5667220  49.2275470
  27.1853610  29.9155880  31.1395550  27.9782220  30.2044710  30.6877340
  26.6657960  29.4848050  30.4608030  31.9174210  26.0351510  48.4530970
  31.3112370  26.0583110  47.7126720  31.6128320  25.3034550  48.9898220
  33.3474580  29.7631800  47.0640380  34.2996330  29.6789820  47.0140620
  33.2002800  30.4273510  47.7374170  36.2383780  29.1426010  32.5632290
  35.9525290  28.7291150  31.7486470  36.0403330  30.0713720  32.4432810
  20.8007390  22.4145100  47.4491610  21.3046410  21.8352380  48.0207840
  20.0614810  22.6985330  47.9867980  27.7031010  25.1359290  31.0037900
  27.5981650  24.5211640  31.7299280  27.5355230  24.6125180  30.2200910
  27.8545330  23.8216090  46.9827130  27.0891000  24.3901090  46.8981800
  28.0361290  23.5292300  46.0895360  30.9433740  24.1979320  31.6079890
  30.3943840  24.6448620  32.2522630  31.5653000  23.6928570  32.1317560
  34.9968680  25.5521420  47.5402150  35.7378150  25.8897180  47.0369610
  34.2341360  25.7213480  46.9871920  22.8330470  20.5574690  48.3441680
  22.8735810  20.2588560  49.2526910  23.6875970  20.9582300  48.1849200
  26.6108860  23.1570240  33.5045190  27.0325280  22.9910110  34.3476580
  26.7359700  22.3470470  33.0100330  24.7736280  19.1366790  46.3116170
  24.2432740  18.6457740  45.6839510  25.4424350  19.5650990  45.7774100
  29.1236500  22.1807850  30.7522290  29.6442160  21.4656870  30.3863440
  29.7704900  22.8193720  31.0522800  33.6714340  23.6036250  46.0757360
  34.0855360  23.7581330  46.9247780  32.7365340  23.7291470  46.2383140
  34.1436510  20.9432410  48.0796510  34.7257280  20.1884730  47.9916990
  34.3198280  21.4739850  47.3027990  25.2608580  16.1029160  46.3913460
  25.1665450  15.4849910  45.6664330  24.6805970  16.8295450  46.1643370
  28.0270020  14.6602400  43.4240850  27.5787320  14.6826660  42.5786400
  27.3935220  14.2621420  44.0211150  28.4329570  23.5556730  44.0453290
  28.8517680  24.3989460  43.8729530  27.5138200  23.6928770  43.8160070
  30.7693470  21.2872910  45.4291130  30.8889680  20.6914050  46.1685970
  31.6287470  21.3242600  45.0092430  33.1081370  21.8410100  44.0053640
  32.5816590  22.3652720  43.4018780  33.4512710  22.4737490  44.6363370
  25.5067760  19.2303470  30.4503350  25.3056820  18.3670830  30.8116690
  25.3359810  19.1436830  29.5124950  26.2836990  29.8609740  45.1611020
  25.7458080  30.5855800  44.8419720  26.5370950  29.3840080  44.3708360
  27.5362240  17.8294260  46.6866950  28.1261930  17.5210110  47.3744770
  26.7182480  17.3574010  46.8426850  32.3555670  17.4460070  46.9199970
  31.6671190  16.7841610  46.8549960  33.0761690  16.9998340  47.3648430
  32.9856070  14.0411700  32.9790230  33.2658360  13.1979600  33.3349650
  32.2121800  14.2734810  33.4928980  24.3050560  16.3304090  30.4381230
  24.6076460  16.3371520  29.5300380  25.0445150  15.9801950  30.9348890
  29.1399200  31.0960950  45.4197670  29.0657900  31.9996090  45.7270040
  28.2378040  30.7772850  45.3919740  27.5235490  15.2738710  31.4237430
  27.1757490  14.5962700  30.8439880  27.7248260  14.8128220  32.2380820
  29.6884530  30.2619460  33.0424030  30.5835320  30.6004430  33.0642790
  29.7202160  29.5398870  32.4148310  23.3280690  25.6346510  31.2711030
  23.7655560  26.1776180  31.9268610  23.8128420  24.8093460  31.2807370
  20.5426490  28.4235540  38.7231290  20.8729500  27.5556600  38.4909930
  20.9717490  28.6294060  39.5536250  25.1388410  26.7544550  36.3833260
  24.8383950  26.6309520  37.2837170  25.0325900  25.8953140  35.9748990
  21.0316700  29.2906130  41.4612920  20.5947690  29.4706930  42.2937070
  21.5994380  30.0480750  41.3194640  36.6678880  28.7923130  45.7490230
  36.0680870  28.8515690  45.0054150  36.7972780  27.8528110  45.8787080
  37.9080330  26.5340950  31.0859940  37.0773290  26.6017600  31.5567170
  38.0852160  27.4245070  30.7826800  37.3636790  23.2788430  33.5894140
  38.1255700  23.8485080  33.6953830  37.3791160  22.7115630  34.3602450
  20.8641130  21.8026360  37.8201800  20.2089970  21.5338000  37.1761500
  21.7019080  21.6930840  37.3703780  38.3696760  24.1338530  38.4336070
  38.7405590  23.3505850  38.0272040  39.0098690  24.8227630  38.2553370
  35.3530520  25.5175110  43.8466390  34.5390360  25.9472270  44.1092180
  35.7604720  26.1293520  43.2335440  37.4155960  23.5722800  30.7466660
  37.6904800  24.4801680  30.6185880  37.2266700  23.5085330  31.6828650
  33.8131570  16.5967650  32.0420290  34.2316450  16.4098630  31.2016950
  33.5067630  15.7446700  32.3523220  37.3121300  21.5091790  35.7396090
  36.9364900  20.7419720  35.3077380  36.5824420  21.8914490  36.2271020
  21.9017060  22.1878930  42.3605140  22.2690100  22.1006330  43.2401160
  21.3327880  21.4245480  42.2612000  36.7020920  20.6563310  45.3735610
  36.4707010  20.4276060  44.4733560  36.9625470  21.5762860  45.3280500
  21.4533060  19.0988020  46.2663560  20.5589110  19.0654780  46.6057270
  21.9930610  19.2974810  47.0314810  35.1408990  15.8819740  48.1515310
  36.0179170  15.8903140  48.5349310  35.1529830  15.1450580  47.5407660
  20.0779210  19.0125290  33.7627130  19.1743290  19.2755490  33.5878790
  20.5619830  19.2836460  32.9827090  36.5872260  19.7349280  39.0403330
  37.1109740  19.2411930  38.4093500  37.1731680  19.8699640  39.7850900
  36.7661980  19.8189150  42.5622880  35.8164690  19.7852690  42.6767870
  36.9474990  20.7289260  42.3272650  22.6206420  18.0690830  31.6721510
  23.3298120  17.6474050  31.1868790  21.9046360  18.1366060  31.0404860
  22.2680580  14.1230160  30.7124160  22.9908710  14.6639100  31.0305380
  22.5405100  13.8493580  29.8365700  36.0772230  18.9922630  34.9795740
  36.5731350  18.7593500  35.7644620  35.8788300  18.1534470  34.5633380
  21.9572770  13.3736350  40.6146780  22.6048960  12.8233730  40.1741940
  22.3774610  13.6279500  41.4362590  37.5059390  17.6283580  37.5133420
  37.3958670  17.4739620  38.4515690  38.2666980  17.1004520  37.2708830
  35.8525110  13.5677710  43.9716420  36.4897330  14.1811850  44.3375610
  36.0000000  13.6038370  43.0265650  38.3949660  15.4591500  30.7539560
  39.3198970  15.3272680  30.5457850  38.3725450  15.5384320  31.7076010
  38.4688150  16.2302160  33.3796270  37.6739650  16.1647280  33.9089180
  38.6731430  17.1652800  33.3681620  35.4106570  30.2693710  37.3734660
  36.0065640  29.9478280  36.6969080  35.6684720  29.7965530  38.1647930
  21.7104770  13.5292020  43.3572100  21.3619590  13.9855840  44.1230280
  21.3792470  12.6349150  43.4394530  23.3169140  26.7011620  47.5225290
  23.2738770  26.3304530  48.4039750  23.4480150  27.6389190  47.6627110
  27.0175170  28.2571210  43.1235010  26.7766530  28.5245770  42.2365530
  27.9577810  28.4276940  43.1785870  29.2229590  14.7203900  46.8791520
  29.1618480  15.3125730  47.6286930  30.1629970  14.6129860  46.7341780
  31.8604150  14.3773960  46.5183810  32.4744560  14.6953250  45.8564890
  32.4053710  13.8922550  47.1379670  38.2779330  30.2765590  43.9245650
  37.7837610  30.6734460  43.2072780  37.6692620  29.6514800  44.3182930
  22.3825410  13.0568220  46.6322870  22.9308400  12.8756270  45.8688980
  22.4480720  12.2662330  47.1679180  23.1557170  29.6473870  44.6423070
  22.5617490  29.5158570  45.3813110  23.1481010  28.8112010  44.1765170
  32.6012190  12.9406100  42.8453100  31.7272030  13.2741210  42.6426030
  32.4922940  12.4679280  43.6704970  33.5084170  15.1476970  44.2294820
  33.1797530  14.3328730  43.8496550  34.4566470  15.1046780  44.1060510
  35.9618780  30.9189010  41.2032390  35.5021750  31.6704820  40.8290410
  35.3331240  30.1995480  41.1447190  22.7869400  27.0132250  43.5931110
  22.0603460  26.3937540  43.5257060  22.8478550  27.4072860  42.7229190
  26.3914500  29.2277250  40.3780520  26.9079520  28.6164610  39.8528780
  27.0411880  29.7306030  40.8691530  29.1310000  30.1185740  41.2049500
  29.4187810  29.8640040  40.3282510  29.6433220  29.5663100  41.7955070
  30.3487010  13.8575940  41.7846010  29.5658800  14.3321440  42.0642770
  30.0549940  12.9530770  41.6759190  34.9008080  14.5599040  39.8295100
  35.3416170  14.5044140  38.9816700  34.6315670  15.4757050  39.9005280
  36.7646650  14.1914280  37.8403920  36.7035050  13.2475500  37.6934940
  37.5438680  14.2994370  38.3857380  21.0699400  30.3306640  36.8027870
  20.9021440  29.6977320  37.5009760  20.2033910  30.5366040  36.4522060
  21.6927420  14.1623420  34.3059730  22.4506780  14.2752300  33.7323760
  21.2304590  14.9992620  34.2603160  28.2341230  16.2762690  37.2962040
  27.4215740  15.9019580  36.9557920  28.7382870  15.5207770  37.5983230
  32.7366210  12.9405140  38.5345110  33.3395580  13.5125350  39.0093630
  31.9959200  13.5044580  38.3119010  35.8800810  13.3426700  33.8085390
  36.0751440  14.2410150  34.0752820  35.0930680  13.1113780  34.3018340
  22.6762100  29.0239870  34.2478010  22.1509720  29.4047900  33.5439970
  22.6006680  29.6490640  34.9687720  24.0652570  14.6887470  32.8461700
  24.5945330  13.9017270  32.7169650  24.6980890  15.3678660  33.0797230
  26.2590410  14.4262610  35.9007090  25.6293150  13.7249920  36.0677220
  25.7195550  15.1866740  35.6840250  29.1982360  31.0401840  48.5717700
  30.1249670  30.8046110  48.6153660  29.1832790  31.8673840  48.0903730
  37.4327420  30.5827410  35.5691950  37.6079610  29.8965150  34.9252870
  36.7348990  31.1074460  35.1768620  26.3845970  13.7046590  48.3359580
  26.1030240  14.2080190  47.5720400  26.7665670  12.9068340  47.9701710
  25.2755070  30.9722250  33.1227260  26.0073890  30.6881530  32.5751150
  25.5348740  30.7335530  34.0126640  24.4369860  27.0886980  33.1273590
  23.8078740  27.5572080  33.6759420  24.5517690  26.2436200  33.5619780
  32.9861430  13.1200170  48.9140050  32.8726880  13.4394780  49.8091570
  33.8031170  13.5212680  48.6177330  35.7659920  30.2671700  48.3958740
  36.5585240  29.7720930  48.1884700  36.0593070  30.9461840  49.0034350
  31.8919580  21.1392640  19.2774790  31.8113630  20.2247250  19.0066500
  31.4784000  21.6359710  18.5714500  30.0237620  22.9171660  21.1584060
  29.2479720  22.4372100  21.4482630  30.6750550  22.2377310  20.9840220
  24.0403450  23.2291470  22.0359820  23.2088330  22.9740180  22.4356330
  24.6484430  23.3002240  22.7717740  34.0445050  27.3231850  19.9383190
  33.5826580  26.5519090  20.2670360  34.8570600  27.3497920  20.4435640
  24.0204710  27.2631560  22.2317840  24.3232750  26.3729300  22.0528060
  24.7648300  27.8201780  22.0040090  22.4495400  18.1893360  15.8202210
  21.5612100  18.5309330  15.7182090  22.7336590  17.9893680  14.9283040
  20.4128410  20.7899010  21.7041910  20.9844520  20.0221210  21.7045550
  20.4129950  21.0887770  20.7948520  30.2708360  29.6089860  19.5587180
  29.6519800  30.0647360  18.9881620  31.1260140  29.7641320  19.1576880
  29.4646610  25.5928850  21.1654220  29.3954890  24.6518790  21.0043350
  30.2266470  25.6830260  21.7376790  21.6553280  16.1983370  23.4910840
  21.4756120  15.3009120  23.7713600  21.2533360  16.7455240  24.1657790
  30.4951780  18.3999230  21.3923150  30.8716600  17.5271110  21.2796820
  30.3971290  18.7357930  20.5013590  24.6256790  16.7724860  16.8540590
  24.7323540  17.6728590  17.1609350  23.7149150  16.7242830  16.5635240
  34.2775900  15.8949670  18.3251490  35.0985520  15.4046240  18.3676970
  34.3109980  16.4847330  19.0783330  22.2739950  18.6943870  22.0993180
  22.9550060  18.9582240  22.7180580  21.9588000  17.8544740  22.4331190
  26.4664520  19.7411230  21.1865770  26.9742740  20.2392200  21.8270790
  26.9977760  18.9646430  21.0105130  38.5675450  17.9116420  24.8895120
  37.8627620  18.2998130  24.3710230  38.8333370  18.6066710  25.4916050
  24.7500620  14.3809790  25.4529190  24.7519060  14.8982180  24.6475090
  23.9204930  13.9039970  25.4299120  31.1371710  24.4929100  16.9519090
  30.5188980  24.9578550  16.3881810  31.6494960  25.1856580  17.3688600
  26.0003470  24.0204970  23.6302690  25.6672850  24.6473890  24.2723760
  26.1770150  24.5466850  22.8504360  34.5137380  17.8350050  21.0979030
  33.8092950  18.1234940  21.6782140  34.8749540  18.6450160  20.7378590
  24.4315950  16.0919750  23.4599640  24.7732760  16.9361800  23.1653510
  23.4931760  16.2403490  23.5764980  25.2122570  25.9885770  25.4451870
  25.8296570  26.6636850  25.1636320  24.3515690  26.3973750  25.3539370
  20.5054910  25.1785630  14.3258720  20.1282890  25.6672730  13.5943620
  20.7627980  25.8510910  14.9565250  36.1300160  27.4525180  23.3606510
  35.4463680  28.1224290  23.3523180  36.6694450  27.6505830  22.5951370
  37.5824300  17.2804840  21.4888240  36.6349210  17.3143820  21.6203670
  37.9074290  18.0943790  21.8737600  28.1143840  13.5802020  19.7844230
  28.4218820  13.0248910  19.0679730  27.1844540  13.7146480  19.6017220
  33.6658900  29.2969310  22.0751690  33.6786060  28.8931600  21.2073950
  33.1134120  30.0716600  21.9713120  34.9604320  26.0185530  17.1641860
  34.8500650  25.0759860  17.2891280  34.9572570  26.3801170  18.0504620
  33.0644340  24.1999150  23.4034300  33.4813130  23.9859260  22.5687760
  33.7884160  24.4571940  23.9742920  30.5024600  21.6450850  16.5204350
  29.5753880  21.5788230  16.7492820  30.6549420  22.5830980  16.4059590
  30.4893680  17.9167850  13.5171510  29.5497350  18.0781810  13.6023970
  30.8076940  18.6353530  12.9707500  37.0106440  22.5986370  23.4950540
  36.1825070  22.6679460  23.0200670  37.6056920  23.1840680  23.0266370
  34.5321890  23.2071150  17.0239600  33.9134310  22.8690700  16.3765900
  34.5146340  22.5630910  17.7318790  33.9748450  19.3855690  24.4405410
  33.5619630  20.2109400  24.6945400  33.2424400  18.8000730  24.2481770
  26.1081240  22.1715590  19.3024080  25.7038240  21.4592840  18.8069980
  26.1944360  21.8268830  20.1912120  26.5762940  25.8583150  21.4663290
  26.2791230  25.2528620  20.7871070  27.5262760  25.8960460  21.3552650
  24.8209860  18.9458800  23.0823120  25.3724450  19.0554140  22.3076370
  25.3353370  19.3196400  23.7978350  34.6648550  29.4315020  25.1286390
  34.1879110  30.2387210  24.9359000  33.9810340  28.7793350  25.2812600
  25.6681370  25.5964840  28.1171090  24.7709900  25.8204810  28.3644490
  25.6934240  25.7199780  27.1682490  32.7086590  22.4457960  14.0312350
  33.1479870  21.6080390  13.8850170  33.4215010  23.0787360  14.1176490
  24.4952590  22.4678160  26.6928460  24.3560360  23.3400960  27.0615860
  23.6133950  22.1250970  26.5476400  30.8181970  27.3854030  17.9993590
  31.2577880  28.1278360  17.5848980  30.7568860  27.6280600  18.9232550
  26.2932940  28.4099860  28.9013610  26.2648370  28.8142810  28.0342040
  26.1297910  27.4810220  28.7385210  36.2903730  13.7000770  12.3453390
  35.9776390  13.7927600  13.2452460  37.0516200  14.2781800  12.2950820
  22.8085870  21.0660570  16.8030730  22.6883470  21.7922660  16.1912000
  22.4986760  20.2963480  16.3258640  38.2447760  29.1926960  30.1977780
  38.7207480  29.6709850  30.8766860  38.8654920  29.1244450  29.4723280
  20.4471240  24.2375710  22.6099370  20.5251660  24.3724480  21.6655090
  21.0612920  23.5291600  22.8027490  21.6918870  25.9375900  19.0205550
  21.2846950  26.0790490  18.1659150  22.5831880  25.6536060  18.8176760
  37.6481010  26.3839810  27.3577790  37.7744070  26.1451690  26.4394970
  37.6902390  25.5524350  27.8299870  31.5097750  30.0867810  25.9272600
  32.0242420  29.9975820  26.7295030  30.6666830  30.4327510  26.2200510
  33.4852150  30.3723150  15.3556600  33.3253290  30.0826090  16.2538430
  33.3198860  29.5963280  14.8201830  25.9640530  30.1521680  17.1328220
  25.7883010  29.2357220  16.9196020  25.1096270  30.5108970  17.3726020
  33.1878280  27.8810710  13.9154600  32.4943440  27.8788000  13.2556880
  33.9301140  27.4570030  13.4848770  32.7528210  29.5073420  17.9903090
  33.2085160  28.7262800  18.3041710  33.0920730  30.2180240  18.5344270
  37.5005020  18.4372270  28.3227530  36.8849290  18.9451940  27.7942990
  37.1801440  17.5370600  28.2653470  20.5030760  25.2789880  25.1493830
  20.6661800  24.8095240  24.3313200  20.9683210  24.7713440  25.8142670
  25.2749530  14.4095640  20.1854400  24.8317680  15.1905180  19.8538920
  25.8334520  14.7325530  20.8925340  29.5619340  17.2764160  25.7889720
  29.0998710  17.4847180  26.6009660  29.1597450  16.4623510  25.4860390
  34.5623850  18.4973110  26.9186380  33.7117440  18.1978860  27.2395450
  34.4025640  18.7415120  26.0070200  31.6573560  19.9974860  29.0185170
  31.9826970  19.1638610  28.6787400  32.4453890  20.5203380  29.1663500
  28.3908350  14.0306340  15.0660230  27.7662530  14.0266210  15.7913540
  28.3038470  13.1637300  14.6696200  27.3125430  14.9542970  22.0444000
  27.6097760  15.8605800  21.9636020  27.8610990  14.4661750  21.4303570
  25.0663750  19.5329210  17.9135650  24.8404670  19.3166380  18.8182270
  24.2856280  19.9657670  17.5681620  32.2961510  19.5392580  16.5126300
  31.6970400  20.2628380  16.3289920  32.8441120  19.4769360  15.7302750
  27.5062960  20.4314790  28.5795920  27.4106560  19.4909520  28.4296320
  28.3494940  20.6529860  28.1843990  30.9026380  18.1756120  18.5429580
  31.2955950  18.4928320  17.7298270  31.2643230  17.2968000  18.6574100
  22.6373500  16.8428460  26.7329700  22.2436890  17.6903670  26.9402480
  21.9491900  16.2054830  26.9238340  29.2118550  16.9263430  29.8026440
  28.5216870  16.7335630  30.4372530  29.9550850  17.2098070  30.3350740
  19.9390550  14.7656920  20.7659780  19.6503600  15.3359780  21.4784760
  20.6836310  14.2861370  21.1291010  20.1260780  18.7077040  11.9762500
  20.0435450  19.6507800  12.1177490  19.7743840  18.5651950  11.0974850
  31.4881520  20.7661870  22.6380360  30.7562640  21.2748680  22.9870460
  31.0905860  19.9491850  22.3369140  27.9258910  17.4416070  21.0432850
  27.9294970  17.0006020  20.1937390  28.8210030  17.7633400  21.1504670
  23.7761290  17.3242560  20.0027060  23.4361340  17.8017790  20.7594110
  23.0138610  16.8707680  19.6428160  27.9879060  18.4428150  14.0339610
  28.1091880  18.4014630  14.9825430  27.6027570  19.3052300  13.8786340
  31.9507430  16.2195550  22.0503300  31.9680170  16.6704200  22.8945150
  31.7023010  15.3201190  22.2636740  27.0000560  20.7529290  13.4322910
  26.4317460  20.3047540  12.8058820  27.7089560  21.1122070  12.8988060
  35.3778180  13.6327730  27.8889680  35.7023950  12.9017390  28.4147660
  35.4134690  13.3141370  26.9870670  22.0769740  24.6541310  27.3089640
  21.6924530  24.0134980  27.9072600  22.3881930  25.3577430  27.8784370
  28.2266880  21.5017850  22.7898260  28.5937010  21.0276420  23.5359600
  28.0371940  22.3759420  23.1306600  21.0907370  16.2461540  18.9191730
  20.8054290  15.8817210  19.7570350  21.0286230  15.5142000  18.3054870
  26.0166250  20.5426490  25.1082470  25.7123320  21.4218470  25.3332830
  26.9712710  20.6026280  25.1439910  24.5448040  24.7487480  15.7049320
  23.7710300  24.2085100  15.5448040  25.2742670  24.2294090  15.3667080
  35.3036020  23.7452840  21.4975710  36.0235140  24.2408130  21.1071820
  35.1017840  23.0670730  20.8529580  30.7645960  15.1390800  15.6405100
  29.9510570  14.6403970  15.5650410  30.5707910  15.9789050  15.2241450
  30.6854820  23.8161900  27.3844710  30.6192130  22.8957570  27.1302300
  30.0559960  23.9137340  28.0989350  33.4794350  19.5110450  13.9367260
  34.3673970  19.8227680  13.7618600  33.4499440  18.6382700  13.5447840
  24.5885440  24.4167860  19.3428130  25.1064110  23.6136120  19.2885020
  24.1369460  24.3547000  20.1844960  29.4754940  25.6834140  14.6155430
  29.8170640  26.4276370  14.1198750  28.6467650  25.9965260  14.9780260
  22.0729980  21.3829230  26.2553830  21.7144920  22.0483080  26.8427170
  21.7784540  20.5512780  26.6266450  25.2743100  21.8413470  29.1393380
  24.9743240  21.9870650  28.2421200  26.0454340  21.2818760  29.0466770
  30.6171550  26.6382470  27.1348510  30.6316090  25.7063430  26.9167420
  29.9096650  26.7242230  27.7738280  35.7508620  20.8222290  13.4047120
  35.6672340  21.2536510  12.5543560  36.4702810  21.2820640  13.8373940
  36.8282760  23.2789810  26.4817090  36.1030950  23.8718590  26.2846480
  37.3558220  23.2713350  25.6830460  36.7795870  27.6764550  16.1329250
  36.1372030  27.0220170  16.4072970  36.3926530  28.0819640  15.3569920
  32.3582350  25.0049980  19.9800940  32.7106170  24.4078110  19.3202310
  31.4744680  24.6794210  20.1509190  28.4445630  25.7647670  17.3871350
  29.1316760  26.3116880  17.7678940  27.6578050  26.3088400  17.4220960
  20.5838030  21.3820490  12.8788430  21.4532880  21.6645290  13.1624350
  20.0928350  22.1956360  12.7637240  27.7472840  22.7693700  16.9996710
  28.2035620  23.5798950  17.2256900  27.3961050  22.4516840  17.8315200
  30.0505450  28.2800040  24.2289010  30.6947670  28.4859420  24.9062430
  30.4134890  27.5188440  23.7759860  23.6484620  13.1131350  17.4719230
  23.5199250  13.1049250  18.4204150  22.8246640  13.4514440  17.1210240
  31.3237530  26.2832390  22.9466460  31.9659760  25.5825550  23.0598630
  31.8486880  27.0630830  22.7663350  35.1693250  26.5681010  12.6705600
  34.9430830  25.8511450  13.2630240  34.7789450  26.3193450  11.8327350
  33.0975150  27.0827290  26.1502520  33.4331390  27.6693980  26.8280440
  32.1775490  26.9520000  26.3800310  20.9509280  30.5947870  13.4450060
  21.3106920  31.1937210  12.7907330  20.8101620  31.1407760  14.2185090
  20.6478550  14.8722470  26.9325930  19.9337070  15.0719390  27.5378540
  21.0673590  14.0962040  27.3040730  34.7509500  24.4852950  14.3319760
  34.4631200  24.9465640  15.1197640  35.5461670  24.0250720  14.6003980
  20.9351140  28.8602730  27.9192460  21.0442260  27.9197470  27.7787850
  20.2831700  29.1257480  27.2706190  28.9263730  27.1318620  29.3190580
  28.6060600  26.4127860  29.8636270  28.2522090  27.8073690  29.3926640
  26.9677900  27.9779070  14.2623730  26.9588000  28.7108760  13.6468240
  26.0476260  27.7310650  14.3550690  22.5684540  23.1993960  15.0070490
  21.9612490  23.9392860  15.0165790  23.0433890  23.2893320  14.1808690
  32.1417330  17.3644780  24.6827380  32.5098150  16.5439990  25.0106950
  31.2815530  17.4246670  25.0983030  35.5079360  16.3201720  15.4914940
  34.8792520  16.4247390  14.7773170  35.0131280  16.5398500  16.2808820
  29.9537500  28.0407310  12.9248920  30.0549480  27.8371300  11.9950900
  29.0539240  27.7865590  13.1296700  27.4763390  18.5987670  16.9072820
  26.7679540  19.0674010  17.3486430  27.7607870  17.9409680  17.5418010
  29.1019320  20.0184370  24.9065350  29.6004570  20.4930190  25.5717200
  29.2442270  19.0947890  25.1135380  31.5078820  15.3238330  18.3468610
  31.3846600  15.3424460  17.3978120  32.4563380  15.3717270  18.4667010
  28.5955610  30.5593630  17.6196590  28.8497110  30.5215020  16.6975960
  27.6468090  30.4326960  17.6124840  25.6798410  16.9072750  14.2823530
  26.5288940  17.3442900  14.2163720  25.3129680  17.2193010  15.1095590
  36.3086180  16.2352330  25.7493740  35.8059780  16.9757730  26.0887550
  37.1242840  16.6236330  25.4330530  34.6008190  21.4785510  19.1955100
  33.6598330  21.4935740  19.3702790  34.9152260  20.6921470  19.6415400
  24.5789830  23.1605110  12.7559060  25.3453100  23.0486470  13.3184490
  24.6564520  22.4643080  12.1035830  23.2736590  20.5930180  13.4391950
  23.3540180  19.6457690  13.5509350  24.1656340  20.9237060  13.5452610
  36.6033770  28.6494360  20.8709360  36.7281190  29.4725530  21.3433170
  37.4699330  28.4385090  20.5233510  24.0751300  30.7425570  20.5426490
  24.8113780  30.1941030  20.8135060  24.4592220  31.6081580  20.4032480
  20.9596780  26.8099140  16.4168000  20.0336560  27.0520280  16.4073410
  21.4253210  27.6373400  16.2952750  23.0809580  29.9271640  29.7312070
  23.8822310  30.2483690  30.1447470  22.5661400  29.5667220  30.4531980
  27.1853610  29.9155880  12.3652060  27.9782220  30.2044710  11.9133850
  26.6657960  29.4848050  11.6864540  31.9174210  26.0351510  29.6787480
  31.3112370  26.0583110  28.9383230  31.6128320  25.3034550  30.2154730
  33.3474580  29.7631800  28.2896890  34.2996330  29.6789820  28.2397130
  33.2002800  30.4273510  28.9630680  36.2383780  29.1426010  13.7888800
  35.9525290  28.7291150  12.9742980  36.0403330  30.0713720  13.6689320
  20.8007390  22.4145100  28.6748120  21.3046410  21.8352380  29.2464350
  20.0614810  22.6985330  29.2124490  27.7031010  25.1359290  12.2294410
  27.5981650  24.5211640  12.9555790  27.5355230  24.6125180  11.4457420
  27.8545330  23.8216090  28.2083640  27.0891000  24.3901090  28.1238310
  28.0361290  23.5292300  27.3151870  30.9433740  24.1979320  12.8336400
  30.3943840  24.6448620  13.4779140  31.5653000  23.6928570  13.3574070
  34.9968680  25.5521420  28.7658660  35.7378150  25.8897180  28.2626120
  34.2341360  25.7213480  28.2128430  22.8330470  20.5574690  29.5698190
  22.8735810  20.2588560  30.4783420  23.6875970  20.9582300  29.4105710
  26.6108860  23.1570240  14.7301700  27.0325280  22.9910110  15.5733090
  26.7359700  22.3470470  14.2356840  24.7736280  19.1366790  27.5372680
  24.2432740  18.6457740  26.9096020  25.4424350  19.5650990  27.0030610
  29.1236500  22.1807850  11.9778800  29.6442160  21.4656870  11.6119950
  29.7704900  22.8193720  12.2779310  33.6714340  23.6036250  27.3013870
  34.0855360  23.7581330  28.1504290  32.7365340  23.7291470  27.4639650
  34.1436510  20.9432410  29.3053020  34.7257280  20.1884730  29.2173500
  34.3198280  21.4739850  28.5284500  25.2608580  16.1029160  27.6169970
  25.1665450  15.4849910  26.8920840  24.6805970  16.8295450  27.3899880
  28.0270020  14.6602400  24.6497360  27.5787320  14.6826660  23.8042910
  27.3935220  14.2621420  25.2467660  28.4329570  23.5556730  25.2709800
  28.8517680  24.3989460  25.0986040  27.5138200  23.6928770  25.0416580
  30.7693470  21.2872910  26.6547640  30.8889680  20.6914050  27.3942480
  31.6287470  21.3242600  26.2348940  33.1081370  21.8410100  25.2310150
  32.5816590  22.3652720  24.6275290  33.4512710  22.4737490  25.8619880
  25.5067760  19.2303470  11.6759860  25.3056820  18.3670830  12.0373200
  25.3359810  19.1436830  10.7381460  26.2836990  29.8609740  26.3867530
  25.7458080  30.5855800  26.0676230  26.5370950  29.3840080  25.5964870
  27.5362240  17.8294260  27.9123460  28.1261930  17.5210110  28.6001280
  26.7182480  17.3574010  28.0683360  32.3555670  17.4460070  28.1456480
  31.6671190  16.7841610  28.0806470  33.0761690  16.9998340  28.5904940
  32.9856070  14.0411700  14.2046740  33.2658360  13.1979600  14.5606160
  32.2121800  14.2734810  14.7185490  24.3050560  16.3304090  11.6637740
  24.6076460  16.3371520  10.7556890  25.0445150  15.9801950  12.1605400
  29.1399200  31.0960950  26.6454180  29.0657900  31.9996090  26.9526550
  28.2378040  30.7772850  26.6176250  27.5235490  15.2738710  12.6493940
  27.1757490  14.5962700  12.0696390  27.7248260  14.8128220  13.4637330
  29.6884530  30.2619460  14.2680540  30.5835320  30.6004430  14.2899300
  29.7202160  29.5398870  13.6404820  23.3280690  25.6346510  12.4967540
  23.7655560  26.1776180  13.1525120  23.8128420  24.8093460  12.5063880
  20.5426490  28.4235540  19.9487800  20.8729500  27.5556600  19.7166440
  20.9717490  28.6294060  20.7792760  25.1388410  26.7544550  17.6089770
  24.8383950  26.6309520  18.5093680  25.0325900  25.8953140  17.2005500
  21.0316700  29.2906130  22.6869430  20.5947690  29.4706930  23.5193580
  21.5994380  30.0480750  22.5451150  36.6678880  28.7923130  26.9746740
  36.0680870  28.8515690  26.2310660  36.7972780  27.8528110  27.1043590
  37.9080330  26.5340950  12.3116450  37.0773290  26.6017600  12.7823680
  38.0852160  27.4245070  12.0083310  37.3636790  23.2788430  14.8150650
  38.1255700  23.8485080  14.9210340  37.3791160  22.7115630  15.5858960
  20.8641130  21.8026360  19.0458310  20.2089970  21.5338000  18.4018010
  21.7019080  21.6930840  18.5960290  38.3696760  24.1338530  19.6592580
  38.7405590  23.3505850  19.2528550  39.0098690  24.8227630  19.4809880
  35.3530520  25.5175110  25.0722900  34.5390360  25.9472270  25.3348690
  35.7604720  26.1293520  24.4591950  37.4155960  23.5722800  11.9723170
  37.6904800  24.4801680  11.8442390  37.2266700  23.5085330  12.9085160
  33.8131570  16.5967650  13.2676800  34.2316450  16.4098630  12.4273460
  33.5067630  15.7446700  13.5779730  37.3121300  21.5091790  16.9652600
  36.9364900  20.7419720  16.5333890  36.5824420  21.8914490  17.4527530
  21.9017060  22.1878930  23.5861650  22.2690100  22.1006330  24.4657670
  21.3327880  21.4245480  23.4868510  36.7020920  20.6563310  26.5992120
  36.4707010  20.4276060  25.6990070  36.9625470  21.5762860  26.5537010
  21.4533060  19.0988020  27.4920070  20.5589110  19.0654780  27.8313780
  21.9930610  19.2974810  28.2571320  35.1408990  15.8819740  29.3771820
  36.0179170  15.8903140  29.7605820  35.1529830  15.1450580  28.7664170
  20.0779210  19.0125290  14.9883640  19.1743290  19.2755490  14.8135300
  20.5619830  19.2836460  14.2083600  36.5872260  19.7349280  20.2659840
  37.1109740  19.2411930  19.6350010  37.1731680  19.8699640  21.0107410
  36.7661980  19.8189150  23.7879390  35.8164690  19.7852690  23.9024380
  36.9474990  20.7289260  23.5529160  22.6206420  18.0690830  12.8978020
  23.3298120  17.6474050  12.4125300  21.9046360  18.1366060  12.2661370
  22.2680580  14.1230160  11.9380670  22.9908710  14.6639100  12.2561890
  22.5405100  13.8493580  11.0622210  36.0772230  18.9922630  16.2052250
  36.5731350  18.7593500  16.9901130  35.8788300  18.1534470  15.7889890
  21.9572770  13.3736350  21.8403290  22.6048960  12.8233730  21.3998450
  22.3774610  13.6279500  22.6619100  37.5059390  17.6283580  18.7389930
  37.3958670  17.4739620  19.6772200  38.2666980  17.1004520  18.4965340
  35.8525110  13.5677710  25.1972930  36.4897330  14.1811850  25.5632120
  36.0000000  13.6038370  24.2522160  38.3949660  15.4591500  11.9796070
  39.3198970  15.3272680  11.7714360  38.3725450  15.5384320  12.9332520
  38.4688150  16.2302160  14.6052780  37.6739650  16.1647280  15.1345690
  38.6731430  17.1652800  14.5938130  35.4106570  30.2693710  18.5991170
  36.0065640  29.9478280  17.9225590  35.6684720  29.7965530  19.3904440
  21.7104770  13.5292020  24.5828610  21.3619590  13.9855840  25.3486790
  21.3792470  12.6349150  24.6651040  23.3169140  26.7011620  28.7481800
  23.2738770  26.3304530  29.6296260  23.4480150  27.6389190  28.8883620
  27.0175170  28.2571210  24.3491520  26.7766530  28.5245770  23.4622040
  27.9577810  28.4276940  24.4042380  29.2229590  14.7203900  28.1048030
  29.1618480  15.3125730  28.8543440  30.1629970  14.6129860  27.9598290
  31.8604150  14.3773960  27.7440320  32.4744560  14.6953250  27.0821400
  32.4053710  13.8922550  28.3636180  38.2779330  30.2765590  25.1502160
  37.7837610  30.6734460  24.4329290  37.6692620  29.6514800  25.5439440
  22.3825410  13.0568220  27.8579380  22.9308400  12.8756270  27.0945490
  22.4480720  12.2662330  28.3935690  23.1557170  29.6473870  25.8679580
  22.5617490  29.5158570  26.6069620  23.1481010  28.8112010  25.4021680
  32.6012190  12.9406100  24.0709610  31.7272030  13.2741210  23.8682540
  32.4922940  12.4679280  24.8961480  33.5084170  15.1476970  25.4551330
  33.1797530  14.3328730  25.0753060  34.4566470  15.1046780  25.3317020
  35.9618780  30.9189010  22.4288900  35.5021750  31.6704820  22.0546920
  35.3331240  30.1995480  22.3703700  22.7869400  27.0132250  24.8187620
  22.0603460  26.3937540  24.7513570  22.8478550  27.4072860  23.9485700
  26.3914500  29.2277250  21.6037030  26.9079520  28.6164610  21.0785290
  27.0411880  29.7306030  22.0948040  29.1310000  30.1185740  22.4306010
  29.4187810  29.8640040  21.5539020  29.6433220  29.5663100  23.0211580
  30.3487010  13.8575940  23.0102520  29.5658800  14.3321440  23.2899280
  30.0549940  12.9530770  22.9015700  34.9008080  14.5599040  21.0551610
  35.3416170  14.5044140  20.2073210  34.6315670  15.4757050  21.1261790
  36.7646650  14.1914280  19.0660430  36.7035050  13.2475500  18.9191450
  37.5438680  14.2994370  19.6113890  21.0699400  30.3306640  18.0284380
  20.9021440  29.6977320  18.7266270  20.2033910  30.5366040  17.6778570
  21.6927420  14.1623420  15.5316240  22.4506780  14.2752300  14.9580270
  21.2304590  14.9992620  15.4859670  28.2341230  16.2762690  18.5218550
  27.4215740  15.9019580  18.1814430  28.7382870  15.5207770  18.8239740
  32.7366210  12.9405140  19.7601620  33.3395580  13.5125350  20.2350140
  31.9959200  13.5044580  19.5375520  35.8800810  13.3426700  15.0341900
  36.0751440  14.2410150  15.3009330  35.0930680  13.1113780  15.5274850
  22.6762100  29.0239870  15.4734520  22.1509720  29.4047900  14.7696480
  22.6006680  29.6490640  16.1944230  24.0652570  14.6887470  14.0718210
  24.5945330  13.9017270  13.9426160  24.6980890  15.3678660  14.3053740
  26.2590410  14.4262610  17.1263600  25.6293150  13.7249920  17.2933730
  25.7195550  15.1866740  16.9096760  29.1982360  31.0401840  29.7974210
  30.1249670  30.8046110  29.8410170  29.1832790  31.8673840  29.3160240
  37.4327420  30.5827410  16.7948460  37.6079610  29.8965150  16.1509380
  36.7348990  31.1074460  16.4025130  26.3845970  13.7046590  29.5616090
  26.1030240  14.2080190  28.7976910  26.7665670  12.9068340  29.1958220
  25.2755070  30.9722250  14.3483770  26.0073890  30.6881530  13.8007660
  25.5348740  30.7335530  15.2383150  24.4369860  27.0886980  14.3530100
  23.8078740  27.5572080  14.9015930  24.5517690  26.2436200  14.7876290
  32.9861430  13.1200170  30.1396560  32.8726880  13.4394780  31.0348080
  33.8031170  13.5212680  29.8433840  35.7659920  30.2671700  29.6215250
  36.5585240  29.7720930  29.4141210  36.0593070  30.9461840  30.2290860
  30.0237620  22.9171660   2.3840570  29.2479720  22.4372100   2.6739140
  30.6750550  22.2377310   2.2096730  24.0403450  23.2291470   3.2616330
  23.2088330  22.9740180   3.6612840  24.6484430  23.3002240   3.9974250
  24.0204710  27.2631560   3.4574350  24.3232750  26.3729300   3.2784570
  24.7648300  27.8201780   3.2296600  20.4128410  20.7899010   2.9298420
  20.9844520  20.0221210   2.9302060  20.4129950  21.0887770   2.0205030
  29.4646610  25.5928850   2.3910730  29.3954890  24.6518790   2.2299860
  30.2266470  25.6830260   2.9633300  21.6553280  16.1983370   4.7167350
  21.4756120  15.3009120   4.9970110  21.2533360  16.7455240   5.3914300
  30.4951780  18.3999230   2.6179660  30.8716600  17.5271110   2.5053330
  30.3971290  18.7357930   1.7270100  22.2739950  18.6943870   3.3249690
  22.9550060  18.9582240   3.9437090  21.9588000  17.8544740   3.6587700
  26.4664520  19.7411230   2.4122280  26.9742740  20.2392200   3.0527300
  26.9977760  18.9646430   2.2361640  38.5675450  17.9116420   6.1151630
  37.8627620  18.2998130   5.5966740  38.8333370  18.6066710   6.7172560
  24.7500620  14.3809790   6.6785700  24.7519060  14.8982180   5.8731600
  23.9204930  13.9039970   6.6555630  26.0003470  24.0204970   4.8559200
  25.6672850  24.6473890   5.4980270  26.1770150  24.5466850   4.0760870
  34.5137380  17.8350050   2.3235540  33.8092950  18.1234940   2.9038650
  34.8749540  18.6450160   1.9635100  24.4315950  16.0919750   4.6856150
  24.7732760  16.9361800   4.3910020  23.4931760  16.2403490   4.8021490
  25.2122570  25.9885770   6.6708380  25.8296570  26.6636850   6.3892830
  24.3515690  26.3973750   6.5795880  36.1300160  27.4525180   4.5863020
  35.4463680  28.1224290   4.5779690  36.6694450  27.6505830   3.8207880
  37.5824300  17.2804840   2.7144750  36.6349210  17.3143820   2.8460180
  37.9074290  18.0943790   3.0994110  33.6658900  29.2969310   3.3008200
  33.6786060  28.8931600   2.4330460  33.1134120  30.0716600   3.1969630
  33.0644340  24.1999150   4.6290810  33.4813130  23.9859260   3.7944270
  33.7884160  24.4571940   5.1999430  37.0106440  22.5986370   4.7207050
  36.1825070  22.6679460   4.2457180  37.6056920  23.1840680   4.2522880
  33.9748450  19.3855690   5.6661920  33.5619630  20.2109400   5.9201910
  33.2424400  18.8000730   5.4738280  26.5762940  25.8583150   2.6919800
  26.2791230  25.2528620   2.0127580  27.5262760  25.8960460   2.5809160
  24.8209860  18.9458800   4.3079630  25.3724450  19.0554140   3.5332880
  25.3353370  19.3196400   5.0234860  34.6648550  29.4315020   6.3542900
  34.1879110  30.2387210   6.1615510  33.9810340  28.7793350   6.5069110
  25.6681370  25.5964840   9.3427600  24.7709900  25.8204810   9.5901000
  25.6934240  25.7199780   8.3939000  24.4952590  22.4678160   7.9184970
  24.3560360  23.3400960   8.2872370  23.6133950  22.1250970   7.7732910
  26.2932940  28.4099860  10.1270120  26.2648370  28.8142810   9.2598550
  26.1297910  27.4810220   9.9641720  38.2447760  29.1926960  11.4234290
  38.7207480  29.6709850  12.1023370  38.8654920  29.1244450  10.6979790
  20.4471240  24.2375710   3.8355880  20.5251660  24.3724480   2.8911600
  21.0612920  23.5291600   4.0284000  37.6481010  26.3839810   8.5834300
  37.7744070  26.1451690   7.6651480  37.6902390  25.5524350   9.0556380
  31.5097750  30.0867810   7.1529110  32.0242420  29.9975820   7.9551540
  30.6666830  30.4327510   7.4457020  37.5005020  18.4372270   9.5484040
  36.8849290  18.9451940   9.0199500  37.1801440  17.5370600   9.4909980
  20.5030760  25.2789880   6.3750340  20.6661800  24.8095240   5.5569710
  20.9683210  24.7713440   7.0399180  29.5619340  17.2764160   7.0146230
  29.0998710  17.4847180   7.8266170  29.1597450  16.4623510   6.7116900
  34.5623850  18.4973110   8.1442890  33.7117440  18.1978860   8.4651960
  34.4025640  18.7415120   7.2326710  31.6573560  19.9974860  10.2441680
  31.9826970  19.1638610   9.9043910  32.4453890  20.5203380  10.3920010
  27.3125430  14.9542970   3.2700510  27.6097760  15.8605800   3.1892530
  27.8610990  14.4661750   2.6560080  27.5062960  20.4314790   9.8052430
  27.4106560  19.4909520   9.6552830  28.3494940  20.6529860   9.4100500
  22.6373500  16.8428460   7.9586210  22.2436890  17.6903670   8.1658990
  21.9491900  16.2054830   8.1494850  29.2118550  16.9263430  11.0282950
  28.5216870  16.7335630  11.6629040  29.9550850  17.2098070  11.5607250
  19.9390550  14.7656920   1.9916290  19.6503600  15.3359780   2.7041270
  20.6836310  14.2861370   2.3547520  31.4881520  20.7661870   3.8636870
  30.7562640  21.2748680   4.2126970  31.0905860  19.9491850   3.5625650
  27.9258910  17.4416070   2.2689360  27.9294970  17.0006020   1.4193900
  28.8210030  17.7633400   2.3761180  31.9507430  16.2195550   3.2759810
  31.9680170  16.6704200   4.1201660  31.7023010  15.3201190   3.4893250
  35.3778180  13.6327730   9.1146190  35.7023950  12.9017390   9.6404170
  35.4134690  13.3141370   8.2127180  22.0769740  24.6541310   8.5346150
  21.6924530  24.0134980   9.1329110  22.3881930  25.3577430   9.1040880
  28.2266880  21.5017850   4.0154770  28.5937010  21.0276420   4.7616110
  28.0371940  22.3759420   4.3563110  26.0166250  20.5426490   6.3338980
  25.7123320  21.4218470   6.5589340  26.9712710  20.6026280   6.3696420
  35.3036020  23.7452840   2.7232220  36.0235140  24.2408130   2.3328330
  35.1017840  23.0670730   2.0786090  30.6854820  23.8161900   8.6101220
  30.6192130  22.8957570   8.3558810  30.0559960  23.9137340   9.3245860
  22.0729980  21.3829230   7.4810340  21.7144920  22.0483080   8.0683680
  21.7784540  20.5512780   7.8522960  25.2743100  21.8413470  10.3649890
  24.9743240  21.9870650   9.4677710  26.0454340  21.2818760  10.2723280
  30.6171550  26.6382470   8.3605020  30.6316090  25.7063430   8.1423930
  29.9096650  26.7242230   8.9994790  36.8282760  23.2789810   7.7073600
  36.1030950  23.8718590   7.5102990  37.3558220  23.2713350   6.9086970
  30.0505450  28.2800040   5.4545520  30.6947670  28.4859420   6.1318940
  30.4134890  27.5188440   5.0016370  31.3237530  26.2832390   4.1722970
  31.9659760  25.5825550   4.2855140  31.8486880  27.0630830   3.9919860
  33.0975150  27.0827290   7.3759030  33.4331390  27.6693980   8.0536950
  32.1775490  26.9520000   7.6056820  20.6478550  14.8722470   8.1582440
  19.9337070  15.0719390   8.7635050  21.0673590  14.0962040   8.5297240
  20.9351140  28.8602730   9.1448970  21.0442260  27.9197470   9.0044360
  20.2831700  29.1257480   8.4962700  28.9263730  27.1318620  10.5447090
  28.6060600  26.4127860  11.0892780  28.2522090  27.8073690  10.6183150
  32.1417330  17.3644780   5.9083890  32.5098150  16.5439990   6.2363460
  31.2815530  17.4246670   6.3239540  29.1019320  20.0184370   6.1321860
  29.6004570  20.4930190   6.7973710  29.2442270  19.0947890   6.3391890
  36.3086180  16.2352330   6.9750250  35.8059780  16.9757730   7.3144060
  37.1242840  16.6236330   6.6587040  36.6033770  28.6494360   2.0965870
  36.7281190  29.4725530   2.5689680  37.4699330  28.4385090   1.7490020
  24.0751300  30.7425570   1.7683000  24.8113780  30.1941030   2.0391570
  24.4592220  31.6081580   1.6288990  23.0809580  29.9271640  10.9568580
  23.8822310  30.2483690  11.3703980  22.5661400  29.5667220  11.6788490
  31.9174210  26.0351510  10.9043990  31.3112370  26.0583110  10.1639740
  31.6128320  25.3034550  11.4411240  33.3474580  29.7631800   9.5153400
  34.2996330  29.6789820   9.4653640  33.2002800  30.4273510  10.1887190
  20.8007390  22.4145100   9.9004630  21.3046410  21.8352380  10.4720860
  20.0614810  22.6985330  10.4381000  27.8545330  23.8216090   9.4340150
  27.0891000  24.3901090   9.3494820  28.0361290  23.5292300   8.5408380
  34.9968680  25.5521420   9.9915170  35.7378150  25.8897180   9.4882630
  34.2341360  25.7213480   9.4384940  22.8330470  20.5574690  10.7954700
  22.8735810  20.2588560  11.7039930  23.6875970  20.9582300  10.6362220
  24.7736280  19.1366790   8.7629190  24.2432740  18.6457740   8.1352530
  25.4424350  19.5650990   8.2287120  33.6714340  23.6036250   8.5270380
  34.0855360  23.7581330   9.3760800  32.7365340  23.7291470   8.6896160
  34.1436510  20.9432410  10.5309530  34.7257280  20.1884730  10.4430010
  34.3198280  21.4739850   9.7541010  25.2608580  16.1029160   8.8426480
  25.1665450  15.4849910   8.1177350  24.6805970  16.8295450   8.6156390
  28.0270020  14.6602400   5.8753870  27.5787320  14.6826660   5.0299420
  27.3935220  14.2621420   6.4724170  28.4329570  23.5556730   6.4966310
  28.8517680  24.3989460   6.3242550  27.5138200  23.6928770   6.2673090
  30.7693470  21.2872910   7.8804150  30.8889680  20.6914050   8.6198990
  31.6287470  21.3242600   7.4605450  33.1081370  21.8410100   6.4566660
  32.5816590  22.3652720   5.8531800  33.4512710  22.4737490   7.0876390
  26.2836990  29.8609740   7.6124040  25.7458080  30.5855800   7.2932740
  26.5370950  29.3840080   6.8221380  27.5362240  17.8294260   9.1379970
  28.1261930  17.5210110   9.8257790  26.7182480  17.3574010   9.2939870
  32.3555670  17.4460070   9.3712990  31.6671190  16.7841610   9.3062980
  33.0761690  16.9998340   9.8161450  29.1399200  31.0960950   7.8710690
  29.0657900  31.9996090   8.1783060  28.2378040  30.7772850   7.8432760
  21.0316700  29.2906130   3.9125940  20.5947690  29.4706930   4.7450090
  21.5994380  30.0480750   3.7707660  36.6678880  28.7923130   8.2003250
  36.0680870  28.8515690   7.4567170  36.7972780  27.8528110   8.3300100
  35.3530520  25.5175110   6.2979410  34.5390360  25.9472270   6.5605200
  35.7604720  26.1293520   5.6848460  21.9017060  22.1878930   4.8118160
  22.2690100  22.1006330   5.6914180  21.3327880  21.4245480   4.7125020
  36.7020920  20.6563310   7.8248630  36.4707010  20.4276060   6.9246580
  36.9625470  21.5762860   7.7793520  21.4533060  19.0988020   8.7176580
  20.5589110  19.0654780   9.0570290  21.9930610  19.2974810   9.4827830
  35.1408990  15.8819740  10.6028330  36.0179170  15.8903140  10.9862330
  35.1529830  15.1450580   9.9920680  36.7661980  19.8189150   5.0135900
  35.8164690  19.7852690   5.1280890  36.9474990  20.7289260   4.7785670
  21.9572770  13.3736350   3.0659800  22.6048960  12.8233730   2.6254960
  22.3774610  13.6279500   3.8875610  35.8525110  13.5677710   6.4229440
  36.4897330  14.1811850   6.7888630  36.0000000  13.6038370   5.4778670
  21.7104770  13.5292020   5.8085120  21.3619590  13.9855840   6.5743300
  21.3792470  12.6349150   5.8907550  23.3169140  26.7011620   9.9738310
  23.2738770  26.3304530  10.8552770  23.4480150  27.6389190  10.1140130
  27.0175170  28.2571210   5.5748030  26.7766530  28.5245770   4.6878550
  27.9577810  28.4276940   5.6298890  29.2229590  14.7203900   9.3304540
  29.1618480  15.3125730  10.0799950  30.1629970  14.6129860   9.1854800
  31.8604150  14.3773960   8.9696830  32.4744560  14.6953250   8.3077910
  32.4053710  13.8922550   9.5892690  38.2779330  30.2765590   6.3758670
  37.7837610  30.6734460   5.6585800  37.6692620  29.6514800   6.7695950
  22.3825410  13.0568220   9.0835890  22.9308400  12.8756270   8.3202000
  22.4480720  12.2662330   9.6192200  23.1557170  29.6473870   7.0936090
  22.5617490  29.5158570   7.8326130  23.1481010  28.8112010   6.6278190
  32.6012190  12.9406100   5.2966120  31.7272030  13.2741210   5.0939050
  32.4922940  12.4679280   6.1217990  33.5084170  15.1476970   6.6807840
  33.1797530  14.3328730   6.3009570  34.4566470  15.1046780   6.5573530
  35.9618780  30.9189010   3.6545410  35.5021750  31.6704820   3.2803430
  35.3331240  30.1995480   3.5960210  22.7869400  27.0132250   6.0444130
  22.0603460  26.3937540   5.9770080  22.8478550  27.4072860   5.1742210
  26.3914500  29.2277250   2.8293540  26.9079520  28.6164610   2.3041800
  27.0411880  29.7306030   3.3204550  29.1310000  30.1185740   3.6562520
  29.4187810  29.8640040   2.7795530  29.6433220  29.5663100   4.2468090
  30.3487010  13.8575940   4.2359030  29.5658800  14.3321440   4.5155790
  30.0549940  12.9530770   4.1272210  34.9008080  14.5599040   2.2808120
  35.3416170  14.5044140   1.4329720  34.6315670  15.4757050   2.3518300
  29.1982360  31.0401840  11.0230720  30.1249670  30.8046110  11.0666680
  29.1832790  31.8673840  10.5416750  26.3845970  13.7046590  10.7872600
  26.1030240  14.2080190  10.0233420  26.7665670  12.9068340  10.4214730
  32.9861430  13.1200170  11.3653070  32.8726880  13.4394780  12.2604590
  33.8031170  13.5212680  11.0690350  35.7659920  30.2671700  10.8471760
  36.5585240  29.7720930  10.6397720  36.0593070  30.9461840  11.4547370
  31.8919580   2.3649150 150.6979220  31.8113630   1.4503760 150.4270930
  31.4784000   2.8616220 149.9918930  30.0237620   4.1428170 152.5788490
  29.2479720   3.6628610 152.8687060  30.6750550   3.4633820 152.4044650
  34.0445050   8.5488360 151.3587620  33.5826580   7.7775600 151.6874790
  34.8570600   8.5754430 151.8640070  30.2708360  10.8346370 150.9791610
  29.6519800  11.2903870 150.4086050  31.1260140  10.9897830 150.5781310
  29.4646610   6.8185360 152.5858650  29.3954890   5.8775300 152.4247780
  30.2266470   6.9086770 153.1581220  31.1371710   5.7185610 148.3723520
  30.5188980   6.1835060 147.8086240  31.6494960   6.4113090 148.7893030
  20.5054910   6.4042140 145.7463150  20.1282890   6.8929240 145.0148050
  20.7627980   7.0767420 146.3769680  34.9604320   7.2442040 148.5846290
  34.8500650   6.3016370 148.7095710  34.9572570   7.6057680 149.4709050
  30.5024600   2.8707360 147.9408780  29.5753880   2.8044740 148.1697250
  30.6549420   3.8087490 147.8264020  34.5321890   4.4327660 148.4444030
  33.9134310   4.0947210 147.7970330  34.5146340   3.7887420 149.1523220
  26.1081240   3.3972100 150.7228510  25.7038240   2.6849350 150.2274410
  26.1944360   3.0525340 151.6116550  26.5762940   7.0839660 152.8867720
  26.2791230   6.4785130 152.2075500  27.5262760   7.1216970 152.7757080
  32.7086590   3.6714470 145.4516780  33.1479870   2.8336900 145.3054600
  33.4215010   4.3043870 145.5380920  30.8181970   8.6110540 149.4198020
  31.2577880   9.3534870 149.0053410  30.7568860   8.8537110 150.3436980
  22.8085870   2.2917080 148.2235160  22.6883470   3.0179170 147.6116430
  22.4986760   1.5219990 147.7463070  21.6918870   7.1632410 150.4409980
  21.2846950   7.3047000 149.5863580  22.5831880   6.8792570 150.2381190
  33.4852150  11.5979660 146.7761030  33.3253290  11.3082600 147.6742860
  33.3198860  10.8219790 146.2406260  25.9640530  11.3778190 148.5532650
  25.7883010  10.4613730 148.3400450  25.1096270  11.7365480 148.7930450
  33.1878280   9.1067220 145.3359030  32.4943440   9.1044510 144.6761310
  33.9301140   8.6826540 144.9053200  32.7528210  10.7329930 149.4107520
  33.2085160   9.9519310 149.7246140  33.0920730  11.4436750 149.9548700
  27.0000560   1.9785800 144.8527340  26.4317460   1.5304050 144.2263250
  27.7089560   2.3378580 144.3192490  24.5448040   5.9743990 147.1253750
  23.7710300   5.4341610 146.9652470  25.2742670   5.4550600 146.7871510
  35.3036020   4.9709350 152.9180140  36.0235140   5.4664640 152.5276250
  35.1017840   4.2927240 152.2734010  24.5885440   5.6424370 150.7632560
  25.1064110   4.8392630 150.7089450  24.1369460   5.5803510 151.6049390
  29.4754940   6.9090650 146.0359860  29.8170640   7.6532880 145.5403180
  28.6467650   7.2221770 146.3984690  35.7508620   2.0478800 144.8251550
  35.6672340   2.4793020 143.9747990  36.4702810   2.5077150 145.2578370
  36.7795870   8.9021060 147.5533680  36.1372030   8.2476680 147.8277400
  36.3926530   9.3076150 146.7774350  32.3582350   6.2306490 151.4005370
  32.7106170   5.6334620 150.7406740  31.4744680   5.9050720 151.5713620
  28.4445630   6.9904180 148.8075780  29.1316760   7.5373390 149.1883370
  27.6578050   7.5344910 148.8425390  20.5838030   2.6077000 144.2992860
  21.4532880   2.8901800 144.5828780  20.0928350   3.4212870 144.1841670
  27.7472840   3.9950210 148.4201140  28.2035620   4.8055460 148.6461330
  27.3961050   3.6773350 149.2519630  35.1693250   7.7937520 144.0910030
  34.9430830   7.0767960 144.6834670  34.7789450   7.5449960 143.2531780
  20.9509280  11.8204380 144.8654490  21.3106920  12.4193720 144.2111760
  20.8101620  12.3664270 145.6389520  34.7509500   5.7109460 145.7524190
  34.4631200   6.1722150 146.5402070  35.5461670   5.2507230 146.0208410
  26.9677900   9.2035580 145.6828160  26.9588000   9.9365270 145.0672670
  26.0476260   8.9567160 145.7755120  22.5684540   4.4250470 146.4274920
  21.9612490   5.1649370 146.4370220  23.0433890   4.5149830 145.6013120
  29.9537500   9.2663820 144.3453350  30.0549480   9.0627810 143.4155330
  29.0539240   9.0122100 144.5501130  28.5955610  11.7850140 149.0401020
  28.8497110  11.7471530 148.1180390  27.6468090  11.6583470 149.0329270
  34.6008190   2.7042020 150.6159530  33.6598330   2.7192250 150.7907220
  34.9152260   1.9177980 151.0619830  24.5789830   4.3861620 144.1763490
  25.3453100   4.2742980 144.7388920  24.6564520   3.6899590 143.5240260
  36.6033770   9.8750870 152.2913790  36.7281190  10.6982040 152.7637600
  37.4699330   9.6641600 151.9437940  24.0751300  11.9682080 151.9630920
  24.8113780  11.4197540 152.2339490  24.4592220  12.8338090 151.8236910
  20.9596780   8.0355650 147.8372430  20.0336560   8.2776790 147.8277840
  21.4253210   8.8629910 147.7157180  27.1853610  11.1412390 143.7856490
  27.9782220  11.4301220 143.3338280  26.6657960  10.7104560 143.1068970
  36.2383780  10.3682520 145.2093230  35.9525290   9.9547660 144.3947410
  36.0403330  11.2970230 145.0893750  27.7031010   6.3615800 143.6498840
  27.5981650   5.7468150 144.3760220  27.5355230   5.8381690 142.8661850
  30.9433740   5.4235830 144.2540830  30.3943840   5.8705130 144.8983570
  31.5653000   4.9185080 144.7778500  26.6108860   4.3826750 146.1506130
  27.0325280   4.2166620 146.9937520  26.7359700   3.5726980 145.6561270
  29.1236500   3.4064360 143.3983230  29.6442160   2.6913380 143.0324380
  29.7704900   4.0450230 143.6983740  29.6884530  11.4875970 145.6884970
  30.5835320  11.8260940 145.7103730  29.7202160  10.7655380 145.0609250
  23.3280690   6.8603020 143.9171970  23.7655560   7.4032690 144.5729550
  23.8128420   6.0349970 143.9268310  20.5426490   9.6492050 151.3692230
  20.8729500   8.7813110 151.1370870  20.9717490   9.8550570 152.1997190
  25.1388410   7.9801060 149.0294200  24.8383950   7.8566030 149.9298110
  25.0325900   7.1209650 148.6209930  37.9080330   7.7597460 143.7320880
  37.0773290   7.8274110 144.2028110  38.0852160   8.6501580 143.4287740
  37.3636790   4.5044940 146.2355080  38.1255700   5.0741590 146.3414770
  37.3791160   3.9372140 147.0063390  20.8641130   3.0282870 150.4662740
  20.2089970   2.7594510 149.8222440  21.7019080   2.9187350 150.0164720
  38.3696760   5.3595040 151.0797010  38.7405590   4.5762360 150.6732980
  39.0098690   6.0484140 150.9014310  37.4155960   4.7979310 143.3927600
  37.6904800   5.7058190 143.2646820  37.2266700   4.7341840 144.3289590
  37.3121300   2.7348300 148.3857030  36.9364900   1.9676230 147.9538320
  36.5824420   3.1171000 148.8731960  35.4106570  11.4950220 150.0195600
  36.0065640  11.1734790 149.3430020  35.6684720  11.0222040 150.8108870
  21.0699400  11.5563150 149.4488810  20.9021440  10.9233830 150.1470700
  20.2033910  11.7622550 149.0983000  22.6762100  10.2496380 146.8938950
  22.1509720  10.6304410 146.1900910  22.6006680  10.8747150 147.6148660
  37.4327420  11.8083920 148.2152890  37.6079610  11.1221660 147.5713810
  36.7348990  12.3330970 147.8229560  25.2755070  12.1978760 145.7688200
  26.0073890  11.9138040 145.2212090  25.5348740  11.9592040 146.6587580
  24.4369860   8.3143490 145.7734530  23.8078740   8.7828590 146.3220360
  24.5517690   7.4692710 146.2080720  31.8919580   2.3649150 131.9235730
  31.8113630   1.4503760 131.6527440  31.4784000   2.8616220 131.2175440
  30.0237620   4.1428170 133.8045000  29.2479720   3.6628610 134.0943570
  30.6750550   3.4633820 133.6301160  24.0403450   4.4547980 134.6820760
  23.2088330   4.1996690 135.0817270  24.6484430   4.5258750 135.4178680
  34.0445050   8.5488360 132.5844130  33.5826580   7.7775600 132.9131300
  34.8570600   8.5754430 133.0896580  24.0204710   8.4888070 134.8778780
  24.3232750   7.5985810 134.6989000  24.7648300   9.0458290 134.6501030
  30.2708360  10.8346370 132.2048120  29.6519800  11.2903870 131.6342560
  31.1260140  10.9897830 131.8037820  29.4646610   6.8185360 133.8115160
  29.3954890   5.8775300 133.6504290  30.2266470   6.9086770 134.3837730
  31.1371710   5.7185610 129.5980030  30.5188980   6.1835060 129.0342750
  31.6494960   6.4113090 130.0149540  26.0003470   5.2461480 136.2763630
  25.6672850   5.8730400 136.9184700  26.1770150   5.7723360 135.4965300
  25.2122570   7.2142280 138.0912810  25.8296570   7.8893360 137.8097260
  24.3515690   7.6230260 138.0000310  20.5054910   6.4042140 126.9719660
  20.1282890   6.8929240 126.2404560  20.7627980   7.0767420 127.6026190
  36.1300160   8.6781690 136.0067450  35.4463680   9.3480800 135.9984120
  36.6694450   8.8762340 135.2412310  33.6658900  10.5225820 134.7212630
  33.6786060  10.1188110 133.8534890  33.1134120  11.2973110 134.6174060
  34.9604320   7.2442040 129.8102800  34.8500650   6.3016370 129.9352220
  34.9572570   7.6057680 130.6965560  33.0644340   5.4255660 136.0495240
  33.4813130   5.2115770 135.2148700  33.7884160   5.6828450 136.6203860
  30.5024600   2.8707360 129.1665290  29.5753880   2.8044740 129.3953760
  30.6549420   3.8087490 129.0520530  37.0106440   3.8242880 136.1411480
  36.1825070   3.8935970 135.6661610  37.6056920   4.4097190 135.6727310
  34.5321890   4.4327660 129.6700540  33.9134310   4.0947210 129.0226840
  34.5146340   3.7887420 130.3779730  26.1081240   3.3972100 131.9485020
  25.7038240   2.6849350 131.4530920  26.1944360   3.0525340 132.8373060
  26.5762940   7.0839660 134.1124230  26.2791230   6.4785130 133.4332010
  27.5262760   7.1216970 134.0013590  34.6648550  10.6571530 137.7747330
  34.1879110  11.4643720 137.5819940  33.9810340  10.0049860 137.9273540
  25.6681370   6.8221350 140.7632030  24.7709900   7.0461320 141.0105430
  25.6934240   6.9456290 139.8143430  32.7086590   3.6714470 126.6773290
  33.1479870   2.8336900 126.5311110  33.4215010   4.3043870 126.7637430
  24.4952590   3.6934670 139.3389400  24.3560360   4.5657470 139.7076800
  23.6133950   3.3507480 139.1937340  30.8181970   8.6110540 130.6454530
  31.2577880   9.3534870 130.2309920  30.7568860   8.8537110 131.5693490
  26.2932940   9.6356370 141.5474550  26.2648370  10.0399320 140.6802980
  26.1297910   8.7066730 141.3846150  22.8085870   2.2917080 129.4491670
  22.6883470   3.0179170 128.8372940  22.4986760   1.5219990 128.9719580
  38.2447760  10.4183470 142.8438720  38.7207480  10.8966360 143.5227800
  38.8654920  10.3500960 142.1184220  20.4471240   5.4632220 135.2560310
  20.5251660   5.5980990 134.3116030  21.0612920   4.7548110 135.4488430
  21.6918870   7.1632410 131.6666490  21.2846950   7.3047000 130.8120090
  22.5831880   6.8792570 131.4637700  37.6481010   7.6096320 140.0038730
  37.7744070   7.3708200 139.0855910  37.6902390   6.7780860 140.4760810
  31.5097750  11.3124320 138.5733540  32.0242420  11.2232330 139.3755970
  30.6666830  11.6584020 138.8661450  33.4852150  11.5979660 128.0017540
  33.3253290  11.3082600 128.8999370  33.3198860  10.8219790 127.4662770
  25.9640530  11.3778190 129.7789160  25.7883010  10.4613730 129.5656960
  25.1096270  11.7365480 130.0186960  33.1878280   9.1067220 126.5615540
  32.4943440   9.1044510 125.9017820  33.9301140   8.6826540 126.1309710
  32.7528210  10.7329930 130.6364030  33.2085160   9.9519310 130.9502650
  33.0920730  11.4436750 131.1805210  20.5030760   6.5046390 137.7954770
  20.6661800   6.0351750 136.9774140  20.9683210   5.9969950 138.4603610
  27.0000560   1.9785800 126.0783850  26.4317460   1.5304050 125.4519760
  27.7089560   2.3378580 125.5449000  22.0769740   5.8797820 139.9550580
  21.6924530   5.2391490 140.5533540  22.3881930   6.5833940 140.5245310
  28.2266880   2.7274360 135.4359200  28.5937010   2.2532930 136.1820540
  28.0371940   3.6015930 135.7767540  26.0166250   1.7683000 137.7543410
  25.7123320   2.6474980 137.9793770  26.9712710   1.8282790 137.7900850
  24.5448040   5.9743990 128.3510260  23.7710300   5.4341610 128.1908980
  25.2742670   5.4550600 128.0128020  35.3036020   4.9709350 134.1436650
  36.0235140   5.4664640 133.7532760  35.1017840   4.2927240 133.4990520
  30.6854820   5.0418410 140.0305650  30.6192130   4.1214080 139.7763240
  30.0559960   5.1393850 140.7450290  24.5885440   5.6424370 131.9889070
  25.1064110   4.8392630 131.9345960  24.1369460   5.5803510 132.8305900
  29.4754940   6.9090650 127.2616370  29.8170640   7.6532880 126.7659690
  28.6467650   7.2221770 127.6241200  22.0729980   2.6085740 138.9014770
  21.7144920   3.2739590 139.4888110  21.7784540   1.7769290 139.2727390
  25.2743100   3.0669980 141.7854320  24.9743240   3.2127160 140.8882140
  26.0454340   2.5075270 141.6927710  30.6171550   7.8638980 139.7809450
  30.6316090   6.9319940 139.5628360  29.9096650   7.9498740 140.4199220
  35.7508620   2.0478800 126.0508060  35.6672340   2.4793020 125.2004500
  36.4702810   2.5077150 126.4834880  36.8282760   4.5046320 139.1278030
  36.1030950   5.0975100 138.9307420  37.3558220   4.4969860 138.3291400
  36.7795870   8.9021060 128.7790190  36.1372030   8.2476680 129.0533910
  36.3926530   9.3076150 128.0030860  32.3582350   6.2306490 132.6261880
  32.7106170   5.6334620 131.9663250  31.4744680   5.9050720 132.7970130
  28.4445630   6.9904180 130.0332290  29.1316760   7.5373390 130.4139880
  27.6578050   7.5344910 130.0681900  20.5838030   2.6077000 125.5249370
  21.4532880   2.8901800 125.8085290  20.0928350   3.4212870 125.4098180
  27.7472840   3.9950210 129.6457650  28.2035620   4.8055460 129.8717840
  27.3961050   3.6773350 130.4776140  30.0505450   9.5056550 136.8749950
  30.6947670   9.7115930 137.5523370  30.4134890   8.7444950 136.4220800
  31.3237530   7.5088900 135.5927400  31.9659760   6.8082060 135.7059570
  31.8486880   8.2887340 135.4124290  35.1693250   7.7937520 125.3166540
  34.9430830   7.0767960 125.9091180  34.7789450   7.5449960 124.4788290
  33.0975150   8.3083800 138.7963460  33.4331390   8.8950490 139.4741380
  32.1775490   8.1776510 139.0261250  20.9509280  11.8204380 126.0911000
  21.3106920  12.4193720 125.4368270  20.8101620  12.3664270 126.8646030
  34.7509500   5.7109460 126.9780700  34.4631200   6.1722150 127.7658580
  35.5461670   5.2507230 127.2464920  20.9351140  10.0859240 140.5653400
  21.0442260   9.1453980 140.4248790  20.2831700  10.3513990 139.9167130
  28.9263730   8.3575130 141.9651520  28.6060600   7.6384370 142.5097210
  28.2522090   9.0330200 142.0387580  26.9677900   9.2035580 126.9084670
  26.9588000   9.9365270 126.2929180  26.0476260   8.9567160 127.0011630
  22.5684540   4.4250470 127.6531430  21.9612490   5.1649370 127.6626730
  23.0433890   4.5149830 126.8269630  29.9537500   9.2663820 125.5709860
  30.0549480   9.0627810 124.6411840  29.0539240   9.0122100 125.7757640
  28.5955610  11.7850140 130.2657530  28.8497110  11.7471530 129.3436900
  27.6468090  11.6583470 130.2585780  34.6008190   2.7042020 131.8416040
  33.6598330   2.7192250 132.0163730  34.9152260   1.9177980 132.2876340
  24.5789830   4.3861620 125.4020000  25.3453100   4.2742980 125.9645430
  24.6564520   3.6899590 124.7496770  36.6033770   9.8750870 133.5170300
  36.7281190  10.6982040 133.9894110  37.4699330   9.6641600 133.1694450
  24.0751300  11.9682080 133.1887430  24.8113780  11.4197540 133.4596000
  24.4592220  12.8338090 133.0493420  20.9596780   8.0355650 129.0628940
  20.0336560   8.2776790 129.0534350  21.4253210   8.8629910 128.9413690
  23.0809580  11.1528150 142.3773010  23.8822310  11.4740200 142.7908410
  22.5661400  10.7923730 143.0992920  27.1853610  11.1412390 125.0113000
  27.9782220  11.4301220 124.5594790  26.6657960  10.7104560 124.3325480
  31.9174210   7.2608020 142.3248420  31.3112370   7.2839620 141.5844170
  31.6128320   6.5291060 142.8615670  33.3474580  10.9888310 140.9357830
  34.2996330  10.9046330 140.8858070  33.2002800  11.6530020 141.6091620
  36.2383780  10.3682520 126.4349740  35.9525290   9.9547660 125.6203920
  36.0403330  11.2970230 126.3150260  20.8007390   3.6401610 141.3209060
  21.3046410   3.0608890 141.8925290  20.0614810   3.9241840 141.8585430
  27.7031010   6.3615800 124.8755350  27.5981650   5.7468150 125.6016730
  27.5355230   5.8381690 124.0918360  27.8545330   5.0472600 140.8544580
  27.0891000   5.6157600 140.7699250  28.0361290   4.7548810 139.9612810
  30.9433740   5.4235830 125.4797340  30.3943840   5.8705130 126.1240080
  31.5653000   4.9185080 126.0035010  34.9968680   6.7777930 141.4119600
  35.7378150   7.1153690 140.9087060  34.2341360   6.9469990 140.8589370
  22.8330470   1.7831200 142.2159130  22.8735810   1.4845070 143.1244360
  23.6875970   2.1838810 142.0566650  26.6108860   4.3826750 127.3762640
  27.0325280   4.2166620 128.2194030  26.7359700   3.5726980 126.8817780
  29.1236500   3.4064360 124.6239740  29.6442160   2.6913380 124.2580890
  29.7704900   4.0450230 124.9240250  33.6714340   4.8292760 139.9474810
  34.0855360   4.9837840 140.7965230  32.7365340   4.9547980 140.1100590
  34.1436510   2.1688920 141.9513960  34.7257280   1.4141240 141.8634440
  34.3198280   2.6996360 141.1745440  28.4329570   4.7813240 137.9170740
  28.8517680   5.6245970 137.7446980  27.5138200   4.9185280 137.6877520
  30.7693470   2.5129420 139.3008580  30.8889680   1.9170560 140.0403420
  31.6287470   2.5499110 138.8809880  33.1081370   3.0666610 137.8771090
  32.5816590   3.5909230 137.2736230  33.4512710   3.6994000 138.5080820
  26.2836990  11.0866250 139.0328470  25.7458080  11.8112310 138.7137170
  26.5370950  10.6096590 138.2425810  29.1399200  12.3217460 139.2915120
  29.0657900  13.2252600 139.5987490  28.2378040  12.0029360 139.2637190
  29.6884530  11.4875970 126.9141480  30.5835320  11.8260940 126.9360240
  29.7202160  10.7655380 126.2865760  23.3280690   6.8603020 125.1428480
  23.7655560   7.4032690 125.7986060  23.8128420   6.0349970 125.1524820
  20.5426490   9.6492050 132.5948740  20.8729500   8.7813110 132.3627380
  20.9717490   9.8550570 133.4253700  25.1388410   7.9801060 130.2550710
  24.8383950   7.8566030 131.1554620  25.0325900   7.1209650 129.8466440
  21.0316700  10.5162640 135.3330370  20.5947690  10.6963440 136.1654520
  21.5994380  11.2737260 135.1912090  36.6678880  10.0179640 139.6207680
  36.0680870  10.0772200 138.8771600  36.7972780   9.0784620 139.7504530
  37.9080330   7.7597460 124.9577390  37.0773290   7.8274110 125.4284620
  38.0852160   8.6501580 124.6544250  37.3636790   4.5044940 127.4611590
  38.1255700   5.0741590 127.5671280  37.3791160   3.9372140 128.2319900
  20.8641130   3.0282870 131.6919250  20.2089970   2.7594510 131.0478950
  21.7019080   2.9187350 131.2421230  38.3696760   5.3595040 132.3053520
  38.7405590   4.5762360 131.8989490  39.0098690   6.0484140 132.1270820
  35.3530520   6.7431620 137.7183840  34.5390360   7.1728780 137.9809630
  35.7604720   7.3550030 137.1052890  37.4155960   4.7979310 124.6184110
  37.6904800   5.7058190 124.4903330  37.2266700   4.7341840 125.5546100
  37.3121300   2.7348300 129.6113540  36.9364900   1.9676230 129.1794830
  36.5824420   3.1171000 130.0988470  21.9017060   3.4135440 136.2322590
  22.2690100   3.3262840 137.1118610  21.3327880   2.6501990 136.1329450
  36.7020920   1.8819820 139.2453060  36.4707010   1.6532570 138.3451010
  36.9625470   2.8019370 139.1997950  35.4106570  11.4950220 131.2452110
  36.0065640  11.1734790 130.5686530  35.6684720  11.0222040 132.0365380
  23.3169140   7.9268130 141.3942740  23.2738770   7.5561040 142.2757200
  23.4480150   8.8645700 141.5344560  27.0175170   9.4827720 136.9952460
  26.7766530   9.7502280 136.1082980  27.9577810   9.6533450 137.0503320
  38.2779330  11.5022100 137.7963100  37.7837610  11.8990970 137.0790230
  37.6692620  10.8771310 138.1900380  23.1557170  10.8730380 138.5140520
  22.5617490  10.7415080 139.2530560  23.1481010  10.0368520 138.0482620
  35.9618780  12.1445520 135.0749840  35.5021750  12.8961330 134.7007860
  35.3331240  11.4251990 135.0164640  22.7869400   8.2388760 137.4648560
  22.0603460   7.6194050 137.3974510  22.8478550   8.6329370 136.5946640
  26.3914500  10.4533760 134.2497970  26.9079520   9.8421120 133.7246230
  27.0411880  10.9562540 134.7408980  29.1310000  11.3442250 135.0766950
  29.4187810  11.0896550 134.1999960  29.6433220  10.7919610 135.6672520
  21.0699400  11.5563150 130.6745320  20.9021440  10.9233830 131.3727210
  20.2033910  11.7622550 130.3239510  22.6762100  10.2496380 128.1195460
  22.1509720  10.6304410 127.4157420  22.6006680  10.8747150 128.8405170
  29.1982360  12.2658350 142.4435150  30.1249670  12.0302620 142.4871110
  29.1832790  13.0930350 141.9621180  37.4327420  11.8083920 129.4409400
  37.6079610  11.1221660 128.7970320  36.7348990  12.3330970 129.0486070
  25.2755070  12.1978760 126.9944710  26.0073890  11.9138040 126.4468600
  25.5348740  11.9592040 127.8844090  24.4369860   8.3143490 126.9991040
  23.8078740   8.7828590 127.5476870  24.5517690   7.4692710 127.4337230
  35.7659920  11.4928210 142.2676190  36.5585240  10.9977440 142.0602150
  36.0593070  12.1718350 142.8751800  31.8919580   2.3649150 113.1492240
  31.8113630   1.4503760 112.8783950  31.4784000   2.8616220 112.4431950
  30.0237620   4.1428170 115.0301510  29.2479720   3.6628610 115.3200080
  30.6750550   3.4633820 114.8557670  24.0403450   4.4547980 115.9077270
  23.2088330   4.1996690 116.3073780  24.6484430   4.5258750 116.6435190
  34.0445050   8.5488360 113.8100640  33.5826580   7.7775600 114.1387810
  34.8570600   8.5754430 114.3153090  24.0204710   8.4888070 116.1035290
  24.3232750   7.5985810 115.9245510  24.7648300   9.0458290 115.8757540
  30.2708360  10.8346370 113.4304630  29.6519800  11.2903870 112.8599070
  31.1260140  10.9897830 113.0294330  29.4646610   6.8185360 115.0371670
  29.3954890   5.8775300 114.8760800  30.2266470   6.9086770 115.6094240
  31.1371710   5.7185610 110.8236540  30.5188980   6.1835060 110.2599260
  31.6494960   6.4113090 111.2406050  26.0003470   5.2461480 117.5020140
  25.6672850   5.8730400 118.1441210  26.1770150   5.7723360 116.7221810
  25.2122570   7.2142280 119.3169320  25.8296570   7.8893360 119.0353770
  24.3515690   7.6230260 119.2256820  20.5054910   6.4042140 108.1976170
  20.1282890   6.8929240 107.4661070  20.7627980   7.0767420 108.8282700
  36.1300160   8.6781690 117.2323960  35.4463680   9.3480800 117.2240630
  36.6694450   8.8762340 116.4668820  33.6658900  10.5225820 115.9469140
  33.6786060  10.1188110 115.0791400  33.1134120  11.2973110 115.8430570
  34.9604320   7.2442040 111.0359310  34.8500650   6.3016370 111.1608730
  34.9572570   7.6057680 111.9222070  33.0644340   5.4255660 117.2751750
  33.4813130   5.2115770 116.4405210  33.7884160   5.6828450 117.8460370
  30.5024600   2.8707360 110.3921800  29.5753880   2.8044740 110.6210270
  30.6549420   3.8087490 110.2777040  37.0106440   3.8242880 117.3667990
  36.1825070   3.8935970 116.8918120  37.6056920   4.4097190 116.8983820
  34.5321890   4.4327660 110.8957050  33.9134310   4.0947210 110.2483350
  34.5146340   3.7887420 111.6036240  26.1081240   3.3972100 113.1741530
  25.7038240   2.6849350 112.6787430  26.1944360   3.0525340 114.0629570
  26.5762940   7.0839660 115.3380740  26.2791230   6.4785130 114.6588520
  27.5262760   7.1216970 115.2270100  34.6648550  10.6571530 119.0003840
  34.1879110  11.4643720 118.8076450  33.9810340  10.0049860 119.1530050
  25.6681370   6.8221350 121.9888540  24.7709900   7.0461320 122.2361940
  25.6934240   6.9456290 121.0399940  32.7086590   3.6714470 107.9029800
  33.1479870   2.8336900 107.7567620  33.4215010   4.3043870 107.9893940
  24.4952590   3.6934670 120.5645910  24.3560360   4.5657470 120.9333310
  23.6133950   3.3507480 120.4193850  30.8181970   8.6110540 111.8711040
  31.2577880   9.3534870 111.4566430  30.7568860   8.8537110 112.7950000
  26.2932940   9.6356370 122.7731060  26.2648370  10.0399320 121.9059490
  26.1297910   8.7066730 122.6102660  22.8085870   2.2917080 110.6748180
  22.6883470   3.0179170 110.0629450  22.4986760   1.5219990 110.1976090
  38.2447760  10.4183470 124.0695230  38.7207480  10.8966360 124.7484310
  38.8654920  10.3500960 123.3440730  20.4471240   5.4632220 116.4816820
  20.5251660   5.5980990 115.5372540  21.0612920   4.7548110 116.6744940
  21.6918870   7.1632410 112.8923000  21.2846950   7.3047000 112.0376600
  22.5831880   6.8792570 112.6894210  37.6481010   7.6096320 121.2295240
  37.7744070   7.3708200 120.3112420  37.6902390   6.7780860 121.7017320
  31.5097750  11.3124320 119.7990050  32.0242420  11.2232330 120.6012480
  30.6666830  11.6584020 120.0917960  33.4852150  11.5979660 109.2274050
  33.3253290  11.3082600 110.1255880  33.3198860  10.8219790 108.6919280
  25.9640530  11.3778190 111.0045670  25.7883010  10.4613730 110.7913470
  25.1096270  11.7365480 111.2443470  33.1878280   9.1067220 107.7872050
  32.4943440   9.1044510 107.1274330  33.9301140   8.6826540 107.3566220
  32.7528210  10.7329930 111.8620540  33.2085160   9.9519310 112.1759160
  33.0920730  11.4436750 112.4061720  20.5030760   6.5046390 119.0211280
  20.6661800   6.0351750 118.2030650  20.9683210   5.9969950 119.6860120
  27.0000560   1.9785800 107.3040360  26.4317460   1.5304050 106.6776270
  27.7089560   2.3378580 106.7705510  22.0769740   5.8797820 121.1807090
  21.6924530   5.2391490 121.7790050  22.3881930   6.5833940 121.7501820
  28.2266880   2.7274360 116.6615710  28.5937010   2.2532930 117.4077050
  28.0371940   3.6015930 117.0024050  26.0166250   1.7683000 118.9799920
  25.7123320   2.6474980 119.2050280  26.9712710   1.8282790 119.0157360
  24.5448040   5.9743990 109.5766770  23.7710300   5.4341610 109.4165490
  25.2742670   5.4550600 109.2384530  35.3036020   4.9709350 115.3693160
  36.0235140   5.4664640 114.9789270  35.1017840   4.2927240 114.7247030
  30.6854820   5.0418410 121.2562160  30.6192130   4.1214080 121.0019750
  30.0559960   5.1393850 121.9706800  24.5885440   5.6424370 113.2145580
  25.1064110   4.8392630 113.1602470  24.1369460   5.5803510 114.0562410
  29.4754940   6.9090650 108.4872880  29.8170640   7.6532880 107.9916200
  28.6467650   7.2221770 108.8497710  22.0729980   2.6085740 120.1271280
  21.7144920   3.2739590 120.7144620  21.7784540   1.7769290 120.4983900
  25.2743100   3.0669980 123.0110830  24.9743240   3.2127160 122.1138650
  26.0454340   2.5075270 122.9184220  30.6171550   7.8638980 121.0065960
  30.6316090   6.9319940 120.7884870  29.9096650   7.9498740 121.6455730
  35.7508620   2.0478800 107.2764570  35.6672340   2.4793020 106.4261010
  36.4702810   2.5077150 107.7091390  36.8282760   4.5046320 120.3534540
  36.1030950   5.0975100 120.1563930  37.3558220   4.4969860 119.5547910
  36.7795870   8.9021060 110.0046700  36.1372030   8.2476680 110.2790420
  36.3926530   9.3076150 109.2287370  32.3582350   6.2306490 113.8518390
  32.7106170   5.6334620 113.1919760  31.4744680   5.9050720 114.0226640
  28.4445630   6.9904180 111.2588800  29.1316760   7.5373390 111.6396390
  27.6578050   7.5344910 111.2938410  20.5838030   2.6077000 106.7505880
  21.4532880   2.8901800 107.0341800  20.0928350   3.4212870 106.6354690
  27.7472840   3.9950210 110.8714160  28.2035620   4.8055460 111.0974350
  27.3961050   3.6773350 111.7032650  30.0505450   9.5056550 118.1006460
  30.6947670   9.7115930 118.7779880  30.4134890   8.7444950 117.6477310
  31.3237530   7.5088900 116.8183910  31.9659760   6.8082060 116.9316080
  31.8486880   8.2887340 116.6380800  35.1693250   7.7937520 106.5423050
  34.9430830   7.0767960 107.1347690  34.7789450   7.5449960 105.7044800
  33.0975150   8.3083800 120.0219970  33.4331390   8.8950490 120.6997890
  32.1775490   8.1776510 120.2517760  20.9509280  11.8204380 107.3167510
  21.3106920  12.4193720 106.6624780  20.8101620  12.3664270 108.0902540
  34.7509500   5.7109460 108.2037210  34.4631200   6.1722150 108.9915090
  35.5461670   5.2507230 108.4721430  20.9351140  10.0859240 121.7909910
  21.0442260   9.1453980 121.6505300  20.2831700  10.3513990 121.1423640
  28.9263730   8.3575130 123.1908030  28.6060600   7.6384370 123.7353720
  28.2522090   9.0330200 123.2644090  26.9677900   9.2035580 108.1341180
  26.9588000   9.9365270 107.5185690  26.0476260   8.9567160 108.2268140
  22.5684540   4.4250470 108.8787940  21.9612490   5.1649370 108.8883240
  23.0433890   4.5149830 108.0526140  29.9537500   9.2663820 106.7966370
  30.0549480   9.0627810 105.8668350  29.0539240   9.0122100 107.0014150
  28.5955610  11.7850140 111.4914040  28.8497110  11.7471530 110.5693410
  27.6468090  11.6583470 111.4842290  34.6008190   2.7042020 113.0672550
  33.6598330   2.7192250 113.2420240  34.9152260   1.9177980 113.5132850
  24.5789830   4.3861620 106.6276510  25.3453100   4.2742980 107.1901940
  24.6564520   3.6899590 105.9753280  36.6033770   9.8750870 114.7426810
  36.7281190  10.6982040 115.2150620  37.4699330   9.6641600 114.3950960
  24.0751300  11.9682080 114.4143940  24.8113780  11.4197540 114.6852510
  24.4592220  12.8338090 114.2749930  20.9596780   8.0355650 110.2885450
  20.0336560   8.2776790 110.2790860  21.4253210   8.8629910 110.1670200
  23.0809580  11.1528150 123.6029520  23.8822310  11.4740200 124.0164920
  22.5661400  10.7923730 124.3249430  27.1853610  11.1412390 106.2369510
  27.9782220  11.4301220 105.7851300  26.6657960  10.7104560 105.5581990
  31.9174210   7.2608020 123.5504930  31.3112370   7.2839620 122.8100680
  31.6128320   6.5291060 124.0872180  33.3474580  10.9888310 122.1614340
  34.2996330  10.9046330 122.1114580  33.2002800  11.6530020 122.8348130
  36.2383780  10.3682520 107.6606250  35.9525290   9.9547660 106.8460430
  36.0403330  11.2970230 107.5406770  20.8007390   3.6401610 122.5465570
  21.3046410   3.0608890 123.1181800  20.0614810   3.9241840 123.0841940
  27.7031010   6.3615800 106.1011860  27.5981650   5.7468150 106.8273240
  27.5355230   5.8381690 105.3174870  27.8545330   5.0472600 122.0801090
  27.0891000   5.6157600 121.9955760  28.0361290   4.7548810 121.1869320
  30.9433740   5.4235830 106.7053850  30.3943840   5.8705130 107.3496590
  31.5653000   4.9185080 107.2291520  34.9968680   6.7777930 122.6376110
  35.7378150   7.1153690 122.1343570  34.2341360   6.9469990 122.0845880
  22.8330470   1.7831200 123.4415640  22.8735810   1.4845070 124.3500870
  23.6875970   2.1838810 123.2823160  26.6108860   4.3826750 108.6019150
  27.0325280   4.2166620 109.4450540  26.7359700   3.5726980 108.1074290
  29.1236500   3.4064360 105.8496250  29.6442160   2.6913380 105.4837400
  29.7704900   4.0450230 106.1496760  33.6714340   4.8292760 121.1731320
  34.0855360   4.9837840 122.0221740  32.7365340   4.9547980 121.3357100
  34.1436510   2.1688920 123.1770470  34.7257280   1.4141240 123.0890950
  34.3198280   2.6996360 122.4001950  28.4329570   4.7813240 119.1427250
  28.8517680   5.6245970 118.9703490  27.5138200   4.9185280 118.9134030
  30.7693470   2.5129420 120.5265090  30.8889680   1.9170560 121.2659930
  31.6287470   2.5499110 120.1066390  33.1081370   3.0666610 119.1027600
  32.5816590   3.5909230 118.4992740  33.4512710   3.6994000 119.7337330
  26.2836990  11.0866250 120.2584980  25.7458080  11.8112310 119.9393680
  26.5370950  10.6096590 119.4682320  29.1399200  12.3217460 120.5171630
  29.0657900  13.2252600 120.8244000  28.2378040  12.0029360 120.4893700
  29.6884530  11.4875970 108.1397990  30.5835320  11.8260940 108.1616750
  29.7202160  10.7655380 107.5122270  23.3280690   6.8603020 106.3684990
  23.7655560   7.4032690 107.0242570  23.8128420   6.0349970 106.3781330
  20.5426490   9.6492050 113.8205250  20.8729500   8.7813110 113.5883890
  20.9717490   9.8550570 114.6510210  25.1388410   7.9801060 111.4807220
  24.8383950   7.8566030 112.3811130  25.0325900   7.1209650 111.0722950
  21.0316700  10.5162640 116.5586880  20.5947690  10.6963440 117.3911030
  21.5994380  11.2737260 116.4168600  36.6678880  10.0179640 120.8464190
  36.0680870  10.0772200 120.1028110  36.7972780   9.0784620 120.9761040
  37.9080330   7.7597460 106.1833900  37.0773290   7.8274110 106.6541130
  38.0852160   8.6501580 105.8800760  37.3636790   4.5044940 108.6868100
  38.1255700   5.0741590 108.7927790  37.3791160   3.9372140 109.4576410
  20.8641130   3.0282870 112.9175760  20.2089970   2.7594510 112.2735460
  21.7019080   2.9187350 112.4677740  38.3696760   5.3595040 113.5310030
  38.7405590   4.5762360 113.1246000  39.0098690   6.0484140 113.3527330
  35.3530520   6.7431620 118.9440350  34.5390360   7.1728780 119.2066140
  35.7604720   7.3550030 118.3309400  37.4155960   4.7979310 105.8440620
  37.6904800   5.7058190 105.7159840  37.2266700   4.7341840 106.7802610
  37.3121300   2.7348300 110.8370050  36.9364900   1.9676230 110.4051340
  36.5824420   3.1171000 111.3244980  21.9017060   3.4135440 117.4579100
  22.2690100   3.3262840 118.3375120  21.3327880   2.6501990 117.3585960
  36.7020920   1.8819820 120.4709570  36.4707010   1.6532570 119.5707520
  36.9625470   2.8019370 120.4254460  35.4106570  11.4950220 112.4708620
  36.0065640  11.1734790 111.7943040  35.6684720  11.0222040 113.2621890
  23.3169140   7.9268130 122.6199250  23.2738770   7.5561040 123.5013710
  23.4480150   8.8645700 122.7601070  27.0175170   9.4827720 118.2208970
  26.7766530   9.7502280 117.3339490  27.9577810   9.6533450 118.2759830
  38.2779330  11.5022100 119.0219610  37.7837610  11.8990970 118.3046740
  37.6692620  10.8771310 119.4156890  23.1557170  10.8730380 119.7397030
  22.5617490  10.7415080 120.4787070  23.1481010  10.0368520 119.2739130
  35.9618780  12.1445520 116.3006350  35.5021750  12.8961330 115.9264370
  35.3331240  11.4251990 116.2421150  22.7869400   8.2388760 118.6905070
  22.0603460   7.6194050 118.6231020  22.8478550   8.6329370 117.8203150
  26.3914500  10.4533760 115.4754480  26.9079520   9.8421120 114.9502740
  27.0411880  10.9562540 115.9665490  29.1310000  11.3442250 116.3023460
  29.4187810  11.0896550 115.4256470  29.6433220  10.7919610 116.8929030
  21.0699400  11.5563150 111.9001830  20.9021440  10.9233830 112.5983720
  20.2033910  11.7622550 111.5496020  22.6762100  10.2496380 109.3451970
  22.1509720  10.6304410 108.6413930  22.6006680  10.8747150 110.0661680
  29.1982360  12.2658350 123.6691660  30.1249670  12.0302620 123.7127620
  29.1832790  13.0930350 123.1877690  37.4327420  11.8083920 110.6665910
  37.6079610  11.1221660 110.0226830  36.7348990  12.3330970 110.2742580
  25.2755070  12.1978760 108.2201220  26.0073890  11.9138040 107.6725110
  25.5348740  11.9592040 109.1100600  24.4369860   8.3143490 108.2247550
  23.8078740   8.7828590 108.7733380  24.5517690   7.4692710 108.6593740
  35.7659920  11.4928210 123.4932700  36.5585240  10.9977440 123.2858660
  36.0593070  12.1718350 124.1008310  31.8919580   2.3649150  94.3748750
  31.8113630   1.4503760  94.1040460  31.4784000   2.8616220  93.6688460
  30.0237620   4.1428170  96.2558020  29.2479720   3.6628610  96.5456590
  30.6750550   3.4633820  96.0814180  24.0403450   4.4547980  97.1333780
  23.2088330   4.1996690  97.5330290  24.6484430   4.5258750  97.8691700
  34.0445050   8.5488360  95.0357150  33.5826580   7.7775600  95.3644320
  34.8570600   8.5754430  95.5409600  24.0204710   8.4888070  97.3291800
  24.3232750   7.5985810  97.1502020  24.7648300   9.0458290  97.1014050
  30.2708360  10.8346370  94.6561140  29.6519800  11.2903870  94.0855580
  31.1260140  10.9897830  94.2550840  29.4646610   6.8185360  96.2628180
  29.3954890   5.8775300  96.1017310  30.2266470   6.9086770  96.8350750
  31.1371710   5.7185610  92.0493050  30.5188980   6.1835060  91.4855770
  31.6494960   6.4113090  92.4662560  26.0003470   5.2461480  98.7276650
  25.6672850   5.8730400  99.3697720  26.1770150   5.7723360  97.9478320
  25.2122570   7.2142280 100.5425830  25.8296570   7.8893360 100.2610280
  24.3515690   7.6230260 100.4513330  20.5054910   6.4042140  89.4232680
  20.1282890   6.8929240  88.6917580  20.7627980   7.0767420  90.0539210
  36.1300160   8.6781690  98.4580470  35.4463680   9.3480800  98.4497140
  36.6694450   8.8762340  97.6925330  33.6658900  10.5225820  97.1725650
  33.6786060  10.1188110  96.3047910  33.1134120  11.2973110  97.0687080
  34.9604320   7.2442040  92.2615820  34.8500650   6.3016370  92.3865240
  34.9572570   7.6057680  93.1478580  33.0644340   5.4255660  98.5008260
  33.4813130   5.2115770  97.6661720  33.7884160   5.6828450  99.0716880
  30.5024600   2.8707360  91.6178310  29.5753880   2.8044740  91.8466780
  30.6549420   3.8087490  91.5033550  37.0106440   3.8242880  98.5924500
  36.1825070   3.8935970  98.1174630  37.6056920   4.4097190  98.1240330
  34.5321890   4.4327660  92.1213560  33.9134310   4.0947210  91.4739860
  34.5146340   3.7887420  92.8292750  26.1081240   3.3972100  94.3998040
  25.7038240   2.6849350  93.9043940  26.1944360   3.0525340  95.2886080
  26.5762940   7.0839660  96.5637250  26.2791230   6.4785130  95.8845030
  27.5262760   7.1216970  96.4526610  34.6648550  10.6571530 100.2260350
  34.1879110  11.4643720 100.0332960  33.9810340  10.0049860 100.3786560
  25.6681370   6.8221350 103.2145050  24.7709900   7.0461320 103.4618450
  25.6934240   6.9456290 102.2656450  32.7086590   3.6714470  89.1286310
  33.1479870   2.8336900  88.9824130  33.4215010   4.3043870  89.2150450
  24.4952590   3.6934670 101.7902420  24.3560360   4.5657470 102.1589820
  23.6133950   3.3507480 101.6450360  30.8181970   8.6110540  93.0967550
  31.2577880   9.3534870  92.6822940  30.7568860   8.8537110  94.0206510
  26.2932940   9.6356370 103.9987570  26.2648370  10.0399320 103.1316000
  26.1297910   8.7066730 103.8359170  22.8085870   2.2917080  91.9004690
  22.6883470   3.0179170  91.2885960  22.4986760   1.5219990  91.4232600
  38.2447760  10.4183470 105.2951740  38.7207480  10.8966360 105.9740820
  38.8654920  10.3500960 104.5697240  20.4471240   5.4632220  97.7073330
  20.5251660   5.5980990  96.7629050  21.0612920   4.7548110  97.9001450
  21.6918870   7.1632410  94.1179510  21.2846950   7.3047000  93.2633110
  22.5831880   6.8792570  93.9150720  37.6481010   7.6096320 102.4551750
  37.7744070   7.3708200 101.5368930  37.6902390   6.7780860 102.9273830
  31.5097750  11.3124320 101.0246560  32.0242420  11.2232330 101.8268990
  30.6666830  11.6584020 101.3174470  33.4852150  11.5979660  90.4530560
  33.3253290  11.3082600  91.3512390  33.3198860  10.8219790  89.9175790
  25.9640530  11.3778190  92.2302180  25.7883010  10.4613730  92.0169980
  25.1096270  11.7365480  92.4699980  33.1878280   9.1067220  89.0128560
  32.4943440   9.1044510  88.3530840  33.9301140   8.6826540  88.5822730
  32.7528210  10.7329930  93.0877050  33.2085160   9.9519310  93.4015670
  33.0920730  11.4436750  93.6318230  20.5030760   6.5046390 100.2467790
  20.6661800   6.0351750  99.4287160  20.9683210   5.9969950 100.9116630
  27.0000560   1.9785800  88.5296870  26.4317460   1.5304050  87.9032780
  27.7089560   2.3378580  87.9962020  22.0769740   5.8797820 102.4063600
  21.6924530   5.2391490 103.0046560  22.3881930   6.5833940 102.9758330
  28.2266880   2.7274360  97.8872220  28.5937010   2.2532930  98.6333560
  28.0371940   3.6015930  98.2280560  26.0166250   1.7683000 100.2056430
  25.7123320   2.6474980 100.4306790  26.9712710   1.8282790 100.2413870
  24.5448040   5.9743990  90.8023280  23.7710300   5.4341610  90.6422000
  25.2742670   5.4550600  90.4641040  35.3036020   4.9709350  96.5949670
  36.0235140   5.4664640  96.2045780  35.1017840   4.2927240  95.9503540
  30.6854820   5.0418410 102.4818670  30.6192130   4.1214080 102.2276260
  30.0559960   5.1393850 103.1963310  24.5885440   5.6424370  94.4402090
  25.1064110   4.8392630  94.3858980  24.1369460   5.5803510  95.2818920
  29.4754940   6.9090650  89.7129390  29.8170640   7.6532880  89.2172710
  28.6467650   7.2221770  90.0754220  22.0729980   2.6085740 101.3527790
  21.7144920   3.2739590 101.9401130  21.7784540   1.7769290 101.7240410
  25.2743100   3.0669980 104.2367340  24.9743240   3.2127160 103.3395160
  26.0454340   2.5075270 104.1440730  30.6171550   7.8638980 102.2322470
  30.6316090   6.9319940 102.0141380  29.9096650   7.9498740 102.8712240
  35.7508620   2.0478800  88.5021080  35.6672340   2.4793020  87.6517520
  36.4702810   2.5077150  88.9347900  36.8282760   4.5046320 101.5791050
  36.1030950   5.0975100 101.3820440  37.3558220   4.4969860 100.7804420
  36.7795870   8.9021060  91.2303210  36.1372030   8.2476680  91.5046930
  36.3926530   9.3076150  90.4543880  32.3582350   6.2306490  95.0774900
  32.7106170   5.6334620  94.4176270  31.4744680   5.9050720  95.2483150
  28.4445630   6.9904180  92.4845310  29.1316760   7.5373390  92.8652900
  27.6578050   7.5344910  92.5194920  20.5838030   2.6077000  87.9762390
  21.4532880   2.8901800  88.2598310  20.0928350   3.4212870  87.8611200
  27.7472840   3.9950210  92.0970670  28.2035620   4.8055460  92.3230860
  27.3961050   3.6773350  92.9289160  30.0505450   9.5056550  99.3262970
  30.6947670   9.7115930 100.0036390  30.4134890   8.7444950  98.8733820
  31.3237530   7.5088900  98.0440420  31.9659760   6.8082060  98.1572590
  31.8486880   8.2887340  97.8637310  35.1693250   7.7937520  87.7679560
  34.9430830   7.0767960  88.3604200  34.7789450   7.5449960  86.9301310
  33.0975150   8.3083800 101.2476480  33.4331390   8.8950490 101.9254400
  32.1775490   8.1776510 101.4774270  20.9509280  11.8204380  88.5424020
  21.3106920  12.4193720  87.8881290  20.8101620  12.3664270  89.3159050
  34.7509500   5.7109460  89.4293720  34.4631200   6.1722150  90.2171600
  35.5461670   5.2507230  89.6977940  20.9351140  10.0859240 103.0166420
  21.0442260   9.1453980 102.8761810  20.2831700  10.3513990 102.3680150
  28.9263730   8.3575130 104.4164540  28.6060600   7.6384370 104.9610230
  28.2522090   9.0330200 104.4900600  26.9677900   9.2035580  89.3597690
  26.9588000   9.9365270  88.7442200  26.0476260   8.9567160  89.4524650
  22.5684540   4.4250470  90.1044450  21.9612490   5.1649370  90.1139750
  23.0433890   4.5149830  89.2782650  29.9537500   9.2663820  88.0222880
  30.0549480   9.0627810  87.0924860  29.0539240   9.0122100  88.2270660
  28.5955610  11.7850140  92.7170550  28.8497110  11.7471530  91.7949920
  27.6468090  11.6583470  92.7098800  34.6008190   2.7042020  94.2929060
  33.6598330   2.7192250  94.4676750  34.9152260   1.9177980  94.7389360
  24.5789830   4.3861620  87.8533020  25.3453100   4.2742980  88.4158450
  24.6564520   3.6899590  87.2009790  36.6033770   9.8750870  95.9683320
  36.7281190  10.6982040  96.4407130  37.4699330   9.6641600  95.6207470
  24.0751300  11.9682080  95.6400450  24.8113780  11.4197540  95.9109020
  24.4592220  12.8338090  95.5006440  20.9596780   8.0355650  91.5141960
  20.0336560   8.2776790  91.5047370  21.4253210   8.8629910  91.3926710
  23.0809580  11.1528150 104.8286030  23.8822310  11.4740200 105.2421430
  22.5661400  10.7923730 105.5505940  27.1853610  11.1412390  87.4626020
  27.9782220  11.4301220  87.0107810  26.6657960  10.7104560  86.7838500
  31.9174210   7.2608020 104.7761440  31.3112370   7.2839620 104.0357190
  31.6128320   6.5291060 105.3128690  33.3474580  10.9888310 103.3870850
  34.2996330  10.9046330 103.3371090  33.2002800  11.6530020 104.0604640
  36.2383780  10.3682520  88.8862760  35.9525290   9.9547660  88.0716940
  36.0403330  11.2970230  88.7663280  20.8007390   3.6401610 103.7722080
  21.3046410   3.0608890 104.3438310  20.0614810   3.9241840 104.3098450
  27.7031010   6.3615800  87.3268370  27.5981650   5.7468150  88.0529750
  27.5355230   5.8381690  86.5431380  27.8545330   5.0472600 103.3057600
  27.0891000   5.6157600 103.2212270  28.0361290   4.7548810 102.4125830
  30.9433740   5.4235830  87.9310360  30.3943840   5.8705130  88.5753100
  31.5653000   4.9185080  88.4548030  34.9968680   6.7777930 103.8632620
  35.7378150   7.1153690 103.3600080  34.2341360   6.9469990 103.3102390
  22.8330470   1.7831200 104.6672150  22.8735810   1.4845070 105.5757380
  23.6875970   2.1838810 104.5079670  26.6108860   4.3826750  89.8275660
  27.0325280   4.2166620  90.6707050  26.7359700   3.5726980  89.3330800
  29.1236500   3.4064360  87.0752760  29.6442160   2.6913380  86.7093910
  29.7704900   4.0450230  87.3753270  33.6714340   4.8292760 102.3987830
  34.0855360   4.9837840 103.2478250  32.7365340   4.9547980 102.5613610
  34.1436510   2.1688920 104.4026980  34.7257280   1.4141240 104.3147460
  34.3198280   2.6996360 103.6258460  28.4329570   4.7813240 100.3683760
  28.8517680   5.6245970 100.1960000  27.5138200   4.9185280 100.1390540
  30.7693470   2.5129420 101.7521600  30.8889680   1.9170560 102.4916440
  31.6287470   2.5499110 101.3322900  33.1081370   3.0666610 100.3284110
  32.5816590   3.5909230  99.7249250  33.4512710   3.6994000 100.9593840
  26.2836990  11.0866250 101.4841490  25.7458080  11.8112310 101.1650190
  26.5370950  10.6096590 100.6938830  29.1399200  12.3217460 101.7428140
  29.0657900  13.2252600 102.0500510  28.2378040  12.0029360 101.7150210
  29.6884530  11.4875970  89.3654500  30.5835320  11.8260940  89.3873260
  29.7202160  10.7655380  88.7378780  23.3280690   6.8603020  87.5941500
  23.7655560   7.4032690  88.2499080  23.8128420   6.0349970  87.6037840
  20.5426490   9.6492050  95.0461760  20.8729500   8.7813110  94.8140400
  20.9717490   9.8550570  95.8766720  25.1388410   7.9801060  92.7063730
  24.8383950   7.8566030  93.6067640  25.0325900   7.1209650  92.2979460
  21.0316700  10.5162640  97.7843390  20.5947690  10.6963440  98.6167540
  21.5994380  11.2737260  97.6425110  36.6678880  10.0179640 102.0720700
  36.0680870  10.0772200 101.3284620  36.7972780   9.0784620 102.2017550
  37.9080330   7.7597460  87.4090410  37.0773290   7.8274110  87.8797640
  38.0852160   8.6501580  87.1057270  37.3636790   4.5044940  89.9124610
  38.1255700   5.0741590  90.0184300  37.3791160   3.9372140  90.6832920
  20.8641130   3.0282870  94.1432270  20.2089970   2.7594510  93.4991970
  21.7019080   2.9187350  93.6934250  38.3696760   5.3595040  94.7566540
  38.7405590   4.5762360  94.3502510  39.0098690   6.0484140  94.5783840
  35.3530520   6.7431620 100.1696860  34.5390360   7.1728780 100.4322650
  35.7604720   7.3550030  99.5565910  37.4155960   4.7979310  87.0697130
  37.6904800   5.7058190  86.9416350  37.2266700   4.7341840  88.0059120
  37.3121300   2.7348300  92.0626560  36.9364900   1.9676230  91.6307850
  36.5824420   3.1171000  92.5501490  21.9017060   3.4135440  98.6835610
  22.2690100   3.3262840  99.5631630  21.3327880   2.6501990  98.5842470
  36.7020920   1.8819820 101.6966080  36.4707010   1.6532570 100.7964030
  36.9625470   2.8019370 101.6510970  35.4106570  11.4950220  93.6965130
  36.0065640  11.1734790  93.0199550  35.6684720  11.0222040  94.4878400
  23.3169140   7.9268130 103.8455760  23.2738770   7.5561040 104.7270220
  23.4480150   8.8645700 103.9857580  27.0175170   9.4827720  99.4465480
  26.7766530   9.7502280  98.5596000  27.9577810   9.6533450  99.5016340
  38.2779330  11.5022100 100.2476120  37.7837610  11.8990970  99.5303250
  37.6692620  10.8771310 100.6413400  23.1557170  10.8730380 100.9653540
  22.5617490  10.7415080 101.7043580  23.1481010  10.0368520 100.4995640
  35.9618780  12.1445520  97.5262860  35.5021750  12.8961330  97.1520880
  35.3331240  11.4251990  97.4677660  22.7869400   8.2388760  99.9161580
  22.0603460   7.6194050  99.8487530  22.8478550   8.6329370  99.0459660
  26.3914500  10.4533760  96.7010990  26.9079520   9.8421120  96.1759250
  27.0411880  10.9562540  97.1922000  29.1310000  11.3442250  97.5279970
  29.4187810  11.0896550  96.6512980  29.6433220  10.7919610  98.1185540
  21.0699400  11.5563150  93.1258340  20.9021440  10.9233830  93.8240230
  20.2033910  11.7622550  92.7752530  22.6762100  10.2496380  90.5708480
  22.1509720  10.6304410  89.8670440  22.6006680  10.8747150  91.2918190
  29.1982360  12.2658350 104.8948170  30.1249670  12.0302620 104.9384130
  29.1832790  13.0930350 104.4134200  37.4327420  11.8083920  91.8922420
  37.6079610  11.1221660  91.2483340  36.7348990  12.3330970  91.4999090
  25.2755070  12.1978760  89.4457730  26.0073890  11.9138040  88.8981620
  25.5348740  11.9592040  90.3357110  24.4369860   8.3143490  89.4504060
  23.8078740   8.7828590  89.9989890  24.5517690   7.4692710  89.8850250
  35.7659920  11.4928210 104.7189210  36.5585240  10.9977440 104.5115170
  36.0593070  12.1718350 105.3264820  31.8919580   2.3649150  75.6005260
  31.8113630   1.4503760  75.3296970  31.4784000   2.8616220  74.8944970
  30.0237620   4.1428170  77.4814530  29.2479720   3.6628610  77.7713100
  30.6750550   3.4633820  77.3070690  24.0403450   4.4547980  78.3590290
  23.2088330   4.1996690  78.7586800  24.6484430   4.5258750  79.0948210
  34.0445050   8.5488360  76.2613660  33.5826580   7.7775600  76.5900830
  34.8570600   8.5754430  76.7666110  24.0204710   8.4888070  78.5548310
  24.3232750   7.5985810  78.3758530  24.7648300   9.0458290  78.3270560
  30.2708360  10.8346370  75.8817650  29.6519800  11.2903870  75.3112090
  31.1260140  10.9897830  75.4807350  29.4646610   6.8185360  77.4884690
  29.3954890   5.8775300  77.3273820  30.2266470   6.9086770  78.0607260
  31.1371710   5.7185610  73.2749560  30.5188980   6.1835060  72.7112280
  31.6494960   6.4113090  73.6919070  26.0003470   5.2461480  79.9533160
  25.6672850   5.8730400  80.5954230  26.1770150   5.7723360  79.1734830
  25.2122570   7.2142280  81.7682340  25.8296570   7.8893360  81.4866790
  24.3515690   7.6230260  81.6769840  20.5054910   6.4042140  70.6489190
  20.1282890   6.8929240  69.9174090  20.7627980   7.0767420  71.2795720
  36.1300160   8.6781690  79.6836980  35.4463680   9.3480800  79.6753650
  36.6694450   8.8762340  78.9181840  33.6658900  10.5225820  78.3982160
  33.6786060  10.1188110  77.5304420  33.1134120  11.2973110  78.2943590
  34.9604320   7.2442040  73.4872330  34.8500650   6.3016370  73.6121750
  34.9572570   7.6057680  74.3735090  33.0644340   5.4255660  79.7264770
  33.4813130   5.2115770  78.8918230  33.7884160   5.6828450  80.2973390
  30.5024600   2.8707360  72.8434820  29.5753880   2.8044740  73.0723290
  30.6549420   3.8087490  72.7290060  37.0106440   3.8242880  79.8181010
  36.1825070   3.8935970  79.3431140  37.6056920   4.4097190  79.3496840
  34.5321890   4.4327660  73.3470070  33.9134310   4.0947210  72.6996370
  34.5146340   3.7887420  74.0549260  26.1081240   3.3972100  75.6254550
  25.7038240   2.6849350  75.1300450  26.1944360   3.0525340  76.5142590
  26.5762940   7.0839660  77.7893760  26.2791230   6.4785130  77.1101540
  27.5262760   7.1216970  77.6783120  34.6648550  10.6571530  81.4516860
  34.1879110  11.4643720  81.2589470  33.9810340  10.0049860  81.6043070
  25.6681370   6.8221350  84.4401560  24.7709900   7.0461320  84.6874960
  25.6934240   6.9456290  83.4912960  32.7086590   3.6714470  70.3542820
  33.1479870   2.8336900  70.2080640  33.4215010   4.3043870  70.4406960
  24.4952590   3.6934670  83.0158930  24.3560360   4.5657470  83.3846330
  23.6133950   3.3507480  82.8706870  30.8181970   8.6110540  74.3224060
  31.2577880   9.3534870  73.9079450  30.7568860   8.8537110  75.2463020
  26.2932940   9.6356370  85.2244080  26.2648370  10.0399320  84.3572510
  26.1297910   8.7066730  85.0615680  22.8085870   2.2917080  73.1261200
  22.6883470   3.0179170  72.5142470  22.4986760   1.5219990  72.6489110
  38.2447760  10.4183470  86.5208250  38.7207480  10.8966360  87.1997330
  38.8654920  10.3500960  85.7953750  20.4471240   5.4632220  78.9329840
  20.5251660   5.5980990  77.9885560  21.0612920   4.7548110  79.1257960
  21.6918870   7.1632410  75.3436020  21.2846950   7.3047000  74.4889620
  22.5831880   6.8792570  75.1407230  37.6481010   7.6096320  83.6808260
  37.7744070   7.3708200  82.7625440  37.6902390   6.7780860  84.1530340
  31.5097750  11.3124320  82.2503070  32.0242420  11.2232330  83.0525500
  30.6666830  11.6584020  82.5430980  33.4852150  11.5979660  71.6787070
  33.3253290  11.3082600  72.5768900  33.3198860  10.8219790  71.1432300
  25.9640530  11.3778190  73.4558690  25.7883010  10.4613730  73.2426490
  25.1096270  11.7365480  73.6956490  33.1878280   9.1067220  70.2385070
  32.4943440   9.1044510  69.5787350  33.9301140   8.6826540  69.8079240
  32.7528210  10.7329930  74.3133560  33.2085160   9.9519310  74.6272180
  33.0920730  11.4436750  74.8574740  20.5030760   6.5046390  81.4724300
  20.6661800   6.0351750  80.6543670  20.9683210   5.9969950  82.1373140
  27.0000560   1.9785800  69.7553380  26.4317460   1.5304050  69.1289290
  27.7089560   2.3378580  69.2218530  22.0769740   5.8797820  83.6320110
  21.6924530   5.2391490  84.2303070  22.3881930   6.5833940  84.2014840
  28.2266880   2.7274360  79.1128730  28.5937010   2.2532930  79.8590070
  28.0371940   3.6015930  79.4537070  26.0166250   1.7683000  81.4312940
  25.7123320   2.6474980  81.6563300  26.9712710   1.8282790  81.4670380
  24.5448040   5.9743990  72.0279790  23.7710300   5.4341610  71.8678510
  25.2742670   5.4550600  71.6897550  35.3036020   4.9709350  77.8206180
  36.0235140   5.4664640  77.4302290  35.1017840   4.2927240  77.1760050
  30.6854820   5.0418410  83.7075180  30.6192130   4.1214080  83.4532770
  30.0559960   5.1393850  84.4219820  24.5885440   5.6424370  75.6658600
  25.1064110   4.8392630  75.6115490  24.1369460   5.5803510  76.5075430
  29.4754940   6.9090650  70.9385900  29.8170640   7.6532880  70.4429220
  28.6467650   7.2221770  71.3010730  22.0729980   2.6085740  82.5784300
  21.7144920   3.2739590  83.1657640  21.7784540   1.7769290  82.9496920
  25.2743100   3.0669980  85.4623850  24.9743240   3.2127160  84.5651670
  26.0454340   2.5075270  85.3697240  30.6171550   7.8638980  83.4578980
  30.6316090   6.9319940  83.2397890  29.9096650   7.9498740  84.0968750
  35.7508620   2.0478800  69.7277590  35.6672340   2.4793020  68.8774030
  36.4702810   2.5077150  70.1604410  36.8282760   4.5046320  82.8047560
  36.1030950   5.0975100  82.6076950  37.3558220   4.4969860  82.0060930
  36.7795870   8.9021060  72.4559720  36.1372030   8.2476680  72.7303440
  36.3926530   9.3076150  71.6800390  32.3582350   6.2306490  76.3031410
  32.7106170   5.6334620  75.6432780  31.4744680   5.9050720  76.4739660
  28.4445630   6.9904180  73.7101820  29.1316760   7.5373390  74.0909410
  27.6578050   7.5344910  73.7451430  20.5838030   2.6077000  69.2018900
  21.4532880   2.8901800  69.4854820  20.0928350   3.4212870  69.0867710
  27.7472840   3.9950210  73.3227180  28.2035620   4.8055460  73.5487370
  27.3961050   3.6773350  74.1545670  30.0505450   9.5056550  80.5519480
  30.6947670   9.7115930  81.2292900  30.4134890   8.7444950  80.0990330
  31.3237530   7.5088900  79.2696930  31.9659760   6.8082060  79.3829100
  31.8486880   8.2887340  79.0893820  35.1693250   7.7937520  68.9936070
  34.9430830   7.0767960  69.5860710  34.7789450   7.5449960  68.1557820
  33.0975150   8.3083800  82.4732990  33.4331390   8.8950490  83.1510910
  32.1775490   8.1776510  82.7030780  20.9509280  11.8204380  69.7680530
  21.3106920  12.4193720  69.1137800  20.8101620  12.3664270  70.5415560
  34.7509500   5.7109460  70.6550230  34.4631200   6.1722150  71.4428110
  35.5461670   5.2507230  70.9234450  20.9351140  10.0859240  84.2422930
  21.0442260   9.1453980  84.1018320  20.2831700  10.3513990  83.5936660
  28.9263730   8.3575130  85.6421050  28.6060600   7.6384370  86.1866740
  28.2522090   9.0330200  85.7157110  26.9677900   9.2035580  70.5854200
  26.9588000   9.9365270  69.9698710  26.0476260   8.9567160  70.6781160
  22.5684540   4.4250470  71.3300960  21.9612490   5.1649370  71.3396260
  23.0433890   4.5149830  70.5039160  29.9537500   9.2663820  69.2479390
  30.0549480   9.0627810  68.3181370  29.0539240   9.0122100  69.4527170
  28.5955610  11.7850140  73.9427060  28.8497110  11.7471530  73.0206430
  27.6468090  11.6583470  73.9355310  34.6008190   2.7042020  75.5185570
  33.6598330   2.7192250  75.6933260  34.9152260   1.9177980  75.9645870
  24.5789830   4.3861620  69.0789530  25.3453100   4.2742980  69.6414960
  24.6564520   3.6899590  68.4266300  36.6033770   9.8750870  77.1939830
  36.7281190  10.6982040  77.6663640  37.4699330   9.6641600  76.8463980
  24.0751300  11.9682080  76.8656960  24.8113780  11.4197540  77.1365530
  24.4592220  12.8338090  76.7262950  20.9596780   8.0355650  72.7398470
  20.0336560   8.2776790  72.7303880  21.4253210   8.8629910  72.6183220
  23.0809580  11.1528150  86.0542540  23.8822310  11.4740200  86.4677940
  22.5661400  10.7923730  86.7762450  27.1853610  11.1412390  68.6882530
  27.9782220  11.4301220  68.2364320  26.6657960  10.7104560  68.0095010
  31.9174210   7.2608020  86.0017950  31.3112370   7.2839620  85.2613700
  31.6128320   6.5291060  86.5385200  33.3474580  10.9888310  84.6127360
  34.2996330  10.9046330  84.5627600  33.2002800  11.6530020  85.2861150
  36.2383780  10.3682520  70.1119270  35.9525290   9.9547660  69.2973450
  36.0403330  11.2970230  69.9919790  20.8007390   3.6401610  84.9978590
  21.3046410   3.0608890  85.5694820  20.0614810   3.9241840  85.5354960
  27.7031010   6.3615800  68.5524880  27.5981650   5.7468150  69.2786260
  27.5355230   5.8381690  67.7687890  27.8545330   5.0472600  84.5314110
  27.0891000   5.6157600  84.4468780  28.0361290   4.7548810  83.6382340
  30.9433740   5.4235830  69.1566870  30.3943840   5.8705130  69.8009610
  31.5653000   4.9185080  69.6804540  34.9968680   6.7777930  85.0889130
  35.7378150   7.1153690  84.5856590  34.2341360   6.9469990  84.5358900
  22.8330470   1.7831200  85.8928660  22.8735810   1.4845070  86.8013890
  23.6875970   2.1838810  85.7336180  26.6108860   4.3826750  71.0532170
  27.0325280   4.2166620  71.8963560  26.7359700   3.5726980  70.5587310
  29.1236500   3.4064360  68.3009270  29.6442160   2.6913380  67.9350420
  29.7704900   4.0450230  68.6009780  33.6714340   4.8292760  83.6244340
  34.0855360   4.9837840  84.4734760  32.7365340   4.9547980  83.7870120
  34.1436510   2.1688920  85.6283490  34.7257280   1.4141240  85.5403970
  34.3198280   2.6996360  84.8514970  28.4329570   4.7813240  81.5940270
  28.8517680   5.6245970  81.4216510  27.5138200   4.9185280  81.3647050
  30.7693470   2.5129420  82.9778110  30.8889680   1.9170560  83.7172950
  31.6287470   2.5499110  82.5579410  33.1081370   3.0666610  81.5540620
  32.5816590   3.5909230  80.9505760  33.4512710   3.6994000  82.1850350
  26.2836990  11.0866250  82.7098000  25.7458080  11.8112310  82.3906700
  26.5370950  10.6096590  81.9195340  29.1399200  12.3217460  82.9684650
  29.0657900  13.2252600  83.2757020  28.2378040  12.0029360  82.9406720
  29.6884530  11.4875970  70.5911010  30.5835320  11.8260940  70.6129770
  29.7202160  10.7655380  69.9635290  23.3280690   6.8603020  68.8198010
  23.7655560   7.4032690  69.4755590  23.8128420   6.0349970  68.8294350
  20.5426490   9.6492050  76.2718270  20.8729500   8.7813110  76.0396910
  20.9717490   9.8550570  77.1023230  25.1388410   7.9801060  73.9320240
  24.8383950   7.8566030  74.8324150  25.0325900   7.1209650  73.5235970
  21.0316700  10.5162640  79.0099900  20.5947690  10.6963440  79.8424050
  21.5994380  11.2737260  78.8681620  36.6678880  10.0179640  83.2977210
  36.0680870  10.0772200  82.5541130  36.7972780   9.0784620  83.4274060
  37.9080330   7.7597460  68.6346920  37.0773290   7.8274110  69.1054150
  38.0852160   8.6501580  68.3313780  37.3636790   4.5044940  71.1381120
  38.1255700   5.0741590  71.2440810  37.3791160   3.9372140  71.9089430
  20.8641130   3.0282870  75.3688780  20.2089970   2.7594510  74.7248480
  21.7019080   2.9187350  74.9190760  38.3696760   5.3595040  75.9823050
  38.7405590   4.5762360  75.5759020  39.0098690   6.0484140  75.8040350
  35.3530520   6.7431620  81.3953370  34.5390360   7.1728780  81.6579160
  35.7604720   7.3550030  80.7822420  37.4155960   4.7979310  68.2953640
  37.6904800   5.7058190  68.1672860  37.2266700   4.7341840  69.2315630
  37.3121300   2.7348300  73.2883070  36.9364900   1.9676230  72.8564360
  36.5824420   3.1171000  73.7758000  21.9017060   3.4135440  79.9092120
  22.2690100   3.3262840  80.7888140  21.3327880   2.6501990  79.8098980
  36.7020920   1.8819820  82.9222590  36.4707010   1.6532570  82.0220540
  36.9625470   2.8019370  82.8767480  35.4106570  11.4950220  74.9221640
  36.0065640  11.1734790  74.2456060  35.6684720  11.0222040  75.7134910
  23.3169140   7.9268130  85.0712270  23.2738770   7.5561040  85.9526730
  23.4480150   8.8645700  85.2114090  27.0175170   9.4827720  80.6721990
  26.7766530   9.7502280  79.7852510  27.9577810   9.6533450  80.7272850
  38.2779330  11.5022100  81.4732630  37.7837610  11.8990970  80.7559760
  37.6692620  10.8771310  81.8669910  23.1557170  10.8730380  82.1910050
  22.5617490  10.7415080  82.9300090  23.1481010  10.0368520  81.7252150
  35.9618780  12.1445520  78.7519370  35.5021750  12.8961330  78.3777390
  35.3331240  11.4251990  78.6934170  22.7869400   8.2388760  81.1418090
  22.0603460   7.6194050  81.0744040  22.8478550   8.6329370  80.2716170
  26.3914500  10.4533760  77.9267500  26.9079520   9.8421120  77.4015760
  27.0411880  10.9562540  78.4178510  29.1310000  11.3442250  78.7536480
  29.4187810  11.0896550  77.8769490  29.6433220  10.7919610  79.3442050
  21.0699400  11.5563150  74.3514850  20.9021440  10.9233830  75.0496740
  20.2033910  11.7622550  74.0009040  22.6762100  10.2496380  71.7964990
  22.1509720  10.6304410  71.0926950  22.6006680  10.8747150  72.5174700
  29.1982360  12.2658350  86.1204680  30.1249670  12.0302620  86.1640640
  29.1832790  13.0930350  85.6390710  37.4327420  11.8083920  73.1178930
  37.6079610  11.1221660  72.4739850  36.7348990  12.3330970  72.7255600
  25.2755070  12.1978760  70.6714240  26.0073890  11.9138040  70.1238130
  25.5348740  11.9592040  71.5613620  24.4369860   8.3143490  70.6760570
  23.8078740   8.7828590  71.2246400  24.5517690   7.4692710  71.1106760
  35.7659920  11.4928210  85.9445720  36.5585240  10.9977440  85.7371680
  36.0593070  12.1718350  86.5521330  31.8919580   2.3649150  56.8261770
  31.8113630   1.4503760  56.5553480  31.4784000   2.8616220  56.1201480
  30.0237620   4.1428170  58.7071040  29.2479720   3.6628610  58.9969610
  30.6750550   3.4633820  58.5327200  24.0403450   4.4547980  59.5846800
  23.2088330   4.1996690  59.9843310  24.6484430   4.5258750  60.3204720
  34.0445050   8.5488360  57.4870170  33.5826580   7.7775600  57.8157340
  34.8570600   8.5754430  57.9922620  24.0204710   8.4888070  59.7804820
  24.3232750   7.5985810  59.6015040  24.7648300   9.0458290  59.5527070
  30.2708360  10.8346370  57.1074160  29.6519800  11.2903870  56.5368600
  31.1260140  10.9897830  56.7063860  29.4646610   6.8185360  58.7141200
  29.3954890   5.8775300  58.5530330  30.2266470   6.9086770  59.2863770
  31.1371710   5.7185610  54.5006070  30.5188980   6.1835060  53.9368790
  31.6494960   6.4113090  54.9175580  26.0003470   5.2461480  61.1789670
  25.6672850   5.8730400  61.8210740  26.1770150   5.7723360  60.3991340
  25.2122570   7.2142280  62.9938850  25.8296570   7.8893360  62.7123300
  24.3515690   7.6230260  62.9026350  20.5054910   6.4042140  51.8745700
  20.1282890   6.8929240  51.1430600  20.7627980   7.0767420  52.5052230
  36.1300160   8.6781690  60.9093490  35.4463680   9.3480800  60.9010160
  36.6694450   8.8762340  60.1438350  33.6658900  10.5225820  59.6238670
  33.6786060  10.1188110  58.7560930  33.1134120  11.2973110  59.5200100
  34.9604320   7.2442040  54.7128840  34.8500650   6.3016370  54.8378260
  34.9572570   7.6057680  55.5991600  33.0644340   5.4255660  60.9521280
  33.4813130   5.2115770  60.1174740  33.7884160   5.6828450  61.5229900
  30.5024600   2.8707360  54.0691330  29.5753880   2.8044740  54.2979800
  30.6549420   3.8087490  53.9546570  37.0106440   3.8242880  61.0437520
  36.1825070   3.8935970  60.5687650  37.6056920   4.4097190  60.5753350
  34.5321890   4.4327660  54.5726580  33.9134310   4.0947210  53.9252880
  34.5146340   3.7887420  55.2805770  26.1081240   3.3972100  56.8511060
  25.7038240   2.6849350  56.3556960  26.1944360   3.0525340  57.7399100
  26.5762940   7.0839660  59.0150270  26.2791230   6.4785130  58.3358050
  27.5262760   7.1216970  58.9039630  34.6648550  10.6571530  62.6773370
  34.1879110  11.4643720  62.4845980  33.9810340  10.0049860  62.8299580
  25.6681370   6.8221350  65.6658070  24.7709900   7.0461320  65.9131470
  25.6934240   6.9456290  64.7169470  32.7086590   3.6714470  51.5799330
  33.1479870   2.8336900  51.4337150  33.4215010   4.3043870  51.6663470
  24.4952590   3.6934670  64.2415440  24.3560360   4.5657470  64.6102840
  23.6133950   3.3507480  64.0963380  30.8181970   8.6110540  55.5480570
  31.2577880   9.3534870  55.1335960  30.7568860   8.8537110  56.4719530
  26.2932940   9.6356370  66.4500590  26.2648370  10.0399320  65.5829020
  26.1297910   8.7066730  66.2872190  22.8085870   2.2917080  54.3517710
  22.6883470   3.0179170  53.7398980  22.4986760   1.5219990  53.8745620
  38.2447760  10.4183470  67.7464760  38.7207480  10.8966360  68.4253840
  38.8654920  10.3500960  67.0210260  20.4471240   5.4632220  60.1586350
  20.5251660   5.5980990  59.2142070  21.0612920   4.7548110  60.3514470
  21.6918870   7.1632410  56.5692530  21.2846950   7.3047000  55.7146130
  22.5831880   6.8792570  56.3663740  37.6481010   7.6096320  64.9064770
  37.7744070   7.3708200  63.9881950  37.6902390   6.7780860  65.3786850
  31.5097750  11.3124320  63.4759580  32.0242420  11.2232330  64.2782010
  30.6666830  11.6584020  63.7687490  33.4852150  11.5979660  52.9043580
  33.3253290  11.3082600  53.8025410  33.3198860  10.8219790  52.3688810
  25.9640530  11.3778190  54.6815200  25.7883010  10.4613730  54.4683000
  25.1096270  11.7365480  54.9213000  33.1878280   9.1067220  51.4641580
  32.4943440   9.1044510  50.8043860  33.9301140   8.6826540  51.0335750
  32.7528210  10.7329930  55.5390070  33.2085160   9.9519310  55.8528690
  33.0920730  11.4436750  56.0831250  20.5030760   6.5046390  62.6980810
  20.6661800   6.0351750  61.8800180  20.9683210   5.9969950  63.3629650
  27.0000560   1.9785800  50.9809890  26.4317460   1.5304050  50.3545800
  27.7089560   2.3378580  50.4475040  22.0769740   5.8797820  64.8576620
  21.6924530   5.2391490  65.4559580  22.3881930   6.5833940  65.4271350
  28.2266880   2.7274360  60.3385240  28.5937010   2.2532930  61.0846580
  28.0371940   3.6015930  60.6793580  26.0166250   1.7683000  62.6569450
  25.7123320   2.6474980  62.8819810  26.9712710   1.8282790  62.6926890
  24.5448040   5.9743990  53.2536300  23.7710300   5.4341610  53.0935020
  25.2742670   5.4550600  52.9154060  35.3036020   4.9709350  59.0462690
  36.0235140   5.4664640  58.6558800  35.1017840   4.2927240  58.4016560
  30.6854820   5.0418410  64.9331690  30.6192130   4.1214080  64.6789280
  30.0559960   5.1393850  65.6476330  24.5885440   5.6424370  56.8915110
  25.1064110   4.8392630  56.8372000  24.1369460   5.5803510  57.7331940
  29.4754940   6.9090650  52.1642410  29.8170640   7.6532880  51.6685730
  28.6467650   7.2221770  52.5267240  22.0729980   2.6085740  63.8040810
  21.7144920   3.2739590  64.3914150  21.7784540   1.7769290  64.1753430
  25.2743100   3.0669980  66.6880360  24.9743240   3.2127160  65.7908180
  26.0454340   2.5075270  66.5953750  30.6171550   7.8638980  64.6835490
  30.6316090   6.9319940  64.4654400  29.9096650   7.9498740  65.3225260
  35.7508620   2.0478800  50.9534100  35.6672340   2.4793020  50.1030540
  36.4702810   2.5077150  51.3860920  36.8282760   4.5046320  64.0304070
  36.1030950   5.0975100  63.8333460  37.3558220   4.4969860  63.2317440
  36.7795870   8.9021060  53.6816230  36.1372030   8.2476680  53.9559950
  36.3926530   9.3076150  52.9056900  32.3582350   6.2306490  57.5287920
  32.7106170   5.6334620  56.8689290  31.4744680   5.9050720  57.6996170
  28.4445630   6.9904180  54.9358330  29.1316760   7.5373390  55.3165920
  27.6578050   7.5344910  54.9707940  20.5838030   2.6077000  50.4275410
  21.4532880   2.8901800  50.7111330  20.0928350   3.4212870  50.3124220
  27.7472840   3.9950210  54.5483690  28.2035620   4.8055460  54.7743880
  27.3961050   3.6773350  55.3802180  30.0505450   9.5056550  61.7775990
  30.6947670   9.7115930  62.4549410  30.4134890   8.7444950  61.3246840
  31.3237530   7.5088900  60.4953440  31.9659760   6.8082060  60.6085610
  31.8486880   8.2887340  60.3150330  35.1693250   7.7937520  50.2192580
  34.9430830   7.0767960  50.8117220  34.7789450   7.5449960  49.3814330
  33.0975150   8.3083800  63.6989500  33.4331390   8.8950490  64.3767420
  32.1775490   8.1776510  63.9287290  20.9509280  11.8204380  50.9937040
  21.3106920  12.4193720  50.3394310  20.8101620  12.3664270  51.7672070
  34.7509500   5.7109460  51.8806740  34.4631200   6.1722150  52.6684620
  35.5461670   5.2507230  52.1490960  20.9351140  10.0859240  65.4679440
  21.0442260   9.1453980  65.3274830  20.2831700  10.3513990  64.8193170
  28.9263730   8.3575130  66.8677560  28.6060600   7.6384370  67.4123250
  28.2522090   9.0330200  66.9413620  26.9677900   9.2035580  51.8110710
  26.9588000   9.9365270  51.1955220  26.0476260   8.9567160  51.9037670
  22.5684540   4.4250470  52.5557470  21.9612490   5.1649370  52.5652770
  23.0433890   4.5149830  51.7295670  29.9537500   9.2663820  50.4735900
  30.0549480   9.0627810  49.5437880  29.0539240   9.0122100  50.6783680
  28.5955610  11.7850140  55.1683570  28.8497110  11.7471530  54.2462940
  27.6468090  11.6583470  55.1611820  34.6008190   2.7042020  56.7442080
  33.6598330   2.7192250  56.9189770  34.9152260   1.9177980  57.1902380
  24.5789830   4.3861620  50.3046040  25.3453100   4.2742980  50.8671470
  24.6564520   3.6899590  49.6522810  36.6033770   9.8750870  58.4196340
  36.7281190  10.6982040  58.8920150  37.4699330   9.6641600  58.0720490
  24.0751300  11.9682080  58.0913470  24.8113780  11.4197540  58.3622040
  24.4592220  12.8338090  57.9519460  20.9596780   8.0355650  53.9654980
  20.0336560   8.2776790  53.9560390  21.4253210   8.8629910  53.8439730
  23.0809580  11.1528150  67.2799050  23.8822310  11.4740200  67.6934450
  22.5661400  10.7923730  68.0018960  27.1853610  11.1412390  49.9139040
  27.9782220  11.4301220  49.4620830  26.6657960  10.7104560  49.2351520
  31.9174210   7.2608020  67.2274460  31.3112370   7.2839620  66.4870210
  31.6128320   6.5291060  67.7641710  33.3474580  10.9888310  65.8383870
  34.2996330  10.9046330  65.7884110  33.2002800  11.6530020  66.5117660
  36.2383780  10.3682520  51.3375780  35.9525290   9.9547660  50.5229960
  36.0403330  11.2970230  51.2176300  20.8007390   3.6401610  66.2235100
  21.3046410   3.0608890  66.7951330  20.0614810   3.9241840  66.7611470
  27.7031010   6.3615800  49.7781390  27.5981650   5.7468150  50.5042770
  27.5355230   5.8381690  48.9944400  27.8545330   5.0472600  65.7570620
  27.0891000   5.6157600  65.6725290  28.0361290   4.7548810  64.8638850
  30.9433740   5.4235830  50.3823380  30.3943840   5.8705130  51.0266120
  31.5653000   4.9185080  50.9061050  34.9968680   6.7777930  66.3145640
  35.7378150   7.1153690  65.8113100  34.2341360   6.9469990  65.7615410
  22.8330470   1.7831200  67.1185170  22.8735810   1.4845070  68.0270400
  23.6875970   2.1838810  66.9592690  26.6108860   4.3826750  52.2788680
  27.0325280   4.2166620  53.1220070  26.7359700   3.5726980  51.7843820
  29.1236500   3.4064360  49.5265780  29.6442160   2.6913380  49.1606930
  29.7704900   4.0450230  49.8266290  33.6714340   4.8292760  64.8500850
  34.0855360   4.9837840  65.6991270  32.7365340   4.9547980  65.0126630
  34.1436510   2.1688920  66.8540000  34.7257280   1.4141240  66.7660480
  34.3198280   2.6996360  66.0771480  28.4329570   4.7813240  62.8196780
  28.8517680   5.6245970  62.6473020  27.5138200   4.9185280  62.5903560
  30.7693470   2.5129420  64.2034620  30.8889680   1.9170560  64.9429460
  31.6287470   2.5499110  63.7835920  33.1081370   3.0666610  62.7797130
  32.5816590   3.5909230  62.1762270  33.4512710   3.6994000  63.4106860
  26.2836990  11.0866250  63.9354510  25.7458080  11.8112310  63.6163210
  26.5370950  10.6096590  63.1451850  29.1399200  12.3217460  64.1941160
  29.0657900  13.2252600  64.5013530  28.2378040  12.0029360  64.1663230
  29.6884530  11.4875970  51.8167520  30.5835320  11.8260940  51.8386280
  29.7202160  10.7655380  51.1891800  23.3280690   6.8603020  50.0454520
  23.7655560   7.4032690  50.7012100  23.8128420   6.0349970  50.0550860
  20.5426490   9.6492050  57.4974780  20.8729500   8.7813110  57.2653420
  20.9717490   9.8550570  58.3279740  25.1388410   7.9801060  55.1576750
  24.8383950   7.8566030  56.0580660  25.0325900   7.1209650  54.7492480
  21.0316700  10.5162640  60.2356410  20.5947690  10.6963440  61.0680560
  21.5994380  11.2737260  60.0938130  36.6678880  10.0179640  64.5233720
  36.0680870  10.0772200  63.7797640  36.7972780   9.0784620  64.6530570
  37.9080330   7.7597460  49.8603430  37.0773290   7.8274110  50.3310660
  38.0852160   8.6501580  49.5570290  37.3636790   4.5044940  52.3637630
  38.1255700   5.0741590  52.4697320  37.3791160   3.9372140  53.1345940
  20.8641130   3.0282870  56.5945290  20.2089970   2.7594510  55.9504990
  21.7019080   2.9187350  56.1447270  38.3696760   5.3595040  57.2079560
  38.7405590   4.5762360  56.8015530  39.0098690   6.0484140  57.0296860
  35.3530520   6.7431620  62.6209880  34.5390360   7.1728780  62.8835670
  35.7604720   7.3550030  62.0078930  37.4155960   4.7979310  49.5210150
  37.6904800   5.7058190  49.3929370  37.2266700   4.7341840  50.4572140
  37.3121300   2.7348300  54.5139580  36.9364900   1.9676230  54.0820870
  36.5824420   3.1171000  55.0014510  21.9017060   3.4135440  61.1348630
  22.2690100   3.3262840  62.0144650  21.3327880   2.6501990  61.0355490
  36.7020920   1.8819820  64.1479100  36.4707010   1.6532570  63.2477050
  36.9625470   2.8019370  64.1023990  35.4106570  11.4950220  56.1478150
  36.0065640  11.1734790  55.4712570  35.6684720  11.0222040  56.9391420
  23.3169140   7.9268130  66.2968780  23.2738770   7.5561040  67.1783240
  23.4480150   8.8645700  66.4370600  27.0175170   9.4827720  61.8978500
  26.7766530   9.7502280  61.0109020  27.9577810   9.6533450  61.9529360
  38.2779330  11.5022100  62.6989140  37.7837610  11.8990970  61.9816270
  37.6692620  10.8771310  63.0926420  23.1557170  10.8730380  63.4166560
  22.5617490  10.7415080  64.1556600  23.1481010  10.0368520  62.9508660
  35.9618780  12.1445520  59.9775880  35.5021750  12.8961330  59.6033900
  35.3331240  11.4251990  59.9190680  22.7869400   8.2388760  62.3674600
  22.0603460   7.6194050  62.3000550  22.8478550   8.6329370  61.4972680
  26.3914500  10.4533760  59.1524010  26.9079520   9.8421120  58.6272270
  27.0411880  10.9562540  59.6435020  29.1310000  11.3442250  59.9792990
  29.4187810  11.0896550  59.1026000  29.6433220  10.7919610  60.5698560
  21.0699400  11.5563150  55.5771360  20.9021440  10.9233830  56.2753250
  20.2033910  11.7622550  55.2265550  22.6762100  10.2496380  53.0221500
  22.1509720  10.6304410  52.3183460  22.6006680  10.8747150  53.7431210
  29.1982360  12.2658350  67.3461190  30.1249670  12.0302620  67.3897150
  29.1832790  13.0930350  66.8647220  37.4327420  11.8083920  54.3435440
  37.6079610  11.1221660  53.6996360  36.7348990  12.3330970  53.9512110
  25.2755070  12.1978760  51.8970750  26.0073890  11.9138040  51.3494640
  25.5348740  11.9592040  52.7870130  24.4369860   8.3143490  51.9017080
  23.8078740   8.7828590  52.4502910  24.5517690   7.4692710  52.3363270
  35.7659920  11.4928210  67.1702230  36.5585240  10.9977440  66.9628190
  36.0593070  12.1718350  67.7777840  31.8919580   2.3649150  38.0518280
  31.8113630   1.4503760  37.7809990  31.4784000   2.8616220  37.3457990
  30.0237620   4.1428170  39.9327550  29.2479720   3.6628610  40.2226120
  30.6750550   3.4633820  39.7583710  24.0403450   4.4547980  40.8103310
  23.2088330   4.1996690  41.2099820  24.6484430   4.5258750  41.5461230
  34.0445050   8.5488360  38.7126680  33.5826580   7.7775600  39.0413850
  34.8570600   8.5754430  39.2179130  24.0204710   8.4888070  41.0061330
  24.3232750   7.5985810  40.8271550  24.7648300   9.0458290  40.7783580
  30.2708360  10.8346370  38.3330670  29.6519800  11.2903870  37.7625110
  31.1260140  10.9897830  37.9320370  29.4646610   6.8185360  39.9397710
  29.3954890   5.8775300  39.7786840  30.2266470   6.9086770  40.5120280
  31.1371710   5.7185610  35.7262580  30.5188980   6.1835060  35.1625300
  31.6494960   6.4113090  36.1432090  26.0003470   5.2461480  42.4046180
  25.6672850   5.8730400  43.0467250  26.1770150   5.7723360  41.6247850
  25.2122570   7.2142280  44.2195360  25.8296570   7.8893360  43.9379810
  24.3515690   7.6230260  44.1282860  20.5054910   6.4042140  33.1002210
  20.1282890   6.8929240  32.3687110  20.7627980   7.0767420  33.7308740
  36.1300160   8.6781690  42.1350000  35.4463680   9.3480800  42.1266670
  36.6694450   8.8762340  41.3694860  33.6658900  10.5225820  40.8495180
  33.6786060  10.1188110  39.9817440  33.1134120  11.2973110  40.7456610
  34.9604320   7.2442040  35.9385350  34.8500650   6.3016370  36.0634770
  34.9572570   7.6057680  36.8248110  33.0644340   5.4255660  42.1777790
  33.4813130   5.2115770  41.3431250  33.7884160   5.6828450  42.7486410
  30.5024600   2.8707360  35.2947840  29.5753880   2.8044740  35.5236310
  30.6549420   3.8087490  35.1803080  37.0106440   3.8242880  42.2694030
  36.1825070   3.8935970  41.7944160  37.6056920   4.4097190  41.8009860
  34.5321890   4.4327660  35.7983090  33.9134310   4.0947210  35.1509390
  34.5146340   3.7887420  36.5062280  26.1081240   3.3972100  38.0767570
  25.7038240   2.6849350  37.5813470  26.1944360   3.0525340  38.9655610
  26.5762940   7.0839660  40.2406780  26.2791230   6.4785130  39.5614560
  27.5262760   7.1216970  40.1296140  34.6648550  10.6571530  43.9029880
  34.1879110  11.4643720  43.7102490  33.9810340  10.0049860  44.0556090
  25.6681370   6.8221350  46.8914580  24.7709900   7.0461320  47.1387980
  25.6934240   6.9456290  45.9425980  32.7086590   3.6714470  32.8055840
  33.1479870   2.8336900  32.6593660  33.4215010   4.3043870  32.8919980
  24.4952590   3.6934670  45.4671950  24.3560360   4.5657470  45.8359350
  23.6133950   3.3507480  45.3219890  30.8181970   8.6110540  36.7737080
  31.2577880   9.3534870  36.3592470  30.7568860   8.8537110  37.6976040
  26.2932940   9.6356370  47.6757100  26.2648370  10.0399320  46.8085530
  26.1297910   8.7066730  47.5128700  22.8085870   2.2917080  35.5774220
  22.6883470   3.0179170  34.9655490  22.4986760   1.5219990  35.1002130
  38.2447760  10.4183470  48.9721270  38.7207480  10.8966360  49.6510350
  38.8654920  10.3500960  48.2466770  20.4471240   5.4632220  41.3842860
  20.5251660   5.5980990  40.4398580  21.0612920   4.7548110  41.5770980
  21.6918870   7.1632410  37.7949040  21.2846950   7.3047000  36.9402640
  22.5831880   6.8792570  37.5920250  37.6481010   7.6096320  46.1321280
  37.7744070   7.3708200  45.2138460  37.6902390   6.7780860  46.6043360
  31.5097750  11.3124320  44.7016090  32.0242420  11.2232330  45.5038520
  30.6666830  11.6584020  44.9944000  33.4852150  11.5979660  34.1300090
  33.3253290  11.3082600  35.0281920  33.3198860  10.8219790  33.5945320
  25.9640530  11.3778190  35.9071710  25.7883010  10.4613730  35.6939510
  25.1096270  11.7365480  36.1469510  33.1878280   9.1067220  32.6898090
  32.4943440   9.1044510  32.0300370  33.9301140   8.6826540  32.2592260
  32.7528210  10.7329930  36.7646580  33.2085160   9.9519310  37.0785200
  33.0920730  11.4436750  37.3087760  20.5030760   6.5046390  43.9237320
  20.6661800   6.0351750  43.1056690  20.9683210   5.9969950  44.5886160
  27.0000560   1.9785800  32.2066400  26.4317460   1.5304050  31.5802310
  27.7089560   2.3378580  31.6731550  22.0769740   5.8797820  46.0833130
  21.6924530   5.2391490  46.6816090  22.3881930   6.5833940  46.6527860
  28.2266880   2.7274360  41.5641750  28.5937010   2.2532930  42.3103090
  28.0371940   3.6015930  41.9050090  26.0166250   1.7683000  43.8825960
  25.7123320   2.6474980  44.1076320  26.9712710   1.8282790  43.9183400
  24.5448040   5.9743990  34.4792810  23.7710300   5.4341610  34.3191530
  25.2742670   5.4550600  34.1410570  35.3036020   4.9709350  40.2719200
  36.0235140   5.4664640  39.8815310  35.1017840   4.2927240  39.6273070
  30.6854820   5.0418410  46.1588200  30.6192130   4.1214080  45.9045790
  30.0559960   5.1393850  46.8732840  24.5885440   5.6424370  38.1171620
  25.1064110   4.8392630  38.0628510  24.1369460   5.5803510  38.9588450
  29.4754940   6.9090650  33.3898920  29.8170640   7.6532880  32.8942240
  28.6467650   7.2221770  33.7523750  22.0729980   2.6085740  45.0297320
  21.7144920   3.2739590  45.6170660  21.7784540   1.7769290  45.4009940
  25.2743100   3.0669980  47.9136870  24.9743240   3.2127160  47.0164690
  26.0454340   2.5075270  47.8210260  30.6171550   7.8638980  45.9092000
  30.6316090   6.9319940  45.6910910  29.9096650   7.9498740  46.5481770
  35.7508620   2.0478800  32.1790610  35.6672340   2.4793020  31.3287050
  36.4702810   2.5077150  32.6117430  36.8282760   4.5046320  45.2560580
  36.1030950   5.0975100  45.0589970  37.3558220   4.4969860  44.4573950
  36.7795870   8.9021060  34.9072740  36.1372030   8.2476680  35.1816460
  36.3926530   9.3076150  34.1313410  32.3582350   6.2306490  38.7544430
  32.7106170   5.6334620  38.0945800  31.4744680   5.9050720  38.9252680
  28.4445630   6.9904180  36.1614840  29.1316760   7.5373390  36.5422430
  27.6578050   7.5344910  36.1964450  20.5838030   2.6077000  31.6531920
  21.4532880   2.8901800  31.9367840  20.0928350   3.4212870  31.5380730
  27.7472840   3.9950210  35.7740200  28.2035620   4.8055460  36.0000390
  27.3961050   3.6773350  36.6058690  30.0505450   9.5056550  43.0032500
  30.6947670   9.7115930  43.6805920  30.4134890   8.7444950  42.5503350
  31.3237530   7.5088900  41.7209950  31.9659760   6.8082060  41.8342120
  31.8486880   8.2887340  41.5406840  35.1693250   7.7937520  31.4449090
  34.9430830   7.0767960  32.0373730  34.7789450   7.5449960  30.6070840
  33.0975150   8.3083800  44.9246010  33.4331390   8.8950490  45.6023930
  32.1775490   8.1776510  45.1543800  20.9509280  11.8204380  32.2193550
  21.3106920  12.4193720  31.5650820  20.8101620  12.3664270  32.9928580
  34.7509500   5.7109460  33.1063250  34.4631200   6.1722150  33.8941130
  35.5461670   5.2507230  33.3747470  20.9351140  10.0859240  46.6935950
  21.0442260   9.1453980  46.5531340  20.2831700  10.3513990  46.0449680
  28.9263730   8.3575130  48.0934070  28.6060600   7.6384370  48.6379760
  28.2522090   9.0330200  48.1670130  26.9677900   9.2035580  33.0367220
  26.9588000   9.9365270  32.4211730  26.0476260   8.9567160  33.1294180
  22.5684540   4.4250470  33.7813980  21.9612490   5.1649370  33.7909280
  23.0433890   4.5149830  32.9552180  29.9537500   9.2663820  31.6992410
  30.0549480   9.0627810  30.7694390  29.0539240   9.0122100  31.9040190
  28.5955610  11.7850140  36.3940080  28.8497110  11.7471530  35.4719450
  27.6468090  11.6583470  36.3868330  34.6008190   2.7042020  37.9698590
  33.6598330   2.7192250  38.1446280  34.9152260   1.9177980  38.4158890
  24.5789830   4.3861620  31.5302550  25.3453100   4.2742980  32.0927980
  24.6564520   3.6899590  30.8779320  36.6033770   9.8750870  39.6452850
  36.7281190  10.6982040  40.1176660  37.4699330   9.6641600  39.2977000
  24.0751300  11.9682080  39.3169980  24.8113780  11.4197540  39.5878550
  24.4592220  12.8338090  39.1775970  20.9596780   8.0355650  35.1911490
  20.0336560   8.2776790  35.1816900  21.4253210   8.8629910  35.0696240
  23.0809580  11.1528150  48.5055560  23.8822310  11.4740200  48.9190960
  22.5661400  10.7923730  49.2275470  27.1853610  11.1412390  31.1395550
  27.9782220  11.4301220  30.6877340  26.6657960  10.7104560  30.4608030
  31.9174210   7.2608020  48.4530970  31.3112370   7.2839620  47.7126720
  31.6128320   6.5291060  48.9898220  33.3474580  10.9888310  47.0640380
  34.2996330  10.9046330  47.0140620  33.2002800  11.6530020  47.7374170
  36.2383780  10.3682520  32.5632290  35.9525290   9.9547660  31.7486470
  36.0403330  11.2970230  32.4432810  20.8007390   3.6401610  47.4491610
  21.3046410   3.0608890  48.0207840  20.0614810   3.9241840  47.9867980
  27.7031010   6.3615800  31.0037900  27.5981650   5.7468150  31.7299280
  27.5355230   5.8381690  30.2200910  27.8545330   5.0472600  46.9827130
  27.0891000   5.6157600  46.8981800  28.0361290   4.7548810  46.0895360
  30.9433740   5.4235830  31.6079890  30.3943840   5.8705130  32.2522630
  31.5653000   4.9185080  32.1317560  34.9968680   6.7777930  47.5402150
  35.7378150   7.1153690  47.0369610  34.2341360   6.9469990  46.9871920
  22.8330470   1.7831200  48.3441680  22.8735810   1.4845070  49.2526910
  23.6875970   2.1838810  48.1849200  26.6108860   4.3826750  33.5045190
  27.0325280   4.2166620  34.3476580  26.7359700   3.5726980  33.0100330
  29.1236500   3.4064360  30.7522290  29.6442160   2.6913380  30.3863440
  29.7704900   4.0450230  31.0522800  33.6714340   4.8292760  46.0757360
  34.0855360   4.9837840  46.9247780  32.7365340   4.9547980  46.2383140
  34.1436510   2.1688920  48.0796510  34.7257280   1.4141240  47.9916990
  34.3198280   2.6996360  47.3027990  28.4329570   4.7813240  44.0453290
  28.8517680   5.6245970  43.8729530  27.5138200   4.9185280  43.8160070
  30.7693470   2.5129420  45.4291130  30.8889680   1.9170560  46.1685970
  31.6287470   2.5499110  45.0092430  33.1081370   3.0666610  44.0053640
  32.5816590   3.5909230  43.4018780  33.4512710   3.6994000  44.6363370
  26.2836990  11.0866250  45.1611020  25.7458080  11.8112310  44.8419720
  26.5370950  10.6096590  44.3708360  29.1399200  12.3217460  45.4197670
  29.0657900  13.2252600  45.7270040  28.2378040  12.0029360  45.3919740
  29.6884530  11.4875970  33.0424030  30.5835320  11.8260940  33.0642790
  29.7202160  10.7655380  32.4148310  23.3280690   6.8603020  31.2711030
  23.7655560   7.4032690  31.9268610  23.8128420   6.0349970  31.2807370
  20.5426490   9.6492050  38.7231290  20.8729500   8.7813110  38.4909930
  20.9717490   9.8550570  39.5536250  25.1388410   7.9801060  36.3833260
  24.8383950   7.8566030  37.2837170  25.0325900   7.1209650  35.9748990
  21.0316700  10.5162640  41.4612920  20.5947690  10.6963440  42.2937070
  21.5994380  11.2737260  41.3194640  36.6678880  10.0179640  45.7490230
  36.0680870  10.0772200  45.0054150  36.7972780   9.0784620  45.8787080
  37.9080330   7.7597460  31.0859940  37.0773290   7.8274110  31.5567170
  38.0852160   8.6501580  30.7826800  37.3636790   4.5044940  33.5894140
  38.1255700   5.0741590  33.6953830  37.3791160   3.9372140  34.3602450
  20.8641130   3.0282870  37.8201800  20.2089970   2.7594510  37.1761500
  21.7019080   2.9187350  37.3703780  38.3696760   5.3595040  38.4336070
  38.7405590   4.5762360  38.0272040  39.0098690   6.0484140  38.2553370
  35.3530520   6.7431620  43.8466390  34.5390360   7.1728780  44.1092180
  35.7604720   7.3550030  43.2335440  37.4155960   4.7979310  30.7466660
  37.6904800   5.7058190  30.6185880  37.2266700   4.7341840  31.6828650
  37.3121300   2.7348300  35.7396090  36.9364900   1.9676230  35.3077380
  36.5824420   3.1171000  36.2271020  21.9017060   3.4135440  42.3605140
  22.2690100   3.3262840  43.2401160  21.3327880   2.6501990  42.2612000
  36.7020920   1.8819820  45.3735610  36.4707010   1.6532570  44.4733560
  36.9625470   2.8019370  45.3280500  35.4106570  11.4950220  37.3734660
  36.0065640  11.1734790  36.6969080  35.6684720  11.0222040  38.1647930
  23.3169140   7.9268130  47.5225290  23.2738770   7.5561040  48.4039750
  23.4480150   8.8645700  47.6627110  27.0175170   9.4827720  43.1235010
  26.7766530   9.7502280  42.2365530  27.9577810   9.6533450  43.1785870
  38.2779330  11.5022100  43.9245650  37.7837610  11.8990970  43.2072780
  37.6692620  10.8771310  44.3182930  23.1557170  10.8730380  44.6423070
  22.5617490  10.7415080  45.3813110  23.1481010  10.0368520  44.1765170
  35.9618780  12.1445520  41.2032390  35.5021750  12.8961330  40.8290410
  35.3331240  11.4251990  41.1447190  22.7869400   8.2388760  43.5931110
  22.0603460   7.6194050  43.5257060  22.8478550   8.6329370  42.7229190
  26.3914500  10.4533760  40.3780520  26.9079520   9.8421120  39.8528780
  27.0411880  10.9562540  40.8691530  29.1310000  11.3442250  41.2049500
  29.4187810  11.0896550  40.3282510  29.6433220  10.7919610  41.7955070
  21.0699400  11.5563150  36.8027870  20.9021440  10.9233830  37.5009760
  20.2033910  11.7622550  36.4522060  22.6762100  10.2496380  34.2478010
  22.1509720  10.6304410  33.5439970  22.6006680  10.8747150  34.9687720
  29.1982360  12.2658350  48.5717700  30.1249670  12.0302620  48.6153660
  29.1832790  13.0930350  48.0903730  37.4327420  11.8083920  35.5691950
  37.6079610  11.1221660  34.9252870  36.7348990  12.3330970  35.1768620
  25.2755070  12.1978760  33.1227260  26.0073890  11.9138040  32.5751150
  25.5348740  11.9592040  34.0126640  24.4369860   8.3143490  33.1273590
  23.8078740   8.7828590  33.6759420  24.5517690   7.4692710  33.5619780
  35.7659920  11.4928210  48.3958740  36.5585240  10.9977440  48.1884700
  36.0593070  12.1718350  49.0034350  31.8919580   2.3649150  19.2774790
  31.8113630   1.4503760  19.0066500  31.4784000   2.8616220  18.5714500
  30.0237620   4.1428170  21.1584060  29.2479720   3.6628610  21.4482630
  30.6750550   3.4633820  20.9840220  24.0403450   4.4547980  22.0359820
  23.2088330   4.1996690  22.4356330  24.6484430   4.5258750  22.7717740
  34.0445050   8.5488360  19.9383190  33.5826580   7.7775600  20.2670360
  34.8570600   8.5754430  20.4435640  24.0204710   8.4888070  22.2317840
  24.3232750   7.5985810  22.0528060  24.7648300   9.0458290  22.0040090
  30.2708360  10.8346370  19.5587180  29.6519800  11.2903870  18.9881620
  31.1260140  10.9897830  19.1576880  29.4646610   6.8185360  21.1654220
  29.3954890   5.8775300  21.0043350  30.2266470   6.9086770  21.7376790
  31.1371710   5.7185610  16.9519090  30.5188980   6.1835060  16.3881810
  31.6494960   6.4113090  17.3688600  26.0003470   5.2461480  23.6302690
  25.6672850   5.8730400  24.2723760  26.1770150   5.7723360  22.8504360
  25.2122570   7.2142280  25.4451870  25.8296570   7.8893360  25.1636320
  24.3515690   7.6230260  25.3539370  20.5054910   6.4042140  14.3258720
  20.1282890   6.8929240  13.5943620  20.7627980   7.0767420  14.9565250
  36.1300160   8.6781690  23.3606510  35.4463680   9.3480800  23.3523180
  36.6694450   8.8762340  22.5951370  33.6658900  10.5225820  22.0751690
  33.6786060  10.1188110  21.2073950  33.1134120  11.2973110  21.9713120
  34.9604320   7.2442040  17.1641860  34.8500650   6.3016370  17.2891280
  34.9572570   7.6057680  18.0504620  33.0644340   5.4255660  23.4034300
  33.4813130   5.2115770  22.5687760  33.7884160   5.6828450  23.9742920
  30.5024600   2.8707360  16.5204350  29.5753880   2.8044740  16.7492820
  30.6549420   3.8087490  16.4059590  37.0106440   3.8242880  23.4950540
  36.1825070   3.8935970  23.0200670  37.6056920   4.4097190  23.0266370
  34.5321890   4.4327660  17.0239600  33.9134310   4.0947210  16.3765900
  34.5146340   3.7887420  17.7318790  26.1081240   3.3972100  19.3024080
  25.7038240   2.6849350  18.8069980  26.1944360   3.0525340  20.1912120
  26.5762940   7.0839660  21.4663290  26.2791230   6.4785130  20.7871070
  27.5262760   7.1216970  21.3552650  34.6648550  10.6571530  25.1286390
  34.1879110  11.4643720  24.9359000  33.9810340  10.0049860  25.2812600
  25.6681370   6.8221350  28.1171090  24.7709900   7.0461320  28.3644490
  25.6934240   6.9456290  27.1682490  32.7086590   3.6714470  14.0312350
  33.1479870   2.8336900  13.8850170  33.4215010   4.3043870  14.1176490
  24.4952590   3.6934670  26.6928460  24.3560360   4.5657470  27.0615860
  23.6133950   3.3507480  26.5476400  30.8181970   8.6110540  17.9993590
  31.2577880   9.3534870  17.5848980  30.7568860   8.8537110  18.9232550
  26.2932940   9.6356370  28.9013610  26.2648370  10.0399320  28.0342040
  26.1297910   8.7066730  28.7385210  22.8085870   2.2917080  16.8030730
  22.6883470   3.0179170  16.1912000  22.4986760   1.5219990  16.3258640
  38.2447760  10.4183470  30.1977780  38.7207480  10.8966360  30.8766860
  38.8654920  10.3500960  29.4723280  20.4471240   5.4632220  22.6099370
  20.5251660   5.5980990  21.6655090  21.0612920   4.7548110  22.8027490
  21.6918870   7.1632410  19.0205550  21.2846950   7.3047000  18.1659150
  22.5831880   6.8792570  18.8176760  37.6481010   7.6096320  27.3577790
  37.7744070   7.3708200  26.4394970  37.6902390   6.7780860  27.8299870
  31.5097750  11.3124320  25.9272600  32.0242420  11.2232330  26.7295030
  30.6666830  11.6584020  26.2200510  33.4852150  11.5979660  15.3556600
  33.3253290  11.3082600  16.2538430  33.3198860  10.8219790  14.8201830
  25.9640530  11.3778190  17.1328220  25.7883010  10.4613730  16.9196020
  25.1096270  11.7365480  17.3726020  33.1878280   9.1067220  13.9154600
  32.4943440   9.1044510  13.2556880  33.9301140   8.6826540  13.4848770
  32.7528210  10.7329930  17.9903090  33.2085160   9.9519310  18.3041710
  33.0920730  11.4436750  18.5344270  20.5030760   6.5046390  25.1493830
  20.6661800   6.0351750  24.3313200  20.9683210   5.9969950  25.8142670
  27.0000560   1.9785800  13.4322910  26.4317460   1.5304050  12.8058820
  27.7089560   2.3378580  12.8988060  22.0769740   5.8797820  27.3089640
  21.6924530   5.2391490  27.9072600  22.3881930   6.5833940  27.8784370
  28.2266880   2.7274360  22.7898260  28.5937010   2.2532930  23.5359600
  28.0371940   3.6015930  23.1306600  26.0166250   1.7683000  25.1082470
  25.7123320   2.6474980  25.3332830  26.9712710   1.8282790  25.1439910
  24.5448040   5.9743990  15.7049320  23.7710300   5.4341610  15.5448040
  25.2742670   5.4550600  15.3667080  35.3036020   4.9709350  21.4975710
  36.0235140   5.4664640  21.1071820  35.1017840   4.2927240  20.8529580
  30.6854820   5.0418410  27.3844710  30.6192130   4.1214080  27.1302300
  30.0559960   5.1393850  28.0989350  24.5885440   5.6424370  19.3428130
  25.1064110   4.8392630  19.2885020  24.1369460   5.5803510  20.1844960
  29.4754940   6.9090650  14.6155430  29.8170640   7.6532880  14.1198750
  28.6467650   7.2221770  14.9780260  22.0729980   2.6085740  26.2553830
  21.7144920   3.2739590  26.8427170  21.7784540   1.7769290  26.6266450
  25.2743100   3.0669980  29.1393380  24.9743240   3.2127160  28.2421200
  26.0454340   2.5075270  29.0466770  30.6171550   7.8638980  27.1348510
  30.6316090   6.9319940  26.9167420  29.9096650   7.9498740  27.7738280
  35.7508620   2.0478800  13.4047120  35.6672340   2.4793020  12.5543560
  36.4702810   2.5077150  13.8373940  36.8282760   4.5046320  26.4817090
  36.1030950   5.0975100  26.2846480  37.3558220   4.4969860  25.6830460
  36.7795870   8.9021060  16.1329250  36.1372030   8.2476680  16.4072970
  36.3926530   9.3076150  15.3569920  32.3582350   6.2306490  19.9800940
  32.7106170   5.6334620  19.3202310  31.4744680   5.9050720  20.1509190
  28.4445630   6.9904180  17.3871350  29.1316760   7.5373390  17.7678940
  27.6578050   7.5344910  17.4220960  20.5838030   2.6077000  12.8788430
  21.4532880   2.8901800  13.1624350  20.0928350   3.4212870  12.7637240
  27.7472840   3.9950210  16.9996710  28.2035620   4.8055460  17.2256900
  27.3961050   3.6773350  17.8315200  30.0505450   9.5056550  24.2289010
  30.6947670   9.7115930  24.9062430  30.4134890   8.7444950  23.7759860
  31.3237530   7.5088900  22.9466460  31.9659760   6.8082060  23.0598630
  31.8486880   8.2887340  22.7663350  35.1693250   7.7937520  12.6705600
  34.9430830   7.0767960  13.2630240  34.7789450   7.5449960  11.8327350
  33.0975150   8.3083800  26.1502520  33.4331390   8.8950490  26.8280440
  32.1775490   8.1776510  26.3800310  20.9509280  11.8204380  13.4450060
  21.3106920  12.4193720  12.7907330  20.8101620  12.3664270  14.2185090
  34.7509500   5.7109460  14.3319760  34.4631200   6.1722150  15.1197640
  35.5461670   5.2507230  14.6003980  20.9351140  10.0859240  27.9192460
  21.0442260   9.1453980  27.7787850  20.2831700  10.3513990  27.2706190
  28.9263730   8.3575130  29.3190580  28.6060600   7.6384370  29.8636270
  28.2522090   9.0330200  29.3926640  26.9677900   9.2035580  14.2623730
  26.9588000   9.9365270  13.6468240  26.0476260   8.9567160  14.3550690
  22.5684540   4.4250470  15.0070490  21.9612490   5.1649370  15.0165790
  23.0433890   4.5149830  14.1808690  29.9537500   9.2663820  12.9248920
  30.0549480   9.0627810  11.9950900  29.0539240   9.0122100  13.1296700
  28.5955610  11.7850140  17.6196590  28.8497110  11.7471530  16.6975960
  27.6468090  11.6583470  17.6124840  34.6008190   2.7042020  19.1955100
  33.6598330   2.7192250  19.3702790  34.9152260   1.9177980  19.6415400
  24.5789830   4.3861620  12.7559060  25.3453100   4.2742980  13.3184490
  24.6564520   3.6899590  12.1035830  36.6033770   9.8750870  20.8709360
  36.7281190  10.6982040  21.3433170  37.4699330   9.6641600  20.5233510
  24.0751300  11.9682080  20.5426490  24.8113780  11.4197540  20.8135060
  24.4592220  12.8338090  20.4032480  20.9596780   8.0355650  16.4168000
  20.0336560   8.2776790  16.4073410  21.4253210   8.8629910  16.2952750
  23.0809580  11.1528150  29.7312070  23.8822310  11.4740200  30.1447470
  22.5661400  10.7923730  30.4531980  27.1853610  11.1412390  12.3652060
  27.9782220  11.4301220  11.9133850  26.6657960  10.7104560  11.6864540
  31.9174210   7.2608020  29.6787480  31.3112370   7.2839620  28.9383230
  31.6128320   6.5291060  30.2154730  33.3474580  10.9888310  28.2896890
  34.2996330  10.9046330  28.2397130  33.2002800  11.6530020  28.9630680
  36.2383780  10.3682520  13.7888800  35.9525290   9.9547660  12.9742980
  36.0403330  11.2970230  13.6689320  20.8007390   3.6401610  28.6748120
  21.3046410   3.0608890  29.2464350  20.0614810   3.9241840  29.2124490
  27.7031010   6.3615800  12.2294410  27.5981650   5.7468150  12.9555790
  27.5355230   5.8381690  11.4457420  27.8545330   5.0472600  28.2083640
  27.0891000   5.6157600  28.1238310  28.0361290   4.7548810  27.3151870
  30.9433740   5.4235830  12.8336400  30.3943840   5.8705130  13.4779140
  31.5653000   4.9185080  13.3574070  34.9968680   6.7777930  28.7658660
  35.7378150   7.1153690  28.2626120  34.2341360   6.9469990  28.2128430
  22.8330470   1.7831200  29.5698190  22.8735810   1.4845070  30.4783420
  23.6875970   2.1838810  29.4105710  26.6108860   4.3826750  14.7301700
  27.0325280   4.2166620  15.5733090  26.7359700   3.5726980  14.2356840
  29.1236500   3.4064360  11.9778800  29.6442160   2.6913380  11.6119950
  29.7704900   4.0450230  12.2779310  33.6714340   4.8292760  27.3013870
  34.0855360   4.9837840  28.1504290  32.7365340   4.9547980  27.4639650
  34.1436510   2.1688920  29.3053020  34.7257280   1.4141240  29.2173500
  34.3198280   2.6996360  28.5284500  28.4329570   4.7813240  25.2709800
  28.8517680   5.6245970  25.0986040  27.5138200   4.9185280  25.0416580
  30.7693470   2.5129420  26.6547640  30.8889680   1.9170560  27.3942480
  31.6287470   2.5499110  26.2348940  33.1081370   3.0666610  25.2310150
  32.5816590   3.5909230  24.6275290  33.4512710   3.6994000  25.8619880
  26.2836990  11.0866250  26.3867530  25.7458080  11.8112310  26.0676230
  26.5370950  10.6096590  25.5964870  29.1399200  12.3217460  26.6454180
  29.0657900  13.2252600  26.9526550  28.2378040  12.0029360  26.6176250
  29.6884530  11.4875970  14.2680540  30.5835320  11.8260940  14.2899300
  29.7202160  10.7655380  13.6404820  23.3280690   6.8603020  12.4967540
  23.7655560   7.4032690  13.1525120  23.8128420   6.0349970  12.5063880
  20.5426490   9.6492050  19.9487800  20.8729500   8.7813110  19.7166440
  20.9717490   9.8550570  20.7792760  25.1388410   7.9801060  17.6089770
  24.8383950   7.8566030  18.5093680  25.0325900   7.1209650  17.2005500
  21.0316700  10.5162640  22.6869430  20.5947690  10.6963440  23.5193580
  21.5994380  11.2737260  22.5451150  36.6678880  10.0179640  26.9746740
  36.0680870  10.0772200  26.2310660  36.7972780   9.0784620  27.1043590
  37.9080330   7.7597460  12.3116450  37.0773290   7.8274110  12.7823680
  38.0852160   8.6501580  12.0083310  37.3636790   4.5044940  14.8150650
  38.1255700   5.0741590  14.9210340  37.3791160   3.9372140  15.5858960
  20.8641130   3.0282870  19.0458310  20.2089970   2.7594510  18.4018010
  21.7019080   2.9187350  18.5960290  38.3696760   5.3595040  19.6592580
  38.7405590   4.5762360  19.2528550  39.0098690   6.0484140  19.4809880
  35.3530520   6.7431620  25.0722900  34.5390360   7.1728780  25.3348690
  35.7604720   7.3550030  24.4591950  37.4155960   4.7979310  11.9723170
  37.6904800   5.7058190  11.8442390  37.2266700   4.7341840  12.9085160
  37.3121300   2.7348300  16.9652600  36.9364900   1.9676230  16.5333890
  36.5824420   3.1171000  17.4527530  21.9017060   3.4135440  23.5861650
  22.2690100   3.3262840  24.4657670  21.3327880   2.6501990  23.4868510
  36.7020920   1.8819820  26.5992120  36.4707010   1.6532570  25.6990070
  36.9625470   2.8019370  26.5537010  35.4106570  11.4950220  18.5991170
  36.0065640  11.1734790  17.9225590  35.6684720  11.0222040  19.3904440
  23.3169140   7.9268130  28.7481800  23.2738770   7.5561040  29.6296260
  23.4480150   8.8645700  28.8883620  27.0175170   9.4827720  24.3491520
  26.7766530   9.7502280  23.4622040  27.9577810   9.6533450  24.4042380
  38.2779330  11.5022100  25.1502160  37.7837610  11.8990970  24.4329290
  37.6692620  10.8771310  25.5439440  23.1557170  10.8730380  25.8679580
  22.5617490  10.7415080  26.6069620  23.1481010  10.0368520  25.4021680
  35.9618780  12.1445520  22.4288900  35.5021750  12.8961330  22.0546920
  35.3331240  11.4251990  22.3703700  22.7869400   8.2388760  24.8187620
  22.0603460   7.6194050  24.7513570  22.8478550   8.6329370  23.9485700
  26.3914500  10.4533760  21.6037030  26.9079520   9.8421120  21.0785290
  27.0411880  10.9562540  22.0948040  29.1310000  11.3442250  22.4306010
  29.4187810  11.0896550  21.5539020  29.6433220  10.7919610  23.0211580
  21.0699400  11.5563150  18.0284380  20.9021440  10.9233830  18.7266270
  20.2033910  11.7622550  17.6778570  22.6762100  10.2496380  15.4734520
  22.1509720  10.6304410  14.7696480  22.6006680  10.8747150  16.1944230
  29.1982360  12.2658350  29.7974210  30.1249670  12.0302620  29.8410170
  29.1832790  13.0930350  29.3160240  37.4327420  11.8083920  16.7948460
  37.6079610  11.1221660  16.1509380  36.7348990  12.3330970  16.4025130
  25.2755070  12.1978760  14.3483770  26.0073890  11.9138040  13.8007660
  25.5348740  11.9592040  15.2383150  24.4369860   8.3143490  14.3530100
  23.8078740   8.7828590  14.9015930  24.5517690   7.4692710  14.7876290
  35.7659920  11.4928210  29.6215250  36.5585240  10.9977440  29.4141210
  36.0593070  12.1718350  30.2290860  30.0237620   4.1428170   2.3840570
  29.2479720   3.6628610   2.6739140  30.6750550   3.4633820   2.2096730
  24.0403450   4.4547980   3.2616330  23.2088330   4.1996690   3.6612840
  24.6484430   4.5258750   3.9974250  24.0204710   8.4888070   3.4574350
  24.3232750   7.5985810   3.2784570  24.7648300   9.0458290   3.2296600
  29.4646610   6.8185360   2.3910730  29.3954890   5.8775300   2.2299860
  30.2266470   6.9086770   2.9633300  26.0003470   5.2461480   4.8559200
  25.6672850   5.8730400   5.4980270  26.1770150   5.7723360   4.0760870
  25.2122570   7.2142280   6.6708380  25.8296570   7.8893360   6.3892830
  24.3515690   7.6230260   6.5795880  36.1300160   8.6781690   4.5863020
  35.4463680   9.3480800   4.5779690  36.6694450   8.8762340   3.8207880
  33.6658900  10.5225820   3.3008200  33.6786060  10.1188110   2.4330460
  33.1134120  11.2973110   3.1969630  33.0644340   5.4255660   4.6290810
  33.4813130   5.2115770   3.7944270  33.7884160   5.6828450   5.1999430
  37.0106440   3.8242880   4.7207050  36.1825070   3.8935970   4.2457180
  37.6056920   4.4097190   4.2522880  26.5762940   7.0839660   2.6919800
  26.2791230   6.4785130   2.0127580  27.5262760   7.1216970   2.5809160
  34.6648550  10.6571530   6.3542900  34.1879110  11.4643720   6.1615510
  33.9810340  10.0049860   6.5069110  25.6681370   6.8221350   9.3427600
  24.7709900   7.0461320   9.5901000  25.6934240   6.9456290   8.3939000
  24.4952590   3.6934670   7.9184970  24.3560360   4.5657470   8.2872370
  23.6133950   3.3507480   7.7732910  26.2932940   9.6356370  10.1270120
  26.2648370  10.0399320   9.2598550  26.1297910   8.7066730   9.9641720
  38.2447760  10.4183470  11.4234290  38.7207480  10.8966360  12.1023370
  38.8654920  10.3500960  10.6979790  20.4471240   5.4632220   3.8355880
  20.5251660   5.5980990   2.8911600  21.0612920   4.7548110   4.0284000
  37.6481010   7.6096320   8.5834300  37.7744070   7.3708200   7.6651480
  37.6902390   6.7780860   9.0556380  31.5097750  11.3124320   7.1529110
  32.0242420  11.2232330   7.9551540  30.6666830  11.6584020   7.4457020
  20.5030760   6.5046390   6.3750340  20.6661800   6.0351750   5.5569710
  20.9683210   5.9969950   7.0399180  22.0769740   5.8797820   8.5346150
  21.6924530   5.2391490   9.1329110  22.3881930   6.5833940   9.1040880
  28.2266880   2.7274360   4.0154770  28.5937010   2.2532930   4.7616110
  28.0371940   3.6015930   4.3563110  26.0166250   1.7683000   6.3338980
  25.7123320   2.6474980   6.5589340  26.9712710   1.8282790   6.3696420
  35.3036020   4.9709350   2.7232220  36.0235140   5.4664640   2.3328330
  35.1017840   4.2927240   2.0786090  30.6854820   5.0418410   8.6101220
  30.6192130   4.1214080   8.3558810  30.0559960   5.1393850   9.3245860
  22.0729980   2.6085740   7.4810340  21.7144920   3.2739590   8.0683680
  21.7784540   1.7769290   7.8522960  25.2743100   3.0669980  10.3649890
  24.9743240   3.2127160   9.4677710  26.0454340   2.5075270  10.2723280
  30.6171550   7.8638980   8.3605020  30.6316090   6.9319940   8.1423930
  29.9096650   7.9498740   8.9994790  36.8282760   4.5046320   7.7073600
  36.1030950   5.0975100   7.5102990  37.3558220   4.4969860   6.9086970
  30.0505450   9.5056550   5.4545520  30.6947670   9.7115930   6.1318940
  30.4134890   8.7444950   5.0016370  31.3237530   7.5088900   4.1722970
  31.9659760   6.8082060   4.2855140  31.8486880   8.2887340   3.9919860
  33.0975150   8.3083800   7.3759030  33.4331390   8.8950490   8.0536950
  32.1775490   8.1776510   7.6056820  20.9351140  10.0859240   9.1448970
  21.0442260   9.1453980   9.0044360  20.2831700  10.3513990   8.4962700
  28.9263730   8.3575130  10.5447090  28.6060600   7.6384370  11.0892780
  28.2522090   9.0330200  10.6183150  36.6033770   9.8750870   2.0965870
  36.7281190  10.6982040   2.5689680  37.4699330   9.6641600   1.7490020
  24.0751300  11.9682080   1.7683000  24.8113780  11.4197540   2.0391570
  24.4592220  12.8338090   1.6288990  23.0809580  11.1528150  10.9568580
  23.8822310  11.4740200  11.3703980  22.5661400  10.7923730  11.6788490
  31.9174210   7.2608020  10.9043990  31.3112370   7.2839620  10.1639740
  31.6128320   6.5291060  11.4411240  33.3474580  10.9888310   9.5153400
  34.2996330  10.9046330   9.4653640  33.2002800  11.6530020  10.1887190
  20.8007390   3.6401610   9.9004630  21.3046410   3.0608890  10.4720860
  20.0614810   3.9241840  10.4381000  27.8545330   5.0472600   9.4340150
  27.0891000   5.6157600   9.3494820  28.0361290   4.7548810   8.5408380
  34.9968680   6.7777930   9.9915170  35.7378150   7.1153690   9.4882630
  34.2341360   6.9469990   9.4384940  22.8330470   1.7831200  10.7954700
  22.8735810   1.4845070  11.7039930  23.6875970   2.1838810  10.6362220
  33.6714340   4.8292760   8.5270380  34.0855360   4.9837840   9.3760800
  32.7365340   4.9547980   8.6896160  34.1436510   2.1688920  10.5309530
  34.7257280   1.4141240  10.4430010  34.3198280   2.6996360   9.7541010
  28.4329570   4.7813240   6.4966310  28.8517680   5.6245970   6.3242550
  27.5138200   4.9185280   6.2673090  30.7693470   2.5129420   7.8804150
  30.8889680   1.9170560   8.6198990  31.6287470   2.5499110   7.4605450
  33.1081370   3.0666610   6.4566660  32.5816590   3.5909230   5.8531800
  33.4512710   3.6994000   7.0876390  26.2836990  11.0866250   7.6124040
  25.7458080  11.8112310   7.2932740  26.5370950  10.6096590   6.8221380
  29.1399200  12.3217460   7.8710690  29.0657900  13.2252600   8.1783060
  28.2378040  12.0029360   7.8432760  21.0316700  10.5162640   3.9125940
  20.5947690  10.6963440   4.7450090  21.5994380  11.2737260   3.7707660
  36.6678880  10.0179640   8.2003250  36.0680870  10.0772200   7.4567170
  36.7972780   9.0784620   8.3300100  35.3530520   6.7431620   6.2979410
  34.5390360   7.1728780   6.5605200  35.7604720   7.3550030   5.6848460
  21.9017060   3.4135440   4.8118160  22.2690100   3.3262840   5.6914180
  21.3327880   2.6501990   4.7125020  36.7020920   1.8819820   7.8248630
  36.4707010   1.6532570   6.9246580  36.9625470   2.8019370   7.7793520
  23.3169140   7.9268130   9.9738310  23.2738770   7.5561040  10.8552770
  23.4480150   8.8645700  10.1140130  27.0175170   9.4827720   5.5748030
  26.7766530   9.7502280   4.6878550  27.9577810   9.6533450   5.6298890
  38.2779330  11.5022100   6.3758670  37.7837610  11.8990970   5.6585800
  37.6692620  10.8771310   6.7695950  23.1557170  10.8730380   7.0936090
  22.5617490  10.7415080   7.8326130  23.1481010  10.0368520   6.6278190
  35.9618780  12.1445520   3.6545410  35.5021750  12.8961330   3.2803430
  35.3331240  11.4251990   3.5960210  22.7869400   8.2388760   6.0444130
  22.0603460   7.6194050   5.9770080  22.8478550   8.6329370   5.1742210
  26.3914500  10.4533760   2.8293540  26.9079520   9.8421120   2.3041800
  27.0411880  10.9562540   3.3204550  29.1310000  11.3442250   3.6562520
  29.4187810  11.0896550   2.7795530  29.6433220  10.7919610   4.2468090
  29.1982360  12.2658350  11.0230720  30.1249670  12.0302620  11.0666680
  29.1832790  13.0930350  10.5416750  35.7659920  11.4928210  10.8471760
  36.5585240  10.9977440  10.6397720  36.0593070  12.1718350  11.4547370
  13.1176090 152.5597070 150.6979220  13.0370140 151.6451680 150.4270930
  12.7040510 153.0564140 149.9918930  11.2494130 154.3376090 152.5788490
  10.4736230 153.8576530 152.8687060  11.9007060 153.6581740 152.4044650
   3.6751910 149.6097790 147.2406640   2.7868610 149.9513760 147.1386520
   3.9593100 149.4098110 146.3487470  11.7208290 149.8203660 152.8127580
  12.0973110 148.9475540 152.7001250  11.6227800 150.1562360 151.9218020
   5.8513300 148.1929290 148.2745020   5.9580050 149.0933020 148.5813780
   4.9405660 148.1447260 147.9839670  15.5032410 147.3154100 149.7455920
  16.3242030 146.8250670 149.7881400  15.5366490 147.9051760 150.4987760
  15.7393890 149.2554480 152.5183460  15.0349460 149.5439370 153.0986570
  16.1006050 150.0654590 152.1583020   9.3400350 145.0006450 151.2048660
   9.6475330 144.4453340 150.4884160   8.4101050 145.1350910 151.0221650
  11.7281110 153.0655280 147.9408780  10.8010390 152.9992660 148.1697250
  11.8805930 154.0035410 147.8264020  11.7150190 149.3372280 144.9375940
  10.7753860 149.4986240 145.0228400  12.0333450 150.0557960 144.3911930
  15.7578400 154.6275580 148.4444030  15.1390820 154.2895130 147.7970330
  15.7402850 153.9835340 149.1523220   7.3337750 153.5920020 150.7228510
   6.9294750 152.8797270 150.2274410   7.4200870 153.2473260 151.6116550
  13.9343100 153.8662390 145.4516780  14.3736380 153.0284820 145.3054600
  14.6471520 154.4991790 145.5380920  17.5160240 145.1205200 143.7657820
  17.2032900 145.2132030 144.6656890  18.2772710 145.6986230 143.7155250
   4.0342380 152.4865000 148.2235160   3.9139980 153.2127090 147.6116430
   3.7243270 151.7167910 147.7463070   6.5006040 145.8300070 151.6058830
   6.0574190 146.6109610 151.2743350   7.0591030 146.1529960 152.3129770
   9.6164860 145.4510770 146.4864660   8.9919040 145.4470640 147.2117970
   9.5294980 144.5841730 146.0900630   6.2920260 150.9533640 149.3340080
   6.0661180 150.7370810 150.2386700   5.5112790 151.3862100 148.9886050
  13.5218020 150.9597010 147.9330730  12.9226910 151.6832810 147.7494350
  14.0697630 150.8973790 147.1507180  12.1282890 149.5960550 149.9634010
  12.5212460 149.9132750 149.1502700  12.4899740 148.7172430 150.0778530
   9.1515420 148.8620500 152.4637280   9.1551480 148.4210450 151.6141820
  10.0466540 149.1837830 152.5709100   5.0017800 148.7446990 151.4231490
   4.6617850 149.2222220 152.1798540   4.2395120 148.2912110 151.0632590
   9.2135570 149.8632580 145.4544040   9.3348390 149.8219060 146.4029860
   8.8284080 150.7256730 145.2990770   8.2257070 152.1733720 144.8527340
   7.6573970 151.7251970 144.2263250   8.9346070 152.5326500 144.3192490
   2.3163880 147.6665970 150.3396160   2.0310800 147.3021640 151.1774780
   2.2542740 146.9346430 149.7259300  11.9902470 146.5595230 147.0609530
  11.1767080 146.0608400 146.9854840  11.7964420 147.3993480 146.6445880
  14.7050860 150.9314880 145.3571690  15.5930480 151.2432110 145.1823030
  14.6755950 150.0587130 144.9652270  16.9765130 152.2426720 144.8251550
  16.8928850 152.6740940 143.9747990  17.6959320 152.7025070 145.2578370
   8.9729350 154.1898130 148.4201140   9.4292130 155.0003380 148.6461330
   8.6217560 153.8721270 149.2519630   4.8741130 144.5335780 148.8923660
   4.7455760 144.5253680 149.8408580   4.0503150 144.8718870 148.5414670
  16.7335870 147.7406150 146.9119370  16.1049030 147.8451820 146.1977600
  16.2387790 147.9602930 147.7013250   8.7019900 150.0192100 148.3277250
   7.9936050 150.4878440 148.7690860   8.9864380 149.3614110 148.9622440
  12.7335330 146.7442760 149.7673040  12.6103110 146.7628890 148.8182550
  13.6819890 146.7921700 149.8871440   6.9054920 148.3277180 145.7027960
   7.7545450 148.7647330 145.6368150   6.5386190 148.6397440 146.5300020
  15.8264700 152.8989940 150.6159530  14.8854840 152.9140170 150.7907220
  16.1408770 152.1125900 151.0619830   5.8046340 154.5809540 144.1763490
   6.5709610 154.4690900 144.7388920   5.8821030 153.8847510 143.5240260
   4.4993100 152.0134610 144.8596380   4.5796690 151.0662120 144.9713780
   5.3912850 152.3441490 144.9657040   7.8365370 154.5774670 146.1506130
   8.2581790 154.4114540 146.9937520   7.9616210 153.7674900 145.6561270
  10.3493010 153.6012280 143.3983230  10.8698670 152.8861300 143.0324380
  10.9961410 154.2398150 143.6983740   6.7324270 150.6507900 143.0964290
   6.5313330 149.7875260 143.4577630   6.5616320 150.5641260 142.1585890
  14.2112580 145.4616130 145.6251170  14.4914870 144.6184030 145.9810590
  13.4378310 145.6939240 146.1389920   5.5307070 147.7508520 143.0842170
   5.8332970 147.7575950 142.1761320   6.2701660 147.4006380 143.5809830
   8.7492000 146.6943140 144.0698370   8.4014000 146.0167130 143.4900820
   8.9504770 146.2332650 144.8841760  15.0388080 148.0172080 144.6881230
  15.4572960 147.8303060 143.8477890  14.7324140 147.1651130 144.9984160
  18.5377810 152.9296220 148.3857030  18.1621410 152.1624150 147.9538320
  17.8080930 153.3118920 148.8731960  17.8128770 151.1553710 151.6864270
  18.3366250 150.6616360 151.0554440  18.3988190 151.2904070 152.4311840
   3.8462930 149.4895260 144.3182450   4.5554630 149.0678480 143.8329730
   3.1302870 149.5570490 143.6865800   3.4937090 145.5434590 143.3585100
   4.2165220 146.0843530 143.6766320   3.7661610 145.2698010 142.4826640
  17.3028740 150.4127060 147.6256680  17.7987860 150.1797930 148.4105560
  17.1044810 149.5738900 147.2094320  18.7315900 149.0488010 150.1594360
  18.6215180 148.8944050 151.0976630  19.4923490 148.5208950 149.9169770
  19.6206170 146.8795930 143.4000500  20.5455480 146.7477110 143.1918790
  19.5981960 146.9588750 144.3536950  19.6944660 147.6506590 146.0257210
  18.8996160 147.5851710 146.5550120  19.8987940 148.5857230 146.0142560
  16.1264590 145.9803470 152.4756040  16.5672680 145.9248570 151.6277640
  15.8572180 146.8961480 152.5466220  17.9903160 145.6118710 150.4864860
  17.9291560 144.6679930 150.3395880  18.7695190 145.7198800 151.0318320
   2.9183930 145.5827850 146.9520670   3.6763290 145.6956730 146.3784700
   2.4561100 146.4197050 146.9064100   9.4597740 147.6967120 149.9422980
   8.6472250 147.3224010 149.6018860   9.9639380 146.9412200 150.2444170
  13.9622720 144.3609570 151.1806050  14.5652090 144.9329780 151.6554570
  13.2215710 144.9249010 150.9579950  17.1057320 144.7631130 146.4546330
  17.3007950 145.6614580 146.7213760  16.3187190 144.5318210 146.9479280
   5.2909080 146.1091900 145.4922640   5.8201840 145.3221700 145.3630590
   5.9237400 146.7883090 145.7258170   7.4846920 145.8467040 148.5468030
   6.8549660 145.1454350 148.7138160   6.9452060 146.6071170 148.3301190
  13.1176090 152.5597070 131.9235730  13.0370140 151.6451680 131.6527440
  12.7040510 153.0564140 131.2175440  11.2494130 154.3376090 133.8045000
  10.4736230 153.8576530 134.0943570  11.9007060 153.6581740 133.6301160
   5.2659960 154.6495900 134.6820760   4.4344840 154.3944610 135.0817270
   5.8740940 154.7206670 135.4178680   3.6751910 149.6097790 128.4663150
   2.7868610 149.9513760 128.3643030   3.9593100 149.4098110 127.5743980
   2.8809790 147.6187800 136.1371780   2.7012630 146.7213550 136.4174540
   2.4789870 148.1659670 136.8118730  11.7208290 149.8203660 134.0384090
  12.0973110 148.9475540 133.9257760  11.6227800 150.1562360 133.1474530
   5.8513300 148.1929290 129.5001530   5.9580050 149.0933020 129.8070290
   4.9405660 148.1447260 129.2096180  15.5032410 147.3154100 130.9712430
  16.3242030 146.8250670 131.0137910  15.5366490 147.9051760 131.7244270
   3.4996460 150.1148300 134.7454120   4.1806570 150.3786670 135.3641520
   3.1844510 149.2749170 135.0792130   7.6921030 151.1615660 133.8326710
   8.1999250 151.6596630 134.4731730   8.2234270 150.3850860 133.6566070
  19.7931960 149.3320850 137.5356060  19.0884130 149.7202560 137.0171170
  20.0589880 150.0271140 138.1376990   5.9757130 145.8014220 138.0990130
   5.9775570 146.3186610 137.2936030   5.1461440 145.3244400 138.0760060
  15.7393890 149.2554480 133.7439970  15.0349460 149.5439370 134.3243080
  16.1006050 150.0654590 133.3839530   5.6572460 147.5124180 136.1060580
   5.9989270 148.3566230 135.8114450   4.7188270 147.6607920 136.2225920
  18.8080810 148.7009270 134.1349180  17.8605720 148.7348250 134.2664610
  19.1330800 149.5148220 134.5198540   9.3400350 145.0006450 132.4305170
   9.6475330 144.4453340 131.7140670   8.4101050 145.1350910 132.2478160
  11.7281110 153.0655280 129.1665290  10.8010390 152.9992660 129.3953760
  11.8805930 154.0035410 129.0520530  11.7150190 149.3372280 126.1632450
  10.7753860 149.4986240 126.2484910  12.0333450 150.0557960 125.6168440
  18.2362950 154.0190800 136.1411480  17.4081580 154.0883890 135.6661610
  18.8313430 154.6045110 135.6727310  15.7578400 154.6275580 129.6700540
  15.1390820 154.2895130 129.0226840  15.7402850 153.9835340 130.3779730
  15.2004960 150.8060120 137.0866350  14.7876140 151.6313830 137.3406340
  14.4680910 150.2205160 136.8942710   7.3337750 153.5920020 131.9485020
   6.9294750 152.8797270 131.4530920   7.4200870 153.2473260 132.8373060
   6.0466370 150.3663230 135.7284060   6.5980960 150.4758570 134.9537310
   6.5609880 150.7400830 136.4439290  13.9343100 153.8662390 126.6773290
  14.3736380 153.0284820 126.5311110  14.6471520 154.4991790 126.7637430
   5.7209100 153.8882590 139.3389400   5.5816870 154.7605390 139.7076800
   4.8390460 153.5455400 139.1937340  17.5160240 145.1205200 124.9914330
  17.2032900 145.2132030 125.8913400  18.2772710 145.6986230 124.9411760
   4.0342380 152.4865000 129.4491670   3.9139980 153.2127090 128.8372940
   3.7243270 151.7167910 128.9719580  18.7261530 149.8576700 140.9688470
  18.1105800 150.3656370 140.4403930  18.4057950 148.9575030 140.9114410
   6.5006040 145.8300070 132.8315340   6.0574190 146.6109610 132.4999860
   7.0591030 146.1529960 133.5386280  10.7875850 148.6968590 138.4350660
  10.3255220 148.9051610 139.2470600  10.3853960 147.8827940 138.1321330
  15.7880360 149.9177540 139.5647320  14.9373950 149.6183290 139.8856390
  15.6282150 150.1619550 138.6531140  12.8830070 151.4179290 141.6646110
  13.2083480 150.5843040 141.3248340  13.6710400 151.9407810 141.8124440
   9.6164860 145.4510770 127.7121170   8.9919040 145.4470640 128.4374480
   9.5294980 144.5841730 127.3157140   8.5381940 146.3747400 134.6904940
   8.8354270 147.2810230 134.6096960   9.0867500 145.8866180 134.0764510
   6.2920260 150.9533640 130.5596590   6.0661180 150.7370810 131.4643210
   5.5112790 151.3862100 130.2142560  13.5218020 150.9597010 129.1587240
  12.9226910 151.6832810 128.9750860  14.0697630 150.8973790 128.3763690
   8.7319470 151.8519220 141.2256860   8.6363070 150.9113950 141.0757260
   9.5751450 152.0734290 140.8304930  12.1282890 149.5960550 131.1890520
  12.5212460 149.9132750 130.3759210  12.4899740 148.7172430 131.3035040
   3.8630010 148.2632890 139.3790640   3.4693400 149.1108100 139.5863420
   3.1748410 147.6259260 139.5699280  10.4375060 148.3467860 142.4487380
   9.7473380 148.1540060 143.0833470  11.1807360 148.6302500 142.9811680
  12.7138030 152.1866300 135.2841300  11.9819150 152.6953110 135.6331400
  12.3162370 151.3696280 134.9830080   9.1515420 148.8620500 133.6893790
   9.1551480 148.4210450 132.8398330  10.0466540 149.1837830 133.7965610
   5.0017800 148.7446990 132.6488000   4.6617850 149.2222220 133.4055050
   4.2395120 148.2912110 132.2889100   9.2135570 149.8632580 126.6800550
   9.3348390 149.8219060 127.6286370   8.8284080 150.7256730 126.5247280
  13.1763940 147.6399980 134.6964240  13.1936680 148.0908630 135.5406090
  12.9279520 146.7405620 134.9097680   8.2257070 152.1733720 126.0783850
   7.6573970 151.7251970 125.4519760   8.9346070 152.5326500 125.5449000
  16.6034690 145.0532160 140.5350620  16.9280460 144.3221820 141.0608600
  16.6391200 144.7345800 139.6331610   9.4523390 152.9222280 135.4359200
   9.8193520 152.4480850 136.1820540   9.2628450 153.7963850 135.7767540
   2.3163880 147.6665970 131.5652670   2.0310800 147.3021640 132.4031290
   2.2542740 146.9346430 130.9515810   7.2422760 151.9630920 137.7543410
   6.9379830 152.8422900 137.9793770   8.1969220 152.0230710 137.7900850
  11.9902470 146.5595230 128.2866040  11.1767080 146.0608400 128.2111350
  11.7964420 147.3993480 127.8702390  14.7050860 150.9314880 126.5828200
  15.5930480 151.2432110 126.4079540  14.6755950 150.0587130 126.1908780
   3.2986490 152.8033660 138.9014770   2.9401430 153.4687510 139.4888110
   3.0041050 151.9717210 139.2727390   6.4999610 153.2617900 141.7854320
   6.1999750 153.4075080 140.8882140   7.2710850 152.7023190 141.6927710
  16.9765130 152.2426720 126.0508060  16.8928850 152.6740940 125.2004500
  17.6959320 152.7025070 126.4834880   8.9729350 154.1898130 129.6457650
   9.4292130 155.0003380 129.8717840   8.6217560 153.8721270 130.4776140
   4.8741130 144.5335780 130.1180170   4.7455760 144.5253680 131.0665090
   4.0503150 144.8718870 129.7671180  13.3673840 148.7849210 137.3288320
  13.7354660 147.9644420 137.6567890  12.5072040 148.8451100 137.7443970
  16.7335870 147.7406150 128.1375880  16.1049030 147.8451820 127.4234110
  16.2387790 147.9602930 128.9269760   8.7019900 150.0192100 129.5533760
   7.9936050 150.4878440 129.9947370   8.9864380 149.3614110 130.1878950
  10.3275830 151.4388800 137.5526290  10.8261080 151.9134620 138.2178140
  10.4698780 150.5152320 137.7596320  12.7335330 146.7442760 130.9929550
  12.6103110 146.7628890 130.0439060  13.6819890 146.7921700 131.1127950
   6.9054920 148.3277180 126.9284470   7.7545450 148.7647330 126.8624660
   6.5386190 148.6397440 127.7556530  17.5342690 147.6556760 138.3954680
  17.0316290 148.3962160 138.7348490  18.3499350 148.0440760 138.0791470
  15.8264700 152.8989940 131.8416040  14.8854840 152.9140170 132.0163730
  16.1408770 152.1125900 132.2876340   5.8046340 154.5809540 125.4020000
   6.5709610 154.4690900 125.9645430   5.8821030 153.8847510 124.7496770
   4.4993100 152.0134610 126.0852890   4.5796690 151.0662120 126.1970290
   5.3912850 152.3441490 126.1913550   4.0586980 151.9779120 142.2159130
   4.0992320 151.6792990 143.1244360   4.9132480 152.3786730 142.0566650
   7.8365370 154.5774670 127.3762640   8.2581790 154.4114540 128.2194030
   7.9616210 153.7674900 126.8817780   5.9992790 150.5571220 140.1833620
   5.4689250 150.0662170 139.5556960   6.6680860 150.9855420 139.6491550
  10.3493010 153.6012280 124.6239740  10.8698670 152.8861300 124.2580890
  10.9961410 154.2398150 124.9240250  15.3693020 152.3636840 141.9513960
  15.9513790 151.6089160 141.8634440  15.5454790 152.8944280 141.1745440
   6.4865090 147.5233590 140.2630910   6.3921960 146.9054340 139.5381780
   5.9062480 148.2499880 140.0360820   9.2526530 146.0806830 137.2958300
   8.8043830 146.1031090 136.4503850   8.6191730 145.6825850 137.8928600
  11.9949980 152.7077340 139.3008580  12.1146190 152.1118480 140.0403420
  12.8543980 152.7447030 138.8809880  14.3337880 153.2614530 137.8771090
  13.8073100 153.7857150 137.2736230  14.6769220 153.8941920 138.5080820
   6.7324270 150.6507900 124.3220800   6.5313330 149.7875260 124.6834140
   6.5616320 150.5641260 123.3842400   8.7618750 149.2498690 140.5584400
   9.3518440 148.9414540 141.2462220   7.9438990 148.7778440 140.7144300
  13.5812180 148.8664500 140.7917420  12.8927700 148.2046040 140.7267410
  14.3018200 148.4202770 141.2365880  14.2112580 145.4616130 126.8507680
  14.4914870 144.6184030 127.2067100  13.4378310 145.6939240 127.3646430
   5.5307070 147.7508520 124.3098680   5.8332970 147.7575950 123.4017830
   6.2701660 147.4006380 124.8066340   8.7492000 146.6943140 125.2954880
   8.4014000 146.0167130 124.7157330   8.9504770 146.2332650 126.1098270
  15.0388080 148.0172080 125.9137740  15.4572960 147.8303060 125.0734400
  14.7324140 147.1651130 126.2240670  18.5377810 152.9296220 129.6113540
  18.1621410 152.1624150 129.1794830  17.8080930 153.3118920 130.0988470
   3.1273570 153.6083360 136.2322590   3.4946610 153.5210760 137.1118610
   2.5584390 152.8449910 136.1329450  17.9277430 152.0767740 139.2453060
  17.6963520 151.8480490 138.3451010  18.1881980 152.9967290 139.1997950
   2.6789570 150.5192450 140.1381010   1.7845620 150.4859210 140.4774720
   3.2187120 150.7179240 140.9032260  16.3665500 147.3024170 142.0232760
  17.2435680 147.3107570 142.4066760  16.3786340 146.5655010 141.4125110
  17.8128770 151.1553710 132.9120780  18.3366250 150.6616360 132.2810950
  18.3988190 151.2904070 133.6568350  17.9918490 151.2393580 136.4340330
  17.0421200 151.2057120 136.5485320  18.1731500 152.1493690 136.1990100
   3.8462930 149.4895260 125.5438960   4.5554630 149.0678480 125.0586240
   3.1302870 149.5570490 124.9122310   3.4937090 145.5434590 124.5841610
   4.2165220 146.0843530 124.9022830   3.7661610 145.2698010 123.7083150
  17.3028740 150.4127060 128.8513190  17.7987860 150.1797930 129.6362070
  17.1044810 149.5738900 128.4350830   3.1829280 144.7940780 134.4864230
   3.8305470 144.2438160 134.0459390   3.6031120 145.0483930 135.3080040
  18.7315900 149.0488010 131.3850870  18.6215180 148.8944050 132.3233140
  19.4923490 148.5208950 131.1426280  17.0781620 144.9882140 137.8433870
  17.7153840 145.6016280 138.2093060  17.2256510 145.0242800 136.8983100
  19.6206170 146.8795930 124.6257010  20.5455480 146.7477110 124.4175300
  19.5981960 146.9588750 125.5793460  19.6944660 147.6506590 127.2513720
  18.8996160 147.5851710 127.7806630  19.8987940 148.5857230 127.2399070
   2.9361280 144.9496450 137.2289550   2.5876100 145.4060270 137.9947730
   2.6048980 144.0553580 137.3111980  10.4486100 146.1408330 140.7508970
  10.3874990 146.7330160 141.5004380  11.3886480 146.0334290 140.6059230
  13.0860660 145.7978390 140.3901260  13.7001070 146.1157680 139.7282340
  13.6310220 145.3126980 141.0097120   3.6081920 144.4772650 140.5040320
   4.1564910 144.2960700 139.7406430   3.6737230 143.6866760 141.0396630
  13.8268700 144.3610530 136.7170550  12.9528540 144.6945640 136.5143480
  13.7179450 143.8883710 137.5422420  14.7340680 146.5681400 138.1012270
  14.4054040 145.7533160 137.7214000  15.6822980 146.5251210 137.9777960
  11.5743520 145.2780370 135.6563460  10.7915310 145.7525870 135.9360220
  11.2806450 144.3735200 135.5476640  16.1264590 145.9803470 133.7012550
  16.5672680 145.9248570 132.8534150  15.8572180 146.8961480 133.7722730
  17.9903160 145.6118710 131.7121370  17.9291560 144.6679930 131.5652390
  18.7695190 145.7198800 132.2574830   2.9183930 145.5827850 128.1777180
   3.6763290 145.6956730 127.6041210   2.4561100 146.4197050 128.1320610
   9.4597740 147.6967120 131.1679490   8.6472250 147.3224010 130.8275370
   9.9639380 146.9412200 131.4700680  13.9622720 144.3609570 132.4062560
  14.5652090 144.9329780 132.8811080  13.2215710 144.9249010 132.1836460
  17.1057320 144.7631130 127.6802840  17.3007950 145.6614580 127.9470270
  16.3187190 144.5318210 128.1735790   5.2909080 146.1091900 126.7179150
   5.8201840 145.3221700 126.5887100   5.9237400 146.7883090 126.9514680
   7.4846920 145.8467040 129.7724540   6.8549660 145.1454350 129.9394670
   6.9452060 146.6071170 129.5557700   7.6102480 145.1251020 142.2077030
   7.3286750 145.6284620 141.4437850   7.9922180 144.3272770 141.8419160
  14.2117940 144.5404600 142.7857500  14.0983390 144.8599210 143.6809020
  15.0287680 144.9417110 142.4894780  13.1176090 152.5597070 113.1492240
  13.0370140 151.6451680 112.8783950  12.7040510 153.0564140 112.4431950
  11.2494130 154.3376090 115.0301510  10.4736230 153.8576530 115.3200080
  11.9007060 153.6581740 114.8557670   5.2659960 154.6495900 115.9077270
   4.4344840 154.3944610 116.3073780   5.8740940 154.7206670 116.6435190
   3.6751910 149.6097790 109.6919660   2.7868610 149.9513760 109.5899540
   3.9593100 149.4098110 108.8000490   2.8809790 147.6187800 117.3628290
   2.7012630 146.7213550 117.6431050   2.4789870 148.1659670 118.0375240
  11.7208290 149.8203660 115.2640600  12.0973110 148.9475540 115.1514270
  11.6227800 150.1562360 114.3731040   5.8513300 148.1929290 110.7258040
   5.9580050 149.0933020 111.0326800   4.9405660 148.1447260 110.4352690
  15.5032410 147.3154100 112.1968940  16.3242030 146.8250670 112.2394420
  15.5366490 147.9051760 112.9500780   3.4996460 150.1148300 115.9710630
   4.1806570 150.3786670 116.5898030   3.1844510 149.2749170 116.3048640
   7.6921030 151.1615660 115.0583220   8.1999250 151.6596630 115.6988240
   8.2234270 150.3850860 114.8822580  19.7931960 149.3320850 118.7612570
  19.0884130 149.7202560 118.2427680  20.0589880 150.0271140 119.3633500
   5.9757130 145.8014220 119.3246640   5.9775570 146.3186610 118.5192540
   5.1461440 145.3244400 119.3016570  15.7393890 149.2554480 114.9696480
  15.0349460 149.5439370 115.5499590  16.1006050 150.0654590 114.6096040
   5.6572460 147.5124180 117.3317090   5.9989270 148.3566230 117.0370960
   4.7188270 147.6607920 117.4482430  18.8080810 148.7009270 115.3605690
  17.8605720 148.7348250 115.4921120  19.1330800 149.5148220 115.7455050
   9.3400350 145.0006450 113.6561680   9.6475330 144.4453340 112.9397180
   8.4101050 145.1350910 113.4734670  11.7281110 153.0655280 110.3921800
  10.8010390 152.9992660 110.6210270  11.8805930 154.0035410 110.2777040
  11.7150190 149.3372280 107.3888960  10.7753860 149.4986240 107.4741420
  12.0333450 150.0557960 106.8424950  18.2362950 154.0190800 117.3667990
  17.4081580 154.0883890 116.8918120  18.8313430 154.6045110 116.8983820
  15.7578400 154.6275580 110.8957050  15.1390820 154.2895130 110.2483350
  15.7402850 153.9835340 111.6036240  15.2004960 150.8060120 118.3122860
  14.7876140 151.6313830 118.5662850  14.4680910 150.2205160 118.1199220
   7.3337750 153.5920020 113.1741530   6.9294750 152.8797270 112.6787430
   7.4200870 153.2473260 114.0629570   6.0466370 150.3663230 116.9540570
   6.5980960 150.4758570 116.1793820   6.5609880 150.7400830 117.6695800
  13.9343100 153.8662390 107.9029800  14.3736380 153.0284820 107.7567620
  14.6471520 154.4991790 107.9893940   5.7209100 153.8882590 120.5645910
   5.5816870 154.7605390 120.9333310   4.8390460 153.5455400 120.4193850
  17.5160240 145.1205200 106.2170840  17.2032900 145.2132030 107.1169910
  18.2772710 145.6986230 106.1668270   4.0342380 152.4865000 110.6748180
   3.9139980 153.2127090 110.0629450   3.7243270 151.7167910 110.1976090
  18.7261530 149.8576700 122.1944980  18.1105800 150.3656370 121.6660440
  18.4057950 148.9575030 122.1370920   6.5006040 145.8300070 114.0571850
   6.0574190 146.6109610 113.7256370   7.0591030 146.1529960 114.7642790
  10.7875850 148.6968590 119.6607170  10.3255220 148.9051610 120.4727110
  10.3853960 147.8827940 119.3577840  15.7880360 149.9177540 120.7903830
  14.9373950 149.6183290 121.1112900  15.6282150 150.1619550 119.8787650
  12.8830070 151.4179290 122.8902620  13.2083480 150.5843040 122.5504850
  13.6710400 151.9407810 123.0380950   9.6164860 145.4510770 108.9377680
   8.9919040 145.4470640 109.6630990   9.5294980 144.5841730 108.5413650
   8.5381940 146.3747400 115.9161450   8.8354270 147.2810230 115.8353470
   9.0867500 145.8866180 115.3021020   6.2920260 150.9533640 111.7853100
   6.0661180 150.7370810 112.6899720   5.5112790 151.3862100 111.4399070
  13.5218020 150.9597010 110.3843750  12.9226910 151.6832810 110.2007370
  14.0697630 150.8973790 109.6020200   8.7319470 151.8519220 122.4513370
   8.6363070 150.9113950 122.3013770   9.5751450 152.0734290 122.0561440
  12.1282890 149.5960550 112.4147030  12.5212460 149.9132750 111.6015720
  12.4899740 148.7172430 112.5291550   3.8630010 148.2632890 120.6047150
   3.4693400 149.1108100 120.8119930   3.1748410 147.6259260 120.7955790
  10.4375060 148.3467860 123.6743890   9.7473380 148.1540060 124.3089980
  11.1807360 148.6302500 124.2068190  12.7138030 152.1866300 116.5097810
  11.9819150 152.6953110 116.8587910  12.3162370 151.3696280 116.2086590
   9.1515420 148.8620500 114.9150300   9.1551480 148.4210450 114.0654840
  10.0466540 149.1837830 115.0222120   5.0017800 148.7446990 113.8744510
   4.6617850 149.2222220 114.6311560   4.2395120 148.2912110 113.5145610
   9.2135570 149.8632580 107.9057060   9.3348390 149.8219060 108.8542880
   8.8284080 150.7256730 107.7503790  13.1763940 147.6399980 115.9220750
  13.1936680 148.0908630 116.7662600  12.9279520 146.7405620 116.1354190
   8.2257070 152.1733720 107.3040360   7.6573970 151.7251970 106.6776270
   8.9346070 152.5326500 106.7705510  16.6034690 145.0532160 121.7607130
  16.9280460 144.3221820 122.2865110  16.6391200 144.7345800 120.8588120
   9.4523390 152.9222280 116.6615710   9.8193520 152.4480850 117.4077050
   9.2628450 153.7963850 117.0024050   2.3163880 147.6665970 112.7909180
   2.0310800 147.3021640 113.6287800   2.2542740 146.9346430 112.1772320
   7.2422760 151.9630920 118.9799920   6.9379830 152.8422900 119.2050280
   8.1969220 152.0230710 119.0157360  11.9902470 146.5595230 109.5122550
  11.1767080 146.0608400 109.4367860  11.7964420 147.3993480 109.0958900
  14.7050860 150.9314880 107.8084710  15.5930480 151.2432110 107.6336050
  14.6755950 150.0587130 107.4165290   3.2986490 152.8033660 120.1271280
   2.9401430 153.4687510 120.7144620   3.0041050 151.9717210 120.4983900
   6.4999610 153.2617900 123.0110830   6.1999750 153.4075080 122.1138650
   7.2710850 152.7023190 122.9184220  16.9765130 152.2426720 107.2764570
  16.8928850 152.6740940 106.4261010  17.6959320 152.7025070 107.7091390
   8.9729350 154.1898130 110.8714160   9.4292130 155.0003380 111.0974350
   8.6217560 153.8721270 111.7032650   4.8741130 144.5335780 111.3436680
   4.7455760 144.5253680 112.2921600   4.0503150 144.8718870 110.9927690
  13.3673840 148.7849210 118.5544830  13.7354660 147.9644420 118.8824400
  12.5072040 148.8451100 118.9700480  16.7335870 147.7406150 109.3632390
  16.1049030 147.8451820 108.6490620  16.2387790 147.9602930 110.1526270
   8.7019900 150.0192100 110.7790270   7.9936050 150.4878440 111.2203880
   8.9864380 149.3614110 111.4135460  10.3275830 151.4388800 118.7782800
  10.8261080 151.9134620 119.4434650  10.4698780 150.5152320 118.9852830
  12.7335330 146.7442760 112.2186060  12.6103110 146.7628890 111.2695570
  13.6819890 146.7921700 112.3384460   6.9054920 148.3277180 108.1540980
   7.7545450 148.7647330 108.0881170   6.5386190 148.6397440 108.9813040
  17.5342690 147.6556760 119.6211190  17.0316290 148.3962160 119.9605000
  18.3499350 148.0440760 119.3047980  15.8264700 152.8989940 113.0672550
  14.8854840 152.9140170 113.2420240  16.1408770 152.1125900 113.5132850
   5.8046340 154.5809540 106.6276510   6.5709610 154.4690900 107.1901940
   5.8821030 153.8847510 105.9753280   4.4993100 152.0134610 107.3109400
   4.5796690 151.0662120 107.4226800   5.3912850 152.3441490 107.4170060
   4.0586980 151.9779120 123.4415640   4.0992320 151.6792990 124.3500870
   4.9132480 152.3786730 123.2823160   7.8365370 154.5774670 108.6019150
   8.2581790 154.4114540 109.4450540   7.9616210 153.7674900 108.1074290
   5.9992790 150.5571220 121.4090130   5.4689250 150.0662170 120.7813470
   6.6680860 150.9855420 120.8748060  10.3493010 153.6012280 105.8496250
  10.8698670 152.8861300 105.4837400  10.9961410 154.2398150 106.1496760
  15.3693020 152.3636840 123.1770470  15.9513790 151.6089160 123.0890950
  15.5454790 152.8944280 122.4001950   6.4865090 147.5233590 121.4887420
   6.3921960 146.9054340 120.7638290   5.9062480 148.2499880 121.2617330
   9.2526530 146.0806830 118.5214810   8.8043830 146.1031090 117.6760360
   8.6191730 145.6825850 119.1185110  11.9949980 152.7077340 120.5265090
  12.1146190 152.1118480 121.2659930  12.8543980 152.7447030 120.1066390
  14.3337880 153.2614530 119.1027600  13.8073100 153.7857150 118.4992740
  14.6769220 153.8941920 119.7337330   6.7324270 150.6507900 105.5477310
   6.5313330 149.7875260 105.9090650   6.5616320 150.5641260 104.6098910
   8.7618750 149.2498690 121.7840910   9.3518440 148.9414540 122.4718730
   7.9438990 148.7778440 121.9400810  13.5812180 148.8664500 122.0173930
  12.8927700 148.2046040 121.9523920  14.3018200 148.4202770 122.4622390
  14.2112580 145.4616130 108.0764190  14.4914870 144.6184030 108.4323610
  13.4378310 145.6939240 108.5902940   5.5307070 147.7508520 105.5355190
   5.8332970 147.7575950 104.6274340   6.2701660 147.4006380 106.0322850
   8.7492000 146.6943140 106.5211390   8.4014000 146.0167130 105.9413840
   8.9504770 146.2332650 107.3354780  15.0388080 148.0172080 107.1394250
  15.4572960 147.8303060 106.2990910  14.7324140 147.1651130 107.4497180
  18.5377810 152.9296220 110.8370050  18.1621410 152.1624150 110.4051340
  17.8080930 153.3118920 111.3244980   3.1273570 153.6083360 117.4579100
   3.4946610 153.5210760 118.3375120   2.5584390 152.8449910 117.3585960
  17.9277430 152.0767740 120.4709570  17.6963520 151.8480490 119.5707520
  18.1881980 152.9967290 120.4254460   2.6789570 150.5192450 121.3637520
   1.7845620 150.4859210 121.7031230   3.2187120 150.7179240 122.1288770
  16.3665500 147.3024170 123.2489270  17.2435680 147.3107570 123.6323270
  16.3786340 146.5655010 122.6381620  17.8128770 151.1553710 114.1377290
  18.3366250 150.6616360 113.5067460  18.3988190 151.2904070 114.8824860
  17.9918490 151.2393580 117.6596840  17.0421200 151.2057120 117.7741830
  18.1731500 152.1493690 117.4246610   3.8462930 149.4895260 106.7695470
   4.5554630 149.0678480 106.2842750   3.1302870 149.5570490 106.1378820
   3.4937090 145.5434590 105.8098120   4.2165220 146.0843530 106.1279340
   3.7661610 145.2698010 104.9339660  17.3028740 150.4127060 110.0769700
  17.7987860 150.1797930 110.8618580  17.1044810 149.5738900 109.6607340
   3.1829280 144.7940780 115.7120740   3.8305470 144.2438160 115.2715900
   3.6031120 145.0483930 116.5336550  18.7315900 149.0488010 112.6107380
  18.6215180 148.8944050 113.5489650  19.4923490 148.5208950 112.3682790
  17.0781620 144.9882140 119.0690380  17.7153840 145.6016280 119.4349570
  17.2256510 145.0242800 118.1239610  19.6206170 146.8795930 105.8513520
  20.5455480 146.7477110 105.6431810  19.5981960 146.9588750 106.8049970
  19.6944660 147.6506590 108.4770230  18.8996160 147.5851710 109.0063140
  19.8987940 148.5857230 108.4655580   2.9361280 144.9496450 118.4546060
   2.5876100 145.4060270 119.2204240   2.6048980 144.0553580 118.5368490
  10.4486100 146.1408330 121.9765480  10.3874990 146.7330160 122.7260890
  11.3886480 146.0334290 121.8315740  13.0860660 145.7978390 121.6157770
  13.7001070 146.1157680 120.9538850  13.6310220 145.3126980 122.2353630
   3.6081920 144.4772650 121.7296830   4.1564910 144.2960700 120.9662940
   3.6737230 143.6866760 122.2653140  13.8268700 144.3610530 117.9427060
  12.9528540 144.6945640 117.7399990  13.7179450 143.8883710 118.7678930
  14.7340680 146.5681400 119.3268780  14.4054040 145.7533160 118.9470510
  15.6822980 146.5251210 119.2034470  11.5743520 145.2780370 116.8819970
  10.7915310 145.7525870 117.1616730  11.2806450 144.3735200 116.7733150
  16.1264590 145.9803470 114.9269060  16.5672680 145.9248570 114.0790660
  15.8572180 146.8961480 114.9979240  17.9903160 145.6118710 112.9377880
  17.9291560 144.6679930 112.7908900  18.7695190 145.7198800 113.4831340
   2.9183930 145.5827850 109.4033690   3.6763290 145.6956730 108.8297720
   2.4561100 146.4197050 109.3577120   9.4597740 147.6967120 112.3936000
   8.6472250 147.3224010 112.0531880   9.9639380 146.9412200 112.6957190
  13.9622720 144.3609570 113.6319070  14.5652090 144.9329780 114.1067590
  13.2215710 144.9249010 113.4092970  17.1057320 144.7631130 108.9059350
  17.3007950 145.6614580 109.1726780  16.3187190 144.5318210 109.3992300
   5.2909080 146.1091900 107.9435660   5.8201840 145.3221700 107.8143610
   5.9237400 146.7883090 108.1771190   7.4846920 145.8467040 110.9981050
   6.8549660 145.1454350 111.1651180   6.9452060 146.6071170 110.7814210
   7.6102480 145.1251020 123.4333540   7.3286750 145.6284620 122.6694360
   7.9922180 144.3272770 123.0675670  14.2117940 144.5404600 124.0114010
  14.0983390 144.8599210 124.9065530  15.0287680 144.9417110 123.7151290
  13.1176090 152.5597070  94.3748750  13.0370140 151.6451680  94.1040460
  12.7040510 153.0564140  93.6688460  11.2494130 154.3376090  96.2558020
  10.4736230 153.8576530  96.5456590  11.9007060 153.6581740  96.0814180
   5.2659960 154.6495900  97.1333780   4.4344840 154.3944610  97.5330290
   5.8740940 154.7206670  97.8691700   3.6751910 149.6097790  90.9176170
   2.7868610 149.9513760  90.8156050   3.9593100 149.4098110  90.0257000
   2.8809790 147.6187800  98.5884800   2.7012630 146.7213550  98.8687560
   2.4789870 148.1659670  99.2631750  11.7208290 149.8203660  96.4897110
  12.0973110 148.9475540  96.3770780  11.6227800 150.1562360  95.5987550
   5.8513300 148.1929290  91.9514550   5.9580050 149.0933020  92.2583310
   4.9405660 148.1447260  91.6609200  15.5032410 147.3154100  93.4225450
  16.3242030 146.8250670  93.4650930  15.5366490 147.9051760  94.1757290
   3.4996460 150.1148300  97.1967140   4.1806570 150.3786670  97.8154540
   3.1844510 149.2749170  97.5305150   7.6921030 151.1615660  96.2839730
   8.1999250 151.6596630  96.9244750   8.2234270 150.3850860  96.1079090
  19.7931960 149.3320850  99.9869080  19.0884130 149.7202560  99.4684190
  20.0589880 150.0271140 100.5890010   5.9757130 145.8014220 100.5503150
   5.9775570 146.3186610  99.7449050   5.1461440 145.3244400 100.5273080
  15.7393890 149.2554480  96.1952990  15.0349460 149.5439370  96.7756100
  16.1006050 150.0654590  95.8352550   5.6572460 147.5124180  98.5573600
   5.9989270 148.3566230  98.2627470   4.7188270 147.6607920  98.6738940
  18.8080810 148.7009270  96.5862200  17.8605720 148.7348250  96.7177630
  19.1330800 149.5148220  96.9711560   9.3400350 145.0006450  94.8818190
   9.6475330 144.4453340  94.1653690   8.4101050 145.1350910  94.6991180
  11.7281110 153.0655280  91.6178310  10.8010390 152.9992660  91.8466780
  11.8805930 154.0035410  91.5033550  11.7150190 149.3372280  88.6145470
  10.7753860 149.4986240  88.6997930  12.0333450 150.0557960  88.0681460
  18.2362950 154.0190800  98.5924500  17.4081580 154.0883890  98.1174630
  18.8313430 154.6045110  98.1240330  15.7578400 154.6275580  92.1213560
  15.1390820 154.2895130  91.4739860  15.7402850 153.9835340  92.8292750
  15.2004960 150.8060120  99.5379370  14.7876140 151.6313830  99.7919360
  14.4680910 150.2205160  99.3455730   7.3337750 153.5920020  94.3998040
   6.9294750 152.8797270  93.9043940   7.4200870 153.2473260  95.2886080
   6.0466370 150.3663230  98.1797080   6.5980960 150.4758570  97.4050330
   6.5609880 150.7400830  98.8952310  13.9343100 153.8662390  89.1286310
  14.3736380 153.0284820  88.9824130  14.6471520 154.4991790  89.2150450
   5.7209100 153.8882590 101.7902420   5.5816870 154.7605390 102.1589820
   4.8390460 153.5455400 101.6450360  17.5160240 145.1205200  87.4427350
  17.2032900 145.2132030  88.3426420  18.2772710 145.6986230  87.3924780
   4.0342380 152.4865000  91.9004690   3.9139980 153.2127090  91.2885960
   3.7243270 151.7167910  91.4232600  18.7261530 149.8576700 103.4201490
  18.1105800 150.3656370 102.8916950  18.4057950 148.9575030 103.3627430
   6.5006040 145.8300070  95.2828360   6.0574190 146.6109610  94.9512880
   7.0591030 146.1529960  95.9899300  10.7875850 148.6968590 100.8863680
  10.3255220 148.9051610 101.6983620  10.3853960 147.8827940 100.5834350
  15.7880360 149.9177540 102.0160340  14.9373950 149.6183290 102.3369410
  15.6282150 150.1619550 101.1044160  12.8830070 151.4179290 104.1159130
  13.2083480 150.5843040 103.7761360  13.6710400 151.9407810 104.2637460
   9.6164860 145.4510770  90.1634190   8.9919040 145.4470640  90.8887500
   9.5294980 144.5841730  89.7670160   8.5381940 146.3747400  97.1417960
   8.8354270 147.2810230  97.0609980   9.0867500 145.8866180  96.5277530
   6.2920260 150.9533640  93.0109610   6.0661180 150.7370810  93.9156230
   5.5112790 151.3862100  92.6655580  13.5218020 150.9597010  91.6100260
  12.9226910 151.6832810  91.4263880  14.0697630 150.8973790  90.8276710
   8.7319470 151.8519220 103.6769880   8.6363070 150.9113950 103.5270280
   9.5751450 152.0734290 103.2817950  12.1282890 149.5960550  93.6403540
  12.5212460 149.9132750  92.8272230  12.4899740 148.7172430  93.7548060
   3.8630010 148.2632890 101.8303660   3.4693400 149.1108100 102.0376440
   3.1748410 147.6259260 102.0212300  10.4375060 148.3467860 104.9000400
   9.7473380 148.1540060 105.5346490  11.1807360 148.6302500 105.4324700
  12.7138030 152.1866300  97.7354320  11.9819150 152.6953110  98.0844420
  12.3162370 151.3696280  97.4343100   9.1515420 148.8620500  96.1406810
   9.1551480 148.4210450  95.2911350  10.0466540 149.1837830  96.2478630
   5.0017800 148.7446990  95.1001020   4.6617850 149.2222220  95.8568070
   4.2395120 148.2912110  94.7402120   9.2135570 149.8632580  89.1313570
   9.3348390 149.8219060  90.0799390   8.8284080 150.7256730  88.9760300
  13.1763940 147.6399980  97.1477260  13.1936680 148.0908630  97.9919110
  12.9279520 146.7405620  97.3610700   8.2257070 152.1733720  88.5296870
   7.6573970 151.7251970  87.9032780   8.9346070 152.5326500  87.9962020
  16.6034690 145.0532160 102.9863640  16.9280460 144.3221820 103.5121620
  16.6391200 144.7345800 102.0844630   9.4523390 152.9222280  97.8872220
   9.8193520 152.4480850  98.6333560   9.2628450 153.7963850  98.2280560
   2.3163880 147.6665970  94.0165690   2.0310800 147.3021640  94.8544310
   2.2542740 146.9346430  93.4028830   7.2422760 151.9630920 100.2056430
   6.9379830 152.8422900 100.4306790   8.1969220 152.0230710 100.2413870
  11.9902470 146.5595230  90.7379060  11.1767080 146.0608400  90.6624370
  11.7964420 147.3993480  90.3215410  14.7050860 150.9314880  89.0341220
  15.5930480 151.2432110  88.8592560  14.6755950 150.0587130  88.6421800
   3.2986490 152.8033660 101.3527790   2.9401430 153.4687510 101.9401130
   3.0041050 151.9717210 101.7240410   6.4999610 153.2617900 104.2367340
   6.1999750 153.4075080 103.3395160   7.2710850 152.7023190 104.1440730
  16.9765130 152.2426720  88.5021080  16.8928850 152.6740940  87.6517520
  17.6959320 152.7025070  88.9347900   8.9729350 154.1898130  92.0970670
   9.4292130 155.0003380  92.3230860   8.6217560 153.8721270  92.9289160
   4.8741130 144.5335780  92.5693190   4.7455760 144.5253680  93.5178110
   4.0503150 144.8718870  92.2184200  13.3673840 148.7849210  99.7801340
  13.7354660 147.9644420 100.1080910  12.5072040 148.8451100 100.1956990
  16.7335870 147.7406150  90.5888900  16.1049030 147.8451820  89.8747130
  16.2387790 147.9602930  91.3782780   8.7019900 150.0192100  92.0046780
   7.9936050 150.4878440  92.4460390   8.9864380 149.3614110  92.6391970
  10.3275830 151.4388800 100.0039310  10.8261080 151.9134620 100.6691160
  10.4698780 150.5152320 100.2109340  12.7335330 146.7442760  93.4442570
  12.6103110 146.7628890  92.4952080  13.6819890 146.7921700  93.5640970
   6.9054920 148.3277180  89.3797490   7.7545450 148.7647330  89.3137680
   6.5386190 148.6397440  90.2069550  17.5342690 147.6556760 100.8467700
  17.0316290 148.3962160 101.1861510  18.3499350 148.0440760 100.5304490
  15.8264700 152.8989940  94.2929060  14.8854840 152.9140170  94.4676750
  16.1408770 152.1125900  94.7389360   5.8046340 154.5809540  87.8533020
   6.5709610 154.4690900  88.4158450   5.8821030 153.8847510  87.2009790
   4.4993100 152.0134610  88.5365910   4.5796690 151.0662120  88.6483310
   5.3912850 152.3441490  88.6426570   4.0586980 151.9779120 104.6672150
   4.0992320 151.6792990 105.5757380   4.9132480 152.3786730 104.5079670
   7.8365370 154.5774670  89.8275660   8.2581790 154.4114540  90.6707050
   7.9616210 153.7674900  89.3330800   5.9992790 150.5571220 102.6346640
   5.4689250 150.0662170 102.0069980   6.6680860 150.9855420 102.1004570
  10.3493010 153.6012280  87.0752760  10.8698670 152.8861300  86.7093910
  10.9961410 154.2398150  87.3753270  15.3693020 152.3636840 104.4026980
  15.9513790 151.6089160 104.3147460  15.5454790 152.8944280 103.6258460
   6.4865090 147.5233590 102.7143930   6.3921960 146.9054340 101.9894800
   5.9062480 148.2499880 102.4873840   9.2526530 146.0806830  99.7471320
   8.8043830 146.1031090  98.9016870   8.6191730 145.6825850 100.3441620
  11.9949980 152.7077340 101.7521600  12.1146190 152.1118480 102.4916440
  12.8543980 152.7447030 101.3322900  14.3337880 153.2614530 100.3284110
  13.8073100 153.7857150  99.7249250  14.6769220 153.8941920 100.9593840
   6.7324270 150.6507900  86.7733820   6.5313330 149.7875260  87.1347160
   6.5616320 150.5641260  85.8355420   8.7618750 149.2498690 103.0097420
   9.3518440 148.9414540 103.6975240   7.9438990 148.7778440 103.1657320
  13.5812180 148.8664500 103.2430440  12.8927700 148.2046040 103.1780430
  14.3018200 148.4202770 103.6878900  14.2112580 145.4616130  89.3020700
  14.4914870 144.6184030  89.6580120  13.4378310 145.6939240  89.8159450
   5.5307070 147.7508520  86.7611700   5.8332970 147.7575950  85.8530850
   6.2701660 147.4006380  87.2579360   8.7492000 146.6943140  87.7467900
   8.4014000 146.0167130  87.1670350   8.9504770 146.2332650  88.5611290
  15.0388080 148.0172080  88.3650760  15.4572960 147.8303060  87.5247420
  14.7324140 147.1651130  88.6753690  18.5377810 152.9296220  92.0626560
  18.1621410 152.1624150  91.6307850  17.8080930 153.3118920  92.5501490
   3.1273570 153.6083360  98.6835610   3.4946610 153.5210760  99.5631630
   2.5584390 152.8449910  98.5842470  17.9277430 152.0767740 101.6966080
  17.6963520 151.8480490 100.7964030  18.1881980 152.9967290 101.6510970
   2.6789570 150.5192450 102.5894030   1.7845620 150.4859210 102.9287740
   3.2187120 150.7179240 103.3545280  16.3665500 147.3024170 104.4745780
  17.2435680 147.3107570 104.8579780  16.3786340 146.5655010 103.8638130
  17.8128770 151.1553710  95.3633800  18.3366250 150.6616360  94.7323970
  18.3988190 151.2904070  96.1081370  17.9918490 151.2393580  98.8853350
  17.0421200 151.2057120  98.9998340  18.1731500 152.1493690  98.6503120
   3.8462930 149.4895260  87.9951980   4.5554630 149.0678480  87.5099260
   3.1302870 149.5570490  87.3635330   3.4937090 145.5434590  87.0354630
   4.2165220 146.0843530  87.3535850   3.7661610 145.2698010  86.1596170
  17.3028740 150.4127060  91.3026210  17.7987860 150.1797930  92.0875090
  17.1044810 149.5738900  90.8863850   3.1829280 144.7940780  96.9377250
   3.8305470 144.2438160  96.4972410   3.6031120 145.0483930  97.7593060
  18.7315900 149.0488010  93.8363890  18.6215180 148.8944050  94.7746160
  19.4923490 148.5208950  93.5939300  17.0781620 144.9882140 100.2946890
  17.7153840 145.6016280 100.6606080  17.2256510 145.0242800  99.3496120
  19.6206170 146.8795930  87.0770030  20.5455480 146.7477110  86.8688320
  19.5981960 146.9588750  88.0306480  19.6944660 147.6506590  89.7026740
  18.8996160 147.5851710  90.2319650  19.8987940 148.5857230  89.6912090
   2.9361280 144.9496450  99.6802570   2.5876100 145.4060270 100.4460750
   2.6048980 144.0553580  99.7625000  10.4486100 146.1408330 103.2021990
  10.3874990 146.7330160 103.9517400  11.3886480 146.0334290 103.0572250
  13.0860660 145.7978390 102.8414280  13.7001070 146.1157680 102.1795360
  13.6310220 145.3126980 103.4610140   3.6081920 144.4772650 102.9553340
   4.1564910 144.2960700 102.1919450   3.6737230 143.6866760 103.4909650
  13.8268700 144.3610530  99.1683570  12.9528540 144.6945640  98.9656500
  13.7179450 143.8883710  99.9935440  14.7340680 146.5681400 100.5525290
  14.4054040 145.7533160 100.1727020  15.6822980 146.5251210 100.4290980
  11.5743520 145.2780370  98.1076480  10.7915310 145.7525870  98.3873240
  11.2806450 144.3735200  97.9989660  16.1264590 145.9803470  96.1525570
  16.5672680 145.9248570  95.3047170  15.8572180 146.8961480  96.2235750
  17.9903160 145.6118710  94.1634390  17.9291560 144.6679930  94.0165410
  18.7695190 145.7198800  94.7087850   2.9183930 145.5827850  90.6290200
   3.6763290 145.6956730  90.0554230   2.4561100 146.4197050  90.5833630
   9.4597740 147.6967120  93.6192510   8.6472250 147.3224010  93.2788390
   9.9639380 146.9412200  93.9213700  13.9622720 144.3609570  94.8575580
  14.5652090 144.9329780  95.3324100  13.2215710 144.9249010  94.6349480
  17.1057320 144.7631130  90.1315860  17.3007950 145.6614580  90.3983290
  16.3187190 144.5318210  90.6248810   5.2909080 146.1091900  89.1692170
   5.8201840 145.3221700  89.0400120   5.9237400 146.7883090  89.4027700
   7.4846920 145.8467040  92.2237560   6.8549660 145.1454350  92.3907690
   6.9452060 146.6071170  92.0070720   7.6102480 145.1251020 104.6590050
   7.3286750 145.6284620 103.8950870   7.9922180 144.3272770 104.2932180
  14.2117940 144.5404600 105.2370520  14.0983390 144.8599210 106.1322040
  15.0287680 144.9417110 104.9407800  13.1176090 152.5597070  75.6005260
  13.0370140 151.6451680  75.3296970  12.7040510 153.0564140  74.8944970
  11.2494130 154.3376090  77.4814530  10.4736230 153.8576530  77.7713100
  11.9007060 153.6581740  77.3070690   5.2659960 154.6495900  78.3590290
   4.4344840 154.3944610  78.7586800   5.8740940 154.7206670  79.0948210
   3.6751910 149.6097790  72.1432680   2.7868610 149.9513760  72.0412560
   3.9593100 149.4098110  71.2513510   2.8809790 147.6187800  79.8141310
   2.7012630 146.7213550  80.0944070   2.4789870 148.1659670  80.4888260
  11.7208290 149.8203660  77.7153620  12.0973110 148.9475540  77.6027290
  11.6227800 150.1562360  76.8244060   5.8513300 148.1929290  73.1771060
   5.9580050 149.0933020  73.4839820   4.9405660 148.1447260  72.8865710
  15.5032410 147.3154100  74.6481960  16.3242030 146.8250670  74.6907440
  15.5366490 147.9051760  75.4013800   3.4996460 150.1148300  78.4223650
   4.1806570 150.3786670  79.0411050   3.1844510 149.2749170  78.7561660
   7.6921030 151.1615660  77.5096240   8.1999250 151.6596630  78.1501260
   8.2234270 150.3850860  77.3335600  19.7931960 149.3320850  81.2125590
  19.0884130 149.7202560  80.6940700  20.0589880 150.0271140  81.8146520
   5.9757130 145.8014220  81.7759660   5.9775570 146.3186610  80.9705560
   5.1461440 145.3244400  81.7529590  15.7393890 149.2554480  77.4209500
  15.0349460 149.5439370  78.0012610  16.1006050 150.0654590  77.0609060
   5.6572460 147.5124180  79.7830110   5.9989270 148.3566230  79.4883980
   4.7188270 147.6607920  79.8995450  18.8080810 148.7009270  77.8118710
  17.8605720 148.7348250  77.9434140  19.1330800 149.5148220  78.1968070
   9.3400350 145.0006450  76.1074700   9.6475330 144.4453340  75.3910200
   8.4101050 145.1350910  75.9247690  11.7281110 153.0655280  72.8434820
  10.8010390 152.9992660  73.0723290  11.8805930 154.0035410  72.7290060
  11.7150190 149.3372280  69.8401980  10.7753860 149.4986240  69.9254440
  12.0333450 150.0557960  69.2937970  18.2362950 154.0190800  79.8181010
  17.4081580 154.0883890  79.3431140  18.8313430 154.6045110  79.3496840
  15.7578400 154.6275580  73.3470070  15.1390820 154.2895130  72.6996370
  15.7402850 153.9835340  74.0549260  15.2004960 150.8060120  80.7635880
  14.7876140 151.6313830  81.0175870  14.4680910 150.2205160  80.5712240
   7.3337750 153.5920020  75.6254550   6.9294750 152.8797270  75.1300450
   7.4200870 153.2473260  76.5142590   6.0466370 150.3663230  79.4053590
   6.5980960 150.4758570  78.6306840   6.5609880 150.7400830  80.1208820
  13.9343100 153.8662390  70.3542820  14.3736380 153.0284820  70.2080640
  14.6471520 154.4991790  70.4406960   5.7209100 153.8882590  83.0158930
   5.5816870 154.7605390  83.3846330   4.8390460 153.5455400  82.8706870
  17.5160240 145.1205200  68.6683860  17.2032900 145.2132030  69.5682930
  18.2772710 145.6986230  68.6181290   4.0342380 152.4865000  73.1261200
   3.9139980 153.2127090  72.5142470   3.7243270 151.7167910  72.6489110
  18.7261530 149.8576700  84.6458000  18.1105800 150.3656370  84.1173460
  18.4057950 148.9575030  84.5883940   6.5006040 145.8300070  76.5084870
   6.0574190 146.6109610  76.1769390   7.0591030 146.1529960  77.2155810
  10.7875850 148.6968590  82.1120190  10.3255220 148.9051610  82.9240130
  10.3853960 147.8827940  81.8090860  15.7880360 149.9177540  83.2416850
  14.9373950 149.6183290  83.5625920  15.6282150 150.1619550  82.3300670
  12.8830070 151.4179290  85.3415640  13.2083480 150.5843040  85.0017870
  13.6710400 151.9407810  85.4893970   9.6164860 145.4510770  71.3890700
   8.9919040 145.4470640  72.1144010   9.5294980 144.5841730  70.9926670
   8.5381940 146.3747400  78.3674470   8.8354270 147.2810230  78.2866490
   9.0867500 145.8866180  77.7534040   6.2920260 150.9533640  74.2366120
   6.0661180 150.7370810  75.1412740   5.5112790 151.3862100  73.8912090
  13.5218020 150.9597010  72.8356770  12.9226910 151.6832810  72.6520390
  14.0697630 150.8973790  72.0533220   8.7319470 151.8519220  84.9026390
   8.6363070 150.9113950  84.7526790   9.5751450 152.0734290  84.5074460
  12.1282890 149.5960550  74.8660050  12.5212460 149.9132750  74.0528740
  12.4899740 148.7172430  74.9804570   3.8630010 148.2632890  83.0560170
   3.4693400 149.1108100  83.2632950   3.1748410 147.6259260  83.2468810
  10.4375060 148.3467860  86.1256910   9.7473380 148.1540060  86.7603000
  11.1807360 148.6302500  86.6581210  12.7138030 152.1866300  78.9610830
  11.9819150 152.6953110  79.3100930  12.3162370 151.3696280  78.6599610
   9.1515420 148.8620500  77.3663320   9.1551480 148.4210450  76.5167860
  10.0466540 149.1837830  77.4735140   5.0017800 148.7446990  76.3257530
   4.6617850 149.2222220  77.0824580   4.2395120 148.2912110  75.9658630
   9.2135570 149.8632580  70.3570080   9.3348390 149.8219060  71.3055900
   8.8284080 150.7256730  70.2016810  13.1763940 147.6399980  78.3733770
  13.1936680 148.0908630  79.2175620  12.9279520 146.7405620  78.5867210
   8.2257070 152.1733720  69.7553380   7.6573970 151.7251970  69.1289290
   8.9346070 152.5326500  69.2218530  16.6034690 145.0532160  84.2120150
  16.9280460 144.3221820  84.7378130  16.6391200 144.7345800  83.3101140
   9.4523390 152.9222280  79.1128730   9.8193520 152.4480850  79.8590070
   9.2628450 153.7963850  79.4537070   2.3163880 147.6665970  75.2422200
   2.0310800 147.3021640  76.0800820   2.2542740 146.9346430  74.6285340
   7.2422760 151.9630920  81.4312940   6.9379830 152.8422900  81.6563300
   8.1969220 152.0230710  81.4670380  11.9902470 146.5595230  71.9635570
  11.1767080 146.0608400  71.8880880  11.7964420 147.3993480  71.5471920
  14.7050860 150.9314880  70.2597730  15.5930480 151.2432110  70.0849070
  14.6755950 150.0587130  69.8678310   3.2986490 152.8033660  82.5784300
   2.9401430 153.4687510  83.1657640   3.0041050 151.9717210  82.9496920
   6.4999610 153.2617900  85.4623850   6.1999750 153.4075080  84.5651670
   7.2710850 152.7023190  85.3697240  16.9765130 152.2426720  69.7277590
  16.8928850 152.6740940  68.8774030  17.6959320 152.7025070  70.1604410
   8.9729350 154.1898130  73.3227180   9.4292130 155.0003380  73.5487370
   8.6217560 153.8721270  74.1545670   4.8741130 144.5335780  73.7949700
   4.7455760 144.5253680  74.7434620   4.0503150 144.8718870  73.4440710
  13.3673840 148.7849210  81.0057850  13.7354660 147.9644420  81.3337420
  12.5072040 148.8451100  81.4213500  16.7335870 147.7406150  71.8145410
  16.1049030 147.8451820  71.1003640  16.2387790 147.9602930  72.6039290
   8.7019900 150.0192100  73.2303290   7.9936050 150.4878440  73.6716900
   8.9864380 149.3614110  73.8648480  10.3275830 151.4388800  81.2295820
  10.8261080 151.9134620  81.8947670  10.4698780 150.5152320  81.4365850
  12.7335330 146.7442760  74.6699080  12.6103110 146.7628890  73.7208590
  13.6819890 146.7921700  74.7897480   6.9054920 148.3277180  70.6054000
   7.7545450 148.7647330  70.5394190   6.5386190 148.6397440  71.4326060
  17.5342690 147.6556760  82.0724210  17.0316290 148.3962160  82.4118020
  18.3499350 148.0440760  81.7561000  15.8264700 152.8989940  75.5185570
  14.8854840 152.9140170  75.6933260  16.1408770 152.1125900  75.9645870
   5.8046340 154.5809540  69.0789530   6.5709610 154.4690900  69.6414960
   5.8821030 153.8847510  68.4266300   4.4993100 152.0134610  69.7622420
   4.5796690 151.0662120  69.8739820   5.3912850 152.3441490  69.8683080
   4.0586980 151.9779120  85.8928660   4.0992320 151.6792990  86.8013890
   4.9132480 152.3786730  85.7336180   7.8365370 154.5774670  71.0532170
   8.2581790 154.4114540  71.8963560   7.9616210 153.7674900  70.5587310
   5.9992790 150.5571220  83.8603150   5.4689250 150.0662170  83.2326490
   6.6680860 150.9855420  83.3261080  10.3493010 153.6012280  68.3009270
  10.8698670 152.8861300  67.9350420  10.9961410 154.2398150  68.6009780
  15.3693020 152.3636840  85.6283490  15.9513790 151.6089160  85.5403970
  15.5454790 152.8944280  84.8514970   6.4865090 147.5233590  83.9400440
   6.3921960 146.9054340  83.2151310   5.9062480 148.2499880  83.7130350
   9.2526530 146.0806830  80.9727830   8.8043830 146.1031090  80.1273380
   8.6191730 145.6825850  81.5698130  11.9949980 152.7077340  82.9778110
  12.1146190 152.1118480  83.7172950  12.8543980 152.7447030  82.5579410
  14.3337880 153.2614530  81.5540620  13.8073100 153.7857150  80.9505760
  14.6769220 153.8941920  82.1850350   6.7324270 150.6507900  67.9990330
   6.5313330 149.7875260  68.3603670   6.5616320 150.5641260  67.0611930
   8.7618750 149.2498690  84.2353930   9.3518440 148.9414540  84.9231750
   7.9438990 148.7778440  84.3913830  13.5812180 148.8664500  84.4686950
  12.8927700 148.2046040  84.4036940  14.3018200 148.4202770  84.9135410
  14.2112580 145.4616130  70.5277210  14.4914870 144.6184030  70.8836630
  13.4378310 145.6939240  71.0415960   5.5307070 147.7508520  67.9868210
   5.8332970 147.7575950  67.0787360   6.2701660 147.4006380  68.4835870
   8.7492000 146.6943140  68.9724410   8.4014000 146.0167130  68.3926860
   8.9504770 146.2332650  69.7867800  15.0388080 148.0172080  69.5907270
  15.4572960 147.8303060  68.7503930  14.7324140 147.1651130  69.9010200
  18.5377810 152.9296220  73.2883070  18.1621410 152.1624150  72.8564360
  17.8080930 153.3118920  73.7758000   3.1273570 153.6083360  79.9092120
   3.4946610 153.5210760  80.7888140   2.5584390 152.8449910  79.8098980
  17.9277430 152.0767740  82.9222590  17.6963520 151.8480490  82.0220540
  18.1881980 152.9967290  82.8767480   2.6789570 150.5192450  83.8150540
   1.7845620 150.4859210  84.1544250   3.2187120 150.7179240  84.5801790
  16.3665500 147.3024170  85.7002290  17.2435680 147.3107570  86.0836290
  16.3786340 146.5655010  85.0894640  17.8128770 151.1553710  76.5890310
  18.3366250 150.6616360  75.9580480  18.3988190 151.2904070  77.3337880
  17.9918490 151.2393580  80.1109860  17.0421200 151.2057120  80.2254850
  18.1731500 152.1493690  79.8759630   3.8462930 149.4895260  69.2208490
   4.5554630 149.0678480  68.7355770   3.1302870 149.5570490  68.5891840
   3.4937090 145.5434590  68.2611140   4.2165220 146.0843530  68.5792360
   3.7661610 145.2698010  67.3852680  17.3028740 150.4127060  72.5282720
  17.7987860 150.1797930  73.3131600  17.1044810 149.5738900  72.1120360
   3.1829280 144.7940780  78.1633760   3.8305470 144.2438160  77.7228920
   3.6031120 145.0483930  78.9849570  18.7315900 149.0488010  75.0620400
  18.6215180 148.8944050  76.0002670  19.4923490 148.5208950  74.8195810
  17.0781620 144.9882140  81.5203400  17.7153840 145.6016280  81.8862590
  17.2256510 145.0242800  80.5752630  19.6206170 146.8795930  68.3026540
  20.5455480 146.7477110  68.0944830  19.5981960 146.9588750  69.2562990
  19.6944660 147.6506590  70.9283250  18.8996160 147.5851710  71.4576160
  19.8987940 148.5857230  70.9168600   2.9361280 144.9496450  80.9059080
   2.5876100 145.4060270  81.6717260   2.6048980 144.0553580  80.9881510
  10.4486100 146.1408330  84.4278500  10.3874990 146.7330160  85.1773910
  11.3886480 146.0334290  84.2828760  13.0860660 145.7978390  84.0670790
  13.7001070 146.1157680  83.4051870  13.6310220 145.3126980  84.6866650
   3.6081920 144.4772650  84.1809850   4.1564910 144.2960700  83.4175960
   3.6737230 143.6866760  84.7166160  13.8268700 144.3610530  80.3940080
  12.9528540 144.6945640  80.1913010  13.7179450 143.8883710  81.2191950
  14.7340680 146.5681400  81.7781800  14.4054040 145.7533160  81.3983530
  15.6822980 146.5251210  81.6547490  11.5743520 145.2780370  79.3332990
  10.7915310 145.7525870  79.6129750  11.2806450 144.3735200  79.2246170
  16.1264590 145.9803470  77.3782080  16.5672680 145.9248570  76.5303680
  15.8572180 146.8961480  77.4492260  17.9903160 145.6118710  75.3890900
  17.9291560 144.6679930  75.2421920  18.7695190 145.7198800  75.9344360
   2.9183930 145.5827850  71.8546710   3.6763290 145.6956730  71.2810740
   2.4561100 146.4197050  71.8090140   9.4597740 147.6967120  74.8449020
   8.6472250 147.3224010  74.5044900   9.9639380 146.9412200  75.1470210
  13.9622720 144.3609570  76.0832090  14.5652090 144.9329780  76.5580610
  13.2215710 144.9249010  75.8605990  17.1057320 144.7631130  71.3572370
  17.3007950 145.6614580  71.6239800  16.3187190 144.5318210  71.8505320
   5.2909080 146.1091900  70.3948680   5.8201840 145.3221700  70.2656630
   5.9237400 146.7883090  70.6284210   7.4846920 145.8467040  73.4494070
   6.8549660 145.1454350  73.6164200   6.9452060 146.6071170  73.2327230
   7.6102480 145.1251020  85.8846560   7.3286750 145.6284620  85.1207380
   7.9922180 144.3272770  85.5188690  14.2117940 144.5404600  86.4627030
  14.0983390 144.8599210  87.3578550  15.0287680 144.9417110  86.1664310
  13.1176090 152.5597070  56.8261770  13.0370140 151.6451680  56.5553480
  12.7040510 153.0564140  56.1201480  11.2494130 154.3376090  58.7071040
  10.4736230 153.8576530  58.9969610  11.9007060 153.6581740  58.5327200
   5.2659960 154.6495900  59.5846800   4.4344840 154.3944610  59.9843310
   5.8740940 154.7206670  60.3204720   3.6751910 149.6097790  53.3689190
   2.7868610 149.9513760  53.2669070   3.9593100 149.4098110  52.4770020
   2.8809790 147.6187800  61.0397820   2.7012630 146.7213550  61.3200580
   2.4789870 148.1659670  61.7144770  11.7208290 149.8203660  58.9410130
  12.0973110 148.9475540  58.8283800  11.6227800 150.1562360  58.0500570
   5.8513300 148.1929290  54.4027570   5.9580050 149.0933020  54.7096330
   4.9405660 148.1447260  54.1122220  15.5032410 147.3154100  55.8738470
  16.3242030 146.8250670  55.9163950  15.5366490 147.9051760  56.6270310
   3.4996460 150.1148300  59.6480160   4.1806570 150.3786670  60.2667560
   3.1844510 149.2749170  59.9818170   7.6921030 151.1615660  58.7352750
   8.1999250 151.6596630  59.3757770   8.2234270 150.3850860  58.5592110
  19.7931960 149.3320850  62.4382100  19.0884130 149.7202560  61.9197210
  20.0589880 150.0271140  63.0403030   5.9757130 145.8014220  63.0016170
   5.9775570 146.3186610  62.1962070   5.1461440 145.3244400  62.9786100
  15.7393890 149.2554480  58.6466010  15.0349460 149.5439370  59.2269120
  16.1006050 150.0654590  58.2865570   5.6572460 147.5124180  61.0086620
   5.9989270 148.3566230  60.7140490   4.7188270 147.6607920  61.1251960
  18.8080810 148.7009270  59.0375220  17.8605720 148.7348250  59.1690650
  19.1330800 149.5148220  59.4224580   9.3400350 145.0006450  57.3331210
   9.6475330 144.4453340  56.6166710   8.4101050 145.1350910  57.1504200
  11.7281110 153.0655280  54.0691330  10.8010390 152.9992660  54.2979800
  11.8805930 154.0035410  53.9546570  11.7150190 149.3372280  51.0658490
  10.7753860 149.4986240  51.1510950  12.0333450 150.0557960  50.5194480
  18.2362950 154.0190800  61.0437520  17.4081580 154.0883890  60.5687650
  18.8313430 154.6045110  60.5753350  15.7578400 154.6275580  54.5726580
  15.1390820 154.2895130  53.9252880  15.7402850 153.9835340  55.2805770
  15.2004960 150.8060120  61.9892390  14.7876140 151.6313830  62.2432380
  14.4680910 150.2205160  61.7968750   7.3337750 153.5920020  56.8511060
   6.9294750 152.8797270  56.3556960   7.4200870 153.2473260  57.7399100
   6.0466370 150.3663230  60.6310100   6.5980960 150.4758570  59.8563350
   6.5609880 150.7400830  61.3465330  13.9343100 153.8662390  51.5799330
  14.3736380 153.0284820  51.4337150  14.6471520 154.4991790  51.6663470
   5.7209100 153.8882590  64.2415440   5.5816870 154.7605390  64.6102840
   4.8390460 153.5455400  64.0963380  17.5160240 145.1205200  49.8940370
  17.2032900 145.2132030  50.7939440  18.2772710 145.6986230  49.8437800
   4.0342380 152.4865000  54.3517710   3.9139980 153.2127090  53.7398980
   3.7243270 151.7167910  53.8745620  18.7261530 149.8576700  65.8714510
  18.1105800 150.3656370  65.3429970  18.4057950 148.9575030  65.8140450
   6.5006040 145.8300070  57.7341380   6.0574190 146.6109610  57.4025900
   7.0591030 146.1529960  58.4412320  10.7875850 148.6968590  63.3376700
  10.3255220 148.9051610  64.1496640  10.3853960 147.8827940  63.0347370
  15.7880360 149.9177540  64.4673360  14.9373950 149.6183290  64.7882430
  15.6282150 150.1619550  63.5557180  12.8830070 151.4179290  66.5672150
  13.2083480 150.5843040  66.2274380  13.6710400 151.9407810  66.7150480
   9.6164860 145.4510770  52.6147210   8.9919040 145.4470640  53.3400520
   9.5294980 144.5841730  52.2183180   8.5381940 146.3747400  59.5930980
   8.8354270 147.2810230  59.5123000   9.0867500 145.8866180  58.9790550
   6.2920260 150.9533640  55.4622630   6.0661180 150.7370810  56.3669250
   5.5112790 151.3862100  55.1168600  13.5218020 150.9597010  54.0613280
  12.9226910 151.6832810  53.8776900  14.0697630 150.8973790  53.2789730
   8.7319470 151.8519220  66.1282900   8.6363070 150.9113950  65.9783300
   9.5751450 152.0734290  65.7330970  12.1282890 149.5960550  56.0916560
  12.5212460 149.9132750  55.2785250  12.4899740 148.7172430  56.2061080
   3.8630010 148.2632890  64.2816680   3.4693400 149.1108100  64.4889460
   3.1748410 147.6259260  64.4725320  10.4375060 148.3467860  67.3513420
   9.7473380 148.1540060  67.9859510  11.1807360 148.6302500  67.8837720
  12.7138030 152.1866300  60.1867340  11.9819150 152.6953110  60.5357440
  12.3162370 151.3696280  59.8856120   9.1515420 148.8620500  58.5919830
   9.1551480 148.4210450  57.7424370  10.0466540 149.1837830  58.6991650
   5.0017800 148.7446990  57.5514040   4.6617850 149.2222220  58.3081090
   4.2395120 148.2912110  57.1915140   9.2135570 149.8632580  51.5826590
   9.3348390 149.8219060  52.5312410   8.8284080 150.7256730  51.4273320
  13.1763940 147.6399980  59.5990280  13.1936680 148.0908630  60.4432130
  12.9279520 146.7405620  59.8123720   8.2257070 152.1733720  50.9809890
   7.6573970 151.7251970  50.3545800   8.9346070 152.5326500  50.4475040
  16.6034690 145.0532160  65.4376660  16.9280460 144.3221820  65.9634640
  16.6391200 144.7345800  64.5357650   9.4523390 152.9222280  60.3385240
   9.8193520 152.4480850  61.0846580   9.2628450 153.7963850  60.6793580
   2.3163880 147.6665970  56.4678710   2.0310800 147.3021640  57.3057330
   2.2542740 146.9346430  55.8541850   7.2422760 151.9630920  62.6569450
   6.9379830 152.8422900  62.8819810   8.1969220 152.0230710  62.6926890
  11.9902470 146.5595230  53.1892080  11.1767080 146.0608400  53.1137390
  11.7964420 147.3993480  52.7728430  14.7050860 150.9314880  51.4854240
  15.5930480 151.2432110  51.3105580  14.6755950 150.0587130  51.0934820
   3.2986490 152.8033660  63.8040810   2.9401430 153.4687510  64.3914150
   3.0041050 151.9717210  64.1753430   6.4999610 153.2617900  66.6880360
   6.1999750 153.4075080  65.7908180   7.2710850 152.7023190  66.5953750
  16.9765130 152.2426720  50.9534100  16.8928850 152.6740940  50.1030540
  17.6959320 152.7025070  51.3860920   8.9729350 154.1898130  54.5483690
   9.4292130 155.0003380  54.7743880   8.6217560 153.8721270  55.3802180
   4.8741130 144.5335780  55.0206210   4.7455760 144.5253680  55.9691130
   4.0503150 144.8718870  54.6697220  13.3673840 148.7849210  62.2314360
  13.7354660 147.9644420  62.5593930  12.5072040 148.8451100  62.6470010
  16.7335870 147.7406150  53.0401920  16.1049030 147.8451820  52.3260150
  16.2387790 147.9602930  53.8295800   8.7019900 150.0192100  54.4559800
   7.9936050 150.4878440  54.8973410   8.9864380 149.3614110  55.0904990
  10.3275830 151.4388800  62.4552330  10.8261080 151.9134620  63.1204180
  10.4698780 150.5152320  62.6622360  12.7335330 146.7442760  55.8955590
  12.6103110 146.7628890  54.9465100  13.6819890 146.7921700  56.0153990
   6.9054920 148.3277180  51.8310510   7.7545450 148.7647330  51.7650700
   6.5386190 148.6397440  52.6582570  17.5342690 147.6556760  63.2980720
  17.0316290 148.3962160  63.6374530  18.3499350 148.0440760  62.9817510
  15.8264700 152.8989940  56.7442080  14.8854840 152.9140170  56.9189770
  16.1408770 152.1125900  57.1902380   5.8046340 154.5809540  50.3046040
   6.5709610 154.4690900  50.8671470   5.8821030 153.8847510  49.6522810
   4.4993100 152.0134610  50.9878930   4.5796690 151.0662120  51.0996330
   5.3912850 152.3441490  51.0939590   4.0586980 151.9779120  67.1185170
   4.0992320 151.6792990  68.0270400   4.9132480 152.3786730  66.9592690
   7.8365370 154.5774670  52.2788680   8.2581790 154.4114540  53.1220070
   7.9616210 153.7674900  51.7843820   5.9992790 150.5571220  65.0859660
   5.4689250 150.0662170  64.4583000   6.6680860 150.9855420  64.5517590
  10.3493010 153.6012280  49.5265780  10.8698670 152.8861300  49.1606930
  10.9961410 154.2398150  49.8266290  15.3693020 152.3636840  66.8540000
  15.9513790 151.6089160  66.7660480  15.5454790 152.8944280  66.0771480
   6.4865090 147.5233590  65.1656950   6.3921960 146.9054340  64.4407820
   5.9062480 148.2499880  64.9386860   9.2526530 146.0806830  62.1984340
   8.8043830 146.1031090  61.3529890   8.6191730 145.6825850  62.7954640
  11.9949980 152.7077340  64.2034620  12.1146190 152.1118480  64.9429460
  12.8543980 152.7447030  63.7835920  14.3337880 153.2614530  62.7797130
  13.8073100 153.7857150  62.1762270  14.6769220 153.8941920  63.4106860
   6.7324270 150.6507900  49.2246840   6.5313330 149.7875260  49.5860180
   6.5616320 150.5641260  48.2868440   8.7618750 149.2498690  65.4610440
   9.3518440 148.9414540  66.1488260   7.9438990 148.7778440  65.6170340
  13.5812180 148.8664500  65.6943460  12.8927700 148.2046040  65.6293450
  14.3018200 148.4202770  66.1391920  14.2112580 145.4616130  51.7533720
  14.4914870 144.6184030  52.1093140  13.4378310 145.6939240  52.2672470
   5.5307070 147.7508520  49.2124720   5.8332970 147.7575950  48.3043870
   6.2701660 147.4006380  49.7092380   8.7492000 146.6943140  50.1980920
   8.4014000 146.0167130  49.6183370   8.9504770 146.2332650  51.0124310
  15.0388080 148.0172080  50.8163780  15.4572960 147.8303060  49.9760440
  14.7324140 147.1651130  51.1266710  18.5377810 152.9296220  54.5139580
  18.1621410 152.1624150  54.0820870  17.8080930 153.3118920  55.0014510
   3.1273570 153.6083360  61.1348630   3.4946610 153.5210760  62.0144650
   2.5584390 152.8449910  61.0355490  17.9277430 152.0767740  64.1479100
  17.6963520 151.8480490  63.2477050  18.1881980 152.9967290  64.1023990
   2.6789570 150.5192450  65.0407050   1.7845620 150.4859210  65.3800760
   3.2187120 150.7179240  65.8058300  16.3665500 147.3024170  66.9258800
  17.2435680 147.3107570  67.3092800  16.3786340 146.5655010  66.3151150
  17.8128770 151.1553710  57.8146820  18.3366250 150.6616360  57.1836990
  18.3988190 151.2904070  58.5594390  17.9918490 151.2393580  61.3366370
  17.0421200 151.2057120  61.4511360  18.1731500 152.1493690  61.1016140
   3.8462930 149.4895260  50.4465000   4.5554630 149.0678480  49.9612280
   3.1302870 149.5570490  49.8148350   3.4937090 145.5434590  49.4867650
   4.2165220 146.0843530  49.8048870   3.7661610 145.2698010  48.6109190
  17.3028740 150.4127060  53.7539230  17.7987860 150.1797930  54.5388110
  17.1044810 149.5738900  53.3376870   3.1829280 144.7940780  59.3890270
   3.8305470 144.2438160  58.9485430   3.6031120 145.0483930  60.2106080
  18.7315900 149.0488010  56.2876910  18.6215180 148.8944050  57.2259180
  19.4923490 148.5208950  56.0452320  17.0781620 144.9882140  62.7459910
  17.7153840 145.6016280  63.1119100  17.2256510 145.0242800  61.8009140
  19.6206170 146.8795930  49.5283050  20.5455480 146.7477110  49.3201340
  19.5981960 146.9588750  50.4819500  19.6944660 147.6506590  52.1539760
  18.8996160 147.5851710  52.6832670  19.8987940 148.5857230  52.1425110
   2.9361280 144.9496450  62.1315590   2.5876100 145.4060270  62.8973770
   2.6048980 144.0553580  62.2138020  10.4486100 146.1408330  65.6535010
  10.3874990 146.7330160  66.4030420  11.3886480 146.0334290  65.5085270
  13.0860660 145.7978390  65.2927300  13.7001070 146.1157680  64.6308380
  13.6310220 145.3126980  65.9123160   3.6081920 144.4772650  65.4066360
   4.1564910 144.2960700  64.6432470   3.6737230 143.6866760  65.9422670
  13.8268700 144.3610530  61.6196590  12.9528540 144.6945640  61.4169520
  13.7179450 143.8883710  62.4448460  14.7340680 146.5681400  63.0038310
  14.4054040 145.7533160  62.6240040  15.6822980 146.5251210  62.8804000
  11.5743520 145.2780370  60.5589500  10.7915310 145.7525870  60.8386260
  11.2806450 144.3735200  60.4502680  16.1264590 145.9803470  58.6038590
  16.5672680 145.9248570  57.7560190  15.8572180 146.8961480  58.6748770
  17.9903160 145.6118710  56.6147410  17.9291560 144.6679930  56.4678430
  18.7695190 145.7198800  57.1600870   2.9183930 145.5827850  53.0803220
   3.6763290 145.6956730  52.5067250   2.4561100 146.4197050  53.0346650
   9.4597740 147.6967120  56.0705530   8.6472250 147.3224010  55.7301410
   9.9639380 146.9412200  56.3726720  13.9622720 144.3609570  57.3088600
  14.5652090 144.9329780  57.7837120  13.2215710 144.9249010  57.0862500
  17.1057320 144.7631130  52.5828880  17.3007950 145.6614580  52.8496310
  16.3187190 144.5318210  53.0761830   5.2909080 146.1091900  51.6205190
   5.8201840 145.3221700  51.4913140   5.9237400 146.7883090  51.8540720
   7.4846920 145.8467040  54.6750580   6.8549660 145.1454350  54.8420710
   6.9452060 146.6071170  54.4583740   7.6102480 145.1251020  67.1103070
   7.3286750 145.6284620  66.3463890   7.9922180 144.3272770  66.7445200
  14.2117940 144.5404600  67.6883540  14.0983390 144.8599210  68.5835060
  15.0287680 144.9417110  67.3920820  13.1176090 152.5597070  38.0518280
  13.0370140 151.6451680  37.7809990  12.7040510 153.0564140  37.3457990
  11.2494130 154.3376090  39.9327550  10.4736230 153.8576530  40.2226120
  11.9007060 153.6581740  39.7583710   5.2659960 154.6495900  40.8103310
   4.4344840 154.3944610  41.2099820   5.8740940 154.7206670  41.5461230
   3.6751910 149.6097790  34.5945700   2.7868610 149.9513760  34.4925580
   3.9593100 149.4098110  33.7026530   2.8809790 147.6187800  42.2654330
   2.7012630 146.7213550  42.5457090   2.4789870 148.1659670  42.9401280
  11.7208290 149.8203660  40.1666640  12.0973110 148.9475540  40.0540310
  11.6227800 150.1562360  39.2757080   5.8513300 148.1929290  35.6284080
   5.9580050 149.0933020  35.9352840   4.9405660 148.1447260  35.3378730
  15.5032410 147.3154100  37.0994980  16.3242030 146.8250670  37.1420460
  15.5366490 147.9051760  37.8526820   3.4996460 150.1148300  40.8736670
   4.1806570 150.3786670  41.4924070   3.1844510 149.2749170  41.2074680
   7.6921030 151.1615660  39.9609260   8.1999250 151.6596630  40.6014280
   8.2234270 150.3850860  39.7848620  19.7931960 149.3320850  43.6638610
  19.0884130 149.7202560  43.1453720  20.0589880 150.0271140  44.2659540
   5.9757130 145.8014220  44.2272680   5.9775570 146.3186610  43.4218580
   5.1461440 145.3244400  44.2042610  15.7393890 149.2554480  39.8722520
  15.0349460 149.5439370  40.4525630  16.1006050 150.0654590  39.5122080
   5.6572460 147.5124180  42.2343130   5.9989270 148.3566230  41.9397000
   4.7188270 147.6607920  42.3508470  18.8080810 148.7009270  40.2631730
  17.8605720 148.7348250  40.3947160  19.1330800 149.5148220  40.6481090
   9.3400350 145.0006450  38.5587720   9.6475330 144.4453340  37.8423220
   8.4101050 145.1350910  38.3760710  11.7281110 153.0655280  35.2947840
  10.8010390 152.9992660  35.5236310  11.8805930 154.0035410  35.1803080
  11.7150190 149.3372280  32.2915000  10.7753860 149.4986240  32.3767460
  12.0333450 150.0557960  31.7450990  18.2362950 154.0190800  42.2694030
  17.4081580 154.0883890  41.7944160  18.8313430 154.6045110  41.8009860
  15.7578400 154.6275580  35.7983090  15.1390820 154.2895130  35.1509390
  15.7402850 153.9835340  36.5062280  15.2004960 150.8060120  43.2148900
  14.7876140 151.6313830  43.4688890  14.4680910 150.2205160  43.0225260
   7.3337750 153.5920020  38.0767570   6.9294750 152.8797270  37.5813470
   7.4200870 153.2473260  38.9655610   6.0466370 150.3663230  41.8566610
   6.5980960 150.4758570  41.0819860   6.5609880 150.7400830  42.5721840
  13.9343100 153.8662390  32.8055840  14.3736380 153.0284820  32.6593660
  14.6471520 154.4991790  32.8919980   5.7209100 153.8882590  45.4671950
   5.5816870 154.7605390  45.8359350   4.8390460 153.5455400  45.3219890
  17.5160240 145.1205200  31.1196880  17.2032900 145.2132030  32.0195950
  18.2772710 145.6986230  31.0694310   4.0342380 152.4865000  35.5774220
   3.9139980 153.2127090  34.9655490   3.7243270 151.7167910  35.1002130
  18.7261530 149.8576700  47.0971020  18.1105800 150.3656370  46.5686480
  18.4057950 148.9575030  47.0396960   6.5006040 145.8300070  38.9597890
   6.0574190 146.6109610  38.6282410   7.0591030 146.1529960  39.6668830
  10.7875850 148.6968590  44.5633210  10.3255220 148.9051610  45.3753150
  10.3853960 147.8827940  44.2603880  15.7880360 149.9177540  45.6929870
  14.9373950 149.6183290  46.0138940  15.6282150 150.1619550  44.7813690
  12.8830070 151.4179290  47.7928660  13.2083480 150.5843040  47.4530890
  13.6710400 151.9407810  47.9406990   9.6164860 145.4510770  33.8403720
   8.9919040 145.4470640  34.5657030   9.5294980 144.5841730  33.4439690
   8.5381940 146.3747400  40.8187490   8.8354270 147.2810230  40.7379510
   9.0867500 145.8866180  40.2047060   6.2920260 150.9533640  36.6879140
   6.0661180 150.7370810  37.5925760   5.5112790 151.3862100  36.3425110
  13.5218020 150.9597010  35.2869790  12.9226910 151.6832810  35.1033410
  14.0697630 150.8973790  34.5046240   8.7319470 151.8519220  47.3539410
   8.6363070 150.9113950  47.2039810   9.5751450 152.0734290  46.9587480
  12.1282890 149.5960550  37.3173070  12.5212460 149.9132750  36.5041760
  12.4899740 148.7172430  37.4317590   3.8630010 148.2632890  45.5073190
   3.4693400 149.1108100  45.7145970   3.1748410 147.6259260  45.6981830
  10.4375060 148.3467860  48.5769930   9.7473380 148.1540060  49.2116020
  11.1807360 148.6302500  49.1094230  12.7138030 152.1866300  41.4123850
  11.9819150 152.6953110  41.7613950  12.3162370 151.3696280  41.1112630
   9.1515420 148.8620500  39.8176340   9.1551480 148.4210450  38.9680880
  10.0466540 149.1837830  39.9248160   5.0017800 148.7446990  38.7770550
   4.6617850 149.2222220  39.5337600   4.2395120 148.2912110  38.4171650
   9.2135570 149.8632580  32.8083100   9.3348390 149.8219060  33.7568920
   8.8284080 150.7256730  32.6529830  13.1763940 147.6399980  40.8246790
  13.1936680 148.0908630  41.6688640  12.9279520 146.7405620  41.0380230
   8.2257070 152.1733720  32.2066400   7.6573970 151.7251970  31.5802310
   8.9346070 152.5326500  31.6731550  16.6034690 145.0532160  46.6633170
  16.9280460 144.3221820  47.1891150  16.6391200 144.7345800  45.7614160
   9.4523390 152.9222280  41.5641750   9.8193520 152.4480850  42.3103090
   9.2628450 153.7963850  41.9050090   2.3163880 147.6665970  37.6935220
   2.0310800 147.3021640  38.5313840   2.2542740 146.9346430  37.0798360
   7.2422760 151.9630920  43.8825960   6.9379830 152.8422900  44.1076320
   8.1969220 152.0230710  43.9183400  11.9902470 146.5595230  34.4148590
  11.1767080 146.0608400  34.3393900  11.7964420 147.3993480  33.9984940
  14.7050860 150.9314880  32.7110750  15.5930480 151.2432110  32.5362090
  14.6755950 150.0587130  32.3191330   3.2986490 152.8033660  45.0297320
   2.9401430 153.4687510  45.6170660   3.0041050 151.9717210  45.4009940
   6.4999610 153.2617900  47.9136870   6.1999750 153.4075080  47.0164690
   7.2710850 152.7023190  47.8210260  16.9765130 152.2426720  32.1790610
  16.8928850 152.6740940  31.3287050  17.6959320 152.7025070  32.6117430
   8.9729350 154.1898130  35.7740200   9.4292130 155.0003380  36.0000390
   8.6217560 153.8721270  36.6058690   4.8741130 144.5335780  36.2462720
   4.7455760 144.5253680  37.1947640   4.0503150 144.8718870  35.8953730
  13.3673840 148.7849210  43.4570870  13.7354660 147.9644420  43.7850440
  12.5072040 148.8451100  43.8726520  16.7335870 147.7406150  34.2658430
  16.1049030 147.8451820  33.5516660  16.2387790 147.9602930  35.0552310
   8.7019900 150.0192100  35.6816310   7.9936050 150.4878440  36.1229920
   8.9864380 149.3614110  36.3161500  10.3275830 151.4388800  43.6808840
  10.8261080 151.9134620  44.3460690  10.4698780 150.5152320  43.8878870
  12.7335330 146.7442760  37.1212100  12.6103110 146.7628890  36.1721610
  13.6819890 146.7921700  37.2410500   6.9054920 148.3277180  33.0567020
   7.7545450 148.7647330  32.9907210   6.5386190 148.6397440  33.8839080
  17.5342690 147.6556760  44.5237230  17.0316290 148.3962160  44.8631040
  18.3499350 148.0440760  44.2074020  15.8264700 152.8989940  37.9698590
  14.8854840 152.9140170  38.1446280  16.1408770 152.1125900  38.4158890
   5.8046340 154.5809540  31.5302550   6.5709610 154.4690900  32.0927980
   5.8821030 153.8847510  30.8779320   4.4993100 152.0134610  32.2135440
   4.5796690 151.0662120  32.3252840   5.3912850 152.3441490  32.3196100
   4.0586980 151.9779120  48.3441680   4.0992320 151.6792990  49.2526910
   4.9132480 152.3786730  48.1849200   7.8365370 154.5774670  33.5045190
   8.2581790 154.4114540  34.3476580   7.9616210 153.7674900  33.0100330
   5.9992790 150.5571220  46.3116170   5.4689250 150.0662170  45.6839510
   6.6680860 150.9855420  45.7774100  10.3493010 153.6012280  30.7522290
  10.8698670 152.8861300  30.3863440  10.9961410 154.2398150  31.0522800
  15.3693020 152.3636840  48.0796510  15.9513790 151.6089160  47.9916990
  15.5454790 152.8944280  47.3027990   6.4865090 147.5233590  46.3913460
   6.3921960 146.9054340  45.6664330   5.9062480 148.2499880  46.1643370
   9.2526530 146.0806830  43.4240850   8.8043830 146.1031090  42.5786400
   8.6191730 145.6825850  44.0211150  11.9949980 152.7077340  45.4291130
  12.1146190 152.1118480  46.1685970  12.8543980 152.7447030  45.0092430
  14.3337880 153.2614530  44.0053640  13.8073100 153.7857150  43.4018780
  14.6769220 153.8941920  44.6363370   6.7324270 150.6507900  30.4503350
   6.5313330 149.7875260  30.8116690   6.5616320 150.5641260  29.5124950
   8.7618750 149.2498690  46.6866950   9.3518440 148.9414540  47.3744770
   7.9438990 148.7778440  46.8426850  13.5812180 148.8664500  46.9199970
  12.8927700 148.2046040  46.8549960  14.3018200 148.4202770  47.3648430
  14.2112580 145.4616130  32.9790230  14.4914870 144.6184030  33.3349650
  13.4378310 145.6939240  33.4928980   5.5307070 147.7508520  30.4381230
   5.8332970 147.7575950  29.5300380   6.2701660 147.4006380  30.9348890
   8.7492000 146.6943140  31.4237430   8.4014000 146.0167130  30.8439880
   8.9504770 146.2332650  32.2380820  15.0388080 148.0172080  32.0420290
  15.4572960 147.8303060  31.2016950  14.7324140 147.1651130  32.3523220
  18.5377810 152.9296220  35.7396090  18.1621410 152.1624150  35.3077380
  17.8080930 153.3118920  36.2271020   3.1273570 153.6083360  42.3605140
   3.4946610 153.5210760  43.2401160   2.5584390 152.8449910  42.2612000
  17.9277430 152.0767740  45.3735610  17.6963520 151.8480490  44.4733560
  18.1881980 152.9967290  45.3280500   2.6789570 150.5192450  46.2663560
   1.7845620 150.4859210  46.6057270   3.2187120 150.7179240  47.0314810
  16.3665500 147.3024170  48.1515310  17.2435680 147.3107570  48.5349310
  16.3786340 146.5655010  47.5407660  17.8128770 151.1553710  39.0403330
  18.3366250 150.6616360  38.4093500  18.3988190 151.2904070  39.7850900
  17.9918490 151.2393580  42.5622880  17.0421200 151.2057120  42.6767870
  18.1731500 152.1493690  42.3272650   3.8462930 149.4895260  31.6721510
   4.5554630 149.0678480  31.1868790   3.1302870 149.5570490  31.0404860
   3.4937090 145.5434590  30.7124160   4.2165220 146.0843530  31.0305380
   3.7661610 145.2698010  29.8365700  17.3028740 150.4127060  34.9795740
  17.7987860 150.1797930  35.7644620  17.1044810 149.5738900  34.5633380
   3.1829280 144.7940780  40.6146780   3.8305470 144.2438160  40.1741940
   3.6031120 145.0483930  41.4362590  18.7315900 149.0488010  37.5133420
  18.6215180 148.8944050  38.4515690  19.4923490 148.5208950  37.2708830
  17.0781620 144.9882140  43.9716420  17.7153840 145.6016280  44.3375610
  17.2256510 145.0242800  43.0265650  19.6206170 146.8795930  30.7539560
  20.5455480 146.7477110  30.5457850  19.5981960 146.9588750  31.7076010
  19.6944660 147.6506590  33.3796270  18.8996160 147.5851710  33.9089180
  19.8987940 148.5857230  33.3681620   2.9361280 144.9496450  43.3572100
   2.5876100 145.4060270  44.1230280   2.6048980 144.0553580  43.4394530
  10.4486100 146.1408330  46.8791520  10.3874990 146.7330160  47.6286930
  11.3886480 146.0334290  46.7341780  13.0860660 145.7978390  46.5183810
  13.7001070 146.1157680  45.8564890  13.6310220 145.3126980  47.1379670
   3.6081920 144.4772650  46.6322870   4.1564910 144.2960700  45.8688980
   3.6737230 143.6866760  47.1679180  13.8268700 144.3610530  42.8453100
  12.9528540 144.6945640  42.6426030  13.7179450 143.8883710  43.6704970
  14.7340680 146.5681400  44.2294820  14.4054040 145.7533160  43.8496550
  15.6822980 146.5251210  44.1060510  11.5743520 145.2780370  41.7846010
  10.7915310 145.7525870  42.0642770  11.2806450 144.3735200  41.6759190
  16.1264590 145.9803470  39.8295100  16.5672680 145.9248570  38.9816700
  15.8572180 146.8961480  39.9005280  17.9903160 145.6118710  37.8403920
  17.9291560 144.6679930  37.6934940  18.7695190 145.7198800  38.3857380
   2.9183930 145.5827850  34.3059730   3.6763290 145.6956730  33.7323760
   2.4561100 146.4197050  34.2603160   9.4597740 147.6967120  37.2962040
   8.6472250 147.3224010  36.9557920   9.9639380 146.9412200  37.5983230
  13.9622720 144.3609570  38.5345110  14.5652090 144.9329780  39.0093630
  13.2215710 144.9249010  38.3119010  17.1057320 144.7631130  33.8085390
  17.3007950 145.6614580  34.0752820  16.3187190 144.5318210  34.3018340
   5.2909080 146.1091900  32.8461700   5.8201840 145.3221700  32.7169650
   5.9237400 146.7883090  33.0797230   7.4846920 145.8467040  35.9007090
   6.8549660 145.1454350  36.0677220   6.9452060 146.6071170  35.6840250
   7.6102480 145.1251020  48.3359580   7.3286750 145.6284620  47.5720400
   7.9922180 144.3272770  47.9701710  14.2117940 144.5404600  48.9140050
  14.0983390 144.8599210  49.8091570  15.0287680 144.9417110  48.6177330
  13.1176090 152.5597070  19.2774790  13.0370140 151.6451680  19.0066500
  12.7040510 153.0564140  18.5714500  11.2494130 154.3376090  21.1584060
  10.4736230 153.8576530  21.4482630  11.9007060 153.6581740  20.9840220
   5.2659960 154.6495900  22.0359820   4.4344840 154.3944610  22.4356330
   5.8740940 154.7206670  22.7717740   3.6751910 149.6097790  15.8202210
   2.7868610 149.9513760  15.7182090   3.9593100 149.4098110  14.9283040
   2.8809790 147.6187800  23.4910840   2.7012630 146.7213550  23.7713600
   2.4789870 148.1659670  24.1657790  11.7208290 149.8203660  21.3923150
  12.0973110 148.9475540  21.2796820  11.6227800 150.1562360  20.5013590
   5.8513300 148.1929290  16.8540590   5.9580050 149.0933020  17.1609350
   4.9405660 148.1447260  16.5635240  15.5032410 147.3154100  18.3251490
  16.3242030 146.8250670  18.3676970  15.5366490 147.9051760  19.0783330
   3.4996460 150.1148300  22.0993180   4.1806570 150.3786670  22.7180580
   3.1844510 149.2749170  22.4331190   7.6921030 151.1615660  21.1865770
   8.1999250 151.6596630  21.8270790   8.2234270 150.3850860  21.0105130
  19.7931960 149.3320850  24.8895120  19.0884130 149.7202560  24.3710230
  20.0589880 150.0271140  25.4916050   5.9757130 145.8014220  25.4529190
   5.9775570 146.3186610  24.6475090   5.1461440 145.3244400  25.4299120
  15.7393890 149.2554480  21.0979030  15.0349460 149.5439370  21.6782140
  16.1006050 150.0654590  20.7378590   5.6572460 147.5124180  23.4599640
   5.9989270 148.3566230  23.1653510   4.7188270 147.6607920  23.5764980
  18.8080810 148.7009270  21.4888240  17.8605720 148.7348250  21.6203670
  19.1330800 149.5148220  21.8737600   9.3400350 145.0006450  19.7844230
   9.6475330 144.4453340  19.0679730   8.4101050 145.1350910  19.6017220
  11.7281110 153.0655280  16.5204350  10.8010390 152.9992660  16.7492820
  11.8805930 154.0035410  16.4059590  11.7150190 149.3372280  13.5171510
  10.7753860 149.4986240  13.6023970  12.0333450 150.0557960  12.9707500
  18.2362950 154.0190800  23.4950540  17.4081580 154.0883890  23.0200670
  18.8313430 154.6045110  23.0266370  15.7578400 154.6275580  17.0239600
  15.1390820 154.2895130  16.3765900  15.7402850 153.9835340  17.7318790
  15.2004960 150.8060120  24.4405410  14.7876140 151.6313830  24.6945400
  14.4680910 150.2205160  24.2481770   7.3337750 153.5920020  19.3024080
   6.9294750 152.8797270  18.8069980   7.4200870 153.2473260  20.1912120
   6.0466370 150.3663230  23.0823120   6.5980960 150.4758570  22.3076370
   6.5609880 150.7400830  23.7978350  13.9343100 153.8662390  14.0312350
  14.3736380 153.0284820  13.8850170  14.6471520 154.4991790  14.1176490
   5.7209100 153.8882590  26.6928460   5.5816870 154.7605390  27.0615860
   4.8390460 153.5455400  26.5476400  17.5160240 145.1205200  12.3453390
  17.2032900 145.2132030  13.2452460  18.2772710 145.6986230  12.2950820
   4.0342380 152.4865000  16.8030730   3.9139980 153.2127090  16.1912000
   3.7243270 151.7167910  16.3258640  18.7261530 149.8576700  28.3227530
  18.1105800 150.3656370  27.7942990  18.4057950 148.9575030  28.2653470
   6.5006040 145.8300070  20.1854400   6.0574190 146.6109610  19.8538920
   7.0591030 146.1529960  20.8925340  10.7875850 148.6968590  25.7889720
  10.3255220 148.9051610  26.6009660  10.3853960 147.8827940  25.4860390
  15.7880360 149.9177540  26.9186380  14.9373950 149.6183290  27.2395450
  15.6282150 150.1619550  26.0070200  12.8830070 151.4179290  29.0185170
  13.2083480 150.5843040  28.6787400  13.6710400 151.9407810  29.1663500
   9.6164860 145.4510770  15.0660230   8.9919040 145.4470640  15.7913540
   9.5294980 144.5841730  14.6696200   8.5381940 146.3747400  22.0444000
   8.8354270 147.2810230  21.9636020   9.0867500 145.8866180  21.4303570
   6.2920260 150.9533640  17.9135650   6.0661180 150.7370810  18.8182270
   5.5112790 151.3862100  17.5681620  13.5218020 150.9597010  16.5126300
  12.9226910 151.6832810  16.3289920  14.0697630 150.8973790  15.7302750
   8.7319470 151.8519220  28.5795920   8.6363070 150.9113950  28.4296320
   9.5751450 152.0734290  28.1843990  12.1282890 149.5960550  18.5429580
  12.5212460 149.9132750  17.7298270  12.4899740 148.7172430  18.6574100
   3.8630010 148.2632890  26.7329700   3.4693400 149.1108100  26.9402480
   3.1748410 147.6259260  26.9238340  10.4375060 148.3467860  29.8026440
   9.7473380 148.1540060  30.4372530  11.1807360 148.6302500  30.3350740
  12.7138030 152.1866300  22.6380360  11.9819150 152.6953110  22.9870460
  12.3162370 151.3696280  22.3369140   9.1515420 148.8620500  21.0432850
   9.1551480 148.4210450  20.1937390  10.0466540 149.1837830  21.1504670
   5.0017800 148.7446990  20.0027060   4.6617850 149.2222220  20.7594110
   4.2395120 148.2912110  19.6428160   9.2135570 149.8632580  14.0339610
   9.3348390 149.8219060  14.9825430   8.8284080 150.7256730  13.8786340
  13.1763940 147.6399980  22.0503300  13.1936680 148.0908630  22.8945150
  12.9279520 146.7405620  22.2636740   8.2257070 152.1733720  13.4322910
   7.6573970 151.7251970  12.8058820   8.9346070 152.5326500  12.8988060
  16.6034690 145.0532160  27.8889680  16.9280460 144.3221820  28.4147660
  16.6391200 144.7345800  26.9870670   9.4523390 152.9222280  22.7898260
   9.8193520 152.4480850  23.5359600   9.2628450 153.7963850  23.1306600
   2.3163880 147.6665970  18.9191730   2.0310800 147.3021640  19.7570350
   2.2542740 146.9346430  18.3054870   7.2422760 151.9630920  25.1082470
   6.9379830 152.8422900  25.3332830   8.1969220 152.0230710  25.1439910
  11.9902470 146.5595230  15.6405100  11.1767080 146.0608400  15.5650410
  11.7964420 147.3993480  15.2241450  14.7050860 150.9314880  13.9367260
  15.5930480 151.2432110  13.7618600  14.6755950 150.0587130  13.5447840
   3.2986490 152.8033660  26.2553830   2.9401430 153.4687510  26.8427170
   3.0041050 151.9717210  26.6266450   6.4999610 153.2617900  29.1393380
   6.1999750 153.4075080  28.2421200   7.2710850 152.7023190  29.0466770
  16.9765130 152.2426720  13.4047120  16.8928850 152.6740940  12.5543560
  17.6959320 152.7025070  13.8373940   8.9729350 154.1898130  16.9996710
   9.4292130 155.0003380  17.2256900   8.6217560 153.8721270  17.8315200
   4.8741130 144.5335780  17.4719230   4.7455760 144.5253680  18.4204150
   4.0503150 144.8718870  17.1210240  13.3673840 148.7849210  24.6827380
  13.7354660 147.9644420  25.0106950  12.5072040 148.8451100  25.0983030
  16.7335870 147.7406150  15.4914940  16.1049030 147.8451820  14.7773170
  16.2387790 147.9602930  16.2808820   8.7019900 150.0192100  16.9072820
   7.9936050 150.4878440  17.3486430   8.9864380 149.3614110  17.5418010
  10.3275830 151.4388800  24.9065350  10.8261080 151.9134620  25.5717200
  10.4698780 150.5152320  25.1135380  12.7335330 146.7442760  18.3468610
  12.6103110 146.7628890  17.3978120  13.6819890 146.7921700  18.4667010
   6.9054920 148.3277180  14.2823530   7.7545450 148.7647330  14.2163720
   6.5386190 148.6397440  15.1095590  17.5342690 147.6556760  25.7493740
  17.0316290 148.3962160  26.0887550  18.3499350 148.0440760  25.4330530
  15.8264700 152.8989940  19.1955100  14.8854840 152.9140170  19.3702790
  16.1408770 152.1125900  19.6415400   5.8046340 154.5809540  12.7559060
   6.5709610 154.4690900  13.3184490   5.8821030 153.8847510  12.1035830
   4.4993100 152.0134610  13.4391950   4.5796690 151.0662120  13.5509350
   5.3912850 152.3441490  13.5452610   4.0586980 151.9779120  29.5698190
   4.0992320 151.6792990  30.4783420   4.9132480 152.3786730  29.4105710
   7.8365370 154.5774670  14.7301700   8.2581790 154.4114540  15.5733090
   7.9616210 153.7674900  14.2356840   5.9992790 150.5571220  27.5372680
   5.4689250 150.0662170  26.9096020   6.6680860 150.9855420  27.0030610
  10.3493010 153.6012280  11.9778800  10.8698670 152.8861300  11.6119950
  10.9961410 154.2398150  12.2779310  15.3693020 152.3636840  29.3053020
  15.9513790 151.6089160  29.2173500  15.5454790 152.8944280  28.5284500
   6.4865090 147.5233590  27.6169970   6.3921960 146.9054340  26.8920840
   5.9062480 148.2499880  27.3899880   9.2526530 146.0806830  24.6497360
   8.8043830 146.1031090  23.8042910   8.6191730 145.6825850  25.2467660
  11.9949980 152.7077340  26.6547640  12.1146190 152.1118480  27.3942480
  12.8543980 152.7447030  26.2348940  14.3337880 153.2614530  25.2310150
  13.8073100 153.7857150  24.6275290  14.6769220 153.8941920  25.8619880
   6.7324270 150.6507900  11.6759860   6.5313330 149.7875260  12.0373200
   6.5616320 150.5641260  10.7381460   8.7618750 149.2498690  27.9123460
   9.3518440 148.9414540  28.6001280   7.9438990 148.7778440  28.0683360
  13.5812180 148.8664500  28.1456480  12.8927700 148.2046040  28.0806470
  14.3018200 148.4202770  28.5904940  14.2112580 145.4616130  14.2046740
  14.4914870 144.6184030  14.5606160  13.4378310 145.6939240  14.7185490
   5.5307070 147.7508520  11.6637740   5.8332970 147.7575950  10.7556890
   6.2701660 147.4006380  12.1605400   8.7492000 146.6943140  12.6493940
   8.4014000 146.0167130  12.0696390   8.9504770 146.2332650  13.4637330
  15.0388080 148.0172080  13.2676800  15.4572960 147.8303060  12.4273460
  14.7324140 147.1651130  13.5779730  18.5377810 152.9296220  16.9652600
  18.1621410 152.1624150  16.5333890  17.8080930 153.3118920  17.4527530
   3.1273570 153.6083360  23.5861650   3.4946610 153.5210760  24.4657670
   2.5584390 152.8449910  23.4868510  17.9277430 152.0767740  26.5992120
  17.6963520 151.8480490  25.6990070  18.1881980 152.9967290  26.5537010
   2.6789570 150.5192450  27.4920070   1.7845620 150.4859210  27.8313780
   3.2187120 150.7179240  28.2571320  16.3665500 147.3024170  29.3771820
  17.2435680 147.3107570  29.7605820  16.3786340 146.5655010  28.7664170
  17.8128770 151.1553710  20.2659840  18.3366250 150.6616360  19.6350010
  18.3988190 151.2904070  21.0107410  17.9918490 151.2393580  23.7879390
  17.0421200 151.2057120  23.9024380  18.1731500 152.1493690  23.5529160
   3.8462930 149.4895260  12.8978020   4.5554630 149.0678480  12.4125300
   3.1302870 149.5570490  12.2661370   3.4937090 145.5434590  11.9380670
   4.2165220 146.0843530  12.2561890   3.7661610 145.2698010  11.0622210
  17.3028740 150.4127060  16.2052250  17.7987860 150.1797930  16.9901130
  17.1044810 149.5738900  15.7889890   3.1829280 144.7940780  21.8403290
   3.8305470 144.2438160  21.3998450   3.6031120 145.0483930  22.6619100
  18.7315900 149.0488010  18.7389930  18.6215180 148.8944050  19.6772200
  19.4923490 148.5208950  18.4965340  17.0781620 144.9882140  25.1972930
  17.7153840 145.6016280  25.5632120  17.2256510 145.0242800  24.2522160
  19.6206170 146.8795930  11.9796070  20.5455480 146.7477110  11.7714360
  19.5981960 146.9588750  12.9332520  19.6944660 147.6506590  14.6052780
  18.8996160 147.5851710  15.1345690  19.8987940 148.5857230  14.5938130
   2.9361280 144.9496450  24.5828610   2.5876100 145.4060270  25.3486790
   2.6048980 144.0553580  24.6651040  10.4486100 146.1408330  28.1048030
  10.3874990 146.7330160  28.8543440  11.3886480 146.0334290  27.9598290
  13.0860660 145.7978390  27.7440320  13.7001070 146.1157680  27.0821400
  13.6310220 145.3126980  28.3636180   3.6081920 144.4772650  27.8579380
   4.1564910 144.2960700  27.0945490   3.6737230 143.6866760  28.3935690
  13.8268700 144.3610530  24.0709610  12.9528540 144.6945640  23.8682540
  13.7179450 143.8883710  24.8961480  14.7340680 146.5681400  25.4551330
  14.4054040 145.7533160  25.0753060  15.6822980 146.5251210  25.3317020
  11.5743520 145.2780370  23.0102520  10.7915310 145.7525870  23.2899280
  11.2806450 144.3735200  22.9015700  16.1264590 145.9803470  21.0551610
  16.5672680 145.9248570  20.2073210  15.8572180 146.8961480  21.1261790
  17.9903160 145.6118710  19.0660430  17.9291560 144.6679930  18.9191450
  18.7695190 145.7198800  19.6113890   2.9183930 145.5827850  15.5316240
   3.6763290 145.6956730  14.9580270   2.4561100 146.4197050  15.4859670
   9.4597740 147.6967120  18.5218550   8.6472250 147.3224010  18.1814430
   9.9639380 146.9412200  18.8239740  13.9622720 144.3609570  19.7601620
  14.5652090 144.9329780  20.2350140  13.2215710 144.9249010  19.5375520
  17.1057320 144.7631130  15.0341900  17.3007950 145.6614580  15.3009330
  16.3187190 144.5318210  15.5274850   5.2909080 146.1091900  14.0718210
   5.8201840 145.3221700  13.9426160   5.9237400 146.7883090  14.3053740
   7.4846920 145.8467040  17.1263600   6.8549660 145.1454350  17.2933730
   6.9452060 146.6071170  16.9096760   7.6102480 145.1251020  29.5616090
   7.3286750 145.6284620  28.7976910   7.9922180 144.3272770  29.1958220
  14.2117940 144.5404600  30.1396560  14.0983390 144.8599210  31.0348080
  15.0287680 144.9417110  29.8433840  11.2494130 154.3376090   2.3840570
  10.4736230 153.8576530   2.6739140  11.9007060 153.6581740   2.2096730
   5.2659960 154.6495900   3.2616330   4.4344840 154.3944610   3.6612840
   5.8740940 154.7206670   3.9974250   2.8809790 147.6187800   4.7167350
   2.7012630 146.7213550   4.9970110   2.4789870 148.1659670   5.3914300
  11.7208290 149.8203660   2.6179660  12.0973110 148.9475540   2.5053330
  11.6227800 150.1562360   1.7270100   3.4996460 150.1148300   3.3249690
   4.1806570 150.3786670   3.9437090   3.1844510 149.2749170   3.6587700
   7.6921030 151.1615660   2.4122280   8.1999250 151.6596630   3.0527300
   8.2234270 150.3850860   2.2361640  19.7931960 149.3320850   6.1151630
  19.0884130 149.7202560   5.5966740  20.0589880 150.0271140   6.7172560
   5.9757130 145.8014220   6.6785700   5.9775570 146.3186610   5.8731600
   5.1461440 145.3244400   6.6555630  15.7393890 149.2554480   2.3235540
  15.0349460 149.5439370   2.9038650  16.1006050 150.0654590   1.9635100
   5.6572460 147.5124180   4.6856150   5.9989270 148.3566230   4.3910020
   4.7188270 147.6607920   4.8021490  18.8080810 148.7009270   2.7144750
  17.8605720 148.7348250   2.8460180  19.1330800 149.5148220   3.0994110
  18.2362950 154.0190800   4.7207050  17.4081580 154.0883890   4.2457180
  18.8313430 154.6045110   4.2522880  15.2004960 150.8060120   5.6661920
  14.7876140 151.6313830   5.9201910  14.4680910 150.2205160   5.4738280
   6.0466370 150.3663230   4.3079630   6.5980960 150.4758570   3.5332880
   6.5609880 150.7400830   5.0234860   5.7209100 153.8882590   7.9184970
   5.5816870 154.7605390   8.2872370   4.8390460 153.5455400   7.7732910
  18.7261530 149.8576700   9.5484040  18.1105800 150.3656370   9.0199500
  18.4057950 148.9575030   9.4909980  10.7875850 148.6968590   7.0146230
  10.3255220 148.9051610   7.8266170  10.3853960 147.8827940   6.7116900
  15.7880360 149.9177540   8.1442890  14.9373950 149.6183290   8.4651960
  15.6282150 150.1619550   7.2326710  12.8830070 151.4179290  10.2441680
  13.2083480 150.5843040   9.9043910  13.6710400 151.9407810  10.3920010
   8.5381940 146.3747400   3.2700510   8.8354270 147.2810230   3.1892530
   9.0867500 145.8866180   2.6560080   8.7319470 151.8519220   9.8052430
   8.6363070 150.9113950   9.6552830   9.5751450 152.0734290   9.4100500
   3.8630010 148.2632890   7.9586210   3.4693400 149.1108100   8.1658990
   3.1748410 147.6259260   8.1494850  10.4375060 148.3467860  11.0282950
   9.7473380 148.1540060  11.6629040  11.1807360 148.6302500  11.5607250
  12.7138030 152.1866300   3.8636870  11.9819150 152.6953110   4.2126970
  12.3162370 151.3696280   3.5625650   9.1515420 148.8620500   2.2689360
   9.1551480 148.4210450   1.4193900  10.0466540 149.1837830   2.3761180
  13.1763940 147.6399980   3.2759810  13.1936680 148.0908630   4.1201660
  12.9279520 146.7405620   3.4893250  16.6034690 145.0532160   9.1146190
  16.9280460 144.3221820   9.6404170  16.6391200 144.7345800   8.2127180
   9.4523390 152.9222280   4.0154770   9.8193520 152.4480850   4.7616110
   9.2628450 153.7963850   4.3563110   7.2422760 151.9630920   6.3338980
   6.9379830 152.8422900   6.5589340   8.1969220 152.0230710   6.3696420
   3.2986490 152.8033660   7.4810340   2.9401430 153.4687510   8.0683680
   3.0041050 151.9717210   7.8522960   6.4999610 153.2617900  10.3649890
   6.1999750 153.4075080   9.4677710   7.2710850 152.7023190  10.2723280
  13.3673840 148.7849210   5.9083890  13.7354660 147.9644420   6.2363460
  12.5072040 148.8451100   6.3239540  10.3275830 151.4388800   6.1321860
  10.8261080 151.9134620   6.7973710  10.4698780 150.5152320   6.3391890
  17.5342690 147.6556760   6.9750250  17.0316290 148.3962160   7.3144060
  18.3499350 148.0440760   6.6587040   4.0586980 151.9779120  10.7954700
   4.0992320 151.6792990  11.7039930   4.9132480 152.3786730  10.6362220
   5.9992790 150.5571220   8.7629190   5.4689250 150.0662170   8.1352530
   6.6680860 150.9855420   8.2287120  15.3693020 152.3636840  10.5309530
  15.9513790 151.6089160  10.4430010  15.5454790 152.8944280   9.7541010
   6.4865090 147.5233590   8.8426480   6.3921960 146.9054340   8.1177350
   5.9062480 148.2499880   8.6156390   9.2526530 146.0806830   5.8753870
   8.8043830 146.1031090   5.0299420   8.6191730 145.6825850   6.4724170
  11.9949980 152.7077340   7.8804150  12.1146190 152.1118480   8.6198990
  12.8543980 152.7447030   7.4605450  14.3337880 153.2614530   6.4566660
  13.8073100 153.7857150   5.8531800  14.6769220 153.8941920   7.0876390
   8.7618750 149.2498690   9.1379970   9.3518440 148.9414540   9.8257790
   7.9438990 148.7778440   9.2939870  13.5812180 148.8664500   9.3712990
  12.8927700 148.2046040   9.3062980  14.3018200 148.4202770   9.8161450
   3.1273570 153.6083360   4.8118160   3.4946610 153.5210760   5.6914180
   2.5584390 152.8449910   4.7125020  17.9277430 152.0767740   7.8248630
  17.6963520 151.8480490   6.9246580  18.1881980 152.9967290   7.7793520
   2.6789570 150.5192450   8.7176580   1.7845620 150.4859210   9.0570290
   3.2187120 150.7179240   9.4827830  16.3665500 147.3024170  10.6028330
  17.2435680 147.3107570  10.9862330  16.3786340 146.5655010   9.9920680
  17.9918490 151.2393580   5.0135900  17.0421200 151.2057120   5.1280890
  18.1731500 152.1493690   4.7785670   3.1829280 144.7940780   3.0659800
   3.8305470 144.2438160   2.6254960   3.6031120 145.0483930   3.8875610
  17.0781620 144.9882140   6.4229440  17.7153840 145.6016280   6.7888630
  17.2256510 145.0242800   5.4778670   2.9361280 144.9496450   5.8085120
   2.5876100 145.4060270   6.5743300   2.6048980 144.0553580   5.8907550
  10.4486100 146.1408330   9.3304540  10.3874990 146.7330160  10.0799950
  11.3886480 146.0334290   9.1854800  13.0860660 145.7978390   8.9696830
  13.7001070 146.1157680   8.3077910  13.6310220 145.3126980   9.5892690
   3.6081920 144.4772650   9.0835890   4.1564910 144.2960700   8.3202000
   3.6737230 143.6866760   9.6192200  13.8268700 144.3610530   5.2966120
  12.9528540 144.6945640   5.0939050  13.7179450 143.8883710   6.1217990
  14.7340680 146.5681400   6.6807840  14.4054040 145.7533160   6.3009570
  15.6822980 146.5251210   6.5573530  11.5743520 145.2780370   4.2359030
  10.7915310 145.7525870   4.5155790  11.2806450 144.3735200   4.1272210
  16.1264590 145.9803470   2.2808120  16.5672680 145.9248570   1.4329720
  15.8572180 146.8961480   2.3518300   7.6102480 145.1251020  10.7872600
   7.3286750 145.6284620  10.0233420   7.9922180 144.3272770  10.4214730
  14.2117940 144.5404600  11.3653070  14.0983390 144.8599210  12.2604590
  15.0287680 144.9417110  11.0690350  13.1176090 133.7853580 150.6979220
  13.0370140 132.8708190 150.4270930  12.7040510 134.2820650 149.9918930
  11.2494130 135.5632600 152.5788490  10.4736230 135.0833040 152.8687060
  11.9007060 134.8838250 152.4044650  15.2701560 139.9692790 151.3587620
  14.8083090 139.1980030 151.6874790  16.0827110 139.9958860 151.8640070
   3.6751910 130.8354300 147.2406640   2.7868610 131.1770270 147.1386520
   3.9593100 130.6354620 146.3487470  11.4964870 142.2550800 150.9791610
  10.8776310 142.7108300 150.4086050  12.3516650 142.4102260 150.5781310
  10.6903120 138.2389790 152.5858650  10.6211400 137.2979730 152.4247780
  11.4522980 138.3291200 153.1581220  11.7208290 131.0460170 152.8127580
  12.0973110 130.1732050 152.7001250  11.6227800 131.3818870 151.9218020
   5.8513300 129.4185800 148.2745020   5.9580050 130.3189530 148.5813780
   4.9405660 129.3703770 147.9839670  15.5032410 128.5410610 149.7455920
  16.3242030 128.0507180 149.7881400  15.5366490 129.1308270 150.4987760
  12.3628220 137.1390040 148.3723520  11.7445490 137.6039490 147.8086240
  12.8751470 137.8317520 148.7893030  15.7393890 130.4810990 152.5183460
  15.0349460 130.7695880 153.0986570  16.1006050 131.2911100 152.1583020
   9.3400350 126.2262960 151.2048660   9.6475330 125.6709850 150.4884160
   8.4101050 126.3607420 151.0221650  16.1860830 138.6646470 148.5846290
  16.0757160 137.7220800 148.7095710  16.1829080 139.0262110 149.4709050
  11.7281110 134.2911790 147.9408780  10.8010390 134.2249170 148.1697250
  11.8805930 135.2291920 147.8264020  11.7150190 130.5628790 144.9375940
  10.7753860 130.7242750 145.0228400  12.0333450 131.2814470 144.3911930
  15.7578400 135.8532090 148.4444030  15.1390820 135.5151640 147.7970330
  15.7402850 135.2091850 149.1523220   7.3337750 134.8176530 150.7228510
   6.9294750 134.1053780 150.2274410   7.4200870 134.4729770 151.6116550
   7.8019450 138.5044090 152.8867720   7.5047740 137.8989560 152.2075500
   8.7519270 138.5421400 152.7757080  13.9343100 135.0918900 145.4516780
  14.3736380 134.2541330 145.3054600  14.6471520 135.7248300 145.5380920
  12.0438480 140.0314970 149.4198020  12.4834390 140.7739300 149.0053410
  11.9825370 140.2741540 150.3436980  17.5160240 126.3461710 143.7657820
  17.2032900 126.4388540 144.6656890  18.2772710 126.9242740 143.7155250
   4.0342380 133.7121510 148.2235160   3.9139980 134.4383600 147.6116430
   3.7243270 132.9424420 147.7463070   2.9175380 138.5836840 150.4409980
   2.5103460 138.7251430 149.5863580   3.8088390 138.2997000 150.2381190
  14.7108660 143.0184090 146.7761030  14.5509800 142.7287030 147.6742860
  14.5455370 142.2424220 146.2406260   7.1897040 142.7982620 148.5532650
   7.0139520 141.8818160 148.3400450   6.3352780 143.1569910 148.7930450
  14.4134790 140.5271650 145.3359030  13.7199950 140.5248940 144.6761310
  15.1557650 140.1030970 144.9053200  13.9784720 142.1534360 149.4107520
  14.4341670 141.3723740 149.7246140  14.3177240 142.8641180 149.9548700
   6.5006040 127.0556580 151.6058830   6.0574190 127.8366120 151.2743350
   7.0591030 127.3786470 152.3129770   9.6164860 126.6767280 146.4864660
   8.9919040 126.6727150 147.2117970   9.5294980 125.8098240 146.0900630
   6.2920260 132.1790150 149.3340080   6.0661180 131.9627320 150.2386700
   5.5112790 132.6118610 148.9886050  13.5218020 132.1853520 147.9330730
  12.9226910 132.9089320 147.7494350  14.0697630 132.1230300 147.1507180
  12.1282890 130.8217060 149.9634010  12.5212460 131.1389260 149.1502700
  12.4899740 129.9428940 150.0778530   9.1515420 130.0877010 152.4637280
   9.1551480 129.6466960 151.6141820  10.0466540 130.4094340 152.5709100
   5.0017800 129.9703500 151.4231490   4.6617850 130.4478730 152.1798540
   4.2395120 129.5168620 151.0632590   9.2135570 131.0889090 145.4544040
   9.3348390 131.0475570 146.4029860   8.8284080 131.9513240 145.2990770
   8.2257070 133.3990230 144.8527340   7.6573970 132.9508480 144.2263250
   8.9346070 133.7583010 144.3192490   2.3163880 128.8922480 150.3396160
   2.0310800 128.5278150 151.1774780   2.2542740 128.1602940 149.7259300
   5.7704550 137.3948420 147.1253750   4.9966810 136.8546040 146.9652470
   6.4999180 136.8755030 146.7871510  16.5292530 136.3913780 152.9180140
  17.2491650 136.8869070 152.5276250  16.3274350 135.7131670 152.2734010
  11.9902470 127.7851740 147.0609530  11.1767080 127.2864910 146.9854840
  11.7964420 128.6249990 146.6445880  14.7050860 132.1571390 145.3571690
  15.5930480 132.4688620 145.1823030  14.6755950 131.2843640 144.9652270
   5.8141950 137.0628800 150.7632560   6.3320620 136.2597060 150.7089450
   5.3625970 137.0007940 151.6049390  10.7011450 138.3295080 146.0359860
  11.0427150 139.0737310 145.5403180   9.8724160 138.6426200 146.3984690
  16.9765130 133.4683230 144.8251550  16.8928850 133.8997450 143.9747990
  17.6959320 133.9281580 145.2578370  18.0052380 140.3225490 147.5533680
  17.3628540 139.6681110 147.8277400  17.6183040 140.7280580 146.7774350
  13.5838860 137.6510920 151.4005370  13.9362680 137.0539050 150.7406740
  12.7001190 137.3255150 151.5713620   9.6702140 138.4108610 148.8075780
  10.3573270 138.9577820 149.1883370   8.8834560 138.9549340 148.8425390
   8.9729350 135.4154640 148.4201140   9.4292130 136.2259890 148.6461330
   8.6217560 135.0977780 149.2519630   4.8741130 125.7592290 148.8923660
   4.7455760 125.7510190 149.8408580   4.0503150 126.0975380 148.5414670
  16.3949760 139.2141950 144.0910030  16.1687340 138.4972390 144.6834670
  16.0045960 138.9654390 143.2531780   2.1765790 143.2408810 144.8654490
   2.5363430 143.8398150 144.2111760   2.0358130 143.7868700 145.6389520
  15.9766010 137.1313890 145.7524190  15.6887710 137.5926580 146.5402070
  16.7718180 136.6711660 146.0208410   8.1934410 140.6240010 145.6828160
   8.1844510 141.3569700 145.0672670   7.2732770 140.3771590 145.7755120
   3.7941050 135.8454900 146.4274920   3.1869000 136.5853800 146.4370220
   4.2690400 135.9354260 145.6013120  16.7335870 128.9662660 146.9119370
  16.1049030 129.0708330 146.1977600  16.2387790 129.1859440 147.7013250
  11.1794010 140.6868250 144.3453350  11.2805990 140.4832240 143.4155330
  10.2795750 140.4326530 144.5501130   8.7019900 131.2448610 148.3277250
   7.9936050 131.7134950 148.7690860   8.9864380 130.5870620 148.9622440
  12.7335330 127.9699270 149.7673040  12.6103110 127.9885400 148.8182550
  13.6819890 128.0178210 149.8871440   9.8212120 143.2054570 149.0401020
  10.0753620 143.1675960 148.1180390   8.8724600 143.0787900 149.0329270
   6.9054920 129.5533690 145.7027960   7.7545450 129.9903840 145.6368150
   6.5386190 129.8653950 146.5300020  15.8264700 134.1246450 150.6159530
  14.8854840 134.1396680 150.7907220  16.1408770 133.3382410 151.0619830
   5.8046340 135.8066050 144.1763490   6.5709610 135.6947410 144.7388920
   5.8821030 135.1104020 143.5240260   4.4993100 133.2391120 144.8596380
   4.5796690 132.2918630 144.9713780   5.3912850 133.5698000 144.9657040
  17.8290280 141.2955300 152.2913790  17.9537700 142.1186470 152.7637600
  18.6955840 141.0846030 151.9437940   5.3007810 143.3886510 151.9630920
   6.0370290 142.8401970 152.2339490   5.6848730 144.2542520 151.8236910
   8.4110120 142.5616820 143.7856490   9.2038730 142.8505650 143.3338280
   7.8914470 142.1308990 143.1068970  17.4640290 141.7886950 145.2093230
  17.1781800 141.3752090 144.3947410  17.2659840 142.7174660 145.0893750
   8.9287520 137.7820230 143.6498840   8.8238160 137.1672580 144.3760220
   8.7611740 137.2586120 142.8661850  12.1690250 136.8440260 144.2540830
  11.6200350 137.2909560 144.8983570  12.7909510 136.3389510 144.7778500
   7.8365370 135.8031180 146.1506130   8.2581790 135.6371050 146.9937520
   7.9616210 134.9931410 145.6561270  10.3493010 134.8268790 143.3983230
  10.8698670 134.1117810 143.0324380  10.9961410 135.4654660 143.6983740
   6.7324270 131.8764410 143.0964290   6.5313330 131.0131770 143.4577630
   6.5616320 131.7897770 142.1585890  14.2112580 126.6872640 145.6251170
  14.4914870 125.8440540 145.9810590  13.4378310 126.9195750 146.1389920
   5.5307070 128.9765030 143.0842170   5.8332970 128.9832460 142.1761320
   6.2701660 128.6262890 143.5809830   8.7492000 127.9199650 144.0698370
   8.4014000 127.2423640 143.4900820   8.9504770 127.4589160 144.8841760
  10.9141040 142.9080400 145.6884970  11.8091830 143.2465370 145.7103730
  10.9458670 142.1859810 145.0609250   4.5537200 138.2807450 143.9171970
   4.9912070 138.8237120 144.5729550   5.0384930 137.4554400 143.9268310
   1.7683000 141.0696480 151.3692230   2.0986010 140.2017540 151.1370870
   2.1974000 141.2755000 152.1997190   6.3644920 139.4005490 149.0294200
   6.0640460 139.2770460 149.9298110   6.2582410 138.5414080 148.6209930
  19.1336840 139.1801890 143.7320880  18.3029800 139.2478540 144.2028110
  19.3108670 140.0706010 143.4287740  18.5893300 135.9249370 146.2355080
  19.3512210 136.4946020 146.3414770  18.6047670 135.3576570 147.0063390
  19.5953270 136.7799470 151.0797010  19.9662100 135.9966790 150.6732980
  20.2355200 137.4688570 150.9014310  18.6412470 136.2183740 143.3927600
  18.9161310 137.1262620 143.2646820  18.4523210 136.1546270 144.3289590
  15.0388080 129.2428590 144.6881230  15.4572960 129.0559570 143.8477890
  14.7324140 128.3907640 144.9984160  18.5377810 134.1552730 148.3857030
  18.1621410 133.3880660 147.9538320  17.8080930 134.5375430 148.8731960
  17.8128770 132.3810220 151.6864270  18.3366250 131.8872870 151.0554440
  18.3988190 132.5160580 152.4311840   3.8462930 130.7151770 144.3182450
   4.5554630 130.2934990 143.8329730   3.1302870 130.7827000 143.6865800
   3.4937090 126.7691100 143.3585100   4.2165220 127.3100040 143.6766320
   3.7661610 126.4954520 142.4826640  17.3028740 131.6383570 147.6256680
  17.7987860 131.4054440 148.4105560  17.1044810 130.7995410 147.2094320
  18.7315900 130.2744520 150.1594360  18.6215180 130.1200560 151.0976630
  19.4923490 129.7465460 149.9169770  19.6206170 128.1052440 143.4000500
  20.5455480 127.9733620 143.1918790  19.5981960 128.1845260 144.3536950
  19.6944660 128.8763100 146.0257210  18.8996160 128.8108220 146.5550120
  19.8987940 129.8113740 146.0142560  16.6363080 142.9154650 150.0195600
  17.2322150 142.5939220 149.3430020  16.8941230 142.4426470 150.8108870
  16.1264590 127.2059980 152.4756040  16.5672680 127.1505080 151.6277640
  15.8572180 128.1217990 152.5466220  17.9903160 126.8375220 150.4864860
  17.9291560 125.8936440 150.3395880  18.7695190 126.9455310 151.0318320
   2.9183930 126.8084360 146.9520670   3.6763290 126.9213240 146.3784700
   2.4561100 127.6453560 146.9064100   9.4597740 128.9223630 149.9422980
   8.6472250 128.5480520 149.6018860   9.9639380 128.1668710 150.2444170
  13.9622720 125.5866080 151.1806050  14.5652090 126.1586290 151.6554570
  13.2215710 126.1505520 150.9579950  17.1057320 125.9887640 146.4546330
  17.3007950 126.8871090 146.7213760  16.3187190 125.7574720 146.9479280
   3.9018610 141.6700810 146.8938950   3.3766230 142.0508840 146.1900910
   3.8263190 142.2951580 147.6148660   5.2909080 127.3348410 145.4922640
   5.8201840 126.5478210 145.3630590   5.9237400 128.0139600 145.7258170
   7.4846920 127.0723550 148.5468030   6.8549660 126.3710860 148.7138160
   6.9452060 127.8327680 148.3301190  18.6583930 143.2288350 148.2152890
  18.8336120 142.5426090 147.5713810  17.9605500 143.7535400 147.8229560
   6.5011580 143.6183190 145.7688200   7.2330400 143.3342470 145.2212090
   6.7605250 143.3796470 146.6587580   5.6626370 139.7347920 145.7734530
   5.0335250 140.2033020 146.3220360   5.7774200 138.8897140 146.2080720
  13.1176090 133.7853580 131.9235730  13.0370140 132.8708190 131.6527440
  12.7040510 134.2820650 131.2175440  11.2494130 135.5632600 133.8045000
  10.4736230 135.0833040 134.0943570  11.9007060 134.8838250 133.6301160
   5.2659960 135.8752410 134.6820760   4.4344840 135.6201120 135.0817270
   5.8740940 135.9463180 135.4178680  15.2701560 139.9692790 132.5844130
  14.8083090 139.1980030 132.9131300  16.0827110 139.9958860 133.0896580
   5.2461220 139.9092500 134.8778780   5.5489260 139.0190240 134.6989000
   5.9904810 140.4662720 134.6501030   3.6751910 130.8354300 128.4663150
   2.7868610 131.1770270 128.3643030   3.9593100 130.6354620 127.5743980
  11.4964870 142.2550800 132.2048120  10.8776310 142.7108300 131.6342560
  12.3516650 142.4102260 131.8037820  10.6903120 138.2389790 133.8115160
  10.6211400 137.2979730 133.6504290  11.4522980 138.3291200 134.3837730
   2.8809790 128.8444310 136.1371780   2.7012630 127.9470060 136.4174540
   2.4789870 129.3916180 136.8118730  11.7208290 131.0460170 134.0384090
  12.0973110 130.1732050 133.9257760  11.6227800 131.3818870 133.1474530
   5.8513300 129.4185800 129.5001530   5.9580050 130.3189530 129.8070290
   4.9405660 129.3703770 129.2096180  15.5032410 128.5410610 130.9712430
  16.3242030 128.0507180 131.0137910  15.5366490 129.1308270 131.7244270
   3.4996460 131.3404810 134.7454120   4.1806570 131.6043180 135.3641520
   3.1844510 130.5005680 135.0792130   7.6921030 132.3872170 133.8326710
   8.1999250 132.8853140 134.4731730   8.2234270 131.6107370 133.6566070
  19.7931960 130.5577360 137.5356060  19.0884130 130.9459070 137.0171170
  20.0589880 131.2527650 138.1376990   5.9757130 127.0270730 138.0990130
   5.9775570 127.5443120 137.2936030   5.1461440 126.5500910 138.0760060
  12.3628220 137.1390040 129.5980030  11.7445490 137.6039490 129.0342750
  12.8751470 137.8317520 130.0149540   7.2259980 136.6665910 136.2763630
   6.8929360 137.2934830 136.9184700   7.4026660 137.1927790 135.4965300
  15.7393890 130.4810990 133.7439970  15.0349460 130.7695880 134.3243080
  16.1006050 131.2911100 133.3839530   5.6572460 128.7380690 136.1060580
   5.9989270 129.5822740 135.8114450   4.7188270 128.8864430 136.2225920
   6.4379080 138.6346710 138.0912810   7.0553080 139.3097790 137.8097260
   5.5772200 139.0434690 138.0000310  17.3556670 140.0986120 136.0067450
  16.6720190 140.7685230 135.9984120  17.8950960 140.2966770 135.2412310
  18.8080810 129.9265780 134.1349180  17.8605720 129.9604760 134.2664610
  19.1330800 130.7404730 134.5198540   9.3400350 126.2262960 132.4305170
   9.6475330 125.6709850 131.7140670   8.4101050 126.3607420 132.2478160
  14.8915410 141.9430250 134.7212630  14.9042570 141.5392540 133.8534890
  14.3390630 142.7177540 134.6174060  16.1860830 138.6646470 129.8102800
  16.0757160 137.7220800 129.9352220  16.1829080 139.0262110 130.6965560
  14.2900850 136.8460090 136.0495240  14.7069640 136.6320200 135.2148700
  15.0140670 137.1032880 136.6203860  11.7281110 134.2911790 129.1665290
  10.8010390 134.2249170 129.3953760  11.8805930 135.2291920 129.0520530
  11.7150190 130.5628790 126.1632450  10.7753860 130.7242750 126.2484910
  12.0333450 131.2814470 125.6168440  18.2362950 135.2447310 136.1411480
  17.4081580 135.3140400 135.6661610  18.8313430 135.8301620 135.6727310
  15.7578400 135.8532090 129.6700540  15.1390820 135.5151640 129.0226840
  15.7402850 135.2091850 130.3779730  15.2004960 132.0316630 137.0866350
  14.7876140 132.8570340 137.3406340  14.4680910 131.4461670 136.8942710
   7.3337750 134.8176530 131.9485020   6.9294750 134.1053780 131.4530920
   7.4200870 134.4729770 132.8373060   7.8019450 138.5044090 134.1124230
   7.5047740 137.8989560 133.4332010   8.7519270 138.5421400 134.0013590
   6.0466370 131.5919740 135.7284060   6.5980960 131.7015080 134.9537310
   6.5609880 131.9657340 136.4439290  15.8905060 142.0775960 137.7747330
  15.4135620 142.8848150 137.5819940  15.2066850 141.4254290 137.9273540
   6.8937880 138.2425780 140.7632030   5.9966410 138.4665750 141.0105430
   6.9190750 138.3660720 139.8143430  13.9343100 135.0918900 126.6773290
  14.3736380 134.2541330 126.5311110  14.6471520 135.7248300 126.7637430
   5.7209100 135.1139100 139.3389400   5.5816870 135.9861900 139.7076800
   4.8390460 134.7711910 139.1937340  12.0438480 140.0314970 130.6454530
  12.4834390 140.7739300 130.2309920  11.9825370 140.2741540 131.5693490
   7.5189450 141.0560800 141.5474550   7.4904880 141.4603750 140.6802980
   7.3554420 140.1271160 141.3846150  17.5160240 126.3461710 124.9914330
  17.2032900 126.4388540 125.8913400  18.2772710 126.9242740 124.9411760
   4.0342380 133.7121510 129.4491670   3.9139980 134.4383600 128.8372940
   3.7243270 132.9424420 128.9719580  19.4704270 141.8387900 142.8438720
  19.9463990 142.3170790 143.5227800  20.0911430 141.7705390 142.1184220
   2.9175380 138.5836840 131.6666490   2.5103460 138.7251430 130.8120090
   3.8088390 138.2997000 131.4637700  18.8737520 139.0300750 140.0038730
  19.0000580 138.7912630 139.0855910  18.9158900 138.1985290 140.4760810
  12.7354260 142.7328750 138.5733540  13.2498930 142.6436760 139.3755970
  11.8923340 143.0788450 138.8661450  14.7108660 143.0184090 128.0017540
  14.5509800 142.7287030 128.8999370  14.5455370 142.2424220 127.4662770
   7.1897040 142.7982620 129.7789160   7.0139520 141.8818160 129.5656960
   6.3352780 143.1569910 130.0186960  14.4134790 140.5271650 126.5615540
  13.7199950 140.5248940 125.9017820  15.1557650 140.1030970 126.1309710
  13.9784720 142.1534360 130.6364030  14.4341670 141.3723740 130.9502650
  14.3177240 142.8641180 131.1805210  18.7261530 131.0833210 140.9688470
  18.1105800 131.5912880 140.4403930  18.4057950 130.1831540 140.9114410
   6.5006040 127.0556580 132.8315340   6.0574190 127.8366120 132.4999860
   7.0591030 127.3786470 133.5386280  10.7875850 129.9225100 138.4350660
  10.3255220 130.1308120 139.2470600  10.3853960 129.1084450 138.1321330
  15.7880360 131.1434050 139.5647320  14.9373950 130.8439800 139.8856390
  15.6282150 131.3876060 138.6531140  12.8830070 132.6435800 141.6646110
  13.2083480 131.8099550 141.3248340  13.6710400 133.1664320 141.8124440
   9.6164860 126.6767280 127.7121170   8.9919040 126.6727150 128.4374480
   9.5294980 125.8098240 127.3157140   8.5381940 127.6003910 134.6904940
   8.8354270 128.5066740 134.6096960   9.0867500 127.1122690 134.0764510
   6.2920260 132.1790150 130.5596590   6.0661180 131.9627320 131.4643210
   5.5112790 132.6118610 130.2142560  13.5218020 132.1853520 129.1587240
  12.9226910 132.9089320 128.9750860  14.0697630 132.1230300 128.3763690
   8.7319470 133.0775730 141.2256860   8.6363070 132.1370460 141.0757260
   9.5751450 133.2990800 140.8304930  12.1282890 130.8217060 131.1890520
  12.5212460 131.1389260 130.3759210  12.4899740 129.9428940 131.3035040
   3.8630010 129.4889400 139.3790640   3.4693400 130.3364610 139.5863420
   3.1748410 128.8515770 139.5699280  10.4375060 129.5724370 142.4487380
   9.7473380 129.3796570 143.0833470  11.1807360 129.8559010 142.9811680
  12.7138030 133.4122810 135.2841300  11.9819150 133.9209620 135.6331400
  12.3162370 132.5952790 134.9830080   9.1515420 130.0877010 133.6893790
   9.1551480 129.6466960 132.8398330  10.0466540 130.4094340 133.7965610
   5.0017800 129.9703500 132.6488000   4.6617850 130.4478730 133.4055050
   4.2395120 129.5168620 132.2889100   9.2135570 131.0889090 126.6800550
   9.3348390 131.0475570 127.6286370   8.8284080 131.9513240 126.5247280
  13.1763940 128.8656490 134.6964240  13.1936680 129.3165140 135.5406090
  12.9279520 127.9662130 134.9097680   8.2257070 133.3990230 126.0783850
   7.6573970 132.9508480 125.4519760   8.9346070 133.7583010 125.5449000
  16.6034690 126.2788670 140.5350620  16.9280460 125.5478330 141.0608600
  16.6391200 125.9602310 139.6331610   3.3026250 137.3002250 139.9550580
   2.9181040 136.6595920 140.5533540   3.6138440 138.0038370 140.5245310
   9.4523390 134.1478790 135.4359200   9.8193520 133.6737360 136.1820540
   9.2628450 135.0220360 135.7767540   2.3163880 128.8922480 131.5652670
   2.0310800 128.5278150 132.4031290   2.2542740 128.1602940 130.9515810
   7.2422760 133.1887430 137.7543410   6.9379830 134.0679410 137.9793770
   8.1969220 133.2487220 137.7900850   5.7704550 137.3948420 128.3510260
   4.9966810 136.8546040 128.1908980   6.4999180 136.8755030 128.0128020
  16.5292530 136.3913780 134.1436650  17.2491650 136.8869070 133.7532760
  16.3274350 135.7131670 133.4990520  11.9902470 127.7851740 128.2866040
  11.1767080 127.2864910 128.2111350  11.7964420 128.6249990 127.8702390
  11.9111330 136.4622840 140.0305650  11.8448640 135.5418510 139.7763240
  11.2816470 136.5598280 140.7450290  14.7050860 132.1571390 126.5828200
  15.5930480 132.4688620 126.4079540  14.6755950 131.2843640 126.1908780
   5.8141950 137.0628800 131.9889070   6.3320620 136.2597060 131.9345960
   5.3625970 137.0007940 132.8305900  10.7011450 138.3295080 127.2616370
  11.0427150 139.0737310 126.7659690   9.8724160 138.6426200 127.6241200
   3.2986490 134.0290170 138.9014770   2.9401430 134.6944020 139.4888110
   3.0041050 133.1973720 139.2727390   6.4999610 134.4874410 141.7854320
   6.1999750 134.6331590 140.8882140   7.2710850 133.9279700 141.6927710
  11.8428060 139.2843410 139.7809450  11.8572600 138.3524370 139.5628360
  11.1353160 139.3703170 140.4199220  16.9765130 133.4683230 126.0508060
  16.8928850 133.8997450 125.2004500  17.6959320 133.9281580 126.4834880
  18.0539270 135.9250750 139.1278030  17.3287460 136.5179530 138.9307420
  18.5814730 135.9174290 138.3291400  18.0052380 140.3225490 128.7790190
  17.3628540 139.6681110 129.0533910  17.6183040 140.7280580 128.0030860
  13.5838860 137.6510920 132.6261880  13.9362680 137.0539050 131.9663250
  12.7001190 137.3255150 132.7970130   9.6702140 138.4108610 130.0332290
  10.3573270 138.9577820 130.4139880   8.8834560 138.9549340 130.0681900
   8.9729350 135.4154640 129.6457650   9.4292130 136.2259890 129.8717840
   8.6217560 135.0977780 130.4776140  11.2761960 140.9260980 136.8749950
  11.9204180 141.1320360 137.5523370  11.6391400 140.1649380 136.4220800
   4.8741130 125.7592290 130.1180170   4.7455760 125.7510190 131.0665090
   4.0503150 126.0975380 129.7671180  12.5494040 138.9293330 135.5927400
  13.1916270 138.2286490 135.7059570  13.0743390 139.7091770 135.4124290
  16.3949760 139.2141950 125.3166540  16.1687340 138.4972390 125.9091180
  16.0045960 138.9654390 124.4788290  14.3231660 139.7288230 138.7963460
  14.6587900 140.3154920 139.4741380  13.4032000 139.5980940 139.0261250
   2.1765790 143.2408810 126.0911000   2.5363430 143.8398150 125.4368270
   2.0358130 143.7868700 126.8646030  15.9766010 137.1313890 126.9780700
  15.6887710 137.5926580 127.7658580  16.7718180 136.6711660 127.2464920
  10.1520240 139.7779560 141.9651520   9.8317110 139.0588800 142.5097210
   9.4778600 140.4534630 142.0387580   8.1934410 140.6240010 126.9084670
   8.1844510 141.3569700 126.2929180   7.2732770 140.3771590 127.0011630
   3.7941050 135.8454900 127.6531430   3.1869000 136.5853800 127.6626730
   4.2690400 135.9354260 126.8269630  13.3673840 130.0105720 137.3288320
  13.7354660 129.1900930 137.6567890  12.5072040 130.0707610 137.7443970
  16.7335870 128.9662660 128.1375880  16.1049030 129.0708330 127.4234110
  16.2387790 129.1859440 128.9269760  11.1794010 140.6868250 125.5709860
  11.2805990 140.4832240 124.6411840  10.2795750 140.4326530 125.7757640
   8.7019900 131.2448610 129.5533760   7.9936050 131.7134950 129.9947370
   8.9864380 130.5870620 130.1878950  10.3275830 132.6645310 137.5526290
  10.8261080 133.1391130 138.2178140  10.4698780 131.7408830 137.7596320
  12.7335330 127.9699270 130.9929550  12.6103110 127.9885400 130.0439060
  13.6819890 128.0178210 131.1127950   9.8212120 143.2054570 130.2657530
  10.0753620 143.1675960 129.3436900   8.8724600 143.0787900 130.2585780
   6.9054920 129.5533690 126.9284470   7.7545450 129.9903840 126.8624660
   6.5386190 129.8653950 127.7556530  17.5342690 128.8813270 138.3954680
  17.0316290 129.6218670 138.7348490  18.3499350 129.2697270 138.0791470
  15.8264700 134.1246450 131.8416040  14.8854840 134.1396680 132.0163730
  16.1408770 133.3382410 132.2876340   5.8046340 135.8066050 125.4020000
   6.5709610 135.6947410 125.9645430   5.8821030 135.1104020 124.7496770
   4.4993100 133.2391120 126.0852890   4.5796690 132.2918630 126.1970290
   5.3912850 133.5698000 126.1913550  17.8290280 141.2955300 133.5170300
  17.9537700 142.1186470 133.9894110  18.6955840 141.0846030 133.1694450
   5.3007810 143.3886510 133.1887430   6.0370290 142.8401970 133.4596000
   5.6848730 144.2542520 133.0493420   4.3066090 142.5732580 142.3773010
   5.1078820 142.8944630 142.7908410   3.7917910 142.2128160 143.0992920
   8.4110120 142.5616820 125.0113000   9.2038730 142.8505650 124.5594790
   7.8914470 142.1308990 124.3325480  13.1430720 138.6812450 142.3248420
  12.5368880 138.7044050 141.5844170  12.8384830 137.9495490 142.8615670
  14.5731090 142.4092740 140.9357830  15.5252840 142.3250760 140.8858070
  14.4259310 143.0734450 141.6091620  17.4640290 141.7886950 126.4349740
  17.1781800 141.3752090 125.6203920  17.2659840 142.7174660 126.3150260
   8.9287520 137.7820230 124.8755350   8.8238160 137.1672580 125.6016730
   8.7611740 137.2586120 124.0918360   9.0801840 136.4677030 140.8544580
   8.3147510 137.0362030 140.7699250   9.2617800 136.1753240 139.9612810
  12.1690250 136.8440260 125.4797340  11.6200350 137.2909560 126.1240080
  12.7909510 136.3389510 126.0035010  16.2225190 138.1982360 141.4119600
  16.9634660 138.5358120 140.9087060  15.4597870 138.3674420 140.8589370
   4.0586980 133.2035630 142.2159130   4.0992320 132.9049500 143.1244360
   4.9132480 133.6043240 142.0566650   7.8365370 135.8031180 127.3762640
   8.2581790 135.6371050 128.2194030   7.9616210 134.9931410 126.8817780
   5.9992790 131.7827730 140.1833620   5.4689250 131.2918680 139.5556960
   6.6680860 132.2111930 139.6491550  10.3493010 134.8268790 124.6239740
  10.8698670 134.1117810 124.2580890  10.9961410 135.4654660 124.9240250
  14.8970850 136.2497190 139.9474810  15.3111870 136.4042270 140.7965230
  13.9621850 136.3752410 140.1100590  15.3693020 133.5893350 141.9513960
  15.9513790 132.8345670 141.8634440  15.5454790 134.1200790 141.1745440
   6.4865090 128.7490100 140.2630910   6.3921960 128.1310850 139.5381780
   5.9062480 129.4756390 140.0360820   9.2526530 127.3063340 137.2958300
   8.8043830 127.3287600 136.4503850   8.6191730 126.9082360 137.8928600
   9.6586080 136.2017670 137.9170740  10.0774190 137.0450400 137.7446980
   8.7394710 136.3389710 137.6877520  11.9949980 133.9333850 139.3008580
  12.1146190 133.3374990 140.0403420  12.8543980 133.9703540 138.8809880
  14.3337880 134.4871040 137.8771090  13.8073100 135.0113660 137.2736230
  14.6769220 135.1198430 138.5080820   6.7324270 131.8764410 124.3220800
   6.5313330 131.0131770 124.6834140   6.5616320 131.7897770 123.3842400
   7.5093500 142.5070680 139.0328470   6.9714590 143.2316740 138.7137170
   7.7627460 142.0301020 138.2425810   8.7618750 130.4755200 140.5584400
   9.3518440 130.1671050 141.2462220   7.9438990 130.0034950 140.7144300
  13.5812180 130.0921010 140.7917420  12.8927700 129.4302550 140.7267410
  14.3018200 129.6459280 141.2365880  14.2112580 126.6872640 126.8507680
  14.4914870 125.8440540 127.2067100  13.4378310 126.9195750 127.3646430
   5.5307070 128.9765030 124.3098680   5.8332970 128.9832460 123.4017830
   6.2701660 128.6262890 124.8066340  10.3655710 143.7421890 139.2915120
  10.2914410 144.6457030 139.5987490   9.4634550 143.4233790 139.2637190
   8.7492000 127.9199650 125.2954880   8.4014000 127.2423640 124.7157330
   8.9504770 127.4589160 126.1098270  10.9141040 142.9080400 126.9141480
  11.8091830 143.2465370 126.9360240  10.9458670 142.1859810 126.2865760
   4.5537200 138.2807450 125.1428480   4.9912070 138.8237120 125.7986060
   5.0384930 137.4554400 125.1524820   1.7683000 141.0696480 132.5948740
   2.0986010 140.2017540 132.3627380   2.1974000 141.2755000 133.4253700
   6.3644920 139.4005490 130.2550710   6.0640460 139.2770460 131.1554620
   6.2582410 138.5414080 129.8466440   2.2573210 141.9367070 135.3330370
   1.8204200 142.1167870 136.1654520   2.8250890 142.6941690 135.1912090
  17.8935390 141.4384070 139.6207680  17.2937380 141.4976630 138.8771600
  18.0229290 140.4989050 139.7504530  19.1336840 139.1801890 124.9577390
  18.3029800 139.2478540 125.4284620  19.3108670 140.0706010 124.6544250
  18.5893300 135.9249370 127.4611590  19.3512210 136.4946020 127.5671280
  18.6047670 135.3576570 128.2319900  19.5953270 136.7799470 132.3053520
  19.9662100 135.9966790 131.8989490  20.2355200 137.4688570 132.1270820
  16.5787030 138.1636050 137.7183840  15.7646870 138.5933210 137.9809630
  16.9861230 138.7754460 137.1052890  18.6412470 136.2183740 124.6184110
  18.9161310 137.1262620 124.4903330  18.4523210 136.1546270 125.5546100
  15.0388080 129.2428590 125.9137740  15.4572960 129.0559570 125.0734400
  14.7324140 128.3907640 126.2240670  18.5377810 134.1552730 129.6113540
  18.1621410 133.3880660 129.1794830  17.8080930 134.5375430 130.0988470
   3.1273570 134.8339870 136.2322590   3.4946610 134.7467270 137.1118610
   2.5584390 134.0706420 136.1329450  17.9277430 133.3024250 139.2453060
  17.6963520 133.0737000 138.3451010  18.1881980 134.2223800 139.1997950
   2.6789570 131.7448960 140.1381010   1.7845620 131.7115720 140.4774720
   3.2187120 131.9435750 140.9032260  16.3665500 128.5280680 142.0232760
  17.2435680 128.5364080 142.4066760  16.3786340 127.7911520 141.4125110
  17.8128770 132.3810220 132.9120780  18.3366250 131.8872870 132.2810950
  18.3988190 132.5160580 133.6568350  17.9918490 132.4650090 136.4340330
  17.0421200 132.4313630 136.5485320  18.1731500 133.3750200 136.1990100
   3.8462930 130.7151770 125.5438960   4.5554630 130.2934990 125.0586240
   3.1302870 130.7827000 124.9122310   3.4937090 126.7691100 124.5841610
   4.2165220 127.3100040 124.9022830   3.7661610 126.4954520 123.7083150
  17.3028740 131.6383570 128.8513190  17.7987860 131.4054440 129.6362070
  17.1044810 130.7995410 128.4350830   3.1829280 126.0197290 134.4864230
   3.8305470 125.4694670 134.0459390   3.6031120 126.2740440 135.3080040
  18.7315900 130.2744520 131.3850870  18.6215180 130.1200560 132.3233140
  19.4923490 129.7465460 131.1426280  17.0781620 126.2138650 137.8433870
  17.7153840 126.8272790 138.2093060  17.2256510 126.2499310 136.8983100
  19.6206170 128.1052440 124.6257010  20.5455480 127.9733620 124.4175300
  19.5981960 128.1845260 125.5793460  19.6944660 128.8763100 127.2513720
  18.8996160 128.8108220 127.7806630  19.8987940 129.8113740 127.2399070
  16.6363080 142.9154650 131.2452110  17.2322150 142.5939220 130.5686530
  16.8941230 142.4426470 132.0365380   2.9361280 126.1752960 137.2289550
   2.5876100 126.6316780 137.9947730   2.6048980 125.2810090 137.3111980
   4.5425650 139.3472560 141.3942740   4.4995280 138.9765470 142.2757200
   4.6736660 140.2850130 141.5344560   8.2431680 140.9032150 136.9952460
   8.0023040 141.1706710 136.1082980   9.1834320 141.0737880 137.0503320
  10.4486100 127.3664840 140.7508970  10.3874990 127.9586670 141.5004380
  11.3886480 127.2590800 140.6059230  13.0860660 127.0234900 140.3901260
  13.7001070 127.3414190 139.7282340  13.6310220 126.5383490 141.0097120
  19.5035840 142.9226530 137.7963100  19.0094120 143.3195400 137.0790230
  18.8949130 142.2975740 138.1900380   3.6081920 125.7029160 140.5040320
   4.1564910 125.5217210 139.7406430   3.6737230 124.9123270 141.0396630
   4.3813680 142.2934810 138.5140520   3.7874000 142.1619510 139.2530560
   4.3737520 141.4572950 138.0482620  13.8268700 125.5867040 136.7170550
  12.9528540 125.9202150 136.5143480  13.7179450 125.1140220 137.5422420
  14.7340680 127.7937910 138.1012270  14.4054040 126.9789670 137.7214000
  15.6822980 127.7507720 137.9777960  17.1875290 143.5649950 135.0749840
  16.7278260 144.3165760 134.7007860  16.5587750 142.8456420 135.0164640
   4.0125910 139.6593190 137.4648560   3.2859970 139.0398480 137.3974510
   4.0735060 140.0533800 136.5946640   7.6171010 141.8738190 134.2497970
   8.1336030 141.2625550 133.7246230   8.2668390 142.3766970 134.7408980
  10.3566510 142.7646680 135.0766950  10.6444320 142.5100980 134.1999960
  10.8689730 142.2124040 135.6672520  11.5743520 126.5036880 135.6563460
  10.7915310 126.9782380 135.9360220  11.2806450 125.5991710 135.5476640
  16.1264590 127.2059980 133.7012550  16.5672680 127.1505080 132.8534150
  15.8572180 128.1217990 133.7722730  17.9903160 126.8375220 131.7121370
  17.9291560 125.8936440 131.5652390  18.7695190 126.9455310 132.2574830
   2.9183930 126.8084360 128.1777180   3.6763290 126.9213240 127.6041210
   2.4561100 127.6453560 128.1320610   9.4597740 128.9223630 131.1679490
   8.6472250 128.5480520 130.8275370   9.9639380 128.1668710 131.4700680
  13.9622720 125.5866080 132.4062560  14.5652090 126.1586290 132.8811080
  13.2215710 126.1505520 132.1836460  17.1057320 125.9887640 127.6802840
  17.3007950 126.8871090 127.9470270  16.3187190 125.7574720 128.1735790
   3.9018610 141.6700810 128.1195460   3.3766230 142.0508840 127.4157420
   3.8263190 142.2951580 128.8405170   5.2909080 127.3348410 126.7179150
   5.8201840 126.5478210 126.5887100   5.9237400 128.0139600 126.9514680
   7.4846920 127.0723550 129.7724540   6.8549660 126.3710860 129.9394670
   6.9452060 127.8327680 129.5557700  10.4238870 143.6862780 142.4435150
  11.3506180 143.4507050 142.4871110  10.4089300 144.5134780 141.9621180
  18.6583930 143.2288350 129.4409400  18.8336120 142.5426090 128.7970320
  17.9605500 143.7535400 129.0486070   7.6102480 126.3507530 142.2077030
   7.3286750 126.8541130 141.4437850   7.9922180 125.5529280 141.8419160
   6.5011580 143.6183190 126.9944710   7.2330400 143.3342470 126.4468600
   6.7605250 143.3796470 127.8844090   5.6626370 139.7347920 126.9991040
   5.0335250 140.2033020 127.5476870   5.7774200 138.8897140 127.4337230
  14.2117940 125.7661110 142.7857500  14.0983390 126.0855720 143.6809020
  15.0287680 126.1673620 142.4894780  16.9916430 142.9132640 142.2676190
  17.7841750 142.4181870 142.0602150  17.2849580 143.5922780 142.8751800
  13.1176090 133.7853580 113.1492240  13.0370140 132.8708190 112.8783950
  12.7040510 134.2820650 112.4431950  11.2494130 135.5632600 115.0301510
  10.4736230 135.0833040 115.3200080  11.9007060 134.8838250 114.8557670
   5.2659960 135.8752410 115.9077270   4.4344840 135.6201120 116.3073780
   5.8740940 135.9463180 116.6435190  15.2701560 139.9692790 113.8100640
  14.8083090 139.1980030 114.1387810  16.0827110 139.9958860 114.3153090
   5.2461220 139.9092500 116.1035290   5.5489260 139.0190240 115.9245510
   5.9904810 140.4662720 115.8757540   3.6751910 130.8354300 109.6919660
   2.7868610 131.1770270 109.5899540   3.9593100 130.6354620 108.8000490
  11.4964870 142.2550800 113.4304630  10.8776310 142.7108300 112.8599070
  12.3516650 142.4102260 113.0294330  10.6903120 138.2389790 115.0371670
  10.6211400 137.2979730 114.8760800  11.4522980 138.3291200 115.6094240
   2.8809790 128.8444310 117.3628290   2.7012630 127.9470060 117.6431050
   2.4789870 129.3916180 118.0375240  11.7208290 131.0460170 115.2640600
  12.0973110 130.1732050 115.1514270  11.6227800 131.3818870 114.3731040
   5.8513300 129.4185800 110.7258040   5.9580050 130.3189530 111.0326800
   4.9405660 129.3703770 110.4352690  15.5032410 128.5410610 112.1968940
  16.3242030 128.0507180 112.2394420  15.5366490 129.1308270 112.9500780
   3.4996460 131.3404810 115.9710630   4.1806570 131.6043180 116.5898030
   3.1844510 130.5005680 116.3048640   7.6921030 132.3872170 115.0583220
   8.1999250 132.8853140 115.6988240   8.2234270 131.6107370 114.8822580
  19.7931960 130.5577360 118.7612570  19.0884130 130.9459070 118.2427680
  20.0589880 131.2527650 119.3633500   5.9757130 127.0270730 119.3246640
   5.9775570 127.5443120 118.5192540   5.1461440 126.5500910 119.3016570
  12.3628220 137.1390040 110.8236540  11.7445490 137.6039490 110.2599260
  12.8751470 137.8317520 111.2406050   7.2259980 136.6665910 117.5020140
   6.8929360 137.2934830 118.1441210   7.4026660 137.1927790 116.7221810
  15.7393890 130.4810990 114.9696480  15.0349460 130.7695880 115.5499590
  16.1006050 131.2911100 114.6096040   5.6572460 128.7380690 117.3317090
   5.9989270 129.5822740 117.0370960   4.7188270 128.8864430 117.4482430
   6.4379080 138.6346710 119.3169320   7.0553080 139.3097790 119.0353770
   5.5772200 139.0434690 119.2256820  17.3556670 140.0986120 117.2323960
  16.6720190 140.7685230 117.2240630  17.8950960 140.2966770 116.4668820
  18.8080810 129.9265780 115.3605690  17.8605720 129.9604760 115.4921120
  19.1330800 130.7404730 115.7455050   9.3400350 126.2262960 113.6561680
   9.6475330 125.6709850 112.9397180   8.4101050 126.3607420 113.4734670
  14.8915410 141.9430250 115.9469140  14.9042570 141.5392540 115.0791400
  14.3390630 142.7177540 115.8430570  16.1860830 138.6646470 111.0359310
  16.0757160 137.7220800 111.1608730  16.1829080 139.0262110 111.9222070
  14.2900850 136.8460090 117.2751750  14.7069640 136.6320200 116.4405210
  15.0140670 137.1032880 117.8460370  11.7281110 134.2911790 110.3921800
  10.8010390 134.2249170 110.6210270  11.8805930 135.2291920 110.2777040
  11.7150190 130.5628790 107.3888960  10.7753860 130.7242750 107.4741420
  12.0333450 131.2814470 106.8424950  18.2362950 135.2447310 117.3667990
  17.4081580 135.3140400 116.8918120  18.8313430 135.8301620 116.8983820
  15.7578400 135.8532090 110.8957050  15.1390820 135.5151640 110.2483350
  15.7402850 135.2091850 111.6036240  15.2004960 132.0316630 118.3122860
  14.7876140 132.8570340 118.5662850  14.4680910 131.4461670 118.1199220
   7.3337750 134.8176530 113.1741530   6.9294750 134.1053780 112.6787430
   7.4200870 134.4729770 114.0629570   7.8019450 138.5044090 115.3380740
   7.5047740 137.8989560 114.6588520   8.7519270 138.5421400 115.2270100
   6.0466370 131.5919740 116.9540570   6.5980960 131.7015080 116.1793820
   6.5609880 131.9657340 117.6695800  15.8905060 142.0775960 119.0003840
  15.4135620 142.8848150 118.8076450  15.2066850 141.4254290 119.1530050
   6.8937880 138.2425780 121.9888540   5.9966410 138.4665750 122.2361940
   6.9190750 138.3660720 121.0399940  13.9343100 135.0918900 107.9029800
  14.3736380 134.2541330 107.7567620  14.6471520 135.7248300 107.9893940
   5.7209100 135.1139100 120.5645910   5.5816870 135.9861900 120.9333310
   4.8390460 134.7711910 120.4193850  12.0438480 140.0314970 111.8711040
  12.4834390 140.7739300 111.4566430  11.9825370 140.2741540 112.7950000
   7.5189450 141.0560800 122.7731060   7.4904880 141.4603750 121.9059490
   7.3554420 140.1271160 122.6102660  17.5160240 126.3461710 106.2170840
  17.2032900 126.4388540 107.1169910  18.2772710 126.9242740 106.1668270
   4.0342380 133.7121510 110.6748180   3.9139980 134.4383600 110.0629450
   3.7243270 132.9424420 110.1976090  19.4704270 141.8387900 124.0695230
  19.9463990 142.3170790 124.7484310  20.0911430 141.7705390 123.3440730
   2.9175380 138.5836840 112.8923000   2.5103460 138.7251430 112.0376600
   3.8088390 138.2997000 112.6894210  18.8737520 139.0300750 121.2295240
  19.0000580 138.7912630 120.3112420  18.9158900 138.1985290 121.7017320
  12.7354260 142.7328750 119.7990050  13.2498930 142.6436760 120.6012480
  11.8923340 143.0788450 120.0917960  14.7108660 143.0184090 109.2274050
  14.5509800 142.7287030 110.1255880  14.5455370 142.2424220 108.6919280
   7.1897040 142.7982620 111.0045670   7.0139520 141.8818160 110.7913470
   6.3352780 143.1569910 111.2443470  14.4134790 140.5271650 107.7872050
  13.7199950 140.5248940 107.1274330  15.1557650 140.1030970 107.3566220
  13.9784720 142.1534360 111.8620540  14.4341670 141.3723740 112.1759160
  14.3177240 142.8641180 112.4061720  18.7261530 131.0833210 122.1944980
  18.1105800 131.5912880 121.6660440  18.4057950 130.1831540 122.1370920
   6.5006040 127.0556580 114.0571850   6.0574190 127.8366120 113.7256370
   7.0591030 127.3786470 114.7642790  10.7875850 129.9225100 119.6607170
  10.3255220 130.1308120 120.4727110  10.3853960 129.1084450 119.3577840
  15.7880360 131.1434050 120.7903830  14.9373950 130.8439800 121.1112900
  15.6282150 131.3876060 119.8787650  12.8830070 132.6435800 122.8902620
  13.2083480 131.8099550 122.5504850  13.6710400 133.1664320 123.0380950
   9.6164860 126.6767280 108.9377680   8.9919040 126.6727150 109.6630990
   9.5294980 125.8098240 108.5413650   8.5381940 127.6003910 115.9161450
   8.8354270 128.5066740 115.8353470   9.0867500 127.1122690 115.3021020
   6.2920260 132.1790150 111.7853100   6.0661180 131.9627320 112.6899720
   5.5112790 132.6118610 111.4399070  13.5218020 132.1853520 110.3843750
  12.9226910 132.9089320 110.2007370  14.0697630 132.1230300 109.6020200
   8.7319470 133.0775730 122.4513370   8.6363070 132.1370460 122.3013770
   9.5751450 133.2990800 122.0561440  12.1282890 130.8217060 112.4147030
  12.5212460 131.1389260 111.6015720  12.4899740 129.9428940 112.5291550
   3.8630010 129.4889400 120.6047150   3.4693400 130.3364610 120.8119930
   3.1748410 128.8515770 120.7955790  10.4375060 129.5724370 123.6743890
   9.7473380 129.3796570 124.3089980  11.1807360 129.8559010 124.2068190
  12.7138030 133.4122810 116.5097810  11.9819150 133.9209620 116.8587910
  12.3162370 132.5952790 116.2086590   9.1515420 130.0877010 114.9150300
   9.1551480 129.6466960 114.0654840  10.0466540 130.4094340 115.0222120
   5.0017800 129.9703500 113.8744510   4.6617850 130.4478730 114.6311560
   4.2395120 129.5168620 113.5145610   9.2135570 131.0889090 107.9057060
   9.3348390 131.0475570 108.8542880   8.8284080 131.9513240 107.7503790
  13.1763940 128.8656490 115.9220750  13.1936680 129.3165140 116.7662600
  12.9279520 127.9662130 116.1354190   8.2257070 133.3990230 107.3040360
   7.6573970 132.9508480 106.6776270   8.9346070 133.7583010 106.7705510
  16.6034690 126.2788670 121.7607130  16.9280460 125.5478330 122.2865110
  16.6391200 125.9602310 120.8588120   3.3026250 137.3002250 121.1807090
   2.9181040 136.6595920 121.7790050   3.6138440 138.0038370 121.7501820
   9.4523390 134.1478790 116.6615710   9.8193520 133.6737360 117.4077050
   9.2628450 135.0220360 117.0024050   2.3163880 128.8922480 112.7909180
   2.0310800 128.5278150 113.6287800   2.2542740 128.1602940 112.1772320
   7.2422760 133.1887430 118.9799920   6.9379830 134.0679410 119.2050280
   8.1969220 133.2487220 119.0157360   5.7704550 137.3948420 109.5766770
   4.9966810 136.8546040 109.4165490   6.4999180 136.8755030 109.2384530
  16.5292530 136.3913780 115.3693160  17.2491650 136.8869070 114.9789270
  16.3274350 135.7131670 114.7247030  11.9902470 127.7851740 109.5122550
  11.1767080 127.2864910 109.4367860  11.7964420 128.6249990 109.0958900
  11.9111330 136.4622840 121.2562160  11.8448640 135.5418510 121.0019750
  11.2816470 136.5598280 121.9706800  14.7050860 132.1571390 107.8084710
  15.5930480 132.4688620 107.6336050  14.6755950 131.2843640 107.4165290
   5.8141950 137.0628800 113.2145580   6.3320620 136.2597060 113.1602470
   5.3625970 137.0007940 114.0562410  10.7011450 138.3295080 108.4872880
  11.0427150 139.0737310 107.9916200   9.8724160 138.6426200 108.8497710
   3.2986490 134.0290170 120.1271280   2.9401430 134.6944020 120.7144620
   3.0041050 133.1973720 120.4983900   6.4999610 134.4874410 123.0110830
   6.1999750 134.6331590 122.1138650   7.2710850 133.9279700 122.9184220
  11.8428060 139.2843410 121.0065960  11.8572600 138.3524370 120.7884870
  11.1353160 139.3703170 121.6455730  16.9765130 133.4683230 107.2764570
  16.8928850 133.8997450 106.4261010  17.6959320 133.9281580 107.7091390
  18.0539270 135.9250750 120.3534540  17.3287460 136.5179530 120.1563930
  18.5814730 135.9174290 119.5547910  18.0052380 140.3225490 110.0046700
  17.3628540 139.6681110 110.2790420  17.6183040 140.7280580 109.2287370
  13.5838860 137.6510920 113.8518390  13.9362680 137.0539050 113.1919760
  12.7001190 137.3255150 114.0226640   9.6702140 138.4108610 111.2588800
  10.3573270 138.9577820 111.6396390   8.8834560 138.9549340 111.2938410
   8.9729350 135.4154640 110.8714160   9.4292130 136.2259890 111.0974350
   8.6217560 135.0977780 111.7032650  11.2761960 140.9260980 118.1006460
  11.9204180 141.1320360 118.7779880  11.6391400 140.1649380 117.6477310
   4.8741130 125.7592290 111.3436680   4.7455760 125.7510190 112.2921600
   4.0503150 126.0975380 110.9927690  12.5494040 138.9293330 116.8183910
  13.1916270 138.2286490 116.9316080  13.0743390 139.7091770 116.6380800
  16.3949760 139.2141950 106.5423050  16.1687340 138.4972390 107.1347690
  16.0045960 138.9654390 105.7044800  14.3231660 139.7288230 120.0219970
  14.6587900 140.3154920 120.6997890  13.4032000 139.5980940 120.2517760
   2.1765790 143.2408810 107.3167510   2.5363430 143.8398150 106.6624780
   2.0358130 143.7868700 108.0902540  15.9766010 137.1313890 108.2037210
  15.6887710 137.5926580 108.9915090  16.7718180 136.6711660 108.4721430
  10.1520240 139.7779560 123.1908030   9.8317110 139.0588800 123.7353720
   9.4778600 140.4534630 123.2644090   8.1934410 140.6240010 108.1341180
   8.1844510 141.3569700 107.5185690   7.2732770 140.3771590 108.2268140
   3.7941050 135.8454900 108.8787940   3.1869000 136.5853800 108.8883240
   4.2690400 135.9354260 108.0526140  13.3673840 130.0105720 118.5544830
  13.7354660 129.1900930 118.8824400  12.5072040 130.0707610 118.9700480
  16.7335870 128.9662660 109.3632390  16.1049030 129.0708330 108.6490620
  16.2387790 129.1859440 110.1526270  11.1794010 140.6868250 106.7966370
  11.2805990 140.4832240 105.8668350  10.2795750 140.4326530 107.0014150
   8.7019900 131.2448610 110.7790270   7.9936050 131.7134950 111.2203880
   8.9864380 130.5870620 111.4135460  10.3275830 132.6645310 118.7782800
  10.8261080 133.1391130 119.4434650  10.4698780 131.7408830 118.9852830
  12.7335330 127.9699270 112.2186060  12.6103110 127.9885400 111.2695570
  13.6819890 128.0178210 112.3384460   9.8212120 143.2054570 111.4914040
  10.0753620 143.1675960 110.5693410   8.8724600 143.0787900 111.4842290
   6.9054920 129.5533690 108.1540980   7.7545450 129.9903840 108.0881170
   6.5386190 129.8653950 108.9813040  17.5342690 128.8813270 119.6211190
  17.0316290 129.6218670 119.9605000  18.3499350 129.2697270 119.3047980
  15.8264700 134.1246450 113.0672550  14.8854840 134.1396680 113.2420240
  16.1408770 133.3382410 113.5132850   5.8046340 135.8066050 106.6276510
   6.5709610 135.6947410 107.1901940   5.8821030 135.1104020 105.9753280
   4.4993100 133.2391120 107.3109400   4.5796690 132.2918630 107.4226800
   5.3912850 133.5698000 107.4170060  17.8290280 141.2955300 114.7426810
  17.9537700 142.1186470 115.2150620  18.6955840 141.0846030 114.3950960
   5.3007810 143.3886510 114.4143940   6.0370290 142.8401970 114.6852510
   5.6848730 144.2542520 114.2749930   4.3066090 142.5732580 123.6029520
   5.1078820 142.8944630 124.0164920   3.7917910 142.2128160 124.3249430
   8.4110120 142.5616820 106.2369510   9.2038730 142.8505650 105.7851300
   7.8914470 142.1308990 105.5581990  13.1430720 138.6812450 123.5504930
  12.5368880 138.7044050 122.8100680  12.8384830 137.9495490 124.0872180
  14.5731090 142.4092740 122.1614340  15.5252840 142.3250760 122.1114580
  14.4259310 143.0734450 122.8348130  17.4640290 141.7886950 107.6606250
  17.1781800 141.3752090 106.8460430  17.2659840 142.7174660 107.5406770
   8.9287520 137.7820230 106.1011860   8.8238160 137.1672580 106.8273240
   8.7611740 137.2586120 105.3174870   9.0801840 136.4677030 122.0801090
   8.3147510 137.0362030 121.9955760   9.2617800 136.1753240 121.1869320
  12.1690250 136.8440260 106.7053850  11.6200350 137.2909560 107.3496590
  12.7909510 136.3389510 107.2291520  16.2225190 138.1982360 122.6376110
  16.9634660 138.5358120 122.1343570  15.4597870 138.3674420 122.0845880
   4.0586980 133.2035630 123.4415640   4.0992320 132.9049500 124.3500870
   4.9132480 133.6043240 123.2823160   7.8365370 135.8031180 108.6019150
   8.2581790 135.6371050 109.4450540   7.9616210 134.9931410 108.1074290
   5.9992790 131.7827730 121.4090130   5.4689250 131.2918680 120.7813470
   6.6680860 132.2111930 120.8748060  10.3493010 134.8268790 105.8496250
  10.8698670 134.1117810 105.4837400  10.9961410 135.4654660 106.1496760
  14.8970850 136.2497190 121.1731320  15.3111870 136.4042270 122.0221740
  13.9621850 136.3752410 121.3357100  15.3693020 133.5893350 123.1770470
  15.9513790 132.8345670 123.0890950  15.5454790 134.1200790 122.4001950
   6.4865090 128.7490100 121.4887420   6.3921960 128.1310850 120.7638290
   5.9062480 129.4756390 121.2617330   9.2526530 127.3063340 118.5214810
   8.8043830 127.3287600 117.6760360   8.6191730 126.9082360 119.1185110
   9.6586080 136.2017670 119.1427250  10.0774190 137.0450400 118.9703490
   8.7394710 136.3389710 118.9134030  11.9949980 133.9333850 120.5265090
  12.1146190 133.3374990 121.2659930  12.8543980 133.9703540 120.1066390
  14.3337880 134.4871040 119.1027600  13.8073100 135.0113660 118.4992740
  14.6769220 135.1198430 119.7337330   6.7324270 131.8764410 105.5477310
   6.5313330 131.0131770 105.9090650   6.5616320 131.7897770 104.6098910
   7.5093500 142.5070680 120.2584980   6.9714590 143.2316740 119.9393680
   7.7627460 142.0301020 119.4682320   8.7618750 130.4755200 121.7840910
   9.3518440 130.1671050 122.4718730   7.9438990 130.0034950 121.9400810
  13.5812180 130.0921010 122.0173930  12.8927700 129.4302550 121.9523920
  14.3018200 129.6459280 122.4622390  14.2112580 126.6872640 108.0764190
  14.4914870 125.8440540 108.4323610  13.4378310 126.9195750 108.5902940
   5.5307070 128.9765030 105.5355190   5.8332970 128.9832460 104.6274340
   6.2701660 128.6262890 106.0322850  10.3655710 143.7421890 120.5171630
  10.2914410 144.6457030 120.8244000   9.4634550 143.4233790 120.4893700
   8.7492000 127.9199650 106.5211390   8.4014000 127.2423640 105.9413840
   8.9504770 127.4589160 107.3354780  10.9141040 142.9080400 108.1397990
  11.8091830 143.2465370 108.1616750  10.9458670 142.1859810 107.5122270
   4.5537200 138.2807450 106.3684990   4.9912070 138.8237120 107.0242570
   5.0384930 137.4554400 106.3781330   1.7683000 141.0696480 113.8205250
   2.0986010 140.2017540 113.5883890   2.1974000 141.2755000 114.6510210
   6.3644920 139.4005490 111.4807220   6.0640460 139.2770460 112.3811130
   6.2582410 138.5414080 111.0722950   2.2573210 141.9367070 116.5586880
   1.8204200 142.1167870 117.3911030   2.8250890 142.6941690 116.4168600
  17.8935390 141.4384070 120.8464190  17.2937380 141.4976630 120.1028110
  18.0229290 140.4989050 120.9761040  19.1336840 139.1801890 106.1833900
  18.3029800 139.2478540 106.6541130  19.3108670 140.0706010 105.8800760
  18.5893300 135.9249370 108.6868100  19.3512210 136.4946020 108.7927790
  18.6047670 135.3576570 109.4576410  19.5953270 136.7799470 113.5310030
  19.9662100 135.9966790 113.1246000  20.2355200 137.4688570 113.3527330
  16.5787030 138.1636050 118.9440350  15.7646870 138.5933210 119.2066140
  16.9861230 138.7754460 118.3309400  18.6412470 136.2183740 105.8440620
  18.9161310 137.1262620 105.7159840  18.4523210 136.1546270 106.7802610
  15.0388080 129.2428590 107.1394250  15.4572960 129.0559570 106.2990910
  14.7324140 128.3907640 107.4497180  18.5377810 134.1552730 110.8370050
  18.1621410 133.3880660 110.4051340  17.8080930 134.5375430 111.3244980
   3.1273570 134.8339870 117.4579100   3.4946610 134.7467270 118.3375120
   2.5584390 134.0706420 117.3585960  17.9277430 133.3024250 120.4709570
  17.6963520 133.0737000 119.5707520  18.1881980 134.2223800 120.4254460
   2.6789570 131.7448960 121.3637520   1.7845620 131.7115720 121.7031230
   3.2187120 131.9435750 122.1288770  16.3665500 128.5280680 123.2489270
  17.2435680 128.5364080 123.6323270  16.3786340 127.7911520 122.6381620
  17.8128770 132.3810220 114.1377290  18.3366250 131.8872870 113.5067460
  18.3988190 132.5160580 114.8824860  17.9918490 132.4650090 117.6596840
  17.0421200 132.4313630 117.7741830  18.1731500 133.3750200 117.4246610
   3.8462930 130.7151770 106.7695470   4.5554630 130.2934990 106.2842750
   3.1302870 130.7827000 106.1378820   3.4937090 126.7691100 105.8098120
   4.2165220 127.3100040 106.1279340   3.7661610 126.4954520 104.9339660
  17.3028740 131.6383570 110.0769700  17.7987860 131.4054440 110.8618580
  17.1044810 130.7995410 109.6607340   3.1829280 126.0197290 115.7120740
   3.8305470 125.4694670 115.2715900   3.6031120 126.2740440 116.5336550
  18.7315900 130.2744520 112.6107380  18.6215180 130.1200560 113.5489650
  19.4923490 129.7465460 112.3682790  17.0781620 126.2138650 119.0690380
  17.7153840 126.8272790 119.4349570  17.2256510 126.2499310 118.1239610
  19.6206170 128.1052440 105.8513520  20.5455480 127.9733620 105.6431810
  19.5981960 128.1845260 106.8049970  19.6944660 128.8763100 108.4770230
  18.8996160 128.8108220 109.0063140  19.8987940 129.8113740 108.4655580
  16.6363080 142.9154650 112.4708620  17.2322150 142.5939220 111.7943040
  16.8941230 142.4426470 113.2621890   2.9361280 126.1752960 118.4546060
   2.5876100 126.6316780 119.2204240   2.6048980 125.2810090 118.5368490
   4.5425650 139.3472560 122.6199250   4.4995280 138.9765470 123.5013710
   4.6736660 140.2850130 122.7601070   8.2431680 140.9032150 118.2208970
   8.0023040 141.1706710 117.3339490   9.1834320 141.0737880 118.2759830
  10.4486100 127.3664840 121.9765480  10.3874990 127.9586670 122.7260890
  11.3886480 127.2590800 121.8315740  13.0860660 127.0234900 121.6157770
  13.7001070 127.3414190 120.9538850  13.6310220 126.5383490 122.2353630
  19.5035840 142.9226530 119.0219610  19.0094120 143.3195400 118.3046740
  18.8949130 142.2975740 119.4156890   3.6081920 125.7029160 121.7296830
   4.1564910 125.5217210 120.9662940   3.6737230 124.9123270 122.2653140
   4.3813680 142.2934810 119.7397030   3.7874000 142.1619510 120.4787070
   4.3737520 141.4572950 119.2739130  13.8268700 125.5867040 117.9427060
  12.9528540 125.9202150 117.7399990  13.7179450 125.1140220 118.7678930
  14.7340680 127.7937910 119.3268780  14.4054040 126.9789670 118.9470510
  15.6822980 127.7507720 119.2034470  17.1875290 143.5649950 116.3006350
  16.7278260 144.3165760 115.9264370  16.5587750 142.8456420 116.2421150
   4.0125910 139.6593190 118.6905070   3.2859970 139.0398480 118.6231020
   4.0735060 140.0533800 117.8203150   7.6171010 141.8738190 115.4754480
   8.1336030 141.2625550 114.9502740   8.2668390 142.3766970 115.9665490
  10.3566510 142.7646680 116.3023460  10.6444320 142.5100980 115.4256470
  10.8689730 142.2124040 116.8929030  11.5743520 126.5036880 116.8819970
  10.7915310 126.9782380 117.1616730  11.2806450 125.5991710 116.7733150
  16.1264590 127.2059980 114.9269060  16.5672680 127.1505080 114.0790660
  15.8572180 128.1217990 114.9979240  17.9903160 126.8375220 112.9377880
  17.9291560 125.8936440 112.7908900  18.7695190 126.9455310 113.4831340
   2.9183930 126.8084360 109.4033690   3.6763290 126.9213240 108.8297720
   2.4561100 127.6453560 109.3577120   9.4597740 128.9223630 112.3936000
   8.6472250 128.5480520 112.0531880   9.9639380 128.1668710 112.6957190
  13.9622720 125.5866080 113.6319070  14.5652090 126.1586290 114.1067590
  13.2215710 126.1505520 113.4092970  17.1057320 125.9887640 108.9059350
  17.3007950 126.8871090 109.1726780  16.3187190 125.7574720 109.3992300
   3.9018610 141.6700810 109.3451970   3.3766230 142.0508840 108.6413930
   3.8263190 142.2951580 110.0661680   5.2909080 127.3348410 107.9435660
   5.8201840 126.5478210 107.8143610   5.9237400 128.0139600 108.1771190
   7.4846920 127.0723550 110.9981050   6.8549660 126.3710860 111.1651180
   6.9452060 127.8327680 110.7814210  10.4238870 143.6862780 123.6691660
  11.3506180 143.4507050 123.7127620  10.4089300 144.5134780 123.1877690
  18.6583930 143.2288350 110.6665910  18.8336120 142.5426090 110.0226830
  17.9605500 143.7535400 110.2742580   7.6102480 126.3507530 123.4333540
   7.3286750 126.8541130 122.6694360   7.9922180 125.5529280 123.0675670
   6.5011580 143.6183190 108.2201220   7.2330400 143.3342470 107.6725110
   6.7605250 143.3796470 109.1100600   5.6626370 139.7347920 108.2247550
   5.0335250 140.2033020 108.7733380   5.7774200 138.8897140 108.6593740
  14.2117940 125.7661110 124.0114010  14.0983390 126.0855720 124.9065530
  15.0287680 126.1673620 123.7151290  16.9916430 142.9132640 123.4932700
  17.7841750 142.4181870 123.2858660  17.2849580 143.5922780 124.1008310
  13.1176090 133.7853580  94.3748750  13.0370140 132.8708190  94.1040460
  12.7040510 134.2820650  93.6688460  11.2494130 135.5632600  96.2558020
  10.4736230 135.0833040  96.5456590  11.9007060 134.8838250  96.0814180
   5.2659960 135.8752410  97.1333780   4.4344840 135.6201120  97.5330290
   5.8740940 135.9463180  97.8691700  15.2701560 139.9692790  95.0357150
  14.8083090 139.1980030  95.3644320  16.0827110 139.9958860  95.5409600
   5.2461220 139.9092500  97.3291800   5.5489260 139.0190240  97.1502020
   5.9904810 140.4662720  97.1014050   3.6751910 130.8354300  90.9176170
   2.7868610 131.1770270  90.8156050   3.9593100 130.6354620  90.0257000
  11.4964870 142.2550800  94.6561140  10.8776310 142.7108300  94.0855580
  12.3516650 142.4102260  94.2550840  10.6903120 138.2389790  96.2628180
  10.6211400 137.2979730  96.1017310  11.4522980 138.3291200  96.8350750
   2.8809790 128.8444310  98.5884800   2.7012630 127.9470060  98.8687560
   2.4789870 129.3916180  99.2631750  11.7208290 131.0460170  96.4897110
  12.0973110 130.1732050  96.3770780  11.6227800 131.3818870  95.5987550
   5.8513300 129.4185800  91.9514550   5.9580050 130.3189530  92.2583310
   4.9405660 129.3703770  91.6609200  15.5032410 128.5410610  93.4225450
  16.3242030 128.0507180  93.4650930  15.5366490 129.1308270  94.1757290
   3.4996460 131.3404810  97.1967140   4.1806570 131.6043180  97.8154540
   3.1844510 130.5005680  97.5305150   7.6921030 132.3872170  96.2839730
   8.1999250 132.8853140  96.9244750   8.2234270 131.6107370  96.1079090
  19.7931960 130.5577360  99.9869080  19.0884130 130.9459070  99.4684190
  20.0589880 131.2527650 100.5890010   5.9757130 127.0270730 100.5503150
   5.9775570 127.5443120  99.7449050   5.1461440 126.5500910 100.5273080
  12.3628220 137.1390040  92.0493050  11.7445490 137.6039490  91.4855770
  12.8751470 137.8317520  92.4662560   7.2259980 136.6665910  98.7276650
   6.8929360 137.2934830  99.3697720   7.4026660 137.1927790  97.9478320
  15.7393890 130.4810990  96.1952990  15.0349460 130.7695880  96.7756100
  16.1006050 131.2911100  95.8352550   5.6572460 128.7380690  98.5573600
   5.9989270 129.5822740  98.2627470   4.7188270 128.8864430  98.6738940
   6.4379080 138.6346710 100.5425830   7.0553080 139.3097790 100.2610280
   5.5772200 139.0434690 100.4513330  17.3556670 140.0986120  98.4580470
  16.6720190 140.7685230  98.4497140  17.8950960 140.2966770  97.6925330
  18.8080810 129.9265780  96.5862200  17.8605720 129.9604760  96.7177630
  19.1330800 130.7404730  96.9711560   9.3400350 126.2262960  94.8818190
   9.6475330 125.6709850  94.1653690   8.4101050 126.3607420  94.6991180
  14.8915410 141.9430250  97.1725650  14.9042570 141.5392540  96.3047910
  14.3390630 142.7177540  97.0687080  16.1860830 138.6646470  92.2615820
  16.0757160 137.7220800  92.3865240  16.1829080 139.0262110  93.1478580
  14.2900850 136.8460090  98.5008260  14.7069640 136.6320200  97.6661720
  15.0140670 137.1032880  99.0716880  11.7281110 134.2911790  91.6178310
  10.8010390 134.2249170  91.8466780  11.8805930 135.2291920  91.5033550
  11.7150190 130.5628790  88.6145470  10.7753860 130.7242750  88.6997930
  12.0333450 131.2814470  88.0681460  18.2362950 135.2447310  98.5924500
  17.4081580 135.3140400  98.1174630  18.8313430 135.8301620  98.1240330
  15.7578400 135.8532090  92.1213560  15.1390820 135.5151640  91.4739860
  15.7402850 135.2091850  92.8292750  15.2004960 132.0316630  99.5379370
  14.7876140 132.8570340  99.7919360  14.4680910 131.4461670  99.3455730
   7.3337750 134.8176530  94.3998040   6.9294750 134.1053780  93.9043940
   7.4200870 134.4729770  95.2886080   7.8019450 138.5044090  96.5637250
   7.5047740 137.8989560  95.8845030   8.7519270 138.5421400  96.4526610
   6.0466370 131.5919740  98.1797080   6.5980960 131.7015080  97.4050330
   6.5609880 131.9657340  98.8952310  15.8905060 142.0775960 100.2260350
  15.4135620 142.8848150 100.0332960  15.2066850 141.4254290 100.3786560
   6.8937880 138.2425780 103.2145050   5.9966410 138.4665750 103.4618450
   6.9190750 138.3660720 102.2656450  13.9343100 135.0918900  89.1286310
  14.3736380 134.2541330  88.9824130  14.6471520 135.7248300  89.2150450
   5.7209100 135.1139100 101.7902420   5.5816870 135.9861900 102.1589820
   4.8390460 134.7711910 101.6450360  12.0438480 140.0314970  93.0967550
  12.4834390 140.7739300  92.6822940  11.9825370 140.2741540  94.0206510
   7.5189450 141.0560800 103.9987570   7.4904880 141.4603750 103.1316000
   7.3554420 140.1271160 103.8359170  17.5160240 126.3461710  87.4427350
  17.2032900 126.4388540  88.3426420  18.2772710 126.9242740  87.3924780
   4.0342380 133.7121510  91.9004690   3.9139980 134.4383600  91.2885960
   3.7243270 132.9424420  91.4232600  19.4704270 141.8387900 105.2951740
  19.9463990 142.3170790 105.9740820  20.0911430 141.7705390 104.5697240
   2.9175380 138.5836840  94.1179510   2.5103460 138.7251430  93.2633110
   3.8088390 138.2997000  93.9150720  18.8737520 139.0300750 102.4551750
  19.0000580 138.7912630 101.5368930  18.9158900 138.1985290 102.9273830
  12.7354260 142.7328750 101.0246560  13.2498930 142.6436760 101.8268990
  11.8923340 143.0788450 101.3174470  14.7108660 143.0184090  90.4530560
  14.5509800 142.7287030  91.3512390  14.5455370 142.2424220  89.9175790
   7.1897040 142.7982620  92.2302180   7.0139520 141.8818160  92.0169980
   6.3352780 143.1569910  92.4699980  14.4134790 140.5271650  89.0128560
  13.7199950 140.5248940  88.3530840  15.1557650 140.1030970  88.5822730
  13.9784720 142.1534360  93.0877050  14.4341670 141.3723740  93.4015670
  14.3177240 142.8641180  93.6318230  18.7261530 131.0833210 103.4201490
  18.1105800 131.5912880 102.8916950  18.4057950 130.1831540 103.3627430
   6.5006040 127.0556580  95.2828360   6.0574190 127.8366120  94.9512880
   7.0591030 127.3786470  95.9899300  10.7875850 129.9225100 100.8863680
  10.3255220 130.1308120 101.6983620  10.3853960 129.1084450 100.5834350
  15.7880360 131.1434050 102.0160340  14.9373950 130.8439800 102.3369410
  15.6282150 131.3876060 101.1044160  12.8830070 132.6435800 104.1159130
  13.2083480 131.8099550 103.7761360  13.6710400 133.1664320 104.2637460
   9.6164860 126.6767280  90.1634190   8.9919040 126.6727150  90.8887500
   9.5294980 125.8098240  89.7670160   8.5381940 127.6003910  97.1417960
   8.8354270 128.5066740  97.0609980   9.0867500 127.1122690  96.5277530
   6.2920260 132.1790150  93.0109610   6.0661180 131.9627320  93.9156230
   5.5112790 132.6118610  92.6655580  13.5218020 132.1853520  91.6100260
  12.9226910 132.9089320  91.4263880  14.0697630 132.1230300  90.8276710
   8.7319470 133.0775730 103.6769880   8.6363070 132.1370460 103.5270280
   9.5751450 133.2990800 103.2817950  12.1282890 130.8217060  93.6403540
  12.5212460 131.1389260  92.8272230  12.4899740 129.9428940  93.7548060
   3.8630010 129.4889400 101.8303660   3.4693400 130.3364610 102.0376440
   3.1748410 128.8515770 102.0212300  10.4375060 129.5724370 104.9000400
   9.7473380 129.3796570 105.5346490  11.1807360 129.8559010 105.4324700
  12.7138030 133.4122810  97.7354320  11.9819150 133.9209620  98.0844420
  12.3162370 132.5952790  97.4343100   9.1515420 130.0877010  96.1406810
   9.1551480 129.6466960  95.2911350  10.0466540 130.4094340  96.2478630
   5.0017800 129.9703500  95.1001020   4.6617850 130.4478730  95.8568070
   4.2395120 129.5168620  94.7402120   9.2135570 131.0889090  89.1313570
   9.3348390 131.0475570  90.0799390   8.8284080 131.9513240  88.9760300
  13.1763940 128.8656490  97.1477260  13.1936680 129.3165140  97.9919110
  12.9279520 127.9662130  97.3610700   8.2257070 133.3990230  88.5296870
   7.6573970 132.9508480  87.9032780   8.9346070 133.7583010  87.9962020
  16.6034690 126.2788670 102.9863640  16.9280460 125.5478330 103.5121620
  16.6391200 125.9602310 102.0844630   3.3026250 137.3002250 102.4063600
   2.9181040 136.6595920 103.0046560   3.6138440 138.0038370 102.9758330
   9.4523390 134.1478790  97.8872220   9.8193520 133.6737360  98.6333560
   9.2628450 135.0220360  98.2280560   2.3163880 128.8922480  94.0165690
   2.0310800 128.5278150  94.8544310   2.2542740 128.1602940  93.4028830
   7.2422760 133.1887430 100.2056430   6.9379830 134.0679410 100.4306790
   8.1969220 133.2487220 100.2413870   5.7704550 137.3948420  90.8023280
   4.9966810 136.8546040  90.6422000   6.4999180 136.8755030  90.4641040
  16.5292530 136.3913780  96.5949670  17.2491650 136.8869070  96.2045780
  16.3274350 135.7131670  95.9503540  11.9902470 127.7851740  90.7379060
  11.1767080 127.2864910  90.6624370  11.7964420 128.6249990  90.3215410
  11.9111330 136.4622840 102.4818670  11.8448640 135.5418510 102.2276260
  11.2816470 136.5598280 103.1963310  14.7050860 132.1571390  89.0341220
  15.5930480 132.4688620  88.8592560  14.6755950 131.2843640  88.6421800
   5.8141950 137.0628800  94.4402090   6.3320620 136.2597060  94.3858980
   5.3625970 137.0007940  95.2818920  10.7011450 138.3295080  89.7129390
  11.0427150 139.0737310  89.2172710   9.8724160 138.6426200  90.0754220
   3.2986490 134.0290170 101.3527790   2.9401430 134.6944020 101.9401130
   3.0041050 133.1973720 101.7240410   6.4999610 134.4874410 104.2367340
   6.1999750 134.6331590 103.3395160   7.2710850 133.9279700 104.1440730
  11.8428060 139.2843410 102.2322470  11.8572600 138.3524370 102.0141380
  11.1353160 139.3703170 102.8712240  16.9765130 133.4683230  88.5021080
  16.8928850 133.8997450  87.6517520  17.6959320 133.9281580  88.9347900
  18.0539270 135.9250750 101.5791050  17.3287460 136.5179530 101.3820440
  18.5814730 135.9174290 100.7804420  18.0052380 140.3225490  91.2303210
  17.3628540 139.6681110  91.5046930  17.6183040 140.7280580  90.4543880
  13.5838860 137.6510920  95.0774900  13.9362680 137.0539050  94.4176270
  12.7001190 137.3255150  95.2483150   9.6702140 138.4108610  92.4845310
  10.3573270 138.9577820  92.8652900   8.8834560 138.9549340  92.5194920
   8.9729350 135.4154640  92.0970670   9.4292130 136.2259890  92.3230860
   8.6217560 135.0977780  92.9289160  11.2761960 140.9260980  99.3262970
  11.9204180 141.1320360 100.0036390  11.6391400 140.1649380  98.8733820
   4.8741130 125.7592290  92.5693190   4.7455760 125.7510190  93.5178110
   4.0503150 126.0975380  92.2184200  12.5494040 138.9293330  98.0440420
  13.1916270 138.2286490  98.1572590  13.0743390 139.7091770  97.8637310
  16.3949760 139.2141950  87.7679560  16.1687340 138.4972390  88.3604200
  16.0045960 138.9654390  86.9301310  14.3231660 139.7288230 101.2476480
  14.6587900 140.3154920 101.9254400  13.4032000 139.5980940 101.4774270
   2.1765790 143.2408810  88.5424020   2.5363430 143.8398150  87.8881290
   2.0358130 143.7868700  89.3159050  15.9766010 137.1313890  89.4293720
  15.6887710 137.5926580  90.2171600  16.7718180 136.6711660  89.6977940
  10.1520240 139.7779560 104.4164540   9.8317110 139.0588800 104.9610230
   9.4778600 140.4534630 104.4900600   8.1934410 140.6240010  89.3597690
   8.1844510 141.3569700  88.7442200   7.2732770 140.3771590  89.4524650
   3.7941050 135.8454900  90.1044450   3.1869000 136.5853800  90.1139750
   4.2690400 135.9354260  89.2782650  13.3673840 130.0105720  99.7801340
  13.7354660 129.1900930 100.1080910  12.5072040 130.0707610 100.1956990
  16.7335870 128.9662660  90.5888900  16.1049030 129.0708330  89.8747130
  16.2387790 129.1859440  91.3782780  11.1794010 140.6868250  88.0222880
  11.2805990 140.4832240  87.0924860  10.2795750 140.4326530  88.2270660
   8.7019900 131.2448610  92.0046780   7.9936050 131.7134950  92.4460390
   8.9864380 130.5870620  92.6391970  10.3275830 132.6645310 100.0039310
  10.8261080 133.1391130 100.6691160  10.4698780 131.7408830 100.2109340
  12.7335330 127.9699270  93.4442570  12.6103110 127.9885400  92.4952080
  13.6819890 128.0178210  93.5640970   9.8212120 143.2054570  92.7170550
  10.0753620 143.1675960  91.7949920   8.8724600 143.0787900  92.7098800
   6.9054920 129.5533690  89.3797490   7.7545450 129.9903840  89.3137680
   6.5386190 129.8653950  90.2069550  17.5342690 128.8813270 100.8467700
  17.0316290 129.6218670 101.1861510  18.3499350 129.2697270 100.5304490
  15.8264700 134.1246450  94.2929060  14.8854840 134.1396680  94.4676750
  16.1408770 133.3382410  94.7389360   5.8046340 135.8066050  87.8533020
   6.5709610 135.6947410  88.4158450   5.8821030 135.1104020  87.2009790
   4.4993100 133.2391120  88.5365910   4.5796690 132.2918630  88.6483310
   5.3912850 133.5698000  88.6426570  17.8290280 141.2955300  95.9683320
  17.9537700 142.1186470  96.4407130  18.6955840 141.0846030  95.6207470
   5.3007810 143.3886510  95.6400450   6.0370290 142.8401970  95.9109020
   5.6848730 144.2542520  95.5006440   4.3066090 142.5732580 104.8286030
   5.1078820 142.8944630 105.2421430   3.7917910 142.2128160 105.5505940
   8.4110120 142.5616820  87.4626020   9.2038730 142.8505650  87.0107810
   7.8914470 142.1308990  86.7838500  13.1430720 138.6812450 104.7761440
  12.5368880 138.7044050 104.0357190  12.8384830 137.9495490 105.3128690
  14.5731090 142.4092740 103.3870850  15.5252840 142.3250760 103.3371090
  14.4259310 143.0734450 104.0604640  17.4640290 141.7886950  88.8862760
  17.1781800 141.3752090  88.0716940  17.2659840 142.7174660  88.7663280
   8.9287520 137.7820230  87.3268370   8.8238160 137.1672580  88.0529750
   8.7611740 137.2586120  86.5431380   9.0801840 136.4677030 103.3057600
   8.3147510 137.0362030 103.2212270   9.2617800 136.1753240 102.4125830
  12.1690250 136.8440260  87.9310360  11.6200350 137.2909560  88.5753100
  12.7909510 136.3389510  88.4548030  16.2225190 138.1982360 103.8632620
  16.9634660 138.5358120 103.3600080  15.4597870 138.3674420 103.3102390
   4.0586980 133.2035630 104.6672150   4.0992320 132.9049500 105.5757380
   4.9132480 133.6043240 104.5079670   7.8365370 135.8031180  89.8275660
   8.2581790 135.6371050  90.6707050   7.9616210 134.9931410  89.3330800
   5.9992790 131.7827730 102.6346640   5.4689250 131.2918680 102.0069980
   6.6680860 132.2111930 102.1004570  10.3493010 134.8268790  87.0752760
  10.8698670 134.1117810  86.7093910  10.9961410 135.4654660  87.3753270
  14.8970850 136.2497190 102.3987830  15.3111870 136.4042270 103.2478250
  13.9621850 136.3752410 102.5613610  15.3693020 133.5893350 104.4026980
  15.9513790 132.8345670 104.3147460  15.5454790 134.1200790 103.6258460
   6.4865090 128.7490100 102.7143930   6.3921960 128.1310850 101.9894800
   5.9062480 129.4756390 102.4873840   9.2526530 127.3063340  99.7471320
   8.8043830 127.3287600  98.9016870   8.6191730 126.9082360 100.3441620
   9.6586080 136.2017670 100.3683760  10.0774190 137.0450400 100.1960000
   8.7394710 136.3389710 100.1390540  11.9949980 133.9333850 101.7521600
  12.1146190 133.3374990 102.4916440  12.8543980 133.9703540 101.3322900
  14.3337880 134.4871040 100.3284110  13.8073100 135.0113660  99.7249250
  14.6769220 135.1198430 100.9593840   6.7324270 131.8764410  86.7733820
   6.5313330 131.0131770  87.1347160   6.5616320 131.7897770  85.8355420
   7.5093500 142.5070680 101.4841490   6.9714590 143.2316740 101.1650190
   7.7627460 142.0301020 100.6938830   8.7618750 130.4755200 103.0097420
   9.3518440 130.1671050 103.6975240   7.9438990 130.0034950 103.1657320
  13.5812180 130.0921010 103.2430440  12.8927700 129.4302550 103.1780430
  14.3018200 129.6459280 103.6878900  14.2112580 126.6872640  89.3020700
  14.4914870 125.8440540  89.6580120  13.4378310 126.9195750  89.8159450
   5.5307070 128.9765030  86.7611700   5.8332970 128.9832460  85.8530850
   6.2701660 128.6262890  87.2579360  10.3655710 143.7421890 101.7428140
  10.2914410 144.6457030 102.0500510   9.4634550 143.4233790 101.7150210
   8.7492000 127.9199650  87.7467900   8.4014000 127.2423640  87.1670350
   8.9504770 127.4589160  88.5611290  10.9141040 142.9080400  89.3654500
  11.8091830 143.2465370  89.3873260  10.9458670 142.1859810  88.7378780
   4.5537200 138.2807450  87.5941500   4.9912070 138.8237120  88.2499080
   5.0384930 137.4554400  87.6037840   1.7683000 141.0696480  95.0461760
   2.0986010 140.2017540  94.8140400   2.1974000 141.2755000  95.8766720
   6.3644920 139.4005490  92.7063730   6.0640460 139.2770460  93.6067640
   6.2582410 138.5414080  92.2979460   2.2573210 141.9367070  97.7843390
   1.8204200 142.1167870  98.6167540   2.8250890 142.6941690  97.6425110
  17.8935390 141.4384070 102.0720700  17.2937380 141.4976630 101.3284620
  18.0229290 140.4989050 102.2017550  19.1336840 139.1801890  87.4090410
  18.3029800 139.2478540  87.8797640  19.3108670 140.0706010  87.1057270
  18.5893300 135.9249370  89.9124610  19.3512210 136.4946020  90.0184300
  18.6047670 135.3576570  90.6832920  19.5953270 136.7799470  94.7566540
  19.9662100 135.9966790  94.3502510  20.2355200 137.4688570  94.5783840
  16.5787030 138.1636050 100.1696860  15.7646870 138.5933210 100.4322650
  16.9861230 138.7754460  99.5565910  18.6412470 136.2183740  87.0697130
  18.9161310 137.1262620  86.9416350  18.4523210 136.1546270  88.0059120
  15.0388080 129.2428590  88.3650760  15.4572960 129.0559570  87.5247420
  14.7324140 128.3907640  88.6753690  18.5377810 134.1552730  92.0626560
  18.1621410 133.3880660  91.6307850  17.8080930 134.5375430  92.5501490
   3.1273570 134.8339870  98.6835610   3.4946610 134.7467270  99.5631630
   2.5584390 134.0706420  98.5842470  17.9277430 133.3024250 101.6966080
  17.6963520 133.0737000 100.7964030  18.1881980 134.2223800 101.6510970
   2.6789570 131.7448960 102.5894030   1.7845620 131.7115720 102.9287740
   3.2187120 131.9435750 103.3545280  16.3665500 128.5280680 104.4745780
  17.2435680 128.5364080 104.8579780  16.3786340 127.7911520 103.8638130
  17.8128770 132.3810220  95.3633800  18.3366250 131.8872870  94.7323970
  18.3988190 132.5160580  96.1081370  17.9918490 132.4650090  98.8853350
  17.0421200 132.4313630  98.9998340  18.1731500 133.3750200  98.6503120
   3.8462930 130.7151770  87.9951980   4.5554630 130.2934990  87.5099260
   3.1302870 130.7827000  87.3635330   3.4937090 126.7691100  87.0354630
   4.2165220 127.3100040  87.3535850   3.7661610 126.4954520  86.1596170
  17.3028740 131.6383570  91.3026210  17.7987860 131.4054440  92.0875090
  17.1044810 130.7995410  90.8863850   3.1829280 126.0197290  96.9377250
   3.8305470 125.4694670  96.4972410   3.6031120 126.2740440  97.7593060
  18.7315900 130.2744520  93.8363890  18.6215180 130.1200560  94.7746160
  19.4923490 129.7465460  93.5939300  17.0781620 126.2138650 100.2946890
  17.7153840 126.8272790 100.6606080  17.2256510 126.2499310  99.3496120
  19.6206170 128.1052440  87.0770030  20.5455480 127.9733620  86.8688320
  19.5981960 128.1845260  88.0306480  19.6944660 128.8763100  89.7026740
  18.8996160 128.8108220  90.2319650  19.8987940 129.8113740  89.6912090
  16.6363080 142.9154650  93.6965130  17.2322150 142.5939220  93.0199550
  16.8941230 142.4426470  94.4878400   2.9361280 126.1752960  99.6802570
   2.5876100 126.6316780 100.4460750   2.6048980 125.2810090  99.7625000
   4.5425650 139.3472560 103.8455760   4.4995280 138.9765470 104.7270220
   4.6736660 140.2850130 103.9857580   8.2431680 140.9032150  99.4465480
   8.0023040 141.1706710  98.5596000   9.1834320 141.0737880  99.5016340
  10.4486100 127.3664840 103.2021990  10.3874990 127.9586670 103.9517400
  11.3886480 127.2590800 103.0572250  13.0860660 127.0234900 102.8414280
  13.7001070 127.3414190 102.1795360  13.6310220 126.5383490 103.4610140
  19.5035840 142.9226530 100.2476120  19.0094120 143.3195400  99.5303250
  18.8949130 142.2975740 100.6413400   3.6081920 125.7029160 102.9553340
   4.1564910 125.5217210 102.1919450   3.6737230 124.9123270 103.4909650
   4.3813680 142.2934810 100.9653540   3.7874000 142.1619510 101.7043580
   4.3737520 141.4572950 100.4995640  13.8268700 125.5867040  99.1683570
  12.9528540 125.9202150  98.9656500  13.7179450 125.1140220  99.9935440
  14.7340680 127.7937910 100.5525290  14.4054040 126.9789670 100.1727020
  15.6822980 127.7507720 100.4290980  17.1875290 143.5649950  97.5262860
  16.7278260 144.3165760  97.1520880  16.5587750 142.8456420  97.4677660
   4.0125910 139.6593190  99.9161580   3.2859970 139.0398480  99.8487530
   4.0735060 140.0533800  99.0459660   7.6171010 141.8738190  96.7010990
   8.1336030 141.2625550  96.1759250   8.2668390 142.3766970  97.1922000
  10.3566510 142.7646680  97.5279970  10.6444320 142.5100980  96.6512980
  10.8689730 142.2124040  98.1185540  11.5743520 126.5036880  98.1076480
  10.7915310 126.9782380  98.3873240  11.2806450 125.5991710  97.9989660
  16.1264590 127.2059980  96.1525570  16.5672680 127.1505080  95.3047170
  15.8572180 128.1217990  96.2235750  17.9903160 126.8375220  94.1634390
  17.9291560 125.8936440  94.0165410  18.7695190 126.9455310  94.7087850
   2.9183930 126.8084360  90.6290200   3.6763290 126.9213240  90.0554230
   2.4561100 127.6453560  90.5833630   9.4597740 128.9223630  93.6192510
   8.6472250 128.5480520  93.2788390   9.9639380 128.1668710  93.9213700
  13.9622720 125.5866080  94.8575580  14.5652090 126.1586290  95.3324100
  13.2215710 126.1505520  94.6349480  17.1057320 125.9887640  90.1315860
  17.3007950 126.8871090  90.3983290  16.3187190 125.7574720  90.6248810
   3.9018610 141.6700810  90.5708480   3.3766230 142.0508840  89.8670440
   3.8263190 142.2951580  91.2918190   5.2909080 127.3348410  89.1692170
   5.8201840 126.5478210  89.0400120   5.9237400 128.0139600  89.4027700
   7.4846920 127.0723550  92.2237560   6.8549660 126.3710860  92.3907690
   6.9452060 127.8327680  92.0070720  10.4238870 143.6862780 104.8948170
  11.3506180 143.4507050 104.9384130  10.4089300 144.5134780 104.4134200
  18.6583930 143.2288350  91.8922420  18.8336120 142.5426090  91.2483340
  17.9605500 143.7535400  91.4999090   7.6102480 126.3507530 104.6590050
   7.3286750 126.8541130 103.8950870   7.9922180 125.5529280 104.2932180
   6.5011580 143.6183190  89.4457730   7.2330400 143.3342470  88.8981620
   6.7605250 143.3796470  90.3357110   5.6626370 139.7347920  89.4504060
   5.0335250 140.2033020  89.9989890   5.7774200 138.8897140  89.8850250
  14.2117940 125.7661110 105.2370520  14.0983390 126.0855720 106.1322040
  15.0287680 126.1673620 104.9407800  16.9916430 142.9132640 104.7189210
  17.7841750 142.4181870 104.5115170  17.2849580 143.5922780 105.3264820
  13.1176090 133.7853580  75.6005260  13.0370140 132.8708190  75.3296970
  12.7040510 134.2820650  74.8944970  11.2494130 135.5632600  77.4814530
  10.4736230 135.0833040  77.7713100  11.9007060 134.8838250  77.3070690
   5.2659960 135.8752410  78.3590290   4.4344840 135.6201120  78.7586800
   5.8740940 135.9463180  79.0948210  15.2701560 139.9692790  76.2613660
  14.8083090 139.1980030  76.5900830  16.0827110 139.9958860  76.7666110
   5.2461220 139.9092500  78.5548310   5.5489260 139.0190240  78.3758530
   5.9904810 140.4662720  78.3270560   3.6751910 130.8354300  72.1432680
   2.7868610 131.1770270  72.0412560   3.9593100 130.6354620  71.2513510
  11.4964870 142.2550800  75.8817650  10.8776310 142.7108300  75.3112090
  12.3516650 142.4102260  75.4807350  10.6903120 138.2389790  77.4884690
  10.6211400 137.2979730  77.3273820  11.4522980 138.3291200  78.0607260
   2.8809790 128.8444310  79.8141310   2.7012630 127.9470060  80.0944070
   2.4789870 129.3916180  80.4888260  11.7208290 131.0460170  77.7153620
  12.0973110 130.1732050  77.6027290  11.6227800 131.3818870  76.8244060
   5.8513300 129.4185800  73.1771060   5.9580050 130.3189530  73.4839820
   4.9405660 129.3703770  72.8865710  15.5032410 128.5410610  74.6481960
  16.3242030 128.0507180  74.6907440  15.5366490 129.1308270  75.4013800
   3.4996460 131.3404810  78.4223650   4.1806570 131.6043180  79.0411050
   3.1844510 130.5005680  78.7561660   7.6921030 132.3872170  77.5096240
   8.1999250 132.8853140  78.1501260   8.2234270 131.6107370  77.3335600
  19.7931960 130.5577360  81.2125590  19.0884130 130.9459070  80.6940700
  20.0589880 131.2527650  81.8146520   5.9757130 127.0270730  81.7759660
   5.9775570 127.5443120  80.9705560   5.1461440 126.5500910  81.7529590
  12.3628220 137.1390040  73.2749560  11.7445490 137.6039490  72.7112280
  12.8751470 137.8317520  73.6919070   7.2259980 136.6665910  79.9533160
   6.8929360 137.2934830  80.5954230   7.4026660 137.1927790  79.1734830
  15.7393890 130.4810990  77.4209500  15.0349460 130.7695880  78.0012610
  16.1006050 131.2911100  77.0609060   5.6572460 128.7380690  79.7830110
   5.9989270 129.5822740  79.4883980   4.7188270 128.8864430  79.8995450
   6.4379080 138.6346710  81.7682340   7.0553080 139.3097790  81.4866790
   5.5772200 139.0434690  81.6769840  17.3556670 140.0986120  79.6836980
  16.6720190 140.7685230  79.6753650  17.8950960 140.2966770  78.9181840
  18.8080810 129.9265780  77.8118710  17.8605720 129.9604760  77.9434140
  19.1330800 130.7404730  78.1968070   9.3400350 126.2262960  76.1074700
   9.6475330 125.6709850  75.3910200   8.4101050 126.3607420  75.9247690
  14.8915410 141.9430250  78.3982160  14.9042570 141.5392540  77.5304420
  14.3390630 142.7177540  78.2943590  16.1860830 138.6646470  73.4872330
  16.0757160 137.7220800  73.6121750  16.1829080 139.0262110  74.3735090
  14.2900850 136.8460090  79.7264770  14.7069640 136.6320200  78.8918230
  15.0140670 137.1032880  80.2973390  11.7281110 134.2911790  72.8434820
  10.8010390 134.2249170  73.0723290  11.8805930 135.2291920  72.7290060
  11.7150190 130.5628790  69.8401980  10.7753860 130.7242750  69.9254440
  12.0333450 131.2814470  69.2937970  18.2362950 135.2447310  79.8181010
  17.4081580 135.3140400  79.3431140  18.8313430 135.8301620  79.3496840
  15.7578400 135.8532090  73.3470070  15.1390820 135.5151640  72.6996370
  15.7402850 135.2091850  74.0549260  15.2004960 132.0316630  80.7635880
  14.7876140 132.8570340  81.0175870  14.4680910 131.4461670  80.5712240
   7.3337750 134.8176530  75.6254550   6.9294750 134.1053780  75.1300450
   7.4200870 134.4729770  76.5142590   7.8019450 138.5044090  77.7893760
   7.5047740 137.8989560  77.1101540   8.7519270 138.5421400  77.6783120
   6.0466370 131.5919740  79.4053590   6.5980960 131.7015080  78.6306840
   6.5609880 131.9657340  80.1208820  15.8905060 142.0775960  81.4516860
  15.4135620 142.8848150  81.2589470  15.2066850 141.4254290  81.6043070
   6.8937880 138.2425780  84.4401560   5.9966410 138.4665750  84.6874960
   6.9190750 138.3660720  83.4912960  13.9343100 135.0918900  70.3542820
  14.3736380 134.2541330  70.2080640  14.6471520 135.7248300  70.4406960
   5.7209100 135.1139100  83.0158930   5.5816870 135.9861900  83.3846330
   4.8390460 134.7711910  82.8706870  12.0438480 140.0314970  74.3224060
  12.4834390 140.7739300  73.9079450  11.9825370 140.2741540  75.2463020
   7.5189450 141.0560800  85.2244080   7.4904880 141.4603750  84.3572510
   7.3554420 140.1271160  85.0615680  17.5160240 126.3461710  68.6683860
  17.2032900 126.4388540  69.5682930  18.2772710 126.9242740  68.6181290
   4.0342380 133.7121510  73.1261200   3.9139980 134.4383600  72.5142470
   3.7243270 132.9424420  72.6489110  19.4704270 141.8387900  86.5208250
  19.9463990 142.3170790  87.1997330  20.0911430 141.7705390  85.7953750
   2.9175380 138.5836840  75.3436020   2.5103460 138.7251430  74.4889620
   3.8088390 138.2997000  75.1407230  18.8737520 139.0300750  83.6808260
  19.0000580 138.7912630  82.7625440  18.9158900 138.1985290  84.1530340
  12.7354260 142.7328750  82.2503070  13.2498930 142.6436760  83.0525500
  11.8923340 143.0788450  82.5430980  14.7108660 143.0184090  71.6787070
  14.5509800 142.7287030  72.5768900  14.5455370 142.2424220  71.1432300
   7.1897040 142.7982620  73.4558690   7.0139520 141.8818160  73.2426490
   6.3352780 143.1569910  73.6956490  14.4134790 140.5271650  70.2385070
  13.7199950 140.5248940  69.5787350  15.1557650 140.1030970  69.8079240
  13.9784720 142.1534360  74.3133560  14.4341670 141.3723740  74.6272180
  14.3177240 142.8641180  74.8574740  18.7261530 131.0833210  84.6458000
  18.1105800 131.5912880  84.1173460  18.4057950 130.1831540  84.5883940
   6.5006040 127.0556580  76.5084870   6.0574190 127.8366120  76.1769390
   7.0591030 127.3786470  77.2155810  10.7875850 129.9225100  82.1120190
  10.3255220 130.1308120  82.9240130  10.3853960 129.1084450  81.8090860
  15.7880360 131.1434050  83.2416850  14.9373950 130.8439800  83.5625920
  15.6282150 131.3876060  82.3300670  12.8830070 132.6435800  85.3415640
  13.2083480 131.8099550  85.0017870  13.6710400 133.1664320  85.4893970
   9.6164860 126.6767280  71.3890700   8.9919040 126.6727150  72.1144010
   9.5294980 125.8098240  70.9926670   8.5381940 127.6003910  78.3674470
   8.8354270 128.5066740  78.2866490   9.0867500 127.1122690  77.7534040
   6.2920260 132.1790150  74.2366120   6.0661180 131.9627320  75.1412740
   5.5112790 132.6118610  73.8912090  13.5218020 132.1853520  72.8356770
  12.9226910 132.9089320  72.6520390  14.0697630 132.1230300  72.0533220
   8.7319470 133.0775730  84.9026390   8.6363070 132.1370460  84.7526790
   9.5751450 133.2990800  84.5074460  12.1282890 130.8217060  74.8660050
  12.5212460 131.1389260  74.0528740  12.4899740 129.9428940  74.9804570
   3.8630010 129.4889400  83.0560170   3.4693400 130.3364610  83.2632950
   3.1748410 128.8515770  83.2468810  10.4375060 129.5724370  86.1256910
   9.7473380 129.3796570  86.7603000  11.1807360 129.8559010  86.6581210
  12.7138030 133.4122810  78.9610830  11.9819150 133.9209620  79.3100930
  12.3162370 132.5952790  78.6599610   9.1515420 130.0877010  77.3663320
   9.1551480 129.6466960  76.5167860  10.0466540 130.4094340  77.4735140
   5.0017800 129.9703500  76.3257530   4.6617850 130.4478730  77.0824580
   4.2395120 129.5168620  75.9658630   9.2135570 131.0889090  70.3570080
   9.3348390 131.0475570  71.3055900   8.8284080 131.9513240  70.2016810
  13.1763940 128.8656490  78.3733770  13.1936680 129.3165140  79.2175620
  12.9279520 127.9662130  78.5867210   8.2257070 133.3990230  69.7553380
   7.6573970 132.9508480  69.1289290   8.9346070 133.7583010  69.2218530
  16.6034690 126.2788670  84.2120150  16.9280460 125.5478330  84.7378130
  16.6391200 125.9602310  83.3101140   3.3026250 137.3002250  83.6320110
   2.9181040 136.6595920  84.2303070   3.6138440 138.0038370  84.2014840
   9.4523390 134.1478790  79.1128730   9.8193520 133.6737360  79.8590070
   9.2628450 135.0220360  79.4537070   2.3163880 128.8922480  75.2422200
   2.0310800 128.5278150  76.0800820   2.2542740 128.1602940  74.6285340
   7.2422760 133.1887430  81.4312940   6.9379830 134.0679410  81.6563300
   8.1969220 133.2487220  81.4670380   5.7704550 137.3948420  72.0279790
   4.9966810 136.8546040  71.8678510   6.4999180 136.8755030  71.6897550
  16.5292530 136.3913780  77.8206180  17.2491650 136.8869070  77.4302290
  16.3274350 135.7131670  77.1760050  11.9902470 127.7851740  71.9635570
  11.1767080 127.2864910  71.8880880  11.7964420 128.6249990  71.5471920
  11.9111330 136.4622840  83.7075180  11.8448640 135.5418510  83.4532770
  11.2816470 136.5598280  84.4219820  14.7050860 132.1571390  70.2597730
  15.5930480 132.4688620  70.0849070  14.6755950 131.2843640  69.8678310
   5.8141950 137.0628800  75.6658600   6.3320620 136.2597060  75.6115490
   5.3625970 137.0007940  76.5075430  10.7011450 138.3295080  70.9385900
  11.0427150 139.0737310  70.4429220   9.8724160 138.6426200  71.3010730
   3.2986490 134.0290170  82.5784300   2.9401430 134.6944020  83.1657640
   3.0041050 133.1973720  82.9496920   6.4999610 134.4874410  85.4623850
   6.1999750 134.6331590  84.5651670   7.2710850 133.9279700  85.3697240
  11.8428060 139.2843410  83.4578980  11.8572600 138.3524370  83.2397890
  11.1353160 139.3703170  84.0968750  16.9765130 133.4683230  69.7277590
  16.8928850 133.8997450  68.8774030  17.6959320 133.9281580  70.1604410
  18.0539270 135.9250750  82.8047560  17.3287460 136.5179530  82.6076950
  18.5814730 135.9174290  82.0060930  18.0052380 140.3225490  72.4559720
  17.3628540 139.6681110  72.7303440  17.6183040 140.7280580  71.6800390
  13.5838860 137.6510920  76.3031410  13.9362680 137.0539050  75.6432780
  12.7001190 137.3255150  76.4739660   9.6702140 138.4108610  73.7101820
  10.3573270 138.9577820  74.0909410   8.8834560 138.9549340  73.7451430
   8.9729350 135.4154640  73.3227180   9.4292130 136.2259890  73.5487370
   8.6217560 135.0977780  74.1545670  11.2761960 140.9260980  80.5519480
  11.9204180 141.1320360  81.2292900  11.6391400 140.1649380  80.0990330
   4.8741130 125.7592290  73.7949700   4.7455760 125.7510190  74.7434620
   4.0503150 126.0975380  73.4440710  12.5494040 138.9293330  79.2696930
  13.1916270 138.2286490  79.3829100  13.0743390 139.7091770  79.0893820
  16.3949760 139.2141950  68.9936070  16.1687340 138.4972390  69.5860710
  16.0045960 138.9654390  68.1557820  14.3231660 139.7288230  82.4732990
  14.6587900 140.3154920  83.1510910  13.4032000 139.5980940  82.7030780
   2.1765790 143.2408810  69.7680530   2.5363430 143.8398150  69.1137800
   2.0358130 143.7868700  70.5415560  15.9766010 137.1313890  70.6550230
  15.6887710 137.5926580  71.4428110  16.7718180 136.6711660  70.9234450
  10.1520240 139.7779560  85.6421050   9.8317110 139.0588800  86.1866740
   9.4778600 140.4534630  85.7157110   8.1934410 140.6240010  70.5854200
   8.1844510 141.3569700  69.9698710   7.2732770 140.3771590  70.6781160
   3.7941050 135.8454900  71.3300960   3.1869000 136.5853800  71.3396260
   4.2690400 135.9354260  70.5039160  13.3673840 130.0105720  81.0057850
  13.7354660 129.1900930  81.3337420  12.5072040 130.0707610  81.4213500
  16.7335870 128.9662660  71.8145410  16.1049030 129.0708330  71.1003640
  16.2387790 129.1859440  72.6039290  11.1794010 140.6868250  69.2479390
  11.2805990 140.4832240  68.3181370  10.2795750 140.4326530  69.4527170
   8.7019900 131.2448610  73.2303290   7.9936050 131.7134950  73.6716900
   8.9864380 130.5870620  73.8648480  10.3275830 132.6645310  81.2295820
  10.8261080 133.1391130  81.8947670  10.4698780 131.7408830  81.4365850
  12.7335330 127.9699270  74.6699080  12.6103110 127.9885400  73.7208590
  13.6819890 128.0178210  74.7897480   9.8212120 143.2054570  73.9427060
  10.0753620 143.1675960  73.0206430   8.8724600 143.0787900  73.9355310
   6.9054920 129.5533690  70.6054000   7.7545450 129.9903840  70.5394190
   6.5386190 129.8653950  71.4326060  17.5342690 128.8813270  82.0724210
  17.0316290 129.6218670  82.4118020  18.3499350 129.2697270  81.7561000
  15.8264700 134.1246450  75.5185570  14.8854840 134.1396680  75.6933260
  16.1408770 133.3382410  75.9645870   5.8046340 135.8066050  69.0789530
   6.5709610 135.6947410  69.6414960   5.8821030 135.1104020  68.4266300
   4.4993100 133.2391120  69.7622420   4.5796690 132.2918630  69.8739820
   5.3912850 133.5698000  69.8683080  17.8290280 141.2955300  77.1939830
  17.9537700 142.1186470  77.6663640  18.6955840 141.0846030  76.8463980
   5.3007810 143.3886510  76.8656960   6.0370290 142.8401970  77.1365530
   5.6848730 144.2542520  76.7262950   4.3066090 142.5732580  86.0542540
   5.1078820 142.8944630  86.4677940   3.7917910 142.2128160  86.7762450
   8.4110120 142.5616820  68.6882530   9.2038730 142.8505650  68.2364320
   7.8914470 142.1308990  68.0095010  13.1430720 138.6812450  86.0017950
  12.5368880 138.7044050  85.2613700  12.8384830 137.9495490  86.5385200
  14.5731090 142.4092740  84.6127360  15.5252840 142.3250760  84.5627600
  14.4259310 143.0734450  85.2861150  17.4640290 141.7886950  70.1119270
  17.1781800 141.3752090  69.2973450  17.2659840 142.7174660  69.9919790
   8.9287520 137.7820230  68.5524880   8.8238160 137.1672580  69.2786260
   8.7611740 137.2586120  67.7687890   9.0801840 136.4677030  84.5314110
   8.3147510 137.0362030  84.4468780   9.2617800 136.1753240  83.6382340
  12.1690250 136.8440260  69.1566870  11.6200350 137.2909560  69.8009610
  12.7909510 136.3389510  69.6804540  16.2225190 138.1982360  85.0889130
  16.9634660 138.5358120  84.5856590  15.4597870 138.3674420  84.5358900
   4.0586980 133.2035630  85.8928660   4.0992320 132.9049500  86.8013890
   4.9132480 133.6043240  85.7336180   7.8365370 135.8031180  71.0532170
   8.2581790 135.6371050  71.8963560   7.9616210 134.9931410  70.5587310
   5.9992790 131.7827730  83.8603150   5.4689250 131.2918680  83.2326490
   6.6680860 132.2111930  83.3261080  10.3493010 134.8268790  68.3009270
  10.8698670 134.1117810  67.9350420  10.9961410 135.4654660  68.6009780
  14.8970850 136.2497190  83.6244340  15.3111870 136.4042270  84.4734760
  13.9621850 136.3752410  83.7870120  15.3693020 133.5893350  85.6283490
  15.9513790 132.8345670  85.5403970  15.5454790 134.1200790  84.8514970
   6.4865090 128.7490100  83.9400440   6.3921960 128.1310850  83.2151310
   5.9062480 129.4756390  83.7130350   9.2526530 127.3063340  80.9727830
   8.8043830 127.3287600  80.1273380   8.6191730 126.9082360  81.5698130
   9.6586080 136.2017670  81.5940270  10.0774190 137.0450400  81.4216510
   8.7394710 136.3389710  81.3647050  11.9949980 133.9333850  82.9778110
  12.1146190 133.3374990  83.7172950  12.8543980 133.9703540  82.5579410
  14.3337880 134.4871040  81.5540620  13.8073100 135.0113660  80.9505760
  14.6769220 135.1198430  82.1850350   6.7324270 131.8764410  67.9990330
   6.5313330 131.0131770  68.3603670   6.5616320 131.7897770  67.0611930
   7.5093500 142.5070680  82.7098000   6.9714590 143.2316740  82.3906700
   7.7627460 142.0301020  81.9195340   8.7618750 130.4755200  84.2353930
   9.3518440 130.1671050  84.9231750   7.9438990 130.0034950  84.3913830
  13.5812180 130.0921010  84.4686950  12.8927700 129.4302550  84.4036940
  14.3018200 129.6459280  84.9135410  14.2112580 126.6872640  70.5277210
  14.4914870 125.8440540  70.8836630  13.4378310 126.9195750  71.0415960
   5.5307070 128.9765030  67.9868210   5.8332970 128.9832460  67.0787360
   6.2701660 128.6262890  68.4835870  10.3655710 143.7421890  82.9684650
  10.2914410 144.6457030  83.2757020   9.4634550 143.4233790  82.9406720
   8.7492000 127.9199650  68.9724410   8.4014000 127.2423640  68.3926860
   8.9504770 127.4589160  69.7867800  10.9141040 142.9080400  70.5911010
  11.8091830 143.2465370  70.6129770  10.9458670 142.1859810  69.9635290
   4.5537200 138.2807450  68.8198010   4.9912070 138.8237120  69.4755590
   5.0384930 137.4554400  68.8294350   1.7683000 141.0696480  76.2718270
   2.0986010 140.2017540  76.0396910   2.1974000 141.2755000  77.1023230
   6.3644920 139.4005490  73.9320240   6.0640460 139.2770460  74.8324150
   6.2582410 138.5414080  73.5235970   2.2573210 141.9367070  79.0099900
   1.8204200 142.1167870  79.8424050   2.8250890 142.6941690  78.8681620
  17.8935390 141.4384070  83.2977210  17.2937380 141.4976630  82.5541130
  18.0229290 140.4989050  83.4274060  19.1336840 139.1801890  68.6346920
  18.3029800 139.2478540  69.1054150  19.3108670 140.0706010  68.3313780
  18.5893300 135.9249370  71.1381120  19.3512210 136.4946020  71.2440810
  18.6047670 135.3576570  71.9089430  19.5953270 136.7799470  75.9823050
  19.9662100 135.9966790  75.5759020  20.2355200 137.4688570  75.8040350
  16.5787030 138.1636050  81.3953370  15.7646870 138.5933210  81.6579160
  16.9861230 138.7754460  80.7822420  18.6412470 136.2183740  68.2953640
  18.9161310 137.1262620  68.1672860  18.4523210 136.1546270  69.2315630
  15.0388080 129.2428590  69.5907270  15.4572960 129.0559570  68.7503930
  14.7324140 128.3907640  69.9010200  18.5377810 134.1552730  73.2883070
  18.1621410 133.3880660  72.8564360  17.8080930 134.5375430  73.7758000
   3.1273570 134.8339870  79.9092120   3.4946610 134.7467270  80.7888140
   2.5584390 134.0706420  79.8098980  17.9277430 133.3024250  82.9222590
  17.6963520 133.0737000  82.0220540  18.1881980 134.2223800  82.8767480
   2.6789570 131.7448960  83.8150540   1.7845620 131.7115720  84.1544250
   3.2187120 131.9435750  84.5801790  16.3665500 128.5280680  85.7002290
  17.2435680 128.5364080  86.0836290  16.3786340 127.7911520  85.0894640
  17.8128770 132.3810220  76.5890310  18.3366250 131.8872870  75.9580480
  18.3988190 132.5160580  77.3337880  17.9918490 132.4650090  80.1109860
  17.0421200 132.4313630  80.2254850  18.1731500 133.3750200  79.8759630
   3.8462930 130.7151770  69.2208490   4.5554630 130.2934990  68.7355770
   3.1302870 130.7827000  68.5891840   3.4937090 126.7691100  68.2611140
   4.2165220 127.3100040  68.5792360   3.7661610 126.4954520  67.3852680
  17.3028740 131.6383570  72.5282720  17.7987860 131.4054440  73.3131600
  17.1044810 130.7995410  72.1120360   3.1829280 126.0197290  78.1633760
   3.8305470 125.4694670  77.7228920   3.6031120 126.2740440  78.9849570
  18.7315900 130.2744520  75.0620400  18.6215180 130.1200560  76.0002670
  19.4923490 129.7465460  74.8195810  17.0781620 126.2138650  81.5203400
  17.7153840 126.8272790  81.8862590  17.2256510 126.2499310  80.5752630
  19.6206170 128.1052440  68.3026540  20.5455480 127.9733620  68.0944830
  19.5981960 128.1845260  69.2562990  19.6944660 128.8763100  70.9283250
  18.8996160 128.8108220  71.4576160  19.8987940 129.8113740  70.9168600
  16.6363080 142.9154650  74.9221640  17.2322150 142.5939220  74.2456060
  16.8941230 142.4426470  75.7134910   2.9361280 126.1752960  80.9059080
   2.5876100 126.6316780  81.6717260   2.6048980 125.2810090  80.9881510
   4.5425650 139.3472560  85.0712270   4.4995280 138.9765470  85.9526730
   4.6736660 140.2850130  85.2114090   8.2431680 140.9032150  80.6721990
   8.0023040 141.1706710  79.7852510   9.1834320 141.0737880  80.7272850
  10.4486100 127.3664840  84.4278500  10.3874990 127.9586670  85.1773910
  11.3886480 127.2590800  84.2828760  13.0860660 127.0234900  84.0670790
  13.7001070 127.3414190  83.4051870  13.6310220 126.5383490  84.6866650
  19.5035840 142.9226530  81.4732630  19.0094120 143.3195400  80.7559760
  18.8949130 142.2975740  81.8669910   3.6081920 125.7029160  84.1809850
   4.1564910 125.5217210  83.4175960   3.6737230 124.9123270  84.7166160
   4.3813680 142.2934810  82.1910050   3.7874000 142.1619510  82.9300090
   4.3737520 141.4572950  81.7252150  13.8268700 125.5867040  80.3940080
  12.9528540 125.9202150  80.1913010  13.7179450 125.1140220  81.2191950
  14.7340680 127.7937910  81.7781800  14.4054040 126.9789670  81.3983530
  15.6822980 127.7507720  81.6547490  17.1875290 143.5649950  78.7519370
  16.7278260 144.3165760  78.3777390  16.5587750 142.8456420  78.6934170
   4.0125910 139.6593190  81.1418090   3.2859970 139.0398480  81.0744040
   4.0735060 140.0533800  80.2716170   7.6171010 141.8738190  77.9267500
   8.1336030 141.2625550  77.4015760   8.2668390 142.3766970  78.4178510
  10.3566510 142.7646680  78.7536480  10.6444320 142.5100980  77.8769490
  10.8689730 142.2124040  79.3442050  11.5743520 126.5036880  79.3332990
  10.7915310 126.9782380  79.6129750  11.2806450 125.5991710  79.2246170
  16.1264590 127.2059980  77.3782080  16.5672680 127.1505080  76.5303680
  15.8572180 128.1217990  77.4492260  17.9903160 126.8375220  75.3890900
  17.9291560 125.8936440  75.2421920  18.7695190 126.9455310  75.9344360
   2.9183930 126.8084360  71.8546710   3.6763290 126.9213240  71.2810740
   2.4561100 127.6453560  71.8090140   9.4597740 128.9223630  74.8449020
   8.6472250 128.5480520  74.5044900   9.9639380 128.1668710  75.1470210
  13.9622720 125.5866080  76.0832090  14.5652090 126.1586290  76.5580610
  13.2215710 126.1505520  75.8605990  17.1057320 125.9887640  71.3572370
  17.3007950 126.8871090  71.6239800  16.3187190 125.7574720  71.8505320
   3.9018610 141.6700810  71.7964990   3.3766230 142.0508840  71.0926950
   3.8263190 142.2951580  72.5174700   5.2909080 127.3348410  70.3948680
   5.8201840 126.5478210  70.2656630   5.9237400 128.0139600  70.6284210
   7.4846920 127.0723550  73.4494070   6.8549660 126.3710860  73.6164200
   6.9452060 127.8327680  73.2327230  10.4238870 143.6862780  86.1204680
  11.3506180 143.4507050  86.1640640  10.4089300 144.5134780  85.6390710
  18.6583930 143.2288350  73.1178930  18.8336120 142.5426090  72.4739850
  17.9605500 143.7535400  72.7255600   7.6102480 126.3507530  85.8846560
   7.3286750 126.8541130  85.1207380   7.9922180 125.5529280  85.5188690
   6.5011580 143.6183190  70.6714240   7.2330400 143.3342470  70.1238130
   6.7605250 143.3796470  71.5613620   5.6626370 139.7347920  70.6760570
   5.0335250 140.2033020  71.2246400   5.7774200 138.8897140  71.1106760
  14.2117940 125.7661110  86.4627030  14.0983390 126.0855720  87.3578550
  15.0287680 126.1673620  86.1664310  16.9916430 142.9132640  85.9445720
  17.7841750 142.4181870  85.7371680  17.2849580 143.5922780  86.5521330
  13.1176090 133.7853580  56.8261770  13.0370140 132.8708190  56.5553480
  12.7040510 134.2820650  56.1201480  11.2494130 135.5632600  58.7071040
  10.4736230 135.0833040  58.9969610  11.9007060 134.8838250  58.5327200
   5.2659960 135.8752410  59.5846800   4.4344840 135.6201120  59.9843310
   5.8740940 135.9463180  60.3204720  15.2701560 139.9692790  57.4870170
  14.8083090 139.1980030  57.8157340  16.0827110 139.9958860  57.9922620
   5.2461220 139.9092500  59.7804820   5.5489260 139.0190240  59.6015040
   5.9904810 140.4662720  59.5527070   3.6751910 130.8354300  53.3689190
   2.7868610 131.1770270  53.2669070   3.9593100 130.6354620  52.4770020
  11.4964870 142.2550800  57.1074160  10.8776310 142.7108300  56.5368600
  12.3516650 142.4102260  56.7063860  10.6903120 138.2389790  58.7141200
  10.6211400 137.2979730  58.5530330  11.4522980 138.3291200  59.2863770
   2.8809790 128.8444310  61.0397820   2.7012630 127.9470060  61.3200580
   2.4789870 129.3916180  61.7144770  11.7208290 131.0460170  58.9410130
  12.0973110 130.1732050  58.8283800  11.6227800 131.3818870  58.0500570
   5.8513300 129.4185800  54.4027570   5.9580050 130.3189530  54.7096330
   4.9405660 129.3703770  54.1122220  15.5032410 128.5410610  55.8738470
  16.3242030 128.0507180  55.9163950  15.5366490 129.1308270  56.6270310
   3.4996460 131.3404810  59.6480160   4.1806570 131.6043180  60.2667560
   3.1844510 130.5005680  59.9818170   7.6921030 132.3872170  58.7352750
   8.1999250 132.8853140  59.3757770   8.2234270 131.6107370  58.5592110
  19.7931960 130.5577360  62.4382100  19.0884130 130.9459070  61.9197210
  20.0589880 131.2527650  63.0403030   5.9757130 127.0270730  63.0016170
   5.9775570 127.5443120  62.1962070   5.1461440 126.5500910  62.9786100
  12.3628220 137.1390040  54.5006070  11.7445490 137.6039490  53.9368790
  12.8751470 137.8317520  54.9175580   7.2259980 136.6665910  61.1789670
   6.8929360 137.2934830  61.8210740   7.4026660 137.1927790  60.3991340
  15.7393890 130.4810990  58.6466010  15.0349460 130.7695880  59.2269120
  16.1006050 131.2911100  58.2865570   5.6572460 128.7380690  61.0086620
   5.9989270 129.5822740  60.7140490   4.7188270 128.8864430  61.1251960
   6.4379080 138.6346710  62.9938850   7.0553080 139.3097790  62.7123300
   5.5772200 139.0434690  62.9026350  17.3556670 140.0986120  60.9093490
  16.6720190 140.7685230  60.9010160  17.8950960 140.2966770  60.1438350
  18.8080810 129.9265780  59.0375220  17.8605720 129.9604760  59.1690650
  19.1330800 130.7404730  59.4224580   9.3400350 126.2262960  57.3331210
   9.6475330 125.6709850  56.6166710   8.4101050 126.3607420  57.1504200
  14.8915410 141.9430250  59.6238670  14.9042570 141.5392540  58.7560930
  14.3390630 142.7177540  59.5200100  16.1860830 138.6646470  54.7128840
  16.0757160 137.7220800  54.8378260  16.1829080 139.0262110  55.5991600
  14.2900850 136.8460090  60.9521280  14.7069640 136.6320200  60.1174740
  15.0140670 137.1032880  61.5229900  11.7281110 134.2911790  54.0691330
  10.8010390 134.2249170  54.2979800  11.8805930 135.2291920  53.9546570
  11.7150190 130.5628790  51.0658490  10.7753860 130.7242750  51.1510950
  12.0333450 131.2814470  50.5194480  18.2362950 135.2447310  61.0437520
  17.4081580 135.3140400  60.5687650  18.8313430 135.8301620  60.5753350
  15.7578400 135.8532090  54.5726580  15.1390820 135.5151640  53.9252880
  15.7402850 135.2091850  55.2805770  15.2004960 132.0316630  61.9892390
  14.7876140 132.8570340  62.2432380  14.4680910 131.4461670  61.7968750
   7.3337750 134.8176530  56.8511060   6.9294750 134.1053780  56.3556960
   7.4200870 134.4729770  57.7399100   7.8019450 138.5044090  59.0150270
   7.5047740 137.8989560  58.3358050   8.7519270 138.5421400  58.9039630
   6.0466370 131.5919740  60.6310100   6.5980960 131.7015080  59.8563350
   6.5609880 131.9657340  61.3465330  15.8905060 142.0775960  62.6773370
  15.4135620 142.8848150  62.4845980  15.2066850 141.4254290  62.8299580
   6.8937880 138.2425780  65.6658070   5.9966410 138.4665750  65.9131470
   6.9190750 138.3660720  64.7169470  13.9343100 135.0918900  51.5799330
  14.3736380 134.2541330  51.4337150  14.6471520 135.7248300  51.6663470
   5.7209100 135.1139100  64.2415440   5.5816870 135.9861900  64.6102840
   4.8390460 134.7711910  64.0963380  12.0438480 140.0314970  55.5480570
  12.4834390 140.7739300  55.1335960  11.9825370 140.2741540  56.4719530
   7.5189450 141.0560800  66.4500590   7.4904880 141.4603750  65.5829020
   7.3554420 140.1271160  66.2872190  17.5160240 126.3461710  49.8940370
  17.2032900 126.4388540  50.7939440  18.2772710 126.9242740  49.8437800
   4.0342380 133.7121510  54.3517710   3.9139980 134.4383600  53.7398980
   3.7243270 132.9424420  53.8745620  19.4704270 141.8387900  67.7464760
  19.9463990 142.3170790  68.4253840  20.0911430 141.7705390  67.0210260
   2.9175380 138.5836840  56.5692530   2.5103460 138.7251430  55.7146130
   3.8088390 138.2997000  56.3663740  18.8737520 139.0300750  64.9064770
  19.0000580 138.7912630  63.9881950  18.9158900 138.1985290  65.3786850
  12.7354260 142.7328750  63.4759580  13.2498930 142.6436760  64.2782010
  11.8923340 143.0788450  63.7687490  14.7108660 143.0184090  52.9043580
  14.5509800 142.7287030  53.8025410  14.5455370 142.2424220  52.3688810
   7.1897040 142.7982620  54.6815200   7.0139520 141.8818160  54.4683000
   6.3352780 143.1569910  54.9213000  14.4134790 140.5271650  51.4641580
  13.7199950 140.5248940  50.8043860  15.1557650 140.1030970  51.0335750
  13.9784720 142.1534360  55.5390070  14.4341670 141.3723740  55.8528690
  14.3177240 142.8641180  56.0831250  18.7261530 131.0833210  65.8714510
  18.1105800 131.5912880  65.3429970  18.4057950 130.1831540  65.8140450
   6.5006040 127.0556580  57.7341380   6.0574190 127.8366120  57.4025900
   7.0591030 127.3786470  58.4412320  10.7875850 129.9225100  63.3376700
  10.3255220 130.1308120  64.1496640  10.3853960 129.1084450  63.0347370
  15.7880360 131.1434050  64.4673360  14.9373950 130.8439800  64.7882430
  15.6282150 131.3876060  63.5557180  12.8830070 132.6435800  66.5672150
  13.2083480 131.8099550  66.2274380  13.6710400 133.1664320  66.7150480
   9.6164860 126.6767280  52.6147210   8.9919040 126.6727150  53.3400520
   9.5294980 125.8098240  52.2183180   8.5381940 127.6003910  59.5930980
   8.8354270 128.5066740  59.5123000   9.0867500 127.1122690  58.9790550
   6.2920260 132.1790150  55.4622630   6.0661180 131.9627320  56.3669250
   5.5112790 132.6118610  55.1168600  13.5218020 132.1853520  54.0613280
  12.9226910 132.9089320  53.8776900  14.0697630 132.1230300  53.2789730
   8.7319470 133.0775730  66.1282900   8.6363070 132.1370460  65.9783300
   9.5751450 133.2990800  65.7330970  12.1282890 130.8217060  56.0916560
  12.5212460 131.1389260  55.2785250  12.4899740 129.9428940  56.2061080
   3.8630010 129.4889400  64.2816680   3.4693400 130.3364610  64.4889460
   3.1748410 128.8515770  64.4725320  10.4375060 129.5724370  67.3513420
   9.7473380 129.3796570  67.9859510  11.1807360 129.8559010  67.8837720
  12.7138030 133.4122810  60.1867340  11.9819150 133.9209620  60.5357440
  12.3162370 132.5952790  59.8856120   9.1515420 130.0877010  58.5919830
   9.1551480 129.6466960  57.7424370  10.0466540 130.4094340  58.6991650
   5.0017800 129.9703500  57.5514040   4.6617850 130.4478730  58.3081090
   4.2395120 129.5168620  57.1915140   9.2135570 131.0889090  51.5826590
   9.3348390 131.0475570  52.5312410   8.8284080 131.9513240  51.4273320
  13.1763940 128.8656490  59.5990280  13.1936680 129.3165140  60.4432130
  12.9279520 127.9662130  59.8123720   8.2257070 133.3990230  50.9809890
   7.6573970 132.9508480  50.3545800   8.9346070 133.7583010  50.4475040
  16.6034690 126.2788670  65.4376660  16.9280460 125.5478330  65.9634640
  16.6391200 125.9602310  64.5357650   3.3026250 137.3002250  64.8576620
   2.9181040 136.6595920  65.4559580   3.6138440 138.0038370  65.4271350
   9.4523390 134.1478790  60.3385240   9.8193520 133.6737360  61.0846580
   9.2628450 135.0220360  60.6793580   2.3163880 128.8922480  56.4678710
   2.0310800 128.5278150  57.3057330   2.2542740 128.1602940  55.8541850
   7.2422760 133.1887430  62.6569450   6.9379830 134.0679410  62.8819810
   8.1969220 133.2487220  62.6926890   5.7704550 137.3948420  53.2536300
   4.9966810 136.8546040  53.0935020   6.4999180 136.8755030  52.9154060
  16.5292530 136.3913780  59.0462690  17.2491650 136.8869070  58.6558800
  16.3274350 135.7131670  58.4016560  11.9902470 127.7851740  53.1892080
  11.1767080 127.2864910  53.1137390  11.7964420 128.6249990  52.7728430
  11.9111330 136.4622840  64.9331690  11.8448640 135.5418510  64.6789280
  11.2816470 136.5598280  65.6476330  14.7050860 132.1571390  51.4854240
  15.5930480 132.4688620  51.3105580  14.6755950 131.2843640  51.0934820
   5.8141950 137.0628800  56.8915110   6.3320620 136.2597060  56.8372000
   5.3625970 137.0007940  57.7331940  10.7011450 138.3295080  52.1642410
  11.0427150 139.0737310  51.6685730   9.8724160 138.6426200  52.5267240
   3.2986490 134.0290170  63.8040810   2.9401430 134.6944020  64.3914150
   3.0041050 133.1973720  64.1753430   6.4999610 134.4874410  66.6880360
   6.1999750 134.6331590  65.7908180   7.2710850 133.9279700  66.5953750
  11.8428060 139.2843410  64.6835490  11.8572600 138.3524370  64.4654400
  11.1353160 139.3703170  65.3225260  16.9765130 133.4683230  50.9534100
  16.8928850 133.8997450  50.1030540  17.6959320 133.9281580  51.3860920
  18.0539270 135.9250750  64.0304070  17.3287460 136.5179530  63.8333460
  18.5814730 135.9174290  63.2317440  18.0052380 140.3225490  53.6816230
  17.3628540 139.6681110  53.9559950  17.6183040 140.7280580  52.9056900
  13.5838860 137.6510920  57.5287920  13.9362680 137.0539050  56.8689290
  12.7001190 137.3255150  57.6996170   9.6702140 138.4108610  54.9358330
  10.3573270 138.9577820  55.3165920   8.8834560 138.9549340  54.9707940
   8.9729350 135.4154640  54.5483690   9.4292130 136.2259890  54.7743880
   8.6217560 135.0977780  55.3802180  11.2761960 140.9260980  61.7775990
  11.9204180 141.1320360  62.4549410  11.6391400 140.1649380  61.3246840
   4.8741130 125.7592290  55.0206210   4.7455760 125.7510190  55.9691130
   4.0503150 126.0975380  54.6697220  12.5494040 138.9293330  60.4953440
  13.1916270 138.2286490  60.6085610  13.0743390 139.7091770  60.3150330
  16.3949760 139.2141950  50.2192580  16.1687340 138.4972390  50.8117220
  16.0045960 138.9654390  49.3814330  14.3231660 139.7288230  63.6989500
  14.6587900 140.3154920  64.3767420  13.4032000 139.5980940  63.9287290
   2.1765790 143.2408810  50.9937040   2.5363430 143.8398150  50.3394310
   2.0358130 143.7868700  51.7672070  15.9766010 137.1313890  51.8806740
  15.6887710 137.5926580  52.6684620  16.7718180 136.6711660  52.1490960
  10.1520240 139.7779560  66.8677560   9.8317110 139.0588800  67.4123250
   9.4778600 140.4534630  66.9413620   8.1934410 140.6240010  51.8110710
   8.1844510 141.3569700  51.1955220   7.2732770 140.3771590  51.9037670
   3.7941050 135.8454900  52.5557470   3.1869000 136.5853800  52.5652770
   4.2690400 135.9354260  51.7295670  13.3673840 130.0105720  62.2314360
  13.7354660 129.1900930  62.5593930  12.5072040 130.0707610  62.6470010
  16.7335870 128.9662660  53.0401920  16.1049030 129.0708330  52.3260150
  16.2387790 129.1859440  53.8295800  11.1794010 140.6868250  50.4735900
  11.2805990 140.4832240  49.5437880  10.2795750 140.4326530  50.6783680
   8.7019900 131.2448610  54.4559800   7.9936050 131.7134950  54.8973410
   8.9864380 130.5870620  55.0904990  10.3275830 132.6645310  62.4552330
  10.8261080 133.1391130  63.1204180  10.4698780 131.7408830  62.6622360
  12.7335330 127.9699270  55.8955590  12.6103110 127.9885400  54.9465100
  13.6819890 128.0178210  56.0153990   9.8212120 143.2054570  55.1683570
  10.0753620 143.1675960  54.2462940   8.8724600 143.0787900  55.1611820
   6.9054920 129.5533690  51.8310510   7.7545450 129.9903840  51.7650700
   6.5386190 129.8653950  52.6582570  17.5342690 128.8813270  63.2980720
  17.0316290 129.6218670  63.6374530  18.3499350 129.2697270  62.9817510
  15.8264700 134.1246450  56.7442080  14.8854840 134.1396680  56.9189770
  16.1408770 133.3382410  57.1902380   5.8046340 135.8066050  50.3046040
   6.5709610 135.6947410  50.8671470   5.8821030 135.1104020  49.6522810
   4.4993100 133.2391120  50.9878930   4.5796690 132.2918630  51.0996330
   5.3912850 133.5698000  51.0939590  17.8290280 141.2955300  58.4196340
  17.9537700 142.1186470  58.8920150  18.6955840 141.0846030  58.0720490
   5.3007810 143.3886510  58.0913470   6.0370290 142.8401970  58.3622040
   5.6848730 144.2542520  57.9519460   4.3066090 142.5732580  67.2799050
   5.1078820 142.8944630  67.6934450   3.7917910 142.2128160  68.0018960
   8.4110120 142.5616820  49.9139040   9.2038730 142.8505650  49.4620830
   7.8914470 142.1308990  49.2351520  13.1430720 138.6812450  67.2274460
  12.5368880 138.7044050  66.4870210  12.8384830 137.9495490  67.7641710
  14.5731090 142.4092740  65.8383870  15.5252840 142.3250760  65.7884110
  14.4259310 143.0734450  66.5117660  17.4640290 141.7886950  51.3375780
  17.1781800 141.3752090  50.5229960  17.2659840 142.7174660  51.2176300
   8.9287520 137.7820230  49.7781390   8.8238160 137.1672580  50.5042770
   8.7611740 137.2586120  48.9944400   9.0801840 136.4677030  65.7570620
   8.3147510 137.0362030  65.6725290   9.2617800 136.1753240  64.8638850
  12.1690250 136.8440260  50.3823380  11.6200350 137.2909560  51.0266120
  12.7909510 136.3389510  50.9061050  16.2225190 138.1982360  66.3145640
  16.9634660 138.5358120  65.8113100  15.4597870 138.3674420  65.7615410
   4.0586980 133.2035630  67.1185170   4.0992320 132.9049500  68.0270400
   4.9132480 133.6043240  66.9592690   7.8365370 135.8031180  52.2788680
   8.2581790 135.6371050  53.1220070   7.9616210 134.9931410  51.7843820
   5.9992790 131.7827730  65.0859660   5.4689250 131.2918680  64.4583000
   6.6680860 132.2111930  64.5517590  10.3493010 134.8268790  49.5265780
  10.8698670 134.1117810  49.1606930  10.9961410 135.4654660  49.8266290
  14.8970850 136.2497190  64.8500850  15.3111870 136.4042270  65.6991270
  13.9621850 136.3752410  65.0126630  15.3693020 133.5893350  66.8540000
  15.9513790 132.8345670  66.7660480  15.5454790 134.1200790  66.0771480
   6.4865090 128.7490100  65.1656950   6.3921960 128.1310850  64.4407820
   5.9062480 129.4756390  64.9386860   9.2526530 127.3063340  62.1984340
   8.8043830 127.3287600  61.3529890   8.6191730 126.9082360  62.7954640
   9.6586080 136.2017670  62.8196780  10.0774190 137.0450400  62.6473020
   8.7394710 136.3389710  62.5903560  11.9949980 133.9333850  64.2034620
  12.1146190 133.3374990  64.9429460  12.8543980 133.9703540  63.7835920
  14.3337880 134.4871040  62.7797130  13.8073100 135.0113660  62.1762270
  14.6769220 135.1198430  63.4106860   6.7324270 131.8764410  49.2246840
   6.5313330 131.0131770  49.5860180   6.5616320 131.7897770  48.2868440
   7.5093500 142.5070680  63.9354510   6.9714590 143.2316740  63.6163210
   7.7627460 142.0301020  63.1451850   8.7618750 130.4755200  65.4610440
   9.3518440 130.1671050  66.1488260   7.9438990 130.0034950  65.6170340
  13.5812180 130.0921010  65.6943460  12.8927700 129.4302550  65.6293450
  14.3018200 129.6459280  66.1391920  14.2112580 126.6872640  51.7533720
  14.4914870 125.8440540  52.1093140  13.4378310 126.9195750  52.2672470
   5.5307070 128.9765030  49.2124720   5.8332970 128.9832460  48.3043870
   6.2701660 128.6262890  49.7092380  10.3655710 143.7421890  64.1941160
  10.2914410 144.6457030  64.5013530   9.4634550 143.4233790  64.1663230
   8.7492000 127.9199650  50.1980920   8.4014000 127.2423640  49.6183370
   8.9504770 127.4589160  51.0124310  10.9141040 142.9080400  51.8167520
  11.8091830 143.2465370  51.8386280  10.9458670 142.1859810  51.1891800
   4.5537200 138.2807450  50.0454520   4.9912070 138.8237120  50.7012100
   5.0384930 137.4554400  50.0550860   1.7683000 141.0696480  57.4974780
   2.0986010 140.2017540  57.2653420   2.1974000 141.2755000  58.3279740
   6.3644920 139.4005490  55.1576750   6.0640460 139.2770460  56.0580660
   6.2582410 138.5414080  54.7492480   2.2573210 141.9367070  60.2356410
   1.8204200 142.1167870  61.0680560   2.8250890 142.6941690  60.0938130
  17.8935390 141.4384070  64.5233720  17.2937380 141.4976630  63.7797640
  18.0229290 140.4989050  64.6530570  19.1336840 139.1801890  49.8603430
  18.3029800 139.2478540  50.3310660  19.3108670 140.0706010  49.5570290
  18.5893300 135.9249370  52.3637630  19.3512210 136.4946020  52.4697320
  18.6047670 135.3576570  53.1345940  19.5953270 136.7799470  57.2079560
  19.9662100 135.9966790  56.8015530  20.2355200 137.4688570  57.0296860
  16.5787030 138.1636050  62.6209880  15.7646870 138.5933210  62.8835670
  16.9861230 138.7754460  62.0078930  18.6412470 136.2183740  49.5210150
  18.9161310 137.1262620  49.3929370  18.4523210 136.1546270  50.4572140
  15.0388080 129.2428590  50.8163780  15.4572960 129.0559570  49.9760440
  14.7324140 128.3907640  51.1266710  18.5377810 134.1552730  54.5139580
  18.1621410 133.3880660  54.0820870  17.8080930 134.5375430  55.0014510
   3.1273570 134.8339870  61.1348630   3.4946610 134.7467270  62.0144650
   2.5584390 134.0706420  61.0355490  17.9277430 133.3024250  64.1479100
  17.6963520 133.0737000  63.2477050  18.1881980 134.2223800  64.1023990
   2.6789570 131.7448960  65.0407050   1.7845620 131.7115720  65.3800760
   3.2187120 131.9435750  65.8058300  16.3665500 128.5280680  66.9258800
  17.2435680 128.5364080  67.3092800  16.3786340 127.7911520  66.3151150
  17.8128770 132.3810220  57.8146820  18.3366250 131.8872870  57.1836990
  18.3988190 132.5160580  58.5594390  17.9918490 132.4650090  61.3366370
  17.0421200 132.4313630  61.4511360  18.1731500 133.3750200  61.1016140
   3.8462930 130.7151770  50.4465000   4.5554630 130.2934990  49.9612280
   3.1302870 130.7827000  49.8148350   3.4937090 126.7691100  49.4867650
   4.2165220 127.3100040  49.8048870   3.7661610 126.4954520  48.6109190
  17.3028740 131.6383570  53.7539230  17.7987860 131.4054440  54.5388110
  17.1044810 130.7995410  53.3376870   3.1829280 126.0197290  59.3890270
   3.8305470 125.4694670  58.9485430   3.6031120 126.2740440  60.2106080
  18.7315900 130.2744520  56.2876910  18.6215180 130.1200560  57.2259180
  19.4923490 129.7465460  56.0452320  17.0781620 126.2138650  62.7459910
  17.7153840 126.8272790  63.1119100  17.2256510 126.2499310  61.8009140
  19.6206170 128.1052440  49.5283050  20.5455480 127.9733620  49.3201340
  19.5981960 128.1845260  50.4819500  19.6944660 128.8763100  52.1539760
  18.8996160 128.8108220  52.6832670  19.8987940 129.8113740  52.1425110
  16.6363080 142.9154650  56.1478150  17.2322150 142.5939220  55.4712570
  16.8941230 142.4426470  56.9391420   2.9361280 126.1752960  62.1315590
   2.5876100 126.6316780  62.8973770   2.6048980 125.2810090  62.2138020
   4.5425650 139.3472560  66.2968780   4.4995280 138.9765470  67.1783240
   4.6736660 140.2850130  66.4370600   8.2431680 140.9032150  61.8978500
   8.0023040 141.1706710  61.0109020   9.1834320 141.0737880  61.9529360
  10.4486100 127.3664840  65.6535010  10.3874990 127.9586670  66.4030420
  11.3886480 127.2590800  65.5085270  13.0860660 127.0234900  65.2927300
  13.7001070 127.3414190  64.6308380  13.6310220 126.5383490  65.9123160
  19.5035840 142.9226530  62.6989140  19.0094120 143.3195400  61.9816270
  18.8949130 142.2975740  63.0926420   3.6081920 125.7029160  65.4066360
   4.1564910 125.5217210  64.6432470   3.6737230 124.9123270  65.9422670
   4.3813680 142.2934810  63.4166560   3.7874000 142.1619510  64.1556600
   4.3737520 141.4572950  62.9508660  13.8268700 125.5867040  61.6196590
  12.9528540 125.9202150  61.4169520  13.7179450 125.1140220  62.4448460
  14.7340680 127.7937910  63.0038310  14.4054040 126.9789670  62.6240040
  15.6822980 127.7507720  62.8804000  17.1875290 143.5649950  59.9775880
  16.7278260 144.3165760  59.6033900  16.5587750 142.8456420  59.9190680
   4.0125910 139.6593190  62.3674600   3.2859970 139.0398480  62.3000550
   4.0735060 140.0533800  61.4972680   7.6171010 141.8738190  59.1524010
   8.1336030 141.2625550  58.6272270   8.2668390 142.3766970  59.6435020
  10.3566510 142.7646680  59.9792990  10.6444320 142.5100980  59.1026000
  10.8689730 142.2124040  60.5698560  11.5743520 126.5036880  60.5589500
  10.7915310 126.9782380  60.8386260  11.2806450 125.5991710  60.4502680
  16.1264590 127.2059980  58.6038590  16.5672680 127.1505080  57.7560190
  15.8572180 128.1217990  58.6748770  17.9903160 126.8375220  56.6147410
  17.9291560 125.8936440  56.4678430  18.7695190 126.9455310  57.1600870
   2.9183930 126.8084360  53.0803220   3.6763290 126.9213240  52.5067250
   2.4561100 127.6453560  53.0346650   9.4597740 128.9223630  56.0705530
   8.6472250 128.5480520  55.7301410   9.9639380 128.1668710  56.3726720
  13.9622720 125.5866080  57.3088600  14.5652090 126.1586290  57.7837120
  13.2215710 126.1505520  57.0862500  17.1057320 125.9887640  52.5828880
  17.3007950 126.8871090  52.8496310  16.3187190 125.7574720  53.0761830
   3.9018610 141.6700810  53.0221500   3.3766230 142.0508840  52.3183460
   3.8263190 142.2951580  53.7431210   5.2909080 127.3348410  51.6205190
   5.8201840 126.5478210  51.4913140   5.9237400 128.0139600  51.8540720
   7.4846920 127.0723550  54.6750580   6.8549660 126.3710860  54.8420710
   6.9452060 127.8327680  54.4583740  10.4238870 143.6862780  67.3461190
  11.3506180 143.4507050  67.3897150  10.4089300 144.5134780  66.8647220
  18.6583930 143.2288350  54.3435440  18.8336120 142.5426090  53.6996360
  17.9605500 143.7535400  53.9512110   7.6102480 126.3507530  67.1103070
   7.3286750 126.8541130  66.3463890   7.9922180 125.5529280  66.7445200
   6.5011580 143.6183190  51.8970750   7.2330400 143.3342470  51.3494640
   6.7605250 143.3796470  52.7870130   5.6626370 139.7347920  51.9017080
   5.0335250 140.2033020  52.4502910   5.7774200 138.8897140  52.3363270
  14.2117940 125.7661110  67.6883540  14.0983390 126.0855720  68.5835060
  15.0287680 126.1673620  67.3920820  16.9916430 142.9132640  67.1702230
  17.7841750 142.4181870  66.9628190  17.2849580 143.5922780  67.7777840
  13.1176090 133.7853580  38.0518280  13.0370140 132.8708190  37.7809990
  12.7040510 134.2820650  37.3457990  11.2494130 135.5632600  39.9327550
  10.4736230 135.0833040  40.2226120  11.9007060 134.8838250  39.7583710
   5.2659960 135.8752410  40.8103310   4.4344840 135.6201120  41.2099820
   5.8740940 135.9463180  41.5461230  15.2701560 139.9692790  38.7126680
  14.8083090 139.1980030  39.0413850  16.0827110 139.9958860  39.2179130
   5.2461220 139.9092500  41.0061330   5.5489260 139.0190240  40.8271550
   5.9904810 140.4662720  40.7783580   3.6751910 130.8354300  34.5945700
   2.7868610 131.1770270  34.4925580   3.9593100 130.6354620  33.7026530
  11.4964870 142.2550800  38.3330670  10.8776310 142.7108300  37.7625110
  12.3516650 142.4102260  37.9320370  10.6903120 138.2389790  39.9397710
  10.6211400 137.2979730  39.7786840  11.4522980 138.3291200  40.5120280
   2.8809790 128.8444310  42.2654330   2.7012630 127.9470060  42.5457090
   2.4789870 129.3916180  42.9401280  11.7208290 131.0460170  40.1666640
  12.0973110 130.1732050  40.0540310  11.6227800 131.3818870  39.2757080
   5.8513300 129.4185800  35.6284080   5.9580050 130.3189530  35.9352840
   4.9405660 129.3703770  35.3378730  15.5032410 128.5410610  37.0994980
  16.3242030 128.0507180  37.1420460  15.5366490 129.1308270  37.8526820
   3.4996460 131.3404810  40.8736670   4.1806570 131.6043180  41.4924070
   3.1844510 130.5005680  41.2074680   7.6921030 132.3872170  39.9609260
   8.1999250 132.8853140  40.6014280   8.2234270 131.6107370  39.7848620
  19.7931960 130.5577360  43.6638610  19.0884130 130.9459070  43.1453720
  20.0589880 131.2527650  44.2659540   5.9757130 127.0270730  44.2272680
   5.9775570 127.5443120  43.4218580   5.1461440 126.5500910  44.2042610
  12.3628220 137.1390040  35.7262580  11.7445490 137.6039490  35.1625300
  12.8751470 137.8317520  36.1432090   7.2259980 136.6665910  42.4046180
   6.8929360 137.2934830  43.0467250   7.4026660 137.1927790  41.6247850
  15.7393890 130.4810990  39.8722520  15.0349460 130.7695880  40.4525630
  16.1006050 131.2911100  39.5122080   5.6572460 128.7380690  42.2343130
   5.9989270 129.5822740  41.9397000   4.7188270 128.8864430  42.3508470
   6.4379080 138.6346710  44.2195360   7.0553080 139.3097790  43.9379810
   5.5772200 139.0434690  44.1282860  17.3556670 140.0986120  42.1350000
  16.6720190 140.7685230  42.1266670  17.8950960 140.2966770  41.3694860
  18.8080810 129.9265780  40.2631730  17.8605720 129.9604760  40.3947160
  19.1330800 130.7404730  40.6481090   9.3400350 126.2262960  38.5587720
   9.6475330 125.6709850  37.8423220   8.4101050 126.3607420  38.3760710
  14.8915410 141.9430250  40.8495180  14.9042570 141.5392540  39.9817440
  14.3390630 142.7177540  40.7456610  16.1860830 138.6646470  35.9385350
  16.0757160 137.7220800  36.0634770  16.1829080 139.0262110  36.8248110
  14.2900850 136.8460090  42.1777790  14.7069640 136.6320200  41.3431250
  15.0140670 137.1032880  42.7486410  11.7281110 134.2911790  35.2947840
  10.8010390 134.2249170  35.5236310  11.8805930 135.2291920  35.1803080
  11.7150190 130.5628790  32.2915000  10.7753860 130.7242750  32.3767460
  12.0333450 131.2814470  31.7450990  18.2362950 135.2447310  42.2694030
  17.4081580 135.3140400  41.7944160  18.8313430 135.8301620  41.8009860
  15.7578400 135.8532090  35.7983090  15.1390820 135.5151640  35.1509390
  15.7402850 135.2091850  36.5062280  15.2004960 132.0316630  43.2148900
  14.7876140 132.8570340  43.4688890  14.4680910 131.4461670  43.0225260
   7.3337750 134.8176530  38.0767570   6.9294750 134.1053780  37.5813470
   7.4200870 134.4729770  38.9655610   7.8019450 138.5044090  40.2406780
   7.5047740 137.8989560  39.5614560   8.7519270 138.5421400  40.1296140
   6.0466370 131.5919740  41.8566610   6.5980960 131.7015080  41.0819860
   6.5609880 131.9657340  42.5721840  15.8905060 142.0775960  43.9029880
  15.4135620 142.8848150  43.7102490  15.2066850 141.4254290  44.0556090
   6.8937880 138.2425780  46.8914580   5.9966410 138.4665750  47.1387980
   6.9190750 138.3660720  45.9425980  13.9343100 135.0918900  32.8055840
  14.3736380 134.2541330  32.6593660  14.6471520 135.7248300  32.8919980
   5.7209100 135.1139100  45.4671950   5.5816870 135.9861900  45.8359350
   4.8390460 134.7711910  45.3219890  12.0438480 140.0314970  36.7737080
  12.4834390 140.7739300  36.3592470  11.9825370 140.2741540  37.6976040
   7.5189450 141.0560800  47.6757100   7.4904880 141.4603750  46.8085530
   7.3554420 140.1271160  47.5128700  17.5160240 126.3461710  31.1196880
  17.2032900 126.4388540  32.0195950  18.2772710 126.9242740  31.0694310
   4.0342380 133.7121510  35.5774220   3.9139980 134.4383600  34.9655490
   3.7243270 132.9424420  35.1002130  19.4704270 141.8387900  48.9721270
  19.9463990 142.3170790  49.6510350  20.0911430 141.7705390  48.2466770
   2.9175380 138.5836840  37.7949040   2.5103460 138.7251430  36.9402640
   3.8088390 138.2997000  37.5920250  18.8737520 139.0300750  46.1321280
  19.0000580 138.7912630  45.2138460  18.9158900 138.1985290  46.6043360
  12.7354260 142.7328750  44.7016090  13.2498930 142.6436760  45.5038520
  11.8923340 143.0788450  44.9944000  14.7108660 143.0184090  34.1300090
  14.5509800 142.7287030  35.0281920  14.5455370 142.2424220  33.5945320
   7.1897040 142.7982620  35.9071710   7.0139520 141.8818160  35.6939510
   6.3352780 143.1569910  36.1469510  14.4134790 140.5271650  32.6898090
  13.7199950 140.5248940  32.0300370  15.1557650 140.1030970  32.2592260
  13.9784720 142.1534360  36.7646580  14.4341670 141.3723740  37.0785200
  14.3177240 142.8641180  37.3087760  18.7261530 131.0833210  47.0971020
  18.1105800 131.5912880  46.5686480  18.4057950 130.1831540  47.0396960
   6.5006040 127.0556580  38.9597890   6.0574190 127.8366120  38.6282410
   7.0591030 127.3786470  39.6668830  10.7875850 129.9225100  44.5633210
  10.3255220 130.1308120  45.3753150  10.3853960 129.1084450  44.2603880
  15.7880360 131.1434050  45.6929870  14.9373950 130.8439800  46.0138940
  15.6282150 131.3876060  44.7813690  12.8830070 132.6435800  47.7928660
  13.2083480 131.8099550  47.4530890  13.6710400 133.1664320  47.9406990
   9.6164860 126.6767280  33.8403720   8.9919040 126.6727150  34.5657030
   9.5294980 125.8098240  33.4439690   8.5381940 127.6003910  40.8187490
   8.8354270 128.5066740  40.7379510   9.0867500 127.1122690  40.2047060
   6.2920260 132.1790150  36.6879140   6.0661180 131.9627320  37.5925760
   5.5112790 132.6118610  36.3425110  13.5218020 132.1853520  35.2869790
  12.9226910 132.9089320  35.1033410  14.0697630 132.1230300  34.5046240
   8.7319470 133.0775730  47.3539410   8.6363070 132.1370460  47.2039810
   9.5751450 133.2990800  46.9587480  12.1282890 130.8217060  37.3173070
  12.5212460 131.1389260  36.5041760  12.4899740 129.9428940  37.4317590
   3.8630010 129.4889400  45.5073190   3.4693400 130.3364610  45.7145970
   3.1748410 128.8515770  45.6981830  10.4375060 129.5724370  48.5769930
   9.7473380 129.3796570  49.2116020  11.1807360 129.8559010  49.1094230
  12.7138030 133.4122810  41.4123850  11.9819150 133.9209620  41.7613950
  12.3162370 132.5952790  41.1112630   9.1515420 130.0877010  39.8176340
   9.1551480 129.6466960  38.9680880  10.0466540 130.4094340  39.9248160
   5.0017800 129.9703500  38.7770550   4.6617850 130.4478730  39.5337600
   4.2395120 129.5168620  38.4171650   9.2135570 131.0889090  32.8083100
   9.3348390 131.0475570  33.7568920   8.8284080 131.9513240  32.6529830
  13.1763940 128.8656490  40.8246790  13.1936680 129.3165140  41.6688640
  12.9279520 127.9662130  41.0380230   8.2257070 133.3990230  32.2066400
   7.6573970 132.9508480  31.5802310   8.9346070 133.7583010  31.6731550
  16.6034690 126.2788670  46.6633170  16.9280460 125.5478330  47.1891150
  16.6391200 125.9602310  45.7614160   3.3026250 137.3002250  46.0833130
   2.9181040 136.6595920  46.6816090   3.6138440 138.0038370  46.6527860
   9.4523390 134.1478790  41.5641750   9.8193520 133.6737360  42.3103090
   9.2628450 135.0220360  41.9050090   2.3163880 128.8922480  37.6935220
   2.0310800 128.5278150  38.5313840   2.2542740 128.1602940  37.0798360
   7.2422760 133.1887430  43.8825960   6.9379830 134.0679410  44.1076320
   8.1969220 133.2487220  43.9183400   5.7704550 137.3948420  34.4792810
   4.9966810 136.8546040  34.3191530   6.4999180 136.8755030  34.1410570
  16.5292530 136.3913780  40.2719200  17.2491650 136.8869070  39.8815310
  16.3274350 135.7131670  39.6273070  11.9902470 127.7851740  34.4148590
  11.1767080 127.2864910  34.3393900  11.7964420 128.6249990  33.9984940
  11.9111330 136.4622840  46.1588200  11.8448640 135.5418510  45.9045790
  11.2816470 136.5598280  46.8732840  14.7050860 132.1571390  32.7110750
  15.5930480 132.4688620  32.5362090  14.6755950 131.2843640  32.3191330
   5.8141950 137.0628800  38.1171620   6.3320620 136.2597060  38.0628510
   5.3625970 137.0007940  38.9588450  10.7011450 138.3295080  33.3898920
  11.0427150 139.0737310  32.8942240   9.8724160 138.6426200  33.7523750
   3.2986490 134.0290170  45.0297320   2.9401430 134.6944020  45.6170660
   3.0041050 133.1973720  45.4009940   6.4999610 134.4874410  47.9136870
   6.1999750 134.6331590  47.0164690   7.2710850 133.9279700  47.8210260
  11.8428060 139.2843410  45.9092000  11.8572600 138.3524370  45.6910910
  11.1353160 139.3703170  46.5481770  16.9765130 133.4683230  32.1790610
  16.8928850 133.8997450  31.3287050  17.6959320 133.9281580  32.6117430
  18.0539270 135.9250750  45.2560580  17.3287460 136.5179530  45.0589970
  18.5814730 135.9174290  44.4573950  18.0052380 140.3225490  34.9072740
  17.3628540 139.6681110  35.1816460  17.6183040 140.7280580  34.1313410
  13.5838860 137.6510920  38.7544430  13.9362680 137.0539050  38.0945800
  12.7001190 137.3255150  38.9252680   9.6702140 138.4108610  36.1614840
  10.3573270 138.9577820  36.5422430   8.8834560 138.9549340  36.1964450
   8.9729350 135.4154640  35.7740200   9.4292130 136.2259890  36.0000390
   8.6217560 135.0977780  36.6058690  11.2761960 140.9260980  43.0032500
  11.9204180 141.1320360  43.6805920  11.6391400 140.1649380  42.5503350
   4.8741130 125.7592290  36.2462720   4.7455760 125.7510190  37.1947640
   4.0503150 126.0975380  35.8953730  12.5494040 138.9293330  41.7209950
  13.1916270 138.2286490  41.8342120  13.0743390 139.7091770  41.5406840
  16.3949760 139.2141950  31.4449090  16.1687340 138.4972390  32.0373730
  16.0045960 138.9654390  30.6070840  14.3231660 139.7288230  44.9246010
  14.6587900 140.3154920  45.6023930  13.4032000 139.5980940  45.1543800
   2.1765790 143.2408810  32.2193550   2.5363430 143.8398150  31.5650820
   2.0358130 143.7868700  32.9928580  15.9766010 137.1313890  33.1063250
  15.6887710 137.5926580  33.8941130  16.7718180 136.6711660  33.3747470
  10.1520240 139.7779560  48.0934070   9.8317110 139.0588800  48.6379760
   9.4778600 140.4534630  48.1670130   8.1934410 140.6240010  33.0367220
   8.1844510 141.3569700  32.4211730   7.2732770 140.3771590  33.1294180
   3.7941050 135.8454900  33.7813980   3.1869000 136.5853800  33.7909280
   4.2690400 135.9354260  32.9552180  13.3673840 130.0105720  43.4570870
  13.7354660 129.1900930  43.7850440  12.5072040 130.0707610  43.8726520
  16.7335870 128.9662660  34.2658430  16.1049030 129.0708330  33.5516660
  16.2387790 129.1859440  35.0552310  11.1794010 140.6868250  31.6992410
  11.2805990 140.4832240  30.7694390  10.2795750 140.4326530  31.9040190
   8.7019900 131.2448610  35.6816310   7.9936050 131.7134950  36.1229920
   8.9864380 130.5870620  36.3161500  10.3275830 132.6645310  43.6808840
  10.8261080 133.1391130  44.3460690  10.4698780 131.7408830  43.8878870
  12.7335330 127.9699270  37.1212100  12.6103110 127.9885400  36.1721610
  13.6819890 128.0178210  37.2410500   9.8212120 143.2054570  36.3940080
  10.0753620 143.1675960  35.4719450   8.8724600 143.0787900  36.3868330
   6.9054920 129.5533690  33.0567020   7.7545450 129.9903840  32.9907210
   6.5386190 129.8653950  33.8839080  17.5342690 128.8813270  44.5237230
  17.0316290 129.6218670  44.8631040  18.3499350 129.2697270  44.2074020
  15.8264700 134.1246450  37.9698590  14.8854840 134.1396680  38.1446280
  16.1408770 133.3382410  38.4158890   5.8046340 135.8066050  31.5302550
   6.5709610 135.6947410  32.0927980   5.8821030 135.1104020  30.8779320
   4.4993100 133.2391120  32.2135440   4.5796690 132.2918630  32.3252840
   5.3912850 133.5698000  32.3196100  17.8290280 141.2955300  39.6452850
  17.9537700 142.1186470  40.1176660  18.6955840 141.0846030  39.2977000
   5.3007810 143.3886510  39.3169980   6.0370290 142.8401970  39.5878550
   5.6848730 144.2542520  39.1775970   4.3066090 142.5732580  48.5055560
   5.1078820 142.8944630  48.9190960   3.7917910 142.2128160  49.2275470
   8.4110120 142.5616820  31.1395550   9.2038730 142.8505650  30.6877340
   7.8914470 142.1308990  30.4608030  13.1430720 138.6812450  48.4530970
  12.5368880 138.7044050  47.7126720  12.8384830 137.9495490  48.9898220
  14.5731090 142.4092740  47.0640380  15.5252840 142.3250760  47.0140620
  14.4259310 143.0734450  47.7374170  17.4640290 141.7886950  32.5632290
  17.1781800 141.3752090  31.7486470  17.2659840 142.7174660  32.4432810
   8.9287520 137.7820230  31.0037900   8.8238160 137.1672580  31.7299280
   8.7611740 137.2586120  30.2200910   9.0801840 136.4677030  46.9827130
   8.3147510 137.0362030  46.8981800   9.2617800 136.1753240  46.0895360
  12.1690250 136.8440260  31.6079890  11.6200350 137.2909560  32.2522630
  12.7909510 136.3389510  32.1317560  16.2225190 138.1982360  47.5402150
  16.9634660 138.5358120  47.0369610  15.4597870 138.3674420  46.9871920
   4.0586980 133.2035630  48.3441680   4.0992320 132.9049500  49.2526910
   4.9132480 133.6043240  48.1849200   7.8365370 135.8031180  33.5045190
   8.2581790 135.6371050  34.3476580   7.9616210 134.9931410  33.0100330
   5.9992790 131.7827730  46.3116170   5.4689250 131.2918680  45.6839510
   6.6680860 132.2111930  45.7774100  10.3493010 134.8268790  30.7522290
  10.8698670 134.1117810  30.3863440  10.9961410 135.4654660  31.0522800
  14.8970850 136.2497190  46.0757360  15.3111870 136.4042270  46.9247780
  13.9621850 136.3752410  46.2383140  15.3693020 133.5893350  48.0796510
  15.9513790 132.8345670  47.9916990  15.5454790 134.1200790  47.3027990
   6.4865090 128.7490100  46.3913460   6.3921960 128.1310850  45.6664330
   5.9062480 129.4756390  46.1643370   9.2526530 127.3063340  43.4240850
   8.8043830 127.3287600  42.5786400   8.6191730 126.9082360  44.0211150
   9.6586080 136.2017670  44.0453290  10.0774190 137.0450400  43.8729530
   8.7394710 136.3389710  43.8160070  11.9949980 133.9333850  45.4291130
  12.1146190 133.3374990  46.1685970  12.8543980 133.9703540  45.0092430
  14.3337880 134.4871040  44.0053640  13.8073100 135.0113660  43.4018780
  14.6769220 135.1198430  44.6363370   6.7324270 131.8764410  30.4503350
   6.5313330 131.0131770  30.8116690   6.5616320 131.7897770  29.5124950
   7.5093500 142.5070680  45.1611020   6.9714590 143.2316740  44.8419720
   7.7627460 142.0301020  44.3708360   8.7618750 130.4755200  46.6866950
   9.3518440 130.1671050  47.3744770   7.9438990 130.0034950  46.8426850
  13.5812180 130.0921010  46.9199970  12.8927700 129.4302550  46.8549960
  14.3018200 129.6459280  47.3648430  14.2112580 126.6872640  32.9790230
  14.4914870 125.8440540  33.3349650  13.4378310 126.9195750  33.4928980
   5.5307070 128.9765030  30.4381230   5.8332970 128.9832460  29.5300380
   6.2701660 128.6262890  30.9348890  10.3655710 143.7421890  45.4197670
  10.2914410 144.6457030  45.7270040   9.4634550 143.4233790  45.3919740
   8.7492000 127.9199650  31.4237430   8.4014000 127.2423640  30.8439880
   8.9504770 127.4589160  32.2380820  10.9141040 142.9080400  33.0424030
  11.8091830 143.2465370  33.0642790  10.9458670 142.1859810  32.4148310
   4.5537200 138.2807450  31.2711030   4.9912070 138.8237120  31.9268610
   5.0384930 137.4554400  31.2807370   1.7683000 141.0696480  38.7231290
   2.0986010 140.2017540  38.4909930   2.1974000 141.2755000  39.5536250
   6.3644920 139.4005490  36.3833260   6.0640460 139.2770460  37.2837170
   6.2582410 138.5414080  35.9748990   2.2573210 141.9367070  41.4612920
   1.8204200 142.1167870  42.2937070   2.8250890 142.6941690  41.3194640
  17.8935390 141.4384070  45.7490230  17.2937380 141.4976630  45.0054150
  18.0229290 140.4989050  45.8787080  19.1336840 139.1801890  31.0859940
  18.3029800 139.2478540  31.5567170  19.3108670 140.0706010  30.7826800
  18.5893300 135.9249370  33.5894140  19.3512210 136.4946020  33.6953830
  18.6047670 135.3576570  34.3602450  19.5953270 136.7799470  38.4336070
  19.9662100 135.9966790  38.0272040  20.2355200 137.4688570  38.2553370
  16.5787030 138.1636050  43.8466390  15.7646870 138.5933210  44.1092180
  16.9861230 138.7754460  43.2335440  18.6412470 136.2183740  30.7466660
  18.9161310 137.1262620  30.6185880  18.4523210 136.1546270  31.6828650
  15.0388080 129.2428590  32.0420290  15.4572960 129.0559570  31.2016950
  14.7324140 128.3907640  32.3523220  18.5377810 134.1552730  35.7396090
  18.1621410 133.3880660  35.3077380  17.8080930 134.5375430  36.2271020
   3.1273570 134.8339870  42.3605140   3.4946610 134.7467270  43.2401160
   2.5584390 134.0706420  42.2612000  17.9277430 133.3024250  45.3735610
  17.6963520 133.0737000  44.4733560  18.1881980 134.2223800  45.3280500
   2.6789570 131.7448960  46.2663560   1.7845620 131.7115720  46.6057270
   3.2187120 131.9435750  47.0314810  16.3665500 128.5280680  48.1515310
  17.2435680 128.5364080  48.5349310  16.3786340 127.7911520  47.5407660
  17.8128770 132.3810220  39.0403330  18.3366250 131.8872870  38.4093500
  18.3988190 132.5160580  39.7850900  17.9918490 132.4650090  42.5622880
  17.0421200 132.4313630  42.6767870  18.1731500 133.3750200  42.3272650
   3.8462930 130.7151770  31.6721510   4.5554630 130.2934990  31.1868790
   3.1302870 130.7827000  31.0404860   3.4937090 126.7691100  30.7124160
   4.2165220 127.3100040  31.0305380   3.7661610 126.4954520  29.8365700
  17.3028740 131.6383570  34.9795740  17.7987860 131.4054440  35.7644620
  17.1044810 130.7995410  34.5633380   3.1829280 126.0197290  40.6146780
   3.8305470 125.4694670  40.1741940   3.6031120 126.2740440  41.4362590
  18.7315900 130.2744520  37.5133420  18.6215180 130.1200560  38.4515690
  19.4923490 129.7465460  37.2708830  17.0781620 126.2138650  43.9716420
  17.7153840 126.8272790  44.3375610  17.2256510 126.2499310  43.0265650
  19.6206170 128.1052440  30.7539560  20.5455480 127.9733620  30.5457850
  19.5981960 128.1845260  31.7076010  19.6944660 128.8763100  33.3796270
  18.8996160 128.8108220  33.9089180  19.8987940 129.8113740  33.3681620
  16.6363080 142.9154650  37.3734660  17.2322150 142.5939220  36.6969080
  16.8941230 142.4426470  38.1647930   2.9361280 126.1752960  43.3572100
   2.5876100 126.6316780  44.1230280   2.6048980 125.2810090  43.4394530
   4.5425650 139.3472560  47.5225290   4.4995280 138.9765470  48.4039750
   4.6736660 140.2850130  47.6627110   8.2431680 140.9032150  43.1235010
   8.0023040 141.1706710  42.2365530   9.1834320 141.0737880  43.1785870
  10.4486100 127.3664840  46.8791520  10.3874990 127.9586670  47.6286930
  11.3886480 127.2590800  46.7341780  13.0860660 127.0234900  46.5183810
  13.7001070 127.3414190  45.8564890  13.6310220 126.5383490  47.1379670
  19.5035840 142.9226530  43.9245650  19.0094120 143.3195400  43.2072780
  18.8949130 142.2975740  44.3182930   3.6081920 125.7029160  46.6322870
   4.1564910 125.5217210  45.8688980   3.6737230 124.9123270  47.1679180
   4.3813680 142.2934810  44.6423070   3.7874000 142.1619510  45.3813110
   4.3737520 141.4572950  44.1765170  13.8268700 125.5867040  42.8453100
  12.9528540 125.9202150  42.6426030  13.7179450 125.1140220  43.6704970
  14.7340680 127.7937910  44.2294820  14.4054040 126.9789670  43.8496550
  15.6822980 127.7507720  44.1060510  17.1875290 143.5649950  41.2032390
  16.7278260 144.3165760  40.8290410  16.5587750 142.8456420  41.1447190
   4.0125910 139.6593190  43.5931110   3.2859970 139.0398480  43.5257060
   4.0735060 140.0533800  42.7229190   7.6171010 141.8738190  40.3780520
   8.1336030 141.2625550  39.8528780   8.2668390 142.3766970  40.8691530
  10.3566510 142.7646680  41.2049500  10.6444320 142.5100980  40.3282510
  10.8689730 142.2124040  41.7955070  11.5743520 126.5036880  41.7846010
  10.7915310 126.9782380  42.0642770  11.2806450 125.5991710  41.6759190
  16.1264590 127.2059980  39.8295100  16.5672680 127.1505080  38.9816700
  15.8572180 128.1217990  39.9005280  17.9903160 126.8375220  37.8403920
  17.9291560 125.8936440  37.6934940  18.7695190 126.9455310  38.3857380
   2.9183930 126.8084360  34.3059730   3.6763290 126.9213240  33.7323760
   2.4561100 127.6453560  34.2603160   9.4597740 128.9223630  37.2962040
   8.6472250 128.5480520  36.9557920   9.9639380 128.1668710  37.5983230
  13.9622720 125.5866080  38.5345110  14.5652090 126.1586290  39.0093630
  13.2215710 126.1505520  38.3119010  17.1057320 125.9887640  33.8085390
  17.3007950 126.8871090  34.0752820  16.3187190 125.7574720  34.3018340
   3.9018610 141.6700810  34.2478010   3.3766230 142.0508840  33.5439970
   3.8263190 142.2951580  34.9687720   5.2909080 127.3348410  32.8461700
   5.8201840 126.5478210  32.7169650   5.9237400 128.0139600  33.0797230
   7.4846920 127.0723550  35.9007090   6.8549660 126.3710860  36.0677220
   6.9452060 127.8327680  35.6840250  10.4238870 143.6862780  48.5717700
  11.3506180 143.4507050  48.6153660  10.4089300 144.5134780  48.0903730
  18.6583930 143.2288350  35.5691950  18.8336120 142.5426090  34.9252870
  17.9605500 143.7535400  35.1768620   7.6102480 126.3507530  48.3359580
   7.3286750 126.8541130  47.5720400   7.9922180 125.5529280  47.9701710
   6.5011580 143.6183190  33.1227260   7.2330400 143.3342470  32.5751150
   6.7605250 143.3796470  34.0126640   5.6626370 139.7347920  33.1273590
   5.0335250 140.2033020  33.6759420   5.7774200 138.8897140  33.5619780
  14.2117940 125.7661110  48.9140050  14.0983390 126.0855720  49.8091570
  15.0287680 126.1673620  48.6177330  16.9916430 142.9132640  48.3958740
  17.7841750 142.4181870  48.1884700  17.2849580 143.5922780  49.0034350
  13.1176090 133.7853580  19.2774790  13.0370140 132.8708190  19.0066500
  12.7040510 134.2820650  18.5714500  11.2494130 135.5632600  21.1584060
  10.4736230 135.0833040  21.4482630  11.9007060 134.8838250  20.9840220
   5.2659960 135.8752410  22.0359820   4.4344840 135.6201120  22.4356330
   5.8740940 135.9463180  22.7717740  15.2701560 139.9692790  19.9383190
  14.8083090 139.1980030  20.2670360  16.0827110 139.9958860  20.4435640
   5.2461220 139.9092500  22.2317840   5.5489260 139.0190240  22.0528060
   5.9904810 140.4662720  22.0040090   3.6751910 130.8354300  15.8202210
   2.7868610 131.1770270  15.7182090   3.9593100 130.6354620  14.9283040
  11.4964870 142.2550800  19.5587180  10.8776310 142.7108300  18.9881620
  12.3516650 142.4102260  19.1576880  10.6903120 138.2389790  21.1654220
  10.6211400 137.2979730  21.0043350  11.4522980 138.3291200  21.7376790
   2.8809790 128.8444310  23.4910840   2.7012630 127.9470060  23.7713600
   2.4789870 129.3916180  24.1657790  11.7208290 131.0460170  21.3923150
  12.0973110 130.1732050  21.2796820  11.6227800 131.3818870  20.5013590
   5.8513300 129.4185800  16.8540590   5.9580050 130.3189530  17.1609350
   4.9405660 129.3703770  16.5635240  15.5032410 128.5410610  18.3251490
  16.3242030 128.0507180  18.3676970  15.5366490 129.1308270  19.0783330
   3.4996460 131.3404810  22.0993180   4.1806570 131.6043180  22.7180580
   3.1844510 130.5005680  22.4331190   7.6921030 132.3872170  21.1865770
   8.1999250 132.8853140  21.8270790   8.2234270 131.6107370  21.0105130
  19.7931960 130.5577360  24.8895120  19.0884130 130.9459070  24.3710230
  20.0589880 131.2527650  25.4916050   5.9757130 127.0270730  25.4529190
   5.9775570 127.5443120  24.6475090   5.1461440 126.5500910  25.4299120
  12.3628220 137.1390040  16.9519090  11.7445490 137.6039490  16.3881810
  12.8751470 137.8317520  17.3688600   7.2259980 136.6665910  23.6302690
   6.8929360 137.2934830  24.2723760   7.4026660 137.1927790  22.8504360
  15.7393890 130.4810990  21.0979030  15.0349460 130.7695880  21.6782140
  16.1006050 131.2911100  20.7378590   5.6572460 128.7380690  23.4599640
   5.9989270 129.5822740  23.1653510   4.7188270 128.8864430  23.5764980
   6.4379080 138.6346710  25.4451870   7.0553080 139.3097790  25.1636320
   5.5772200 139.0434690  25.3539370  17.3556670 140.0986120  23.3606510
  16.6720190 140.7685230  23.3523180  17.8950960 140.2966770  22.5951370
  18.8080810 129.9265780  21.4888240  17.8605720 129.9604760  21.6203670
  19.1330800 130.7404730  21.8737600   9.3400350 126.2262960  19.7844230
   9.6475330 125.6709850  19.0679730   8.4101050 126.3607420  19.6017220
  14.8915410 141.9430250  22.0751690  14.9042570 141.5392540  21.2073950
  14.3390630 142.7177540  21.9713120  16.1860830 138.6646470  17.1641860
  16.0757160 137.7220800  17.2891280  16.1829080 139.0262110  18.0504620
  14.2900850 136.8460090  23.4034300  14.7069640 136.6320200  22.5687760
  15.0140670 137.1032880  23.9742920  11.7281110 134.2911790  16.5204350
  10.8010390 134.2249170  16.7492820  11.8805930 135.2291920  16.4059590
  11.7150190 130.5628790  13.5171510  10.7753860 130.7242750  13.6023970
  12.0333450 131.2814470  12.9707500  18.2362950 135.2447310  23.4950540
  17.4081580 135.3140400  23.0200670  18.8313430 135.8301620  23.0266370
  15.7578400 135.8532090  17.0239600  15.1390820 135.5151640  16.3765900
  15.7402850 135.2091850  17.7318790  15.2004960 132.0316630  24.4405410
  14.7876140 132.8570340  24.6945400  14.4680910 131.4461670  24.2481770
   7.3337750 134.8176530  19.3024080   6.9294750 134.1053780  18.8069980
   7.4200870 134.4729770  20.1912120   7.8019450 138.5044090  21.4663290
   7.5047740 137.8989560  20.7871070   8.7519270 138.5421400  21.3552650
   6.0466370 131.5919740  23.0823120   6.5980960 131.7015080  22.3076370
   6.5609880 131.9657340  23.7978350  15.8905060 142.0775960  25.1286390
  15.4135620 142.8848150  24.9359000  15.2066850 141.4254290  25.2812600
   6.8937880 138.2425780  28.1171090   5.9966410 138.4665750  28.3644490
   6.9190750 138.3660720  27.1682490  13.9343100 135.0918900  14.0312350
  14.3736380 134.2541330  13.8850170  14.6471520 135.7248300  14.1176490
   5.7209100 135.1139100  26.6928460   5.5816870 135.9861900  27.0615860
   4.8390460 134.7711910  26.5476400  12.0438480 140.0314970  17.9993590
  12.4834390 140.7739300  17.5848980  11.9825370 140.2741540  18.9232550
   7.5189450 141.0560800  28.9013610   7.4904880 141.4603750  28.0342040
   7.3554420 140.1271160  28.7385210  17.5160240 126.3461710  12.3453390
  17.2032900 126.4388540  13.2452460  18.2772710 126.9242740  12.2950820
   4.0342380 133.7121510  16.8030730   3.9139980 134.4383600  16.1912000
   3.7243270 132.9424420  16.3258640  19.4704270 141.8387900  30.1977780
  19.9463990 142.3170790  30.8766860  20.0911430 141.7705390  29.4723280
   2.9175380 138.5836840  19.0205550   2.5103460 138.7251430  18.1659150
   3.8088390 138.2997000  18.8176760  18.8737520 139.0300750  27.3577790
  19.0000580 138.7912630  26.4394970  18.9158900 138.1985290  27.8299870
  12.7354260 142.7328750  25.9272600  13.2498930 142.6436760  26.7295030
  11.8923340 143.0788450  26.2200510  14.7108660 143.0184090  15.3556600
  14.5509800 142.7287030  16.2538430  14.5455370 142.2424220  14.8201830
   7.1897040 142.7982620  17.1328220   7.0139520 141.8818160  16.9196020
   6.3352780 143.1569910  17.3726020  14.4134790 140.5271650  13.9154600
  13.7199950 140.5248940  13.2556880  15.1557650 140.1030970  13.4848770
  13.9784720 142.1534360  17.9903090  14.4341670 141.3723740  18.3041710
  14.3177240 142.8641180  18.5344270  18.7261530 131.0833210  28.3227530
  18.1105800 131.5912880  27.7942990  18.4057950 130.1831540  28.2653470
   6.5006040 127.0556580  20.1854400   6.0574190 127.8366120  19.8538920
   7.0591030 127.3786470  20.8925340  10.7875850 129.9225100  25.7889720
  10.3255220 130.1308120  26.6009660  10.3853960 129.1084450  25.4860390
  15.7880360 131.1434050  26.9186380  14.9373950 130.8439800  27.2395450
  15.6282150 131.3876060  26.0070200  12.8830070 132.6435800  29.0185170
  13.2083480 131.8099550  28.6787400  13.6710400 133.1664320  29.1663500
   9.6164860 126.6767280  15.0660230   8.9919040 126.6727150  15.7913540
   9.5294980 125.8098240  14.6696200   8.5381940 127.6003910  22.0444000
   8.8354270 128.5066740  21.9636020   9.0867500 127.1122690  21.4303570
   6.2920260 132.1790150  17.9135650   6.0661180 131.9627320  18.8182270
   5.5112790 132.6118610  17.5681620  13.5218020 132.1853520  16.5126300
  12.9226910 132.9089320  16.3289920  14.0697630 132.1230300  15.7302750
   8.7319470 133.0775730  28.5795920   8.6363070 132.1370460  28.4296320
   9.5751450 133.2990800  28.1843990  12.1282890 130.8217060  18.5429580
  12.5212460 131.1389260  17.7298270  12.4899740 129.9428940  18.6574100
   3.8630010 129.4889400  26.7329700   3.4693400 130.3364610  26.9402480
   3.1748410 128.8515770  26.9238340  10.4375060 129.5724370  29.8026440
   9.7473380 129.3796570  30.4372530  11.1807360 129.8559010  30.3350740
  12.7138030 133.4122810  22.6380360  11.9819150 133.9209620  22.9870460
  12.3162370 132.5952790  22.3369140   9.1515420 130.0877010  21.0432850
   9.1551480 129.6466960  20.1937390  10.0466540 130.4094340  21.1504670
   5.0017800 129.9703500  20.0027060   4.6617850 130.4478730  20.7594110
   4.2395120 129.5168620  19.6428160   9.2135570 131.0889090  14.0339610
   9.3348390 131.0475570  14.9825430   8.8284080 131.9513240  13.8786340
  13.1763940 128.8656490  22.0503300  13.1936680 129.3165140  22.8945150
  12.9279520 127.9662130  22.2636740   8.2257070 133.3990230  13.4322910
   7.6573970 132.9508480  12.8058820   8.9346070 133.7583010  12.8988060
  16.6034690 126.2788670  27.8889680  16.9280460 125.5478330  28.4147660
  16.6391200 125.9602310  26.9870670   3.3026250 137.3002250  27.3089640
   2.9181040 136.6595920  27.9072600   3.6138440 138.0038370  27.8784370
   9.4523390 134.1478790  22.7898260   9.8193520 133.6737360  23.5359600
   9.2628450 135.0220360  23.1306600   2.3163880 128.8922480  18.9191730
   2.0310800 128.5278150  19.7570350   2.2542740 128.1602940  18.3054870
   7.2422760 133.1887430  25.1082470   6.9379830 134.0679410  25.3332830
   8.1969220 133.2487220  25.1439910   5.7704550 137.3948420  15.7049320
   4.9966810 136.8546040  15.5448040   6.4999180 136.8755030  15.3667080
  16.5292530 136.3913780  21.4975710  17.2491650 136.8869070  21.1071820
  16.3274350 135.7131670  20.8529580  11.9902470 127.7851740  15.6405100
  11.1767080 127.2864910  15.5650410  11.7964420 128.6249990  15.2241450
  11.9111330 136.4622840  27.3844710  11.8448640 135.5418510  27.1302300
  11.2816470 136.5598280  28.0989350  14.7050860 132.1571390  13.9367260
  15.5930480 132.4688620  13.7618600  14.6755950 131.2843640  13.5447840
   5.8141950 137.0628800  19.3428130   6.3320620 136.2597060  19.2885020
   5.3625970 137.0007940  20.1844960  10.7011450 138.3295080  14.6155430
  11.0427150 139.0737310  14.1198750   9.8724160 138.6426200  14.9780260
   3.2986490 134.0290170  26.2553830   2.9401430 134.6944020  26.8427170
   3.0041050 133.1973720  26.6266450   6.4999610 134.4874410  29.1393380
   6.1999750 134.6331590  28.2421200   7.2710850 133.9279700  29.0466770
  11.8428060 139.2843410  27.1348510  11.8572600 138.3524370  26.9167420
  11.1353160 139.3703170  27.7738280  16.9765130 133.4683230  13.4047120
  16.8928850 133.8997450  12.5543560  17.6959320 133.9281580  13.8373940
  18.0539270 135.9250750  26.4817090  17.3287460 136.5179530  26.2846480
  18.5814730 135.9174290  25.6830460  18.0052380 140.3225490  16.1329250
  17.3628540 139.6681110  16.4072970  17.6183040 140.7280580  15.3569920
  13.5838860 137.6510920  19.9800940  13.9362680 137.0539050  19.3202310
  12.7001190 137.3255150  20.1509190   9.6702140 138.4108610  17.3871350
  10.3573270 138.9577820  17.7678940   8.8834560 138.9549340  17.4220960
   8.9729350 135.4154640  16.9996710   9.4292130 136.2259890  17.2256900
   8.6217560 135.0977780  17.8315200  11.2761960 140.9260980  24.2289010
  11.9204180 141.1320360  24.9062430  11.6391400 140.1649380  23.7759860
   4.8741130 125.7592290  17.4719230   4.7455760 125.7510190  18.4204150
   4.0503150 126.0975380  17.1210240  12.5494040 138.9293330  22.9466460
  13.1916270 138.2286490  23.0598630  13.0743390 139.7091770  22.7663350
  16.3949760 139.2141950  12.6705600  16.1687340 138.4972390  13.2630240
  16.0045960 138.9654390  11.8327350  14.3231660 139.7288230  26.1502520
  14.6587900 140.3154920  26.8280440  13.4032000 139.5980940  26.3800310
   2.1765790 143.2408810  13.4450060   2.5363430 143.8398150  12.7907330
   2.0358130 143.7868700  14.2185090  15.9766010 137.1313890  14.3319760
  15.6887710 137.5926580  15.1197640  16.7718180 136.6711660  14.6003980
  10.1520240 139.7779560  29.3190580   9.8317110 139.0588800  29.8636270
   9.4778600 140.4534630  29.3926640   8.1934410 140.6240010  14.2623730
   8.1844510 141.3569700  13.6468240   7.2732770 140.3771590  14.3550690
   3.7941050 135.8454900  15.0070490   3.1869000 136.5853800  15.0165790
   4.2690400 135.9354260  14.1808690  13.3673840 130.0105720  24.6827380
  13.7354660 129.1900930  25.0106950  12.5072040 130.0707610  25.0983030
  16.7335870 128.9662660  15.4914940  16.1049030 129.0708330  14.7773170
  16.2387790 129.1859440  16.2808820  11.1794010 140.6868250  12.9248920
  11.2805990 140.4832240  11.9950900  10.2795750 140.4326530  13.1296700
   8.7019900 131.2448610  16.9072820   7.9936050 131.7134950  17.3486430
   8.9864380 130.5870620  17.5418010  10.3275830 132.6645310  24.9065350
  10.8261080 133.1391130  25.5717200  10.4698780 131.7408830  25.1135380
  12.7335330 127.9699270  18.3468610  12.6103110 127.9885400  17.3978120
  13.6819890 128.0178210  18.4667010   9.8212120 143.2054570  17.6196590
  10.0753620 143.1675960  16.6975960   8.8724600 143.0787900  17.6124840
   6.9054920 129.5533690  14.2823530   7.7545450 129.9903840  14.2163720
   6.5386190 129.8653950  15.1095590  17.5342690 128.8813270  25.7493740
  17.0316290 129.6218670  26.0887550  18.3499350 129.2697270  25.4330530
  15.8264700 134.1246450  19.1955100  14.8854840 134.1396680  19.3702790
  16.1408770 133.3382410  19.6415400   5.8046340 135.8066050  12.7559060
   6.5709610 135.6947410  13.3184490   5.8821030 135.1104020  12.1035830
   4.4993100 133.2391120  13.4391950   4.5796690 132.2918630  13.5509350
   5.3912850 133.5698000  13.5452610  17.8290280 141.2955300  20.8709360
  17.9537700 142.1186470  21.3433170  18.6955840 141.0846030  20.5233510
   5.3007810 143.3886510  20.5426490   6.0370290 142.8401970  20.8135060
   5.6848730 144.2542520  20.4032480   4.3066090 142.5732580  29.7312070
   5.1078820 142.8944630  30.1447470   3.7917910 142.2128160  30.4531980
   8.4110120 142.5616820  12.3652060   9.2038730 142.8505650  11.9133850
   7.8914470 142.1308990  11.6864540  13.1430720 138.6812450  29.6787480
  12.5368880 138.7044050  28.9383230  12.8384830 137.9495490  30.2154730
  14.5731090 142.4092740  28.2896890  15.5252840 142.3250760  28.2397130
  14.4259310 143.0734450  28.9630680  17.4640290 141.7886950  13.7888800
  17.1781800 141.3752090  12.9742980  17.2659840 142.7174660  13.6689320
   8.9287520 137.7820230  12.2294410   8.8238160 137.1672580  12.9555790
   8.7611740 137.2586120  11.4457420   9.0801840 136.4677030  28.2083640
   8.3147510 137.0362030  28.1238310   9.2617800 136.1753240  27.3151870
  12.1690250 136.8440260  12.8336400  11.6200350 137.2909560  13.4779140
  12.7909510 136.3389510  13.3574070  16.2225190 138.1982360  28.7658660
  16.9634660 138.5358120  28.2626120  15.4597870 138.3674420  28.2128430
   4.0586980 133.2035630  29.5698190   4.0992320 132.9049500  30.4783420
   4.9132480 133.6043240  29.4105710   7.8365370 135.8031180  14.7301700
   8.2581790 135.6371050  15.5733090   7.9616210 134.9931410  14.2356840
   5.9992790 131.7827730  27.5372680   5.4689250 131.2918680  26.9096020
   6.6680860 132.2111930  27.0030610  10.3493010 134.8268790  11.9778800
  10.8698670 134.1117810  11.6119950  10.9961410 135.4654660  12.2779310
  14.8970850 136.2497190  27.3013870  15.3111870 136.4042270  28.1504290
  13.9621850 136.3752410  27.4639650  15.3693020 133.5893350  29.3053020
  15.9513790 132.8345670  29.2173500  15.5454790 134.1200790  28.5284500
   6.4865090 128.7490100  27.6169970   6.3921960 128.1310850  26.8920840
   5.9062480 129.4756390  27.3899880   9.2526530 127.3063340  24.6497360
   8.8043830 127.3287600  23.8042910   8.6191730 126.9082360  25.2467660
   9.6586080 136.2017670  25.2709800  10.0774190 137.0450400  25.0986040
   8.7394710 136.3389710  25.0416580  11.9949980 133.9333850  26.6547640
  12.1146190 133.3374990  27.3942480  12.8543980 133.9703540  26.2348940
  14.3337880 134.4871040  25.2310150  13.8073100 135.0113660  24.6275290
  14.6769220 135.1198430  25.8619880   6.7324270 131.8764410  11.6759860
   6.5313330 131.0131770  12.0373200   6.5616320 131.7897770  10.7381460
   7.5093500 142.5070680  26.3867530   6.9714590 143.2316740  26.0676230
   7.7627460 142.0301020  25.5964870   8.7618750 130.4755200  27.9123460
   9.3518440 130.1671050  28.6001280   7.9438990 130.0034950  28.0683360
  13.5812180 130.0921010  28.1456480  12.8927700 129.4302550  28.0806470
  14.3018200 129.6459280  28.5904940  14.2112580 126.6872640  14.2046740
  14.4914870 125.8440540  14.5606160  13.4378310 126.9195750  14.7185490
   5.5307070 128.9765030  11.6637740   5.8332970 128.9832460  10.7556890
   6.2701660 128.6262890  12.1605400  10.3655710 143.7421890  26.6454180
  10.2914410 144.6457030  26.9526550   9.4634550 143.4233790  26.6176250
   8.7492000 127.9199650  12.6493940   8.4014000 127.2423640  12.0696390
   8.9504770 127.4589160  13.4637330  10.9141040 142.9080400  14.2680540
  11.8091830 143.2465370  14.2899300  10.9458670 142.1859810  13.6404820
   4.5537200 138.2807450  12.4967540   4.9912070 138.8237120  13.1525120
   5.0384930 137.4554400  12.5063880   1.7683000 141.0696480  19.9487800
   2.0986010 140.2017540  19.7166440   2.1974000 141.2755000  20.7792760
   6.3644920 139.4005490  17.6089770   6.0640460 139.2770460  18.5093680
   6.2582410 138.5414080  17.2005500   2.2573210 141.9367070  22.6869430
   1.8204200 142.1167870  23.5193580   2.8250890 142.6941690  22.5451150
  17.8935390 141.4384070  26.9746740  17.2937380 141.4976630  26.2310660
  18.0229290 140.4989050  27.1043590  19.1336840 139.1801890  12.3116450
  18.3029800 139.2478540  12.7823680  19.3108670 140.0706010  12.0083310
  18.5893300 135.9249370  14.8150650  19.3512210 136.4946020  14.9210340
  18.6047670 135.3576570  15.5858960  19.5953270 136.7799470  19.6592580
  19.9662100 135.9966790  19.2528550  20.2355200 137.4688570  19.4809880
  16.5787030 138.1636050  25.0722900  15.7646870 138.5933210  25.3348690
  16.9861230 138.7754460  24.4591950  18.6412470 136.2183740  11.9723170
  18.9161310 137.1262620  11.8442390  18.4523210 136.1546270  12.9085160
  15.0388080 129.2428590  13.2676800  15.4572960 129.0559570  12.4273460
  14.7324140 128.3907640  13.5779730  18.5377810 134.1552730  16.9652600
  18.1621410 133.3880660  16.5333890  17.8080930 134.5375430  17.4527530
   3.1273570 134.8339870  23.5861650   3.4946610 134.7467270  24.4657670
   2.5584390 134.0706420  23.4868510  17.9277430 133.3024250  26.5992120
  17.6963520 133.0737000  25.6990070  18.1881980 134.2223800  26.5537010
   2.6789570 131.7448960  27.4920070   1.7845620 131.7115720  27.8313780
   3.2187120 131.9435750  28.2571320  16.3665500 128.5280680  29.3771820
  17.2435680 128.5364080  29.7605820  16.3786340 127.7911520  28.7664170
  17.8128770 132.3810220  20.2659840  18.3366250 131.8872870  19.6350010
  18.3988190 132.5160580  21.0107410  17.9918490 132.4650090  23.7879390
  17.0421200 132.4313630  23.9024380  18.1731500 133.3750200  23.5529160
   3.8462930 130.7151770  12.8978020   4.5554630 130.2934990  12.4125300
   3.1302870 130.7827000  12.2661370   3.4937090 126.7691100  11.9380670
   4.2165220 127.3100040  12.2561890   3.7661610 126.4954520  11.0622210
  17.3028740 131.6383570  16.2052250  17.7987860 131.4054440  16.9901130
  17.1044810 130.7995410  15.7889890   3.1829280 126.0197290  21.8403290
   3.8305470 125.4694670  21.3998450   3.6031120 126.2740440  22.6619100
  18.7315900 130.2744520  18.7389930  18.6215180 130.1200560  19.6772200
  19.4923490 129.7465460  18.4965340  17.0781620 126.2138650  25.1972930
  17.7153840 126.8272790  25.5632120  17.2256510 126.2499310  24.2522160
  19.6206170 128.1052440  11.9796070  20.5455480 127.9733620  11.7714360
  19.5981960 128.1845260  12.9332520  19.6944660 128.8763100  14.6052780
  18.8996160 128.8108220  15.1345690  19.8987940 129.8113740  14.5938130
  16.6363080 142.9154650  18.5991170  17.2322150 142.5939220  17.9225590
  16.8941230 142.4426470  19.3904440   2.9361280 126.1752960  24.5828610
   2.5876100 126.6316780  25.3486790   2.6048980 125.2810090  24.6651040
   4.5425650 139.3472560  28.7481800   4.4995280 138.9765470  29.6296260
   4.6736660 140.2850130  28.8883620   8.2431680 140.9032150  24.3491520
   8.0023040 141.1706710  23.4622040   9.1834320 141.0737880  24.4042380
  10.4486100 127.3664840  28.1048030  10.3874990 127.9586670  28.8543440
  11.3886480 127.2590800  27.9598290  13.0860660 127.0234900  27.7440320
  13.7001070 127.3414190  27.0821400  13.6310220 126.5383490  28.3636180
  19.5035840 142.9226530  25.1502160  19.0094120 143.3195400  24.4329290
  18.8949130 142.2975740  25.5439440   3.6081920 125.7029160  27.8579380
   4.1564910 125.5217210  27.0945490   3.6737230 124.9123270  28.3935690
   4.3813680 142.2934810  25.8679580   3.7874000 142.1619510  26.6069620
   4.3737520 141.4572950  25.4021680  13.8268700 125.5867040  24.0709610
  12.9528540 125.9202150  23.8682540  13.7179450 125.1140220  24.8961480
  14.7340680 127.7937910  25.4551330  14.4054040 126.9789670  25.0753060
  15.6822980 127.7507720  25.3317020  17.1875290 143.5649950  22.4288900
  16.7278260 144.3165760  22.0546920  16.5587750 142.8456420  22.3703700
   4.0125910 139.6593190  24.8187620   3.2859970 139.0398480  24.7513570
   4.0735060 140.0533800  23.9485700   7.6171010 141.8738190  21.6037030
   8.1336030 141.2625550  21.0785290   8.2668390 142.3766970  22.0948040
  10.3566510 142.7646680  22.4306010  10.6444320 142.5100980  21.5539020
  10.8689730 142.2124040  23.0211580  11.5743520 126.5036880  23.0102520
  10.7915310 126.9782380  23.2899280  11.2806450 125.5991710  22.9015700
  16.1264590 127.2059980  21.0551610  16.5672680 127.1505080  20.2073210
  15.8572180 128.1217990  21.1261790  17.9903160 126.8375220  19.0660430
  17.9291560 125.8936440  18.9191450  18.7695190 126.9455310  19.6113890
   2.9183930 126.8084360  15.5316240   3.6763290 126.9213240  14.9580270
   2.4561100 127.6453560  15.4859670   9.4597740 128.9223630  18.5218550
   8.6472250 128.5480520  18.1814430   9.9639380 128.1668710  18.8239740
  13.9622720 125.5866080  19.7601620  14.5652090 126.1586290  20.2350140
  13.2215710 126.1505520  19.5375520  17.1057320 125.9887640  15.0341900
  17.3007950 126.8871090  15.3009330  16.3187190 125.7574720  15.5274850
   3.9018610 141.6700810  15.4734520   3.3766230 142.0508840  14.7696480
   3.8263190 142.2951580  16.1944230   5.2909080 127.3348410  14.0718210
   5.8201840 126.5478210  13.9426160   5.9237400 128.0139600  14.3053740
   7.4846920 127.0723550  17.1263600   6.8549660 126.3710860  17.2933730
   6.9452060 127.8327680  16.9096760  10.4238870 143.6862780  29.7974210
  11.3506180 143.4507050  29.8410170  10.4089300 144.5134780  29.3160240
  18.6583930 143.2288350  16.7948460  18.8336120 142.5426090  16.1509380
  17.9605500 143.7535400  16.4025130   7.6102480 126.3507530  29.5616090
   7.3286750 126.8541130  28.7976910   7.9922180 125.5529280  29.1958220
   6.5011580 143.6183190  14.3483770   7.2330400 143.3342470  13.8007660
   6.7605250 143.3796470  15.2383150   5.6626370 139.7347920  14.3530100
   5.0335250 140.2033020  14.9015930   5.7774200 138.8897140  14.7876290
  14.2117940 125.7661110  30.1396560  14.0983390 126.0855720  31.0348080
  15.0287680 126.1673620  29.8433840  16.9916430 142.9132640  29.6215250
  17.7841750 142.4181870  29.4141210  17.2849580 143.5922780  30.2290860
  11.2494130 135.5632600   2.3840570  10.4736230 135.0833040   2.6739140
  11.9007060 134.8838250   2.2096730   5.2659960 135.8752410   3.2616330
   4.4344840 135.6201120   3.6612840   5.8740940 135.9463180   3.9974250
   5.2461220 139.9092500   3.4574350   5.5489260 139.0190240   3.2784570
   5.9904810 140.4662720   3.2296600  10.6903120 138.2389790   2.3910730
  10.6211400 137.2979730   2.2299860  11.4522980 138.3291200   2.9633300
   2.8809790 128.8444310   4.7167350   2.7012630 127.9470060   4.9970110
   2.4789870 129.3916180   5.3914300  11.7208290 131.0460170   2.6179660
  12.0973110 130.1732050   2.5053330  11.6227800 131.3818870   1.7270100
   3.4996460 131.3404810   3.3249690   4.1806570 131.6043180   3.9437090
   3.1844510 130.5005680   3.6587700   7.6921030 132.3872170   2.4122280
   8.1999250 132.8853140   3.0527300   8.2234270 131.6107370   2.2361640
  19.7931960 130.5577360   6.1151630  19.0884130 130.9459070   5.5966740
  20.0589880 131.2527650   6.7172560   5.9757130 127.0270730   6.6785700
   5.9775570 127.5443120   5.8731600   5.1461440 126.5500910   6.6555630
   7.2259980 136.6665910   4.8559200   6.8929360 137.2934830   5.4980270
   7.4026660 137.1927790   4.0760870  15.7393890 130.4810990   2.3235540
  15.0349460 130.7695880   2.9038650  16.1006050 131.2911100   1.9635100
   5.6572460 128.7380690   4.6856150   5.9989270 129.5822740   4.3910020
   4.7188270 128.8864430   4.8021490   6.4379080 138.6346710   6.6708380
   7.0553080 139.3097790   6.3892830   5.5772200 139.0434690   6.5795880
  17.3556670 140.0986120   4.5863020  16.6720190 140.7685230   4.5779690
  17.8950960 140.2966770   3.8207880  18.8080810 129.9265780   2.7144750
  17.8605720 129.9604760   2.8460180  19.1330800 130.7404730   3.0994110
  14.8915410 141.9430250   3.3008200  14.9042570 141.5392540   2.4330460
  14.3390630 142.7177540   3.1969630  14.2900850 136.8460090   4.6290810
  14.7069640 136.6320200   3.7944270  15.0140670 137.1032880   5.1999430
  18.2362950 135.2447310   4.7207050  17.4081580 135.3140400   4.2457180
  18.8313430 135.8301620   4.2522880  15.2004960 132.0316630   5.6661920
  14.7876140 132.8570340   5.9201910  14.4680910 131.4461670   5.4738280
   7.8019450 138.5044090   2.6919800   7.5047740 137.8989560   2.0127580
   8.7519270 138.5421400   2.5809160   6.0466370 131.5919740   4.3079630
   6.5980960 131.7015080   3.5332880   6.5609880 131.9657340   5.0234860
  15.8905060 142.0775960   6.3542900  15.4135620 142.8848150   6.1615510
  15.2066850 141.4254290   6.5069110   6.8937880 138.2425780   9.3427600
   5.9966410 138.4665750   9.5901000   6.9190750 138.3660720   8.3939000
   5.7209100 135.1139100   7.9184970   5.5816870 135.9861900   8.2872370
   4.8390460 134.7711910   7.7732910   7.5189450 141.0560800  10.1270120
   7.4904880 141.4603750   9.2598550   7.3554420 140.1271160   9.9641720
  19.4704270 141.8387900  11.4234290  19.9463990 142.3170790  12.1023370
  20.0911430 141.7705390  10.6979790  18.8737520 139.0300750   8.5834300
  19.0000580 138.7912630   7.6651480  18.9158900 138.1985290   9.0556380
  12.7354260 142.7328750   7.1529110  13.2498930 142.6436760   7.9551540
  11.8923340 143.0788450   7.4457020  18.7261530 131.0833210   9.5484040
  18.1105800 131.5912880   9.0199500  18.4057950 130.1831540   9.4909980
  10.7875850 129.9225100   7.0146230  10.3255220 130.1308120   7.8266170
  10.3853960 129.1084450   6.7116900  15.7880360 131.1434050   8.1442890
  14.9373950 130.8439800   8.4651960  15.6282150 131.3876060   7.2326710
  12.8830070 132.6435800  10.2441680  13.2083480 131.8099550   9.9043910
  13.6710400 133.1664320  10.3920010   8.5381940 127.6003910   3.2700510
   8.8354270 128.5066740   3.1892530   9.0867500 127.1122690   2.6560080
   8.7319470 133.0775730   9.8052430   8.6363070 132.1370460   9.6552830
   9.5751450 133.2990800   9.4100500   3.8630010 129.4889400   7.9586210
   3.4693400 130.3364610   8.1658990   3.1748410 128.8515770   8.1494850
  10.4375060 129.5724370  11.0282950   9.7473380 129.3796570  11.6629040
  11.1807360 129.8559010  11.5607250  12.7138030 133.4122810   3.8636870
  11.9819150 133.9209620   4.2126970  12.3162370 132.5952790   3.5625650
   9.1515420 130.0877010   2.2689360   9.1551480 129.6466960   1.4193900
  10.0466540 130.4094340   2.3761180  13.1763940 128.8656490   3.2759810
  13.1936680 129.3165140   4.1201660  12.9279520 127.9662130   3.4893250
  16.6034690 126.2788670   9.1146190  16.9280460 125.5478330   9.6404170
  16.6391200 125.9602310   8.2127180   3.3026250 137.3002250   8.5346150
   2.9181040 136.6595920   9.1329110   3.6138440 138.0038370   9.1040880
   9.4523390 134.1478790   4.0154770   9.8193520 133.6737360   4.7616110
   9.2628450 135.0220360   4.3563110   7.2422760 133.1887430   6.3338980
   6.9379830 134.0679410   6.5589340   8.1969220 133.2487220   6.3696420
  16.5292530 136.3913780   2.7232220  17.2491650 136.8869070   2.3328330
  16.3274350 135.7131670   2.0786090  11.9111330 136.4622840   8.6101220
  11.8448640 135.5418510   8.3558810  11.2816470 136.5598280   9.3245860
   3.2986490 134.0290170   7.4810340   2.9401430 134.6944020   8.0683680
   3.0041050 133.1973720   7.8522960   6.4999610 134.4874410  10.3649890
   6.1999750 134.6331590   9.4677710   7.2710850 133.9279700  10.2723280
  11.8428060 139.2843410   8.3605020  11.8572600 138.3524370   8.1423930
  11.1353160 139.3703170   8.9994790  18.0539270 135.9250750   7.7073600
  17.3287460 136.5179530   7.5102990  18.5814730 135.9174290   6.9086970
  11.2761960 140.9260980   5.4545520  11.9204180 141.1320360   6.1318940
  11.6391400 140.1649380   5.0016370  12.5494040 138.9293330   4.1722970
  13.1916270 138.2286490   4.2855140  13.0743390 139.7091770   3.9919860
  14.3231660 139.7288230   7.3759030  14.6587900 140.3154920   8.0536950
  13.4032000 139.5980940   7.6056820  10.1520240 139.7779560  10.5447090
   9.8317110 139.0588800  11.0892780   9.4778600 140.4534630  10.6183150
  13.3673840 130.0105720   5.9083890  13.7354660 129.1900930   6.2363460
  12.5072040 130.0707610   6.3239540  10.3275830 132.6645310   6.1321860
  10.8261080 133.1391130   6.7973710  10.4698780 131.7408830   6.3391890
  17.5342690 128.8813270   6.9750250  17.0316290 129.6218670   7.3144060
  18.3499350 129.2697270   6.6587040  17.8290280 141.2955300   2.0965870
  17.9537700 142.1186470   2.5689680  18.6955840 141.0846030   1.7490020
   5.3007810 143.3886510   1.7683000   6.0370290 142.8401970   2.0391570
   5.6848730 144.2542520   1.6288990   4.3066090 142.5732580  10.9568580
   5.1078820 142.8944630  11.3703980   3.7917910 142.2128160  11.6788490
  13.1430720 138.6812450  10.9043990  12.5368880 138.7044050  10.1639740
  12.8384830 137.9495490  11.4411240  14.5731090 142.4092740   9.5153400
  15.5252840 142.3250760   9.4653640  14.4259310 143.0734450  10.1887190
   9.0801840 136.4677030   9.4340150   8.3147510 137.0362030   9.3494820
   9.2617800 136.1753240   8.5408380  16.2225190 138.1982360   9.9915170
  16.9634660 138.5358120   9.4882630  15.4597870 138.3674420   9.4384940
   4.0586980 133.2035630  10.7954700   4.0992320 132.9049500  11.7039930
   4.9132480 133.6043240  10.6362220   5.9992790 131.7827730   8.7629190
   5.4689250 131.2918680   8.1352530   6.6680860 132.2111930   8.2287120
  14.8970850 136.2497190   8.5270380  15.3111870 136.4042270   9.3760800
  13.9621850 136.3752410   8.6896160  15.3693020 133.5893350  10.5309530
  15.9513790 132.8345670  10.4430010  15.5454790 134.1200790   9.7541010
   6.4865090 128.7490100   8.8426480   6.3921960 128.1310850   8.1177350
   5.9062480 129.4756390   8.6156390   9.2526530 127.3063340   5.8753870
   8.8043830 127.3287600   5.0299420   8.6191730 126.9082360   6.4724170
   9.6586080 136.2017670   6.4966310  10.0774190 137.0450400   6.3242550
   8.7394710 136.3389710   6.2673090  11.9949980 133.9333850   7.8804150
  12.1146190 133.3374990   8.6198990  12.8543980 133.9703540   7.4605450
  14.3337880 134.4871040   6.4566660  13.8073100 135.0113660   5.8531800
  14.6769220 135.1198430   7.0876390   7.5093500 142.5070680   7.6124040
   6.9714590 143.2316740   7.2932740   7.7627460 142.0301020   6.8221380
   8.7618750 130.4755200   9.1379970   9.3518440 130.1671050   9.8257790
   7.9438990 130.0034950   9.2939870  13.5812180 130.0921010   9.3712990
  12.8927700 129.4302550   9.3062980  14.3018200 129.6459280   9.8161450
  10.3655710 143.7421890   7.8710690  10.2914410 144.6457030   8.1783060
   9.4634550 143.4233790   7.8432760   2.2573210 141.9367070   3.9125940
   1.8204200 142.1167870   4.7450090   2.8250890 142.6941690   3.7707660
  17.8935390 141.4384070   8.2003250  17.2937380 141.4976630   7.4567170
  18.0229290 140.4989050   8.3300100  16.5787030 138.1636050   6.2979410
  15.7646870 138.5933210   6.5605200  16.9861230 138.7754460   5.6848460
   3.1273570 134.8339870   4.8118160   3.4946610 134.7467270   5.6914180
   2.5584390 134.0706420   4.7125020  17.9277430 133.3024250   7.8248630
  17.6963520 133.0737000   6.9246580  18.1881980 134.2223800   7.7793520
   2.6789570 131.7448960   8.7176580   1.7845620 131.7115720   9.0570290
   3.2187120 131.9435750   9.4827830  16.3665500 128.5280680  10.6028330
  17.2435680 128.5364080  10.9862330  16.3786340 127.7911520   9.9920680
  17.9918490 132.4650090   5.0135900  17.0421200 132.4313630   5.1280890
  18.1731500 133.3750200   4.7785670   3.1829280 126.0197290   3.0659800
   3.8305470 125.4694670   2.6254960   3.6031120 126.2740440   3.8875610
  17.0781620 126.2138650   6.4229440  17.7153840 126.8272790   6.7888630
  17.2256510 126.2499310   5.4778670   2.9361280 126.1752960   5.8085120
   2.5876100 126.6316780   6.5743300   2.6048980 125.2810090   5.8907550
   4.5425650 139.3472560   9.9738310   4.4995280 138.9765470  10.8552770
   4.6736660 140.2850130  10.1140130   8.2431680 140.9032150   5.5748030
   8.0023040 141.1706710   4.6878550   9.1834320 141.0737880   5.6298890
  10.4486100 127.3664840   9.3304540  10.3874990 127.9586670  10.0799950
  11.3886480 127.2590800   9.1854800  13.0860660 127.0234900   8.9696830
  13.7001070 127.3414190   8.3077910  13.6310220 126.5383490   9.5892690
  19.5035840 142.9226530   6.3758670  19.0094120 143.3195400   5.6585800
  18.8949130 142.2975740   6.7695950   3.6081920 125.7029160   9.0835890
   4.1564910 125.5217210   8.3202000   3.6737230 124.9123270   9.6192200
   4.3813680 142.2934810   7.0936090   3.7874000 142.1619510   7.8326130
   4.3737520 141.4572950   6.6278190  13.8268700 125.5867040   5.2966120
  12.9528540 125.9202150   5.0939050  13.7179450 125.1140220   6.1217990
  14.7340680 127.7937910   6.6807840  14.4054040 126.9789670   6.3009570
  15.6822980 127.7507720   6.5573530  17.1875290 143.5649950   3.6545410
  16.7278260 144.3165760   3.2803430  16.5587750 142.8456420   3.5960210
   4.0125910 139.6593190   6.0444130   3.2859970 139.0398480   5.9770080
   4.0735060 140.0533800   5.1742210   7.6171010 141.8738190   2.8293540
   8.1336030 141.2625550   2.3041800   8.2668390 142.3766970   3.3204550
  10.3566510 142.7646680   3.6562520  10.6444320 142.5100980   2.7795530
  10.8689730 142.2124040   4.2468090  11.5743520 126.5036880   4.2359030
  10.7915310 126.9782380   4.5155790  11.2806450 125.5991710   4.1272210
  16.1264590 127.2059980   2.2808120  16.5672680 127.1505080   1.4329720
  15.8572180 128.1217990   2.3518300  10.4238870 143.6862780  11.0230720
  11.3506180 143.4507050  11.0666680  10.4089300 144.5134780  10.5416750
   7.6102480 126.3507530  10.7872600   7.3286750 126.8541130  10.0233420
   7.9922180 125.5529280  10.4214730  14.2117940 125.7661110  11.3653070
  14.0983390 126.0855720  12.2604590  15.0287680 126.1673620  11.0690350
  16.9916430 142.9132640  10.8471760  17.7841750 142.4181870  10.6397720
  17.2849580 143.5922780  11.4547370  13.1176090 115.0110090 150.6979220
  13.0370140 114.0964700 150.4270930  12.7040510 115.5077160 149.9918930
  11.2494130 116.7889110 152.5788490  10.4736230 116.3089550 152.8687060
  11.9007060 116.1094760 152.4044650  15.2701560 121.1949300 151.3587620
  14.8083090 120.4236540 151.6874790  16.0827110 121.2215370 151.8640070
   3.6751910 112.0610810 147.2406640   2.7868610 112.4026780 147.1386520
   3.9593100 111.8611130 146.3487470  11.4964870 123.4807310 150.9791610
  10.8776310 123.9364810 150.4086050  12.3516650 123.6358770 150.5781310
  10.6903120 119.4646300 152.5858650  10.6211400 118.5236240 152.4247780
  11.4522980 119.5547710 153.1581220  11.7208290 112.2716680 152.8127580
  12.0973110 111.3988560 152.7001250  11.6227800 112.6075380 151.9218020
   5.8513300 110.6442310 148.2745020   5.9580050 111.5446040 148.5813780
   4.9405660 110.5960280 147.9839670  15.5032410 109.7667120 149.7455920
  16.3242030 109.2763690 149.7881400  15.5366490 110.3564780 150.4987760
  12.3628220 118.3646550 148.3723520  11.7445490 118.8296000 147.8086240
  12.8751470 119.0574030 148.7893030  15.7393890 111.7067500 152.5183460
  15.0349460 111.9952390 153.0986570  16.1006050 112.5167610 152.1583020
   9.3400350 107.4519470 151.2048660   9.6475330 106.8966360 150.4884160
   8.4101050 107.5863930 151.0221650  16.1860830 119.8902980 148.5846290
  16.0757160 118.9477310 148.7095710  16.1829080 120.2518620 149.4709050
  11.7281110 115.5168300 147.9408780  10.8010390 115.4505680 148.1697250
  11.8805930 116.4548430 147.8264020  11.7150190 111.7885300 144.9375940
  10.7753860 111.9499260 145.0228400  12.0333450 112.5070980 144.3911930
  15.7578400 117.0788600 148.4444030  15.1390820 116.7408150 147.7970330
  15.7402850 116.4348360 149.1523220   7.3337750 116.0433040 150.7228510
   6.9294750 115.3310290 150.2274410   7.4200870 115.6986280 151.6116550
   7.8019450 119.7300600 152.8867720   7.5047740 119.1246070 152.2075500
   8.7519270 119.7677910 152.7757080  13.9343100 116.3175410 145.4516780
  14.3736380 115.4797840 145.3054600  14.6471520 116.9504810 145.5380920
  12.0438480 121.2571480 149.4198020  12.4834390 121.9995810 149.0053410
  11.9825370 121.4998050 150.3436980  17.5160240 107.5718220 143.7657820
  17.2032900 107.6645050 144.6656890  18.2772710 108.1499250 143.7155250
   4.0342380 114.9378020 148.2235160   3.9139980 115.6640110 147.6116430
   3.7243270 114.1680930 147.7463070   2.9175380 119.8093350 150.4409980
   2.5103460 119.9507940 149.5863580   3.8088390 119.5253510 150.2381190
  14.7108660 124.2440600 146.7761030  14.5509800 123.9543540 147.6742860
  14.5455370 123.4680730 146.2406260   7.1897040 124.0239130 148.5532650
   7.0139520 123.1074670 148.3400450   6.3352780 124.3826420 148.7930450
  14.4134790 121.7528160 145.3359030  13.7199950 121.7505450 144.6761310
  15.1557650 121.3287480 144.9053200  13.9784720 123.3790870 149.4107520
  14.4341670 122.5980250 149.7246140  14.3177240 124.0897690 149.9548700
   6.5006040 108.2813090 151.6058830   6.0574190 109.0622630 151.2743350
   7.0591030 108.6042980 152.3129770   9.6164860 107.9023790 146.4864660
   8.9919040 107.8983660 147.2117970   9.5294980 107.0354750 146.0900630
   6.2920260 113.4046660 149.3340080   6.0661180 113.1883830 150.2386700
   5.5112790 113.8375120 148.9886050  13.5218020 113.4110030 147.9330730
  12.9226910 114.1345830 147.7494350  14.0697630 113.3486810 147.1507180
  12.1282890 112.0473570 149.9634010  12.5212460 112.3645770 149.1502700
  12.4899740 111.1685450 150.0778530   9.1515420 111.3133520 152.4637280
   9.1551480 110.8723470 151.6141820  10.0466540 111.6350850 152.5709100
   5.0017800 111.1960010 151.4231490   4.6617850 111.6735240 152.1798540
   4.2395120 110.7425130 151.0632590   9.2135570 112.3145600 145.4544040
   9.3348390 112.2732080 146.4029860   8.8284080 113.1769750 145.2990770
   8.2257070 114.6246740 144.8527340   7.6573970 114.1764990 144.2263250
   8.9346070 114.9839520 144.3192490   2.3163880 110.1178990 150.3396160
   2.0310800 109.7534660 151.1774780   2.2542740 109.3859450 149.7259300
   5.7704550 118.6204930 147.1253750   4.9966810 118.0802550 146.9652470
   6.4999180 118.1011540 146.7871510  16.5292530 117.6170290 152.9180140
  17.2491650 118.1125580 152.5276250  16.3274350 116.9388180 152.2734010
  11.9902470 109.0108250 147.0609530  11.1767080 108.5121420 146.9854840
  11.7964420 109.8506500 146.6445880  14.7050860 113.3827900 145.3571690
  15.5930480 113.6945130 145.1823030  14.6755950 112.5100150 144.9652270
   5.8141950 118.2885310 150.7632560   6.3320620 117.4853570 150.7089450
   5.3625970 118.2264450 151.6049390  10.7011450 119.5551590 146.0359860
  11.0427150 120.2993820 145.5403180   9.8724160 119.8682710 146.3984690
  16.9765130 114.6939740 144.8251550  16.8928850 115.1253960 143.9747990
  17.6959320 115.1538090 145.2578370  18.0052380 121.5482000 147.5533680
  17.3628540 120.8937620 147.8277400  17.6183040 121.9537090 146.7774350
  13.5838860 118.8767430 151.4005370  13.9362680 118.2795560 150.7406740
  12.7001190 118.5511660 151.5713620   9.6702140 119.6365120 148.8075780
  10.3573270 120.1834330 149.1883370   8.8834560 120.1805850 148.8425390
   8.9729350 116.6411150 148.4201140   9.4292130 117.4516400 148.6461330
   8.6217560 116.3234290 149.2519630   4.8741130 106.9848800 148.8923660
   4.7455760 106.9766700 149.8408580   4.0503150 107.3231890 148.5414670
  16.3949760 120.4398460 144.0910030  16.1687340 119.7228900 144.6834670
  16.0045960 120.1910900 143.2531780   2.1765790 124.4665320 144.8654490
   2.5363430 125.0654660 144.2111760   2.0358130 125.0125210 145.6389520
  15.9766010 118.3570400 145.7524190  15.6887710 118.8183090 146.5402070
  16.7718180 117.8968170 146.0208410   8.1934410 121.8496520 145.6828160
   8.1844510 122.5826210 145.0672670   7.2732770 121.6028100 145.7755120
   3.7941050 117.0711410 146.4274920   3.1869000 117.8110310 146.4370220
   4.2690400 117.1610770 145.6013120  16.7335870 110.1919170 146.9119370
  16.1049030 110.2964840 146.1977600  16.2387790 110.4115950 147.7013250
  11.1794010 121.9124760 144.3453350  11.2805990 121.7088750 143.4155330
  10.2795750 121.6583040 144.5501130   8.7019900 112.4705120 148.3277250
   7.9936050 112.9391460 148.7690860   8.9864380 111.8127130 148.9622440
  12.7335330 109.1955780 149.7673040  12.6103110 109.2141910 148.8182550
  13.6819890 109.2434720 149.8871440   9.8212120 124.4311080 149.0401020
  10.0753620 124.3932470 148.1180390   8.8724600 124.3044410 149.0329270
   6.9054920 110.7790200 145.7027960   7.7545450 111.2160350 145.6368150
   6.5386190 111.0910460 146.5300020  15.8264700 115.3502960 150.6159530
  14.8854840 115.3653190 150.7907220  16.1408770 114.5638920 151.0619830
   5.8046340 117.0322560 144.1763490   6.5709610 116.9203920 144.7388920
   5.8821030 116.3360530 143.5240260   4.4993100 114.4647630 144.8596380
   4.5796690 113.5175140 144.9713780   5.3912850 114.7954510 144.9657040
  17.8290280 122.5211810 152.2913790  17.9537700 123.3442980 152.7637600
  18.6955840 122.3102540 151.9437940   5.3007810 124.6143020 151.9630920
   6.0370290 124.0658480 152.2339490   5.6848730 125.4799030 151.8236910
   8.4110120 123.7873330 143.7856490   9.2038730 124.0762160 143.3338280
   7.8914470 123.3565500 143.1068970  17.4640290 123.0143460 145.2093230
  17.1781800 122.6008600 144.3947410  17.2659840 123.9431170 145.0893750
   8.9287520 119.0076740 143.6498840   8.8238160 118.3929090 144.3760220
   8.7611740 118.4842630 142.8661850  12.1690250 118.0696770 144.2540830
  11.6200350 118.5166070 144.8983570  12.7909510 117.5646020 144.7778500
   7.8365370 117.0287690 146.1506130   8.2581790 116.8627560 146.9937520
   7.9616210 116.2187920 145.6561270  10.3493010 116.0525300 143.3983230
  10.8698670 115.3374320 143.0324380  10.9961410 116.6911170 143.6983740
   6.7324270 113.1020920 143.0964290   6.5313330 112.2388280 143.4577630
   6.5616320 113.0154280 142.1585890  14.2112580 107.9129150 145.6251170
  14.4914870 107.0697050 145.9810590  13.4378310 108.1452260 146.1389920
   5.5307070 110.2021540 143.0842170   5.8332970 110.2088970 142.1761320
   6.2701660 109.8519400 143.5809830   8.7492000 109.1456160 144.0698370
   8.4014000 108.4680150 143.4900820   8.9504770 108.6845670 144.8841760
  10.9141040 124.1336910 145.6884970  11.8091830 124.4721880 145.7103730
  10.9458670 123.4116320 145.0609250   4.5537200 119.5063960 143.9171970
   4.9912070 120.0493630 144.5729550   5.0384930 118.6810910 143.9268310
   1.7683000 122.2952990 151.3692230   2.0986010 121.4274050 151.1370870
   2.1974000 122.5011510 152.1997190   6.3644920 120.6262000 149.0294200
   6.0640460 120.5026970 149.9298110   6.2582410 119.7670590 148.6209930
  19.1336840 120.4058400 143.7320880  18.3029800 120.4735050 144.2028110
  19.3108670 121.2962520 143.4287740  18.5893300 117.1505880 146.2355080
  19.3512210 117.7202530 146.3414770  18.6047670 116.5833080 147.0063390
  19.5953270 118.0055980 151.0797010  19.9662100 117.2223300 150.6732980
  20.2355200 118.6945080 150.9014310  18.6412470 117.4440250 143.3927600
  18.9161310 118.3519130 143.2646820  18.4523210 117.3802780 144.3289590
  15.0388080 110.4685100 144.6881230  15.4572960 110.2816080 143.8477890
  14.7324140 109.6164150 144.9984160  18.5377810 115.3809240 148.3857030
  18.1621410 114.6137170 147.9538320  17.8080930 115.7631940 148.8731960
  17.8128770 113.6066730 151.6864270  18.3366250 113.1129380 151.0554440
  18.3988190 113.7417090 152.4311840   3.8462930 111.9408280 144.3182450
   4.5554630 111.5191500 143.8329730   3.1302870 112.0083510 143.6865800
   3.4937090 107.9947610 143.3585100   4.2165220 108.5356550 143.6766320
   3.7661610 107.7211030 142.4826640  17.3028740 112.8640080 147.6256680
  17.7987860 112.6310950 148.4105560  17.1044810 112.0251920 147.2094320
  18.7315900 111.5001030 150.1594360  18.6215180 111.3457070 151.0976630
  19.4923490 110.9721970 149.9169770  19.6206170 109.3308950 143.4000500
  20.5455480 109.1990130 143.1918790  19.5981960 109.4101770 144.3536950
  19.6944660 110.1019610 146.0257210  18.8996160 110.0364730 146.5550120
  19.8987940 111.0370250 146.0142560  16.6363080 124.1411160 150.0195600
  17.2322150 123.8195730 149.3430020  16.8941230 123.6682980 150.8108870
  16.1264590 108.4316490 152.4756040  16.5672680 108.3761590 151.6277640
  15.8572180 109.3474500 152.5466220  17.9903160 108.0631730 150.4864860
  17.9291560 107.1192950 150.3395880  18.7695190 108.1711820 151.0318320
   2.9183930 108.0340870 146.9520670   3.6763290 108.1469750 146.3784700
   2.4561100 108.8710070 146.9064100   9.4597740 110.1480140 149.9422980
   8.6472250 109.7737030 149.6018860   9.9639380 109.3925220 150.2444170
  13.9622720 106.8122590 151.1806050  14.5652090 107.3842800 151.6554570
  13.2215710 107.3762030 150.9579950  17.1057320 107.2144150 146.4546330
  17.3007950 108.1127600 146.7213760  16.3187190 106.9831230 146.9479280
   3.9018610 122.8957320 146.8938950   3.3766230 123.2765350 146.1900910
   3.8263190 123.5208090 147.6148660   5.2909080 108.5604920 145.4922640
   5.8201840 107.7734720 145.3630590   5.9237400 109.2396110 145.7258170
   7.4846920 108.2980060 148.5468030   6.8549660 107.5967370 148.7138160
   6.9452060 109.0584190 148.3301190  18.6583930 124.4544860 148.2152890
  18.8336120 123.7682600 147.5713810  17.9605500 124.9791910 147.8229560
   6.5011580 124.8439700 145.7688200   7.2330400 124.5598980 145.2212090
   6.7605250 124.6052980 146.6587580   5.6626370 120.9604430 145.7734530
   5.0335250 121.4289530 146.3220360   5.7774200 120.1153650 146.2080720
  13.1176090 115.0110090 131.9235730  13.0370140 114.0964700 131.6527440
  12.7040510 115.5077160 131.2175440  11.2494130 116.7889110 133.8045000
  10.4736230 116.3089550 134.0943570  11.9007060 116.1094760 133.6301160
   5.2659960 117.1008920 134.6820760   4.4344840 116.8457630 135.0817270
   5.8740940 117.1719690 135.4178680  15.2701560 121.1949300 132.5844130
  14.8083090 120.4236540 132.9131300  16.0827110 121.2215370 133.0896580
   5.2461220 121.1349010 134.8778780   5.5489260 120.2446750 134.6989000
   5.9904810 121.6919230 134.6501030   3.6751910 112.0610810 128.4663150
   2.7868610 112.4026780 128.3643030   3.9593100 111.8611130 127.5743980
  11.4964870 123.4807310 132.2048120  10.8776310 123.9364810 131.6342560
  12.3516650 123.6358770 131.8037820  10.6903120 119.4646300 133.8115160
  10.6211400 118.5236240 133.6504290  11.4522980 119.5547710 134.3837730
   2.8809790 110.0700820 136.1371780   2.7012630 109.1726570 136.4174540
   2.4789870 110.6172690 136.8118730  11.7208290 112.2716680 134.0384090
  12.0973110 111.3988560 133.9257760  11.6227800 112.6075380 133.1474530
   5.8513300 110.6442310 129.5001530   5.9580050 111.5446040 129.8070290
   4.9405660 110.5960280 129.2096180  15.5032410 109.7667120 130.9712430
  16.3242030 109.2763690 131.0137910  15.5366490 110.3564780 131.7244270
   3.4996460 112.5661320 134.7454120   4.1806570 112.8299690 135.3641520
   3.1844510 111.7262190 135.0792130   7.6921030 113.6128680 133.8326710
   8.1999250 114.1109650 134.4731730   8.2234270 112.8363880 133.6566070
  19.7931960 111.7833870 137.5356060  19.0884130 112.1715580 137.0171170
  20.0589880 112.4784160 138.1376990   5.9757130 108.2527240 138.0990130
   5.9775570 108.7699630 137.2936030   5.1461440 107.7757420 138.0760060
  12.3628220 118.3646550 129.5980030  11.7445490 118.8296000 129.0342750
  12.8751470 119.0574030 130.0149540   7.2259980 117.8922420 136.2763630
   6.8929360 118.5191340 136.9184700   7.4026660 118.4184300 135.4965300
  15.7393890 111.7067500 133.7439970  15.0349460 111.9952390 134.3243080
  16.1006050 112.5167610 133.3839530   5.6572460 109.9637200 136.1060580
   5.9989270 110.8079250 135.8114450   4.7188270 110.1120940 136.2225920
   6.4379080 119.8603220 138.0912810   7.0553080 120.5354300 137.8097260
   5.5772200 120.2691200 138.0000310  17.3556670 121.3242630 136.0067450
  16.6720190 121.9941740 135.9984120  17.8950960 121.5223280 135.2412310
  18.8080810 111.1522290 134.1349180  17.8605720 111.1861270 134.2664610
  19.1330800 111.9661240 134.5198540   9.3400350 107.4519470 132.4305170
   9.6475330 106.8966360 131.7140670   8.4101050 107.5863930 132.2478160
  14.8915410 123.1686760 134.7212630  14.9042570 122.7649050 133.8534890
  14.3390630 123.9434050 134.6174060  16.1860830 119.8902980 129.8102800
  16.0757160 118.9477310 129.9352220  16.1829080 120.2518620 130.6965560
  14.2900850 118.0716600 136.0495240  14.7069640 117.8576710 135.2148700
  15.0140670 118.3289390 136.6203860  11.7281110 115.5168300 129.1665290
  10.8010390 115.4505680 129.3953760  11.8805930 116.4548430 129.0520530
  11.7150190 111.7885300 126.1632450  10.7753860 111.9499260 126.2484910
  12.0333450 112.5070980 125.6168440  18.2362950 116.4703820 136.1411480
  17.4081580 116.5396910 135.6661610  18.8313430 117.0558130 135.6727310
  15.7578400 117.0788600 129.6700540  15.1390820 116.7408150 129.0226840
  15.7402850 116.4348360 130.3779730  15.2004960 113.2573140 137.0866350
  14.7876140 114.0826850 137.3406340  14.4680910 112.6718180 136.8942710
   7.3337750 116.0433040 131.9485020   6.9294750 115.3310290 131.4530920
   7.4200870 115.6986280 132.8373060   7.8019450 119.7300600 134.1124230
   7.5047740 119.1246070 133.4332010   8.7519270 119.7677910 134.0013590
   6.0466370 112.8176250 135.7284060   6.5980960 112.9271590 134.9537310
   6.5609880 113.1913850 136.4439290  15.8905060 123.3032470 137.7747330
  15.4135620 124.1104660 137.5819940  15.2066850 122.6510800 137.9273540
   6.8937880 119.4682290 140.7632030   5.9966410 119.6922260 141.0105430
   6.9190750 119.5917230 139.8143430  13.9343100 116.3175410 126.6773290
  14.3736380 115.4797840 126.5311110  14.6471520 116.9504810 126.7637430
   5.7209100 116.3395610 139.3389400   5.5816870 117.2118410 139.7076800
   4.8390460 115.9968420 139.1937340  12.0438480 121.2571480 130.6454530
  12.4834390 121.9995810 130.2309920  11.9825370 121.4998050 131.5693490
   7.5189450 122.2817310 141.5474550   7.4904880 122.6860260 140.6802980
   7.3554420 121.3527670 141.3846150  17.5160240 107.5718220 124.9914330
  17.2032900 107.6645050 125.8913400  18.2772710 108.1499250 124.9411760
   4.0342380 114.9378020 129.4491670   3.9139980 115.6640110 128.8372940
   3.7243270 114.1680930 128.9719580  19.4704270 123.0644410 142.8438720
  19.9463990 123.5427300 143.5227800  20.0911430 122.9961900 142.1184220
   2.9175380 119.8093350 131.6666490   2.5103460 119.9507940 130.8120090
   3.8088390 119.5253510 131.4637700  18.8737520 120.2557260 140.0038730
  19.0000580 120.0169140 139.0855910  18.9158900 119.4241800 140.4760810
  12.7354260 123.9585260 138.5733540  13.2498930 123.8693270 139.3755970
  11.8923340 124.3044960 138.8661450  14.7108660 124.2440600 128.0017540
  14.5509800 123.9543540 128.8999370  14.5455370 123.4680730 127.4662770
   7.1897040 124.0239130 129.7789160   7.0139520 123.1074670 129.5656960
   6.3352780 124.3826420 130.0186960  14.4134790 121.7528160 126.5615540
  13.7199950 121.7505450 125.9017820  15.1557650 121.3287480 126.1309710
  13.9784720 123.3790870 130.6364030  14.4341670 122.5980250 130.9502650
  14.3177240 124.0897690 131.1805210  18.7261530 112.3089720 140.9688470
  18.1105800 112.8169390 140.4403930  18.4057950 111.4088050 140.9114410
   6.5006040 108.2813090 132.8315340   6.0574190 109.0622630 132.4999860
   7.0591030 108.6042980 133.5386280  10.7875850 111.1481610 138.4350660
  10.3255220 111.3564630 139.2470600  10.3853960 110.3340960 138.1321330
  15.7880360 112.3690560 139.5647320  14.9373950 112.0696310 139.8856390
  15.6282150 112.6132570 138.6531140  12.8830070 113.8692310 141.6646110
  13.2083480 113.0356060 141.3248340  13.6710400 114.3920830 141.8124440
   9.6164860 107.9023790 127.7121170   8.9919040 107.8983660 128.4374480
   9.5294980 107.0354750 127.3157140   8.5381940 108.8260420 134.6904940
   8.8354270 109.7323250 134.6096960   9.0867500 108.3379200 134.0764510
   6.2920260 113.4046660 130.5596590   6.0661180 113.1883830 131.4643210
   5.5112790 113.8375120 130.2142560  13.5218020 113.4110030 129.1587240
  12.9226910 114.1345830 128.9750860  14.0697630 113.3486810 128.3763690
   8.7319470 114.3032240 141.2256860   8.6363070 113.3626970 141.0757260
   9.5751450 114.5247310 140.8304930  12.1282890 112.0473570 131.1890520
  12.5212460 112.3645770 130.3759210  12.4899740 111.1685450 131.3035040
   3.8630010 110.7145910 139.3790640   3.4693400 111.5621120 139.5863420
   3.1748410 110.0772280 139.5699280  10.4375060 110.7980880 142.4487380
   9.7473380 110.6053080 143.0833470  11.1807360 111.0815520 142.9811680
  12.7138030 114.6379320 135.2841300  11.9819150 115.1466130 135.6331400
  12.3162370 113.8209300 134.9830080   9.1515420 111.3133520 133.6893790
   9.1551480 110.8723470 132.8398330  10.0466540 111.6350850 133.7965610
   5.0017800 111.1960010 132.6488000   4.6617850 111.6735240 133.4055050
   4.2395120 110.7425130 132.2889100   9.2135570 112.3145600 126.6800550
   9.3348390 112.2732080 127.6286370   8.8284080 113.1769750 126.5247280
  13.1763940 110.0913000 134.6964240  13.1936680 110.5421650 135.5406090
  12.9279520 109.1918640 134.9097680   8.2257070 114.6246740 126.0783850
   7.6573970 114.1764990 125.4519760   8.9346070 114.9839520 125.5449000
  16.6034690 107.5045180 140.5350620  16.9280460 106.7734840 141.0608600
  16.6391200 107.1858820 139.6331610   3.3026250 118.5258760 139.9550580
   2.9181040 117.8852430 140.5533540   3.6138440 119.2294880 140.5245310
   9.4523390 115.3735300 135.4359200   9.8193520 114.8993870 136.1820540
   9.2628450 116.2476870 135.7767540   2.3163880 110.1178990 131.5652670
   2.0310800 109.7534660 132.4031290   2.2542740 109.3859450 130.9515810
   7.2422760 114.4143940 137.7543410   6.9379830 115.2935920 137.9793770
   8.1969220 114.4743730 137.7900850   5.7704550 118.6204930 128.3510260
   4.9966810 118.0802550 128.1908980   6.4999180 118.1011540 128.0128020
  16.5292530 117.6170290 134.1436650  17.2491650 118.1125580 133.7532760
  16.3274350 116.9388180 133.4990520  11.9902470 109.0108250 128.2866040
  11.1767080 108.5121420 128.2111350  11.7964420 109.8506500 127.8702390
  11.9111330 117.6879350 140.0305650  11.8448640 116.7675020 139.7763240
  11.2816470 117.7854790 140.7450290  14.7050860 113.3827900 126.5828200
  15.5930480 113.6945130 126.4079540  14.6755950 112.5100150 126.1908780
   5.8141950 118.2885310 131.9889070   6.3320620 117.4853570 131.9345960
   5.3625970 118.2264450 132.8305900  10.7011450 119.5551590 127.2616370
  11.0427150 120.2993820 126.7659690   9.8724160 119.8682710 127.6241200
   3.2986490 115.2546680 138.9014770   2.9401430 115.9200530 139.4888110
   3.0041050 114.4230230 139.2727390   6.4999610 115.7130920 141.7854320
   6.1999750 115.8588100 140.8882140   7.2710850 115.1536210 141.6927710
  11.8428060 120.5099920 139.7809450  11.8572600 119.5780880 139.5628360
  11.1353160 120.5959680 140.4199220  16.9765130 114.6939740 126.0508060
  16.8928850 115.1253960 125.2004500  17.6959320 115.1538090 126.4834880
  18.0539270 117.1507260 139.1278030  17.3287460 117.7436040 138.9307420
  18.5814730 117.1430800 138.3291400  18.0052380 121.5482000 128.7790190
  17.3628540 120.8937620 129.0533910  17.6183040 121.9537090 128.0030860
  13.5838860 118.8767430 132.6261880  13.9362680 118.2795560 131.9663250
  12.7001190 118.5511660 132.7970130   9.6702140 119.6365120 130.0332290
  10.3573270 120.1834330 130.4139880   8.8834560 120.1805850 130.0681900
   8.9729350 116.6411150 129.6457650   9.4292130 117.4516400 129.8717840
   8.6217560 116.3234290 130.4776140  11.2761960 122.1517490 136.8749950
  11.9204180 122.3576870 137.5523370  11.6391400 121.3905890 136.4220800
   4.8741130 106.9848800 130.1180170   4.7455760 106.9766700 131.0665090
   4.0503150 107.3231890 129.7671180  12.5494040 120.1549840 135.5927400
  13.1916270 119.4543000 135.7059570  13.0743390 120.9348280 135.4124290
  16.3949760 120.4398460 125.3166540  16.1687340 119.7228900 125.9091180
  16.0045960 120.1910900 124.4788290  14.3231660 120.9544740 138.7963460
  14.6587900 121.5411430 139.4741380  13.4032000 120.8237450 139.0261250
   2.1765790 124.4665320 126.0911000   2.5363430 125.0654660 125.4368270
   2.0358130 125.0125210 126.8646030  15.9766010 118.3570400 126.9780700
  15.6887710 118.8183090 127.7658580  16.7718180 117.8968170 127.2464920
  10.1520240 121.0036070 141.9651520   9.8317110 120.2845310 142.5097210
   9.4778600 121.6791140 142.0387580   8.1934410 121.8496520 126.9084670
   8.1844510 122.5826210 126.2929180   7.2732770 121.6028100 127.0011630
   3.7941050 117.0711410 127.6531430   3.1869000 117.8110310 127.6626730
   4.2690400 117.1610770 126.8269630  13.3673840 111.2362230 137.3288320
  13.7354660 110.4157440 137.6567890  12.5072040 111.2964120 137.7443970
  16.7335870 110.1919170 128.1375880  16.1049030 110.2964840 127.4234110
  16.2387790 110.4115950 128.9269760  11.1794010 121.9124760 125.5709860
  11.2805990 121.7088750 124.6411840  10.2795750 121.6583040 125.7757640
   8.7019900 112.4705120 129.5533760   7.9936050 112.9391460 129.9947370
   8.9864380 111.8127130 130.1878950  10.3275830 113.8901820 137.5526290
  10.8261080 114.3647640 138.2178140  10.4698780 112.9665340 137.7596320
  12.7335330 109.1955780 130.9929550  12.6103110 109.2141910 130.0439060
  13.6819890 109.2434720 131.1127950   9.8212120 124.4311080 130.2657530
  10.0753620 124.3932470 129.3436900   8.8724600 124.3044410 130.2585780
   6.9054920 110.7790200 126.9284470   7.7545450 111.2160350 126.8624660
   6.5386190 111.0910460 127.7556530  17.5342690 110.1069780 138.3954680
  17.0316290 110.8475180 138.7348490  18.3499350 110.4953780 138.0791470
  15.8264700 115.3502960 131.8416040  14.8854840 115.3653190 132.0163730
  16.1408770 114.5638920 132.2876340   5.8046340 117.0322560 125.4020000
   6.5709610 116.9203920 125.9645430   5.8821030 116.3360530 124.7496770
   4.4993100 114.4647630 126.0852890   4.5796690 113.5175140 126.1970290
   5.3912850 114.7954510 126.1913550  17.8290280 122.5211810 133.5170300
  17.9537700 123.3442980 133.9894110  18.6955840 122.3102540 133.1694450
   5.3007810 124.6143020 133.1887430   6.0370290 124.0658480 133.4596000
   5.6848730 125.4799030 133.0493420   4.3066090 123.7989090 142.3773010
   5.1078820 124.1201140 142.7908410   3.7917910 123.4384670 143.0992920
   8.4110120 123.7873330 125.0113000   9.2038730 124.0762160 124.5594790
   7.8914470 123.3565500 124.3325480  13.1430720 119.9068960 142.3248420
  12.5368880 119.9300560 141.5844170  12.8384830 119.1752000 142.8615670
  14.5731090 123.6349250 140.9357830  15.5252840 123.5507270 140.8858070
  14.4259310 124.2990960 141.6091620  17.4640290 123.0143460 126.4349740
  17.1781800 122.6008600 125.6203920  17.2659840 123.9431170 126.3150260
   8.9287520 119.0076740 124.8755350   8.8238160 118.3929090 125.6016730
   8.7611740 118.4842630 124.0918360   9.0801840 117.6933540 140.8544580
   8.3147510 118.2618540 140.7699250   9.2617800 117.4009750 139.9612810
  12.1690250 118.0696770 125.4797340  11.6200350 118.5166070 126.1240080
  12.7909510 117.5646020 126.0035010  16.2225190 119.4238870 141.4119600
  16.9634660 119.7614630 140.9087060  15.4597870 119.5930930 140.8589370
   4.0586980 114.4292140 142.2159130   4.0992320 114.1306010 143.1244360
   4.9132480 114.8299750 142.0566650   7.8365370 117.0287690 127.3762640
   8.2581790 116.8627560 128.2194030   7.9616210 116.2187920 126.8817780
   5.9992790 113.0084240 140.1833620   5.4689250 112.5175190 139.5556960
   6.6680860 113.4368440 139.6491550  10.3493010 116.0525300 124.6239740
  10.8698670 115.3374320 124.2580890  10.9961410 116.6911170 124.9240250
  14.8970850 117.4753700 139.9474810  15.3111870 117.6298780 140.7965230
  13.9621850 117.6008920 140.1100590  15.3693020 114.8149860 141.9513960
  15.9513790 114.0602180 141.8634440  15.5454790 115.3457300 141.1745440
   6.4865090 109.9746610 140.2630910   6.3921960 109.3567360 139.5381780
   5.9062480 110.7012900 140.0360820   9.2526530 108.5319850 137.2958300
   8.8043830 108.5544110 136.4503850   8.6191730 108.1338870 137.8928600
   9.6586080 117.4274180 137.9170740  10.0774190 118.2706910 137.7446980
   8.7394710 117.5646220 137.6877520  11.9949980 115.1590360 139.3008580
  12.1146190 114.5631500 140.0403420  12.8543980 115.1960050 138.8809880
  14.3337880 115.7127550 137.8771090  13.8073100 116.2370170 137.2736230
  14.6769220 116.3454940 138.5080820   6.7324270 113.1020920 124.3220800
   6.5313330 112.2388280 124.6834140   6.5616320 113.0154280 123.3842400
   7.5093500 123.7327190 139.0328470   6.9714590 124.4573250 138.7137170
   7.7627460 123.2557530 138.2425810   8.7618750 111.7011710 140.5584400
   9.3518440 111.3927560 141.2462220   7.9438990 111.2291460 140.7144300
  13.5812180 111.3177520 140.7917420  12.8927700 110.6559060 140.7267410
  14.3018200 110.8715790 141.2365880  14.2112580 107.9129150 126.8507680
  14.4914870 107.0697050 127.2067100  13.4378310 108.1452260 127.3646430
   5.5307070 110.2021540 124.3098680   5.8332970 110.2088970 123.4017830
   6.2701660 109.8519400 124.8066340  10.3655710 124.9678400 139.2915120
  10.2914410 125.8713540 139.5987490   9.4634550 124.6490300 139.2637190
   8.7492000 109.1456160 125.2954880   8.4014000 108.4680150 124.7157330
   8.9504770 108.6845670 126.1098270  10.9141040 124.1336910 126.9141480
  11.8091830 124.4721880 126.9360240  10.9458670 123.4116320 126.2865760
   4.5537200 119.5063960 125.1428480   4.9912070 120.0493630 125.7986060
   5.0384930 118.6810910 125.1524820   1.7683000 122.2952990 132.5948740
   2.0986010 121.4274050 132.3627380   2.1974000 122.5011510 133.4253700
   6.3644920 120.6262000 130.2550710   6.0640460 120.5026970 131.1554620
   6.2582410 119.7670590 129.8466440   2.2573210 123.1623580 135.3330370
   1.8204200 123.3424380 136.1654520   2.8250890 123.9198200 135.1912090
  17.8935390 122.6640580 139.6207680  17.2937380 122.7233140 138.8771600
  18.0229290 121.7245560 139.7504530  19.1336840 120.4058400 124.9577390
  18.3029800 120.4735050 125.4284620  19.3108670 121.2962520 124.6544250
  18.5893300 117.1505880 127.4611590  19.3512210 117.7202530 127.5671280
  18.6047670 116.5833080 128.2319900  19.5953270 118.0055980 132.3053520
  19.9662100 117.2223300 131.8989490  20.2355200 118.6945080 132.1270820
  16.5787030 119.3892560 137.7183840  15.7646870 119.8189720 137.9809630
  16.9861230 120.0010970 137.1052890  18.6412470 117.4440250 124.6184110
  18.9161310 118.3519130 124.4903330  18.4523210 117.3802780 125.5546100
  15.0388080 110.4685100 125.9137740  15.4572960 110.2816080 125.0734400
  14.7324140 109.6164150 126.2240670  18.5377810 115.3809240 129.6113540
  18.1621410 114.6137170 129.1794830  17.8080930 115.7631940 130.0988470
   3.1273570 116.0596380 136.2322590   3.4946610 115.9723780 137.1118610
   2.5584390 115.2962930 136.1329450  17.9277430 114.5280760 139.2453060
  17.6963520 114.2993510 138.3451010  18.1881980 115.4480310 139.1997950
   2.6789570 112.9705470 140.1381010   1.7845620 112.9372230 140.4774720
   3.2187120 113.1692260 140.9032260  16.3665500 109.7537190 142.0232760
  17.2435680 109.7620590 142.4066760  16.3786340 109.0168030 141.4125110
  17.8128770 113.6066730 132.9120780  18.3366250 113.1129380 132.2810950
  18.3988190 113.7417090 133.6568350  17.9918490 113.6906600 136.4340330
  17.0421200 113.6570140 136.5485320  18.1731500 114.6006710 136.1990100
   3.8462930 111.9408280 125.5438960   4.5554630 111.5191500 125.0586240
   3.1302870 112.0083510 124.9122310   3.4937090 107.9947610 124.5841610
   4.2165220 108.5356550 124.9022830   3.7661610 107.7211030 123.7083150
  17.3028740 112.8640080 128.8513190  17.7987860 112.6310950 129.6362070
  17.1044810 112.0251920 128.4350830   3.1829280 107.2453800 134.4864230
   3.8305470 106.6951180 134.0459390   3.6031120 107.4996950 135.3080040
  18.7315900 111.5001030 131.3850870  18.6215180 111.3457070 132.3233140
  19.4923490 110.9721970 131.1426280  17.0781620 107.4395160 137.8433870
  17.7153840 108.0529300 138.2093060  17.2256510 107.4755820 136.8983100
  19.6206170 109.3308950 124.6257010  20.5455480 109.1990130 124.4175300
  19.5981960 109.4101770 125.5793460  19.6944660 110.1019610 127.2513720
  18.8996160 110.0364730 127.7806630  19.8987940 111.0370250 127.2399070
  16.6363080 124.1411160 131.2452110  17.2322150 123.8195730 130.5686530
  16.8941230 123.6682980 132.0365380   2.9361280 107.4009470 137.2289550
   2.5876100 107.8573290 137.9947730   2.6048980 106.5066600 137.3111980
   4.5425650 120.5729070 141.3942740   4.4995280 120.2021980 142.2757200
   4.6736660 121.5106640 141.5344560   8.2431680 122.1288660 136.9952460
   8.0023040 122.3963220 136.1082980   9.1834320 122.2994390 137.0503320
  10.4486100 108.5921350 140.7508970  10.3874990 109.1843180 141.5004380
  11.3886480 108.4847310 140.6059230  13.0860660 108.2491410 140.3901260
  13.7001070 108.5670700 139.7282340  13.6310220 107.7640000 141.0097120
  19.5035840 124.1483040 137.7963100  19.0094120 124.5451910 137.0790230
  18.8949130 123.5232250 138.1900380   3.6081920 106.9285670 140.5040320
   4.1564910 106.7473720 139.7406430   3.6737230 106.1379780 141.0396630
   4.3813680 123.5191320 138.5140520   3.7874000 123.3876020 139.2530560
   4.3737520 122.6829460 138.0482620  13.8268700 106.8123550 136.7170550
  12.9528540 107.1458660 136.5143480  13.7179450 106.3396730 137.5422420
  14.7340680 109.0194420 138.1012270  14.4054040 108.2046180 137.7214000
  15.6822980 108.9764230 137.9777960  17.1875290 124.7906460 135.0749840
  16.7278260 125.5422270 134.7007860  16.5587750 124.0712930 135.0164640
   4.0125910 120.8849700 137.4648560   3.2859970 120.2654990 137.3974510
   4.0735060 121.2790310 136.5946640   7.6171010 123.0994700 134.2497970
   8.1336030 122.4882060 133.7246230   8.2668390 123.6023480 134.7408980
  10.3566510 123.9903190 135.0766950  10.6444320 123.7357490 134.1999960
  10.8689730 123.4380550 135.6672520  11.5743520 107.7293390 135.6563460
  10.7915310 108.2038890 135.9360220  11.2806450 106.8248220 135.5476640
  16.1264590 108.4316490 133.7012550  16.5672680 108.3761590 132.8534150
  15.8572180 109.3474500 133.7722730  17.9903160 108.0631730 131.7121370
  17.9291560 107.1192950 131.5652390  18.7695190 108.1711820 132.2574830
   2.9183930 108.0340870 128.1777180   3.6763290 108.1469750 127.6041210
   2.4561100 108.8710070 128.1320610   9.4597740 110.1480140 131.1679490
   8.6472250 109.7737030 130.8275370   9.9639380 109.3925220 131.4700680
  13.9622720 106.8122590 132.4062560  14.5652090 107.3842800 132.8811080
  13.2215710 107.3762030 132.1836460  17.1057320 107.2144150 127.6802840
  17.3007950 108.1127600 127.9470270  16.3187190 106.9831230 128.1735790
   3.9018610 122.8957320 128.1195460   3.3766230 123.2765350 127.4157420
   3.8263190 123.5208090 128.8405170   5.2909080 108.5604920 126.7179150
   5.8201840 107.7734720 126.5887100   5.9237400 109.2396110 126.9514680
   7.4846920 108.2980060 129.7724540   6.8549660 107.5967370 129.9394670
   6.9452060 109.0584190 129.5557700  10.4238870 124.9119290 142.4435150
  11.3506180 124.6763560 142.4871110  10.4089300 125.7391290 141.9621180
  18.6583930 124.4544860 129.4409400  18.8336120 123.7682600 128.7970320
  17.9605500 124.9791910 129.0486070   7.6102480 107.5764040 142.2077030
   7.3286750 108.0797640 141.4437850   7.9922180 106.7785790 141.8419160
   6.5011580 124.8439700 126.9944710   7.2330400 124.5598980 126.4468600
   6.7605250 124.6052980 127.8844090   5.6626370 120.9604430 126.9991040
   5.0335250 121.4289530 127.5476870   5.7774200 120.1153650 127.4337230
  14.2117940 106.9917620 142.7857500  14.0983390 107.3112230 143.6809020
  15.0287680 107.3930130 142.4894780  16.9916430 124.1389150 142.2676190
  17.7841750 123.6438380 142.0602150  17.2849580 124.8179290 142.8751800
  13.1176090 115.0110090 113.1492240  13.0370140 114.0964700 112.8783950
  12.7040510 115.5077160 112.4431950  11.2494130 116.7889110 115.0301510
  10.4736230 116.3089550 115.3200080  11.9007060 116.1094760 114.8557670
   5.2659960 117.1008920 115.9077270   4.4344840 116.8457630 116.3073780
   5.8740940 117.1719690 116.6435190  15.2701560 121.1949300 113.8100640
  14.8083090 120.4236540 114.1387810  16.0827110 121.2215370 114.3153090
   5.2461220 121.1349010 116.1035290   5.5489260 120.2446750 115.9245510
   5.9904810 121.6919230 115.8757540   3.6751910 112.0610810 109.6919660
   2.7868610 112.4026780 109.5899540   3.9593100 111.8611130 108.8000490
  11.4964870 123.4807310 113.4304630  10.8776310 123.9364810 112.8599070
  12.3516650 123.6358770 113.0294330  10.6903120 119.4646300 115.0371670
  10.6211400 118.5236240 114.8760800  11.4522980 119.5547710 115.6094240
   2.8809790 110.0700820 117.3628290   2.7012630 109.1726570 117.6431050
   2.4789870 110.6172690 118.0375240  11.7208290 112.2716680 115.2640600
  12.0973110 111.3988560 115.1514270  11.6227800 112.6075380 114.3731040
   5.8513300 110.6442310 110.7258040   5.9580050 111.5446040 111.0326800
   4.9405660 110.5960280 110.4352690  15.5032410 109.7667120 112.1968940
  16.3242030 109.2763690 112.2394420  15.5366490 110.3564780 112.9500780
   3.4996460 112.5661320 115.9710630   4.1806570 112.8299690 116.5898030
   3.1844510 111.7262190 116.3048640   7.6921030 113.6128680 115.0583220
   8.1999250 114.1109650 115.6988240   8.2234270 112.8363880 114.8822580
  19.7931960 111.7833870 118.7612570  19.0884130 112.1715580 118.2427680
  20.0589880 112.4784160 119.3633500   5.9757130 108.2527240 119.3246640
   5.9775570 108.7699630 118.5192540   5.1461440 107.7757420 119.3016570
  12.3628220 118.3646550 110.8236540  11.7445490 118.8296000 110.2599260
  12.8751470 119.0574030 111.2406050   7.2259980 117.8922420 117.5020140
   6.8929360 118.5191340 118.1441210   7.4026660 118.4184300 116.7221810
  15.7393890 111.7067500 114.9696480  15.0349460 111.9952390 115.5499590
  16.1006050 112.5167610 114.6096040   5.6572460 109.9637200 117.3317090
   5.9989270 110.8079250 117.0370960   4.7188270 110.1120940 117.4482430
   6.4379080 119.8603220 119.3169320   7.0553080 120.5354300 119.0353770
   5.5772200 120.2691200 119.2256820  17.3556670 121.3242630 117.2323960
  16.6720190 121.9941740 117.2240630  17.8950960 121.5223280 116.4668820
  18.8080810 111.1522290 115.3605690  17.8605720 111.1861270 115.4921120
  19.1330800 111.9661240 115.7455050   9.3400350 107.4519470 113.6561680
   9.6475330 106.8966360 112.9397180   8.4101050 107.5863930 113.4734670
  14.8915410 123.1686760 115.9469140  14.9042570 122.7649050 115.0791400
  14.3390630 123.9434050 115.8430570  16.1860830 119.8902980 111.0359310
  16.0757160 118.9477310 111.1608730  16.1829080 120.2518620 111.9222070
  14.2900850 118.0716600 117.2751750  14.7069640 117.8576710 116.4405210
  15.0140670 118.3289390 117.8460370  11.7281110 115.5168300 110.3921800
  10.8010390 115.4505680 110.6210270  11.8805930 116.4548430 110.2777040
  11.7150190 111.7885300 107.3888960  10.7753860 111.9499260 107.4741420
  12.0333450 112.5070980 106.8424950  18.2362950 116.4703820 117.3667990
  17.4081580 116.5396910 116.8918120  18.8313430 117.0558130 116.8983820
  15.7578400 117.0788600 110.8957050  15.1390820 116.7408150 110.2483350
  15.7402850 116.4348360 111.6036240  15.2004960 113.2573140 118.3122860
  14.7876140 114.0826850 118.5662850  14.4680910 112.6718180 118.1199220
   7.3337750 116.0433040 113.1741530   6.9294750 115.3310290 112.6787430
   7.4200870 115.6986280 114.0629570   7.8019450 119.7300600 115.3380740
   7.5047740 119.1246070 114.6588520   8.7519270 119.7677910 115.2270100
   6.0466370 112.8176250 116.9540570   6.5980960 112.9271590 116.1793820
   6.5609880 113.1913850 117.6695800  15.8905060 123.3032470 119.0003840
  15.4135620 124.1104660 118.8076450  15.2066850 122.6510800 119.1530050
   6.8937880 119.4682290 121.9888540   5.9966410 119.6922260 122.2361940
   6.9190750 119.5917230 121.0399940  13.9343100 116.3175410 107.9029800
  14.3736380 115.4797840 107.7567620  14.6471520 116.9504810 107.9893940
   5.7209100 116.3395610 120.5645910   5.5816870 117.2118410 120.9333310
   4.8390460 115.9968420 120.4193850  12.0438480 121.2571480 111.8711040
  12.4834390 121.9995810 111.4566430  11.9825370 121.4998050 112.7950000
   7.5189450 122.2817310 122.7731060   7.4904880 122.6860260 121.9059490
   7.3554420 121.3527670 122.6102660  17.5160240 107.5718220 106.2170840
  17.2032900 107.6645050 107.1169910  18.2772710 108.1499250 106.1668270
   4.0342380 114.9378020 110.6748180   3.9139980 115.6640110 110.0629450
   3.7243270 114.1680930 110.1976090  19.4704270 123.0644410 124.0695230
  19.9463990 123.5427300 124.7484310  20.0911430 122.9961900 123.3440730
   2.9175380 119.8093350 112.8923000   2.5103460 119.9507940 112.0376600
   3.8088390 119.5253510 112.6894210  18.8737520 120.2557260 121.2295240
  19.0000580 120.0169140 120.3112420  18.9158900 119.4241800 121.7017320
  12.7354260 123.9585260 119.7990050  13.2498930 123.8693270 120.6012480
  11.8923340 124.3044960 120.0917960  14.7108660 124.2440600 109.2274050
  14.5509800 123.9543540 110.1255880  14.5455370 123.4680730 108.6919280
   7.1897040 124.0239130 111.0045670   7.0139520 123.1074670 110.7913470
   6.3352780 124.3826420 111.2443470  14.4134790 121.7528160 107.7872050
  13.7199950 121.7505450 107.1274330  15.1557650 121.3287480 107.3566220
  13.9784720 123.3790870 111.8620540  14.4341670 122.5980250 112.1759160
  14.3177240 124.0897690 112.4061720  18.7261530 112.3089720 122.1944980
  18.1105800 112.8169390 121.6660440  18.4057950 111.4088050 122.1370920
   6.5006040 108.2813090 114.0571850   6.0574190 109.0622630 113.7256370
   7.0591030 108.6042980 114.7642790  10.7875850 111.1481610 119.6607170
  10.3255220 111.3564630 120.4727110  10.3853960 110.3340960 119.3577840
  15.7880360 112.3690560 120.7903830  14.9373950 112.0696310 121.1112900
  15.6282150 112.6132570 119.8787650  12.8830070 113.8692310 122.8902620
  13.2083480 113.0356060 122.5504850  13.6710400 114.3920830 123.0380950
   9.6164860 107.9023790 108.9377680   8.9919040 107.8983660 109.6630990
   9.5294980 107.0354750 108.5413650   8.5381940 108.8260420 115.9161450
   8.8354270 109.7323250 115.8353470   9.0867500 108.3379200 115.3021020
   6.2920260 113.4046660 111.7853100   6.0661180 113.1883830 112.6899720
   5.5112790 113.8375120 111.4399070  13.5218020 113.4110030 110.3843750
  12.9226910 114.1345830 110.2007370  14.0697630 113.3486810 109.6020200
   8.7319470 114.3032240 122.4513370   8.6363070 113.3626970 122.3013770
   9.5751450 114.5247310 122.0561440  12.1282890 112.0473570 112.4147030
  12.5212460 112.3645770 111.6015720  12.4899740 111.1685450 112.5291550
   3.8630010 110.7145910 120.6047150   3.4693400 111.5621120 120.8119930
   3.1748410 110.0772280 120.7955790  10.4375060 110.7980880 123.6743890
   9.7473380 110.6053080 124.3089980  11.1807360 111.0815520 124.2068190
  12.7138030 114.6379320 116.5097810  11.9819150 115.1466130 116.8587910
  12.3162370 113.8209300 116.2086590   9.1515420 111.3133520 114.9150300
   9.1551480 110.8723470 114.0654840  10.0466540 111.6350850 115.0222120
   5.0017800 111.1960010 113.8744510   4.6617850 111.6735240 114.6311560
   4.2395120 110.7425130 113.5145610   9.2135570 112.3145600 107.9057060
   9.3348390 112.2732080 108.8542880   8.8284080 113.1769750 107.7503790
  13.1763940 110.0913000 115.9220750  13.1936680 110.5421650 116.7662600
  12.9279520 109.1918640 116.1354190   8.2257070 114.6246740 107.3040360
   7.6573970 114.1764990 106.6776270   8.9346070 114.9839520 106.7705510
  16.6034690 107.5045180 121.7607130  16.9280460 106.7734840 122.2865110
  16.6391200 107.1858820 120.8588120   3.3026250 118.5258760 121.1807090
   2.9181040 117.8852430 121.7790050   3.6138440 119.2294880 121.7501820
   9.4523390 115.3735300 116.6615710   9.8193520 114.8993870 117.4077050
   9.2628450 116.2476870 117.0024050   2.3163880 110.1178990 112.7909180
   2.0310800 109.7534660 113.6287800   2.2542740 109.3859450 112.1772320
   7.2422760 114.4143940 118.9799920   6.9379830 115.2935920 119.2050280
   8.1969220 114.4743730 119.0157360   5.7704550 118.6204930 109.5766770
   4.9966810 118.0802550 109.4165490   6.4999180 118.1011540 109.2384530
  16.5292530 117.6170290 115.3693160  17.2491650 118.1125580 114.9789270
  16.3274350 116.9388180 114.7247030  11.9902470 109.0108250 109.5122550
  11.1767080 108.5121420 109.4367860  11.7964420 109.8506500 109.0958900
  11.9111330 117.6879350 121.2562160  11.8448640 116.7675020 121.0019750
  11.2816470 117.7854790 121.9706800  14.7050860 113.3827900 107.8084710
  15.5930480 113.6945130 107.6336050  14.6755950 112.5100150 107.4165290
   5.8141950 118.2885310 113.2145580   6.3320620 117.4853570 113.1602470
   5.3625970 118.2264450 114.0562410  10.7011450 119.5551590 108.4872880
  11.0427150 120.2993820 107.9916200   9.8724160 119.8682710 108.8497710
   3.2986490 115.2546680 120.1271280   2.9401430 115.9200530 120.7144620
   3.0041050 114.4230230 120.4983900   6.4999610 115.7130920 123.0110830
   6.1999750 115.8588100 122.1138650   7.2710850 115.1536210 122.9184220
  11.8428060 120.5099920 121.0065960  11.8572600 119.5780880 120.7884870
  11.1353160 120.5959680 121.6455730  16.9765130 114.6939740 107.2764570
  16.8928850 115.1253960 106.4261010  17.6959320 115.1538090 107.7091390
  18.0539270 117.1507260 120.3534540  17.3287460 117.7436040 120.1563930
  18.5814730 117.1430800 119.5547910  18.0052380 121.5482000 110.0046700
  17.3628540 120.8937620 110.2790420  17.6183040 121.9537090 109.2287370
  13.5838860 118.8767430 113.8518390  13.9362680 118.2795560 113.1919760
  12.7001190 118.5511660 114.0226640   9.6702140 119.6365120 111.2588800
  10.3573270 120.1834330 111.6396390   8.8834560 120.1805850 111.2938410
   8.9729350 116.6411150 110.8714160   9.4292130 117.4516400 111.0974350
   8.6217560 116.3234290 111.7032650  11.2761960 122.1517490 118.1006460
  11.9204180 122.3576870 118.7779880  11.6391400 121.3905890 117.6477310
   4.8741130 106.9848800 111.3436680   4.7455760 106.9766700 112.2921600
   4.0503150 107.3231890 110.9927690  12.5494040 120.1549840 116.8183910
  13.1916270 119.4543000 116.9316080  13.0743390 120.9348280 116.6380800
  16.3949760 120.4398460 106.5423050  16.1687340 119.7228900 107.1347690
  16.0045960 120.1910900 105.7044800  14.3231660 120.9544740 120.0219970
  14.6587900 121.5411430 120.6997890  13.4032000 120.8237450 120.2517760
   2.1765790 124.4665320 107.3167510   2.5363430 125.0654660 106.6624780
   2.0358130 125.0125210 108.0902540  15.9766010 118.3570400 108.2037210
  15.6887710 118.8183090 108.9915090  16.7718180 117.8968170 108.4721430
  10.1520240 121.0036070 123.1908030   9.8317110 120.2845310 123.7353720
   9.4778600 121.6791140 123.2644090   8.1934410 121.8496520 108.1341180
   8.1844510 122.5826210 107.5185690   7.2732770 121.6028100 108.2268140
   3.7941050 117.0711410 108.8787940   3.1869000 117.8110310 108.8883240
   4.2690400 117.1610770 108.0526140  13.3673840 111.2362230 118.5544830
  13.7354660 110.4157440 118.8824400  12.5072040 111.2964120 118.9700480
  16.7335870 110.1919170 109.3632390  16.1049030 110.2964840 108.6490620
  16.2387790 110.4115950 110.1526270  11.1794010 121.9124760 106.7966370
  11.2805990 121.7088750 105.8668350  10.2795750 121.6583040 107.0014150
   8.7019900 112.4705120 110.7790270   7.9936050 112.9391460 111.2203880
   8.9864380 111.8127130 111.4135460  10.3275830 113.8901820 118.7782800
  10.8261080 114.3647640 119.4434650  10.4698780 112.9665340 118.9852830
  12.7335330 109.1955780 112.2186060  12.6103110 109.2141910 111.2695570
  13.6819890 109.2434720 112.3384460   9.8212120 124.4311080 111.4914040
  10.0753620 124.3932470 110.5693410   8.8724600 124.3044410 111.4842290
   6.9054920 110.7790200 108.1540980   7.7545450 111.2160350 108.0881170
   6.5386190 111.0910460 108.9813040  17.5342690 110.1069780 119.6211190
  17.0316290 110.8475180 119.9605000  18.3499350 110.4953780 119.3047980
  15.8264700 115.3502960 113.0672550  14.8854840 115.3653190 113.2420240
  16.1408770 114.5638920 113.5132850   5.8046340 117.0322560 106.6276510
   6.5709610 116.9203920 107.1901940   5.8821030 116.3360530 105.9753280
   4.4993100 114.4647630 107.3109400   4.5796690 113.5175140 107.4226800
   5.3912850 114.7954510 107.4170060  17.8290280 122.5211810 114.7426810
  17.9537700 123.3442980 115.2150620  18.6955840 122.3102540 114.3950960
   5.3007810 124.6143020 114.4143940   6.0370290 124.0658480 114.6852510
   5.6848730 125.4799030 114.2749930   4.3066090 123.7989090 123.6029520
   5.1078820 124.1201140 124.0164920   3.7917910 123.4384670 124.3249430
   8.4110120 123.7873330 106.2369510   9.2038730 124.0762160 105.7851300
   7.8914470 123.3565500 105.5581990  13.1430720 119.9068960 123.5504930
  12.5368880 119.9300560 122.8100680  12.8384830 119.1752000 124.0872180
  14.5731090 123.6349250 122.1614340  15.5252840 123.5507270 122.1114580
  14.4259310 124.2990960 122.8348130  17.4640290 123.0143460 107.6606250
  17.1781800 122.6008600 106.8460430  17.2659840 123.9431170 107.5406770
   8.9287520 119.0076740 106.1011860   8.8238160 118.3929090 106.8273240
   8.7611740 118.4842630 105.3174870   9.0801840 117.6933540 122.0801090
   8.3147510 118.2618540 121.9955760   9.2617800 117.4009750 121.1869320
  12.1690250 118.0696770 106.7053850  11.6200350 118.5166070 107.3496590
  12.7909510 117.5646020 107.2291520  16.2225190 119.4238870 122.6376110
  16.9634660 119.7614630 122.1343570  15.4597870 119.5930930 122.0845880
   4.0586980 114.4292140 123.4415640   4.0992320 114.1306010 124.3500870
   4.9132480 114.8299750 123.2823160   7.8365370 117.0287690 108.6019150
   8.2581790 116.8627560 109.4450540   7.9616210 116.2187920 108.1074290
   5.9992790 113.0084240 121.4090130   5.4689250 112.5175190 120.7813470
   6.6680860 113.4368440 120.8748060  10.3493010 116.0525300 105.8496250
  10.8698670 115.3374320 105.4837400  10.9961410 116.6911170 106.1496760
  14.8970850 117.4753700 121.1731320  15.3111870 117.6298780 122.0221740
  13.9621850 117.6008920 121.3357100  15.3693020 114.8149860 123.1770470
  15.9513790 114.0602180 123.0890950  15.5454790 115.3457300 122.4001950
   6.4865090 109.9746610 121.4887420   6.3921960 109.3567360 120.7638290
   5.9062480 110.7012900 121.2617330   9.2526530 108.5319850 118.5214810
   8.8043830 108.5544110 117.6760360   8.6191730 108.1338870 119.1185110
   9.6586080 117.4274180 119.1427250  10.0774190 118.2706910 118.9703490
   8.7394710 117.5646220 118.9134030  11.9949980 115.1590360 120.5265090
  12.1146190 114.5631500 121.2659930  12.8543980 115.1960050 120.1066390
  14.3337880 115.7127550 119.1027600  13.8073100 116.2370170 118.4992740
  14.6769220 116.3454940 119.7337330   6.7324270 113.1020920 105.5477310
   6.5313330 112.2388280 105.9090650   6.5616320 113.0154280 104.6098910
   7.5093500 123.7327190 120.2584980   6.9714590 124.4573250 119.9393680
   7.7627460 123.2557530 119.4682320   8.7618750 111.7011710 121.7840910
   9.3518440 111.3927560 122.4718730   7.9438990 111.2291460 121.9400810
  13.5812180 111.3177520 122.0173930  12.8927700 110.6559060 121.9523920
  14.3018200 110.8715790 122.4622390  14.2112580 107.9129150 108.0764190
  14.4914870 107.0697050 108.4323610  13.4378310 108.1452260 108.5902940
   5.5307070 110.2021540 105.5355190   5.8332970 110.2088970 104.6274340
   6.2701660 109.8519400 106.0322850  10.3655710 124.9678400 120.5171630
  10.2914410 125.8713540 120.8244000   9.4634550 124.6490300 120.4893700
   8.7492000 109.1456160 106.5211390   8.4014000 108.4680150 105.9413840
   8.9504770 108.6845670 107.3354780  10.9141040 124.1336910 108.1397990
  11.8091830 124.4721880 108.1616750  10.9458670 123.4116320 107.5122270
   4.5537200 119.5063960 106.3684990   4.9912070 120.0493630 107.0242570
   5.0384930 118.6810910 106.3781330   1.7683000 122.2952990 113.8205250
   2.0986010 121.4274050 113.5883890   2.1974000 122.5011510 114.6510210
   6.3644920 120.6262000 111.4807220   6.0640460 120.5026970 112.3811130
   6.2582410 119.7670590 111.0722950   2.2573210 123.1623580 116.5586880
   1.8204200 123.3424380 117.3911030   2.8250890 123.9198200 116.4168600
  17.8935390 122.6640580 120.8464190  17.2937380 122.7233140 120.1028110
  18.0229290 121.7245560 120.9761040  19.1336840 120.4058400 106.1833900
  18.3029800 120.4735050 106.6541130  19.3108670 121.2962520 105.8800760
  18.5893300 117.1505880 108.6868100  19.3512210 117.7202530 108.7927790
  18.6047670 116.5833080 109.4576410  19.5953270 118.0055980 113.5310030
  19.9662100 117.2223300 113.1246000  20.2355200 118.6945080 113.3527330
  16.5787030 119.3892560 118.9440350  15.7646870 119.8189720 119.2066140
  16.9861230 120.0010970 118.3309400  18.6412470 117.4440250 105.8440620
  18.9161310 118.3519130 105.7159840  18.4523210 117.3802780 106.7802610
  15.0388080 110.4685100 107.1394250  15.4572960 110.2816080 106.2990910
  14.7324140 109.6164150 107.4497180  18.5377810 115.3809240 110.8370050
  18.1621410 114.6137170 110.4051340  17.8080930 115.7631940 111.3244980
   3.1273570 116.0596380 117.4579100   3.4946610 115.9723780 118.3375120
   2.5584390 115.2962930 117.3585960  17.9277430 114.5280760 120.4709570
  17.6963520 114.2993510 119.5707520  18.1881980 115.4480310 120.4254460
   2.6789570 112.9705470 121.3637520   1.7845620 112.9372230 121.7031230
   3.2187120 113.1692260 122.1288770  16.3665500 109.7537190 123.2489270
  17.2435680 109.7620590 123.6323270  16.3786340 109.0168030 122.6381620
  17.8128770 113.6066730 114.1377290  18.3366250 113.1129380 113.5067460
  18.3988190 113.7417090 114.8824860  17.9918490 113.6906600 117.6596840
  17.0421200 113.6570140 117.7741830  18.1731500 114.6006710 117.4246610
   3.8462930 111.9408280 106.7695470   4.5554630 111.5191500 106.2842750
   3.1302870 112.0083510 106.1378820   3.4937090 107.9947610 105.8098120
   4.2165220 108.5356550 106.1279340   3.7661610 107.7211030 104.9339660
  17.3028740 112.8640080 110.0769700  17.7987860 112.6310950 110.8618580
  17.1044810 112.0251920 109.6607340   3.1829280 107.2453800 115.7120740
   3.8305470 106.6951180 115.2715900   3.6031120 107.4996950 116.5336550
  18.7315900 111.5001030 112.6107380  18.6215180 111.3457070 113.5489650
  19.4923490 110.9721970 112.3682790  17.0781620 107.4395160 119.0690380
  17.7153840 108.0529300 119.4349570  17.2256510 107.4755820 118.1239610
  19.6206170 109.3308950 105.8513520  20.5455480 109.1990130 105.6431810
  19.5981960 109.4101770 106.8049970  19.6944660 110.1019610 108.4770230
  18.8996160 110.0364730 109.0063140  19.8987940 111.0370250 108.4655580
  16.6363080 124.1411160 112.4708620  17.2322150 123.8195730 111.7943040
  16.8941230 123.6682980 113.2621890   2.9361280 107.4009470 118.4546060
   2.5876100 107.8573290 119.2204240   2.6048980 106.5066600 118.5368490
   4.5425650 120.5729070 122.6199250   4.4995280 120.2021980 123.5013710
   4.6736660 121.5106640 122.7601070   8.2431680 122.1288660 118.2208970
   8.0023040 122.3963220 117.3339490   9.1834320 122.2994390 118.2759830
  10.4486100 108.5921350 121.9765480  10.3874990 109.1843180 122.7260890
  11.3886480 108.4847310 121.8315740  13.0860660 108.2491410 121.6157770
  13.7001070 108.5670700 120.9538850  13.6310220 107.7640000 122.2353630
  19.5035840 124.1483040 119.0219610  19.0094120 124.5451910 118.3046740
  18.8949130 123.5232250 119.4156890   3.6081920 106.9285670 121.7296830
   4.1564910 106.7473720 120.9662940   3.6737230 106.1379780 122.2653140
   4.3813680 123.5191320 119.7397030   3.7874000 123.3876020 120.4787070
   4.3737520 122.6829460 119.2739130  13.8268700 106.8123550 117.9427060
  12.9528540 107.1458660 117.7399990  13.7179450 106.3396730 118.7678930
  14.7340680 109.0194420 119.3268780  14.4054040 108.2046180 118.9470510
  15.6822980 108.9764230 119.2034470  17.1875290 124.7906460 116.3006350
  16.7278260 125.5422270 115.9264370  16.5587750 124.0712930 116.2421150
   4.0125910 120.8849700 118.6905070   3.2859970 120.2654990 118.6231020
   4.0735060 121.2790310 117.8203150   7.6171010 123.0994700 115.4754480
   8.1336030 122.4882060 114.9502740   8.2668390 123.6023480 115.9665490
  10.3566510 123.9903190 116.3023460  10.6444320 123.7357490 115.4256470
  10.8689730 123.4380550 116.8929030  11.5743520 107.7293390 116.8819970
  10.7915310 108.2038890 117.1616730  11.2806450 106.8248220 116.7733150
  16.1264590 108.4316490 114.9269060  16.5672680 108.3761590 114.0790660
  15.8572180 109.3474500 114.9979240  17.9903160 108.0631730 112.9377880
  17.9291560 107.1192950 112.7908900  18.7695190 108.1711820 113.4831340
   2.9183930 108.0340870 109.4033690   3.6763290 108.1469750 108.8297720
   2.4561100 108.8710070 109.3577120   9.4597740 110.1480140 112.3936000
   8.6472250 109.7737030 112.0531880   9.9639380 109.3925220 112.6957190
  13.9622720 106.8122590 113.6319070  14.5652090 107.3842800 114.1067590
  13.2215710 107.3762030 113.4092970  17.1057320 107.2144150 108.9059350
  17.3007950 108.1127600 109.1726780  16.3187190 106.9831230 109.3992300
   3.9018610 122.8957320 109.3451970   3.3766230 123.2765350 108.6413930
   3.8263190 123.5208090 110.0661680   5.2909080 108.5604920 107.9435660
   5.8201840 107.7734720 107.8143610   5.9237400 109.2396110 108.1771190
   7.4846920 108.2980060 110.9981050   6.8549660 107.5967370 111.1651180
   6.9452060 109.0584190 110.7814210  10.4238870 124.9119290 123.6691660
  11.3506180 124.6763560 123.7127620  10.4089300 125.7391290 123.1877690
  18.6583930 124.4544860 110.6665910  18.8336120 123.7682600 110.0226830
  17.9605500 124.9791910 110.2742580   7.6102480 107.5764040 123.4333540
   7.3286750 108.0797640 122.6694360   7.9922180 106.7785790 123.0675670
   6.5011580 124.8439700 108.2201220   7.2330400 124.5598980 107.6725110
   6.7605250 124.6052980 109.1100600   5.6626370 120.9604430 108.2247550
   5.0335250 121.4289530 108.7733380   5.7774200 120.1153650 108.6593740
  14.2117940 106.9917620 124.0114010  14.0983390 107.3112230 124.9065530
  15.0287680 107.3930130 123.7151290  16.9916430 124.1389150 123.4932700
  17.7841750 123.6438380 123.2858660  17.2849580 124.8179290 124.1008310
  13.1176090 115.0110090  94.3748750  13.0370140 114.0964700  94.1040460
  12.7040510 115.5077160  93.6688460  11.2494130 116.7889110  96.2558020
  10.4736230 116.3089550  96.5456590  11.9007060 116.1094760  96.0814180
   5.2659960 117.1008920  97.1333780   4.4344840 116.8457630  97.5330290
   5.8740940 117.1719690  97.8691700  15.2701560 121.1949300  95.0357150
  14.8083090 120.4236540  95.3644320  16.0827110 121.2215370  95.5409600
   5.2461220 121.1349010  97.3291800   5.5489260 120.2446750  97.1502020
   5.9904810 121.6919230  97.1014050   3.6751910 112.0610810  90.9176170
   2.7868610 112.4026780  90.8156050   3.9593100 111.8611130  90.0257000
  11.4964870 123.4807310  94.6561140  10.8776310 123.9364810  94.0855580
  12.3516650 123.6358770  94.2550840  10.6903120 119.4646300  96.2628180
  10.6211400 118.5236240  96.1017310  11.4522980 119.5547710  96.8350750
   2.8809790 110.0700820  98.5884800   2.7012630 109.1726570  98.8687560
   2.4789870 110.6172690  99.2631750  11.7208290 112.2716680  96.4897110
  12.0973110 111.3988560  96.3770780  11.6227800 112.6075380  95.5987550
   5.8513300 110.6442310  91.9514550   5.9580050 111.5446040  92.2583310
   4.9405660 110.5960280  91.6609200  15.5032410 109.7667120  93.4225450
  16.3242030 109.2763690  93.4650930  15.5366490 110.3564780  94.1757290
   3.4996460 112.5661320  97.1967140   4.1806570 112.8299690  97.8154540
   3.1844510 111.7262190  97.5305150   7.6921030 113.6128680  96.2839730
   8.1999250 114.1109650  96.9244750   8.2234270 112.8363880  96.1079090
  19.7931960 111.7833870  99.9869080  19.0884130 112.1715580  99.4684190
  20.0589880 112.4784160 100.5890010   5.9757130 108.2527240 100.5503150
   5.9775570 108.7699630  99.7449050   5.1461440 107.7757420 100.5273080
  12.3628220 118.3646550  92.0493050  11.7445490 118.8296000  91.4855770
  12.8751470 119.0574030  92.4662560   7.2259980 117.8922420  98.7276650
   6.8929360 118.5191340  99.3697720   7.4026660 118.4184300  97.9478320
  15.7393890 111.7067500  96.1952990  15.0349460 111.9952390  96.7756100
  16.1006050 112.5167610  95.8352550   5.6572460 109.9637200  98.5573600
   5.9989270 110.8079250  98.2627470   4.7188270 110.1120940  98.6738940
   6.4379080 119.8603220 100.5425830   7.0553080 120.5354300 100.2610280
   5.5772200 120.2691200 100.4513330  17.3556670 121.3242630  98.4580470
  16.6720190 121.9941740  98.4497140  17.8950960 121.5223280  97.6925330
  18.8080810 111.1522290  96.5862200  17.8605720 111.1861270  96.7177630
  19.1330800 111.9661240  96.9711560   9.3400350 107.4519470  94.8818190
   9.6475330 106.8966360  94.1653690   8.4101050 107.5863930  94.6991180
  14.8915410 123.1686760  97.1725650  14.9042570 122.7649050  96.3047910
  14.3390630 123.9434050  97.0687080  16.1860830 119.8902980  92.2615820
  16.0757160 118.9477310  92.3865240  16.1829080 120.2518620  93.1478580
  14.2900850 118.0716600  98.5008260  14.7069640 117.8576710  97.6661720
  15.0140670 118.3289390  99.0716880  11.7281110 115.5168300  91.6178310
  10.8010390 115.4505680  91.8466780  11.8805930 116.4548430  91.5033550
  11.7150190 111.7885300  88.6145470  10.7753860 111.9499260  88.6997930
  12.0333450 112.5070980  88.0681460  18.2362950 116.4703820  98.5924500
  17.4081580 116.5396910  98.1174630  18.8313430 117.0558130  98.1240330
  15.7578400 117.0788600  92.1213560  15.1390820 116.7408150  91.4739860
  15.7402850 116.4348360  92.8292750  15.2004960 113.2573140  99.5379370
  14.7876140 114.0826850  99.7919360  14.4680910 112.6718180  99.3455730
   7.3337750 116.0433040  94.3998040   6.9294750 115.3310290  93.9043940
   7.4200870 115.6986280  95.2886080   7.8019450 119.7300600  96.5637250
   7.5047740 119.1246070  95.8845030   8.7519270 119.7677910  96.4526610
   6.0466370 112.8176250  98.1797080   6.5980960 112.9271590  97.4050330
   6.5609880 113.1913850  98.8952310  15.8905060 123.3032470 100.2260350
  15.4135620 124.1104660 100.0332960  15.2066850 122.6510800 100.3786560
   6.8937880 119.4682290 103.2145050   5.9966410 119.6922260 103.4618450
   6.9190750 119.5917230 102.2656450  13.9343100 116.3175410  89.1286310
  14.3736380 115.4797840  88.9824130  14.6471520 116.9504810  89.2150450
   5.7209100 116.3395610 101.7902420   5.5816870 117.2118410 102.1589820
   4.8390460 115.9968420 101.6450360  12.0438480 121.2571480  93.0967550
  12.4834390 121.9995810  92.6822940  11.9825370 121.4998050  94.0206510
   7.5189450 122.2817310 103.9987570   7.4904880 122.6860260 103.1316000
   7.3554420 121.3527670 103.8359170  17.5160240 107.5718220  87.4427350
  17.2032900 107.6645050  88.3426420  18.2772710 108.1499250  87.3924780
   4.0342380 114.9378020  91.9004690   3.9139980 115.6640110  91.2885960
   3.7243270 114.1680930  91.4232600  19.4704270 123.0644410 105.2951740
  19.9463990 123.5427300 105.9740820  20.0911430 122.9961900 104.5697240
   2.9175380 119.8093350  94.1179510   2.5103460 119.9507940  93.2633110
   3.8088390 119.5253510  93.9150720  18.8737520 120.2557260 102.4551750
  19.0000580 120.0169140 101.5368930  18.9158900 119.4241800 102.9273830
  12.7354260 123.9585260 101.0246560  13.2498930 123.8693270 101.8268990
  11.8923340 124.3044960 101.3174470  14.7108660 124.2440600  90.4530560
  14.5509800 123.9543540  91.3512390  14.5455370 123.4680730  89.9175790
   7.1897040 124.0239130  92.2302180   7.0139520 123.1074670  92.0169980
   6.3352780 124.3826420  92.4699980  14.4134790 121.7528160  89.0128560
  13.7199950 121.7505450  88.3530840  15.1557650 121.3287480  88.5822730
  13.9784720 123.3790870  93.0877050  14.4341670 122.5980250  93.4015670
  14.3177240 124.0897690  93.6318230  18.7261530 112.3089720 103.4201490
  18.1105800 112.8169390 102.8916950  18.4057950 111.4088050 103.3627430
   6.5006040 108.2813090  95.2828360   6.0574190 109.0622630  94.9512880
   7.0591030 108.6042980  95.9899300  10.7875850 111.1481610 100.8863680
  10.3255220 111.3564630 101.6983620  10.3853960 110.3340960 100.5834350
  15.7880360 112.3690560 102.0160340  14.9373950 112.0696310 102.3369410
  15.6282150 112.6132570 101.1044160  12.8830070 113.8692310 104.1159130
  13.2083480 113.0356060 103.7761360  13.6710400 114.3920830 104.2637460
   9.6164860 107.9023790  90.1634190   8.9919040 107.8983660  90.8887500
   9.5294980 107.0354750  89.7670160   8.5381940 108.8260420  97.1417960
   8.8354270 109.7323250  97.0609980   9.0867500 108.3379200  96.5277530
   6.2920260 113.4046660  93.0109610   6.0661180 113.1883830  93.9156230
   5.5112790 113.8375120  92.6655580  13.5218020 113.4110030  91.6100260
  12.9226910 114.1345830  91.4263880  14.0697630 113.3486810  90.8276710
   8.7319470 114.3032240 103.6769880   8.6363070 113.3626970 103.5270280
   9.5751450 114.5247310 103.2817950  12.1282890 112.0473570  93.6403540
  12.5212460 112.3645770  92.8272230  12.4899740 111.1685450  93.7548060
   3.8630010 110.7145910 101.8303660   3.4693400 111.5621120 102.0376440
   3.1748410 110.0772280 102.0212300  10.4375060 110.7980880 104.9000400
   9.7473380 110.6053080 105.5346490  11.1807360 111.0815520 105.4324700
  12.7138030 114.6379320  97.7354320  11.9819150 115.1466130  98.0844420
  12.3162370 113.8209300  97.4343100   9.1515420 111.3133520  96.1406810
   9.1551480 110.8723470  95.2911350  10.0466540 111.6350850  96.2478630
   5.0017800 111.1960010  95.1001020   4.6617850 111.6735240  95.8568070
   4.2395120 110.7425130  94.7402120   9.2135570 112.3145600  89.1313570
   9.3348390 112.2732080  90.0799390   8.8284080 113.1769750  88.9760300
  13.1763940 110.0913000  97.1477260  13.1936680 110.5421650  97.9919110
  12.9279520 109.1918640  97.3610700   8.2257070 114.6246740  88.5296870
   7.6573970 114.1764990  87.9032780   8.9346070 114.9839520  87.9962020
  16.6034690 107.5045180 102.9863640  16.9280460 106.7734840 103.5121620
  16.6391200 107.1858820 102.0844630   3.3026250 118.5258760 102.4063600
   2.9181040 117.8852430 103.0046560   3.6138440 119.2294880 102.9758330
   9.4523390 115.3735300  97.8872220   9.8193520 114.8993870  98.6333560
   9.2628450 116.2476870  98.2280560   2.3163880 110.1178990  94.0165690
   2.0310800 109.7534660  94.8544310   2.2542740 109.3859450  93.4028830
   7.2422760 114.4143940 100.2056430   6.9379830 115.2935920 100.4306790
   8.1969220 114.4743730 100.2413870   5.7704550 118.6204930  90.8023280
   4.9966810 118.0802550  90.6422000   6.4999180 118.1011540  90.4641040
  16.5292530 117.6170290  96.5949670  17.2491650 118.1125580  96.2045780
  16.3274350 116.9388180  95.9503540  11.9902470 109.0108250  90.7379060
  11.1767080 108.5121420  90.6624370  11.7964420 109.8506500  90.3215410
  11.9111330 117.6879350 102.4818670  11.8448640 116.7675020 102.2276260
  11.2816470 117.7854790 103.1963310  14.7050860 113.3827900  89.0341220
  15.5930480 113.6945130  88.8592560  14.6755950 112.5100150  88.6421800
   5.8141950 118.2885310  94.4402090   6.3320620 117.4853570  94.3858980
   5.3625970 118.2264450  95.2818920  10.7011450 119.5551590  89.7129390
  11.0427150 120.2993820  89.2172710   9.8724160 119.8682710  90.0754220
   3.2986490 115.2546680 101.3527790   2.9401430 115.9200530 101.9401130
   3.0041050 114.4230230 101.7240410   6.4999610 115.7130920 104.2367340
   6.1999750 115.8588100 103.3395160   7.2710850 115.1536210 104.1440730
  11.8428060 120.5099920 102.2322470  11.8572600 119.5780880 102.0141380
  11.1353160 120.5959680 102.8712240  16.9765130 114.6939740  88.5021080
  16.8928850 115.1253960  87.6517520  17.6959320 115.1538090  88.9347900
  18.0539270 117.1507260 101.5791050  17.3287460 117.7436040 101.3820440
  18.5814730 117.1430800 100.7804420  18.0052380 121.5482000  91.2303210
  17.3628540 120.8937620  91.5046930  17.6183040 121.9537090  90.4543880
  13.5838860 118.8767430  95.0774900  13.9362680 118.2795560  94.4176270
  12.7001190 118.5511660  95.2483150   9.6702140 119.6365120  92.4845310
  10.3573270 120.1834330  92.8652900   8.8834560 120.1805850  92.5194920
   8.9729350 116.6411150  92.0970670   9.4292130 117.4516400  92.3230860
   8.6217560 116.3234290  92.9289160  11.2761960 122.1517490  99.3262970
  11.9204180 122.3576870 100.0036390  11.6391400 121.3905890  98.8733820
   4.8741130 106.9848800  92.5693190   4.7455760 106.9766700  93.5178110
   4.0503150 107.3231890  92.2184200  12.5494040 120.1549840  98.0440420
  13.1916270 119.4543000  98.1572590  13.0743390 120.9348280  97.8637310
  16.3949760 120.4398460  87.7679560  16.1687340 119.7228900  88.3604200
  16.0045960 120.1910900  86.9301310  14.3231660 120.9544740 101.2476480
  14.6587900 121.5411430 101.9254400  13.4032000 120.8237450 101.4774270
   2.1765790 124.4665320  88.5424020   2.5363430 125.0654660  87.8881290
   2.0358130 125.0125210  89.3159050  15.9766010 118.3570400  89.4293720
  15.6887710 118.8183090  90.2171600  16.7718180 117.8968170  89.6977940
  10.1520240 121.0036070 104.4164540   9.8317110 120.2845310 104.9610230
   9.4778600 121.6791140 104.4900600   8.1934410 121.8496520  89.3597690
   8.1844510 122.5826210  88.7442200   7.2732770 121.6028100  89.4524650
   3.7941050 117.0711410  90.1044450   3.1869000 117.8110310  90.1139750
   4.2690400 117.1610770  89.2782650  13.3673840 111.2362230  99.7801340
  13.7354660 110.4157440 100.1080910  12.5072040 111.2964120 100.1956990
  16.7335870 110.1919170  90.5888900  16.1049030 110.2964840  89.8747130
  16.2387790 110.4115950  91.3782780  11.1794010 121.9124760  88.0222880
  11.2805990 121.7088750  87.0924860  10.2795750 121.6583040  88.2270660
   8.7019900 112.4705120  92.0046780   7.9936050 112.9391460  92.4460390
   8.9864380 111.8127130  92.6391970  10.3275830 113.8901820 100.0039310
  10.8261080 114.3647640 100.6691160  10.4698780 112.9665340 100.2109340
  12.7335330 109.1955780  93.4442570  12.6103110 109.2141910  92.4952080
  13.6819890 109.2434720  93.5640970   9.8212120 124.4311080  92.7170550
  10.0753620 124.3932470  91.7949920   8.8724600 124.3044410  92.7098800
   6.9054920 110.7790200  89.3797490   7.7545450 111.2160350  89.3137680
   6.5386190 111.0910460  90.2069550  17.5342690 110.1069780 100.8467700
  17.0316290 110.8475180 101.1861510  18.3499350 110.4953780 100.5304490
  15.8264700 115.3502960  94.2929060  14.8854840 115.3653190  94.4676750
  16.1408770 114.5638920  94.7389360   5.8046340 117.0322560  87.8533020
   6.5709610 116.9203920  88.4158450   5.8821030 116.3360530  87.2009790
   4.4993100 114.4647630  88.5365910   4.5796690 113.5175140  88.6483310
   5.3912850 114.7954510  88.6426570  17.8290280 122.5211810  95.9683320
  17.9537700 123.3442980  96.4407130  18.6955840 122.3102540  95.6207470
   5.3007810 124.6143020  95.6400450   6.0370290 124.0658480  95.9109020
   5.6848730 125.4799030  95.5006440   4.3066090 123.7989090 104.8286030
   5.1078820 124.1201140 105.2421430   3.7917910 123.4384670 105.5505940
   8.4110120 123.7873330  87.4626020   9.2038730 124.0762160  87.0107810
   7.8914470 123.3565500  86.7838500  13.1430720 119.9068960 104.7761440
  12.5368880 119.9300560 104.0357190  12.8384830 119.1752000 105.3128690
  14.5731090 123.6349250 103.3870850  15.5252840 123.5507270 103.3371090
  14.4259310 124.2990960 104.0604640  17.4640290 123.0143460  88.8862760
  17.1781800 122.6008600  88.0716940  17.2659840 123.9431170  88.7663280
   8.9287520 119.0076740  87.3268370   8.8238160 118.3929090  88.0529750
   8.7611740 118.4842630  86.5431380   9.0801840 117.6933540 103.3057600
   8.3147510 118.2618540 103.2212270   9.2617800 117.4009750 102.4125830
  12.1690250 118.0696770  87.9310360  11.6200350 118.5166070  88.5753100
  12.7909510 117.5646020  88.4548030  16.2225190 119.4238870 103.8632620
  16.9634660 119.7614630 103.3600080  15.4597870 119.5930930 103.3102390
   4.0586980 114.4292140 104.6672150   4.0992320 114.1306010 105.5757380
   4.9132480 114.8299750 104.5079670   7.8365370 117.0287690  89.8275660
   8.2581790 116.8627560  90.6707050   7.9616210 116.2187920  89.3330800
   5.9992790 113.0084240 102.6346640   5.4689250 112.5175190 102.0069980
   6.6680860 113.4368440 102.1004570  10.3493010 116.0525300  87.0752760
  10.8698670 115.3374320  86.7093910  10.9961410 116.6911170  87.3753270
  14.8970850 117.4753700 102.3987830  15.3111870 117.6298780 103.2478250
  13.9621850 117.6008920 102.5613610  15.3693020 114.8149860 104.4026980
  15.9513790 114.0602180 104.3147460  15.5454790 115.3457300 103.6258460
   6.4865090 109.9746610 102.7143930   6.3921960 109.3567360 101.9894800
   5.9062480 110.7012900 102.4873840   9.2526530 108.5319850  99.7471320
   8.8043830 108.5544110  98.9016870   8.6191730 108.1338870 100.3441620
   9.6586080 117.4274180 100.3683760  10.0774190 118.2706910 100.1960000
   8.7394710 117.5646220 100.1390540  11.9949980 115.1590360 101.7521600
  12.1146190 114.5631500 102.4916440  12.8543980 115.1960050 101.3322900
  14.3337880 115.7127550 100.3284110  13.8073100 116.2370170  99.7249250
  14.6769220 116.3454940 100.9593840   6.7324270 113.1020920  86.7733820
   6.5313330 112.2388280  87.1347160   6.5616320 113.0154280  85.8355420
   7.5093500 123.7327190 101.4841490   6.9714590 124.4573250 101.1650190
   7.7627460 123.2557530 100.6938830   8.7618750 111.7011710 103.0097420
   9.3518440 111.3927560 103.6975240   7.9438990 111.2291460 103.1657320
  13.5812180 111.3177520 103.2430440  12.8927700 110.6559060 103.1780430
  14.3018200 110.8715790 103.6878900  14.2112580 107.9129150  89.3020700
  14.4914870 107.0697050  89.6580120  13.4378310 108.1452260  89.8159450
   5.5307070 110.2021540  86.7611700   5.8332970 110.2088970  85.8530850
   6.2701660 109.8519400  87.2579360  10.3655710 124.9678400 101.7428140
  10.2914410 125.8713540 102.0500510   9.4634550 124.6490300 101.7150210
   8.7492000 109.1456160  87.7467900   8.4014000 108.4680150  87.1670350
   8.9504770 108.6845670  88.5611290  10.9141040 124.1336910  89.3654500
  11.8091830 124.4721880  89.3873260  10.9458670 123.4116320  88.7378780
   4.5537200 119.5063960  87.5941500   4.9912070 120.0493630  88.2499080
   5.0384930 118.6810910  87.6037840   1.7683000 122.2952990  95.0461760
   2.0986010 121.4274050  94.8140400   2.1974000 122.5011510  95.8766720
   6.3644920 120.6262000  92.7063730   6.0640460 120.5026970  93.6067640
   6.2582410 119.7670590  92.2979460   2.2573210 123.1623580  97.7843390
   1.8204200 123.3424380  98.6167540   2.8250890 123.9198200  97.6425110
  17.8935390 122.6640580 102.0720700  17.2937380 122.7233140 101.3284620
  18.0229290 121.7245560 102.2017550  19.1336840 120.4058400  87.4090410
  18.3029800 120.4735050  87.8797640  19.3108670 121.2962520  87.1057270
  18.5893300 117.1505880  89.9124610  19.3512210 117.7202530  90.0184300
  18.6047670 116.5833080  90.6832920  19.5953270 118.0055980  94.7566540
  19.9662100 117.2223300  94.3502510  20.2355200 118.6945080  94.5783840
  16.5787030 119.3892560 100.1696860  15.7646870 119.8189720 100.4322650
  16.9861230 120.0010970  99.5565910  18.6412470 117.4440250  87.0697130
  18.9161310 118.3519130  86.9416350  18.4523210 117.3802780  88.0059120
  15.0388080 110.4685100  88.3650760  15.4572960 110.2816080  87.5247420
  14.7324140 109.6164150  88.6753690  18.5377810 115.3809240  92.0626560
  18.1621410 114.6137170  91.6307850  17.8080930 115.7631940  92.5501490
   3.1273570 116.0596380  98.6835610   3.4946610 115.9723780  99.5631630
   2.5584390 115.2962930  98.5842470  17.9277430 114.5280760 101.6966080
  17.6963520 114.2993510 100.7964030  18.1881980 115.4480310 101.6510970
   2.6789570 112.9705470 102.5894030   1.7845620 112.9372230 102.9287740
   3.2187120 113.1692260 103.3545280  16.3665500 109.7537190 104.4745780
  17.2435680 109.7620590 104.8579780  16.3786340 109.0168030 103.8638130
  17.8128770 113.6066730  95.3633800  18.3366250 113.1129380  94.7323970
  18.3988190 113.7417090  96.1081370  17.9918490 113.6906600  98.8853350
  17.0421200 113.6570140  98.9998340  18.1731500 114.6006710  98.6503120
   3.8462930 111.9408280  87.9951980   4.5554630 111.5191500  87.5099260
   3.1302870 112.0083510  87.3635330   3.4937090 107.9947610  87.0354630
   4.2165220 108.5356550  87.3535850   3.7661610 107.7211030  86.1596170
  17.3028740 112.8640080  91.3026210  17.7987860 112.6310950  92.0875090
  17.1044810 112.0251920  90.8863850   3.1829280 107.2453800  96.9377250
   3.8305470 106.6951180  96.4972410   3.6031120 107.4996950  97.7593060
  18.7315900 111.5001030  93.8363890  18.6215180 111.3457070  94.7746160
  19.4923490 110.9721970  93.5939300  17.0781620 107.4395160 100.2946890
  17.7153840 108.0529300 100.6606080  17.2256510 107.4755820  99.3496120
  16.6363080 124.1411160  93.6965130  17.2322150 123.8195730  93.0199550
  16.8941230 123.6682980  94.4878400   2.9361280 107.4009470  99.6802570
   2.5876100 107.8573290 100.4460750   2.6048980 106.5066600  99.7625000
   4.5425650 120.5729070 103.8455760   4.4995280 120.2021980 104.7270220
   4.6736660 121.5106640 103.9857580   8.2431680 122.1288660  99.4465480
   8.0023040 122.3963220  98.5596000   9.1834320 122.2994390  99.5016340
  10.4486100 108.5921350 103.2021990  10.3874990 109.1843180 103.9517400
  11.3886480 108.4847310 103.0572250  13.0860660 108.2491410 102.8414280
  13.7001070 108.5670700 102.1795360  13.6310220 107.7640000 103.4610140
  19.5035840 124.1483040 100.2476120  19.0094120 124.5451910  99.5303250
  18.8949130 123.5232250 100.6413400   3.6081920 106.9285670 102.9553340
   4.1564910 106.7473720 102.1919450   3.6737230 106.1379780 103.4909650
   4.3813680 123.5191320 100.9653540   3.7874000 123.3876020 101.7043580
   4.3737520 122.6829460 100.4995640  13.8268700 106.8123550  99.1683570
  12.9528540 107.1458660  98.9656500  13.7179450 106.3396730  99.9935440
  14.7340680 109.0194420 100.5525290  14.4054040 108.2046180 100.1727020
  15.6822980 108.9764230 100.4290980  17.1875290 124.7906460  97.5262860
  16.7278260 125.5422270  97.1520880  16.5587750 124.0712930  97.4677660
   4.0125910 120.8849700  99.9161580   3.2859970 120.2654990  99.8487530
   4.0735060 121.2790310  99.0459660   7.6171010 123.0994700  96.7010990
   8.1336030 122.4882060  96.1759250   8.2668390 123.6023480  97.1922000
  10.3566510 123.9903190  97.5279970  10.6444320 123.7357490  96.6512980
  10.8689730 123.4380550  98.1185540  11.5743520 107.7293390  98.1076480
  10.7915310 108.2038890  98.3873240  11.2806450 106.8248220  97.9989660
  16.1264590 108.4316490  96.1525570  16.5672680 108.3761590  95.3047170
  15.8572180 109.3474500  96.2235750  17.9903160 108.0631730  94.1634390
  17.9291560 107.1192950  94.0165410  18.7695190 108.1711820  94.7087850
   2.9183930 108.0340870  90.6290200   3.6763290 108.1469750  90.0554230
   2.4561100 108.8710070  90.5833630   9.4597740 110.1480140  93.6192510
   8.6472250 109.7737030  93.2788390   9.9639380 109.3925220  93.9213700
  13.9622720 106.8122590  94.8575580  14.5652090 107.3842800  95.3324100
  13.2215710 107.3762030  94.6349480  17.1057320 107.2144150  90.1315860
  17.3007950 108.1127600  90.3983290  16.3187190 106.9831230  90.6248810
   3.9018610 122.8957320  90.5708480   3.3766230 123.2765350  89.8670440
   3.8263190 123.5208090  91.2918190   5.2909080 108.5604920  89.1692170
   5.8201840 107.7734720  89.0400120   5.9237400 109.2396110  89.4027700
   7.4846920 108.2980060  92.2237560   6.8549660 107.5967370  92.3907690
   6.9452060 109.0584190  92.0070720  10.4238870 124.9119290 104.8948170
  11.3506180 124.6763560 104.9384130  10.4089300 125.7391290 104.4134200
  18.6583930 124.4544860  91.8922420  18.8336120 123.7682600  91.2483340
  17.9605500 124.9791910  91.4999090   7.6102480 107.5764040 104.6590050
   7.3286750 108.0797640 103.8950870   7.9922180 106.7785790 104.2932180
   6.5011580 124.8439700  89.4457730   7.2330400 124.5598980  88.8981620
   6.7605250 124.6052980  90.3357110   5.6626370 120.9604430  89.4504060
   5.0335250 121.4289530  89.9989890   5.7774200 120.1153650  89.8850250
  14.2117940 106.9917620 105.2370520  14.0983390 107.3112230 106.1322040
  15.0287680 107.3930130 104.9407800  16.9916430 124.1389150 104.7189210
  17.7841750 123.6438380 104.5115170  17.2849580 124.8179290 105.3264820
  13.1176090 115.0110090  75.6005260  13.0370140 114.0964700  75.3296970
  12.7040510 115.5077160  74.8944970  11.2494130 116.7889110  77.4814530
  10.4736230 116.3089550  77.7713100  11.9007060 116.1094760  77.3070690
   5.2659960 117.1008920  78.3590290   4.4344840 116.8457630  78.7586800
   5.8740940 117.1719690  79.0948210  15.2701560 121.1949300  76.2613660
  14.8083090 120.4236540  76.5900830  16.0827110 121.2215370  76.7666110
   5.2461220 121.1349010  78.5548310   5.5489260 120.2446750  78.3758530
   5.9904810 121.6919230  78.3270560   3.6751910 112.0610810  72.1432680
   2.7868610 112.4026780  72.0412560   3.9593100 111.8611130  71.2513510
  11.4964870 123.4807310  75.8817650  10.8776310 123.9364810  75.3112090
  12.3516650 123.6358770  75.4807350  10.6903120 119.4646300  77.4884690
  10.6211400 118.5236240  77.3273820  11.4522980 119.5547710  78.0607260
   2.8809790 110.0700820  79.8141310   2.7012630 109.1726570  80.0944070
   2.4789870 110.6172690  80.4888260  11.7208290 112.2716680  77.7153620
  12.0973110 111.3988560  77.6027290  11.6227800 112.6075380  76.8244060
   5.8513300 110.6442310  73.1771060   5.9580050 111.5446040  73.4839820
   4.9405660 110.5960280  72.8865710  15.5032410 109.7667120  74.6481960
  16.3242030 109.2763690  74.6907440  15.5366490 110.3564780  75.4013800
   3.4996460 112.5661320  78.4223650   4.1806570 112.8299690  79.0411050
   3.1844510 111.7262190  78.7561660   7.6921030 113.6128680  77.5096240
   8.1999250 114.1109650  78.1501260   8.2234270 112.8363880  77.3335600
   5.9757130 108.2527240  81.7759660   5.9775570 108.7699630  80.9705560
   5.1461440 107.7757420  81.7529590  12.3628220 118.3646550  73.2749560
  11.7445490 118.8296000  72.7112280  12.8751470 119.0574030  73.6919070
   7.2259980 117.8922420  79.9533160   6.8929360 118.5191340  80.5954230
   7.4026660 118.4184300  79.1734830  15.7393890 111.7067500  77.4209500
  15.0349460 111.9952390  78.0012610  16.1006050 112.5167610  77.0609060
   5.6572460 109.9637200  79.7830110   5.9989270 110.8079250  79.4883980
   4.7188270 110.1120940  79.8995450   6.4379080 119.8603220  81.7682340
   7.0553080 120.5354300  81.4866790   5.5772200 120.2691200  81.6769840
  17.3556670 121.3242630  79.6836980  16.6720190 121.9941740  79.6753650
  17.8950960 121.5223280  78.9181840  18.8080810 111.1522290  77.8118710
  17.8605720 111.1861270  77.9434140  19.1330800 111.9661240  78.1968070
   9.3400350 107.4519470  76.1074700   9.6475330 106.8966360  75.3910200
   8.4101050 107.5863930  75.9247690  14.8915410 123.1686760  78.3982160
  14.9042570 122.7649050  77.5304420  14.3390630 123.9434050  78.2943590
  16.1860830 119.8902980  73.4872330  16.0757160 118.9477310  73.6121750
  16.1829080 120.2518620  74.3735090  14.2900850 118.0716600  79.7264770
  14.7069640 117.8576710  78.8918230  15.0140670 118.3289390  80.2973390
  11.7281110 115.5168300  72.8434820  10.8010390 115.4505680  73.0723290
  11.8805930 116.4548430  72.7290060  11.7150190 111.7885300  69.8401980
  10.7753860 111.9499260  69.9254440  12.0333450 112.5070980  69.2937970
  18.2362950 116.4703820  79.8181010  17.4081580 116.5396910  79.3431140
  18.8313430 117.0558130  79.3496840  15.7578400 117.0788600  73.3470070
  15.1390820 116.7408150  72.6996370  15.7402850 116.4348360  74.0549260
  15.2004960 113.2573140  80.7635880  14.7876140 114.0826850  81.0175870
  14.4680910 112.6718180  80.5712240   7.3337750 116.0433040  75.6254550
   6.9294750 115.3310290  75.1300450   7.4200870 115.6986280  76.5142590
   7.8019450 119.7300600  77.7893760   7.5047740 119.1246070  77.1101540
   8.7519270 119.7677910  77.6783120   6.0466370 112.8176250  79.4053590
   6.5980960 112.9271590  78.6306840   6.5609880 113.1913850  80.1208820
  15.8905060 123.3032470  81.4516860  15.4135620 124.1104660  81.2589470
  15.2066850 122.6510800  81.6043070   6.8937880 119.4682290  84.4401560
   5.9966410 119.6922260  84.6874960   6.9190750 119.5917230  83.4912960
  13.9343100 116.3175410  70.3542820  14.3736380 115.4797840  70.2080640
  14.6471520 116.9504810  70.4406960   5.7209100 116.3395610  83.0158930
   5.5816870 117.2118410  83.3846330   4.8390460 115.9968420  82.8706870
  12.0438480 121.2571480  74.3224060  12.4834390 121.9995810  73.9079450
  11.9825370 121.4998050  75.2463020   7.5189450 122.2817310  85.2244080
   7.4904880 122.6860260  84.3572510   7.3554420 121.3527670  85.0615680
  17.5160240 107.5718220  68.6683860  17.2032900 107.6645050  69.5682930
  18.2772710 108.1499250  68.6181290   4.0342380 114.9378020  73.1261200
   3.9139980 115.6640110  72.5142470   3.7243270 114.1680930  72.6489110
  19.4704270 123.0644410  86.5208250  19.9463990 123.5427300  87.1997330
  20.0911430 122.9961900  85.7953750   2.9175380 119.8093350  75.3436020
   2.5103460 119.9507940  74.4889620   3.8088390 119.5253510  75.1407230
  18.8737520 120.2557260  83.6808260  19.0000580 120.0169140  82.7625440
  18.9158900 119.4241800  84.1530340  12.7354260 123.9585260  82.2503070
  13.2498930 123.8693270  83.0525500  11.8923340 124.3044960  82.5430980
  14.7108660 124.2440600  71.6787070  14.5509800 123.9543540  72.5768900
  14.5455370 123.4680730  71.1432300   7.1897040 124.0239130  73.4558690
   7.0139520 123.1074670  73.2426490   6.3352780 124.3826420  73.6956490
  14.4134790 121.7528160  70.2385070  13.7199950 121.7505450  69.5787350
  15.1557650 121.3287480  69.8079240  13.9784720 123.3790870  74.3133560
  14.4341670 122.5980250  74.6272180  14.3177240 124.0897690  74.8574740
  18.7261530 112.3089720  84.6458000  18.1105800 112.8169390  84.1173460
  18.4057950 111.4088050  84.5883940   6.5006040 108.2813090  76.5084870
   6.0574190 109.0622630  76.1769390   7.0591030 108.6042980  77.2155810
  10.7875850 111.1481610  82.1120190  10.3255220 111.3564630  82.9240130
  10.3853960 110.3340960  81.8090860  15.7880360 112.3690560  83.2416850
  14.9373950 112.0696310  83.5625920  15.6282150 112.6132570  82.3300670
  12.8830070 113.8692310  85.3415640  13.2083480 113.0356060  85.0017870
  13.6710400 114.3920830  85.4893970   9.6164860 107.9023790  71.3890700
   8.9919040 107.8983660  72.1144010   9.5294980 107.0354750  70.9926670
   8.5381940 108.8260420  78.3674470   8.8354270 109.7323250  78.2866490
   9.0867500 108.3379200  77.7534040   6.2920260 113.4046660  74.2366120
   6.0661180 113.1883830  75.1412740   5.5112790 113.8375120  73.8912090
  13.5218020 113.4110030  72.8356770  12.9226910 114.1345830  72.6520390
  14.0697630 113.3486810  72.0533220   8.7319470 114.3032240  84.9026390
   8.6363070 113.3626970  84.7526790   9.5751450 114.5247310  84.5074460
  12.1282890 112.0473570  74.8660050  12.5212460 112.3645770  74.0528740
  12.4899740 111.1685450  74.9804570   3.8630010 110.7145910  83.0560170
   3.4693400 111.5621120  83.2632950   3.1748410 110.0772280  83.2468810
  10.4375060 110.7980880  86.1256910   9.7473380 110.6053080  86.7603000
  11.1807360 111.0815520  86.6581210  12.7138030 114.6379320  78.9610830
  11.9819150 115.1466130  79.3100930  12.3162370 113.8209300  78.6599610
   9.1515420 111.3133520  77.3663320   9.1551480 110.8723470  76.5167860
  10.0466540 111.6350850  77.4735140   5.0017800 111.1960010  76.3257530
   4.6617850 111.6735240  77.0824580   4.2395120 110.7425130  75.9658630
   9.2135570 112.3145600  70.3570080   9.3348390 112.2732080  71.3055900
   8.8284080 113.1769750  70.2016810  13.1763940 110.0913000  78.3733770
  13.1936680 110.5421650  79.2175620  12.9279520 109.1918640  78.5867210
   8.2257070 114.6246740  69.7553380   7.6573970 114.1764990  69.1289290
   8.9346070 114.9839520  69.2218530  16.6034690 107.5045180  84.2120150
  16.9280460 106.7734840  84.7378130  16.6391200 107.1858820  83.3101140
   3.3026250 118.5258760  83.6320110   2.9181040 117.8852430  84.2303070
   3.6138440 119.2294880  84.2014840   9.4523390 115.3735300  79.1128730
   9.8193520 114.8993870  79.8590070   9.2628450 116.2476870  79.4537070
   2.3163880 110.1178990  75.2422200   2.0310800 109.7534660  76.0800820
   2.2542740 109.3859450  74.6285340   7.2422760 114.4143940  81.4312940
   6.9379830 115.2935920  81.6563300   8.1969220 114.4743730  81.4670380
   5.7704550 118.6204930  72.0279790   4.9966810 118.0802550  71.8678510
   6.4999180 118.1011540  71.6897550  16.5292530 117.6170290  77.8206180
  17.2491650 118.1125580  77.4302290  16.3274350 116.9388180  77.1760050
  11.9902470 109.0108250  71.9635570  11.1767080 108.5121420  71.8880880
  11.7964420 109.8506500  71.5471920  11.9111330 117.6879350  83.7075180
  11.8448640 116.7675020  83.4532770  11.2816470 117.7854790  84.4219820
  14.7050860 113.3827900  70.2597730  15.5930480 113.6945130  70.0849070
  14.6755950 112.5100150  69.8678310   5.8141950 118.2885310  75.6658600
   6.3320620 117.4853570  75.6115490   5.3625970 118.2264450  76.5075430
  10.7011450 119.5551590  70.9385900  11.0427150 120.2993820  70.4429220
   9.8724160 119.8682710  71.3010730   3.2986490 115.2546680  82.5784300
   2.9401430 115.9200530  83.1657640   3.0041050 114.4230230  82.9496920
   6.4999610 115.7130920  85.4623850   6.1999750 115.8588100  84.5651670
   7.2710850 115.1536210  85.3697240  11.8428060 120.5099920  83.4578980
  11.8572600 119.5780880  83.2397890  11.1353160 120.5959680  84.0968750
  16.9765130 114.6939740  69.7277590  16.8928850 115.1253960  68.8774030
  17.6959320 115.1538090  70.1604410  18.0539270 117.1507260  82.8047560
  17.3287460 117.7436040  82.6076950  18.5814730 117.1430800  82.0060930
  18.0052380 121.5482000  72.4559720  17.3628540 120.8937620  72.7303440
  17.6183040 121.9537090  71.6800390  13.5838860 118.8767430  76.3031410
  13.9362680 118.2795560  75.6432780  12.7001190 118.5511660  76.4739660
   9.6702140 119.6365120  73.7101820  10.3573270 120.1834330  74.0909410
   8.8834560 120.1805850  73.7451430   8.9729350 116.6411150  73.3227180
   9.4292130 117.4516400  73.5487370   8.6217560 116.3234290  74.1545670
  11.2761960 122.1517490  80.5519480  11.9204180 122.3576870  81.2292900
  11.6391400 121.3905890  80.0990330   4.8741130 106.9848800  73.7949700
   4.7455760 106.9766700  74.7434620   4.0503150 107.3231890  73.4440710
  12.5494040 120.1549840  79.2696930  13.1916270 119.4543000  79.3829100
  13.0743390 120.9348280  79.0893820  16.3949760 120.4398460  68.9936070
  16.1687340 119.7228900  69.5860710  16.0045960 120.1910900  68.1557820
  14.3231660 120.9544740  82.4732990  14.6587900 121.5411430  83.1510910
  13.4032000 120.8237450  82.7030780   2.1765790 124.4665320  69.7680530
   2.5363430 125.0654660  69.1137800   2.0358130 125.0125210  70.5415560
  15.9766010 118.3570400  70.6550230  15.6887710 118.8183090  71.4428110
  16.7718180 117.8968170  70.9234450  10.1520240 121.0036070  85.6421050
   9.8317110 120.2845310  86.1866740   9.4778600 121.6791140  85.7157110
   8.1934410 121.8496520  70.5854200   8.1844510 122.5826210  69.9698710
   7.2732770 121.6028100  70.6781160   3.7941050 117.0711410  71.3300960
   3.1869000 117.8110310  71.3396260   4.2690400 117.1610770  70.5039160
  13.3673840 111.2362230  81.0057850  13.7354660 110.4157440  81.3337420
  12.5072040 111.2964120  81.4213500  16.7335870 110.1919170  71.8145410
  16.1049030 110.2964840  71.1003640  16.2387790 110.4115950  72.6039290
  11.1794010 121.9124760  69.2479390  11.2805990 121.7088750  68.3181370
  10.2795750 121.6583040  69.4527170   8.7019900 112.4705120  73.2303290
   7.9936050 112.9391460  73.6716900   8.9864380 111.8127130  73.8648480
  10.3275830 113.8901820  81.2295820  10.8261080 114.3647640  81.8947670
  10.4698780 112.9665340  81.4365850  12.7335330 109.1955780  74.6699080
  12.6103110 109.2141910  73.7208590  13.6819890 109.2434720  74.7897480
   9.8212120 124.4311080  73.9427060  10.0753620 124.3932470  73.0206430
   8.8724600 124.3044410  73.9355310   6.9054920 110.7790200  70.6054000
   7.7545450 111.2160350  70.5394190   6.5386190 111.0910460  71.4326060
  17.5342690 110.1069780  82.0724210  17.0316290 110.8475180  82.4118020
  18.3499350 110.4953780  81.7561000  15.8264700 115.3502960  75.5185570
  14.8854840 115.3653190  75.6933260  16.1408770 114.5638920  75.9645870
   5.8046340 117.0322560  69.0789530   6.5709610 116.9203920  69.6414960
   5.8821030 116.3360530  68.4266300   4.4993100 114.4647630  69.7622420
   4.5796690 113.5175140  69.8739820   5.3912850 114.7954510  69.8683080
  17.8290280 122.5211810  77.1939830  17.9537700 123.3442980  77.6663640
  18.6955840 122.3102540  76.8463980   5.3007810 124.6143020  76.8656960
   6.0370290 124.0658480  77.1365530   5.6848730 125.4799030  76.7262950
   4.3066090 123.7989090  86.0542540   5.1078820 124.1201140  86.4677940
   3.7917910 123.4384670  86.7762450   8.4110120 123.7873330  68.6882530
   9.2038730 124.0762160  68.2364320   7.8914470 123.3565500  68.0095010
  13.1430720 119.9068960  86.0017950  12.5368880 119.9300560  85.2613700
  12.8384830 119.1752000  86.5385200  14.5731090 123.6349250  84.6127360
  15.5252840 123.5507270  84.5627600  14.4259310 124.2990960  85.2861150
  17.4640290 123.0143460  70.1119270  17.1781800 122.6008600  69.2973450
  17.2659840 123.9431170  69.9919790   8.9287520 119.0076740  68.5524880
   8.8238160 118.3929090  69.2786260   8.7611740 118.4842630  67.7687890
   9.0801840 117.6933540  84.5314110   8.3147510 118.2618540  84.4468780
   9.2617800 117.4009750  83.6382340  12.1690250 118.0696770  69.1566870
  11.6200350 118.5166070  69.8009610  12.7909510 117.5646020  69.6804540
  16.2225190 119.4238870  85.0889130  16.9634660 119.7614630  84.5856590
  15.4597870 119.5930930  84.5358900   4.0586980 114.4292140  85.8928660
   4.0992320 114.1306010  86.8013890   4.9132480 114.8299750  85.7336180
   7.8365370 117.0287690  71.0532170   8.2581790 116.8627560  71.8963560
   7.9616210 116.2187920  70.5587310   5.9992790 113.0084240  83.8603150
   5.4689250 112.5175190  83.2326490   6.6680860 113.4368440  83.3261080
  10.3493010 116.0525300  68.3009270  10.8698670 115.3374320  67.9350420
  10.9961410 116.6911170  68.6009780  14.8970850 117.4753700  83.6244340
  15.3111870 117.6298780  84.4734760  13.9621850 117.6008920  83.7870120
  15.3693020 114.8149860  85.6283490  15.9513790 114.0602180  85.5403970
  15.5454790 115.3457300  84.8514970   6.4865090 109.9746610  83.9400440
   6.3921960 109.3567360  83.2151310   5.9062480 110.7012900  83.7130350
   9.2526530 108.5319850  80.9727830   8.8043830 108.5544110  80.1273380
   8.6191730 108.1338870  81.5698130   9.6586080 117.4274180  81.5940270
  10.0774190 118.2706910  81.4216510   8.7394710 117.5646220  81.3647050
  11.9949980 115.1590360  82.9778110  12.1146190 114.5631500  83.7172950
  12.8543980 115.1960050  82.5579410  14.3337880 115.7127550  81.5540620
  13.8073100 116.2370170  80.9505760  14.6769220 116.3454940  82.1850350
   6.7324270 113.1020920  67.9990330   6.5313330 112.2388280  68.3603670
   6.5616320 113.0154280  67.0611930   7.5093500 123.7327190  82.7098000
   6.9714590 124.4573250  82.3906700   7.7627460 123.2557530  81.9195340
   8.7618750 111.7011710  84.2353930   9.3518440 111.3927560  84.9231750
   7.9438990 111.2291460  84.3913830  13.5812180 111.3177520  84.4686950
  12.8927700 110.6559060  84.4036940  14.3018200 110.8715790  84.9135410
  14.2112580 107.9129150  70.5277210  14.4914870 107.0697050  70.8836630
  13.4378310 108.1452260  71.0415960   5.5307070 110.2021540  67.9868210
   5.8332970 110.2088970  67.0787360   6.2701660 109.8519400  68.4835870
  10.3655710 124.9678400  82.9684650  10.2914410 125.8713540  83.2757020
   9.4634550 124.6490300  82.9406720   8.7492000 109.1456160  68.9724410
   8.4014000 108.4680150  68.3926860   8.9504770 108.6845670  69.7867800
  10.9141040 124.1336910  70.5911010  11.8091830 124.4721880  70.6129770
  10.9458670 123.4116320  69.9635290   4.5537200 119.5063960  68.8198010
   4.9912070 120.0493630  69.4755590   5.0384930 118.6810910  68.8294350
   1.7683000 122.2952990  76.2718270   2.0986010 121.4274050  76.0396910
   2.1974000 122.5011510  77.1023230   6.3644920 120.6262000  73.9320240
   6.0640460 120.5026970  74.8324150   6.2582410 119.7670590  73.5235970
   2.2573210 123.1623580  79.0099900   1.8204200 123.3424380  79.8424050
   2.8250890 123.9198200  78.8681620  17.8935390 122.6640580  83.2977210
  17.2937380 122.7233140  82.5541130  18.0229290 121.7245560  83.4274060
  19.1336840 120.4058400  68.6346920  18.3029800 120.4735050  69.1054150
  19.3108670 121.2962520  68.3313780  18.5893300 117.1505880  71.1381120
  19.3512210 117.7202530  71.2440810  18.6047670 116.5833080  71.9089430
  19.5953270 118.0055980  75.9823050  19.9662100 117.2223300  75.5759020
  20.2355200 118.6945080  75.8040350  16.5787030 119.3892560  81.3953370
  15.7646870 119.8189720  81.6579160  16.9861230 120.0010970  80.7822420
  18.6412470 117.4440250  68.2953640  18.9161310 118.3519130  68.1672860
  18.4523210 117.3802780  69.2315630  15.0388080 110.4685100  69.5907270
  15.4572960 110.2816080  68.7503930  14.7324140 109.6164150  69.9010200
  18.5377810 115.3809240  73.2883070  18.1621410 114.6137170  72.8564360
  17.8080930 115.7631940  73.7758000   3.1273570 116.0596380  79.9092120
   3.4946610 115.9723780  80.7888140   2.5584390 115.2962930  79.8098980
  17.9277430 114.5280760  82.9222590  17.6963520 114.2993510  82.0220540
  18.1881980 115.4480310  82.8767480   2.6789570 112.9705470  83.8150540
   1.7845620 112.9372230  84.1544250   3.2187120 113.1692260  84.5801790
  16.3665500 109.7537190  85.7002290  17.2435680 109.7620590  86.0836290
  16.3786340 109.0168030  85.0894640  17.8128770 113.6066730  76.5890310
  18.3366250 113.1129380  75.9580480  18.3988190 113.7417090  77.3337880
  17.9918490 113.6906600  80.1109860  17.0421200 113.6570140  80.2254850
  18.1731500 114.6006710  79.8759630   3.8462930 111.9408280  69.2208490
   4.5554630 111.5191500  68.7355770   3.1302870 112.0083510  68.5891840
   3.4937090 107.9947610  68.2611140   4.2165220 108.5356550  68.5792360
   3.7661610 107.7211030  67.3852680  17.3028740 112.8640080  72.5282720
  17.7987860 112.6310950  73.3131600  17.1044810 112.0251920  72.1120360
   3.1829280 107.2453800  78.1633760   3.8305470 106.6951180  77.7228920
   3.6031120 107.4996950  78.9849570  18.7315900 111.5001030  75.0620400
  18.6215180 111.3457070  76.0002670  19.4923490 110.9721970  74.8195810
  17.0781620 107.4395160  81.5203400  17.7153840 108.0529300  81.8862590
  17.2256510 107.4755820  80.5752630  19.6206170 109.3308950  68.3026540
  20.5455480 109.1990130  68.0944830  19.5981960 109.4101770  69.2562990
  19.6944660 110.1019610  70.9283250  18.8996160 110.0364730  71.4576160
  19.8987940 111.0370250  70.9168600  16.6363080 124.1411160  74.9221640
  17.2322150 123.8195730  74.2456060  16.8941230 123.6682980  75.7134910
   2.9361280 107.4009470  80.9059080   2.5876100 107.8573290  81.6717260
   2.6048980 106.5066600  80.9881510   4.5425650 120.5729070  85.0712270
   4.4995280 120.2021980  85.9526730   4.6736660 121.5106640  85.2114090
   8.2431680 122.1288660  80.6721990   8.0023040 122.3963220  79.7852510
   9.1834320 122.2994390  80.7272850  10.4486100 108.5921350  84.4278500
  10.3874990 109.1843180  85.1773910  11.3886480 108.4847310  84.2828760
  13.0860660 108.2491410  84.0670790  13.7001070 108.5670700  83.4051870
  13.6310220 107.7640000  84.6866650  19.5035840 124.1483040  81.4732630
  19.0094120 124.5451910  80.7559760  18.8949130 123.5232250  81.8669910
   3.6081920 106.9285670  84.1809850   4.1564910 106.7473720  83.4175960
   3.6737230 106.1379780  84.7166160   4.3813680 123.5191320  82.1910050
   3.7874000 123.3876020  82.9300090   4.3737520 122.6829460  81.7252150
  13.8268700 106.8123550  80.3940080  12.9528540 107.1458660  80.1913010
  13.7179450 106.3396730  81.2191950  14.7340680 109.0194420  81.7781800
  14.4054040 108.2046180  81.3983530  15.6822980 108.9764230  81.6547490
  17.1875290 124.7906460  78.7519370  16.7278260 125.5422270  78.3777390
  16.5587750 124.0712930  78.6934170   4.0125910 120.8849700  81.1418090
   3.2859970 120.2654990  81.0744040   4.0735060 121.2790310  80.2716170
   7.6171010 123.0994700  77.9267500   8.1336030 122.4882060  77.4015760
   8.2668390 123.6023480  78.4178510  10.3566510 123.9903190  78.7536480
  10.6444320 123.7357490  77.8769490  10.8689730 123.4380550  79.3442050
  11.5743520 107.7293390  79.3332990  10.7915310 108.2038890  79.6129750
  11.2806450 106.8248220  79.2246170  16.1264590 108.4316490  77.3782080
  16.5672680 108.3761590  76.5303680  15.8572180 109.3474500  77.4492260
  17.9903160 108.0631730  75.3890900  17.9291560 107.1192950  75.2421920
  18.7695190 108.1711820  75.9344360   2.9183930 108.0340870  71.8546710
   3.6763290 108.1469750  71.2810740   2.4561100 108.8710070  71.8090140
   9.4597740 110.1480140  74.8449020   8.6472250 109.7737030  74.5044900
   9.9639380 109.3925220  75.1470210  13.9622720 106.8122590  76.0832090
  14.5652090 107.3842800  76.5580610  13.2215710 107.3762030  75.8605990
  17.1057320 107.2144150  71.3572370  17.3007950 108.1127600  71.6239800
  16.3187190 106.9831230  71.8505320   3.9018610 122.8957320  71.7964990
   3.3766230 123.2765350  71.0926950   3.8263190 123.5208090  72.5174700
   5.2909080 108.5604920  70.3948680   5.8201840 107.7734720  70.2656630
   5.9237400 109.2396110  70.6284210   7.4846920 108.2980060  73.4494070
   6.8549660 107.5967370  73.6164200   6.9452060 109.0584190  73.2327230
  10.4238870 124.9119290  86.1204680  11.3506180 124.6763560  86.1640640
  10.4089300 125.7391290  85.6390710  18.6583930 124.4544860  73.1178930
  18.8336120 123.7682600  72.4739850  17.9605500 124.9791910  72.7255600
   7.6102480 107.5764040  85.8846560   7.3286750 108.0797640  85.1207380
   7.9922180 106.7785790  85.5188690   6.5011580 124.8439700  70.6714240
   7.2330400 124.5598980  70.1238130   6.7605250 124.6052980  71.5613620
   5.6626370 120.9604430  70.6760570   5.0335250 121.4289530  71.2246400
   5.7774200 120.1153650  71.1106760  14.2117940 106.9917620  86.4627030
  14.0983390 107.3112230  87.3578550  15.0287680 107.3930130  86.1664310
  16.9916430 124.1389150  85.9445720  17.7841750 123.6438380  85.7371680
  17.2849580 124.8179290  86.5521330  13.1176090 115.0110090  56.8261770
  13.0370140 114.0964700  56.5553480  12.7040510 115.5077160  56.1201480
  11.2494130 116.7889110  58.7071040  10.4736230 116.3089550  58.9969610
  11.9007060 116.1094760  58.5327200   5.2659960 117.1008920  59.5846800
   4.4344840 116.8457630  59.9843310   5.8740940 117.1719690  60.3204720
  15.2701560 121.1949300  57.4870170  14.8083090 120.4236540  57.8157340
  16.0827110 121.2215370  57.9922620   5.2461220 121.1349010  59.7804820
   5.5489260 120.2446750  59.6015040   5.9904810 121.6919230  59.5527070
   3.6751910 112.0610810  53.3689190   2.7868610 112.4026780  53.2669070
   3.9593100 111.8611130  52.4770020  11.4964870 123.4807310  57.1074160
  10.8776310 123.9364810  56.5368600  12.3516650 123.6358770  56.7063860
  10.6903120 119.4646300  58.7141200  10.6211400 118.5236240  58.5530330
  11.4522980 119.5547710  59.2863770   2.8809790 110.0700820  61.0397820
   2.7012630 109.1726570  61.3200580   2.4789870 110.6172690  61.7144770
  11.7208290 112.2716680  58.9410130  12.0973110 111.3988560  58.8283800
  11.6227800 112.6075380  58.0500570   5.8513300 110.6442310  54.4027570
   5.9580050 111.5446040  54.7096330   4.9405660 110.5960280  54.1122220
  15.5032410 109.7667120  55.8738470  16.3242030 109.2763690  55.9163950
  15.5366490 110.3564780  56.6270310   3.4996460 112.5661320  59.6480160
   4.1806570 112.8299690  60.2667560   3.1844510 111.7262190  59.9818170
   7.6921030 113.6128680  58.7352750   8.1999250 114.1109650  59.3757770
   8.2234270 112.8363880  58.5592110  19.7931960 111.7833870  62.4382100
  19.0884130 112.1715580  61.9197210  20.0589880 112.4784160  63.0403030
   5.9757130 108.2527240  63.0016170   5.9775570 108.7699630  62.1962070
   5.1461440 107.7757420  62.9786100  12.3628220 118.3646550  54.5006070
  11.7445490 118.8296000  53.9368790  12.8751470 119.0574030  54.9175580
   7.2259980 117.8922420  61.1789670   6.8929360 118.5191340  61.8210740
   7.4026660 118.4184300  60.3991340  15.7393890 111.7067500  58.6466010
  15.0349460 111.9952390  59.2269120  16.1006050 112.5167610  58.2865570
   5.6572460 109.9637200  61.0086620   5.9989270 110.8079250  60.7140490
   4.7188270 110.1120940  61.1251960   6.4379080 119.8603220  62.9938850
   7.0553080 120.5354300  62.7123300   5.5772200 120.2691200  62.9026350
  17.3556670 121.3242630  60.9093490  16.6720190 121.9941740  60.9010160
  17.8950960 121.5223280  60.1438350  18.8080810 111.1522290  59.0375220
  17.8605720 111.1861270  59.1690650  19.1330800 111.9661240  59.4224580
   9.3400350 107.4519470  57.3331210   9.6475330 106.8966360  56.6166710
   8.4101050 107.5863930  57.1504200  14.8915410 123.1686760  59.6238670
  14.9042570 122.7649050  58.7560930  14.3390630 123.9434050  59.5200100
  16.1860830 119.8902980  54.7128840  16.0757160 118.9477310  54.8378260
  16.1829080 120.2518620  55.5991600  14.2900850 118.0716600  60.9521280
  14.7069640 117.8576710  60.1174740  15.0140670 118.3289390  61.5229900
  11.7281110 115.5168300  54.0691330  10.8010390 115.4505680  54.2979800
  11.8805930 116.4548430  53.9546570  11.7150190 111.7885300  51.0658490
  10.7753860 111.9499260  51.1510950  12.0333450 112.5070980  50.5194480
  18.2362950 116.4703820  61.0437520  17.4081580 116.5396910  60.5687650
  18.8313430 117.0558130  60.5753350  15.7578400 117.0788600  54.5726580
  15.1390820 116.7408150  53.9252880  15.7402850 116.4348360  55.2805770
  15.2004960 113.2573140  61.9892390  14.7876140 114.0826850  62.2432380
  14.4680910 112.6718180  61.7968750   7.3337750 116.0433040  56.8511060
   6.9294750 115.3310290  56.3556960   7.4200870 115.6986280  57.7399100
   7.8019450 119.7300600  59.0150270   7.5047740 119.1246070  58.3358050
   8.7519270 119.7677910  58.9039630   6.0466370 112.8176250  60.6310100
   6.5980960 112.9271590  59.8563350   6.5609880 113.1913850  61.3465330
  15.8905060 123.3032470  62.6773370  15.4135620 124.1104660  62.4845980
  15.2066850 122.6510800  62.8299580   6.8937880 119.4682290  65.6658070
   5.9966410 119.6922260  65.9131470   6.9190750 119.5917230  64.7169470
  13.9343100 116.3175410  51.5799330  14.3736380 115.4797840  51.4337150
  14.6471520 116.9504810  51.6663470   5.7209100 116.3395610  64.2415440
   5.5816870 117.2118410  64.6102840   4.8390460 115.9968420  64.0963380
  12.0438480 121.2571480  55.5480570  12.4834390 121.9995810  55.1335960
  11.9825370 121.4998050  56.4719530   7.5189450 122.2817310  66.4500590
   7.4904880 122.6860260  65.5829020   7.3554420 121.3527670  66.2872190
  17.5160240 107.5718220  49.8940370  17.2032900 107.6645050  50.7939440
  18.2772710 108.1499250  49.8437800   4.0342380 114.9378020  54.3517710
   3.9139980 115.6640110  53.7398980   3.7243270 114.1680930  53.8745620
  19.4704270 123.0644410  67.7464760  19.9463990 123.5427300  68.4253840
  20.0911430 122.9961900  67.0210260   2.9175380 119.8093350  56.5692530
   2.5103460 119.9507940  55.7146130   3.8088390 119.5253510  56.3663740
  18.8737520 120.2557260  64.9064770  19.0000580 120.0169140  63.9881950
  18.9158900 119.4241800  65.3786850  12.7354260 123.9585260  63.4759580
  13.2498930 123.8693270  64.2782010  11.8923340 124.3044960  63.7687490
  14.7108660 124.2440600  52.9043580  14.5509800 123.9543540  53.8025410
  14.5455370 123.4680730  52.3688810   7.1897040 124.0239130  54.6815200
   7.0139520 123.1074670  54.4683000   6.3352780 124.3826420  54.9213000
  14.4134790 121.7528160  51.4641580  13.7199950 121.7505450  50.8043860
  15.1557650 121.3287480  51.0335750  13.9784720 123.3790870  55.5390070
  14.4341670 122.5980250  55.8528690  14.3177240 124.0897690  56.0831250
  18.7261530 112.3089720  65.8714510  18.1105800 112.8169390  65.3429970
  18.4057950 111.4088050  65.8140450   6.5006040 108.2813090  57.7341380
   6.0574190 109.0622630  57.4025900   7.0591030 108.6042980  58.4412320
  10.7875850 111.1481610  63.3376700  10.3255220 111.3564630  64.1496640
  10.3853960 110.3340960  63.0347370  15.7880360 112.3690560  64.4673360
  14.9373950 112.0696310  64.7882430  15.6282150 112.6132570  63.5557180
  12.8830070 113.8692310  66.5672150  13.2083480 113.0356060  66.2274380
  13.6710400 114.3920830  66.7150480   9.6164860 107.9023790  52.6147210
   8.9919040 107.8983660  53.3400520   9.5294980 107.0354750  52.2183180
   8.5381940 108.8260420  59.5930980   8.8354270 109.7323250  59.5123000
   9.0867500 108.3379200  58.9790550   6.2920260 113.4046660  55.4622630
   6.0661180 113.1883830  56.3669250   5.5112790 113.8375120  55.1168600
  13.5218020 113.4110030  54.0613280  12.9226910 114.1345830  53.8776900
  14.0697630 113.3486810  53.2789730   8.7319470 114.3032240  66.1282900
   8.6363070 113.3626970  65.9783300   9.5751450 114.5247310  65.7330970
  12.1282890 112.0473570  56.0916560  12.5212460 112.3645770  55.2785250
  12.4899740 111.1685450  56.2061080   3.8630010 110.7145910  64.2816680
   3.4693400 111.5621120  64.4889460   3.1748410 110.0772280  64.4725320
  10.4375060 110.7980880  67.3513420   9.7473380 110.6053080  67.9859510
  11.1807360 111.0815520  67.8837720  12.7138030 114.6379320  60.1867340
  11.9819150 115.1466130  60.5357440  12.3162370 113.8209300  59.8856120
   9.1515420 111.3133520  58.5919830   9.1551480 110.8723470  57.7424370
  10.0466540 111.6350850  58.6991650   5.0017800 111.1960010  57.5514040
   4.6617850 111.6735240  58.3081090   4.2395120 110.7425130  57.1915140
   9.2135570 112.3145600  51.5826590   9.3348390 112.2732080  52.5312410
   8.8284080 113.1769750  51.4273320  13.1763940 110.0913000  59.5990280
  13.1936680 110.5421650  60.4432130  12.9279520 109.1918640  59.8123720
   8.2257070 114.6246740  50.9809890   7.6573970 114.1764990  50.3545800
   8.9346070 114.9839520  50.4475040  16.6034690 107.5045180  65.4376660
  16.9280460 106.7734840  65.9634640  16.6391200 107.1858820  64.5357650
   3.3026250 118.5258760  64.8576620   2.9181040 117.8852430  65.4559580
   3.6138440 119.2294880  65.4271350   9.4523390 115.3735300  60.3385240
   9.8193520 114.8993870  61.0846580   9.2628450 116.2476870  60.6793580
   2.3163880 110.1178990  56.4678710   2.0310800 109.7534660  57.3057330
   2.2542740 109.3859450  55.8541850   7.2422760 114.4143940  62.6569450
   6.9379830 115.2935920  62.8819810   8.1969220 114.4743730  62.6926890
   5.7704550 118.6204930  53.2536300   4.9966810 118.0802550  53.0935020
   6.4999180 118.1011540  52.9154060  16.5292530 117.6170290  59.0462690
  17.2491650 118.1125580  58.6558800  16.3274350 116.9388180  58.4016560
  11.9902470 109.0108250  53.1892080  11.1767080 108.5121420  53.1137390
  11.7964420 109.8506500  52.7728430  11.9111330 117.6879350  64.9331690
  11.8448640 116.7675020  64.6789280  11.2816470 117.7854790  65.6476330
  14.7050860 113.3827900  51.4854240  15.5930480 113.6945130  51.3105580
  14.6755950 112.5100150  51.0934820   5.8141950 118.2885310  56.8915110
   6.3320620 117.4853570  56.8372000   5.3625970 118.2264450  57.7331940
  10.7011450 119.5551590  52.1642410  11.0427150 120.2993820  51.6685730
   9.8724160 119.8682710  52.5267240   3.2986490 115.2546680  63.8040810
   2.9401430 115.9200530  64.3914150   3.0041050 114.4230230  64.1753430
   6.4999610 115.7130920  66.6880360   6.1999750 115.8588100  65.7908180
   7.2710850 115.1536210  66.5953750  11.8428060 120.5099920  64.6835490
  11.8572600 119.5780880  64.4654400  11.1353160 120.5959680  65.3225260
  16.9765130 114.6939740  50.9534100  16.8928850 115.1253960  50.1030540
  17.6959320 115.1538090  51.3860920  18.0539270 117.1507260  64.0304070
  17.3287460 117.7436040  63.8333460  18.5814730 117.1430800  63.2317440
  18.0052380 121.5482000  53.6816230  17.3628540 120.8937620  53.9559950
  17.6183040 121.9537090  52.9056900  13.5838860 118.8767430  57.5287920
  13.9362680 118.2795560  56.8689290  12.7001190 118.5511660  57.6996170
   9.6702140 119.6365120  54.9358330  10.3573270 120.1834330  55.3165920
   8.8834560 120.1805850  54.9707940   8.9729350 116.6411150  54.5483690
   9.4292130 117.4516400  54.7743880   8.6217560 116.3234290  55.3802180
  11.2761960 122.1517490  61.7775990  11.9204180 122.3576870  62.4549410
  11.6391400 121.3905890  61.3246840   4.8741130 106.9848800  55.0206210
   4.7455760 106.9766700  55.9691130   4.0503150 107.3231890  54.6697220
  12.5494040 120.1549840  60.4953440  13.1916270 119.4543000  60.6085610
  13.0743390 120.9348280  60.3150330  16.3949760 120.4398460  50.2192580
  16.1687340 119.7228900  50.8117220  16.0045960 120.1910900  49.3814330
  14.3231660 120.9544740  63.6989500  14.6587900 121.5411430  64.3767420
  13.4032000 120.8237450  63.9287290   2.1765790 124.4665320  50.9937040
   2.5363430 125.0654660  50.3394310   2.0358130 125.0125210  51.7672070
  15.9766010 118.3570400  51.8806740  15.6887710 118.8183090  52.6684620
  16.7718180 117.8968170  52.1490960  10.1520240 121.0036070  66.8677560
   9.8317110 120.2845310  67.4123250   9.4778600 121.6791140  66.9413620
   8.1934410 121.8496520  51.8110710   8.1844510 122.5826210  51.1955220
   7.2732770 121.6028100  51.9037670   3.7941050 117.0711410  52.5557470
   3.1869000 117.8110310  52.5652770   4.2690400 117.1610770  51.7295670
  13.3673840 111.2362230  62.2314360  13.7354660 110.4157440  62.5593930
  12.5072040 111.2964120  62.6470010  16.7335870 110.1919170  53.0401920
  16.1049030 110.2964840  52.3260150  16.2387790 110.4115950  53.8295800
  11.1794010 121.9124760  50.4735900  11.2805990 121.7088750  49.5437880
  10.2795750 121.6583040  50.6783680   8.7019900 112.4705120  54.4559800
   7.9936050 112.9391460  54.8973410   8.9864380 111.8127130  55.0904990
  10.3275830 113.8901820  62.4552330  10.8261080 114.3647640  63.1204180
  10.4698780 112.9665340  62.6622360  12.7335330 109.1955780  55.8955590
  12.6103110 109.2141910  54.9465100  13.6819890 109.2434720  56.0153990
   9.8212120 124.4311080  55.1683570  10.0753620 124.3932470  54.2462940
   8.8724600 124.3044410  55.1611820   6.9054920 110.7790200  51.8310510
   7.7545450 111.2160350  51.7650700   6.5386190 111.0910460  52.6582570
  17.5342690 110.1069780  63.2980720  17.0316290 110.8475180  63.6374530
  18.3499350 110.4953780  62.9817510  15.8264700 115.3502960  56.7442080
  14.8854840 115.3653190  56.9189770  16.1408770 114.5638920  57.1902380
   5.8046340 117.0322560  50.3046040   6.5709610 116.9203920  50.8671470
   5.8821030 116.3360530  49.6522810   4.4993100 114.4647630  50.9878930
   4.5796690 113.5175140  51.0996330   5.3912850 114.7954510  51.0939590
  17.8290280 122.5211810  58.4196340  17.9537700 123.3442980  58.8920150
  18.6955840 122.3102540  58.0720490   5.3007810 124.6143020  58.0913470
   6.0370290 124.0658480  58.3622040   5.6848730 125.4799030  57.9519460
   4.3066090 123.7989090  67.2799050   5.1078820 124.1201140  67.6934450
   3.7917910 123.4384670  68.0018960   8.4110120 123.7873330  49.9139040
   9.2038730 124.0762160  49.4620830   7.8914470 123.3565500  49.2351520
  13.1430720 119.9068960  67.2274460  12.5368880 119.9300560  66.4870210
  12.8384830 119.1752000  67.7641710  14.5731090 123.6349250  65.8383870
  15.5252840 123.5507270  65.7884110  14.4259310 124.2990960  66.5117660
  17.4640290 123.0143460  51.3375780  17.1781800 122.6008600  50.5229960
  17.2659840 123.9431170  51.2176300   8.9287520 119.0076740  49.7781390
   8.8238160 118.3929090  50.5042770   8.7611740 118.4842630  48.9944400
   9.0801840 117.6933540  65.7570620   8.3147510 118.2618540  65.6725290
   9.2617800 117.4009750  64.8638850  12.1690250 118.0696770  50.3823380
  11.6200350 118.5166070  51.0266120  12.7909510 117.5646020  50.9061050
  16.2225190 119.4238870  66.3145640  16.9634660 119.7614630  65.8113100
  15.4597870 119.5930930  65.7615410   4.0586980 114.4292140  67.1185170
   4.0992320 114.1306010  68.0270400   4.9132480 114.8299750  66.9592690
   7.8365370 117.0287690  52.2788680   8.2581790 116.8627560  53.1220070
   7.9616210 116.2187920  51.7843820   5.9992790 113.0084240  65.0859660
   5.4689250 112.5175190  64.4583000   6.6680860 113.4368440  64.5517590
  10.3493010 116.0525300  49.5265780  10.8698670 115.3374320  49.1606930
  10.9961410 116.6911170  49.8266290  14.8970850 117.4753700  64.8500850
  15.3111870 117.6298780  65.6991270  13.9621850 117.6008920  65.0126630
  15.3693020 114.8149860  66.8540000  15.9513790 114.0602180  66.7660480
  15.5454790 115.3457300  66.0771480   6.4865090 109.9746610  65.1656950
   6.3921960 109.3567360  64.4407820   5.9062480 110.7012900  64.9386860
   9.2526530 108.5319850  62.1984340   8.8043830 108.5544110  61.3529890
   8.6191730 108.1338870  62.7954640   9.6586080 117.4274180  62.8196780
  10.0774190 118.2706910  62.6473020   8.7394710 117.5646220  62.5903560
  11.9949980 115.1590360  64.2034620  12.1146190 114.5631500  64.9429460
  12.8543980 115.1960050  63.7835920  14.3337880 115.7127550  62.7797130
  13.8073100 116.2370170  62.1762270  14.6769220 116.3454940  63.4106860
   6.7324270 113.1020920  49.2246840   6.5313330 112.2388280  49.5860180
   6.5616320 113.0154280  48.2868440   7.5093500 123.7327190  63.9354510
   6.9714590 124.4573250  63.6163210   7.7627460 123.2557530  63.1451850
   8.7618750 111.7011710  65.4610440   9.3518440 111.3927560  66.1488260
   7.9438990 111.2291460  65.6170340  13.5812180 111.3177520  65.6943460
  12.8927700 110.6559060  65.6293450  14.3018200 110.8715790  66.1391920
  14.2112580 107.9129150  51.7533720  14.4914870 107.0697050  52.1093140
  13.4378310 108.1452260  52.2672470   5.5307070 110.2021540  49.2124720
   5.8332970 110.2088970  48.3043870   6.2701660 109.8519400  49.7092380
  10.3655710 124.9678400  64.1941160  10.2914410 125.8713540  64.5013530
   9.4634550 124.6490300  64.1663230   8.7492000 109.1456160  50.1980920
   8.4014000 108.4680150  49.6183370   8.9504770 108.6845670  51.0124310
  10.9141040 124.1336910  51.8167520  11.8091830 124.4721880  51.8386280
  10.9458670 123.4116320  51.1891800   4.5537200 119.5063960  50.0454520
   4.9912070 120.0493630  50.7012100   5.0384930 118.6810910  50.0550860
   1.7683000 122.2952990  57.4974780   2.0986010 121.4274050  57.2653420
   2.1974000 122.5011510  58.3279740   6.3644920 120.6262000  55.1576750
   6.0640460 120.5026970  56.0580660   6.2582410 119.7670590  54.7492480
   2.2573210 123.1623580  60.2356410   1.8204200 123.3424380  61.0680560
   2.8250890 123.9198200  60.0938130  17.8935390 122.6640580  64.5233720
  17.2937380 122.7233140  63.7797640  18.0229290 121.7245560  64.6530570
  19.1336840 120.4058400  49.8603430  18.3029800 120.4735050  50.3310660
  19.3108670 121.2962520  49.5570290  18.5893300 117.1505880  52.3637630
  19.3512210 117.7202530  52.4697320  18.6047670 116.5833080  53.1345940
  19.5953270 118.0055980  57.2079560  19.9662100 117.2223300  56.8015530
  20.2355200 118.6945080  57.0296860  16.5787030 119.3892560  62.6209880
  15.7646870 119.8189720  62.8835670  16.9861230 120.0010970  62.0078930
  18.6412470 117.4440250  49.5210150  18.9161310 118.3519130  49.3929370
  18.4523210 117.3802780  50.4572140  15.0388080 110.4685100  50.8163780
  15.4572960 110.2816080  49.9760440  14.7324140 109.6164150  51.1266710
  18.5377810 115.3809240  54.5139580  18.1621410 114.6137170  54.0820870
  17.8080930 115.7631940  55.0014510   3.1273570 116.0596380  61.1348630
   3.4946610 115.9723780  62.0144650   2.5584390 115.2962930  61.0355490
  17.9277430 114.5280760  64.1479100  17.6963520 114.2993510  63.2477050
  18.1881980 115.4480310  64.1023990   2.6789570 112.9705470  65.0407050
   1.7845620 112.9372230  65.3800760   3.2187120 113.1692260  65.8058300
  16.3665500 109.7537190  66.9258800  17.2435680 109.7620590  67.3092800
  16.3786340 109.0168030  66.3151150  17.8128770 113.6066730  57.8146820
  18.3366250 113.1129380  57.1836990  18.3988190 113.7417090  58.5594390
  17.9918490 113.6906600  61.3366370  17.0421200 113.6570140  61.4511360
  18.1731500 114.6006710  61.1016140   3.8462930 111.9408280  50.4465000
   4.5554630 111.5191500  49.9612280   3.1302870 112.0083510  49.8148350
   3.4937090 107.9947610  49.4867650   4.2165220 108.5356550  49.8048870
   3.7661610 107.7211030  48.6109190  17.3028740 112.8640080  53.7539230
  17.7987860 112.6310950  54.5388110  17.1044810 112.0251920  53.3376870
   3.1829280 107.2453800  59.3890270   3.8305470 106.6951180  58.9485430
   3.6031120 107.4996950  60.2106080  18.7315900 111.5001030  56.2876910
  18.6215180 111.3457070  57.2259180  19.4923490 110.9721970  56.0452320
  17.0781620 107.4395160  62.7459910  17.7153840 108.0529300  63.1119100
  17.2256510 107.4755820  61.8009140  19.6206170 109.3308950  49.5283050
  20.5455480 109.1990130  49.3201340  19.5981960 109.4101770  50.4819500
  19.6944660 110.1019610  52.1539760  18.8996160 110.0364730  52.6832670
  19.8987940 111.0370250  52.1425110  16.6363080 124.1411160  56.1478150
  17.2322150 123.8195730  55.4712570  16.8941230 123.6682980  56.9391420
   2.9361280 107.4009470  62.1315590   2.5876100 107.8573290  62.8973770
   2.6048980 106.5066600  62.2138020   4.5425650 120.5729070  66.2968780
   4.4995280 120.2021980  67.1783240   4.6736660 121.5106640  66.4370600
   8.2431680 122.1288660  61.8978500   8.0023040 122.3963220  61.0109020
   9.1834320 122.2994390  61.9529360  10.4486100 108.5921350  65.6535010
  10.3874990 109.1843180  66.4030420  11.3886480 108.4847310  65.5085270
  13.0860660 108.2491410  65.2927300  13.7001070 108.5670700  64.6308380
  13.6310220 107.7640000  65.9123160  19.5035840 124.1483040  62.6989140
  19.0094120 124.5451910  61.9816270  18.8949130 123.5232250  63.0926420
   3.6081920 106.9285670  65.4066360   4.1564910 106.7473720  64.6432470
   3.6737230 106.1379780  65.9422670   4.3813680 123.5191320  63.4166560
   3.7874000 123.3876020  64.1556600   4.3737520 122.6829460  62.9508660
  13.8268700 106.8123550  61.6196590  12.9528540 107.1458660  61.4169520
  13.7179450 106.3396730  62.4448460  14.7340680 109.0194420  63.0038310
  14.4054040 108.2046180  62.6240040  15.6822980 108.9764230  62.8804000
  17.1875290 124.7906460  59.9775880  16.7278260 125.5422270  59.6033900
  16.5587750 124.0712930  59.9190680   4.0125910 120.8849700  62.3674600
   3.2859970 120.2654990  62.3000550   4.0735060 121.2790310  61.4972680
   7.6171010 123.0994700  59.1524010   8.1336030 122.4882060  58.6272270
   8.2668390 123.6023480  59.6435020  10.3566510 123.9903190  59.9792990
  10.6444320 123.7357490  59.1026000  10.8689730 123.4380550  60.5698560
  11.5743520 107.7293390  60.5589500  10.7915310 108.2038890  60.8386260
  11.2806450 106.8248220  60.4502680  16.1264590 108.4316490  58.6038590
  16.5672680 108.3761590  57.7560190  15.8572180 109.3474500  58.6748770
  17.9903160 108.0631730  56.6147410  17.9291560 107.1192950  56.4678430
  18.7695190 108.1711820  57.1600870   2.9183930 108.0340870  53.0803220
   3.6763290 108.1469750  52.5067250   2.4561100 108.8710070  53.0346650
   9.4597740 110.1480140  56.0705530   8.6472250 109.7737030  55.7301410
   9.9639380 109.3925220  56.3726720  13.9622720 106.8122590  57.3088600
  14.5652090 107.3842800  57.7837120  13.2215710 107.3762030  57.0862500
  17.1057320 107.2144150  52.5828880  17.3007950 108.1127600  52.8496310
  16.3187190 106.9831230  53.0761830   3.9018610 122.8957320  53.0221500
   3.3766230 123.2765350  52.3183460   3.8263190 123.5208090  53.7431210
   5.2909080 108.5604920  51.6205190   5.8201840 107.7734720  51.4913140
   5.9237400 109.2396110  51.8540720   7.4846920 108.2980060  54.6750580
   6.8549660 107.5967370  54.8420710   6.9452060 109.0584190  54.4583740
  10.4238870 124.9119290  67.3461190  11.3506180 124.6763560  67.3897150
  10.4089300 125.7391290  66.8647220  18.6583930 124.4544860  54.3435440
  18.8336120 123.7682600  53.6996360  17.9605500 124.9791910  53.9512110
   7.6102480 107.5764040  67.1103070   7.3286750 108.0797640  66.3463890
   7.9922180 106.7785790  66.7445200   6.5011580 124.8439700  51.8970750
   7.2330400 124.5598980  51.3494640   6.7605250 124.6052980  52.7870130
   5.6626370 120.9604430  51.9017080   5.0335250 121.4289530  52.4502910
   5.7774200 120.1153650  52.3363270  14.2117940 106.9917620  67.6883540
  14.0983390 107.3112230  68.5835060  15.0287680 107.3930130  67.3920820
  16.9916430 124.1389150  67.1702230  17.7841750 123.6438380  66.9628190
  17.2849580 124.8179290  67.7777840  13.1176090 115.0110090  38.0518280
  13.0370140 114.0964700  37.7809990  12.7040510 115.5077160  37.3457990
  11.2494130 116.7889110  39.9327550  10.4736230 116.3089550  40.2226120
  11.9007060 116.1094760  39.7583710   5.2659960 117.1008920  40.8103310
   4.4344840 116.8457630  41.2099820   5.8740940 117.1719690  41.5461230
  15.2701560 121.1949300  38.7126680  14.8083090 120.4236540  39.0413850
  16.0827110 121.2215370  39.2179130   5.2461220 121.1349010  41.0061330
   5.5489260 120.2446750  40.8271550   5.9904810 121.6919230  40.7783580
   3.6751910 112.0610810  34.5945700   2.7868610 112.4026780  34.4925580
   3.9593100 111.8611130  33.7026530  11.4964870 123.4807310  38.3330670
  10.8776310 123.9364810  37.7625110  12.3516650 123.6358770  37.9320370
  10.6903120 119.4646300  39.9397710  10.6211400 118.5236240  39.7786840
  11.4522980 119.5547710  40.5120280   2.8809790 110.0700820  42.2654330
   2.7012630 109.1726570  42.5457090   2.4789870 110.6172690  42.9401280
  11.7208290 112.2716680  40.1666640  12.0973110 111.3988560  40.0540310
  11.6227800 112.6075380  39.2757080   5.8513300 110.6442310  35.6284080
   5.9580050 111.5446040  35.9352840   4.9405660 110.5960280  35.3378730
  15.5032410 109.7667120  37.0994980  16.3242030 109.2763690  37.1420460
  15.5366490 110.3564780  37.8526820   3.4996460 112.5661320  40.8736670
   4.1806570 112.8299690  41.4924070   3.1844510 111.7262190  41.2074680
   7.6921030 113.6128680  39.9609260   8.1999250 114.1109650  40.6014280
   8.2234270 112.8363880  39.7848620  19.7931960 111.7833870  43.6638610
  19.0884130 112.1715580  43.1453720  20.0589880 112.4784160  44.2659540
   5.9757130 108.2527240  44.2272680   5.9775570 108.7699630  43.4218580
   5.1461440 107.7757420  44.2042610  12.3628220 118.3646550  35.7262580
  11.7445490 118.8296000  35.1625300  12.8751470 119.0574030  36.1432090
   7.2259980 117.8922420  42.4046180   6.8929360 118.5191340  43.0467250
   7.4026660 118.4184300  41.6247850  15.7393890 111.7067500  39.8722520
  15.0349460 111.9952390  40.4525630  16.1006050 112.5167610  39.5122080
   5.6572460 109.9637200  42.2343130   5.9989270 110.8079250  41.9397000
   4.7188270 110.1120940  42.3508470   6.4379080 119.8603220  44.2195360
   7.0553080 120.5354300  43.9379810   5.5772200 120.2691200  44.1282860
  17.3556670 121.3242630  42.1350000  16.6720190 121.9941740  42.1266670
  17.8950960 121.5223280  41.3694860  18.8080810 111.1522290  40.2631730
  17.8605720 111.1861270  40.3947160  19.1330800 111.9661240  40.6481090
   9.3400350 107.4519470  38.5587720   9.6475330 106.8966360  37.8423220
   8.4101050 107.5863930  38.3760710  14.8915410 123.1686760  40.8495180
  14.9042570 122.7649050  39.9817440  14.3390630 123.9434050  40.7456610
  16.1860830 119.8902980  35.9385350  16.0757160 118.9477310  36.0634770
  16.1829080 120.2518620  36.8248110  14.2900850 118.0716600  42.1777790
  14.7069640 117.8576710  41.3431250  15.0140670 118.3289390  42.7486410
  11.7281110 115.5168300  35.2947840  10.8010390 115.4505680  35.5236310
  11.8805930 116.4548430  35.1803080  11.7150190 111.7885300  32.2915000
  10.7753860 111.9499260  32.3767460  12.0333450 112.5070980  31.7450990
  18.2362950 116.4703820  42.2694030  17.4081580 116.5396910  41.7944160
  18.8313430 117.0558130  41.8009860  15.7578400 117.0788600  35.7983090
  15.1390820 116.7408150  35.1509390  15.7402850 116.4348360  36.5062280
  15.2004960 113.2573140  43.2148900  14.7876140 114.0826850  43.4688890
  14.4680910 112.6718180  43.0225260   7.3337750 116.0433040  38.0767570
   6.9294750 115.3310290  37.5813470   7.4200870 115.6986280  38.9655610
   7.8019450 119.7300600  40.2406780   7.5047740 119.1246070  39.5614560
   8.7519270 119.7677910  40.1296140   6.0466370 112.8176250  41.8566610
   6.5980960 112.9271590  41.0819860   6.5609880 113.1913850  42.5721840
  15.8905060 123.3032470  43.9029880  15.4135620 124.1104660  43.7102490
  15.2066850 122.6510800  44.0556090   6.8937880 119.4682290  46.8914580
   5.9966410 119.6922260  47.1387980   6.9190750 119.5917230  45.9425980
  13.9343100 116.3175410  32.8055840  14.3736380 115.4797840  32.6593660
  14.6471520 116.9504810  32.8919980   5.7209100 116.3395610  45.4671950
   5.5816870 117.2118410  45.8359350   4.8390460 115.9968420  45.3219890
  12.0438480 121.2571480  36.7737080  12.4834390 121.9995810  36.3592470
  11.9825370 121.4998050  37.6976040   7.5189450 122.2817310  47.6757100
   7.4904880 122.6860260  46.8085530   7.3554420 121.3527670  47.5128700
  17.5160240 107.5718220  31.1196880  17.2032900 107.6645050  32.0195950
  18.2772710 108.1499250  31.0694310   4.0342380 114.9378020  35.5774220
   3.9139980 115.6640110  34.9655490   3.7243270 114.1680930  35.1002130
  19.4704270 123.0644410  48.9721270  19.9463990 123.5427300  49.6510350
  20.0911430 122.9961900  48.2466770   2.9175380 119.8093350  37.7949040
   2.5103460 119.9507940  36.9402640   3.8088390 119.5253510  37.5920250
  18.8737520 120.2557260  46.1321280  19.0000580 120.0169140  45.2138460
  18.9158900 119.4241800  46.6043360  12.7354260 123.9585260  44.7016090
  13.2498930 123.8693270  45.5038520  11.8923340 124.3044960  44.9944000
  14.7108660 124.2440600  34.1300090  14.5509800 123.9543540  35.0281920
  14.5455370 123.4680730  33.5945320   7.1897040 124.0239130  35.9071710
   7.0139520 123.1074670  35.6939510   6.3352780 124.3826420  36.1469510
  14.4134790 121.7528160  32.6898090  13.7199950 121.7505450  32.0300370
  15.1557650 121.3287480  32.2592260  13.9784720 123.3790870  36.7646580
  14.4341670 122.5980250  37.0785200  14.3177240 124.0897690  37.3087760
  18.7261530 112.3089720  47.0971020  18.1105800 112.8169390  46.5686480
  18.4057950 111.4088050  47.0396960   6.5006040 108.2813090  38.9597890
   6.0574190 109.0622630  38.6282410   7.0591030 108.6042980  39.6668830
  10.7875850 111.1481610  44.5633210  10.3255220 111.3564630  45.3753150
  10.3853960 110.3340960  44.2603880  15.7880360 112.3690560  45.6929870
  14.9373950 112.0696310  46.0138940  15.6282150 112.6132570  44.7813690
  12.8830070 113.8692310  47.7928660  13.2083480 113.0356060  47.4530890
  13.6710400 114.3920830  47.9406990   9.6164860 107.9023790  33.8403720
   8.9919040 107.8983660  34.5657030   9.5294980 107.0354750  33.4439690
   8.5381940 108.8260420  40.8187490   8.8354270 109.7323250  40.7379510
   9.0867500 108.3379200  40.2047060   6.2920260 113.4046660  36.6879140
   6.0661180 113.1883830  37.5925760   5.5112790 113.8375120  36.3425110
  13.5218020 113.4110030  35.2869790  12.9226910 114.1345830  35.1033410
  14.0697630 113.3486810  34.5046240   8.7319470 114.3032240  47.3539410
   8.6363070 113.3626970  47.2039810   9.5751450 114.5247310  46.9587480
  12.1282890 112.0473570  37.3173070  12.5212460 112.3645770  36.5041760
  12.4899740 111.1685450  37.4317590   3.8630010 110.7145910  45.5073190
   3.4693400 111.5621120  45.7145970   3.1748410 110.0772280  45.6981830
  10.4375060 110.7980880  48.5769930   9.7473380 110.6053080  49.2116020
  11.1807360 111.0815520  49.1094230  12.7138030 114.6379320  41.4123850
  11.9819150 115.1466130  41.7613950  12.3162370 113.8209300  41.1112630
   9.1515420 111.3133520  39.8176340   9.1551480 110.8723470  38.9680880
  10.0466540 111.6350850  39.9248160   5.0017800 111.1960010  38.7770550
   4.6617850 111.6735240  39.5337600   4.2395120 110.7425130  38.4171650
   9.2135570 112.3145600  32.8083100   9.3348390 112.2732080  33.7568920
   8.8284080 113.1769750  32.6529830  13.1763940 110.0913000  40.8246790
  13.1936680 110.5421650  41.6688640  12.9279520 109.1918640  41.0380230
   8.2257070 114.6246740  32.2066400   7.6573970 114.1764990  31.5802310
   8.9346070 114.9839520  31.6731550  16.6034690 107.5045180  46.6633170
  16.9280460 106.7734840  47.1891150  16.6391200 107.1858820  45.7614160
   3.3026250 118.5258760  46.0833130   2.9181040 117.8852430  46.6816090
   3.6138440 119.2294880  46.6527860   9.4523390 115.3735300  41.5641750
   9.8193520 114.8993870  42.3103090   9.2628450 116.2476870  41.9050090
   2.3163880 110.1178990  37.6935220   2.0310800 109.7534660  38.5313840
   2.2542740 109.3859450  37.0798360   7.2422760 114.4143940  43.8825960
   6.9379830 115.2935920  44.1076320   8.1969220 114.4743730  43.9183400
   5.7704550 118.6204930  34.4792810   4.9966810 118.0802550  34.3191530
   6.4999180 118.1011540  34.1410570  16.5292530 117.6170290  40.2719200
  17.2491650 118.1125580  39.8815310  16.3274350 116.9388180  39.6273070
  11.9902470 109.0108250  34.4148590  11.1767080 108.5121420  34.3393900
  11.7964420 109.8506500  33.9984940  11.9111330 117.6879350  46.1588200
  11.8448640 116.7675020  45.9045790  11.2816470 117.7854790  46.8732840
  14.7050860 113.3827900  32.7110750  15.5930480 113.6945130  32.5362090
  14.6755950 112.5100150  32.3191330   5.8141950 118.2885310  38.1171620
   6.3320620 117.4853570  38.0628510   5.3625970 118.2264450  38.9588450
  10.7011450 119.5551590  33.3898920  11.0427150 120.2993820  32.8942240
   9.8724160 119.8682710  33.7523750   3.2986490 115.2546680  45.0297320
   2.9401430 115.9200530  45.6170660   3.0041050 114.4230230  45.4009940
   6.4999610 115.7130920  47.9136870   6.1999750 115.8588100  47.0164690
   7.2710850 115.1536210  47.8210260  11.8428060 120.5099920  45.9092000
  11.8572600 119.5780880  45.6910910  11.1353160 120.5959680  46.5481770
  16.9765130 114.6939740  32.1790610  16.8928850 115.1253960  31.3287050
  17.6959320 115.1538090  32.6117430  18.0539270 117.1507260  45.2560580
  17.3287460 117.7436040  45.0589970  18.5814730 117.1430800  44.4573950
  18.0052380 121.5482000  34.9072740  17.3628540 120.8937620  35.1816460
  17.6183040 121.9537090  34.1313410  13.5838860 118.8767430  38.7544430
  13.9362680 118.2795560  38.0945800  12.7001190 118.5511660  38.9252680
   9.6702140 119.6365120  36.1614840  10.3573270 120.1834330  36.5422430
   8.8834560 120.1805850  36.1964450   8.9729350 116.6411150  35.7740200
   9.4292130 117.4516400  36.0000390   8.6217560 116.3234290  36.6058690
  11.2761960 122.1517490  43.0032500  11.9204180 122.3576870  43.6805920
  11.6391400 121.3905890  42.5503350   4.8741130 106.9848800  36.2462720
   4.7455760 106.9766700  37.1947640   4.0503150 107.3231890  35.8953730
  12.5494040 120.1549840  41.7209950  13.1916270 119.4543000  41.8342120
  13.0743390 120.9348280  41.5406840  16.3949760 120.4398460  31.4449090
  16.1687340 119.7228900  32.0373730  16.0045960 120.1910900  30.6070840
  14.3231660 120.9544740  44.9246010  14.6587900 121.5411430  45.6023930
  13.4032000 120.8237450  45.1543800   2.1765790 124.4665320  32.2193550
   2.5363430 125.0654660  31.5650820   2.0358130 125.0125210  32.9928580
  15.9766010 118.3570400  33.1063250  15.6887710 118.8183090  33.8941130
  16.7718180 117.8968170  33.3747470  10.1520240 121.0036070  48.0934070
   9.8317110 120.2845310  48.6379760   9.4778600 121.6791140  48.1670130
   8.1934410 121.8496520  33.0367220   8.1844510 122.5826210  32.4211730
   7.2732770 121.6028100  33.1294180   3.7941050 117.0711410  33.7813980
   3.1869000 117.8110310  33.7909280   4.2690400 117.1610770  32.9552180
  13.3673840 111.2362230  43.4570870  13.7354660 110.4157440  43.7850440
  12.5072040 111.2964120  43.8726520  16.7335870 110.1919170  34.2658430
  16.1049030 110.2964840  33.5516660  16.2387790 110.4115950  35.0552310
  11.1794010 121.9124760  31.6992410  11.2805990 121.7088750  30.7694390
  10.2795750 121.6583040  31.9040190   8.7019900 112.4705120  35.6816310
   7.9936050 112.9391460  36.1229920   8.9864380 111.8127130  36.3161500
  10.3275830 113.8901820  43.6808840  10.8261080 114.3647640  44.3460690
  10.4698780 112.9665340  43.8878870  12.7335330 109.1955780  37.1212100
  12.6103110 109.2141910  36.1721610  13.6819890 109.2434720  37.2410500
   9.8212120 124.4311080  36.3940080  10.0753620 124.3932470  35.4719450
   8.8724600 124.3044410  36.3868330   6.9054920 110.7790200  33.0567020
   7.7545450 111.2160350  32.9907210   6.5386190 111.0910460  33.8839080
  17.5342690 110.1069780  44.5237230  17.0316290 110.8475180  44.8631040
  18.3499350 110.4953780  44.2074020  15.8264700 115.3502960  37.9698590
  14.8854840 115.3653190  38.1446280  16.1408770 114.5638920  38.4158890
   5.8046340 117.0322560  31.5302550   6.5709610 116.9203920  32.0927980
   5.8821030 116.3360530  30.8779320   4.4993100 114.4647630  32.2135440
   4.5796690 113.5175140  32.3252840   5.3912850 114.7954510  32.3196100
  17.8290280 122.5211810  39.6452850  17.9537700 123.3442980  40.1176660
  18.6955840 122.3102540  39.2977000   5.3007810 124.6143020  39.3169980
   6.0370290 124.0658480  39.5878550   5.6848730 125.4799030  39.1775970
   4.3066090 123.7989090  48.5055560   5.1078820 124.1201140  48.9190960
   3.7917910 123.4384670  49.2275470   8.4110120 123.7873330  31.1395550
   9.2038730 124.0762160  30.6877340   7.8914470 123.3565500  30.4608030
  13.1430720 119.9068960  48.4530970  12.5368880 119.9300560  47.7126720
  12.8384830 119.1752000  48.9898220  14.5731090 123.6349250  47.0640380
  15.5252840 123.5507270  47.0140620  14.4259310 124.2990960  47.7374170
  17.4640290 123.0143460  32.5632290  17.1781800 122.6008600  31.7486470
  17.2659840 123.9431170  32.4432810   8.9287520 119.0076740  31.0037900
   8.8238160 118.3929090  31.7299280   8.7611740 118.4842630  30.2200910
   9.0801840 117.6933540  46.9827130   8.3147510 118.2618540  46.8981800
   9.2617800 117.4009750  46.0895360  12.1690250 118.0696770  31.6079890
  11.6200350 118.5166070  32.2522630  12.7909510 117.5646020  32.1317560
  16.2225190 119.4238870  47.5402150  16.9634660 119.7614630  47.0369610
  15.4597870 119.5930930  46.9871920   4.0586980 114.4292140  48.3441680
   4.0992320 114.1306010  49.2526910   4.9132480 114.8299750  48.1849200
   7.8365370 117.0287690  33.5045190   8.2581790 116.8627560  34.3476580
   7.9616210 116.2187920  33.0100330   5.9992790 113.0084240  46.3116170
   5.4689250 112.5175190  45.6839510   6.6680860 113.4368440  45.7774100
  10.3493010 116.0525300  30.7522290  10.8698670 115.3374320  30.3863440
  10.9961410 116.6911170  31.0522800  14.8970850 117.4753700  46.0757360
  15.3111870 117.6298780  46.9247780  13.9621850 117.6008920  46.2383140
  15.3693020 114.8149860  48.0796510  15.9513790 114.0602180  47.9916990
  15.5454790 115.3457300  47.3027990   6.4865090 109.9746610  46.3913460
   6.3921960 109.3567360  45.6664330   5.9062480 110.7012900  46.1643370
   9.2526530 108.5319850  43.4240850   8.8043830 108.5544110  42.5786400
   8.6191730 108.1338870  44.0211150   9.6586080 117.4274180  44.0453290
  10.0774190 118.2706910  43.8729530   8.7394710 117.5646220  43.8160070
  11.9949980 115.1590360  45.4291130  12.1146190 114.5631500  46.1685970
  12.8543980 115.1960050  45.0092430  14.3337880 115.7127550  44.0053640
  13.8073100 116.2370170  43.4018780  14.6769220 116.3454940  44.6363370
   6.7324270 113.1020920  30.4503350   6.5313330 112.2388280  30.8116690
   6.5616320 113.0154280  29.5124950   7.5093500 123.7327190  45.1611020
   6.9714590 124.4573250  44.8419720   7.7627460 123.2557530  44.3708360
   8.7618750 111.7011710  46.6866950   9.3518440 111.3927560  47.3744770
   7.9438990 111.2291460  46.8426850  13.5812180 111.3177520  46.9199970
  12.8927700 110.6559060  46.8549960  14.3018200 110.8715790  47.3648430
  14.2112580 107.9129150  32.9790230  14.4914870 107.0697050  33.3349650
  13.4378310 108.1452260  33.4928980   5.5307070 110.2021540  30.4381230
   5.8332970 110.2088970  29.5300380   6.2701660 109.8519400  30.9348890
  10.3655710 124.9678400  45.4197670  10.2914410 125.8713540  45.7270040
   9.4634550 124.6490300  45.3919740   8.7492000 109.1456160  31.4237430
   8.4014000 108.4680150  30.8439880   8.9504770 108.6845670  32.2380820
  10.9141040 124.1336910  33.0424030  11.8091830 124.4721880  33.0642790
  10.9458670 123.4116320  32.4148310   4.5537200 119.5063960  31.2711030
   4.9912070 120.0493630  31.9268610   5.0384930 118.6810910  31.2807370
   1.7683000 122.2952990  38.7231290   2.0986010 121.4274050  38.4909930
   2.1974000 122.5011510  39.5536250   6.3644920 120.6262000  36.3833260
   6.0640460 120.5026970  37.2837170   6.2582410 119.7670590  35.9748990
   2.2573210 123.1623580  41.4612920   1.8204200 123.3424380  42.2937070
   2.8250890 123.9198200  41.3194640  17.8935390 122.6640580  45.7490230
  17.2937380 122.7233140  45.0054150  18.0229290 121.7245560  45.8787080
  19.1336840 120.4058400  31.0859940  18.3029800 120.4735050  31.5567170
  19.3108670 121.2962520  30.7826800  18.5893300 117.1505880  33.5894140
  19.3512210 117.7202530  33.6953830  18.6047670 116.5833080  34.3602450
  19.5953270 118.0055980  38.4336070  19.9662100 117.2223300  38.0272040
  20.2355200 118.6945080  38.2553370  16.5787030 119.3892560  43.8466390
  15.7646870 119.8189720  44.1092180  16.9861230 120.0010970  43.2335440
  18.6412470 117.4440250  30.7466660  18.9161310 118.3519130  30.6185880
  18.4523210 117.3802780  31.6828650  15.0388080 110.4685100  32.0420290
  15.4572960 110.2816080  31.2016950  14.7324140 109.6164150  32.3523220
  18.5377810 115.3809240  35.7396090  18.1621410 114.6137170  35.3077380
  17.8080930 115.7631940  36.2271020   3.1273570 116.0596380  42.3605140
   3.4946610 115.9723780  43.2401160   2.5584390 115.2962930  42.2612000
  17.9277430 114.5280760  45.3735610  17.6963520 114.2993510  44.4733560
  18.1881980 115.4480310  45.3280500   2.6789570 112.9705470  46.2663560
   1.7845620 112.9372230  46.6057270   3.2187120 113.1692260  47.0314810
  16.3665500 109.7537190  48.1515310  17.2435680 109.7620590  48.5349310
  16.3786340 109.0168030  47.5407660  17.8128770 113.6066730  39.0403330
  18.3366250 113.1129380  38.4093500  18.3988190 113.7417090  39.7850900
  17.9918490 113.6906600  42.5622880  17.0421200 113.6570140  42.6767870
  18.1731500 114.6006710  42.3272650   3.8462930 111.9408280  31.6721510
   4.5554630 111.5191500  31.1868790   3.1302870 112.0083510  31.0404860
   3.4937090 107.9947610  30.7124160   4.2165220 108.5356550  31.0305380
   3.7661610 107.7211030  29.8365700  17.3028740 112.8640080  34.9795740
  17.7987860 112.6310950  35.7644620  17.1044810 112.0251920  34.5633380
   3.1829280 107.2453800  40.6146780   3.8305470 106.6951180  40.1741940
   3.6031120 107.4996950  41.4362590  18.7315900 111.5001030  37.5133420
  18.6215180 111.3457070  38.4515690  19.4923490 110.9721970  37.2708830
  17.0781620 107.4395160  43.9716420  17.7153840 108.0529300  44.3375610
  17.2256510 107.4755820  43.0265650  19.6206170 109.3308950  30.7539560
  20.5455480 109.1990130  30.5457850  19.5981960 109.4101770  31.7076010
  19.6944660 110.1019610  33.3796270  18.8996160 110.0364730  33.9089180
  19.8987940 111.0370250  33.3681620  16.6363080 124.1411160  37.3734660
  17.2322150 123.8195730  36.6969080  16.8941230 123.6682980  38.1647930
   2.9361280 107.4009470  43.3572100   2.5876100 107.8573290  44.1230280
   2.6048980 106.5066600  43.4394530   4.5425650 120.5729070  47.5225290
   4.4995280 120.2021980  48.4039750   4.6736660 121.5106640  47.6627110
   8.2431680 122.1288660  43.1235010   8.0023040 122.3963220  42.2365530
   9.1834320 122.2994390  43.1785870  10.4486100 108.5921350  46.8791520
  10.3874990 109.1843180  47.6286930  11.3886480 108.4847310  46.7341780
  13.0860660 108.2491410  46.5183810  13.7001070 108.5670700  45.8564890
  13.6310220 107.7640000  47.1379670  19.5035840 124.1483040  43.9245650
  19.0094120 124.5451910  43.2072780  18.8949130 123.5232250  44.3182930
   3.6081920 106.9285670  46.6322870   4.1564910 106.7473720  45.8688980
   3.6737230 106.1379780  47.1679180   4.3813680 123.5191320  44.6423070
   3.7874000 123.3876020  45.3813110   4.3737520 122.6829460  44.1765170
  13.8268700 106.8123550  42.8453100  12.9528540 107.1458660  42.6426030
  13.7179450 106.3396730  43.6704970  14.7340680 109.0194420  44.2294820
  14.4054040 108.2046180  43.8496550  15.6822980 108.9764230  44.1060510
  17.1875290 124.7906460  41.2032390  16.7278260 125.5422270  40.8290410
  16.5587750 124.0712930  41.1447190   4.0125910 120.8849700  43.5931110
   3.2859970 120.2654990  43.5257060   4.0735060 121.2790310  42.7229190
   7.6171010 123.0994700  40.3780520   8.1336030 122.4882060  39.8528780
   8.2668390 123.6023480  40.8691530  10.3566510 123.9903190  41.2049500
  10.6444320 123.7357490  40.3282510  10.8689730 123.4380550  41.7955070
  11.5743520 107.7293390  41.7846010  10.7915310 108.2038890  42.0642770
  11.2806450 106.8248220  41.6759190  16.1264590 108.4316490  39.8295100
  16.5672680 108.3761590  38.9816700  15.8572180 109.3474500  39.9005280
  17.9903160 108.0631730  37.8403920  17.9291560 107.1192950  37.6934940
  18.7695190 108.1711820  38.3857380   2.9183930 108.0340870  34.3059730
   3.6763290 108.1469750  33.7323760   2.4561100 108.8710070  34.2603160
   9.4597740 110.1480140  37.2962040   8.6472250 109.7737030  36.9557920
   9.9639380 109.3925220  37.5983230  13.9622720 106.8122590  38.5345110
  14.5652090 107.3842800  39.0093630  13.2215710 107.3762030  38.3119010
  17.1057320 107.2144150  33.8085390  17.3007950 108.1127600  34.0752820
  16.3187190 106.9831230  34.3018340   3.9018610 122.8957320  34.2478010
   3.3766230 123.2765350  33.5439970   3.8263190 123.5208090  34.9687720
   5.2909080 108.5604920  32.8461700   5.8201840 107.7734720  32.7169650
   5.9237400 109.2396110  33.0797230   7.4846920 108.2980060  35.9007090
   6.8549660 107.5967370  36.0677220   6.9452060 109.0584190  35.6840250
  10.4238870 124.9119290  48.5717700  11.3506180 124.6763560  48.6153660
  10.4089300 125.7391290  48.0903730  18.6583930 124.4544860  35.5691950
  18.8336120 123.7682600  34.9252870  17.9605500 124.9791910  35.1768620
   7.6102480 107.5764040  48.3359580   7.3286750 108.0797640  47.5720400
   7.9922180 106.7785790  47.9701710   6.5011580 124.8439700  33.1227260
   7.2330400 124.5598980  32.5751150   6.7605250 124.6052980  34.0126640
   5.6626370 120.9604430  33.1273590   5.0335250 121.4289530  33.6759420
   5.7774200 120.1153650  33.5619780  14.2117940 106.9917620  48.9140050
  14.0983390 107.3112230  49.8091570  15.0287680 107.3930130  48.6177330
  16.9916430 124.1389150  48.3958740  17.7841750 123.6438380  48.1884700
  17.2849580 124.8179290  49.0034350  13.1176090 115.0110090  19.2774790
  13.0370140 114.0964700  19.0066500  12.7040510 115.5077160  18.5714500
  11.2494130 116.7889110  21.1584060  10.4736230 116.3089550  21.4482630
  11.9007060 116.1094760  20.9840220   5.2659960 117.1008920  22.0359820
   4.4344840 116.8457630  22.4356330   5.8740940 117.1719690  22.7717740
  15.2701560 121.1949300  19.9383190  14.8083090 120.4236540  20.2670360
  16.0827110 121.2215370  20.4435640   5.2461220 121.1349010  22.2317840
   5.5489260 120.2446750  22.0528060   5.9904810 121.6919230  22.0040090
   3.6751910 112.0610810  15.8202210   2.7868610 112.4026780  15.7182090
   3.9593100 111.8611130  14.9283040  11.4964870 123.4807310  19.5587180
  10.8776310 123.9364810  18.9881620  12.3516650 123.6358770  19.1576880
  10.6903120 119.4646300  21.1654220  10.6211400 118.5236240  21.0043350
  11.4522980 119.5547710  21.7376790   2.8809790 110.0700820  23.4910840
   2.7012630 109.1726570  23.7713600   2.4789870 110.6172690  24.1657790
  11.7208290 112.2716680  21.3923150  12.0973110 111.3988560  21.2796820
  11.6227800 112.6075380  20.5013590   5.8513300 110.6442310  16.8540590
   5.9580050 111.5446040  17.1609350   4.9405660 110.5960280  16.5635240
  15.5032410 109.7667120  18.3251490  16.3242030 109.2763690  18.3676970
  15.5366490 110.3564780  19.0783330   3.4996460 112.5661320  22.0993180
   4.1806570 112.8299690  22.7180580   3.1844510 111.7262190  22.4331190
   7.6921030 113.6128680  21.1865770   8.1999250 114.1109650  21.8270790
   8.2234270 112.8363880  21.0105130  19.7931960 111.7833870  24.8895120
  19.0884130 112.1715580  24.3710230  20.0589880 112.4784160  25.4916050
   5.9757130 108.2527240  25.4529190   5.9775570 108.7699630  24.6475090
   5.1461440 107.7757420  25.4299120  12.3628220 118.3646550  16.9519090
  11.7445490 118.8296000  16.3881810  12.8751470 119.0574030  17.3688600
   7.2259980 117.8922420  23.6302690   6.8929360 118.5191340  24.2723760
   7.4026660 118.4184300  22.8504360  15.7393890 111.7067500  21.0979030
  15.0349460 111.9952390  21.6782140  16.1006050 112.5167610  20.7378590
   5.6572460 109.9637200  23.4599640   5.9989270 110.8079250  23.1653510
   4.7188270 110.1120940  23.5764980   6.4379080 119.8603220  25.4451870
   7.0553080 120.5354300  25.1636320   5.5772200 120.2691200  25.3539370
  17.3556670 121.3242630  23.3606510  16.6720190 121.9941740  23.3523180
  17.8950960 121.5223280  22.5951370  18.8080810 111.1522290  21.4888240
  17.8605720 111.1861270  21.6203670  19.1330800 111.9661240  21.8737600
   9.3400350 107.4519470  19.7844230   9.6475330 106.8966360  19.0679730
   8.4101050 107.5863930  19.6017220  14.8915410 123.1686760  22.0751690
  14.9042570 122.7649050  21.2073950  14.3390630 123.9434050  21.9713120
  16.1860830 119.8902980  17.1641860  16.0757160 118.9477310  17.2891280
  16.1829080 120.2518620  18.0504620  14.2900850 118.0716600  23.4034300
  14.7069640 117.8576710  22.5687760  15.0140670 118.3289390  23.9742920
  11.7281110 115.5168300  16.5204350  10.8010390 115.4505680  16.7492820
  11.8805930 116.4548430  16.4059590  11.7150190 111.7885300  13.5171510
  10.7753860 111.9499260  13.6023970  12.0333450 112.5070980  12.9707500
  18.2362950 116.4703820  23.4950540  17.4081580 116.5396910  23.0200670
  18.8313430 117.0558130  23.0266370  15.7578400 117.0788600  17.0239600
  15.1390820 116.7408150  16.3765900  15.7402850 116.4348360  17.7318790
  15.2004960 113.2573140  24.4405410  14.7876140 114.0826850  24.6945400
  14.4680910 112.6718180  24.2481770   7.3337750 116.0433040  19.3024080
   6.9294750 115.3310290  18.8069980   7.4200870 115.6986280  20.1912120
   7.8019450 119.7300600  21.4663290   7.5047740 119.1246070  20.7871070
   8.7519270 119.7677910  21.3552650   6.0466370 112.8176250  23.0823120
   6.5980960 112.9271590  22.3076370   6.5609880 113.1913850  23.7978350
  15.8905060 123.3032470  25.1286390  15.4135620 124.1104660  24.9359000
  15.2066850 122.6510800  25.2812600   6.8937880 119.4682290  28.1171090
   5.9966410 119.6922260  28.3644490   6.9190750 119.5917230  27.1682490
  13.9343100 116.3175410  14.0312350  14.3736380 115.4797840  13.8850170
  14.6471520 116.9504810  14.1176490   5.7209100 116.3395610  26.6928460
   5.5816870 117.2118410  27.0615860   4.8390460 115.9968420  26.5476400
  12.0438480 121.2571480  17.9993590  12.4834390 121.9995810  17.5848980
  11.9825370 121.4998050  18.9232550   7.5189450 122.2817310  28.9013610
   7.4904880 122.6860260  28.0342040   7.3554420 121.3527670  28.7385210
  17.5160240 107.5718220  12.3453390  17.2032900 107.6645050  13.2452460
  18.2772710 108.1499250  12.2950820   4.0342380 114.9378020  16.8030730
   3.9139980 115.6640110  16.1912000   3.7243270 114.1680930  16.3258640
  19.4704270 123.0644410  30.1977780  19.9463990 123.5427300  30.8766860
  20.0911430 122.9961900  29.4723280   2.9175380 119.8093350  19.0205550
   2.5103460 119.9507940  18.1659150   3.8088390 119.5253510  18.8176760
  18.8737520 120.2557260  27.3577790  19.0000580 120.0169140  26.4394970
  18.9158900 119.4241800  27.8299870  12.7354260 123.9585260  25.9272600
  13.2498930 123.8693270  26.7295030  11.8923340 124.3044960  26.2200510
  14.7108660 124.2440600  15.3556600  14.5509800 123.9543540  16.2538430
  14.5455370 123.4680730  14.8201830   7.1897040 124.0239130  17.1328220
   7.0139520 123.1074670  16.9196020   6.3352780 124.3826420  17.3726020
  14.4134790 121.7528160  13.9154600  13.7199950 121.7505450  13.2556880
  15.1557650 121.3287480  13.4848770  13.9784720 123.3790870  17.9903090
  14.4341670 122.5980250  18.3041710  14.3177240 124.0897690  18.5344270
  18.7261530 112.3089720  28.3227530  18.1105800 112.8169390  27.7942990
  18.4057950 111.4088050  28.2653470   6.5006040 108.2813090  20.1854400
   6.0574190 109.0622630  19.8538920   7.0591030 108.6042980  20.8925340
  10.7875850 111.1481610  25.7889720  10.3255220 111.3564630  26.6009660
  10.3853960 110.3340960  25.4860390  15.7880360 112.3690560  26.9186380
  14.9373950 112.0696310  27.2395450  15.6282150 112.6132570  26.0070200
  12.8830070 113.8692310  29.0185170  13.2083480 113.0356060  28.6787400
  13.6710400 114.3920830  29.1663500   9.6164860 107.9023790  15.0660230
   8.9919040 107.8983660  15.7913540   9.5294980 107.0354750  14.6696200
   8.5381940 108.8260420  22.0444000   8.8354270 109.7323250  21.9636020
   9.0867500 108.3379200  21.4303570   6.2920260 113.4046660  17.9135650
   6.0661180 113.1883830  18.8182270   5.5112790 113.8375120  17.5681620
  13.5218020 113.4110030  16.5126300  12.9226910 114.1345830  16.3289920
  14.0697630 113.3486810  15.7302750   8.7319470 114.3032240  28.5795920
   8.6363070 113.3626970  28.4296320   9.5751450 114.5247310  28.1843990
  12.1282890 112.0473570  18.5429580  12.5212460 112.3645770  17.7298270
  12.4899740 111.1685450  18.6574100   3.8630010 110.7145910  26.7329700
   3.4693400 111.5621120  26.9402480   3.1748410 110.0772280  26.9238340
  10.4375060 110.7980880  29.8026440   9.7473380 110.6053080  30.4372530
  11.1807360 111.0815520  30.3350740  12.7138030 114.6379320  22.6380360
  11.9819150 115.1466130  22.9870460  12.3162370 113.8209300  22.3369140
   9.1515420 111.3133520  21.0432850   9.1551480 110.8723470  20.1937390
  10.0466540 111.6350850  21.1504670   5.0017800 111.1960010  20.0027060
   4.6617850 111.6735240  20.7594110   4.2395120 110.7425130  19.6428160
   9.2135570 112.3145600  14.0339610   9.3348390 112.2732080  14.9825430
   8.8284080 113.1769750  13.8786340  13.1763940 110.0913000  22.0503300
  13.1936680 110.5421650  22.8945150  12.9279520 109.1918640  22.2636740
   8.2257070 114.6246740  13.4322910   7.6573970 114.1764990  12.8058820
   8.9346070 114.9839520  12.8988060  16.6034690 107.5045180  27.8889680
  16.9280460 106.7734840  28.4147660  16.6391200 107.1858820  26.9870670
   3.3026250 118.5258760  27.3089640   2.9181040 117.8852430  27.9072600
   3.6138440 119.2294880  27.8784370   9.4523390 115.3735300  22.7898260
   9.8193520 114.8993870  23.5359600   9.2628450 116.2476870  23.1306600
   2.3163880 110.1178990  18.9191730   2.0310800 109.7534660  19.7570350
   2.2542740 109.3859450  18.3054870   7.2422760 114.4143940  25.1082470
   6.9379830 115.2935920  25.3332830   8.1969220 114.4743730  25.1439910
   5.7704550 118.6204930  15.7049320   4.9966810 118.0802550  15.5448040
   6.4999180 118.1011540  15.3667080  16.5292530 117.6170290  21.4975710
  17.2491650 118.1125580  21.1071820  16.3274350 116.9388180  20.8529580
  11.9902470 109.0108250  15.6405100  11.1767080 108.5121420  15.5650410
  11.7964420 109.8506500  15.2241450  11.9111330 117.6879350  27.3844710
  11.8448640 116.7675020  27.1302300  11.2816470 117.7854790  28.0989350
  14.7050860 113.3827900  13.9367260  15.5930480 113.6945130  13.7618600
  14.6755950 112.5100150  13.5447840   5.8141950 118.2885310  19.3428130
   6.3320620 117.4853570  19.2885020   5.3625970 118.2264450  20.1844960
  10.7011450 119.5551590  14.6155430  11.0427150 120.2993820  14.1198750
   9.8724160 119.8682710  14.9780260   3.2986490 115.2546680  26.2553830
   2.9401430 115.9200530  26.8427170   3.0041050 114.4230230  26.6266450
   6.4999610 115.7130920  29.1393380   6.1999750 115.8588100  28.2421200
   7.2710850 115.1536210  29.0466770  11.8428060 120.5099920  27.1348510
  11.8572600 119.5780880  26.9167420  11.1353160 120.5959680  27.7738280
  16.9765130 114.6939740  13.4047120  16.8928850 115.1253960  12.5543560
  17.6959320 115.1538090  13.8373940  18.0539270 117.1507260  26.4817090
  17.3287460 117.7436040  26.2846480  18.5814730 117.1430800  25.6830460
  18.0052380 121.5482000  16.1329250  17.3628540 120.8937620  16.4072970
  17.6183040 121.9537090  15.3569920  13.5838860 118.8767430  19.9800940
  13.9362680 118.2795560  19.3202310  12.7001190 118.5511660  20.1509190
   9.6702140 119.6365120  17.3871350  10.3573270 120.1834330  17.7678940
   8.8834560 120.1805850  17.4220960   8.9729350 116.6411150  16.9996710
   9.4292130 117.4516400  17.2256900   8.6217560 116.3234290  17.8315200
  11.2761960 122.1517490  24.2289010  11.9204180 122.3576870  24.9062430
  11.6391400 121.3905890  23.7759860   4.8741130 106.9848800  17.4719230
   4.7455760 106.9766700  18.4204150   4.0503150 107.3231890  17.1210240
  12.5494040 120.1549840  22.9466460  13.1916270 119.4543000  23.0598630
  13.0743390 120.9348280  22.7663350  16.3949760 120.4398460  12.6705600
  16.1687340 119.7228900  13.2630240  16.0045960 120.1910900  11.8327350
  14.3231660 120.9544740  26.1502520  14.6587900 121.5411430  26.8280440
  13.4032000 120.8237450  26.3800310   2.1765790 124.4665320  13.4450060
   2.5363430 125.0654660  12.7907330   2.0358130 125.0125210  14.2185090
  15.9766010 118.3570400  14.3319760  15.6887710 118.8183090  15.1197640
  16.7718180 117.8968170  14.6003980  10.1520240 121.0036070  29.3190580
   9.8317110 120.2845310  29.8636270   9.4778600 121.6791140  29.3926640
   8.1934410 121.8496520  14.2623730   8.1844510 122.5826210  13.6468240
   7.2732770 121.6028100  14.3550690   3.7941050 117.0711410  15.0070490
   3.1869000 117.8110310  15.0165790   4.2690400 117.1610770  14.1808690
  13.3673840 111.2362230  24.6827380  13.7354660 110.4157440  25.0106950
  12.5072040 111.2964120  25.0983030  16.7335870 110.1919170  15.4914940
  16.1049030 110.2964840  14.7773170  16.2387790 110.4115950  16.2808820
  11.1794010 121.9124760  12.9248920  11.2805990 121.7088750  11.9950900
  10.2795750 121.6583040  13.1296700   8.7019900 112.4705120  16.9072820
   7.9936050 112.9391460  17.3486430   8.9864380 111.8127130  17.5418010
  10.3275830 113.8901820  24.9065350  10.8261080 114.3647640  25.5717200
  10.4698780 112.9665340  25.1135380  12.7335330 109.1955780  18.3468610
  12.6103110 109.2141910  17.3978120  13.6819890 109.2434720  18.4667010
   9.8212120 124.4311080  17.6196590  10.0753620 124.3932470  16.6975960
   8.8724600 124.3044410  17.6124840   6.9054920 110.7790200  14.2823530
   7.7545450 111.2160350  14.2163720   6.5386190 111.0910460  15.1095590
  17.5342690 110.1069780  25.7493740  17.0316290 110.8475180  26.0887550
  18.3499350 110.4953780  25.4330530  15.8264700 115.3502960  19.1955100
  14.8854840 115.3653190  19.3702790  16.1408770 114.5638920  19.6415400
   5.8046340 117.0322560  12.7559060   6.5709610 116.9203920  13.3184490
   5.8821030 116.3360530  12.1035830   4.4993100 114.4647630  13.4391950
   4.5796690 113.5175140  13.5509350   5.3912850 114.7954510  13.5452610
  17.8290280 122.5211810  20.8709360  17.9537700 123.3442980  21.3433170
  18.6955840 122.3102540  20.5233510   5.3007810 124.6143020  20.5426490
   6.0370290 124.0658480  20.8135060   5.6848730 125.4799030  20.4032480
   4.3066090 123.7989090  29.7312070   5.1078820 124.1201140  30.1447470
   3.7917910 123.4384670  30.4531980   8.4110120 123.7873330  12.3652060
   9.2038730 124.0762160  11.9133850   7.8914470 123.3565500  11.6864540
  13.1430720 119.9068960  29.6787480  12.5368880 119.9300560  28.9383230
  12.8384830 119.1752000  30.2154730  14.5731090 123.6349250  28.2896890
  15.5252840 123.5507270  28.2397130  14.4259310 124.2990960  28.9630680
  17.4640290 123.0143460  13.7888800  17.1781800 122.6008600  12.9742980
  17.2659840 123.9431170  13.6689320   8.9287520 119.0076740  12.2294410
   8.8238160 118.3929090  12.9555790   8.7611740 118.4842630  11.4457420
   9.0801840 117.6933540  28.2083640   8.3147510 118.2618540  28.1238310
   9.2617800 117.4009750  27.3151870  12.1690250 118.0696770  12.8336400
  11.6200350 118.5166070  13.4779140  12.7909510 117.5646020  13.3574070
  16.2225190 119.4238870  28.7658660  16.9634660 119.7614630  28.2626120
  15.4597870 119.5930930  28.2128430   4.0586980 114.4292140  29.5698190
   4.0992320 114.1306010  30.4783420   4.9132480 114.8299750  29.4105710
   7.8365370 117.0287690  14.7301700   8.2581790 116.8627560  15.5733090
   7.9616210 116.2187920  14.2356840   5.9992790 113.0084240  27.5372680
   5.4689250 112.5175190  26.9096020   6.6680860 113.4368440  27.0030610
  10.3493010 116.0525300  11.9778800  10.8698670 115.3374320  11.6119950
  10.9961410 116.6911170  12.2779310  14.8970850 117.4753700  27.3013870
  15.3111870 117.6298780  28.1504290  13.9621850 117.6008920  27.4639650
  15.3693020 114.8149860  29.3053020  15.9513790 114.0602180  29.2173500
  15.5454790 115.3457300  28.5284500   6.4865090 109.9746610  27.6169970
   6.3921960 109.3567360  26.8920840   5.9062480 110.7012900  27.3899880
   9.2526530 108.5319850  24.6497360   8.8043830 108.5544110  23.8042910
   8.6191730 108.1338870  25.2467660   9.6586080 117.4274180  25.2709800
  10.0774190 118.2706910  25.0986040   8.7394710 117.5646220  25.0416580
  11.9949980 115.1590360  26.6547640  12.1146190 114.5631500  27.3942480
  12.8543980 115.1960050  26.2348940  14.3337880 115.7127550  25.2310150
  13.8073100 116.2370170  24.6275290  14.6769220 116.3454940  25.8619880
   6.7324270 113.1020920  11.6759860   6.5313330 112.2388280  12.0373200
   6.5616320 113.0154280  10.7381460   7.5093500 123.7327190  26.3867530
   6.9714590 124.4573250  26.0676230   7.7627460 123.2557530  25.5964870
   8.7618750 111.7011710  27.9123460   9.3518440 111.3927560  28.6001280
   7.9438990 111.2291460  28.0683360  13.5812180 111.3177520  28.1456480
  12.8927700 110.6559060  28.0806470  14.3018200 110.8715790  28.5904940
  14.2112580 107.9129150  14.2046740  14.4914870 107.0697050  14.5606160
  13.4378310 108.1452260  14.7185490   5.5307070 110.2021540  11.6637740
   5.8332970 110.2088970  10.7556890   6.2701660 109.8519400  12.1605400
  10.3655710 124.9678400  26.6454180  10.2914410 125.8713540  26.9526550
   9.4634550 124.6490300  26.6176250   8.7492000 109.1456160  12.6493940
   8.4014000 108.4680150  12.0696390   8.9504770 108.6845670  13.4637330
  10.9141040 124.1336910  14.2680540  11.8091830 124.4721880  14.2899300
  10.9458670 123.4116320  13.6404820   4.5537200 119.5063960  12.4967540
   4.9912070 120.0493630  13.1525120   5.0384930 118.6810910  12.5063880
   1.7683000 122.2952990  19.9487800   2.0986010 121.4274050  19.7166440
   2.1974000 122.5011510  20.7792760   6.3644920 120.6262000  17.6089770
   6.0640460 120.5026970  18.5093680   6.2582410 119.7670590  17.2005500
   2.2573210 123.1623580  22.6869430   1.8204200 123.3424380  23.5193580
   2.8250890 123.9198200  22.5451150  17.8935390 122.6640580  26.9746740
  17.2937380 122.7233140  26.2310660  18.0229290 121.7245560  27.1043590
  19.1336840 120.4058400  12.3116450  18.3029800 120.4735050  12.7823680
  19.3108670 121.2962520  12.0083310  18.5893300 117.1505880  14.8150650
  19.3512210 117.7202530  14.9210340  18.6047670 116.5833080  15.5858960
  19.5953270 118.0055980  19.6592580  19.9662100 117.2223300  19.2528550
  20.2355200 118.6945080  19.4809880  16.5787030 119.3892560  25.0722900
  15.7646870 119.8189720  25.3348690  16.9861230 120.0010970  24.4591950
  18.6412470 117.4440250  11.9723170  18.9161310 118.3519130  11.8442390
  18.4523210 117.3802780  12.9085160  15.0388080 110.4685100  13.2676800
  15.4572960 110.2816080  12.4273460  14.7324140 109.6164150  13.5779730
  18.5377810 115.3809240  16.9652600  18.1621410 114.6137170  16.5333890
  17.8080930 115.7631940  17.4527530   3.1273570 116.0596380  23.5861650
   3.4946610 115.9723780  24.4657670   2.5584390 115.2962930  23.4868510
  17.9277430 114.5280760  26.5992120  17.6963520 114.2993510  25.6990070
  18.1881980 115.4480310  26.5537010   2.6789570 112.9705470  27.4920070
   1.7845620 112.9372230  27.8313780   3.2187120 113.1692260  28.2571320
  16.3665500 109.7537190  29.3771820  17.2435680 109.7620590  29.7605820
  16.3786340 109.0168030  28.7664170  17.8128770 113.6066730  20.2659840
  18.3366250 113.1129380  19.6350010  18.3988190 113.7417090  21.0107410
  17.9918490 113.6906600  23.7879390  17.0421200 113.6570140  23.9024380
  18.1731500 114.6006710  23.5529160   3.8462930 111.9408280  12.8978020
   4.5554630 111.5191500  12.4125300   3.1302870 112.0083510  12.2661370
   3.4937090 107.9947610  11.9380670   4.2165220 108.5356550  12.2561890
   3.7661610 107.7211030  11.0622210  17.3028740 112.8640080  16.2052250
  17.7987860 112.6310950  16.9901130  17.1044810 112.0251920  15.7889890
   3.1829280 107.2453800  21.8403290   3.8305470 106.6951180  21.3998450
   3.6031120 107.4996950  22.6619100  18.7315900 111.5001030  18.7389930
  18.6215180 111.3457070  19.6772200  19.4923490 110.9721970  18.4965340
  17.0781620 107.4395160  25.1972930  17.7153840 108.0529300  25.5632120
  17.2256510 107.4755820  24.2522160  19.6206170 109.3308950  11.9796070
  20.5455480 109.1990130  11.7714360  19.5981960 109.4101770  12.9332520
  19.6944660 110.1019610  14.6052780  18.8996160 110.0364730  15.1345690
  19.8987940 111.0370250  14.5938130  16.6363080 124.1411160  18.5991170
  17.2322150 123.8195730  17.9225590  16.8941230 123.6682980  19.3904440
   2.9361280 107.4009470  24.5828610   2.5876100 107.8573290  25.3486790
   2.6048980 106.5066600  24.6651040   4.5425650 120.5729070  28.7481800
   4.4995280 120.2021980  29.6296260   4.6736660 121.5106640  28.8883620
   8.2431680 122.1288660  24.3491520   8.0023040 122.3963220  23.4622040
   9.1834320 122.2994390  24.4042380  10.4486100 108.5921350  28.1048030
  10.3874990 109.1843180  28.8543440  11.3886480 108.4847310  27.9598290
  13.0860660 108.2491410  27.7440320  13.7001070 108.5670700  27.0821400
  13.6310220 107.7640000  28.3636180  19.5035840 124.1483040  25.1502160
  19.0094120 124.5451910  24.4329290  18.8949130 123.5232250  25.5439440
   3.6081920 106.9285670  27.8579380   4.1564910 106.7473720  27.0945490
   3.6737230 106.1379780  28.3935690   4.3813680 123.5191320  25.8679580
   3.7874000 123.3876020  26.6069620   4.3737520 122.6829460  25.4021680
  13.8268700 106.8123550  24.0709610  12.9528540 107.1458660  23.8682540
  13.7179450 106.3396730  24.8961480  14.7340680 109.0194420  25.4551330
  14.4054040 108.2046180  25.0753060  15.6822980 108.9764230  25.3317020
  17.1875290 124.7906460  22.4288900  16.7278260 125.5422270  22.0546920
  16.5587750 124.0712930  22.3703700   4.0125910 120.8849700  24.8187620
   3.2859970 120.2654990  24.7513570   4.0735060 121.2790310  23.9485700
   7.6171010 123.0994700  21.6037030   8.1336030 122.4882060  21.0785290
   8.2668390 123.6023480  22.0948040  10.3566510 123.9903190  22.4306010
  10.6444320 123.7357490  21.5539020  10.8689730 123.4380550  23.0211580
  11.5743520 107.7293390  23.0102520  10.7915310 108.2038890  23.2899280
  11.2806450 106.8248220  22.9015700  16.1264590 108.4316490  21.0551610
  16.5672680 108.3761590  20.2073210  15.8572180 109.3474500  21.1261790
  17.9903160 108.0631730  19.0660430  17.9291560 107.1192950  18.9191450
  18.7695190 108.1711820  19.6113890   2.9183930 108.0340870  15.5316240
   3.6763290 108.1469750  14.9580270   2.4561100 108.8710070  15.4859670
   9.4597740 110.1480140  18.5218550   8.6472250 109.7737030  18.1814430
   9.9639380 109.3925220  18.8239740  13.9622720 106.8122590  19.7601620
  14.5652090 107.3842800  20.2350140  13.2215710 107.3762030  19.5375520
  17.1057320 107.2144150  15.0341900  17.3007950 108.1127600  15.3009330
  16.3187190 106.9831230  15.5274850   3.9018610 122.8957320  15.4734520
   3.3766230 123.2765350  14.7696480   3.8263190 123.5208090  16.1944230
   5.2909080 108.5604920  14.0718210   5.8201840 107.7734720  13.9426160
   5.9237400 109.2396110  14.3053740   7.4846920 108.2980060  17.1263600
   6.8549660 107.5967370  17.2933730   6.9452060 109.0584190  16.9096760
  10.4238870 124.9119290  29.7974210  11.3506180 124.6763560  29.8410170
  10.4089300 125.7391290  29.3160240  18.6583930 124.4544860  16.7948460
  18.8336120 123.7682600  16.1509380  17.9605500 124.9791910  16.4025130
   7.6102480 107.5764040  29.5616090   7.3286750 108.0797640  28.7976910
   7.9922180 106.7785790  29.1958220   6.5011580 124.8439700  14.3483770
   7.2330400 124.5598980  13.8007660   6.7605250 124.6052980  15.2383150
   5.6626370 120.9604430  14.3530100   5.0335250 121.4289530  14.9015930
   5.7774200 120.1153650  14.7876290  14.2117940 106.9917620  30.1396560
  14.0983390 107.3112230  31.0348080  15.0287680 107.3930130  29.8433840
  16.9916430 124.1389150  29.6215250  17.7841750 123.6438380  29.4141210
  17.2849580 124.8179290  30.2290860  11.2494130 116.7889110   2.3840570
  10.4736230 116.3089550   2.6739140  11.9007060 116.1094760   2.2096730
   5.2659960 117.1008920   3.2616330   4.4344840 116.8457630   3.6612840
   5.8740940 117.1719690   3.9974250   5.2461220 121.1349010   3.4574350
   5.5489260 120.2446750   3.2784570   5.9904810 121.6919230   3.2296600
  10.6903120 119.4646300   2.3910730  10.6211400 118.5236240   2.2299860
  11.4522980 119.5547710   2.9633300   2.8809790 110.0700820   4.7167350
   2.7012630 109.1726570   4.9970110   2.4789870 110.6172690   5.3914300
  11.7208290 112.2716680   2.6179660  12.0973110 111.3988560   2.5053330
  11.6227800 112.6075380   1.7270100   3.4996460 112.5661320   3.3249690
   4.1806570 112.8299690   3.9437090   3.1844510 111.7262190   3.6587700
   7.6921030 113.6128680   2.4122280   8.1999250 114.1109650   3.0527300
   8.2234270 112.8363880   2.2361640  19.7931960 111.7833870   6.1151630
  19.0884130 112.1715580   5.5966740  20.0589880 112.4784160   6.7172560
   5.9757130 108.2527240   6.6785700   5.9775570 108.7699630   5.8731600
   5.1461440 107.7757420   6.6555630   7.2259980 117.8922420   4.8559200
   6.8929360 118.5191340   5.4980270   7.4026660 118.4184300   4.0760870
  15.7393890 111.7067500   2.3235540  15.0349460 111.9952390   2.9038650
  16.1006050 112.5167610   1.9635100   5.6572460 109.9637200   4.6856150
   5.9989270 110.8079250   4.3910020   4.7188270 110.1120940   4.8021490
   6.4379080 119.8603220   6.6708380   7.0553080 120.5354300   6.3892830
   5.5772200 120.2691200   6.5795880  17.3556670 121.3242630   4.5863020
  16.6720190 121.9941740   4.5779690  17.8950960 121.5223280   3.8207880
  18.8080810 111.1522290   2.7144750  17.8605720 111.1861270   2.8460180
  19.1330800 111.9661240   3.0994110  14.8915410 123.1686760   3.3008200
  14.9042570 122.7649050   2.4330460  14.3390630 123.9434050   3.1969630
  14.2900850 118.0716600   4.6290810  14.7069640 117.8576710   3.7944270
  15.0140670 118.3289390   5.1999430  18.2362950 116.4703820   4.7207050
  17.4081580 116.5396910   4.2457180  18.8313430 117.0558130   4.2522880
  15.2004960 113.2573140   5.6661920  14.7876140 114.0826850   5.9201910
  14.4680910 112.6718180   5.4738280   7.8019450 119.7300600   2.6919800
   7.5047740 119.1246070   2.0127580   8.7519270 119.7677910   2.5809160
   6.0466370 112.8176250   4.3079630   6.5980960 112.9271590   3.5332880
   6.5609880 113.1913850   5.0234860  15.8905060 123.3032470   6.3542900
  15.4135620 124.1104660   6.1615510  15.2066850 122.6510800   6.5069110
   6.8937880 119.4682290   9.3427600   5.9966410 119.6922260   9.5901000
   6.9190750 119.5917230   8.3939000   5.7209100 116.3395610   7.9184970
   5.5816870 117.2118410   8.2872370   4.8390460 115.9968420   7.7732910
   7.5189450 122.2817310  10.1270120   7.4904880 122.6860260   9.2598550
   7.3554420 121.3527670   9.9641720  19.4704270 123.0644410  11.4234290
  19.9463990 123.5427300  12.1023370  20.0911430 122.9961900  10.6979790
  18.8737520 120.2557260   8.5834300  19.0000580 120.0169140   7.6651480
  18.9158900 119.4241800   9.0556380  12.7354260 123.9585260   7.1529110
  13.2498930 123.8693270   7.9551540  11.8923340 124.3044960   7.4457020
  18.7261530 112.3089720   9.5484040  18.1105800 112.8169390   9.0199500
  18.4057950 111.4088050   9.4909980  10.7875850 111.1481610   7.0146230
  10.3255220 111.3564630   7.8266170  10.3853960 110.3340960   6.7116900
  15.7880360 112.3690560   8.1442890  14.9373950 112.0696310   8.4651960
  15.6282150 112.6132570   7.2326710  12.8830070 113.8692310  10.2441680
  13.2083480 113.0356060   9.9043910  13.6710400 114.3920830  10.3920010
   8.5381940 108.8260420   3.2700510   8.8354270 109.7323250   3.1892530
   9.0867500 108.3379200   2.6560080   8.7319470 114.3032240   9.8052430
   8.6363070 113.3626970   9.6552830   9.5751450 114.5247310   9.4100500
   3.8630010 110.7145910   7.9586210   3.4693400 111.5621120   8.1658990
   3.1748410 110.0772280   8.1494850  10.4375060 110.7980880  11.0282950
   9.7473380 110.6053080  11.6629040  11.1807360 111.0815520  11.5607250
  12.7138030 114.6379320   3.8636870  11.9819150 115.1466130   4.2126970
  12.3162370 113.8209300   3.5625650   9.1515420 111.3133520   2.2689360
   9.1551480 110.8723470   1.4193900  10.0466540 111.6350850   2.3761180
  13.1763940 110.0913000   3.2759810  13.1936680 110.5421650   4.1201660
  12.9279520 109.1918640   3.4893250  16.6034690 107.5045180   9.1146190
  16.9280460 106.7734840   9.6404170  16.6391200 107.1858820   8.2127180
   3.3026250 118.5258760   8.5346150   2.9181040 117.8852430   9.1329110
   3.6138440 119.2294880   9.1040880   9.4523390 115.3735300   4.0154770
   9.8193520 114.8993870   4.7616110   9.2628450 116.2476870   4.3563110
   7.2422760 114.4143940   6.3338980   6.9379830 115.2935920   6.5589340
   8.1969220 114.4743730   6.3696420  16.5292530 117.6170290   2.7232220
  17.2491650 118.1125580   2.3328330  16.3274350 116.9388180   2.0786090
  11.9111330 117.6879350   8.6101220  11.8448640 116.7675020   8.3558810
  11.2816470 117.7854790   9.3245860   3.2986490 115.2546680   7.4810340
   2.9401430 115.9200530   8.0683680   3.0041050 114.4230230   7.8522960
   6.4999610 115.7130920  10.3649890   6.1999750 115.8588100   9.4677710
   7.2710850 115.1536210  10.2723280  11.8428060 120.5099920   8.3605020
  11.8572600 119.5780880   8.1423930  11.1353160 120.5959680   8.9994790
  18.0539270 117.1507260   7.7073600  17.3287460 117.7436040   7.5102990
  18.5814730 117.1430800   6.9086970  11.2761960 122.1517490   5.4545520
  11.9204180 122.3576870   6.1318940  11.6391400 121.3905890   5.0016370
  12.5494040 120.1549840   4.1722970  13.1916270 119.4543000   4.2855140
  13.0743390 120.9348280   3.9919860  14.3231660 120.9544740   7.3759030
  14.6587900 121.5411430   8.0536950  13.4032000 120.8237450   7.6056820
  10.1520240 121.0036070  10.5447090   9.8317110 120.2845310  11.0892780
   9.4778600 121.6791140  10.6183150  13.3673840 111.2362230   5.9083890
  13.7354660 110.4157440   6.2363460  12.5072040 111.2964120   6.3239540
  10.3275830 113.8901820   6.1321860  10.8261080 114.3647640   6.7973710
  10.4698780 112.9665340   6.3391890  17.5342690 110.1069780   6.9750250
  17.0316290 110.8475180   7.3144060  18.3499350 110.4953780   6.6587040
  17.8290280 122.5211810   2.0965870  17.9537700 123.3442980   2.5689680
  18.6955840 122.3102540   1.7490020   5.3007810 124.6143020   1.7683000
   6.0370290 124.0658480   2.0391570   5.6848730 125.4799030   1.6288990
   4.3066090 123.7989090  10.9568580   5.1078820 124.1201140  11.3703980
   3.7917910 123.4384670  11.6788490  13.1430720 119.9068960  10.9043990
  12.5368880 119.9300560  10.1639740  12.8384830 119.1752000  11.4411240
  14.5731090 123.6349250   9.5153400  15.5252840 123.5507270   9.4653640
  14.4259310 124.2990960  10.1887190   9.0801840 117.6933540   9.4340150
   8.3147510 118.2618540   9.3494820   9.2617800 117.4009750   8.5408380
  16.2225190 119.4238870   9.9915170  16.9634660 119.7614630   9.4882630
  15.4597870 119.5930930   9.4384940   4.0586980 114.4292140  10.7954700
   4.0992320 114.1306010  11.7039930   4.9132480 114.8299750  10.6362220
   5.9992790 113.0084240   8.7629190   5.4689250 112.5175190   8.1352530
   6.6680860 113.4368440   8.2287120  14.8970850 117.4753700   8.5270380
  15.3111870 117.6298780   9.3760800  13.9621850 117.6008920   8.6896160
  15.3693020 114.8149860  10.5309530  15.9513790 114.0602180  10.4430010
  15.5454790 115.3457300   9.7541010   6.4865090 109.9746610   8.8426480
   6.3921960 109.3567360   8.1177350   5.9062480 110.7012900   8.6156390
   9.2526530 108.5319850   5.8753870   8.8043830 108.5544110   5.0299420
   8.6191730 108.1338870   6.4724170   9.6586080 117.4274180   6.4966310
  10.0774190 118.2706910   6.3242550   8.7394710 117.5646220   6.2673090
  11.9949980 115.1590360   7.8804150  12.1146190 114.5631500   8.6198990
  12.8543980 115.1960050   7.4605450  14.3337880 115.7127550   6.4566660
  13.8073100 116.2370170   5.8531800  14.6769220 116.3454940   7.0876390
   7.5093500 123.7327190   7.6124040   6.9714590 124.4573250   7.2932740
   7.7627460 123.2557530   6.8221380   8.7618750 111.7011710   9.1379970
   9.3518440 111.3927560   9.8257790   7.9438990 111.2291460   9.2939870
  13.5812180 111.3177520   9.3712990  12.8927700 110.6559060   9.3062980
  14.3018200 110.8715790   9.8161450  10.3655710 124.9678400   7.8710690
  10.2914410 125.8713540   8.1783060   9.4634550 124.6490300   7.8432760
   2.2573210 123.1623580   3.9125940   1.8204200 123.3424380   4.7450090
   2.8250890 123.9198200   3.7707660  17.8935390 122.6640580   8.2003250
  17.2937380 122.7233140   7.4567170  18.0229290 121.7245560   8.3300100
  16.5787030 119.3892560   6.2979410  15.7646870 119.8189720   6.5605200
  16.9861230 120.0010970   5.6848460   3.1273570 116.0596380   4.8118160
   3.4946610 115.9723780   5.6914180   2.5584390 115.2962930   4.7125020
  17.9277430 114.5280760   7.8248630  17.6963520 114.2993510   6.9246580
  18.1881980 115.4480310   7.7793520   2.6789570 112.9705470   8.7176580
   1.7845620 112.9372230   9.0570290   3.2187120 113.1692260   9.4827830
  16.3665500 109.7537190  10.6028330  17.2435680 109.7620590  10.9862330
  16.3786340 109.0168030   9.9920680  17.9918490 113.6906600   5.0135900
  17.0421200 113.6570140   5.1280890  18.1731500 114.6006710   4.7785670
   3.1829280 107.2453800   3.0659800   3.8305470 106.6951180   2.6254960
   3.6031120 107.4996950   3.8875610  17.0781620 107.4395160   6.4229440
  17.7153840 108.0529300   6.7888630  17.2256510 107.4755820   5.4778670
   2.9361280 107.4009470   5.8085120   2.5876100 107.8573290   6.5743300
   2.6048980 106.5066600   5.8907550   4.5425650 120.5729070   9.9738310
   4.4995280 120.2021980  10.8552770   4.6736660 121.5106640  10.1140130
   8.2431680 122.1288660   5.5748030   8.0023040 122.3963220   4.6878550
   9.1834320 122.2994390   5.6298890  10.4486100 108.5921350   9.3304540
  10.3874990 109.1843180  10.0799950  11.3886480 108.4847310   9.1854800
  13.0860660 108.2491410   8.9696830  13.7001070 108.5670700   8.3077910
  13.6310220 107.7640000   9.5892690  19.5035840 124.1483040   6.3758670
  19.0094120 124.5451910   5.6585800  18.8949130 123.5232250   6.7695950
   3.6081920 106.9285670   9.0835890   4.1564910 106.7473720   8.3202000
   3.6737230 106.1379780   9.6192200   4.3813680 123.5191320   7.0936090
   3.7874000 123.3876020   7.8326130   4.3737520 122.6829460   6.6278190
  13.8268700 106.8123550   5.2966120  12.9528540 107.1458660   5.0939050
  13.7179450 106.3396730   6.1217990  14.7340680 109.0194420   6.6807840
  14.4054040 108.2046180   6.3009570  15.6822980 108.9764230   6.5573530
  17.1875290 124.7906460   3.6545410  16.7278260 125.5422270   3.2803430
  16.5587750 124.0712930   3.5960210   4.0125910 120.8849700   6.0444130
   3.2859970 120.2654990   5.9770080   4.0735060 121.2790310   5.1742210
   7.6171010 123.0994700   2.8293540   8.1336030 122.4882060   2.3041800
   8.2668390 123.6023480   3.3204550  10.3566510 123.9903190   3.6562520
  10.6444320 123.7357490   2.7795530  10.8689730 123.4380550   4.2468090
  11.5743520 107.7293390   4.2359030  10.7915310 108.2038890   4.5155790
  11.2806450 106.8248220   4.1272210  16.1264590 108.4316490   2.2808120
  16.5672680 108.3761590   1.4329720  15.8572180 109.3474500   2.3518300
  10.4238870 124.9119290  11.0230720  11.3506180 124.6763560  11.0666680
  10.4089300 125.7391290  10.5416750   7.6102480 107.5764040  10.7872600
   7.3286750 108.0797640  10.0233420   7.9922180 106.7785790  10.4214730
  14.2117940 106.9917620  11.3653070  14.0983390 107.3112230  12.2604590
  15.0287680 107.3930130  11.0690350  16.9916430 124.1389150  10.8471760
  17.7841750 123.6438380  10.6397720  17.2849580 124.8179290  11.4547370
  13.1176090  96.2366600 150.6979220  13.0370140  95.3221210 150.4270930
  12.7040510  96.7333670 149.9918930  11.2494130  98.0145620 152.5788490
  10.4736230  97.5346060 152.8687060  11.9007060  97.3351270 152.4044650
  15.2701560 102.4205810 151.3587620  14.8083090 101.6493050 151.6874790
  16.0827110 102.4471880 151.8640070   3.6751910  93.2867320 147.2406640
   2.7868610  93.6283290 147.1386520   3.9593100  93.0867640 146.3487470
  11.4964870 104.7063820 150.9791610  10.8776310 105.1621320 150.4086050
  12.3516650 104.8615280 150.5781310  10.6903120 100.6902810 152.5858650
  10.6211400  99.7492750 152.4247780  11.4522980 100.7804220 153.1581220
  11.7208290  93.4973190 152.8127580  12.0973110  92.6245070 152.7001250
  11.6227800  93.8331890 151.9218020   5.8513300  91.8698820 148.2745020
   5.9580050  92.7702550 148.5813780   4.9405660  91.8216790 147.9839670
  15.5032410  90.9923630 149.7455920  16.3242030  90.5020200 149.7881400
  15.5366490  91.5821290 150.4987760  12.3628220  99.5903060 148.3723520
  11.7445490 100.0552510 147.8086240  12.8751470 100.2830540 148.7893030
  15.7393890  92.9324010 152.5183460  15.0349460  93.2208900 153.0986570
  16.1006050  93.7424120 152.1583020   9.3400350  88.6775980 151.2048660
   9.6475330  88.1222870 150.4884160   8.4101050  88.8120440 151.0221650
  16.1860830 101.1159490 148.5846290  16.0757160 100.1733820 148.7095710
  16.1829080 101.4775130 149.4709050  11.7281110  96.7424810 147.9408780
  10.8010390  96.6762190 148.1697250  11.8805930  97.6804940 147.8264020
  11.7150190  93.0141810 144.9375940  10.7753860  93.1755770 145.0228400
  12.0333450  93.7327490 144.3911930  15.7578400  98.3045110 148.4444030
  15.1390820  97.9664660 147.7970330  15.7402850  97.6604870 149.1523220
   7.3337750  97.2689550 150.7228510   6.9294750  96.5566800 150.2274410
   7.4200870  96.9242790 151.6116550   7.8019450 100.9557110 152.8867720
   7.5047740 100.3502580 152.2075500   8.7519270 100.9934420 152.7757080
  13.9343100  97.5431920 145.4516780  14.3736380  96.7054350 145.3054600
  14.6471520  98.1761320 145.5380920  12.0438480 102.4827990 149.4198020
  12.4834390 103.2252320 149.0053410  11.9825370 102.7254560 150.3436980
  17.5160240  88.7974730 143.7657820  17.2032900  88.8901560 144.6656890
  18.2772710  89.3755760 143.7155250   4.0342380  96.1634530 148.2235160
   3.9139980  96.8896620 147.6116430   3.7243270  95.3937440 147.7463070
   2.9175380 101.0349860 150.4409980   2.5103460 101.1764450 149.5863580
   3.8088390 100.7510020 150.2381190  14.7108660 105.4697110 146.7761030
  14.5509800 105.1800050 147.6742860  14.5455370 104.6937240 146.2406260
   7.1897040 105.2495640 148.5532650   7.0139520 104.3331180 148.3400450
   6.3352780 105.6082930 148.7930450  14.4134790 102.9784670 145.3359030
  13.7199950 102.9761960 144.6761310  15.1557650 102.5543990 144.9053200
  13.9784720 104.6047380 149.4107520  14.4341670 103.8236760 149.7246140
  14.3177240 105.3154200 149.9548700   6.5006040  89.5069600 151.6058830
   6.0574190  90.2879140 151.2743350   7.0591030  89.8299490 152.3129770
   9.6164860  89.1280300 146.4864660   8.9919040  89.1240170 147.2117970
   9.5294980  88.2611260 146.0900630   6.2920260  94.6303170 149.3340080
   6.0661180  94.4140340 150.2386700   5.5112790  95.0631630 148.9886050
  13.5218020  94.6366540 147.9330730  12.9226910  95.3602340 147.7494350
  14.0697630  94.5743320 147.1507180  12.1282890  93.2730080 149.9634010
  12.5212460  93.5902280 149.1502700  12.4899740  92.3941960 150.0778530
   9.1515420  92.5390030 152.4637280   9.1551480  92.0979980 151.6141820
  10.0466540  92.8607360 152.5709100   5.0017800  92.4216520 151.4231490
   4.6617850  92.8991750 152.1798540   4.2395120  91.9681640 151.0632590
   9.2135570  93.5402110 145.4544040   9.3348390  93.4988590 146.4029860
   8.8284080  94.4026260 145.2990770   8.2257070  95.8503250 144.8527340
   7.6573970  95.4021500 144.2263250   8.9346070  96.2096030 144.3192490
   2.3163880  91.3435500 150.3396160   2.0310800  90.9791170 151.1774780
   2.2542740  90.6115960 149.7259300   5.7704550  99.8461440 147.1253750
   4.9966810  99.3059060 146.9652470   6.4999180  99.3268050 146.7871510
  16.5292530  98.8426800 152.9180140  17.2491650  99.3382090 152.5276250
  16.3274350  98.1644690 152.2734010  11.9902470  90.2364760 147.0609530
  11.1767080  89.7377930 146.9854840  11.7964420  91.0763010 146.6445880
  14.7050860  94.6084410 145.3571690  15.5930480  94.9201640 145.1823030
  14.6755950  93.7356660 144.9652270   5.8141950  99.5141820 150.7632560
   6.3320620  98.7110080 150.7089450   5.3625970  99.4520960 151.6049390
  10.7011450 100.7808100 146.0359860  11.0427150 101.5250330 145.5403180
   9.8724160 101.0939220 146.3984690  16.9765130  95.9196250 144.8251550
  16.8928850  96.3510470 143.9747990  17.6959320  96.3794600 145.2578370
  18.0052380 102.7738510 147.5533680  17.3628540 102.1194130 147.8277400
  17.6183040 103.1793600 146.7774350  13.5838860 100.1023940 151.4005370
  13.9362680  99.5052070 150.7406740  12.7001190  99.7768170 151.5713620
   9.6702140 100.8621630 148.8075780  10.3573270 101.4090840 149.1883370
   8.8834560 101.4062360 148.8425390   8.9729350  97.8667660 148.4201140
   9.4292130  98.6772910 148.6461330   8.6217560  97.5490800 149.2519630
   4.8741130  88.2105310 148.8923660   4.7455760  88.2023210 149.8408580
   4.0503150  88.5488400 148.5414670  16.3949760 101.6654970 144.0910030
  16.1687340 100.9485410 144.6834670  16.0045960 101.4167410 143.2531780
   2.1765790 105.6921830 144.8654490   2.5363430 106.2911170 144.2111760
   2.0358130 106.2381720 145.6389520  15.9766010  99.5826910 145.7524190
  15.6887710 100.0439600 146.5402070  16.7718180  99.1224680 146.0208410
   8.1934410 103.0753030 145.6828160   8.1844510 103.8082720 145.0672670
   7.2732770 102.8284610 145.7755120   3.7941050  98.2967920 146.4274920
   3.1869000  99.0366820 146.4370220   4.2690400  98.3867280 145.6013120
  16.7335870  91.4175680 146.9119370  16.1049030  91.5221350 146.1977600
  16.2387790  91.6372460 147.7013250  11.1794010 103.1381270 144.3453350
  11.2805990 102.9345260 143.4155330  10.2795750 102.8839550 144.5501130
   8.7019900  93.6961630 148.3277250   7.9936050  94.1647970 148.7690860
   8.9864380  93.0383640 148.9622440  12.7335330  90.4212290 149.7673040
  12.6103110  90.4398420 148.8182550  13.6819890  90.4691230 149.8871440
   9.8212120 105.6567590 149.0401020  10.0753620 105.6188980 148.1180390
   8.8724600 105.5300920 149.0329270   6.9054920  92.0046710 145.7027960
   7.7545450  92.4416860 145.6368150   6.5386190  92.3166970 146.5300020
  15.8264700  96.5759470 150.6159530  14.8854840  96.5909700 150.7907220
  16.1408770  95.7895430 151.0619830   5.8046340  98.2579070 144.1763490
   6.5709610  98.1460430 144.7388920   5.8821030  97.5617040 143.5240260
   4.4993100  95.6904140 144.8596380   4.5796690  94.7431650 144.9713780
   5.3912850  96.0211020 144.9657040  17.8290280 103.7468320 152.2913790
  17.9537700 104.5699490 152.7637600  18.6955840 103.5359050 151.9437940
   5.3007810 105.8399530 151.9630920   6.0370290 105.2914990 152.2339490
   5.6848730 106.7055540 151.8236910   8.4110120 105.0129840 143.7856490
   9.2038730 105.3018670 143.3338280   7.8914470 104.5822010 143.1068970
  17.4640290 104.2399970 145.2093230  17.1781800 103.8265110 144.3947410
  17.2659840 105.1687680 145.0893750   8.9287520 100.2333250 143.6498840
   8.8238160  99.6185600 144.3760220   8.7611740  99.7099140 142.8661850
  12.1690250  99.2953280 144.2540830  11.6200350  99.7422580 144.8983570
  12.7909510  98.7902530 144.7778500   7.8365370  98.2544200 146.1506130
   8.2581790  98.0884070 146.9937520   7.9616210  97.4444430 145.6561270
  10.3493010  97.2781810 143.3983230  10.8698670  96.5630830 143.0324380
  10.9961410  97.9167680 143.6983740   6.7324270  94.3277430 143.0964290
   6.5313330  93.4644790 143.4577630   6.5616320  94.2410790 142.1585890
  14.2112580  89.1385660 145.6251170  14.4914870  88.2953560 145.9810590
  13.4378310  89.3708770 146.1389920   5.5307070  91.4278050 143.0842170
   5.8332970  91.4345480 142.1761320   6.2701660  91.0775910 143.5809830
   8.7492000  90.3712670 144.0698370   8.4014000  89.6936660 143.4900820
   8.9504770  89.9102180 144.8841760  10.9141040 105.3593420 145.6884970
  11.8091830 105.6978390 145.7103730  10.9458670 104.6372830 145.0609250
   4.5537200 100.7320470 143.9171970   4.9912070 101.2750140 144.5729550
   5.0384930  99.9067420 143.9268310   1.7683000 103.5209500 151.3692230
   2.0986010 102.6530560 151.1370870   2.1974000 103.7268020 152.1997190
   6.3644920 101.8518510 149.0294200   6.0640460 101.7283480 149.9298110
   6.2582410 100.9927100 148.6209930  19.1336840 101.6314910 143.7320880
  18.3029800 101.6991560 144.2028110  19.3108670 102.5219030 143.4287740
  18.5893300  98.3762390 146.2355080  19.3512210  98.9459040 146.3414770
  18.6047670  97.8089590 147.0063390  19.5953270  99.2312490 151.0797010
  19.9662100  98.4479810 150.6732980  20.2355200  99.9201590 150.9014310
  18.6412470  98.6696760 143.3927600  18.9161310  99.5775640 143.2646820
  18.4523210  98.6059290 144.3289590  15.0388080  91.6941610 144.6881230
  15.4572960  91.5072590 143.8477890  14.7324140  90.8420660 144.9984160
  18.5377810  96.6065750 148.3857030  18.1621410  95.8393680 147.9538320
  17.8080930  96.9888450 148.8731960  17.8128770  94.8323240 151.6864270
  18.3366250  94.3385890 151.0554440  18.3988190  94.9673600 152.4311840
   3.8462930  93.1664790 144.3182450   4.5554630  92.7448010 143.8329730
   3.1302870  93.2340020 143.6865800   3.4937090  89.2204120 143.3585100
   4.2165220  89.7613060 143.6766320   3.7661610  88.9467540 142.4826640
  17.3028740  94.0896590 147.6256680  17.7987860  93.8567460 148.4105560
  17.1044810  93.2508430 147.2094320  18.7315900  92.7257540 150.1594360
  18.6215180  92.5713580 151.0976630  19.4923490  92.1978480 149.9169770
  19.6206170  90.5565460 143.4000500  20.5455480  90.4246640 143.1918790
  19.5981960  90.6358280 144.3536950  19.6944660  91.3276120 146.0257210
  18.8996160  91.2621240 146.5550120  19.8987940  92.2626760 146.0142560
  16.6363080 105.3667670 150.0195600  17.2322150 105.0452240 149.3430020
  16.8941230 104.8939490 150.8108870  16.1264590  89.6573000 152.4756040
  16.5672680  89.6018100 151.6277640  15.8572180  90.5731010 152.5466220
  17.9903160  89.2888240 150.4864860  17.9291560  88.3449460 150.3395880
  18.7695190  89.3968330 151.0318320   2.9183930  89.2597380 146.9520670
   3.6763290  89.3726260 146.3784700   2.4561100  90.0966580 146.9064100
   9.4597740  91.3736650 149.9422980   8.6472250  90.9993540 149.6018860
   9.9639380  90.6181730 150.2444170  13.9622720  88.0379100 151.1806050
  14.5652090  88.6099310 151.6554570  13.2215710  88.6018540 150.9579950
  17.1057320  88.4400660 146.4546330  17.3007950  89.3384110 146.7213760
  16.3187190  88.2087740 146.9479280   3.9018610 104.1213830 146.8938950
   3.3766230 104.5021860 146.1900910   3.8263190 104.7464600 147.6148660
   5.2909080  89.7861430 145.4922640   5.8201840  88.9991230 145.3630590
   5.9237400  90.4652620 145.7258170   7.4846920  89.5236570 148.5468030
   6.8549660  88.8223880 148.7138160   6.9452060  90.2840700 148.3301190
  18.6583930 105.6801370 148.2152890  18.8336120 104.9939110 147.5713810
  17.9605500 106.2048420 147.8229560   6.5011580 106.0696210 145.7688200
   7.2330400 105.7855490 145.2212090   6.7605250 105.8309490 146.6587580
   5.6626370 102.1860940 145.7734530   5.0335250 102.6546040 146.3220360
   5.7774200 101.3410160 146.2080720  13.1176090  96.2366600 131.9235730
  13.0370140  95.3221210 131.6527440  12.7040510  96.7333670 131.2175440
  11.2494130  98.0145620 133.8045000  10.4736230  97.5346060 134.0943570
  11.9007060  97.3351270 133.6301160   5.2659960  98.3265430 134.6820760
   4.4344840  98.0714140 135.0817270   5.8740940  98.3976200 135.4178680
  15.2701560 102.4205810 132.5844130  14.8083090 101.6493050 132.9131300
  16.0827110 102.4471880 133.0896580   5.2461220 102.3605520 134.8778780
   5.5489260 101.4703260 134.6989000   5.9904810 102.9175740 134.6501030
   3.6751910  93.2867320 128.4663150   2.7868610  93.6283290 128.3643030
   3.9593100  93.0867640 127.5743980  11.4964870 104.7063820 132.2048120
  10.8776310 105.1621320 131.6342560  12.3516650 104.8615280 131.8037820
  10.6903120 100.6902810 133.8115160  10.6211400  99.7492750 133.6504290
  11.4522980 100.7804220 134.3837730   2.8809790  91.2957330 136.1371780
   2.7012630  90.3983080 136.4174540   2.4789870  91.8429200 136.8118730
  11.7208290  93.4973190 134.0384090  12.0973110  92.6245070 133.9257760
  11.6227800  93.8331890 133.1474530   5.8513300  91.8698820 129.5001530
   5.9580050  92.7702550 129.8070290   4.9405660  91.8216790 129.2096180
  15.5032410  90.9923630 130.9712430  16.3242030  90.5020200 131.0137910
  15.5366490  91.5821290 131.7244270   3.4996460  93.7917830 134.7454120
   4.1806570  94.0556200 135.3641520   3.1844510  92.9518700 135.0792130
   7.6921030  94.8385190 133.8326710   8.1999250  95.3366160 134.4731730
   8.2234270  94.0620390 133.6566070  19.7931960  93.0090380 137.5356060
  19.0884130  93.3972090 137.0171170  20.0589880  93.7040670 138.1376990
   5.9757130  89.4783750 138.0990130   5.9775570  89.9956140 137.2936030
   5.1461440  89.0013930 138.0760060  12.3628220  99.5903060 129.5980030
  11.7445490 100.0552510 129.0342750  12.8751470 100.2830540 130.0149540
   7.2259980  99.1178930 136.2763630   6.8929360  99.7447850 136.9184700
   7.4026660  99.6440810 135.4965300  15.7393890  92.9324010 133.7439970
  15.0349460  93.2208900 134.3243080  16.1006050  93.7424120 133.3839530
   5.6572460  91.1893710 136.1060580   5.9989270  92.0335760 135.8114450
   4.7188270  91.3377450 136.2225920   6.4379080 101.0859730 138.0912810
   7.0553080 101.7610810 137.8097260   5.5772200 101.4947710 138.0000310
  17.3556670 102.5499140 136.0067450  16.6720190 103.2198250 135.9984120
  17.8950960 102.7479790 135.2412310  18.8080810  92.3778800 134.1349180
  17.8605720  92.4117780 134.2664610  19.1330800  93.1917750 134.5198540
   9.3400350  88.6775980 132.4305170   9.6475330  88.1222870 131.7140670
   8.4101050  88.8120440 132.2478160  14.8915410 104.3943270 134.7212630
  14.9042570 103.9905560 133.8534890  14.3390630 105.1690560 134.6174060
  16.1860830 101.1159490 129.8102800  16.0757160 100.1733820 129.9352220
  16.1829080 101.4775130 130.6965560  14.2900850  99.2973110 136.0495240
  14.7069640  99.0833220 135.2148700  15.0140670  99.5545900 136.6203860
  11.7281110  96.7424810 129.1665290  10.8010390  96.6762190 129.3953760
  11.8805930  97.6804940 129.0520530  11.7150190  93.0141810 126.1632450
  10.7753860  93.1755770 126.2484910  12.0333450  93.7327490 125.6168440
  18.2362950  97.6960330 136.1411480  17.4081580  97.7653420 135.6661610
  18.8313430  98.2814640 135.6727310  15.7578400  98.3045110 129.6700540
  15.1390820  97.9664660 129.0226840  15.7402850  97.6604870 130.3779730
  15.2004960  94.4829650 137.0866350  14.7876140  95.3083360 137.3406340
  14.4680910  93.8974690 136.8942710   7.3337750  97.2689550 131.9485020
   6.9294750  96.5566800 131.4530920   7.4200870  96.9242790 132.8373060
   7.8019450 100.9557110 134.1124230   7.5047740 100.3502580 133.4332010
   8.7519270 100.9934420 134.0013590   6.0466370  94.0432760 135.7284060
   6.5980960  94.1528100 134.9537310   6.5609880  94.4170360 136.4439290
  15.8905060 104.5288980 137.7747330  15.4135620 105.3361170 137.5819940
  15.2066850 103.8767310 137.9273540   6.8937880 100.6938800 140.7632030
   5.9966410 100.9178770 141.0105430   6.9190750 100.8173740 139.8143430
  13.9343100  97.5431920 126.6773290  14.3736380  96.7054350 126.5311110
  14.6471520  98.1761320 126.7637430   5.7209100  97.5652120 139.3389400
   5.5816870  98.4374920 139.7076800   4.8390460  97.2224930 139.1937340
  12.0438480 102.4827990 130.6454530  12.4834390 103.2252320 130.2309920
  11.9825370 102.7254560 131.5693490   7.5189450 103.5073820 141.5474550
   7.4904880 103.9116770 140.6802980   7.3554420 102.5784180 141.3846150
  17.5160240  88.7974730 124.9914330  17.2032900  88.8901560 125.8913400
  18.2772710  89.3755760 124.9411760   4.0342380  96.1634530 129.4491670
   3.9139980  96.8896620 128.8372940   3.7243270  95.3937440 128.9719580
  19.4704270 104.2900920 142.8438720  19.9463990 104.7683810 143.5227800
  20.0911430 104.2218410 142.1184220   2.9175380 101.0349860 131.6666490
   2.5103460 101.1764450 130.8120090   3.8088390 100.7510020 131.4637700
  18.8737520 101.4813770 140.0038730  19.0000580 101.2425650 139.0855910
  18.9158900 100.6498310 140.4760810  12.7354260 105.1841770 138.5733540
  13.2498930 105.0949780 139.3755970  11.8923340 105.5301470 138.8661450
  14.7108660 105.4697110 128.0017540  14.5509800 105.1800050 128.8999370
  14.5455370 104.6937240 127.4662770   7.1897040 105.2495640 129.7789160
   7.0139520 104.3331180 129.5656960   6.3352780 105.6082930 130.0186960
  14.4134790 102.9784670 126.5615540  13.7199950 102.9761960 125.9017820
  15.1557650 102.5543990 126.1309710  13.9784720 104.6047380 130.6364030
  14.4341670 103.8236760 130.9502650  14.3177240 105.3154200 131.1805210
  18.7261530  93.5346230 140.9688470  18.1105800  94.0425900 140.4403930
  18.4057950  92.6344560 140.9114410   6.5006040  89.5069600 132.8315340
   6.0574190  90.2879140 132.4999860   7.0591030  89.8299490 133.5386280
  10.7875850  92.3738120 138.4350660  10.3255220  92.5821140 139.2470600
  10.3853960  91.5597470 138.1321330  15.7880360  93.5947070 139.5647320
  14.9373950  93.2952820 139.8856390  15.6282150  93.8389080 138.6531140
  12.8830070  95.0948820 141.6646110  13.2083480  94.2612570 141.3248340
  13.6710400  95.6177340 141.8124440   9.6164860  89.1280300 127.7121170
   8.9919040  89.1240170 128.4374480   9.5294980  88.2611260 127.3157140
   8.5381940  90.0516930 134.6904940   8.8354270  90.9579760 134.6096960
   9.0867500  89.5635710 134.0764510   6.2920260  94.6303170 130.5596590
   6.0661180  94.4140340 131.4643210   5.5112790  95.0631630 130.2142560
  13.5218020  94.6366540 129.1587240  12.9226910  95.3602340 128.9750860
  14.0697630  94.5743320 128.3763690   8.7319470  95.5288750 141.2256860
   8.6363070  94.5883480 141.0757260   9.5751450  95.7503820 140.8304930
  12.1282890  93.2730080 131.1890520  12.5212460  93.5902280 130.3759210
  12.4899740  92.3941960 131.3035040   3.8630010  91.9402420 139.3790640
   3.4693400  92.7877630 139.5863420   3.1748410  91.3028790 139.5699280
  10.4375060  92.0237390 142.4487380   9.7473380  91.8309590 143.0833470
  11.1807360  92.3072030 142.9811680  12.7138030  95.8635830 135.2841300
  11.9819150  96.3722640 135.6331400  12.3162370  95.0465810 134.9830080
   9.1515420  92.5390030 133.6893790   9.1551480  92.0979980 132.8398330
  10.0466540  92.8607360 133.7965610   5.0017800  92.4216520 132.6488000
   4.6617850  92.8991750 133.4055050   4.2395120  91.9681640 132.2889100
   9.2135570  93.5402110 126.6800550   9.3348390  93.4988590 127.6286370
   8.8284080  94.4026260 126.5247280  13.1763940  91.3169510 134.6964240
  13.1936680  91.7678160 135.5406090  12.9279520  90.4175150 134.9097680
   8.2257070  95.8503250 126.0783850   7.6573970  95.4021500 125.4519760
   8.9346070  96.2096030 125.5449000  16.6034690  88.7301690 140.5350620
  16.9280460  87.9991350 141.0608600  16.6391200  88.4115330 139.6331610
   3.3026250  99.7515270 139.9550580   2.9181040  99.1108940 140.5533540
   3.6138440 100.4551390 140.5245310   9.4523390  96.5991810 135.4359200
   9.8193520  96.1250380 136.1820540   9.2628450  97.4733380 135.7767540
   2.3163880  91.3435500 131.5652670   2.0310800  90.9791170 132.4031290
   2.2542740  90.6115960 130.9515810   7.2422760  95.6400450 137.7543410
   6.9379830  96.5192430 137.9793770   8.1969220  95.7000240 137.7900850
   5.7704550  99.8461440 128.3510260   4.9966810  99.3059060 128.1908980
   6.4999180  99.3268050 128.0128020  16.5292530  98.8426800 134.1436650
  17.2491650  99.3382090 133.7532760  16.3274350  98.1644690 133.4990520
  11.9902470  90.2364760 128.2866040  11.1767080  89.7377930 128.2111350
  11.7964420  91.0763010 127.8702390  11.9111330  98.9135860 140.0305650
  11.8448640  97.9931530 139.7763240  11.2816470  99.0111300 140.7450290
  14.7050860  94.6084410 126.5828200  15.5930480  94.9201640 126.4079540
  14.6755950  93.7356660 126.1908780   5.8141950  99.5141820 131.9889070
   6.3320620  98.7110080 131.9345960   5.3625970  99.4520960 132.8305900
  10.7011450 100.7808100 127.2616370  11.0427150 101.5250330 126.7659690
   9.8724160 101.0939220 127.6241200   3.2986490  96.4803190 138.9014770
   2.9401430  97.1457040 139.4888110   3.0041050  95.6486740 139.2727390
   6.4999610  96.9387430 141.7854320   6.1999750  97.0844610 140.8882140
   7.2710850  96.3792720 141.6927710  11.8428060 101.7356430 139.7809450
  11.8572600 100.8037390 139.5628360  11.1353160 101.8216190 140.4199220
  16.9765130  95.9196250 126.0508060  16.8928850  96.3510470 125.2004500
  17.6959320  96.3794600 126.4834880  18.0539270  98.3763770 139.1278030
  17.3287460  98.9692550 138.9307420  18.5814730  98.3687310 138.3291400
  18.0052380 102.7738510 128.7790190  17.3628540 102.1194130 129.0533910
  17.6183040 103.1793600 128.0030860  13.5838860 100.1023940 132.6261880
  13.9362680  99.5052070 131.9663250  12.7001190  99.7768170 132.7970130
   9.6702140 100.8621630 130.0332290  10.3573270 101.4090840 130.4139880
   8.8834560 101.4062360 130.0681900   8.9729350  97.8667660 129.6457650
   9.4292130  98.6772910 129.8717840   8.6217560  97.5490800 130.4776140
  11.2761960 103.3774000 136.8749950  11.9204180 103.5833380 137.5523370
  11.6391400 102.6162400 136.4220800   4.8741130  88.2105310 130.1180170
   4.7455760  88.2023210 131.0665090   4.0503150  88.5488400 129.7671180
  12.5494040 101.3806350 135.5927400  13.1916270 100.6799510 135.7059570
  13.0743390 102.1604790 135.4124290  16.3949760 101.6654970 125.3166540
  16.1687340 100.9485410 125.9091180  16.0045960 101.4167410 124.4788290
  14.3231660 102.1801250 138.7963460  14.6587900 102.7667940 139.4741380
  13.4032000 102.0493960 139.0261250   2.1765790 105.6921830 126.0911000
   2.5363430 106.2911170 125.4368270   2.0358130 106.2381720 126.8646030
  15.9766010  99.5826910 126.9780700  15.6887710 100.0439600 127.7658580
  16.7718180  99.1224680 127.2464920  10.1520240 102.2292580 141.9651520
   9.8317110 101.5101820 142.5097210   9.4778600 102.9047650 142.0387580
   8.1934410 103.0753030 126.9084670   8.1844510 103.8082720 126.2929180
   7.2732770 102.8284610 127.0011630   3.7941050  98.2967920 127.6531430
   3.1869000  99.0366820 127.6626730   4.2690400  98.3867280 126.8269630
  13.3673840  92.4618740 137.3288320  13.7354660  91.6413950 137.6567890
  12.5072040  92.5220630 137.7443970  16.7335870  91.4175680 128.1375880
  16.1049030  91.5221350 127.4234110  16.2387790  91.6372460 128.9269760
  11.1794010 103.1381270 125.5709860  11.2805990 102.9345260 124.6411840
  10.2795750 102.8839550 125.7757640   8.7019900  93.6961630 129.5533760
   7.9936050  94.1647970 129.9947370   8.9864380  93.0383640 130.1878950
  10.3275830  95.1158330 137.5526290  10.8261080  95.5904150 138.2178140
  10.4698780  94.1921850 137.7596320  12.7335330  90.4212290 130.9929550
  12.6103110  90.4398420 130.0439060  13.6819890  90.4691230 131.1127950
   9.8212120 105.6567590 130.2657530  10.0753620 105.6188980 129.3436900
   8.8724600 105.5300920 130.2585780   6.9054920  92.0046710 126.9284470
   7.7545450  92.4416860 126.8624660   6.5386190  92.3166970 127.7556530
  17.5342690  91.3326290 138.3954680  17.0316290  92.0731690 138.7348490
  18.3499350  91.7210290 138.0791470  15.8264700  96.5759470 131.8416040
  14.8854840  96.5909700 132.0163730  16.1408770  95.7895430 132.2876340
   5.8046340  98.2579070 125.4020000   6.5709610  98.1460430 125.9645430
   5.8821030  97.5617040 124.7496770   4.4993100  95.6904140 126.0852890
   4.5796690  94.7431650 126.1970290   5.3912850  96.0211020 126.1913550
  17.8290280 103.7468320 133.5170300  17.9537700 104.5699490 133.9894110
  18.6955840 103.5359050 133.1694450   5.3007810 105.8399530 133.1887430
   6.0370290 105.2914990 133.4596000   5.6848730 106.7055540 133.0493420
   4.3066090 105.0245600 142.3773010   5.1078820 105.3457650 142.7908410
   3.7917910 104.6641180 143.0992920   8.4110120 105.0129840 125.0113000
   9.2038730 105.3018670 124.5594790   7.8914470 104.5822010 124.3325480
  13.1430720 101.1325470 142.3248420  12.5368880 101.1557070 141.5844170
  12.8384830 100.4008510 142.8615670  14.5731090 104.8605760 140.9357830
  15.5252840 104.7763780 140.8858070  14.4259310 105.5247470 141.6091620
  17.4640290 104.2399970 126.4349740  17.1781800 103.8265110 125.6203920
  17.2659840 105.1687680 126.3150260   8.9287520 100.2333250 124.8755350
   8.8238160  99.6185600 125.6016730   8.7611740  99.7099140 124.0918360
   9.0801840  98.9190050 140.8544580   8.3147510  99.4875050 140.7699250
   9.2617800  98.6266260 139.9612810  12.1690250  99.2953280 125.4797340
  11.6200350  99.7422580 126.1240080  12.7909510  98.7902530 126.0035010
  16.2225190 100.6495380 141.4119600  16.9634660 100.9871140 140.9087060
  15.4597870 100.8187440 140.8589370   4.0586980  95.6548650 142.2159130
   4.0992320  95.3562520 143.1244360   4.9132480  96.0556260 142.0566650
   7.8365370  98.2544200 127.3762640   8.2581790  98.0884070 128.2194030
   7.9616210  97.4444430 126.8817780   5.9992790  94.2340750 140.1833620
   5.4689250  93.7431700 139.5556960   6.6680860  94.6624950 139.6491550
  10.3493010  97.2781810 124.6239740  10.8698670  96.5630830 124.2580890
  10.9961410  97.9167680 124.9240250  14.8970850  98.7010210 139.9474810
  15.3111870  98.8555290 140.7965230  13.9621850  98.8265430 140.1100590
  15.3693020  96.0406370 141.9513960  15.9513790  95.2858690 141.8634440
  15.5454790  96.5713810 141.1745440   6.4865090  91.2003120 140.2630910
   6.3921960  90.5823870 139.5381780   5.9062480  91.9269410 140.0360820
   9.2526530  89.7576360 137.2958300   8.8043830  89.7800620 136.4503850
   8.6191730  89.3595380 137.8928600   9.6586080  98.6530690 137.9170740
  10.0774190  99.4963420 137.7446980   8.7394710  98.7902730 137.6877520
  11.9949980  96.3846870 139.3008580  12.1146190  95.7888010 140.0403420
  12.8543980  96.4216560 138.8809880  14.3337880  96.9384060 137.8771090
  13.8073100  97.4626680 137.2736230  14.6769220  97.5711450 138.5080820
   6.7324270  94.3277430 124.3220800   6.5313330  93.4644790 124.6834140
   6.5616320  94.2410790 123.3842400   7.5093500 104.9583700 139.0328470
   6.9714590 105.6829760 138.7137170   7.7627460 104.4814040 138.2425810
   8.7618750  92.9268220 140.5584400   9.3518440  92.6184070 141.2462220
   7.9438990  92.4547970 140.7144300  13.5812180  92.5434030 140.7917420
  12.8927700  91.8815570 140.7267410  14.3018200  92.0972300 141.2365880
  14.2112580  89.1385660 126.8507680  14.4914870  88.2953560 127.2067100
  13.4378310  89.3708770 127.3646430   5.5307070  91.4278050 124.3098680
   5.8332970  91.4345480 123.4017830   6.2701660  91.0775910 124.8066340
  10.3655710 106.1934910 139.2915120  10.2914410 107.0970050 139.5987490
   9.4634550 105.8746810 139.2637190   8.7492000  90.3712670 125.2954880
   8.4014000  89.6936660 124.7157330   8.9504770  89.9102180 126.1098270
  10.9141040 105.3593420 126.9141480  11.8091830 105.6978390 126.9360240
  10.9458670 104.6372830 126.2865760   4.5537200 100.7320470 125.1428480
   4.9912070 101.2750140 125.7986060   5.0384930  99.9067420 125.1524820
   1.7683000 103.5209500 132.5948740   2.0986010 102.6530560 132.3627380
   2.1974000 103.7268020 133.4253700   6.3644920 101.8518510 130.2550710
   6.0640460 101.7283480 131.1554620   6.2582410 100.9927100 129.8466440
   2.2573210 104.3880090 135.3330370   1.8204200 104.5680890 136.1654520
   2.8250890 105.1454710 135.1912090  17.8935390 103.8897090 139.6207680
  17.2937380 103.9489650 138.8771600  18.0229290 102.9502070 139.7504530
  19.1336840 101.6314910 124.9577390  18.3029800 101.6991560 125.4284620
  19.3108670 102.5219030 124.6544250  18.5893300  98.3762390 127.4611590
  19.3512210  98.9459040 127.5671280  18.6047670  97.8089590 128.2319900
  19.5953270  99.2312490 132.3053520  19.9662100  98.4479810 131.8989490
  20.2355200  99.9201590 132.1270820  16.5787030 100.6149070 137.7183840
  15.7646870 101.0446230 137.9809630  16.9861230 101.2267480 137.1052890
  18.6412470  98.6696760 124.6184110  18.9161310  99.5775640 124.4903330
  18.4523210  98.6059290 125.5546100  15.0388080  91.6941610 125.9137740
  15.4572960  91.5072590 125.0734400  14.7324140  90.8420660 126.2240670
  18.5377810  96.6065750 129.6113540  18.1621410  95.8393680 129.1794830
  17.8080930  96.9888450 130.0988470   3.1273570  97.2852890 136.2322590
   3.4946610  97.1980290 137.1118610   2.5584390  96.5219440 136.1329450
  17.9277430  95.7537270 139.2453060  17.6963520  95.5250020 138.3451010
  18.1881980  96.6736820 139.1997950   2.6789570  94.1961980 140.1381010
   1.7845620  94.1628740 140.4774720   3.2187120  94.3948770 140.9032260
  16.3665500  90.9793700 142.0232760  17.2435680  90.9877100 142.4066760
  16.3786340  90.2424540 141.4125110  17.8128770  94.8323240 132.9120780
  18.3366250  94.3385890 132.2810950  18.3988190  94.9673600 133.6568350
  17.9918490  94.9163110 136.4340330  17.0421200  94.8826650 136.5485320
  18.1731500  95.8263220 136.1990100   3.8462930  93.1664790 125.5438960
   4.5554630  92.7448010 125.0586240   3.1302870  93.2340020 124.9122310
   3.4937090  89.2204120 124.5841610   4.2165220  89.7613060 124.9022830
   3.7661610  88.9467540 123.7083150  17.3028740  94.0896590 128.8513190
  17.7987860  93.8567460 129.6362070  17.1044810  93.2508430 128.4350830
   3.1829280  88.4710310 134.4864230   3.8305470  87.9207690 134.0459390
   3.6031120  88.7253460 135.3080040  18.7315900  92.7257540 131.3850870
  18.6215180  92.5713580 132.3233140  19.4923490  92.1978480 131.1426280
  17.0781620  88.6651670 137.8433870  17.7153840  89.2785810 138.2093060
  17.2256510  88.7012330 136.8983100  19.6206170  90.5565460 124.6257010
  20.5455480  90.4246640 124.4175300  19.5981960  90.6358280 125.5793460
  19.6944660  91.3276120 127.2513720  18.8996160  91.2621240 127.7806630
  19.8987940  92.2626760 127.2399070  16.6363080 105.3667670 131.2452110
  17.2322150 105.0452240 130.5686530  16.8941230 104.8939490 132.0365380
   2.9361280  88.6265980 137.2289550   2.5876100  89.0829800 137.9947730
   2.6048980  87.7323110 137.3111980   4.5425650 101.7985580 141.3942740
   4.4995280 101.4278490 142.2757200   4.6736660 102.7363150 141.5344560
   8.2431680 103.3545170 136.9952460   8.0023040 103.6219730 136.1082980
   9.1834320 103.5250900 137.0503320  10.4486100  89.8177860 140.7508970
  10.3874990  90.4099690 141.5004380  11.3886480  89.7103820 140.6059230
  13.0860660  89.4747920 140.3901260  13.7001070  89.7927210 139.7282340
  13.6310220  88.9896510 141.0097120  19.5035840 105.3739550 137.7963100
  19.0094120 105.7708420 137.0790230  18.8949130 104.7488760 138.1900380
   3.6081920  88.1542180 140.5040320   4.1564910  87.9730230 139.7406430
   3.6737230  87.3636290 141.0396630   4.3813680 104.7447830 138.5140520
   3.7874000 104.6132530 139.2530560   4.3737520 103.9085970 138.0482620
  13.8268700  88.0380060 136.7170550  12.9528540  88.3715170 136.5143480
  13.7179450  87.5653240 137.5422420  14.7340680  90.2450930 138.1012270
  14.4054040  89.4302690 137.7214000  15.6822980  90.2020740 137.9777960
  17.1875290 106.0162970 135.0749840  16.7278260 106.7678780 134.7007860
  16.5587750 105.2969440 135.0164640   4.0125910 102.1106210 137.4648560
   3.2859970 101.4911500 137.3974510   4.0735060 102.5046820 136.5946640
   7.6171010 104.3251210 134.2497970   8.1336030 103.7138570 133.7246230
   8.2668390 104.8279990 134.7408980  10.3566510 105.2159700 135.0766950
  10.6444320 104.9614000 134.1999960  10.8689730 104.6637060 135.6672520
  11.5743520  88.9549900 135.6563460  10.7915310  89.4295400 135.9360220
  11.2806450  88.0504730 135.5476640  16.1264590  89.6573000 133.7012550
  16.5672680  89.6018100 132.8534150  15.8572180  90.5731010 133.7722730
  17.9903160  89.2888240 131.7121370  17.9291560  88.3449460 131.5652390
  18.7695190  89.3968330 132.2574830   2.9183930  89.2597380 128.1777180
   3.6763290  89.3726260 127.6041210   2.4561100  90.0966580 128.1320610
   9.4597740  91.3736650 131.1679490   8.6472250  90.9993540 130.8275370
   9.9639380  90.6181730 131.4700680  13.9622720  88.0379100 132.4062560
  14.5652090  88.6099310 132.8811080  13.2215710  88.6018540 132.1836460
  17.1057320  88.4400660 127.6802840  17.3007950  89.3384110 127.9470270
  16.3187190  88.2087740 128.1735790   3.9018610 104.1213830 128.1195460
   3.3766230 104.5021860 127.4157420   3.8263190 104.7464600 128.8405170
   5.2909080  89.7861430 126.7179150   5.8201840  88.9991230 126.5887100
   5.9237400  90.4652620 126.9514680   7.4846920  89.5236570 129.7724540
   6.8549660  88.8223880 129.9394670   6.9452060  90.2840700 129.5557700
  10.4238870 106.1375800 142.4435150  11.3506180 105.9020070 142.4871110
  10.4089300 106.9647800 141.9621180  18.6583930 105.6801370 129.4409400
  18.8336120 104.9939110 128.7970320  17.9605500 106.2048420 129.0486070
   7.6102480  88.8020550 142.2077030   7.3286750  89.3054150 141.4437850
   7.9922180  88.0042300 141.8419160   6.5011580 106.0696210 126.9944710
   7.2330400 105.7855490 126.4468600   6.7605250 105.8309490 127.8844090
   5.6626370 102.1860940 126.9991040   5.0335250 102.6546040 127.5476870
   5.7774200 101.3410160 127.4337230  14.2117940  88.2174130 142.7857500
  14.0983390  88.5368740 143.6809020  15.0287680  88.6186640 142.4894780
  16.9916430 105.3645660 142.2676190  17.7841750 104.8694890 142.0602150
  17.2849580 106.0435800 142.8751800  13.1176090  96.2366600 113.1492240
  13.0370140  95.3221210 112.8783950  12.7040510  96.7333670 112.4431950
  11.2494130  98.0145620 115.0301510  10.4736230  97.5346060 115.3200080
  11.9007060  97.3351270 114.8557670   5.2659960  98.3265430 115.9077270
   4.4344840  98.0714140 116.3073780   5.8740940  98.3976200 116.6435190
  15.2701560 102.4205810 113.8100640  14.8083090 101.6493050 114.1387810
  16.0827110 102.4471880 114.3153090   5.2461220 102.3605520 116.1035290
   5.5489260 101.4703260 115.9245510   5.9904810 102.9175740 115.8757540
   3.6751910  93.2867320 109.6919660   2.7868610  93.6283290 109.5899540
   3.9593100  93.0867640 108.8000490  11.4964870 104.7063820 113.4304630
  10.8776310 105.1621320 112.8599070  12.3516650 104.8615280 113.0294330
  10.6903120 100.6902810 115.0371670  10.6211400  99.7492750 114.8760800
  11.4522980 100.7804220 115.6094240   2.8809790  91.2957330 117.3628290
   2.7012630  90.3983080 117.6431050   2.4789870  91.8429200 118.0375240
  11.7208290  93.4973190 115.2640600  12.0973110  92.6245070 115.1514270
  11.6227800  93.8331890 114.3731040   5.8513300  91.8698820 110.7258040
   5.9580050  92.7702550 111.0326800   4.9405660  91.8216790 110.4352690
  15.5032410  90.9923630 112.1968940  16.3242030  90.5020200 112.2394420
  15.5366490  91.5821290 112.9500780   3.4996460  93.7917830 115.9710630
   4.1806570  94.0556200 116.5898030   3.1844510  92.9518700 116.3048640
   7.6921030  94.8385190 115.0583220   8.1999250  95.3366160 115.6988240
   8.2234270  94.0620390 114.8822580  19.7931960  93.0090380 118.7612570
  19.0884130  93.3972090 118.2427680  20.0589880  93.7040670 119.3633500
   5.9757130  89.4783750 119.3246640   5.9775570  89.9956140 118.5192540
   5.1461440  89.0013930 119.3016570  12.3628220  99.5903060 110.8236540
  11.7445490 100.0552510 110.2599260  12.8751470 100.2830540 111.2406050
   7.2259980  99.1178930 117.5020140   6.8929360  99.7447850 118.1441210
   7.4026660  99.6440810 116.7221810  15.7393890  92.9324010 114.9696480
  15.0349460  93.2208900 115.5499590  16.1006050  93.7424120 114.6096040
   5.6572460  91.1893710 117.3317090   5.9989270  92.0335760 117.0370960
   4.7188270  91.3377450 117.4482430   6.4379080 101.0859730 119.3169320
   7.0553080 101.7610810 119.0353770   5.5772200 101.4947710 119.2256820
  17.3556670 102.5499140 117.2323960  16.6720190 103.2198250 117.2240630
  17.8950960 102.7479790 116.4668820  18.8080810  92.3778800 115.3605690
  17.8605720  92.4117780 115.4921120  19.1330800  93.1917750 115.7455050
   9.3400350  88.6775980 113.6561680   9.6475330  88.1222870 112.9397180
   8.4101050  88.8120440 113.4734670  14.8915410 104.3943270 115.9469140
  14.9042570 103.9905560 115.0791400  14.3390630 105.1690560 115.8430570
  16.1860830 101.1159490 111.0359310  16.0757160 100.1733820 111.1608730
  16.1829080 101.4775130 111.9222070  14.2900850  99.2973110 117.2751750
  14.7069640  99.0833220 116.4405210  15.0140670  99.5545900 117.8460370
  11.7281110  96.7424810 110.3921800  10.8010390  96.6762190 110.6210270
  11.8805930  97.6804940 110.2777040  11.7150190  93.0141810 107.3888960
  10.7753860  93.1755770 107.4741420  12.0333450  93.7327490 106.8424950
  18.2362950  97.6960330 117.3667990  17.4081580  97.7653420 116.8918120
  18.8313430  98.2814640 116.8983820  15.7578400  98.3045110 110.8957050
  15.1390820  97.9664660 110.2483350  15.7402850  97.6604870 111.6036240
  15.2004960  94.4829650 118.3122860  14.7876140  95.3083360 118.5662850
  14.4680910  93.8974690 118.1199220   7.3337750  97.2689550 113.1741530
   6.9294750  96.5566800 112.6787430   7.4200870  96.9242790 114.0629570
   7.8019450 100.9557110 115.3380740   7.5047740 100.3502580 114.6588520
   8.7519270 100.9934420 115.2270100   6.0466370  94.0432760 116.9540570
   6.5980960  94.1528100 116.1793820   6.5609880  94.4170360 117.6695800
  15.8905060 104.5288980 119.0003840  15.4135620 105.3361170 118.8076450
  15.2066850 103.8767310 119.1530050   6.8937880 100.6938800 121.9888540
   5.9966410 100.9178770 122.2361940   6.9190750 100.8173740 121.0399940
  13.9343100  97.5431920 107.9029800  14.3736380  96.7054350 107.7567620
  14.6471520  98.1761320 107.9893940   5.7209100  97.5652120 120.5645910
   5.5816870  98.4374920 120.9333310   4.8390460  97.2224930 120.4193850
  12.0438480 102.4827990 111.8711040  12.4834390 103.2252320 111.4566430
  11.9825370 102.7254560 112.7950000   7.5189450 103.5073820 122.7731060
   7.4904880 103.9116770 121.9059490   7.3554420 102.5784180 122.6102660
  17.5160240  88.7974730 106.2170840  17.2032900  88.8901560 107.1169910
  18.2772710  89.3755760 106.1668270   4.0342380  96.1634530 110.6748180
   3.9139980  96.8896620 110.0629450   3.7243270  95.3937440 110.1976090
  19.4704270 104.2900920 124.0695230  19.9463990 104.7683810 124.7484310
  20.0911430 104.2218410 123.3440730   2.9175380 101.0349860 112.8923000
   2.5103460 101.1764450 112.0376600   3.8088390 100.7510020 112.6894210
  18.8737520 101.4813770 121.2295240  19.0000580 101.2425650 120.3112420
  18.9158900 100.6498310 121.7017320  12.7354260 105.1841770 119.7990050
  13.2498930 105.0949780 120.6012480  11.8923340 105.5301470 120.0917960
  14.7108660 105.4697110 109.2274050  14.5509800 105.1800050 110.1255880
  14.5455370 104.6937240 108.6919280   7.1897040 105.2495640 111.0045670
   7.0139520 104.3331180 110.7913470   6.3352780 105.6082930 111.2443470
  14.4134790 102.9784670 107.7872050  13.7199950 102.9761960 107.1274330
  15.1557650 102.5543990 107.3566220  13.9784720 104.6047380 111.8620540
  14.4341670 103.8236760 112.1759160  14.3177240 105.3154200 112.4061720
  18.7261530  93.5346230 122.1944980  18.1105800  94.0425900 121.6660440
  18.4057950  92.6344560 122.1370920   6.5006040  89.5069600 114.0571850
   6.0574190  90.2879140 113.7256370   7.0591030  89.8299490 114.7642790
  10.7875850  92.3738120 119.6607170  10.3255220  92.5821140 120.4727110
  10.3853960  91.5597470 119.3577840  15.7880360  93.5947070 120.7903830
  14.9373950  93.2952820 121.1112900  15.6282150  93.8389080 119.8787650
  12.8830070  95.0948820 122.8902620  13.2083480  94.2612570 122.5504850
  13.6710400  95.6177340 123.0380950   9.6164860  89.1280300 108.9377680
   8.9919040  89.1240170 109.6630990   9.5294980  88.2611260 108.5413650
   8.5381940  90.0516930 115.9161450   8.8354270  90.9579760 115.8353470
   9.0867500  89.5635710 115.3021020   6.2920260  94.6303170 111.7853100
   6.0661180  94.4140340 112.6899720   5.5112790  95.0631630 111.4399070
  13.5218020  94.6366540 110.3843750  12.9226910  95.3602340 110.2007370
  14.0697630  94.5743320 109.6020200   8.7319470  95.5288750 122.4513370
   8.6363070  94.5883480 122.3013770   9.5751450  95.7503820 122.0561440
  12.1282890  93.2730080 112.4147030  12.5212460  93.5902280 111.6015720
  12.4899740  92.3941960 112.5291550   3.8630010  91.9402420 120.6047150
   3.4693400  92.7877630 120.8119930   3.1748410  91.3028790 120.7955790
  10.4375060  92.0237390 123.6743890   9.7473380  91.8309590 124.3089980
  11.1807360  92.3072030 124.2068190  12.7138030  95.8635830 116.5097810
  11.9819150  96.3722640 116.8587910  12.3162370  95.0465810 116.2086590
   9.1515420  92.5390030 114.9150300   9.1551480  92.0979980 114.0654840
  10.0466540  92.8607360 115.0222120   5.0017800  92.4216520 113.8744510
   4.6617850  92.8991750 114.6311560   4.2395120  91.9681640 113.5145610
   9.2135570  93.5402110 107.9057060   9.3348390  93.4988590 108.8542880
   8.8284080  94.4026260 107.7503790  13.1763940  91.3169510 115.9220750
  13.1936680  91.7678160 116.7662600  12.9279520  90.4175150 116.1354190
   8.2257070  95.8503250 107.3040360   7.6573970  95.4021500 106.6776270
   8.9346070  96.2096030 106.7705510  16.6034690  88.7301690 121.7607130
  16.9280460  87.9991350 122.2865110  16.6391200  88.4115330 120.8588120
   3.3026250  99.7515270 121.1807090   2.9181040  99.1108940 121.7790050
   3.6138440 100.4551390 121.7501820   9.4523390  96.5991810 116.6615710
   9.8193520  96.1250380 117.4077050   9.2628450  97.4733380 117.0024050
   2.3163880  91.3435500 112.7909180   2.0310800  90.9791170 113.6287800
   2.2542740  90.6115960 112.1772320   7.2422760  95.6400450 118.9799920
   6.9379830  96.5192430 119.2050280   8.1969220  95.7000240 119.0157360
   5.7704550  99.8461440 109.5766770   4.9966810  99.3059060 109.4165490
   6.4999180  99.3268050 109.2384530  16.5292530  98.8426800 115.3693160
  17.2491650  99.3382090 114.9789270  16.3274350  98.1644690 114.7247030
  11.9902470  90.2364760 109.5122550  11.1767080  89.7377930 109.4367860
  11.7964420  91.0763010 109.0958900  11.9111330  98.9135860 121.2562160
  11.8448640  97.9931530 121.0019750  11.2816470  99.0111300 121.9706800
  14.7050860  94.6084410 107.8084710  15.5930480  94.9201640 107.6336050
  14.6755950  93.7356660 107.4165290   5.8141950  99.5141820 113.2145580
   6.3320620  98.7110080 113.1602470   5.3625970  99.4520960 114.0562410
  10.7011450 100.7808100 108.4872880  11.0427150 101.5250330 107.9916200
   9.8724160 101.0939220 108.8497710   3.2986490  96.4803190 120.1271280
   2.9401430  97.1457040 120.7144620   3.0041050  95.6486740 120.4983900
   6.4999610  96.9387430 123.0110830   6.1999750  97.0844610 122.1138650
   7.2710850  96.3792720 122.9184220  11.8428060 101.7356430 121.0065960
  11.8572600 100.8037390 120.7884870  11.1353160 101.8216190 121.6455730
  16.9765130  95.9196250 107.2764570  16.8928850  96.3510470 106.4261010
  17.6959320  96.3794600 107.7091390  18.0539270  98.3763770 120.3534540
  17.3287460  98.9692550 120.1563930  18.5814730  98.3687310 119.5547910
  18.0052380 102.7738510 110.0046700  17.3628540 102.1194130 110.2790420
  17.6183040 103.1793600 109.2287370  13.5838860 100.1023940 113.8518390
  13.9362680  99.5052070 113.1919760  12.7001190  99.7768170 114.0226640
   9.6702140 100.8621630 111.2588800  10.3573270 101.4090840 111.6396390
   8.8834560 101.4062360 111.2938410   8.9729350  97.8667660 110.8714160
   9.4292130  98.6772910 111.0974350   8.6217560  97.5490800 111.7032650
  11.2761960 103.3774000 118.1006460  11.9204180 103.5833380 118.7779880
  11.6391400 102.6162400 117.6477310   4.8741130  88.2105310 111.3436680
   4.7455760  88.2023210 112.2921600   4.0503150  88.5488400 110.9927690
  12.5494040 101.3806350 116.8183910  13.1916270 100.6799510 116.9316080
  13.0743390 102.1604790 116.6380800  16.3949760 101.6654970 106.5423050
  16.1687340 100.9485410 107.1347690  16.0045960 101.4167410 105.7044800
  14.3231660 102.1801250 120.0219970  14.6587900 102.7667940 120.6997890
  13.4032000 102.0493960 120.2517760   2.1765790 105.6921830 107.3167510
   2.5363430 106.2911170 106.6624780   2.0358130 106.2381720 108.0902540
  15.9766010  99.5826910 108.2037210  15.6887710 100.0439600 108.9915090
  16.7718180  99.1224680 108.4721430  10.1520240 102.2292580 123.1908030
   9.8317110 101.5101820 123.7353720   9.4778600 102.9047650 123.2644090
   8.1934410 103.0753030 108.1341180   8.1844510 103.8082720 107.5185690
   7.2732770 102.8284610 108.2268140   3.7941050  98.2967920 108.8787940
   3.1869000  99.0366820 108.8883240   4.2690400  98.3867280 108.0526140
  13.3673840  92.4618740 118.5544830  13.7354660  91.6413950 118.8824400
  12.5072040  92.5220630 118.9700480  16.7335870  91.4175680 109.3632390
  16.1049030  91.5221350 108.6490620  16.2387790  91.6372460 110.1526270
  11.1794010 103.1381270 106.7966370  11.2805990 102.9345260 105.8668350
  10.2795750 102.8839550 107.0014150   8.7019900  93.6961630 110.7790270
   7.9936050  94.1647970 111.2203880   8.9864380  93.0383640 111.4135460
  10.3275830  95.1158330 118.7782800  10.8261080  95.5904150 119.4434650
  10.4698780  94.1921850 118.9852830  12.7335330  90.4212290 112.2186060
  12.6103110  90.4398420 111.2695570  13.6819890  90.4691230 112.3384460
   9.8212120 105.6567590 111.4914040  10.0753620 105.6188980 110.5693410
   8.8724600 105.5300920 111.4842290   6.9054920  92.0046710 108.1540980
   7.7545450  92.4416860 108.0881170   6.5386190  92.3166970 108.9813040
  17.5342690  91.3326290 119.6211190  17.0316290  92.0731690 119.9605000
  18.3499350  91.7210290 119.3047980  15.8264700  96.5759470 113.0672550
  14.8854840  96.5909700 113.2420240  16.1408770  95.7895430 113.5132850
   5.8046340  98.2579070 106.6276510   6.5709610  98.1460430 107.1901940
   5.8821030  97.5617040 105.9753280   4.4993100  95.6904140 107.3109400
   4.5796690  94.7431650 107.4226800   5.3912850  96.0211020 107.4170060
  17.8290280 103.7468320 114.7426810  17.9537700 104.5699490 115.2150620
  18.6955840 103.5359050 114.3950960   5.3007810 105.8399530 114.4143940
   6.0370290 105.2914990 114.6852510   5.6848730 106.7055540 114.2749930
   4.3066090 105.0245600 123.6029520   5.1078820 105.3457650 124.0164920
   3.7917910 104.6641180 124.3249430   8.4110120 105.0129840 106.2369510
   9.2038730 105.3018670 105.7851300   7.8914470 104.5822010 105.5581990
  13.1430720 101.1325470 123.5504930  12.5368880 101.1557070 122.8100680
  12.8384830 100.4008510 124.0872180  14.5731090 104.8605760 122.1614340
  15.5252840 104.7763780 122.1114580  14.4259310 105.5247470 122.8348130
  17.4640290 104.2399970 107.6606250  17.1781800 103.8265110 106.8460430
  17.2659840 105.1687680 107.5406770   8.9287520 100.2333250 106.1011860
   8.8238160  99.6185600 106.8273240   8.7611740  99.7099140 105.3174870
   9.0801840  98.9190050 122.0801090   8.3147510  99.4875050 121.9955760
   9.2617800  98.6266260 121.1869320  12.1690250  99.2953280 106.7053850
  11.6200350  99.7422580 107.3496590  12.7909510  98.7902530 107.2291520
  16.2225190 100.6495380 122.6376110  16.9634660 100.9871140 122.1343570
  15.4597870 100.8187440 122.0845880   4.0586980  95.6548650 123.4415640
   4.0992320  95.3562520 124.3500870   4.9132480  96.0556260 123.2823160
   7.8365370  98.2544200 108.6019150   8.2581790  98.0884070 109.4450540
   7.9616210  97.4444430 108.1074290   5.9992790  94.2340750 121.4090130
   5.4689250  93.7431700 120.7813470   6.6680860  94.6624950 120.8748060
  10.3493010  97.2781810 105.8496250  10.8698670  96.5630830 105.4837400
  10.9961410  97.9167680 106.1496760  14.8970850  98.7010210 121.1731320
  15.3111870  98.8555290 122.0221740  13.9621850  98.8265430 121.3357100
  15.3693020  96.0406370 123.1770470  15.9513790  95.2858690 123.0890950
  15.5454790  96.5713810 122.4001950   6.4865090  91.2003120 121.4887420
   6.3921960  90.5823870 120.7638290   5.9062480  91.9269410 121.2617330
   9.2526530  89.7576360 118.5214810   8.8043830  89.7800620 117.6760360
   8.6191730  89.3595380 119.1185110   9.6586080  98.6530690 119.1427250
  10.0774190  99.4963420 118.9703490   8.7394710  98.7902730 118.9134030
  11.9949980  96.3846870 120.5265090  12.1146190  95.7888010 121.2659930
  12.8543980  96.4216560 120.1066390  14.3337880  96.9384060 119.1027600
  13.8073100  97.4626680 118.4992740  14.6769220  97.5711450 119.7337330
   6.7324270  94.3277430 105.5477310   6.5313330  93.4644790 105.9090650
   6.5616320  94.2410790 104.6098910   7.5093500 104.9583700 120.2584980
   6.9714590 105.6829760 119.9393680   7.7627460 104.4814040 119.4682320
   8.7618750  92.9268220 121.7840910   9.3518440  92.6184070 122.4718730
   7.9438990  92.4547970 121.9400810  13.5812180  92.5434030 122.0173930
  12.8927700  91.8815570 121.9523920  14.3018200  92.0972300 122.4622390
  14.2112580  89.1385660 108.0764190  14.4914870  88.2953560 108.4323610
  13.4378310  89.3708770 108.5902940   5.5307070  91.4278050 105.5355190
   5.8332970  91.4345480 104.6274340   6.2701660  91.0775910 106.0322850
  10.3655710 106.1934910 120.5171630  10.2914410 107.0970050 120.8244000
   9.4634550 105.8746810 120.4893700   8.7492000  90.3712670 106.5211390
   8.4014000  89.6936660 105.9413840   8.9504770  89.9102180 107.3354780
  10.9141040 105.3593420 108.1397990  11.8091830 105.6978390 108.1616750
  10.9458670 104.6372830 107.5122270   4.5537200 100.7320470 106.3684990
   4.9912070 101.2750140 107.0242570   5.0384930  99.9067420 106.3781330
   1.7683000 103.5209500 113.8205250   2.0986010 102.6530560 113.5883890
   2.1974000 103.7268020 114.6510210   6.3644920 101.8518510 111.4807220
   6.0640460 101.7283480 112.3811130   6.2582410 100.9927100 111.0722950
   2.2573210 104.3880090 116.5586880   1.8204200 104.5680890 117.3911030
   2.8250890 105.1454710 116.4168600  17.8935390 103.8897090 120.8464190
  17.2937380 103.9489650 120.1028110  18.0229290 102.9502070 120.9761040
  19.1336840 101.6314910 106.1833900  18.3029800 101.6991560 106.6541130
  19.3108670 102.5219030 105.8800760  18.5893300  98.3762390 108.6868100
  19.3512210  98.9459040 108.7927790  18.6047670  97.8089590 109.4576410
  19.5953270  99.2312490 113.5310030  19.9662100  98.4479810 113.1246000
  20.2355200  99.9201590 113.3527330  16.5787030 100.6149070 118.9440350
  15.7646870 101.0446230 119.2066140  16.9861230 101.2267480 118.3309400
  18.6412470  98.6696760 105.8440620  18.9161310  99.5775640 105.7159840
  18.4523210  98.6059290 106.7802610  15.0388080  91.6941610 107.1394250
  15.4572960  91.5072590 106.2990910  14.7324140  90.8420660 107.4497180
  18.5377810  96.6065750 110.8370050  18.1621410  95.8393680 110.4051340
  17.8080930  96.9888450 111.3244980   3.1273570  97.2852890 117.4579100
   3.4946610  97.1980290 118.3375120   2.5584390  96.5219440 117.3585960
  17.9277430  95.7537270 120.4709570  17.6963520  95.5250020 119.5707520
  18.1881980  96.6736820 120.4254460   2.6789570  94.1961980 121.3637520
   1.7845620  94.1628740 121.7031230   3.2187120  94.3948770 122.1288770
  16.3665500  90.9793700 123.2489270  17.2435680  90.9877100 123.6323270
  16.3786340  90.2424540 122.6381620  17.8128770  94.8323240 114.1377290
  18.3366250  94.3385890 113.5067460  18.3988190  94.9673600 114.8824860
  17.9918490  94.9163110 117.6596840  17.0421200  94.8826650 117.7741830
  18.1731500  95.8263220 117.4246610   3.8462930  93.1664790 106.7695470
   4.5554630  92.7448010 106.2842750   3.1302870  93.2340020 106.1378820
   3.4937090  89.2204120 105.8098120   4.2165220  89.7613060 106.1279340
   3.7661610  88.9467540 104.9339660  17.3028740  94.0896590 110.0769700
  17.7987860  93.8567460 110.8618580  17.1044810  93.2508430 109.6607340
   3.1829280  88.4710310 115.7120740   3.8305470  87.9207690 115.2715900
   3.6031120  88.7253460 116.5336550  18.7315900  92.7257540 112.6107380
  18.6215180  92.5713580 113.5489650  19.4923490  92.1978480 112.3682790
  17.0781620  88.6651670 119.0690380  17.7153840  89.2785810 119.4349570
  17.2256510  88.7012330 118.1239610  19.6206170  90.5565460 105.8513520
  20.5455480  90.4246640 105.6431810  19.5981960  90.6358280 106.8049970
  19.6944660  91.3276120 108.4770230  18.8996160  91.2621240 109.0063140
  19.8987940  92.2626760 108.4655580  16.6363080 105.3667670 112.4708620
  17.2322150 105.0452240 111.7943040  16.8941230 104.8939490 113.2621890
   2.9361280  88.6265980 118.4546060   2.5876100  89.0829800 119.2204240
   2.6048980  87.7323110 118.5368490   4.5425650 101.7985580 122.6199250
   4.4995280 101.4278490 123.5013710   4.6736660 102.7363150 122.7601070
   8.2431680 103.3545170 118.2208970   8.0023040 103.6219730 117.3339490
   9.1834320 103.5250900 118.2759830  10.4486100  89.8177860 121.9765480
  10.3874990  90.4099690 122.7260890  11.3886480  89.7103820 121.8315740
  13.0860660  89.4747920 121.6157770  13.7001070  89.7927210 120.9538850
  13.6310220  88.9896510 122.2353630  19.5035840 105.3739550 119.0219610
  19.0094120 105.7708420 118.3046740  18.8949130 104.7488760 119.4156890
   3.6081920  88.1542180 121.7296830   4.1564910  87.9730230 120.9662940
   3.6737230  87.3636290 122.2653140   4.3813680 104.7447830 119.7397030
   3.7874000 104.6132530 120.4787070   4.3737520 103.9085970 119.2739130
  13.8268700  88.0380060 117.9427060  12.9528540  88.3715170 117.7399990
  13.7179450  87.5653240 118.7678930  14.7340680  90.2450930 119.3268780
  14.4054040  89.4302690 118.9470510  15.6822980  90.2020740 119.2034470
  17.1875290 106.0162970 116.3006350  16.7278260 106.7678780 115.9264370
  16.5587750 105.2969440 116.2421150   4.0125910 102.1106210 118.6905070
   3.2859970 101.4911500 118.6231020   4.0735060 102.5046820 117.8203150
   7.6171010 104.3251210 115.4754480   8.1336030 103.7138570 114.9502740
   8.2668390 104.8279990 115.9665490  10.3566510 105.2159700 116.3023460
  10.6444320 104.9614000 115.4256470  10.8689730 104.6637060 116.8929030
  11.5743520  88.9549900 116.8819970  10.7915310  89.4295400 117.1616730
  11.2806450  88.0504730 116.7733150  16.1264590  89.6573000 114.9269060
  16.5672680  89.6018100 114.0790660  15.8572180  90.5731010 114.9979240
  17.9903160  89.2888240 112.9377880  17.9291560  88.3449460 112.7908900
  18.7695190  89.3968330 113.4831340   2.9183930  89.2597380 109.4033690
   3.6763290  89.3726260 108.8297720   2.4561100  90.0966580 109.3577120
   9.4597740  91.3736650 112.3936000   8.6472250  90.9993540 112.0531880
   9.9639380  90.6181730 112.6957190  13.9622720  88.0379100 113.6319070
  14.5652090  88.6099310 114.1067590  13.2215710  88.6018540 113.4092970
  17.1057320  88.4400660 108.9059350  17.3007950  89.3384110 109.1726780
  16.3187190  88.2087740 109.3992300   3.9018610 104.1213830 109.3451970
   3.3766230 104.5021860 108.6413930   3.8263190 104.7464600 110.0661680
   5.2909080  89.7861430 107.9435660   5.8201840  88.9991230 107.8143610
   5.9237400  90.4652620 108.1771190   7.4846920  89.5236570 110.9981050
   6.8549660  88.8223880 111.1651180   6.9452060  90.2840700 110.7814210
  10.4238870 106.1375800 123.6691660  11.3506180 105.9020070 123.7127620
  10.4089300 106.9647800 123.1877690  18.6583930 105.6801370 110.6665910
  18.8336120 104.9939110 110.0226830  17.9605500 106.2048420 110.2742580
   7.6102480  88.8020550 123.4333540   7.3286750  89.3054150 122.6694360
   7.9922180  88.0042300 123.0675670   6.5011580 106.0696210 108.2201220
   7.2330400 105.7855490 107.6725110   6.7605250 105.8309490 109.1100600
   5.6626370 102.1860940 108.2247550   5.0335250 102.6546040 108.7733380
   5.7774200 101.3410160 108.6593740  14.2117940  88.2174130 124.0114010
  14.0983390  88.5368740 124.9065530  15.0287680  88.6186640 123.7151290
  16.9916430 105.3645660 123.4932700  17.7841750 104.8694890 123.2858660
  17.2849580 106.0435800 124.1008310  13.1176090  96.2366600  94.3748750
  13.0370140  95.3221210  94.1040460  12.7040510  96.7333670  93.6688460
  11.2494130  98.0145620  96.2558020  10.4736230  97.5346060  96.5456590
  11.9007060  97.3351270  96.0814180   5.2659960  98.3265430  97.1333780
   4.4344840  98.0714140  97.5330290   5.8740940  98.3976200  97.8691700
  15.2701560 102.4205810  95.0357150  14.8083090 101.6493050  95.3644320
  16.0827110 102.4471880  95.5409600   5.2461220 102.3605520  97.3291800
   5.5489260 101.4703260  97.1502020   5.9904810 102.9175740  97.1014050
   3.6751910  93.2867320  90.9176170   2.7868610  93.6283290  90.8156050
   3.9593100  93.0867640  90.0257000  11.4964870 104.7063820  94.6561140
  10.8776310 105.1621320  94.0855580  12.3516650 104.8615280  94.2550840
  10.6903120 100.6902810  96.2628180  10.6211400  99.7492750  96.1017310
  11.4522980 100.7804220  96.8350750   2.8809790  91.2957330  98.5884800
   2.7012630  90.3983080  98.8687560   2.4789870  91.8429200  99.2631750
  11.7208290  93.4973190  96.4897110  12.0973110  92.6245070  96.3770780
  11.6227800  93.8331890  95.5987550   5.8513300  91.8698820  91.9514550
   5.9580050  92.7702550  92.2583310   4.9405660  91.8216790  91.6609200
  15.5032410  90.9923630  93.4225450  16.3242030  90.5020200  93.4650930
  15.5366490  91.5821290  94.1757290   3.4996460  93.7917830  97.1967140
   4.1806570  94.0556200  97.8154540   3.1844510  92.9518700  97.5305150
   7.6921030  94.8385190  96.2839730   8.1999250  95.3366160  96.9244750
   8.2234270  94.0620390  96.1079090  19.7931960  93.0090380  99.9869080
  19.0884130  93.3972090  99.4684190  20.0589880  93.7040670 100.5890010
   5.9757130  89.4783750 100.5503150   5.9775570  89.9956140  99.7449050
   5.1461440  89.0013930 100.5273080  12.3628220  99.5903060  92.0493050
  11.7445490 100.0552510  91.4855770  12.8751470 100.2830540  92.4662560
   7.2259980  99.1178930  98.7276650   6.8929360  99.7447850  99.3697720
   7.4026660  99.6440810  97.9478320  15.7393890  92.9324010  96.1952990
  15.0349460  93.2208900  96.7756100  16.1006050  93.7424120  95.8352550
   5.6572460  91.1893710  98.5573600   5.9989270  92.0335760  98.2627470
   4.7188270  91.3377450  98.6738940   6.4379080 101.0859730 100.5425830
   7.0553080 101.7610810 100.2610280   5.5772200 101.4947710 100.4513330
  17.3556670 102.5499140  98.4580470  16.6720190 103.2198250  98.4497140
  17.8950960 102.7479790  97.6925330  18.8080810  92.3778800  96.5862200
  17.8605720  92.4117780  96.7177630  19.1330800  93.1917750  96.9711560
   9.3400350  88.6775980  94.8818190   9.6475330  88.1222870  94.1653690
   8.4101050  88.8120440  94.6991180  14.8915410 104.3943270  97.1725650
  14.9042570 103.9905560  96.3047910  14.3390630 105.1690560  97.0687080
  16.1860830 101.1159490  92.2615820  16.0757160 100.1733820  92.3865240
  16.1829080 101.4775130  93.1478580  14.2900850  99.2973110  98.5008260
  14.7069640  99.0833220  97.6661720  15.0140670  99.5545900  99.0716880
  11.7281110  96.7424810  91.6178310  10.8010390  96.6762190  91.8466780
  11.8805930  97.6804940  91.5033550  11.7150190  93.0141810  88.6145470
  10.7753860  93.1755770  88.6997930  12.0333450  93.7327490  88.0681460
  18.2362950  97.6960330  98.5924500  17.4081580  97.7653420  98.1174630
  18.8313430  98.2814640  98.1240330  15.7578400  98.3045110  92.1213560
  15.1390820  97.9664660  91.4739860  15.7402850  97.6604870  92.8292750
  15.2004960  94.4829650  99.5379370  14.7876140  95.3083360  99.7919360
  14.4680910  93.8974690  99.3455730   7.3337750  97.2689550  94.3998040
   6.9294750  96.5566800  93.9043940   7.4200870  96.9242790  95.2886080
   7.8019450 100.9557110  96.5637250   7.5047740 100.3502580  95.8845030
   8.7519270 100.9934420  96.4526610   6.0466370  94.0432760  98.1797080
   6.5980960  94.1528100  97.4050330   6.5609880  94.4170360  98.8952310
  15.8905060 104.5288980 100.2260350  15.4135620 105.3361170 100.0332960
  15.2066850 103.8767310 100.3786560   6.8937880 100.6938800 103.2145050
   5.9966410 100.9178770 103.4618450   6.9190750 100.8173740 102.2656450
  13.9343100  97.5431920  89.1286310  14.3736380  96.7054350  88.9824130
  14.6471520  98.1761320  89.2150450   5.7209100  97.5652120 101.7902420
   5.5816870  98.4374920 102.1589820   4.8390460  97.2224930 101.6450360
  12.0438480 102.4827990  93.0967550  12.4834390 103.2252320  92.6822940
  11.9825370 102.7254560  94.0206510   7.5189450 103.5073820 103.9987570
   7.4904880 103.9116770 103.1316000   7.3554420 102.5784180 103.8359170
  17.5160240  88.7974730  87.4427350  17.2032900  88.8901560  88.3426420
  18.2772710  89.3755760  87.3924780   4.0342380  96.1634530  91.9004690
   3.9139980  96.8896620  91.2885960   3.7243270  95.3937440  91.4232600
  19.4704270 104.2900920 105.2951740  19.9463990 104.7683810 105.9740820
  20.0911430 104.2218410 104.5697240   2.9175380 101.0349860  94.1179510
   2.5103460 101.1764450  93.2633110   3.8088390 100.7510020  93.9150720
  18.8737520 101.4813770 102.4551750  19.0000580 101.2425650 101.5368930
  18.9158900 100.6498310 102.9273830  12.7354260 105.1841770 101.0246560
  13.2498930 105.0949780 101.8268990  11.8923340 105.5301470 101.3174470
  14.7108660 105.4697110  90.4530560  14.5509800 105.1800050  91.3512390
  14.5455370 104.6937240  89.9175790   7.1897040 105.2495640  92.2302180
   7.0139520 104.3331180  92.0169980   6.3352780 105.6082930  92.4699980
  14.4134790 102.9784670  89.0128560  13.7199950 102.9761960  88.3530840
  15.1557650 102.5543990  88.5822730  13.9784720 104.6047380  93.0877050
  14.4341670 103.8236760  93.4015670  14.3177240 105.3154200  93.6318230
  18.7261530  93.5346230 103.4201490  18.1105800  94.0425900 102.8916950
  18.4057950  92.6344560 103.3627430   6.5006040  89.5069600  95.2828360
   6.0574190  90.2879140  94.9512880   7.0591030  89.8299490  95.9899300
  10.7875850  92.3738120 100.8863680  10.3255220  92.5821140 101.6983620
  10.3853960  91.5597470 100.5834350  15.7880360  93.5947070 102.0160340
  14.9373950  93.2952820 102.3369410  15.6282150  93.8389080 101.1044160
  12.8830070  95.0948820 104.1159130  13.2083480  94.2612570 103.7761360
  13.6710400  95.6177340 104.2637460   9.6164860  89.1280300  90.1634190
   8.9919040  89.1240170  90.8887500   9.5294980  88.2611260  89.7670160
   8.5381940  90.0516930  97.1417960   8.8354270  90.9579760  97.0609980
   9.0867500  89.5635710  96.5277530   6.2920260  94.6303170  93.0109610
   6.0661180  94.4140340  93.9156230   5.5112790  95.0631630  92.6655580
  13.5218020  94.6366540  91.6100260  12.9226910  95.3602340  91.4263880
  14.0697630  94.5743320  90.8276710   8.7319470  95.5288750 103.6769880
   8.6363070  94.5883480 103.5270280   9.5751450  95.7503820 103.2817950
  12.1282890  93.2730080  93.6403540  12.5212460  93.5902280  92.8272230
  12.4899740  92.3941960  93.7548060   3.8630010  91.9402420 101.8303660
   3.4693400  92.7877630 102.0376440   3.1748410  91.3028790 102.0212300
  10.4375060  92.0237390 104.9000400   9.7473380  91.8309590 105.5346490
  11.1807360  92.3072030 105.4324700  12.7138030  95.8635830  97.7354320
  11.9819150  96.3722640  98.0844420  12.3162370  95.0465810  97.4343100
   9.1515420  92.5390030  96.1406810   9.1551480  92.0979980  95.2911350
  10.0466540  92.8607360  96.2478630   5.0017800  92.4216520  95.1001020
   4.6617850  92.8991750  95.8568070   4.2395120  91.9681640  94.7402120
   9.2135570  93.5402110  89.1313570   9.3348390  93.4988590  90.0799390
   8.8284080  94.4026260  88.9760300  13.1763940  91.3169510  97.1477260
  13.1936680  91.7678160  97.9919110  12.9279520  90.4175150  97.3610700
   8.2257070  95.8503250  88.5296870   7.6573970  95.4021500  87.9032780
   8.9346070  96.2096030  87.9962020  16.6034690  88.7301690 102.9863640
  16.9280460  87.9991350 103.5121620  16.6391200  88.4115330 102.0844630
   3.3026250  99.7515270 102.4063600   2.9181040  99.1108940 103.0046560
   3.6138440 100.4551390 102.9758330   9.4523390  96.5991810  97.8872220
   9.8193520  96.1250380  98.6333560   9.2628450  97.4733380  98.2280560
   2.3163880  91.3435500  94.0165690   2.0310800  90.9791170  94.8544310
   2.2542740  90.6115960  93.4028830   7.2422760  95.6400450 100.2056430
   6.9379830  96.5192430 100.4306790   8.1969220  95.7000240 100.2413870
   5.7704550  99.8461440  90.8023280   4.9966810  99.3059060  90.6422000
   6.4999180  99.3268050  90.4641040  16.5292530  98.8426800  96.5949670
  17.2491650  99.3382090  96.2045780  16.3274350  98.1644690  95.9503540
  11.9902470  90.2364760  90.7379060  11.1767080  89.7377930  90.6624370
  11.7964420  91.0763010  90.3215410  11.9111330  98.9135860 102.4818670
  11.8448640  97.9931530 102.2276260  11.2816470  99.0111300 103.1963310
  14.7050860  94.6084410  89.0341220  15.5930480  94.9201640  88.8592560
  14.6755950  93.7356660  88.6421800   5.8141950  99.5141820  94.4402090
   6.3320620  98.7110080  94.3858980   5.3625970  99.4520960  95.2818920
  10.7011450 100.7808100  89.7129390  11.0427150 101.5250330  89.2172710
   9.8724160 101.0939220  90.0754220   3.2986490  96.4803190 101.3527790
   2.9401430  97.1457040 101.9401130   3.0041050  95.6486740 101.7240410
   6.4999610  96.9387430 104.2367340   6.1999750  97.0844610 103.3395160
   7.2710850  96.3792720 104.1440730  11.8428060 101.7356430 102.2322470
  11.8572600 100.8037390 102.0141380  11.1353160 101.8216190 102.8712240
  16.9765130  95.9196250  88.5021080  16.8928850  96.3510470  87.6517520
  17.6959320  96.3794600  88.9347900  18.0539270  98.3763770 101.5791050
  17.3287460  98.9692550 101.3820440  18.5814730  98.3687310 100.7804420
  13.5838860 100.1023940  95.0774900  13.9362680  99.5052070  94.4176270
  12.7001190  99.7768170  95.2483150   9.6702140 100.8621630  92.4845310
  10.3573270 101.4090840  92.8652900   8.8834560 101.4062360  92.5194920
   8.9729350  97.8667660  92.0970670   9.4292130  98.6772910  92.3230860
   8.6217560  97.5490800  92.9289160  11.2761960 103.3774000  99.3262970
  11.9204180 103.5833380 100.0036390  11.6391400 102.6162400  98.8733820
   4.8741130  88.2105310  92.5693190   4.7455760  88.2023210  93.5178110
   4.0503150  88.5488400  92.2184200  12.5494040 101.3806350  98.0440420
  13.1916270 100.6799510  98.1572590  13.0743390 102.1604790  97.8637310
  14.3231660 102.1801250 101.2476480  14.6587900 102.7667940 101.9254400
  13.4032000 102.0493960 101.4774270   2.1765790 105.6921830  88.5424020
   2.5363430 106.2911170  87.8881290   2.0358130 106.2381720  89.3159050
  10.1520240 102.2292580 104.4164540   9.8317110 101.5101820 104.9610230
   9.4778600 102.9047650 104.4900600   8.1934410 103.0753030  89.3597690
   8.1844510 103.8082720  88.7442200   7.2732770 102.8284610  89.4524650
   3.7941050  98.2967920  90.1044450   3.1869000  99.0366820  90.1139750
   4.2690400  98.3867280  89.2782650  13.3673840  92.4618740  99.7801340
  13.7354660  91.6413950 100.1080910  12.5072040  92.5220630 100.1956990
  16.7335870  91.4175680  90.5888900  16.1049030  91.5221350  89.8747130
  16.2387790  91.6372460  91.3782780  11.1794010 103.1381270  88.0222880
  11.2805990 102.9345260  87.0924860  10.2795750 102.8839550  88.2270660
   8.7019900  93.6961630  92.0046780   7.9936050  94.1647970  92.4460390
   8.9864380  93.0383640  92.6391970  10.3275830  95.1158330 100.0039310
  10.8261080  95.5904150 100.6691160  10.4698780  94.1921850 100.2109340
  12.7335330  90.4212290  93.4442570  12.6103110  90.4398420  92.4952080
  13.6819890  90.4691230  93.5640970   9.8212120 105.6567590  92.7170550
  10.0753620 105.6188980  91.7949920   8.8724600 105.5300920  92.7098800
   6.9054920  92.0046710  89.3797490   7.7545450  92.4416860  89.3137680
   6.5386190  92.3166970  90.2069550  17.5342690  91.3326290 100.8467700
  17.0316290  92.0731690 101.1861510  18.3499350  91.7210290 100.5304490
  15.8264700  96.5759470  94.2929060  14.8854840  96.5909700  94.4676750
  16.1408770  95.7895430  94.7389360   5.8046340  98.2579070  87.8533020
   6.5709610  98.1460430  88.4158450   5.8821030  97.5617040  87.2009790
   4.4993100  95.6904140  88.5365910   4.5796690  94.7431650  88.6483310
   5.3912850  96.0211020  88.6426570   5.3007810 105.8399530  95.6400450
   6.0370290 105.2914990  95.9109020   5.6848730 106.7055540  95.5006440
   4.3066090 105.0245600 104.8286030   5.1078820 105.3457650 105.2421430
   3.7917910 104.6641180 105.5505940   8.4110120 105.0129840  87.4626020
   9.2038730 105.3018670  87.0107810   7.8914470 104.5822010  86.7838500
  13.1430720 101.1325470 104.7761440  12.5368880 101.1557070 104.0357190
  12.8384830 100.4008510 105.3128690  14.5731090 104.8605760 103.3870850
  15.5252840 104.7763780 103.3371090  14.4259310 105.5247470 104.0604640
  17.4640290 104.2399970  88.8862760  17.1781800 103.8265110  88.0716940
  17.2659840 105.1687680  88.7663280   8.9287520 100.2333250  87.3268370
   8.8238160  99.6185600  88.0529750   8.7611740  99.7099140  86.5431380
   9.0801840  98.9190050 103.3057600   8.3147510  99.4875050 103.2212270
   9.2617800  98.6266260 102.4125830  12.1690250  99.2953280  87.9310360
  11.6200350  99.7422580  88.5753100  12.7909510  98.7902530  88.4548030
  16.2225190 100.6495380 103.8632620  16.9634660 100.9871140 103.3600080
  15.4597870 100.8187440 103.3102390   4.0586980  95.6548650 104.6672150
   4.0992320  95.3562520 105.5757380   4.9132480  96.0556260 104.5079670
   7.8365370  98.2544200  89.8275660   8.2581790  98.0884070  90.6707050
   7.9616210  97.4444430  89.3330800   5.9992790  94.2340750 102.6346640
   5.4689250  93.7431700 102.0069980   6.6680860  94.6624950 102.1004570
  10.3493010  97.2781810  87.0752760  10.8698670  96.5630830  86.7093910
  10.9961410  97.9167680  87.3753270  14.8970850  98.7010210 102.3987830
  15.3111870  98.8555290 103.2478250  13.9621850  98.8265430 102.5613610
  15.3693020  96.0406370 104.4026980  15.9513790  95.2858690 104.3147460
  15.5454790  96.5713810 103.6258460   6.4865090  91.2003120 102.7143930
   6.3921960  90.5823870 101.9894800   5.9062480  91.9269410 102.4873840
   9.2526530  89.7576360  99.7471320   8.8043830  89.7800620  98.9016870
   8.6191730  89.3595380 100.3441620   9.6586080  98.6530690 100.3683760
  10.0774190  99.4963420 100.1960000   8.7394710  98.7902730 100.1390540
  11.9949980  96.3846870 101.7521600  12.1146190  95.7888010 102.4916440
  12.8543980  96.4216560 101.3322900  14.3337880  96.9384060 100.3284110
  13.8073100  97.4626680  99.7249250  14.6769220  97.5711450 100.9593840
   6.7324270  94.3277430  86.7733820   6.5313330  93.4644790  87.1347160
   6.5616320  94.2410790  85.8355420   7.5093500 104.9583700 101.4841490
   6.9714590 105.6829760 101.1650190   7.7627460 104.4814040 100.6938830
   8.7618750  92.9268220 103.0097420   9.3518440  92.6184070 103.6975240
   7.9438990  92.4547970 103.1657320  13.5812180  92.5434030 103.2430440
  12.8927700  91.8815570 103.1780430  14.3018200  92.0972300 103.6878900
  14.2112580  89.1385660  89.3020700  14.4914870  88.2953560  89.6580120
  13.4378310  89.3708770  89.8159450   5.5307070  91.4278050  86.7611700
   5.8332970  91.4345480  85.8530850   6.2701660  91.0775910  87.2579360
  10.3655710 106.1934910 101.7428140  10.2914410 107.0970050 102.0500510
   9.4634550 105.8746810 101.7150210   8.7492000  90.3712670  87.7467900
   8.4014000  89.6936660  87.1670350   8.9504770  89.9102180  88.5611290
  10.9141040 105.3593420  89.3654500  11.8091830 105.6978390  89.3873260
  10.9458670 104.6372830  88.7378780   4.5537200 100.7320470  87.5941500
   4.9912070 101.2750140  88.2499080   5.0384930  99.9067420  87.6037840
   1.7683000 103.5209500  95.0461760   2.0986010 102.6530560  94.8140400
   2.1974000 103.7268020  95.8766720   6.3644920 101.8518510  92.7063730
   6.0640460 101.7283480  93.6067640   6.2582410 100.9927100  92.2979460
   2.2573210 104.3880090  97.7843390   1.8204200 104.5680890  98.6167540
   2.8250890 105.1454710  97.6425110  17.8935390 103.8897090 102.0720700
  17.2937380 103.9489650 101.3284620  18.0229290 102.9502070 102.2017550
  19.1336840 101.6314910  87.4090410  18.3029800 101.6991560  87.8797640
  19.3108670 102.5219030  87.1057270  16.5787030 100.6149070 100.1696860
  15.7646870 101.0446230 100.4322650  16.9861230 101.2267480  99.5565910
  15.0388080  91.6941610  88.3650760  15.4572960  91.5072590  87.5247420
  14.7324140  90.8420660  88.6753690  18.5377810  96.6065750  92.0626560
  18.1621410  95.8393680  91.6307850  17.8080930  96.9888450  92.5501490
   3.1273570  97.2852890  98.6835610   3.4946610  97.1980290  99.5631630
   2.5584390  96.5219440  98.5842470  17.9277430  95.7537270 101.6966080
  17.6963520  95.5250020 100.7964030  18.1881980  96.6736820 101.6510970
   2.6789570  94.1961980 102.5894030   1.7845620  94.1628740 102.9287740
   3.2187120  94.3948770 103.3545280  16.3665500  90.9793700 104.4745780
  17.2435680  90.9877100 104.8579780  16.3786340  90.2424540 103.8638130
  17.8128770  94.8323240  95.3633800  18.3366250  94.3385890  94.7323970
  18.3988190  94.9673600  96.1081370  17.9918490  94.9163110  98.8853350
  17.0421200  94.8826650  98.9998340  18.1731500  95.8263220  98.6503120
   3.8462930  93.1664790  87.9951980   4.5554630  92.7448010  87.5099260
   3.1302870  93.2340020  87.3635330   3.4937090  89.2204120  87.0354630
   4.2165220  89.7613060  87.3535850   3.7661610  88.9467540  86.1596170
  17.3028740  94.0896590  91.3026210  17.7987860  93.8567460  92.0875090
  17.1044810  93.2508430  90.8863850   3.1829280  88.4710310  96.9377250
   3.8305470  87.9207690  96.4972410   3.6031120  88.7253460  97.7593060
  18.7315900  92.7257540  93.8363890  18.6215180  92.5713580  94.7746160
  19.4923490  92.1978480  93.5939300  17.0781620  88.6651670 100.2946890
  17.7153840  89.2785810 100.6606080  17.2256510  88.7012330  99.3496120
  19.6206170  90.5565460  87.0770030  20.5455480  90.4246640  86.8688320
  19.5981960  90.6358280  88.0306480  19.6944660  91.3276120  89.7026740
  18.8996160  91.2621240  90.2319650  19.8987940  92.2626760  89.6912090
   2.9361280  88.6265980  99.6802570   2.5876100  89.0829800 100.4460750
   2.6048980  87.7323110  99.7625000   4.5425650 101.7985580 103.8455760
   4.4995280 101.4278490 104.7270220   4.6736660 102.7363150 103.9857580
   8.2431680 103.3545170  99.4465480   8.0023040 103.6219730  98.5596000
   9.1834320 103.5250900  99.5016340  10.4486100  89.8177860 103.2021990
  10.3874990  90.4099690 103.9517400  11.3886480  89.7103820 103.0572250
  13.0860660  89.4747920 102.8414280  13.7001070  89.7927210 102.1795360
  13.6310220  88.9896510 103.4610140  19.5035840 105.3739550 100.2476120
  19.0094120 105.7708420  99.5303250  18.8949130 104.7488760 100.6413400
   3.6081920  88.1542180 102.9553340   4.1564910  87.9730230 102.1919450
   3.6737230  87.3636290 103.4909650   4.3813680 104.7447830 100.9653540
   3.7874000 104.6132530 101.7043580   4.3737520 103.9085970 100.4995640
  13.8268700  88.0380060  99.1683570  12.9528540  88.3715170  98.9656500
  13.7179450  87.5653240  99.9935440  14.7340680  90.2450930 100.5525290
  14.4054040  89.4302690 100.1727020  15.6822980  90.2020740 100.4290980
  17.1875290 106.0162970  97.5262860  16.7278260 106.7678780  97.1520880
  16.5587750 105.2969440  97.4677660   4.0125910 102.1106210  99.9161580
   3.2859970 101.4911500  99.8487530   4.0735060 102.5046820  99.0459660
   7.6171010 104.3251210  96.7010990   8.1336030 103.7138570  96.1759250
   8.2668390 104.8279990  97.1922000  10.3566510 105.2159700  97.5279970
  10.6444320 104.9614000  96.6512980  10.8689730 104.6637060  98.1185540
  11.5743520  88.9549900  98.1076480  10.7915310  89.4295400  98.3873240
  11.2806450  88.0504730  97.9989660  16.1264590  89.6573000  96.1525570
  16.5672680  89.6018100  95.3047170  15.8572180  90.5731010  96.2235750
  17.9903160  89.2888240  94.1634390  17.9291560  88.3449460  94.0165410
  18.7695190  89.3968330  94.7087850   2.9183930  89.2597380  90.6290200
   3.6763290  89.3726260  90.0554230   2.4561100  90.0966580  90.5833630
   9.4597740  91.3736650  93.6192510   8.6472250  90.9993540  93.2788390
   9.9639380  90.6181730  93.9213700  13.9622720  88.0379100  94.8575580
  14.5652090  88.6099310  95.3324100  13.2215710  88.6018540  94.6349480
  17.1057320  88.4400660  90.1315860  17.3007950  89.3384110  90.3983290
  16.3187190  88.2087740  90.6248810   3.9018610 104.1213830  90.5708480
   3.3766230 104.5021860  89.8670440   3.8263190 104.7464600  91.2918190
   5.2909080  89.7861430  89.1692170   5.8201840  88.9991230  89.0400120
   5.9237400  90.4652620  89.4027700   7.4846920  89.5236570  92.2237560
   6.8549660  88.8223880  92.3907690   6.9452060  90.2840700  92.0070720
  10.4238870 106.1375800 104.8948170  11.3506180 105.9020070 104.9384130
  10.4089300 106.9647800 104.4134200   7.6102480  88.8020550 104.6590050
   7.3286750  89.3054150 103.8950870   7.9922180  88.0042300 104.2932180
   6.5011580 106.0696210  89.4457730   7.2330400 105.7855490  88.8981620
   6.7605250 105.8309490  90.3357110   5.6626370 102.1860940  89.4504060
   5.0335250 102.6546040  89.9989890   5.7774200 101.3410160  89.8850250
  14.2117940  88.2174130 105.2370520  14.0983390  88.5368740 106.1322040
  15.0287680  88.6186640 104.9407800  16.9916430 105.3645660 104.7189210
  17.7841750 104.8694890 104.5115170  17.2849580 106.0435800 105.3264820
  13.1176090  96.2366600  75.6005260  13.0370140  95.3221210  75.3296970
  12.7040510  96.7333670  74.8944970  11.2494130  98.0145620  77.4814530
  10.4736230  97.5346060  77.7713100  11.9007060  97.3351270  77.3070690
   5.2659960  98.3265430  78.3590290   4.4344840  98.0714140  78.7586800
   5.8740940  98.3976200  79.0948210  15.2701560 102.4205810  76.2613660
  14.8083090 101.6493050  76.5900830  16.0827110 102.4471880  76.7666110
   5.2461220 102.3605520  78.5548310   5.5489260 101.4703260  78.3758530
   5.9904810 102.9175740  78.3270560   3.6751910  93.2867320  72.1432680
   2.7868610  93.6283290  72.0412560   3.9593100  93.0867640  71.2513510
  11.4964870 104.7063820  75.8817650  10.8776310 105.1621320  75.3112090
  12.3516650 104.8615280  75.4807350  10.6903120 100.6902810  77.4884690
  10.6211400  99.7492750  77.3273820  11.4522980 100.7804220  78.0607260
   2.8809790  91.2957330  79.8141310   2.7012630  90.3983080  80.0944070
   2.4789870  91.8429200  80.4888260  11.7208290  93.4973190  77.7153620
  12.0973110  92.6245070  77.6027290  11.6227800  93.8331890  76.8244060
   5.8513300  91.8698820  73.1771060   5.9580050  92.7702550  73.4839820
   4.9405660  91.8216790  72.8865710  15.5032410  90.9923630  74.6481960
  16.3242030  90.5020200  74.6907440  15.5366490  91.5821290  75.4013800
   3.4996460  93.7917830  78.4223650   4.1806570  94.0556200  79.0411050
   3.1844510  92.9518700  78.7561660   7.6921030  94.8385190  77.5096240
   8.1999250  95.3366160  78.1501260   8.2234270  94.0620390  77.3335600
  19.7931960  93.0090380  81.2125590  19.0884130  93.3972090  80.6940700
  20.0589880  93.7040670  81.8146520   5.9757130  89.4783750  81.7759660
   5.9775570  89.9956140  80.9705560   5.1461440  89.0013930  81.7529590
  12.3628220  99.5903060  73.2749560  11.7445490 100.0552510  72.7112280
  12.8751470 100.2830540  73.6919070   7.2259980  99.1178930  79.9533160
   6.8929360  99.7447850  80.5954230   7.4026660  99.6440810  79.1734830
  15.7393890  92.9324010  77.4209500  15.0349460  93.2208900  78.0012610
  16.1006050  93.7424120  77.0609060   5.6572460  91.1893710  79.7830110
   5.9989270  92.0335760  79.4883980   4.7188270  91.3377450  79.8995450
   6.4379080 101.0859730  81.7682340   7.0553080 101.7610810  81.4866790
   5.5772200 101.4947710  81.6769840  17.3556670 102.5499140  79.6836980
  16.6720190 103.2198250  79.6753650  17.8950960 102.7479790  78.9181840
  18.8080810  92.3778800  77.8118710  17.8605720  92.4117780  77.9434140
  19.1330800  93.1917750  78.1968070   9.3400350  88.6775980  76.1074700
   9.6475330  88.1222870  75.3910200   8.4101050  88.8120440  75.9247690
  14.8915410 104.3943270  78.3982160  14.9042570 103.9905560  77.5304420
  14.3390630 105.1690560  78.2943590  16.1860830 101.1159490  73.4872330
  16.0757160 100.1733820  73.6121750  16.1829080 101.4775130  74.3735090
  14.2900850  99.2973110  79.7264770  14.7069640  99.0833220  78.8918230
  15.0140670  99.5545900  80.2973390  11.7281110  96.7424810  72.8434820
  10.8010390  96.6762190  73.0723290  11.8805930  97.6804940  72.7290060
  11.7150190  93.0141810  69.8401980  10.7753860  93.1755770  69.9254440
  12.0333450  93.7327490  69.2937970  18.2362950  97.6960330  79.8181010
  17.4081580  97.7653420  79.3431140  18.8313430  98.2814640  79.3496840
  15.7578400  98.3045110  73.3470070  15.1390820  97.9664660  72.6996370
  15.7402850  97.6604870  74.0549260  15.2004960  94.4829650  80.7635880
  14.7876140  95.3083360  81.0175870  14.4680910  93.8974690  80.5712240
   7.3337750  97.2689550  75.6254550   6.9294750  96.5566800  75.1300450
   7.4200870  96.9242790  76.5142590   7.8019450 100.9557110  77.7893760
   7.5047740 100.3502580  77.1101540   8.7519270 100.9934420  77.6783120
   6.0466370  94.0432760  79.4053590   6.5980960  94.1528100  78.6306840
   6.5609880  94.4170360  80.1208820  15.8905060 104.5288980  81.4516860
  15.4135620 105.3361170  81.2589470  15.2066850 103.8767310  81.6043070
   6.8937880 100.6938800  84.4401560   5.9966410 100.9178770  84.6874960
   6.9190750 100.8173740  83.4912960  13.9343100  97.5431920  70.3542820
  14.3736380  96.7054350  70.2080640  14.6471520  98.1761320  70.4406960
   5.7209100  97.5652120  83.0158930   5.5816870  98.4374920  83.3846330
   4.8390460  97.2224930  82.8706870  12.0438480 102.4827990  74.3224060
  12.4834390 103.2252320  73.9079450  11.9825370 102.7254560  75.2463020
   7.5189450 103.5073820  85.2244080   7.4904880 103.9116770  84.3572510
   7.3554420 102.5784180  85.0615680   4.0342380  96.1634530  73.1261200
   3.9139980  96.8896620  72.5142470   3.7243270  95.3937440  72.6489110
  19.4704270 104.2900920  86.5208250  19.9463990 104.7683810  87.1997330
  20.0911430 104.2218410  85.7953750   2.9175380 101.0349860  75.3436020
   2.5103460 101.1764450  74.4889620   3.8088390 100.7510020  75.1407230
  18.8737520 101.4813770  83.6808260  19.0000580 101.2425650  82.7625440
  18.9158900 100.6498310  84.1530340  12.7354260 105.1841770  82.2503070
  13.2498930 105.0949780  83.0525500  11.8923340 105.5301470  82.5430980
  14.7108660 105.4697110  71.6787070  14.5509800 105.1800050  72.5768900
  14.5455370 104.6937240  71.1432300   7.1897040 105.2495640  73.4558690
   7.0139520 104.3331180  73.2426490   6.3352780 105.6082930  73.6956490
  14.4134790 102.9784670  70.2385070  13.7199950 102.9761960  69.5787350
  15.1557650 102.5543990  69.8079240  13.9784720 104.6047380  74.3133560
  14.4341670 103.8236760  74.6272180  14.3177240 105.3154200  74.8574740
  18.7261530  93.5346230  84.6458000  18.1105800  94.0425900  84.1173460
  18.4057950  92.6344560  84.5883940   6.5006040  89.5069600  76.5084870
   6.0574190  90.2879140  76.1769390   7.0591030  89.8299490  77.2155810
  10.7875850  92.3738120  82.1120190  10.3255220  92.5821140  82.9240130
  10.3853960  91.5597470  81.8090860  15.7880360  93.5947070  83.2416850
  14.9373950  93.2952820  83.5625920  15.6282150  93.8389080  82.3300670
  12.8830070  95.0948820  85.3415640  13.2083480  94.2612570  85.0017870
  13.6710400  95.6177340  85.4893970   9.6164860  89.1280300  71.3890700
   8.9919040  89.1240170  72.1144010   9.5294980  88.2611260  70.9926670
   8.5381940  90.0516930  78.3674470   8.8354270  90.9579760  78.2866490
   9.0867500  89.5635710  77.7534040   6.2920260  94.6303170  74.2366120
   6.0661180  94.4140340  75.1412740   5.5112790  95.0631630  73.8912090
  13.5218020  94.6366540  72.8356770  12.9226910  95.3602340  72.6520390
  14.0697630  94.5743320  72.0533220   8.7319470  95.5288750  84.9026390
   8.6363070  94.5883480  84.7526790   9.5751450  95.7503820  84.5074460
  12.1282890  93.2730080  74.8660050  12.5212460  93.5902280  74.0528740
  12.4899740  92.3941960  74.9804570   3.8630010  91.9402420  83.0560170
   3.4693400  92.7877630  83.2632950   3.1748410  91.3028790  83.2468810
  10.4375060  92.0237390  86.1256910   9.7473380  91.8309590  86.7603000
  11.1807360  92.3072030  86.6581210  12.7138030  95.8635830  78.9610830
  11.9819150  96.3722640  79.3100930  12.3162370  95.0465810  78.6599610
   9.1515420  92.5390030  77.3663320   9.1551480  92.0979980  76.5167860
  10.0466540  92.8607360  77.4735140   5.0017800  92.4216520  76.3257530
   4.6617850  92.8991750  77.0824580   4.2395120  91.9681640  75.9658630
   9.2135570  93.5402110  70.3570080   9.3348390  93.4988590  71.3055900
   8.8284080  94.4026260  70.2016810  13.1763940  91.3169510  78.3733770
  13.1936680  91.7678160  79.2175620  12.9279520  90.4175150  78.5867210
   8.2257070  95.8503250  69.7553380   7.6573970  95.4021500  69.1289290
   8.9346070  96.2096030  69.2218530  16.6034690  88.7301690  84.2120150
  16.9280460  87.9991350  84.7378130  16.6391200  88.4115330  83.3101140
   3.3026250  99.7515270  83.6320110   2.9181040  99.1108940  84.2303070
   3.6138440 100.4551390  84.2014840   9.4523390  96.5991810  79.1128730
   9.8193520  96.1250380  79.8590070   9.2628450  97.4733380  79.4537070
   2.3163880  91.3435500  75.2422200   2.0310800  90.9791170  76.0800820
   2.2542740  90.6115960  74.6285340   7.2422760  95.6400450  81.4312940
   6.9379830  96.5192430  81.6563300   8.1969220  95.7000240  81.4670380
   5.7704550  99.8461440  72.0279790   4.9966810  99.3059060  71.8678510
   6.4999180  99.3268050  71.6897550  16.5292530  98.8426800  77.8206180
  17.2491650  99.3382090  77.4302290  16.3274350  98.1644690  77.1760050
  11.9902470  90.2364760  71.9635570  11.1767080  89.7377930  71.8880880
  11.7964420  91.0763010  71.5471920  11.9111330  98.9135860  83.7075180
  11.8448640  97.9931530  83.4532770  11.2816470  99.0111300  84.4219820
  14.7050860  94.6084410  70.2597730  15.5930480  94.9201640  70.0849070
  14.6755950  93.7356660  69.8678310   5.8141950  99.5141820  75.6658600
   6.3320620  98.7110080  75.6115490   5.3625970  99.4520960  76.5075430
  10.7011450 100.7808100  70.9385900  11.0427150 101.5250330  70.4429220
   9.8724160 101.0939220  71.3010730   3.2986490  96.4803190  82.5784300
   2.9401430  97.1457040  83.1657640   3.0041050  95.6486740  82.9496920
   6.4999610  96.9387430  85.4623850   6.1999750  97.0844610  84.5651670
   7.2710850  96.3792720  85.3697240  11.8428060 101.7356430  83.4578980
  11.8572600 100.8037390  83.2397890  11.1353160 101.8216190  84.0968750
  18.0539270  98.3763770  82.8047560  17.3287460  98.9692550  82.6076950
  18.5814730  98.3687310  82.0060930  18.0052380 102.7738510  72.4559720
  17.3628540 102.1194130  72.7303440  17.6183040 103.1793600  71.6800390
  13.5838860 100.1023940  76.3031410  13.9362680  99.5052070  75.6432780
  12.7001190  99.7768170  76.4739660   9.6702140 100.8621630  73.7101820
  10.3573270 101.4090840  74.0909410   8.8834560 101.4062360  73.7451430
   8.9729350  97.8667660  73.3227180   9.4292130  98.6772910  73.5487370
   8.6217560  97.5490800  74.1545670  11.2761960 103.3774000  80.5519480
  11.9204180 103.5833380  81.2292900  11.6391400 102.6162400  80.0990330
   4.8741130  88.2105310  73.7949700   4.7455760  88.2023210  74.7434620
   4.0503150  88.5488400  73.4440710  12.5494040 101.3806350  79.2696930
  13.1916270 100.6799510  79.3829100  13.0743390 102.1604790  79.0893820
  16.3949760 101.6654970  68.9936070  16.1687340 100.9485410  69.5860710
  16.0045960 101.4167410  68.1557820  14.3231660 102.1801250  82.4732990
  14.6587900 102.7667940  83.1510910  13.4032000 102.0493960  82.7030780
   2.1765790 105.6921830  69.7680530   2.5363430 106.2911170  69.1137800
   2.0358130 106.2381720  70.5415560  15.9766010  99.5826910  70.6550230
  15.6887710 100.0439600  71.4428110  16.7718180  99.1224680  70.9234450
  10.1520240 102.2292580  85.6421050   9.8317110 101.5101820  86.1866740
   9.4778600 102.9047650  85.7157110   8.1934410 103.0753030  70.5854200
   8.1844510 103.8082720  69.9698710   7.2732770 102.8284610  70.6781160
   3.7941050  98.2967920  71.3300960   3.1869000  99.0366820  71.3396260
   4.2690400  98.3867280  70.5039160  13.3673840  92.4618740  81.0057850
  13.7354660  91.6413950  81.3337420  12.5072040  92.5220630  81.4213500
  16.7335870  91.4175680  71.8145410  16.1049030  91.5221350  71.1003640
  16.2387790  91.6372460  72.6039290  11.1794010 103.1381270  69.2479390
  11.2805990 102.9345260  68.3181370  10.2795750 102.8839550  69.4527170
   8.7019900  93.6961630  73.2303290   7.9936050  94.1647970  73.6716900
   8.9864380  93.0383640  73.8648480  10.3275830  95.1158330  81.2295820
  10.8261080  95.5904150  81.8947670  10.4698780  94.1921850  81.4365850
  12.7335330  90.4212290  74.6699080  12.6103110  90.4398420  73.7208590
  13.6819890  90.4691230  74.7897480   9.8212120 105.6567590  73.9427060
  10.0753620 105.6188980  73.0206430   8.8724600 105.5300920  73.9355310
   6.9054920  92.0046710  70.6054000   7.7545450  92.4416860  70.5394190
   6.5386190  92.3166970  71.4326060  17.5342690  91.3326290  82.0724210
  17.0316290  92.0731690  82.4118020  18.3499350  91.7210290  81.7561000
  15.8264700  96.5759470  75.5185570  14.8854840  96.5909700  75.6933260
  16.1408770  95.7895430  75.9645870   5.8046340  98.2579070  69.0789530
   6.5709610  98.1460430  69.6414960   5.8821030  97.5617040  68.4266300
   4.4993100  95.6904140  69.7622420   4.5796690  94.7431650  69.8739820
   5.3912850  96.0211020  69.8683080  17.8290280 103.7468320  77.1939830
  17.9537700 104.5699490  77.6663640  18.6955840 103.5359050  76.8463980
   5.3007810 105.8399530  76.8656960   6.0370290 105.2914990  77.1365530
   5.6848730 106.7055540  76.7262950   4.3066090 105.0245600  86.0542540
   5.1078820 105.3457650  86.4677940   3.7917910 104.6641180  86.7762450
   8.4110120 105.0129840  68.6882530   9.2038730 105.3018670  68.2364320
   7.8914470 104.5822010  68.0095010  13.1430720 101.1325470  86.0017950
  12.5368880 101.1557070  85.2613700  12.8384830 100.4008510  86.5385200
  14.5731090 104.8605760  84.6127360  15.5252840 104.7763780  84.5627600
  14.4259310 105.5247470  85.2861150  17.4640290 104.2399970  70.1119270
  17.1781800 103.8265110  69.2973450  17.2659840 105.1687680  69.9919790
   8.9287520 100.2333250  68.5524880   8.8238160  99.6185600  69.2786260
   8.7611740  99.7099140  67.7687890   9.0801840  98.9190050  84.5314110
   8.3147510  99.4875050  84.4468780   9.2617800  98.6266260  83.6382340
  12.1690250  99.2953280  69.1566870  11.6200350  99.7422580  69.8009610
  12.7909510  98.7902530  69.6804540  16.2225190 100.6495380  85.0889130
  16.9634660 100.9871140  84.5856590  15.4597870 100.8187440  84.5358900
   4.0586980  95.6548650  85.8928660   4.0992320  95.3562520  86.8013890
   4.9132480  96.0556260  85.7336180   7.8365370  98.2544200  71.0532170
   8.2581790  98.0884070  71.8963560   7.9616210  97.4444430  70.5587310
   5.9992790  94.2340750  83.8603150   5.4689250  93.7431700  83.2326490
   6.6680860  94.6624950  83.3261080  10.3493010  97.2781810  68.3009270
  10.8698670  96.5630830  67.9350420  10.9961410  97.9167680  68.6009780
  14.8970850  98.7010210  83.6244340  15.3111870  98.8555290  84.4734760
  13.9621850  98.8265430  83.7870120  15.3693020  96.0406370  85.6283490
  15.9513790  95.2858690  85.5403970  15.5454790  96.5713810  84.8514970
   6.4865090  91.2003120  83.9400440   6.3921960  90.5823870  83.2151310
   5.9062480  91.9269410  83.7130350   9.2526530  89.7576360  80.9727830
   8.8043830  89.7800620  80.1273380   8.6191730  89.3595380  81.5698130
   9.6586080  98.6530690  81.5940270  10.0774190  99.4963420  81.4216510
   8.7394710  98.7902730  81.3647050  11.9949980  96.3846870  82.9778110
  12.1146190  95.7888010  83.7172950  12.8543980  96.4216560  82.5579410
  14.3337880  96.9384060  81.5540620  13.8073100  97.4626680  80.9505760
  14.6769220  97.5711450  82.1850350   6.7324270  94.3277430  67.9990330
   6.5313330  93.4644790  68.3603670   6.5616320  94.2410790  67.0611930
   7.5093500 104.9583700  82.7098000   6.9714590 105.6829760  82.3906700
   7.7627460 104.4814040  81.9195340   8.7618750  92.9268220  84.2353930
   9.3518440  92.6184070  84.9231750   7.9438990  92.4547970  84.3913830
  13.5812180  92.5434030  84.4686950  12.8927700  91.8815570  84.4036940
  14.3018200  92.0972300  84.9135410  14.2112580  89.1385660  70.5277210
  14.4914870  88.2953560  70.8836630  13.4378310  89.3708770  71.0415960
   5.5307070  91.4278050  67.9868210   5.8332970  91.4345480  67.0787360
   6.2701660  91.0775910  68.4835870  10.3655710 106.1934910  82.9684650
  10.2914410 107.0970050  83.2757020   9.4634550 105.8746810  82.9406720
   8.7492000  90.3712670  68.9724410   8.4014000  89.6936660  68.3926860
   8.9504770  89.9102180  69.7867800  10.9141040 105.3593420  70.5911010
  11.8091830 105.6978390  70.6129770  10.9458670 104.6372830  69.9635290
   4.5537200 100.7320470  68.8198010   4.9912070 101.2750140  69.4755590
   5.0384930  99.9067420  68.8294350   1.7683000 103.5209500  76.2718270
   2.0986010 102.6530560  76.0396910   2.1974000 103.7268020  77.1023230
   6.3644920 101.8518510  73.9320240   6.0640460 101.7283480  74.8324150
   6.2582410 100.9927100  73.5235970   2.2573210 104.3880090  79.0099900
   1.8204200 104.5680890  79.8424050   2.8250890 105.1454710  78.8681620
  17.8935390 103.8897090  83.2977210  17.2937380 103.9489650  82.5541130
  18.0229290 102.9502070  83.4274060  19.1336840 101.6314910  68.6346920
  18.3029800 101.6991560  69.1054150  19.3108670 102.5219030  68.3313780
  19.5953270  99.2312490  75.9823050  19.9662100  98.4479810  75.5759020
  20.2355200  99.9201590  75.8040350  16.5787030 100.6149070  81.3953370
  15.7646870 101.0446230  81.6579160  16.9861230 101.2267480  80.7822420
  15.0388080  91.6941610  69.5907270  15.4572960  91.5072590  68.7503930
  14.7324140  90.8420660  69.9010200  18.5377810  96.6065750  73.2883070
  18.1621410  95.8393680  72.8564360  17.8080930  96.9888450  73.7758000
   3.1273570  97.2852890  79.9092120   3.4946610  97.1980290  80.7888140
   2.5584390  96.5219440  79.8098980  17.9277430  95.7537270  82.9222590
  17.6963520  95.5250020  82.0220540  18.1881980  96.6736820  82.8767480
   2.6789570  94.1961980  83.8150540   1.7845620  94.1628740  84.1544250
   3.2187120  94.3948770  84.5801790  16.3665500  90.9793700  85.7002290
  17.2435680  90.9877100  86.0836290  16.3786340  90.2424540  85.0894640
  17.8128770  94.8323240  76.5890310  18.3366250  94.3385890  75.9580480
  18.3988190  94.9673600  77.3337880  17.9918490  94.9163110  80.1109860
  17.0421200  94.8826650  80.2254850  18.1731500  95.8263220  79.8759630
   3.8462930  93.1664790  69.2208490   4.5554630  92.7448010  68.7355770
   3.1302870  93.2340020  68.5891840   3.4937090  89.2204120  68.2611140
   4.2165220  89.7613060  68.5792360   3.7661610  88.9467540  67.3852680
  17.3028740  94.0896590  72.5282720  17.7987860  93.8567460  73.3131600
  17.1044810  93.2508430  72.1120360   3.1829280  88.4710310  78.1633760
   3.8305470  87.9207690  77.7228920   3.6031120  88.7253460  78.9849570
  18.7315900  92.7257540  75.0620400  18.6215180  92.5713580  76.0002670
  19.4923490  92.1978480  74.8195810  17.0781620  88.6651670  81.5203400
  17.7153840  89.2785810  81.8862590  17.2256510  88.7012330  80.5752630
  19.6944660  91.3276120  70.9283250  18.8996160  91.2621240  71.4576160
  19.8987940  92.2626760  70.9168600  16.6363080 105.3667670  74.9221640
  17.2322150 105.0452240  74.2456060  16.8941230 104.8939490  75.7134910
   2.9361280  88.6265980  80.9059080   2.5876100  89.0829800  81.6717260
   2.6048980  87.7323110  80.9881510   4.5425650 101.7985580  85.0712270
   4.4995280 101.4278490  85.9526730   4.6736660 102.7363150  85.2114090
   8.2431680 103.3545170  80.6721990   8.0023040 103.6219730  79.7852510
   9.1834320 103.5250900  80.7272850  10.4486100  89.8177860  84.4278500
  10.3874990  90.4099690  85.1773910  11.3886480  89.7103820  84.2828760
  13.0860660  89.4747920  84.0670790  13.7001070  89.7927210  83.4051870
  13.6310220  88.9896510  84.6866650  19.5035840 105.3739550  81.4732630
  19.0094120 105.7708420  80.7559760  18.8949130 104.7488760  81.8669910
   3.6081920  88.1542180  84.1809850   4.1564910  87.9730230  83.4175960
   3.6737230  87.3636290  84.7166160   4.3813680 104.7447830  82.1910050
   3.7874000 104.6132530  82.9300090   4.3737520 103.9085970  81.7252150
  13.8268700  88.0380060  80.3940080  12.9528540  88.3715170  80.1913010
  13.7179450  87.5653240  81.2191950  14.7340680  90.2450930  81.7781800
  14.4054040  89.4302690  81.3983530  15.6822980  90.2020740  81.6547490
  17.1875290 106.0162970  78.7519370  16.7278260 106.7678780  78.3777390
  16.5587750 105.2969440  78.6934170   4.0125910 102.1106210  81.1418090
   3.2859970 101.4911500  81.0744040   4.0735060 102.5046820  80.2716170
   7.6171010 104.3251210  77.9267500   8.1336030 103.7138570  77.4015760
   8.2668390 104.8279990  78.4178510  10.3566510 105.2159700  78.7536480
  10.6444320 104.9614000  77.8769490  10.8689730 104.6637060  79.3442050
  11.5743520  88.9549900  79.3332990  10.7915310  89.4295400  79.6129750
  11.2806450  88.0504730  79.2246170  16.1264590  89.6573000  77.3782080
  16.5672680  89.6018100  76.5303680  15.8572180  90.5731010  77.4492260
   2.9183930  89.2597380  71.8546710   3.6763290  89.3726260  71.2810740
   2.4561100  90.0966580  71.8090140   9.4597740  91.3736650  74.8449020
   8.6472250  90.9993540  74.5044900   9.9639380  90.6181730  75.1470210
  13.9622720  88.0379100  76.0832090  14.5652090  88.6099310  76.5580610
  13.2215710  88.6018540  75.8605990   3.9018610 104.1213830  71.7964990
   3.3766230 104.5021860  71.0926950   3.8263190 104.7464600  72.5174700
   5.2909080  89.7861430  70.3948680   5.8201840  88.9991230  70.2656630
   5.9237400  90.4652620  70.6284210   7.4846920  89.5236570  73.4494070
   6.8549660  88.8223880  73.6164200   6.9452060  90.2840700  73.2327230
  10.4238870 106.1375800  86.1204680  11.3506180 105.9020070  86.1640640
  10.4089300 106.9647800  85.6390710  18.6583930 105.6801370  73.1178930
  18.8336120 104.9939110  72.4739850  17.9605500 106.2048420  72.7255600
   7.6102480  88.8020550  85.8846560   7.3286750  89.3054150  85.1207380
   7.9922180  88.0042300  85.5188690   6.5011580 106.0696210  70.6714240
   7.2330400 105.7855490  70.1238130   6.7605250 105.8309490  71.5613620
   5.6626370 102.1860940  70.6760570   5.0335250 102.6546040  71.2246400
   5.7774200 101.3410160  71.1106760  14.2117940  88.2174130  86.4627030
  14.0983390  88.5368740  87.3578550  15.0287680  88.6186640  86.1664310
  16.9916430 105.3645660  85.9445720  17.7841750 104.8694890  85.7371680
  17.2849580 106.0435800  86.5521330  13.1176090  96.2366600  56.8261770
  13.0370140  95.3221210  56.5553480  12.7040510  96.7333670  56.1201480
  11.2494130  98.0145620  58.7071040  10.4736230  97.5346060  58.9969610
  11.9007060  97.3351270  58.5327200   5.2659960  98.3265430  59.5846800
   4.4344840  98.0714140  59.9843310   5.8740940  98.3976200  60.3204720
  15.2701560 102.4205810  57.4870170  14.8083090 101.6493050  57.8157340
  16.0827110 102.4471880  57.9922620   5.2461220 102.3605520  59.7804820
   5.5489260 101.4703260  59.6015040   5.9904810 102.9175740  59.5527070
   3.6751910  93.2867320  53.3689190   2.7868610  93.6283290  53.2669070
   3.9593100  93.0867640  52.4770020  11.4964870 104.7063820  57.1074160
  10.8776310 105.1621320  56.5368600  12.3516650 104.8615280  56.7063860
  10.6903120 100.6902810  58.7141200  10.6211400  99.7492750  58.5530330
  11.4522980 100.7804220  59.2863770   2.8809790  91.2957330  61.0397820
   2.7012630  90.3983080  61.3200580   2.4789870  91.8429200  61.7144770
  11.7208290  93.4973190  58.9410130  12.0973110  92.6245070  58.8283800
  11.6227800  93.8331890  58.0500570   5.8513300  91.8698820  54.4027570
   5.9580050  92.7702550  54.7096330   4.9405660  91.8216790  54.1122220
  15.5032410  90.9923630  55.8738470  16.3242030  90.5020200  55.9163950
  15.5366490  91.5821290  56.6270310   3.4996460  93.7917830  59.6480160
   4.1806570  94.0556200  60.2667560   3.1844510  92.9518700  59.9818170
   7.6921030  94.8385190  58.7352750   8.1999250  95.3366160  59.3757770
   8.2234270  94.0620390  58.5592110   5.9757130  89.4783750  63.0016170
   5.9775570  89.9956140  62.1962070   5.1461440  89.0013930  62.9786100
  12.3628220  99.5903060  54.5006070  11.7445490 100.0552510  53.9368790
  12.8751470 100.2830540  54.9175580   7.2259980  99.1178930  61.1789670
   6.8929360  99.7447850  61.8210740   7.4026660  99.6440810  60.3991340
   5.6572460  91.1893710  61.0086620   5.9989270  92.0335760  60.7140490
   4.7188270  91.3377450  61.1251960   6.4379080 101.0859730  62.9938850
   7.0553080 101.7610810  62.7123300   5.5772200 101.4947710  62.9026350
  17.3556670 102.5499140  60.9093490  16.6720190 103.2198250  60.9010160
  17.8950960 102.7479790  60.1438350  18.8080810  92.3778800  59.0375220
  17.8605720  92.4117780  59.1690650  19.1330800  93.1917750  59.4224580
   9.3400350  88.6775980  57.3331210   9.6475330  88.1222870  56.6166710
   8.4101050  88.8120440  57.1504200  14.8915410 104.3943270  59.6238670
  14.9042570 103.9905560  58.7560930  14.3390630 105.1690560  59.5200100
  16.1860830 101.1159490  54.7128840  16.0757160 100.1733820  54.8378260
  16.1829080 101.4775130  55.5991600  14.2900850  99.2973110  60.9521280
  14.7069640  99.0833220  60.1174740  15.0140670  99.5545900  61.5229900
  11.7281110  96.7424810  54.0691330  10.8010390  96.6762190  54.2979800
  11.8805930  97.6804940  53.9546570  11.7150190  93.0141810  51.0658490
  10.7753860  93.1755770  51.1510950  12.0333450  93.7327490  50.5194480
  18.2362950  97.6960330  61.0437520  17.4081580  97.7653420  60.5687650
  18.8313430  98.2814640  60.5753350  15.7578400  98.3045110  54.5726580
  15.1390820  97.9664660  53.9252880  15.7402850  97.6604870  55.2805770
  15.2004960  94.4829650  61.9892390  14.7876140  95.3083360  62.2432380
  14.4680910  93.8974690  61.7968750   7.3337750  97.2689550  56.8511060
   6.9294750  96.5566800  56.3556960   7.4200870  96.9242790  57.7399100
   7.8019450 100.9557110  59.0150270   7.5047740 100.3502580  58.3358050
   8.7519270 100.9934420  58.9039630   6.0466370  94.0432760  60.6310100
   6.5980960  94.1528100  59.8563350   6.5609880  94.4170360  61.3465330
  15.8905060 104.5288980  62.6773370  15.4135620 105.3361170  62.4845980
  15.2066850 103.8767310  62.8299580   6.8937880 100.6938800  65.6658070
   5.9966410 100.9178770  65.9131470   6.9190750 100.8173740  64.7169470
  13.9343100  97.5431920  51.5799330  14.3736380  96.7054350  51.4337150
  14.6471520  98.1761320  51.6663470   5.7209100  97.5652120  64.2415440
   5.5816870  98.4374920  64.6102840   4.8390460  97.2224930  64.0963380
  12.0438480 102.4827990  55.5480570  12.4834390 103.2252320  55.1335960
  11.9825370 102.7254560  56.4719530   7.5189450 103.5073820  66.4500590
   7.4904880 103.9116770  65.5829020   7.3554420 102.5784180  66.2872190
  17.5160240  88.7974730  49.8940370  17.2032900  88.8901560  50.7939440
  18.2772710  89.3755760  49.8437800   4.0342380  96.1634530  54.3517710
   3.9139980  96.8896620  53.7398980   3.7243270  95.3937440  53.8745620
  19.4704270 104.2900920  67.7464760  19.9463990 104.7683810  68.4253840
  20.0911430 104.2218410  67.0210260   2.9175380 101.0349860  56.5692530
   2.5103460 101.1764450  55.7146130   3.8088390 100.7510020  56.3663740
  18.8737520 101.4813770  64.9064770  19.0000580 101.2425650  63.9881950
  18.9158900 100.6498310  65.3786850  12.7354260 105.1841770  63.4759580
  13.2498930 105.0949780  64.2782010  11.8923340 105.5301470  63.7687490
  14.7108660 105.4697110  52.9043580  14.5509800 105.1800050  53.8025410
  14.5455370 104.6937240  52.3688810   7.1897040 105.2495640  54.6815200
   7.0139520 104.3331180  54.4683000   6.3352780 105.6082930  54.9213000
  14.4134790 102.9784670  51.4641580  13.7199950 102.9761960  50.8043860
  15.1557650 102.5543990  51.0335750  13.9784720 104.6047380  55.5390070
  14.4341670 103.8236760  55.8528690  14.3177240 105.3154200  56.0831250
   6.5006040  89.5069600  57.7341380   6.0574190  90.2879140  57.4025900
   7.0591030  89.8299490  58.4412320  10.7875850  92.3738120  63.3376700
  10.3255220  92.5821140  64.1496640  10.3853960  91.5597470  63.0347370
  15.7880360  93.5947070  64.4673360  14.9373950  93.2952820  64.7882430
  15.6282150  93.8389080  63.5557180  12.8830070  95.0948820  66.5672150
  13.2083480  94.2612570  66.2274380  13.6710400  95.6177340  66.7150480
   9.6164860  89.1280300  52.6147210   8.9919040  89.1240170  53.3400520
   9.5294980  88.2611260  52.2183180   8.5381940  90.0516930  59.5930980
   8.8354270  90.9579760  59.5123000   9.0867500  89.5635710  58.9790550
   6.2920260  94.6303170  55.4622630   6.0661180  94.4140340  56.3669250
   5.5112790  95.0631630  55.1168600  13.5218020  94.6366540  54.0613280
  12.9226910  95.3602340  53.8776900  14.0697630  94.5743320  53.2789730
   8.7319470  95.5288750  66.1282900   8.6363070  94.5883480  65.9783300
   9.5751450  95.7503820  65.7330970  12.1282890  93.2730080  56.0916560
  12.5212460  93.5902280  55.2785250  12.4899740  92.3941960  56.2061080
   3.8630010  91.9402420  64.2816680   3.4693400  92.7877630  64.4889460
   3.1748410  91.3028790  64.4725320  10.4375060  92.0237390  67.3513420
   9.7473380  91.8309590  67.9859510  11.1807360  92.3072030  67.8837720
  12.7138030  95.8635830  60.1867340  11.9819150  96.3722640  60.5357440
  12.3162370  95.0465810  59.8856120   9.1515420  92.5390030  58.5919830
   9.1551480  92.0979980  57.7424370  10.0466540  92.8607360  58.6991650
   5.0017800  92.4216520  57.5514040   4.6617850  92.8991750  58.3081090
   4.2395120  91.9681640  57.1915140   9.2135570  93.5402110  51.5826590
   9.3348390  93.4988590  52.5312410   8.8284080  94.4026260  51.4273320
   8.2257070  95.8503250  50.9809890   7.6573970  95.4021500  50.3545800
   8.9346070  96.2096030  50.4475040   3.3026250  99.7515270  64.8576620
   2.9181040  99.1108940  65.4559580   3.6138440 100.4551390  65.4271350
   9.4523390  96.5991810  60.3385240   9.8193520  96.1250380  61.0846580
   9.2628450  97.4733380  60.6793580   2.3163880  91.3435500  56.4678710
   2.0310800  90.9791170  57.3057330   2.2542740  90.6115960  55.8541850
   7.2422760  95.6400450  62.6569450   6.9379830  96.5192430  62.8819810
   8.1969220  95.7000240  62.6926890   5.7704550  99.8461440  53.2536300
   4.9966810  99.3059060  53.0935020   6.4999180  99.3268050  52.9154060
  16.5292530  98.8426800  59.0462690  17.2491650  99.3382090  58.6558800
  16.3274350  98.1644690  58.4016560  11.9902470  90.2364760  53.1892080
  11.1767080  89.7377930  53.1137390  11.7964420  91.0763010  52.7728430
  11.9111330  98.9135860  64.9331690  11.8448640  97.9931530  64.6789280
  11.2816470  99.0111300  65.6476330  14.7050860  94.6084410  51.4854240
  15.5930480  94.9201640  51.3105580  14.6755950  93.7356660  51.0934820
   5.8141950  99.5141820  56.8915110   6.3320620  98.7110080  56.8372000
   5.3625970  99.4520960  57.7331940  10.7011450 100.7808100  52.1642410
  11.0427150 101.5250330  51.6685730   9.8724160 101.0939220  52.5267240
   3.2986490  96.4803190  63.8040810   2.9401430  97.1457040  64.3914150
   3.0041050  95.6486740  64.1753430   6.4999610  96.9387430  66.6880360
   6.1999750  97.0844610  65.7908180   7.2710850  96.3792720  66.5953750
  11.8428060 101.7356430  64.6835490  11.8572600 100.8037390  64.4654400
  11.1353160 101.8216190  65.3225260  16.9765130  95.9196250  50.9534100
  16.8928850  96.3510470  50.1030540  17.6959320  96.3794600  51.3860920
  18.0539270  98.3763770  64.0304070  17.3287460  98.9692550  63.8333460
  18.5814730  98.3687310  63.2317440  18.0052380 102.7738510  53.6816230
  17.3628540 102.1194130  53.9559950  17.6183040 103.1793600  52.9056900
  13.5838860 100.1023940  57.5287920  13.9362680  99.5052070  56.8689290
  12.7001190  99.7768170  57.6996170   9.6702140 100.8621630  54.9358330
  10.3573270 101.4090840  55.3165920   8.8834560 101.4062360  54.9707940
   8.9729350  97.8667660  54.5483690   9.4292130  98.6772910  54.7743880
   8.6217560  97.5490800  55.3802180  11.2761960 103.3774000  61.7775990
  11.9204180 103.5833380  62.4549410  11.6391400 102.6162400  61.3246840
   4.8741130  88.2105310  55.0206210   4.7455760  88.2023210  55.9691130
   4.0503150  88.5488400  54.6697220  12.5494040 101.3806350  60.4953440
  13.1916270 100.6799510  60.6085610  13.0743390 102.1604790  60.3150330
  16.3949760 101.6654970  50.2192580  16.1687340 100.9485410  50.8117220
  16.0045960 101.4167410  49.3814330  14.3231660 102.1801250  63.6989500
  14.6587900 102.7667940  64.3767420  13.4032000 102.0493960  63.9287290
   2.1765790 105.6921830  50.9937040   2.5363430 106.2911170  50.3394310
   2.0358130 106.2381720  51.7672070  15.9766010  99.5826910  51.8806740
  15.6887710 100.0439600  52.6684620  16.7718180  99.1224680  52.1490960
  10.1520240 102.2292580  66.8677560   9.8317110 101.5101820  67.4123250
   9.4778600 102.9047650  66.9413620   8.1934410 103.0753030  51.8110710
   8.1844510 103.8082720  51.1955220   7.2732770 102.8284610  51.9037670
   3.7941050  98.2967920  52.5557470   3.1869000  99.0366820  52.5652770
   4.2690400  98.3867280  51.7295670  13.3673840  92.4618740  62.2314360
  13.7354660  91.6413950  62.5593930  12.5072040  92.5220630  62.6470010
  16.7335870  91.4175680  53.0401920  16.1049030  91.5221350  52.3260150
  16.2387790  91.6372460  53.8295800  11.1794010 103.1381270  50.4735900
  11.2805990 102.9345260  49.5437880  10.2795750 102.8839550  50.6783680
   8.7019900  93.6961630  54.4559800   7.9936050  94.1647970  54.8973410
   8.9864380  93.0383640  55.0904990  10.3275830  95.1158330  62.4552330
  10.8261080  95.5904150  63.1204180  10.4698780  94.1921850  62.6622360
  12.7335330  90.4212290  55.8955590  12.6103110  90.4398420  54.9465100
  13.6819890  90.4691230  56.0153990   9.8212120 105.6567590  55.1683570
  10.0753620 105.6188980  54.2462940   8.8724600 105.5300920  55.1611820
   6.9054920  92.0046710  51.8310510   7.7545450  92.4416860  51.7650700
   6.5386190  92.3166970  52.6582570  17.5342690  91.3326290  63.2980720
  17.0316290  92.0731690  63.6374530  18.3499350  91.7210290  62.9817510
  15.8264700  96.5759470  56.7442080  14.8854840  96.5909700  56.9189770
  16.1408770  95.7895430  57.1902380   5.8046340  98.2579070  50.3046040
   6.5709610  98.1460430  50.8671470   5.8821030  97.5617040  49.6522810
   4.4993100  95.6904140  50.9878930   4.5796690  94.7431650  51.0996330
   5.3912850  96.0211020  51.0939590  17.8290280 103.7468320  58.4196340
  17.9537700 104.5699490  58.8920150  18.6955840 103.5359050  58.0720490
   5.3007810 105.8399530  58.0913470   6.0370290 105.2914990  58.3622040
   5.6848730 106.7055540  57.9519460   4.3066090 105.0245600  67.2799050
   5.1078820 105.3457650  67.6934450   3.7917910 104.6641180  68.0018960
   8.4110120 105.0129840  49.9139040   9.2038730 105.3018670  49.4620830
   7.8914470 104.5822010  49.2351520  13.1430720 101.1325470  67.2274460
  12.5368880 101.1557070  66.4870210  12.8384830 100.4008510  67.7641710
  14.5731090 104.8605760  65.8383870  15.5252840 104.7763780  65.7884110
  14.4259310 105.5247470  66.5117660  17.4640290 104.2399970  51.3375780
  17.1781800 103.8265110  50.5229960  17.2659840 105.1687680  51.2176300
   8.9287520 100.2333250  49.7781390   8.8238160  99.6185600  50.5042770
   8.7611740  99.7099140  48.9944400   9.0801840  98.9190050  65.7570620
   8.3147510  99.4875050  65.6725290   9.2617800  98.6266260  64.8638850
  12.1690250  99.2953280  50.3823380  11.6200350  99.7422580  51.0266120
  12.7909510  98.7902530  50.9061050  16.2225190 100.6495380  66.3145640
  16.9634660 100.9871140  65.8113100  15.4597870 100.8187440  65.7615410
   4.0586980  95.6548650  67.1185170   4.0992320  95.3562520  68.0270400
   4.9132480  96.0556260  66.9592690   7.8365370  98.2544200  52.2788680
   8.2581790  98.0884070  53.1220070   7.9616210  97.4444430  51.7843820
   5.9992790  94.2340750  65.0859660   5.4689250  93.7431700  64.4583000
   6.6680860  94.6624950  64.5517590  10.3493010  97.2781810  49.5265780
  10.8698670  96.5630830  49.1606930  10.9961410  97.9167680  49.8266290
  14.8970850  98.7010210  64.8500850  15.3111870  98.8555290  65.6991270
  13.9621850  98.8265430  65.0126630  15.3693020  96.0406370  66.8540000
  15.9513790  95.2858690  66.7660480  15.5454790  96.5713810  66.0771480
   6.4865090  91.2003120  65.1656950   6.3921960  90.5823870  64.4407820
   5.9062480  91.9269410  64.9386860   9.2526530  89.7576360  62.1984340
   8.8043830  89.7800620  61.3529890   8.6191730  89.3595380  62.7954640
   9.6586080  98.6530690  62.8196780  10.0774190  99.4963420  62.6473020
   8.7394710  98.7902730  62.5903560  11.9949980  96.3846870  64.2034620
  12.1146190  95.7888010  64.9429460  12.8543980  96.4216560  63.7835920
  14.3337880  96.9384060  62.7797130  13.8073100  97.4626680  62.1762270
  14.6769220  97.5711450  63.4106860   6.7324270  94.3277430  49.2246840
   6.5313330  93.4644790  49.5860180   6.5616320  94.2410790  48.2868440
   7.5093500 104.9583700  63.9354510   6.9714590 105.6829760  63.6163210
   7.7627460 104.4814040  63.1451850   8.7618750  92.9268220  65.4610440
   9.3518440  92.6184070  66.1488260   7.9438990  92.4547970  65.6170340
  13.5812180  92.5434030  65.6943460  12.8927700  91.8815570  65.6293450
  14.3018200  92.0972300  66.1391920  14.2112580  89.1385660  51.7533720
  14.4914870  88.2953560  52.1093140  13.4378310  89.3708770  52.2672470
   5.5307070  91.4278050  49.2124720   5.8332970  91.4345480  48.3043870
   6.2701660  91.0775910  49.7092380  10.3655710 106.1934910  64.1941160
  10.2914410 107.0970050  64.5013530   9.4634550 105.8746810  64.1663230
   8.7492000  90.3712670  50.1980920   8.4014000  89.6936660  49.6183370
   8.9504770  89.9102180  51.0124310  10.9141040 105.3593420  51.8167520
  11.8091830 105.6978390  51.8386280  10.9458670 104.6372830  51.1891800
   4.5537200 100.7320470  50.0454520   4.9912070 101.2750140  50.7012100
   5.0384930  99.9067420  50.0550860   1.7683000 103.5209500  57.4974780
   2.0986010 102.6530560  57.2653420   2.1974000 103.7268020  58.3279740
   6.3644920 101.8518510  55.1576750   6.0640460 101.7283480  56.0580660
   6.2582410 100.9927100  54.7492480   2.2573210 104.3880090  60.2356410
   1.8204200 104.5680890  61.0680560   2.8250890 105.1454710  60.0938130
  17.8935390 103.8897090  64.5233720  17.2937380 103.9489650  63.7797640
  18.0229290 102.9502070  64.6530570  19.1336840 101.6314910  49.8603430
  18.3029800 101.6991560  50.3310660  19.3108670 102.5219030  49.5570290
  18.5893300  98.3762390  52.3637630  19.3512210  98.9459040  52.4697320
  18.6047670  97.8089590  53.1345940  19.5953270  99.2312490  57.2079560
  19.9662100  98.4479810  56.8015530  20.2355200  99.9201590  57.0296860
  16.5787030 100.6149070  62.6209880  15.7646870 101.0446230  62.8835670
  16.9861230 101.2267480  62.0078930  18.6412470  98.6696760  49.5210150
  18.9161310  99.5775640  49.3929370  18.4523210  98.6059290  50.4572140
  15.0388080  91.6941610  50.8163780  15.4572960  91.5072590  49.9760440
  14.7324140  90.8420660  51.1266710  18.5377810  96.6065750  54.5139580
  18.1621410  95.8393680  54.0820870  17.8080930  96.9888450  55.0014510
   3.1273570  97.2852890  61.1348630   3.4946610  97.1980290  62.0144650
   2.5584390  96.5219440  61.0355490  17.9277430  95.7537270  64.1479100
  17.6963520  95.5250020  63.2477050  18.1881980  96.6736820  64.1023990
   2.6789570  94.1961980  65.0407050   1.7845620  94.1628740  65.3800760
   3.2187120  94.3948770  65.8058300  17.8128770  94.8323240  57.8146820
  18.3366250  94.3385890  57.1836990  18.3988190  94.9673600  58.5594390
  17.9918490  94.9163110  61.3366370  17.0421200  94.8826650  61.4511360
  18.1731500  95.8263220  61.1016140   3.8462930  93.1664790  50.4465000
   4.5554630  92.7448010  49.9612280   3.1302870  93.2340020  49.8148350
   3.4937090  89.2204120  49.4867650   4.2165220  89.7613060  49.8048870
   3.7661610  88.9467540  48.6109190  17.3028740  94.0896590  53.7539230
  17.7987860  93.8567460  54.5388110  17.1044810  93.2508430  53.3376870
   3.1829280  88.4710310  59.3890270   3.8305470  87.9207690  58.9485430
   3.6031120  88.7253460  60.2106080  18.7315900  92.7257540  56.2876910
  18.6215180  92.5713580  57.2259180  19.4923490  92.1978480  56.0452320
  19.6206170  90.5565460  49.5283050  20.5455480  90.4246640  49.3201340
  19.5981960  90.6358280  50.4819500  19.6944660  91.3276120  52.1539760
  18.8996160  91.2621240  52.6832670  19.8987940  92.2626760  52.1425110
  16.6363080 105.3667670  56.1478150  17.2322150 105.0452240  55.4712570
  16.8941230 104.8939490  56.9391420   2.9361280  88.6265980  62.1315590
   2.5876100  89.0829800  62.8973770   2.6048980  87.7323110  62.2138020
   4.5425650 101.7985580  66.2968780   4.4995280 101.4278490  67.1783240
   4.6736660 102.7363150  66.4370600   8.2431680 103.3545170  61.8978500
   8.0023040 103.6219730  61.0109020   9.1834320 103.5250900  61.9529360
  10.4486100  89.8177860  65.6535010  10.3874990  90.4099690  66.4030420
  11.3886480  89.7103820  65.5085270  13.0860660  89.4747920  65.2927300
  13.7001070  89.7927210  64.6308380  13.6310220  88.9896510  65.9123160
  19.5035840 105.3739550  62.6989140  19.0094120 105.7708420  61.9816270
  18.8949130 104.7488760  63.0926420   3.6081920  88.1542180  65.4066360
   4.1564910  87.9730230  64.6432470   3.6737230  87.3636290  65.9422670
   4.3813680 104.7447830  63.4166560   3.7874000 104.6132530  64.1556600
   4.3737520 103.9085970  62.9508660  13.8268700  88.0380060  61.6196590
  12.9528540  88.3715170  61.4169520  13.7179450  87.5653240  62.4448460
  14.7340680  90.2450930  63.0038310  14.4054040  89.4302690  62.6240040
  15.6822980  90.2020740  62.8804000  17.1875290 106.0162970  59.9775880
  16.7278260 106.7678780  59.6033900  16.5587750 105.2969440  59.9190680
   4.0125910 102.1106210  62.3674600   3.2859970 101.4911500  62.3000550
   4.0735060 102.5046820  61.4972680   7.6171010 104.3251210  59.1524010
   8.1336030 103.7138570  58.6272270   8.2668390 104.8279990  59.6435020
  10.3566510 105.2159700  59.9792990  10.6444320 104.9614000  59.1026000
  10.8689730 104.6637060  60.5698560  11.5743520  88.9549900  60.5589500
  10.7915310  89.4295400  60.8386260  11.2806450  88.0504730  60.4502680
  17.9903160  89.2888240  56.6147410  17.9291560  88.3449460  56.4678430
  18.7695190  89.3968330  57.1600870   2.9183930  89.2597380  53.0803220
   3.6763290  89.3726260  52.5067250   2.4561100  90.0966580  53.0346650
   9.4597740  91.3736650  56.0705530   8.6472250  90.9993540  55.7301410
   9.9639380  90.6181730  56.3726720  13.9622720  88.0379100  57.3088600
  14.5652090  88.6099310  57.7837120  13.2215710  88.6018540  57.0862500
  17.1057320  88.4400660  52.5828880  17.3007950  89.3384110  52.8496310
  16.3187190  88.2087740  53.0761830   3.9018610 104.1213830  53.0221500
   3.3766230 104.5021860  52.3183460   3.8263190 104.7464600  53.7431210
   5.2909080  89.7861430  51.6205190   5.8201840  88.9991230  51.4913140
   5.9237400  90.4652620  51.8540720   7.4846920  89.5236570  54.6750580
   6.8549660  88.8223880  54.8420710   6.9452060  90.2840700  54.4583740
  10.4238870 106.1375800  67.3461190  11.3506180 105.9020070  67.3897150
  10.4089300 106.9647800  66.8647220  18.6583930 105.6801370  54.3435440
  18.8336120 104.9939110  53.6996360  17.9605500 106.2048420  53.9512110
   7.6102480  88.8020550  67.1103070   7.3286750  89.3054150  66.3463890
   7.9922180  88.0042300  66.7445200   6.5011580 106.0696210  51.8970750
   7.2330400 105.7855490  51.3494640   6.7605250 105.8309490  52.7870130
   5.6626370 102.1860940  51.9017080   5.0335250 102.6546040  52.4502910
   5.7774200 101.3410160  52.3363270  16.9916430 105.3645660  67.1702230
  17.7841750 104.8694890  66.9628190  17.2849580 106.0435800  67.7777840
  13.1176090  96.2366600  38.0518280  13.0370140  95.3221210  37.7809990
  12.7040510  96.7333670  37.3457990  11.2494130  98.0145620  39.9327550
  10.4736230  97.5346060  40.2226120  11.9007060  97.3351270  39.7583710
   5.2659960  98.3265430  40.8103310   4.4344840  98.0714140  41.2099820
   5.8740940  98.3976200  41.5461230  15.2701560 102.4205810  38.7126680
  14.8083090 101.6493050  39.0413850  16.0827110 102.4471880  39.2179130
   5.2461220 102.3605520  41.0061330   5.5489260 101.4703260  40.8271550
   5.9904810 102.9175740  40.7783580   3.6751910  93.2867320  34.5945700
   2.7868610  93.6283290  34.4925580   3.9593100  93.0867640  33.7026530
  11.4964870 104.7063820  38.3330670  10.8776310 105.1621320  37.7625110
  12.3516650 104.8615280  37.9320370  10.6903120 100.6902810  39.9397710
  10.6211400  99.7492750  39.7786840  11.4522980 100.7804220  40.5120280
   2.8809790  91.2957330  42.2654330   2.7012630  90.3983080  42.5457090
   2.4789870  91.8429200  42.9401280  11.7208290  93.4973190  40.1666640
  12.0973110  92.6245070  40.0540310  11.6227800  93.8331890  39.2757080
   5.8513300  91.8698820  35.6284080   5.9580050  92.7702550  35.9352840
   4.9405660  91.8216790  35.3378730  15.5032410  90.9923630  37.0994980
  16.3242030  90.5020200  37.1420460  15.5366490  91.5821290  37.8526820
   3.4996460  93.7917830  40.8736670   4.1806570  94.0556200  41.4924070
   3.1844510  92.9518700  41.2074680   7.6921030  94.8385190  39.9609260
   8.1999250  95.3366160  40.6014280   8.2234270  94.0620390  39.7848620
  19.7931960  93.0090380  43.6638610  19.0884130  93.3972090  43.1453720
  20.0589880  93.7040670  44.2659540   5.9757130  89.4783750  44.2272680
   5.9775570  89.9956140  43.4218580   5.1461440  89.0013930  44.2042610
  12.3628220  99.5903060  35.7262580  11.7445490 100.0552510  35.1625300
  12.8751470 100.2830540  36.1432090   7.2259980  99.1178930  42.4046180
   6.8929360  99.7447850  43.0467250   7.4026660  99.6440810  41.6247850
  15.7393890  92.9324010  39.8722520  15.0349460  93.2208900  40.4525630
  16.1006050  93.7424120  39.5122080   5.6572460  91.1893710  42.2343130
   5.9989270  92.0335760  41.9397000   4.7188270  91.3377450  42.3508470
   6.4379080 101.0859730  44.2195360   7.0553080 101.7610810  43.9379810
   5.5772200 101.4947710  44.1282860  17.3556670 102.5499140  42.1350000
  16.6720190 103.2198250  42.1266670  17.8950960 102.7479790  41.3694860
  18.8080810  92.3778800  40.2631730  17.8605720  92.4117780  40.3947160
  19.1330800  93.1917750  40.6481090   9.3400350  88.6775980  38.5587720
   9.6475330  88.1222870  37.8423220   8.4101050  88.8120440  38.3760710
  14.8915410 104.3943270  40.8495180  14.9042570 103.9905560  39.9817440
  14.3390630 105.1690560  40.7456610  16.1860830 101.1159490  35.9385350
  16.0757160 100.1733820  36.0634770  16.1829080 101.4775130  36.8248110
  14.2900850  99.2973110  42.1777790  14.7069640  99.0833220  41.3431250
  15.0140670  99.5545900  42.7486410  11.7281110  96.7424810  35.2947840
  10.8010390  96.6762190  35.5236310  11.8805930  97.6804940  35.1803080
  11.7150190  93.0141810  32.2915000  10.7753860  93.1755770  32.3767460
  12.0333450  93.7327490  31.7450990  18.2362950  97.6960330  42.2694030
  17.4081580  97.7653420  41.7944160  18.8313430  98.2814640  41.8009860
  15.7578400  98.3045110  35.7983090  15.1390820  97.9664660  35.1509390
  15.7402850  97.6604870  36.5062280  15.2004960  94.4829650  43.2148900
  14.7876140  95.3083360  43.4688890  14.4680910  93.8974690  43.0225260
   7.3337750  97.2689550  38.0767570   6.9294750  96.5566800  37.5813470
   7.4200870  96.9242790  38.9655610   7.8019450 100.9557110  40.2406780
   7.5047740 100.3502580  39.5614560   8.7519270 100.9934420  40.1296140
   6.0466370  94.0432760  41.8566610   6.5980960  94.1528100  41.0819860
   6.5609880  94.4170360  42.5721840  15.8905060 104.5288980  43.9029880
  15.4135620 105.3361170  43.7102490  15.2066850 103.8767310  44.0556090
   6.8937880 100.6938800  46.8914580   5.9966410 100.9178770  47.1387980
   6.9190750 100.8173740  45.9425980  13.9343100  97.5431920  32.8055840
  14.3736380  96.7054350  32.6593660  14.6471520  98.1761320  32.8919980
   5.7209100  97.5652120  45.4671950   5.5816870  98.4374920  45.8359350
   4.8390460  97.2224930  45.3219890  12.0438480 102.4827990  36.7737080
  12.4834390 103.2252320  36.3592470  11.9825370 102.7254560  37.6976040
   7.5189450 103.5073820  47.6757100   7.4904880 103.9116770  46.8085530
   7.3554420 102.5784180  47.5128700  17.5160240  88.7974730  31.1196880
  17.2032900  88.8901560  32.0195950  18.2772710  89.3755760  31.0694310
   4.0342380  96.1634530  35.5774220   3.9139980  96.8896620  34.9655490
   3.7243270  95.3937440  35.1002130  19.4704270 104.2900920  48.9721270
  19.9463990 104.7683810  49.6510350  20.0911430 104.2218410  48.2466770
   2.9175380 101.0349860  37.7949040   2.5103460 101.1764450  36.9402640
   3.8088390 100.7510020  37.5920250  18.8737520 101.4813770  46.1321280
  19.0000580 101.2425650  45.2138460  18.9158900 100.6498310  46.6043360
  12.7354260 105.1841770  44.7016090  13.2498930 105.0949780  45.5038520
  11.8923340 105.5301470  44.9944000  14.7108660 105.4697110  34.1300090
  14.5509800 105.1800050  35.0281920  14.5455370 104.6937240  33.5945320
   7.1897040 105.2495640  35.9071710   7.0139520 104.3331180  35.6939510
   6.3352780 105.6082930  36.1469510  14.4134790 102.9784670  32.6898090
  13.7199950 102.9761960  32.0300370  15.1557650 102.5543990  32.2592260
  13.9784720 104.6047380  36.7646580  14.4341670 103.8236760  37.0785200
  14.3177240 105.3154200  37.3087760  18.7261530  93.5346230  47.0971020
  18.1105800  94.0425900  46.5686480  18.4057950  92.6344560  47.0396960
   6.5006040  89.5069600  38.9597890   6.0574190  90.2879140  38.6282410
   7.0591030  89.8299490  39.6668830  10.7875850  92.3738120  44.5633210
  10.3255220  92.5821140  45.3753150  10.3853960  91.5597470  44.2603880
  15.7880360  93.5947070  45.6929870  14.9373950  93.2952820  46.0138940
  15.6282150  93.8389080  44.7813690  12.8830070  95.0948820  47.7928660
  13.2083480  94.2612570  47.4530890  13.6710400  95.6177340  47.9406990
   9.6164860  89.1280300  33.8403720   8.9919040  89.1240170  34.5657030
   9.5294980  88.2611260  33.4439690   8.5381940  90.0516930  40.8187490
   8.8354270  90.9579760  40.7379510   9.0867500  89.5635710  40.2047060
   6.2920260  94.6303170  36.6879140   6.0661180  94.4140340  37.5925760
   5.5112790  95.0631630  36.3425110  13.5218020  94.6366540  35.2869790
  12.9226910  95.3602340  35.1033410  14.0697630  94.5743320  34.5046240
   8.7319470  95.5288750  47.3539410   8.6363070  94.5883480  47.2039810
   9.5751450  95.7503820  46.9587480  12.1282890  93.2730080  37.3173070
  12.5212460  93.5902280  36.5041760  12.4899740  92.3941960  37.4317590
   3.8630010  91.9402420  45.5073190   3.4693400  92.7877630  45.7145970
   3.1748410  91.3028790  45.6981830  10.4375060  92.0237390  48.5769930
   9.7473380  91.8309590  49.2116020  11.1807360  92.3072030  49.1094230
  12.7138030  95.8635830  41.4123850  11.9819150  96.3722640  41.7613950
  12.3162370  95.0465810  41.1112630   9.1515420  92.5390030  39.8176340
   9.1551480  92.0979980  38.9680880  10.0466540  92.8607360  39.9248160
   5.0017800  92.4216520  38.7770550   4.6617850  92.8991750  39.5337600
   4.2395120  91.9681640  38.4171650   9.2135570  93.5402110  32.8083100
   9.3348390  93.4988590  33.7568920   8.8284080  94.4026260  32.6529830
  13.1763940  91.3169510  40.8246790  13.1936680  91.7678160  41.6688640
  12.9279520  90.4175150  41.0380230   8.2257070  95.8503250  32.2066400
   7.6573970  95.4021500  31.5802310   8.9346070  96.2096030  31.6731550
  16.6034690  88.7301690  46.6633170  16.9280460  87.9991350  47.1891150
  16.6391200  88.4115330  45.7614160   3.3026250  99.7515270  46.0833130
   2.9181040  99.1108940  46.6816090   3.6138440 100.4551390  46.6527860
   9.4523390  96.5991810  41.5641750   9.8193520  96.1250380  42.3103090
   9.2628450  97.4733380  41.9050090   2.3163880  91.3435500  37.6935220
   2.0310800  90.9791170  38.5313840   2.2542740  90.6115960  37.0798360
   7.2422760  95.6400450  43.8825960   6.9379830  96.5192430  44.1076320
   8.1969220  95.7000240  43.9183400   5.7704550  99.8461440  34.4792810
   4.9966810  99.3059060  34.3191530   6.4999180  99.3268050  34.1410570
  16.5292530  98.8426800  40.2719200  17.2491650  99.3382090  39.8815310
  16.3274350  98.1644690  39.6273070  11.9902470  90.2364760  34.4148590
  11.1767080  89.7377930  34.3393900  11.7964420  91.0763010  33.9984940
  11.9111330  98.9135860  46.1588200  11.8448640  97.9931530  45.9045790
  11.2816470  99.0111300  46.8732840  14.7050860  94.6084410  32.7110750
  15.5930480  94.9201640  32.5362090  14.6755950  93.7356660  32.3191330
   5.8141950  99.5141820  38.1171620   6.3320620  98.7110080  38.0628510
   5.3625970  99.4520960  38.9588450  10.7011450 100.7808100  33.3898920
  11.0427150 101.5250330  32.8942240   9.8724160 101.0939220  33.7523750
   3.2986490  96.4803190  45.0297320   2.9401430  97.1457040  45.6170660
   3.0041050  95.6486740  45.4009940   6.4999610  96.9387430  47.9136870
   6.1999750  97.0844610  47.0164690   7.2710850  96.3792720  47.8210260
  11.8428060 101.7356430  45.9092000  11.8572600 100.8037390  45.6910910
  11.1353160 101.8216190  46.5481770  16.9765130  95.9196250  32.1790610
  16.8928850  96.3510470  31.3287050  17.6959320  96.3794600  32.6117430
  18.0539270  98.3763770  45.2560580  17.3287460  98.9692550  45.0589970
  18.5814730  98.3687310  44.4573950  18.0052380 102.7738510  34.9072740
  17.3628540 102.1194130  35.1816460  17.6183040 103.1793600  34.1313410
  13.5838860 100.1023940  38.7544430  13.9362680  99.5052070  38.0945800
  12.7001190  99.7768170  38.9252680   9.6702140 100.8621630  36.1614840
  10.3573270 101.4090840  36.5422430   8.8834560 101.4062360  36.1964450
   8.9729350  97.8667660  35.7740200   9.4292130  98.6772910  36.0000390
   8.6217560  97.5490800  36.6058690  11.2761960 103.3774000  43.0032500
  11.9204180 103.5833380  43.6805920  11.6391400 102.6162400  42.5503350
   4.8741130  88.2105310  36.2462720   4.7455760  88.2023210  37.1947640
   4.0503150  88.5488400  35.8953730  12.5494040 101.3806350  41.7209950
  13.1916270 100.6799510  41.8342120  13.0743390 102.1604790  41.5406840
  16.3949760 101.6654970  31.4449090  16.1687340 100.9485410  32.0373730
  16.0045960 101.4167410  30.6070840  14.3231660 102.1801250  44.9246010
  14.6587900 102.7667940  45.6023930  13.4032000 102.0493960  45.1543800
   2.1765790 105.6921830  32.2193550   2.5363430 106.2911170  31.5650820
   2.0358130 106.2381720  32.9928580  15.9766010  99.5826910  33.1063250
  15.6887710 100.0439600  33.8941130  16.7718180  99.1224680  33.3747470
  10.1520240 102.2292580  48.0934070   9.8317110 101.5101820  48.6379760
   9.4778600 102.9047650  48.1670130   8.1934410 103.0753030  33.0367220
   8.1844510 103.8082720  32.4211730   7.2732770 102.8284610  33.1294180
   3.7941050  98.2967920  33.7813980   3.1869000  99.0366820  33.7909280
   4.2690400  98.3867280  32.9552180  13.3673840  92.4618740  43.4570870
  13.7354660  91.6413950  43.7850440  12.5072040  92.5220630  43.8726520
  16.7335870  91.4175680  34.2658430  16.1049030  91.5221350  33.5516660
  16.2387790  91.6372460  35.0552310  11.1794010 103.1381270  31.6992410
  11.2805990 102.9345260  30.7694390  10.2795750 102.8839550  31.9040190
   8.7019900  93.6961630  35.6816310   7.9936050  94.1647970  36.1229920
   8.9864380  93.0383640  36.3161500  10.3275830  95.1158330  43.6808840
  10.8261080  95.5904150  44.3460690  10.4698780  94.1921850  43.8878870
  12.7335330  90.4212290  37.1212100  12.6103110  90.4398420  36.1721610
  13.6819890  90.4691230  37.2410500   9.8212120 105.6567590  36.3940080
  10.0753620 105.6188980  35.4719450   8.8724600 105.5300920  36.3868330
   6.9054920  92.0046710  33.0567020   7.7545450  92.4416860  32.9907210
   6.5386190  92.3166970  33.8839080  17.5342690  91.3326290  44.5237230
  17.0316290  92.0731690  44.8631040  18.3499350  91.7210290  44.2074020
  15.8264700  96.5759470  37.9698590  14.8854840  96.5909700  38.1446280
  16.1408770  95.7895430  38.4158890   5.8046340  98.2579070  31.5302550
   6.5709610  98.1460430  32.0927980   5.8821030  97.5617040  30.8779320
   4.4993100  95.6904140  32.2135440   4.5796690  94.7431650  32.3252840
   5.3912850  96.0211020  32.3196100  17.8290280 103.7468320  39.6452850
  17.9537700 104.5699490  40.1176660  18.6955840 103.5359050  39.2977000
   5.3007810 105.8399530  39.3169980   6.0370290 105.2914990  39.5878550
   5.6848730 106.7055540  39.1775970   4.3066090 105.0245600  48.5055560
   5.1078820 105.3457650  48.9190960   3.7917910 104.6641180  49.2275470
   8.4110120 105.0129840  31.1395550   9.2038730 105.3018670  30.6877340
   7.8914470 104.5822010  30.4608030  13.1430720 101.1325470  48.4530970
  12.5368880 101.1557070  47.7126720  12.8384830 100.4008510  48.9898220
  14.5731090 104.8605760  47.0640380  15.5252840 104.7763780  47.0140620
  14.4259310 105.5247470  47.7374170  17.4640290 104.2399970  32.5632290
  17.1781800 103.8265110  31.7486470  17.2659840 105.1687680  32.4432810
   8.9287520 100.2333250  31.0037900   8.8238160  99.6185600  31.7299280
   8.7611740  99.7099140  30.2200910   9.0801840  98.9190050  46.9827130
   8.3147510  99.4875050  46.8981800   9.2617800  98.6266260  46.0895360
  12.1690250  99.2953280  31.6079890  11.6200350  99.7422580  32.2522630
  12.7909510  98.7902530  32.1317560  16.2225190 100.6495380  47.5402150
  16.9634660 100.9871140  47.0369610  15.4597870 100.8187440  46.9871920
   4.0586980  95.6548650  48.3441680   4.0992320  95.3562520  49.2526910
   4.9132480  96.0556260  48.1849200   7.8365370  98.2544200  33.5045190
   8.2581790  98.0884070  34.3476580   7.9616210  97.4444430  33.0100330
   5.9992790  94.2340750  46.3116170   5.4689250  93.7431700  45.6839510
   6.6680860  94.6624950  45.7774100  10.3493010  97.2781810  30.7522290
  10.8698670  96.5630830  30.3863440  10.9961410  97.9167680  31.0522800
  14.8970850  98.7010210  46.0757360  15.3111870  98.8555290  46.9247780
  13.9621850  98.8265430  46.2383140  15.3693020  96.0406370  48.0796510
  15.9513790  95.2858690  47.9916990  15.5454790  96.5713810  47.3027990
   6.4865090  91.2003120  46.3913460   6.3921960  90.5823870  45.6664330
   5.9062480  91.9269410  46.1643370   9.2526530  89.7576360  43.4240850
   8.8043830  89.7800620  42.5786400   8.6191730  89.3595380  44.0211150
   9.6586080  98.6530690  44.0453290  10.0774190  99.4963420  43.8729530
   8.7394710  98.7902730  43.8160070  11.9949980  96.3846870  45.4291130
  12.1146190  95.7888010  46.1685970  12.8543980  96.4216560  45.0092430
  14.3337880  96.9384060  44.0053640  13.8073100  97.4626680  43.4018780
  14.6769220  97.5711450  44.6363370   6.7324270  94.3277430  30.4503350
   6.5313330  93.4644790  30.8116690   6.5616320  94.2410790  29.5124950
   7.5093500 104.9583700  45.1611020   6.9714590 105.6829760  44.8419720
   7.7627460 104.4814040  44.3708360   8.7618750  92.9268220  46.6866950
   9.3518440  92.6184070  47.3744770   7.9438990  92.4547970  46.8426850
  13.5812180  92.5434030  46.9199970  12.8927700  91.8815570  46.8549960
  14.3018200  92.0972300  47.3648430  14.2112580  89.1385660  32.9790230
  14.4914870  88.2953560  33.3349650  13.4378310  89.3708770  33.4928980
   5.5307070  91.4278050  30.4381230   5.8332970  91.4345480  29.5300380
   6.2701660  91.0775910  30.9348890  10.3655710 106.1934910  45.4197670
  10.2914410 107.0970050  45.7270040   9.4634550 105.8746810  45.3919740
   8.7492000  90.3712670  31.4237430   8.4014000  89.6936660  30.8439880
   8.9504770  89.9102180  32.2380820  10.9141040 105.3593420  33.0424030
  11.8091830 105.6978390  33.0642790  10.9458670 104.6372830  32.4148310
   4.5537200 100.7320470  31.2711030   4.9912070 101.2750140  31.9268610
   5.0384930  99.9067420  31.2807370   1.7683000 103.5209500  38.7231290
   2.0986010 102.6530560  38.4909930   2.1974000 103.7268020  39.5536250
   6.3644920 101.8518510  36.3833260   6.0640460 101.7283480  37.2837170
   6.2582410 100.9927100  35.9748990   2.2573210 104.3880090  41.4612920
   1.8204200 104.5680890  42.2937070   2.8250890 105.1454710  41.3194640
  17.8935390 103.8897090  45.7490230  17.2937380 103.9489650  45.0054150
  18.0229290 102.9502070  45.8787080  19.1336840 101.6314910  31.0859940
  18.3029800 101.6991560  31.5567170  19.3108670 102.5219030  30.7826800
  18.5893300  98.3762390  33.5894140  19.3512210  98.9459040  33.6953830
  18.6047670  97.8089590  34.3602450  19.5953270  99.2312490  38.4336070
  19.9662100  98.4479810  38.0272040  20.2355200  99.9201590  38.2553370
  16.5787030 100.6149070  43.8466390  15.7646870 101.0446230  44.1092180
  16.9861230 101.2267480  43.2335440  18.6412470  98.6696760  30.7466660
  18.9161310  99.5775640  30.6185880  18.4523210  98.6059290  31.6828650
  15.0388080  91.6941610  32.0420290  15.4572960  91.5072590  31.2016950
  14.7324140  90.8420660  32.3523220  18.5377810  96.6065750  35.7396090
  18.1621410  95.8393680  35.3077380  17.8080930  96.9888450  36.2271020
   3.1273570  97.2852890  42.3605140   3.4946610  97.1980290  43.2401160
   2.5584390  96.5219440  42.2612000  17.9277430  95.7537270  45.3735610
  17.6963520  95.5250020  44.4733560  18.1881980  96.6736820  45.3280500
   2.6789570  94.1961980  46.2663560   1.7845620  94.1628740  46.6057270
   3.2187120  94.3948770  47.0314810  16.3665500  90.9793700  48.1515310
  17.2435680  90.9877100  48.5349310  16.3786340  90.2424540  47.5407660
  17.8128770  94.8323240  39.0403330  18.3366250  94.3385890  38.4093500
  18.3988190  94.9673600  39.7850900  17.9918490  94.9163110  42.5622880
  17.0421200  94.8826650  42.6767870  18.1731500  95.8263220  42.3272650
   3.8462930  93.1664790  31.6721510   4.5554630  92.7448010  31.1868790
   3.1302870  93.2340020  31.0404860   3.4937090  89.2204120  30.7124160
   4.2165220  89.7613060  31.0305380   3.7661610  88.9467540  29.8365700
  17.3028740  94.0896590  34.9795740  17.7987860  93.8567460  35.7644620
  17.1044810  93.2508430  34.5633380   3.1829280  88.4710310  40.6146780
   3.8305470  87.9207690  40.1741940   3.6031120  88.7253460  41.4362590
  18.7315900  92.7257540  37.5133420  18.6215180  92.5713580  38.4515690
  19.4923490  92.1978480  37.2708830  17.0781620  88.6651670  43.9716420
  17.7153840  89.2785810  44.3375610  17.2256510  88.7012330  43.0265650
  19.6206170  90.5565460  30.7539560  20.5455480  90.4246640  30.5457850
  19.5981960  90.6358280  31.7076010  19.6944660  91.3276120  33.3796270
  18.8996160  91.2621240  33.9089180  19.8987940  92.2626760  33.3681620
  16.6363080 105.3667670  37.3734660  17.2322150 105.0452240  36.6969080
  16.8941230 104.8939490  38.1647930   2.9361280  88.6265980  43.3572100
   2.5876100  89.0829800  44.1230280   2.6048980  87.7323110  43.4394530
   4.5425650 101.7985580  47.5225290   4.4995280 101.4278490  48.4039750
   4.6736660 102.7363150  47.6627110   8.2431680 103.3545170  43.1235010
   8.0023040 103.6219730  42.2365530   9.1834320 103.5250900  43.1785870
  10.4486100  89.8177860  46.8791520  10.3874990  90.4099690  47.6286930
  11.3886480  89.7103820  46.7341780  13.0860660  89.4747920  46.5183810
  13.7001070  89.7927210  45.8564890  13.6310220  88.9896510  47.1379670
  19.5035840 105.3739550  43.9245650  19.0094120 105.7708420  43.2072780
  18.8949130 104.7488760  44.3182930   3.6081920  88.1542180  46.6322870
   4.1564910  87.9730230  45.8688980   3.6737230  87.3636290  47.1679180
   4.3813680 104.7447830  44.6423070   3.7874000 104.6132530  45.3813110
   4.3737520 103.9085970  44.1765170  13.8268700  88.0380060  42.8453100
  12.9528540  88.3715170  42.6426030  13.7179450  87.5653240  43.6704970
  14.7340680  90.2450930  44.2294820  14.4054040  89.4302690  43.8496550
  15.6822980  90.2020740  44.1060510  17.1875290 106.0162970  41.2032390
  16.7278260 106.7678780  40.8290410  16.5587750 105.2969440  41.1447190
   4.0125910 102.1106210  43.5931110   3.2859970 101.4911500  43.5257060
   4.0735060 102.5046820  42.7229190   7.6171010 104.3251210  40.3780520
   8.1336030 103.7138570  39.8528780   8.2668390 104.8279990  40.8691530
  10.3566510 105.2159700  41.2049500  10.6444320 104.9614000  40.3282510
  10.8689730 104.6637060  41.7955070  11.5743520  88.9549900  41.7846010
  10.7915310  89.4295400  42.0642770  11.2806450  88.0504730  41.6759190
  16.1264590  89.6573000  39.8295100  16.5672680  89.6018100  38.9816700
  15.8572180  90.5731010  39.9005280  17.9903160  89.2888240  37.8403920
  17.9291560  88.3449460  37.6934940  18.7695190  89.3968330  38.3857380
   2.9183930  89.2597380  34.3059730   3.6763290  89.3726260  33.7323760
   2.4561100  90.0966580  34.2603160   9.4597740  91.3736650  37.2962040
   8.6472250  90.9993540  36.9557920   9.9639380  90.6181730  37.5983230
  13.9622720  88.0379100  38.5345110  14.5652090  88.6099310  39.0093630
  13.2215710  88.6018540  38.3119010  17.1057320  88.4400660  33.8085390
  17.3007950  89.3384110  34.0752820  16.3187190  88.2087740  34.3018340
   3.9018610 104.1213830  34.2478010   3.3766230 104.5021860  33.5439970
   3.8263190 104.7464600  34.9687720   5.2909080  89.7861430  32.8461700
   5.8201840  88.9991230  32.7169650   5.9237400  90.4652620  33.0797230
   7.4846920  89.5236570  35.9007090   6.8549660  88.8223880  36.0677220
   6.9452060  90.2840700  35.6840250  10.4238870 106.1375800  48.5717700
  11.3506180 105.9020070  48.6153660  10.4089300 106.9647800  48.0903730
  18.6583930 105.6801370  35.5691950  18.8336120 104.9939110  34.9252870
  17.9605500 106.2048420  35.1768620   7.6102480  88.8020550  48.3359580
   7.3286750  89.3054150  47.5720400   7.9922180  88.0042300  47.9701710
   6.5011580 106.0696210  33.1227260   7.2330400 105.7855490  32.5751150
   6.7605250 105.8309490  34.0126640   5.6626370 102.1860940  33.1273590
   5.0335250 102.6546040  33.6759420   5.7774200 101.3410160  33.5619780
  14.2117940  88.2174130  48.9140050  14.0983390  88.5368740  49.8091570
  15.0287680  88.6186640  48.6177330  16.9916430 105.3645660  48.3958740
  17.7841750 104.8694890  48.1884700  17.2849580 106.0435800  49.0034350
  13.1176090  96.2366600  19.2774790  13.0370140  95.3221210  19.0066500
  12.7040510  96.7333670  18.5714500  11.2494130  98.0145620  21.1584060
  10.4736230  97.5346060  21.4482630  11.9007060  97.3351270  20.9840220
   5.2659960  98.3265430  22.0359820   4.4344840  98.0714140  22.4356330
   5.8740940  98.3976200  22.7717740  15.2701560 102.4205810  19.9383190
  14.8083090 101.6493050  20.2670360  16.0827110 102.4471880  20.4435640
   5.2461220 102.3605520  22.2317840   5.5489260 101.4703260  22.0528060
   5.9904810 102.9175740  22.0040090   3.6751910  93.2867320  15.8202210
   2.7868610  93.6283290  15.7182090   3.9593100  93.0867640  14.9283040
  11.4964870 104.7063820  19.5587180  10.8776310 105.1621320  18.9881620
  12.3516650 104.8615280  19.1576880  10.6903120 100.6902810  21.1654220
  10.6211400  99.7492750  21.0043350  11.4522980 100.7804220  21.7376790
   2.8809790  91.2957330  23.4910840   2.7012630  90.3983080  23.7713600
   2.4789870  91.8429200  24.1657790  11.7208290  93.4973190  21.3923150
  12.0973110  92.6245070  21.2796820  11.6227800  93.8331890  20.5013590
   5.8513300  91.8698820  16.8540590   5.9580050  92.7702550  17.1609350
   4.9405660  91.8216790  16.5635240  15.5032410  90.9923630  18.3251490
  16.3242030  90.5020200  18.3676970  15.5366490  91.5821290  19.0783330
   3.4996460  93.7917830  22.0993180   4.1806570  94.0556200  22.7180580
   3.1844510  92.9518700  22.4331190   7.6921030  94.8385190  21.1865770
   8.1999250  95.3366160  21.8270790   8.2234270  94.0620390  21.0105130
  19.7931960  93.0090380  24.8895120  19.0884130  93.3972090  24.3710230
  20.0589880  93.7040670  25.4916050   5.9757130  89.4783750  25.4529190
   5.9775570  89.9956140  24.6475090   5.1461440  89.0013930  25.4299120
  12.3628220  99.5903060  16.9519090  11.7445490 100.0552510  16.3881810
  12.8751470 100.2830540  17.3688600   7.2259980  99.1178930  23.6302690
   6.8929360  99.7447850  24.2723760   7.4026660  99.6440810  22.8504360
  15.7393890  92.9324010  21.0979030  15.0349460  93.2208900  21.6782140
  16.1006050  93.7424120  20.7378590   5.6572460  91.1893710  23.4599640
   5.9989270  92.0335760  23.1653510   4.7188270  91.3377450  23.5764980
   6.4379080 101.0859730  25.4451870   7.0553080 101.7610810  25.1636320
   5.5772200 101.4947710  25.3539370  17.3556670 102.5499140  23.3606510
  16.6720190 103.2198250  23.3523180  17.8950960 102.7479790  22.5951370
  18.8080810  92.3778800  21.4888240  17.8605720  92.4117780  21.6203670
  19.1330800  93.1917750  21.8737600   9.3400350  88.6775980  19.7844230
   9.6475330  88.1222870  19.0679730   8.4101050  88.8120440  19.6017220
  14.8915410 104.3943270  22.0751690  14.9042570 103.9905560  21.2073950
  14.3390630 105.1690560  21.9713120  16.1860830 101.1159490  17.1641860
  16.0757160 100.1733820  17.2891280  16.1829080 101.4775130  18.0504620
  14.2900850  99.2973110  23.4034300  14.7069640  99.0833220  22.5687760
  15.0140670  99.5545900  23.9742920  11.7281110  96.7424810  16.5204350
  10.8010390  96.6762190  16.7492820  11.8805930  97.6804940  16.4059590
  11.7150190  93.0141810  13.5171510  10.7753860  93.1755770  13.6023970
  12.0333450  93.7327490  12.9707500  18.2362950  97.6960330  23.4950540
  17.4081580  97.7653420  23.0200670  18.8313430  98.2814640  23.0266370
  15.7578400  98.3045110  17.0239600  15.1390820  97.9664660  16.3765900
  15.7402850  97.6604870  17.7318790  15.2004960  94.4829650  24.4405410
  14.7876140  95.3083360  24.6945400  14.4680910  93.8974690  24.2481770
   7.3337750  97.2689550  19.3024080   6.9294750  96.5566800  18.8069980
   7.4200870  96.9242790  20.1912120   7.8019450 100.9557110  21.4663290
   7.5047740 100.3502580  20.7871070   8.7519270 100.9934420  21.3552650
   6.0466370  94.0432760  23.0823120   6.5980960  94.1528100  22.3076370
   6.5609880  94.4170360  23.7978350  15.8905060 104.5288980  25.1286390
  15.4135620 105.3361170  24.9359000  15.2066850 103.8767310  25.2812600
   6.8937880 100.6938800  28.1171090   5.9966410 100.9178770  28.3644490
   6.9190750 100.8173740  27.1682490  13.9343100  97.5431920  14.0312350
  14.3736380  96.7054350  13.8850170  14.6471520  98.1761320  14.1176490
   5.7209100  97.5652120  26.6928460   5.5816870  98.4374920  27.0615860
   4.8390460  97.2224930  26.5476400  12.0438480 102.4827990  17.9993590
  12.4834390 103.2252320  17.5848980  11.9825370 102.7254560  18.9232550
   7.5189450 103.5073820  28.9013610   7.4904880 103.9116770  28.0342040
   7.3554420 102.5784180  28.7385210  17.5160240  88.7974730  12.3453390
  17.2032900  88.8901560  13.2452460  18.2772710  89.3755760  12.2950820
   4.0342380  96.1634530  16.8030730   3.9139980  96.8896620  16.1912000
   3.7243270  95.3937440  16.3258640  19.4704270 104.2900920  30.1977780
  19.9463990 104.7683810  30.8766860  20.0911430 104.2218410  29.4723280
   2.9175380 101.0349860  19.0205550   2.5103460 101.1764450  18.1659150
   3.8088390 100.7510020  18.8176760  18.8737520 101.4813770  27.3577790
  19.0000580 101.2425650  26.4394970  18.9158900 100.6498310  27.8299870
  12.7354260 105.1841770  25.9272600  13.2498930 105.0949780  26.7295030
  11.8923340 105.5301470  26.2200510  14.7108660 105.4697110  15.3556600
  14.5509800 105.1800050  16.2538430  14.5455370 104.6937240  14.8201830
   7.1897040 105.2495640  17.1328220   7.0139520 104.3331180  16.9196020
   6.3352780 105.6082930  17.3726020  14.4134790 102.9784670  13.9154600
  13.7199950 102.9761960  13.2556880  15.1557650 102.5543990  13.4848770
  13.9784720 104.6047380  17.9903090  14.4341670 103.8236760  18.3041710
  14.3177240 105.3154200  18.5344270  18.7261530  93.5346230  28.3227530
  18.1105800  94.0425900  27.7942990  18.4057950  92.6344560  28.2653470
   6.5006040  89.5069600  20.1854400   6.0574190  90.2879140  19.8538920
   7.0591030  89.8299490  20.8925340  10.7875850  92.3738120  25.7889720
  10.3255220  92.5821140  26.6009660  10.3853960  91.5597470  25.4860390
  15.7880360  93.5947070  26.9186380  14.9373950  93.2952820  27.2395450
  15.6282150  93.8389080  26.0070200  12.8830070  95.0948820  29.0185170
  13.2083480  94.2612570  28.6787400  13.6710400  95.6177340  29.1663500
   9.6164860  89.1280300  15.0660230   8.9919040  89.1240170  15.7913540
   9.5294980  88.2611260  14.6696200   8.5381940  90.0516930  22.0444000
   8.8354270  90.9579760  21.9636020   9.0867500  89.5635710  21.4303570
   6.2920260  94.6303170  17.9135650   6.0661180  94.4140340  18.8182270
   5.5112790  95.0631630  17.5681620  13.5218020  94.6366540  16.5126300
  12.9226910  95.3602340  16.3289920  14.0697630  94.5743320  15.7302750
   8.7319470  95.5288750  28.5795920   8.6363070  94.5883480  28.4296320
   9.5751450  95.7503820  28.1843990  12.1282890  93.2730080  18.5429580
  12.5212460  93.5902280  17.7298270  12.4899740  92.3941960  18.6574100
   3.8630010  91.9402420  26.7329700   3.4693400  92.7877630  26.9402480
   3.1748410  91.3028790  26.9238340  10.4375060  92.0237390  29.8026440
   9.7473380  91.8309590  30.4372530  11.1807360  92.3072030  30.3350740
  12.7138030  95.8635830  22.6380360  11.9819150  96.3722640  22.9870460
  12.3162370  95.0465810  22.3369140   9.1515420  92.5390030  21.0432850
   9.1551480  92.0979980  20.1937390  10.0466540  92.8607360  21.1504670
   5.0017800  92.4216520  20.0027060   4.6617850  92.8991750  20.7594110
   4.2395120  91.9681640  19.6428160   9.2135570  93.5402110  14.0339610
   9.3348390  93.4988590  14.9825430   8.8284080  94.4026260  13.8786340
  13.1763940  91.3169510  22.0503300  13.1936680  91.7678160  22.8945150
  12.9279520  90.4175150  22.2636740   8.2257070  95.8503250  13.4322910
   7.6573970  95.4021500  12.8058820   8.9346070  96.2096030  12.8988060
  16.6034690  88.7301690  27.8889680  16.9280460  87.9991350  28.4147660
  16.6391200  88.4115330  26.9870670   3.3026250  99.7515270  27.3089640
   2.9181040  99.1108940  27.9072600   3.6138440 100.4551390  27.8784370
   9.4523390  96.5991810  22.7898260   9.8193520  96.1250380  23.5359600
   9.2628450  97.4733380  23.1306600   2.3163880  91.3435500  18.9191730
   2.0310800  90.9791170  19.7570350   2.2542740  90.6115960  18.3054870
   7.2422760  95.6400450  25.1082470   6.9379830  96.5192430  25.3332830
   8.1969220  95.7000240  25.1439910   5.7704550  99.8461440  15.7049320
   4.9966810  99.3059060  15.5448040   6.4999180  99.3268050  15.3667080
  16.5292530  98.8426800  21.4975710  17.2491650  99.3382090  21.1071820
  16.3274350  98.1644690  20.8529580  11.9902470  90.2364760  15.6405100
  11.1767080  89.7377930  15.5650410  11.7964420  91.0763010  15.2241450
  11.9111330  98.9135860  27.3844710  11.8448640  97.9931530  27.1302300
  11.2816470  99.0111300  28.0989350  14.7050860  94.6084410  13.9367260
  15.5930480  94.9201640  13.7618600  14.6755950  93.7356660  13.5447840
   5.8141950  99.5141820  19.3428130   6.3320620  98.7110080  19.2885020
   5.3625970  99.4520960  20.1844960  10.7011450 100.7808100  14.6155430
  11.0427150 101.5250330  14.1198750   9.8724160 101.0939220  14.9780260
   3.2986490  96.4803190  26.2553830   2.9401430  97.1457040  26.8427170
   3.0041050  95.6486740  26.6266450   6.4999610  96.9387430  29.1393380
   6.1999750  97.0844610  28.2421200   7.2710850  96.3792720  29.0466770
  11.8428060 101.7356430  27.1348510  11.8572600 100.8037390  26.9167420
  11.1353160 101.8216190  27.7738280  16.9765130  95.9196250  13.4047120
  16.8928850  96.3510470  12.5543560  17.6959320  96.3794600  13.8373940
  18.0539270  98.3763770  26.4817090  17.3287460  98.9692550  26.2846480
  18.5814730  98.3687310  25.6830460  18.0052380 102.7738510  16.1329250
  17.3628540 102.1194130  16.4072970  17.6183040 103.1793600  15.3569920
  13.5838860 100.1023940  19.9800940  13.9362680  99.5052070  19.3202310
  12.7001190  99.7768170  20.1509190   9.6702140 100.8621630  17.3871350
  10.3573270 101.4090840  17.7678940   8.8834560 101.4062360  17.4220960
   8.9729350  97.8667660  16.9996710   9.4292130  98.6772910  17.2256900
   8.6217560  97.5490800  17.8315200  11.2761960 103.3774000  24.2289010
  11.9204180 103.5833380  24.9062430  11.6391400 102.6162400  23.7759860
   4.8741130  88.2105310  17.4719230   4.7455760  88.2023210  18.4204150
   4.0503150  88.5488400  17.1210240  12.5494040 101.3806350  22.9466460
  13.1916270 100.6799510  23.0598630  13.0743390 102.1604790  22.7663350
  16.3949760 101.6654970  12.6705600  16.1687340 100.9485410  13.2630240
  16.0045960 101.4167410  11.8327350  14.3231660 102.1801250  26.1502520
  14.6587900 102.7667940  26.8280440  13.4032000 102.0493960  26.3800310
   2.1765790 105.6921830  13.4450060   2.5363430 106.2911170  12.7907330
   2.0358130 106.2381720  14.2185090  15.9766010  99.5826910  14.3319760
  15.6887710 100.0439600  15.1197640  16.7718180  99.1224680  14.6003980
  10.1520240 102.2292580  29.3190580   9.8317110 101.5101820  29.8636270
   9.4778600 102.9047650  29.3926640   8.1934410 103.0753030  14.2623730
   8.1844510 103.8082720  13.6468240   7.2732770 102.8284610  14.3550690
   3.7941050  98.2967920  15.0070490   3.1869000  99.0366820  15.0165790
   4.2690400  98.3867280  14.1808690  13.3673840  92.4618740  24.6827380
  13.7354660  91.6413950  25.0106950  12.5072040  92.5220630  25.0983030
  16.7335870  91.4175680  15.4914940  16.1049030  91.5221350  14.7773170
  16.2387790  91.6372460  16.2808820  11.1794010 103.1381270  12.9248920
  11.2805990 102.9345260  11.9950900  10.2795750 102.8839550  13.1296700
   8.7019900  93.6961630  16.9072820   7.9936050  94.1647970  17.3486430
   8.9864380  93.0383640  17.5418010  10.3275830  95.1158330  24.9065350
  10.8261080  95.5904150  25.5717200  10.4698780  94.1921850  25.1135380
  12.7335330  90.4212290  18.3468610  12.6103110  90.4398420  17.3978120
  13.6819890  90.4691230  18.4667010   9.8212120 105.6567590  17.6196590
  10.0753620 105.6188980  16.6975960   8.8724600 105.5300920  17.6124840
   6.9054920  92.0046710  14.2823530   7.7545450  92.4416860  14.2163720
   6.5386190  92.3166970  15.1095590  17.5342690  91.3326290  25.7493740
  17.0316290  92.0731690  26.0887550  18.3499350  91.7210290  25.4330530
  15.8264700  96.5759470  19.1955100  14.8854840  96.5909700  19.3702790
  16.1408770  95.7895430  19.6415400   5.8046340  98.2579070  12.7559060
   6.5709610  98.1460430  13.3184490   5.8821030  97.5617040  12.1035830
   4.4993100  95.6904140  13.4391950   4.5796690  94.7431650  13.5509350
   5.3912850  96.0211020  13.5452610  17.8290280 103.7468320  20.8709360
  17.9537700 104.5699490  21.3433170  18.6955840 103.5359050  20.5233510
   5.3007810 105.8399530  20.5426490   6.0370290 105.2914990  20.8135060
   5.6848730 106.7055540  20.4032480   4.3066090 105.0245600  29.7312070
   5.1078820 105.3457650  30.1447470   3.7917910 104.6641180  30.4531980
   8.4110120 105.0129840  12.3652060   9.2038730 105.3018670  11.9133850
   7.8914470 104.5822010  11.6864540  13.1430720 101.1325470  29.6787480
  12.5368880 101.1557070  28.9383230  12.8384830 100.4008510  30.2154730
  14.5731090 104.8605760  28.2896890  15.5252840 104.7763780  28.2397130
  14.4259310 105.5247470  28.9630680  17.4640290 104.2399970  13.7888800
  17.1781800 103.8265110  12.9742980  17.2659840 105.1687680  13.6689320
   8.9287520 100.2333250  12.2294410   8.8238160  99.6185600  12.9555790
   8.7611740  99.7099140  11.4457420   9.0801840  98.9190050  28.2083640
   8.3147510  99.4875050  28.1238310   9.2617800  98.6266260  27.3151870
  12.1690250  99.2953280  12.8336400  11.6200350  99.7422580  13.4779140
  12.7909510  98.7902530  13.3574070  16.2225190 100.6495380  28.7658660
  16.9634660 100.9871140  28.2626120  15.4597870 100.8187440  28.2128430
   4.0586980  95.6548650  29.5698190   4.0992320  95.3562520  30.4783420
   4.9132480  96.0556260  29.4105710   7.8365370  98.2544200  14.7301700
   8.2581790  98.0884070  15.5733090   7.9616210  97.4444430  14.2356840
   5.9992790  94.2340750  27.5372680   5.4689250  93.7431700  26.9096020
   6.6680860  94.6624950  27.0030610  10.3493010  97.2781810  11.9778800
  10.8698670  96.5630830  11.6119950  10.9961410  97.9167680  12.2779310
  14.8970850  98.7010210  27.3013870  15.3111870  98.8555290  28.1504290
  13.9621850  98.8265430  27.4639650  15.3693020  96.0406370  29.3053020
  15.9513790  95.2858690  29.2173500  15.5454790  96.5713810  28.5284500
   6.4865090  91.2003120  27.6169970   6.3921960  90.5823870  26.8920840
   5.9062480  91.9269410  27.3899880   9.2526530  89.7576360  24.6497360
   8.8043830  89.7800620  23.8042910   8.6191730  89.3595380  25.2467660
   9.6586080  98.6530690  25.2709800  10.0774190  99.4963420  25.0986040
   8.7394710  98.7902730  25.0416580  11.9949980  96.3846870  26.6547640
  12.1146190  95.7888010  27.3942480  12.8543980  96.4216560  26.2348940
  14.3337880  96.9384060  25.2310150  13.8073100  97.4626680  24.6275290
  14.6769220  97.5711450  25.8619880   6.7324270  94.3277430  11.6759860
   6.5313330  93.4644790  12.0373200   6.5616320  94.2410790  10.7381460
   7.5093500 104.9583700  26.3867530   6.9714590 105.6829760  26.0676230
   7.7627460 104.4814040  25.5964870   8.7618750  92.9268220  27.9123460
   9.3518440  92.6184070  28.6001280   7.9438990  92.4547970  28.0683360
  13.5812180  92.5434030  28.1456480  12.8927700  91.8815570  28.0806470
  14.3018200  92.0972300  28.5904940  14.2112580  89.1385660  14.2046740
  14.4914870  88.2953560  14.5606160  13.4378310  89.3708770  14.7185490
   5.5307070  91.4278050  11.6637740   5.8332970  91.4345480  10.7556890
   6.2701660  91.0775910  12.1605400  10.3655710 106.1934910  26.6454180
  10.2914410 107.0970050  26.9526550   9.4634550 105.8746810  26.6176250
   8.7492000  90.3712670  12.6493940   8.4014000  89.6936660  12.0696390
   8.9504770  89.9102180  13.4637330  10.9141040 105.3593420  14.2680540
  11.8091830 105.6978390  14.2899300  10.9458670 104.6372830  13.6404820
   4.5537200 100.7320470  12.4967540   4.9912070 101.2750140  13.1525120
   5.0384930  99.9067420  12.5063880   1.7683000 103.5209500  19.9487800
   2.0986010 102.6530560  19.7166440   2.1974000 103.7268020  20.7792760
   6.3644920 101.8518510  17.6089770   6.0640460 101.7283480  18.5093680
   6.2582410 100.9927100  17.2005500   2.2573210 104.3880090  22.6869430
   1.8204200 104.5680890  23.5193580   2.8250890 105.1454710  22.5451150
  17.8935390 103.8897090  26.9746740  17.2937380 103.9489650  26.2310660
  18.0229290 102.9502070  27.1043590  19.1336840 101.6314910  12.3116450
  18.3029800 101.6991560  12.7823680  19.3108670 102.5219030  12.0083310
  18.5893300  98.3762390  14.8150650  19.3512210  98.9459040  14.9210340
  18.6047670  97.8089590  15.5858960  19.5953270  99.2312490  19.6592580
  19.9662100  98.4479810  19.2528550  20.2355200  99.9201590  19.4809880
  16.5787030 100.6149070  25.0722900  15.7646870 101.0446230  25.3348690
  16.9861230 101.2267480  24.4591950  18.6412470  98.6696760  11.9723170
  18.9161310  99.5775640  11.8442390  18.4523210  98.6059290  12.9085160
  15.0388080  91.6941610  13.2676800  15.4572960  91.5072590  12.4273460
  14.7324140  90.8420660  13.5779730  18.5377810  96.6065750  16.9652600
  18.1621410  95.8393680  16.5333890  17.8080930  96.9888450  17.4527530
   3.1273570  97.2852890  23.5861650   3.4946610  97.1980290  24.4657670
   2.5584390  96.5219440  23.4868510  17.9277430  95.7537270  26.5992120
  17.6963520  95.5250020  25.6990070  18.1881980  96.6736820  26.5537010
   2.6789570  94.1961980  27.4920070   1.7845620  94.1628740  27.8313780
   3.2187120  94.3948770  28.2571320  16.3665500  90.9793700  29.3771820
  17.2435680  90.9877100  29.7605820  16.3786340  90.2424540  28.7664170
  17.8128770  94.8323240  20.2659840  18.3366250  94.3385890  19.6350010
  18.3988190  94.9673600  21.0107410  17.9918490  94.9163110  23.7879390
  17.0421200  94.8826650  23.9024380  18.1731500  95.8263220  23.5529160
   3.8462930  93.1664790  12.8978020   4.5554630  92.7448010  12.4125300
   3.1302870  93.2340020  12.2661370   3.4937090  89.2204120  11.9380670
   4.2165220  89.7613060  12.2561890   3.7661610  88.9467540  11.0622210
  17.3028740  94.0896590  16.2052250  17.7987860  93.8567460  16.9901130
  17.1044810  93.2508430  15.7889890   3.1829280  88.4710310  21.8403290
   3.8305470  87.9207690  21.3998450   3.6031120  88.7253460  22.6619100
  18.7315900  92.7257540  18.7389930  18.6215180  92.5713580  19.6772200
  19.4923490  92.1978480  18.4965340  17.0781620  88.6651670  25.1972930
  17.7153840  89.2785810  25.5632120  17.2256510  88.7012330  24.2522160
  19.6206170  90.5565460  11.9796070  20.5455480  90.4246640  11.7714360
  19.5981960  90.6358280  12.9332520  19.6944660  91.3276120  14.6052780
  18.8996160  91.2621240  15.1345690  19.8987940  92.2626760  14.5938130
  16.6363080 105.3667670  18.5991170  17.2322150 105.0452240  17.9225590
  16.8941230 104.8939490  19.3904440   2.9361280  88.6265980  24.5828610
   2.5876100  89.0829800  25.3486790   2.6048980  87.7323110  24.6651040
   4.5425650 101.7985580  28.7481800   4.4995280 101.4278490  29.6296260
   4.6736660 102.7363150  28.8883620   8.2431680 103.3545170  24.3491520
   8.0023040 103.6219730  23.4622040   9.1834320 103.5250900  24.4042380
  10.4486100  89.8177860  28.1048030  10.3874990  90.4099690  28.8543440
  11.3886480  89.7103820  27.9598290  13.0860660  89.4747920  27.7440320
  13.7001070  89.7927210  27.0821400  13.6310220  88.9896510  28.3636180
  19.5035840 105.3739550  25.1502160  19.0094120 105.7708420  24.4329290
  18.8949130 104.7488760  25.5439440   3.6081920  88.1542180  27.8579380
   4.1564910  87.9730230  27.0945490   3.6737230  87.3636290  28.3935690
   4.3813680 104.7447830  25.8679580   3.7874000 104.6132530  26.6069620
   4.3737520 103.9085970  25.4021680  13.8268700  88.0380060  24.0709610
  12.9528540  88.3715170  23.8682540  13.7179450  87.5653240  24.8961480
  14.7340680  90.2450930  25.4551330  14.4054040  89.4302690  25.0753060
  15.6822980  90.2020740  25.3317020  17.1875290 106.0162970  22.4288900
  16.7278260 106.7678780  22.0546920  16.5587750 105.2969440  22.3703700
   4.0125910 102.1106210  24.8187620   3.2859970 101.4911500  24.7513570
   4.0735060 102.5046820  23.9485700   7.6171010 104.3251210  21.6037030
   8.1336030 103.7138570  21.0785290   8.2668390 104.8279990  22.0948040
  10.3566510 105.2159700  22.4306010  10.6444320 104.9614000  21.5539020
  10.8689730 104.6637060  23.0211580  11.5743520  88.9549900  23.0102520
  10.7915310  89.4295400  23.2899280  11.2806450  88.0504730  22.9015700
  16.1264590  89.6573000  21.0551610  16.5672680  89.6018100  20.2073210
  15.8572180  90.5731010  21.1261790  17.9903160  89.2888240  19.0660430
  17.9291560  88.3449460  18.9191450  18.7695190  89.3968330  19.6113890
   2.9183930  89.2597380  15.5316240   3.6763290  89.3726260  14.9580270
   2.4561100  90.0966580  15.4859670   9.4597740  91.3736650  18.5218550
   8.6472250  90.9993540  18.1814430   9.9639380  90.6181730  18.8239740
  13.9622720  88.0379100  19.7601620  14.5652090  88.6099310  20.2350140
  13.2215710  88.6018540  19.5375520  17.1057320  88.4400660  15.0341900
  17.3007950  89.3384110  15.3009330  16.3187190  88.2087740  15.5274850
   3.9018610 104.1213830  15.4734520   3.3766230 104.5021860  14.7696480
   3.8263190 104.7464600  16.1944230   5.2909080  89.7861430  14.0718210
   5.8201840  88.9991230  13.9426160   5.9237400  90.4652620  14.3053740
   7.4846920  89.5236570  17.1263600   6.8549660  88.8223880  17.2933730
   6.9452060  90.2840700  16.9096760  10.4238870 106.1375800  29.7974210
  11.3506180 105.9020070  29.8410170  10.4089300 106.9647800  29.3160240
  18.6583930 105.6801370  16.7948460  18.8336120 104.9939110  16.1509380
  17.9605500 106.2048420  16.4025130   7.6102480  88.8020550  29.5616090
   7.3286750  89.3054150  28.7976910   7.9922180  88.0042300  29.1958220
   6.5011580 106.0696210  14.3483770   7.2330400 105.7855490  13.8007660
   6.7605250 105.8309490  15.2383150   5.6626370 102.1860940  14.3530100
   5.0335250 102.6546040  14.9015930   5.7774200 101.3410160  14.7876290
  14.2117940  88.2174130  30.1396560  14.0983390  88.5368740  31.0348080
  15.0287680  88.6186640  29.8433840  16.9916430 105.3645660  29.6215250
  17.7841750 104.8694890  29.4141210  17.2849580 106.0435800  30.2290860
  11.2494130  98.0145620   2.3840570  10.4736230  97.5346060   2.6739140
  11.9007060  97.3351270   2.2096730   5.2659960  98.3265430   3.2616330
   4.4344840  98.0714140   3.6612840   5.8740940  98.3976200   3.9974250
   5.2461220 102.3605520   3.4574350   5.5489260 101.4703260   3.2784570
   5.9904810 102.9175740   3.2296600  10.6903120 100.6902810   2.3910730
  10.6211400  99.7492750   2.2299860  11.4522980 100.7804220   2.9633300
   2.8809790  91.2957330   4.7167350   2.7012630  90.3983080   4.9970110
   2.4789870  91.8429200   5.3914300  11.7208290  93.4973190   2.6179660
  12.0973110  92.6245070   2.5053330  11.6227800  93.8331890   1.7270100
   3.4996460  93.7917830   3.3249690   4.1806570  94.0556200   3.9437090
   3.1844510  92.9518700   3.6587700   7.6921030  94.8385190   2.4122280
   8.1999250  95.3366160   3.0527300   8.2234270  94.0620390   2.2361640
  19.7931960  93.0090380   6.1151630  19.0884130  93.3972090   5.5966740
  20.0589880  93.7040670   6.7172560   5.9757130  89.4783750   6.6785700
   5.9775570  89.9956140   5.8731600   5.1461440  89.0013930   6.6555630
   7.2259980  99.1178930   4.8559200   6.8929360  99.7447850   5.4980270
   7.4026660  99.6440810   4.0760870  15.7393890  92.9324010   2.3235540
  15.0349460  93.2208900   2.9038650  16.1006050  93.7424120   1.9635100
   5.6572460  91.1893710   4.6856150   5.9989270  92.0335760   4.3910020
   4.7188270  91.3377450   4.8021490   6.4379080 101.0859730   6.6708380
   7.0553080 101.7610810   6.3892830   5.5772200 101.4947710   6.5795880
  17.3556670 102.5499140   4.5863020  16.6720190 103.2198250   4.5779690
  17.8950960 102.7479790   3.8207880  18.8080810  92.3778800   2.7144750
  17.8605720  92.4117780   2.8460180  19.1330800  93.1917750   3.0994110
  14.8915410 104.3943270   3.3008200  14.9042570 103.9905560   2.4330460
  14.3390630 105.1690560   3.1969630  14.2900850  99.2973110   4.6290810
  14.7069640  99.0833220   3.7944270  15.0140670  99.5545900   5.1999430
  18.2362950  97.6960330   4.7207050  17.4081580  97.7653420   4.2457180
  18.8313430  98.2814640   4.2522880  15.2004960  94.4829650   5.6661920
  14.7876140  95.3083360   5.9201910  14.4680910  93.8974690   5.4738280
   7.8019450 100.9557110   2.6919800   7.5047740 100.3502580   2.0127580
   8.7519270 100.9934420   2.5809160   6.0466370  94.0432760   4.3079630
   6.5980960  94.1528100   3.5332880   6.5609880  94.4170360   5.0234860
  15.8905060 104.5288980   6.3542900  15.4135620 105.3361170   6.1615510
  15.2066850 103.8767310   6.5069110   6.8937880 100.6938800   9.3427600
   5.9966410 100.9178770   9.5901000   6.9190750 100.8173740   8.3939000
   5.7209100  97.5652120   7.9184970   5.5816870  98.4374920   8.2872370
   4.8390460  97.2224930   7.7732910   7.5189450 103.5073820  10.1270120
   7.4904880 103.9116770   9.2598550   7.3554420 102.5784180   9.9641720
  19.4704270 104.2900920  11.4234290  19.9463990 104.7683810  12.1023370
  20.0911430 104.2218410  10.6979790  18.8737520 101.4813770   8.5834300
  19.0000580 101.2425650   7.6651480  18.9158900 100.6498310   9.0556380
  12.7354260 105.1841770   7.1529110  13.2498930 105.0949780   7.9551540
  11.8923340 105.5301470   7.4457020  18.7261530  93.5346230   9.5484040
  18.1105800  94.0425900   9.0199500  18.4057950  92.6344560   9.4909980
  10.7875850  92.3738120   7.0146230  10.3255220  92.5821140   7.8266170
  10.3853960  91.5597470   6.7116900  15.7880360  93.5947070   8.1442890
  14.9373950  93.2952820   8.4651960  15.6282150  93.8389080   7.2326710
  12.8830070  95.0948820  10.2441680  13.2083480  94.2612570   9.9043910
  13.6710400  95.6177340  10.3920010   8.5381940  90.0516930   3.2700510
   8.8354270  90.9579760   3.1892530   9.0867500  89.5635710   2.6560080
   8.7319470  95.5288750   9.8052430   8.6363070  94.5883480   9.6552830
   9.5751450  95.7503820   9.4100500   3.8630010  91.9402420   7.9586210
   3.4693400  92.7877630   8.1658990   3.1748410  91.3028790   8.1494850
  10.4375060  92.0237390  11.0282950   9.7473380  91.8309590  11.6629040
  11.1807360  92.3072030  11.5607250  12.7138030  95.8635830   3.8636870
  11.9819150  96.3722640   4.2126970  12.3162370  95.0465810   3.5625650
   9.1515420  92.5390030   2.2689360   9.1551480  92.0979980   1.4193900
  10.0466540  92.8607360   2.3761180  13.1763940  91.3169510   3.2759810
  13.1936680  91.7678160   4.1201660  12.9279520  90.4175150   3.4893250
  16.6034690  88.7301690   9.1146190  16.9280460  87.9991350   9.6404170
  16.6391200  88.4115330   8.2127180   3.3026250  99.7515270   8.5346150
   2.9181040  99.1108940   9.1329110   3.6138440 100.4551390   9.1040880
   9.4523390  96.5991810   4.0154770   9.8193520  96.1250380   4.7616110
   9.2628450  97.4733380   4.3563110   7.2422760  95.6400450   6.3338980
   6.9379830  96.5192430   6.5589340   8.1969220  95.7000240   6.3696420
  16.5292530  98.8426800   2.7232220  17.2491650  99.3382090   2.3328330
  16.3274350  98.1644690   2.0786090  11.9111330  98.9135860   8.6101220
  11.8448640  97.9931530   8.3558810  11.2816470  99.0111300   9.3245860
   3.2986490  96.4803190   7.4810340   2.9401430  97.1457040   8.0683680
   3.0041050  95.6486740   7.8522960   6.4999610  96.9387430  10.3649890
   6.1999750  97.0844610   9.4677710   7.2710850  96.3792720  10.2723280
  11.8428060 101.7356430   8.3605020  11.8572600 100.8037390   8.1423930
  11.1353160 101.8216190   8.9994790  18.0539270  98.3763770   7.7073600
  17.3287460  98.9692550   7.5102990  18.5814730  98.3687310   6.9086970
  11.2761960 103.3774000   5.4545520  11.9204180 103.5833380   6.1318940
  11.6391400 102.6162400   5.0016370  12.5494040 101.3806350   4.1722970
  13.1916270 100.6799510   4.2855140  13.0743390 102.1604790   3.9919860
  14.3231660 102.1801250   7.3759030  14.6587900 102.7667940   8.0536950
  13.4032000 102.0493960   7.6056820  10.1520240 102.2292580  10.5447090
   9.8317110 101.5101820  11.0892780   9.4778600 102.9047650  10.6183150
  13.3673840  92.4618740   5.9083890  13.7354660  91.6413950   6.2363460
  12.5072040  92.5220630   6.3239540  10.3275830  95.1158330   6.1321860
  10.8261080  95.5904150   6.7973710  10.4698780  94.1921850   6.3391890
  17.5342690  91.3326290   6.9750250  17.0316290  92.0731690   7.3144060
  18.3499350  91.7210290   6.6587040  17.8290280 103.7468320   2.0965870
  17.9537700 104.5699490   2.5689680  18.6955840 103.5359050   1.7490020
   5.3007810 105.8399530   1.7683000   6.0370290 105.2914990   2.0391570
   5.6848730 106.7055540   1.6288990   4.3066090 105.0245600  10.9568580
   5.1078820 105.3457650  11.3703980   3.7917910 104.6641180  11.6788490
  13.1430720 101.1325470  10.9043990  12.5368880 101.1557070  10.1639740
  12.8384830 100.4008510  11.4411240  14.5731090 104.8605760   9.5153400
  15.5252840 104.7763780   9.4653640  14.4259310 105.5247470  10.1887190
   9.0801840  98.9190050   9.4340150   8.3147510  99.4875050   9.3494820
   9.2617800  98.6266260   8.5408380  16.2225190 100.6495380   9.9915170
  16.9634660 100.9871140   9.4882630  15.4597870 100.8187440   9.4384940
   4.0586980  95.6548650  10.7954700   4.0992320  95.3562520  11.7039930
   4.9132480  96.0556260  10.6362220   5.9992790  94.2340750   8.7629190
   5.4689250  93.7431700   8.1352530   6.6680860  94.6624950   8.2287120
  14.8970850  98.7010210   8.5270380  15.3111870  98.8555290   9.3760800
  13.9621850  98.8265430   8.6896160  15.3693020  96.0406370  10.5309530
  15.9513790  95.2858690  10.4430010  15.5454790  96.5713810   9.7541010
   6.4865090  91.2003120   8.8426480   6.3921960  90.5823870   8.1177350
   5.9062480  91.9269410   8.6156390   9.2526530  89.7576360   5.8753870
   8.8043830  89.7800620   5.0299420   8.6191730  89.3595380   6.4724170
   9.6586080  98.6530690   6.4966310  10.0774190  99.4963420   6.3242550
   8.7394710  98.7902730   6.2673090  11.9949980  96.3846870   7.8804150
  12.1146190  95.7888010   8.6198990  12.8543980  96.4216560   7.4605450
  14.3337880  96.9384060   6.4566660  13.8073100  97.4626680   5.8531800
  14.6769220  97.5711450   7.0876390   7.5093500 104.9583700   7.6124040
   6.9714590 105.6829760   7.2932740   7.7627460 104.4814040   6.8221380
   8.7618750  92.9268220   9.1379970   9.3518440  92.6184070   9.8257790
   7.9438990  92.4547970   9.2939870  13.5812180  92.5434030   9.3712990
  12.8927700  91.8815570   9.3062980  14.3018200  92.0972300   9.8161450
  10.3655710 106.1934910   7.8710690  10.2914410 107.0970050   8.1783060
   9.4634550 105.8746810   7.8432760   2.2573210 104.3880090   3.9125940
   1.8204200 104.5680890   4.7450090   2.8250890 105.1454710   3.7707660
  17.8935390 103.8897090   8.2003250  17.2937380 103.9489650   7.4567170
  18.0229290 102.9502070   8.3300100  16.5787030 100.6149070   6.2979410
  15.7646870 101.0446230   6.5605200  16.9861230 101.2267480   5.6848460
   3.1273570  97.2852890   4.8118160   3.4946610  97.1980290   5.6914180
   2.5584390  96.5219440   4.7125020  17.9277430  95.7537270   7.8248630
  17.6963520  95.5250020   6.9246580  18.1881980  96.6736820   7.7793520
   2.6789570  94.1961980   8.7176580   1.7845620  94.1628740   9.0570290
   3.2187120  94.3948770   9.4827830  16.3665500  90.9793700  10.6028330
  17.2435680  90.9877100  10.9862330  16.3786340  90.2424540   9.9920680
  17.9918490  94.9163110   5.0135900  17.0421200  94.8826650   5.1280890
  18.1731500  95.8263220   4.7785670   3.1829280  88.4710310   3.0659800
   3.8305470  87.9207690   2.6254960   3.6031120  88.7253460   3.8875610
  17.0781620  88.6651670   6.4229440  17.7153840  89.2785810   6.7888630
  17.2256510  88.7012330   5.4778670   2.9361280  88.6265980   5.8085120
   2.5876100  89.0829800   6.5743300   2.6048980  87.7323110   5.8907550
   4.5425650 101.7985580   9.9738310   4.4995280 101.4278490  10.8552770
   4.6736660 102.7363150  10.1140130   8.2431680 103.3545170   5.5748030
   8.0023040 103.6219730   4.6878550   9.1834320 103.5250900   5.6298890
  10.4486100  89.8177860   9.3304540  10.3874990  90.4099690  10.0799950
  11.3886480  89.7103820   9.1854800  13.0860660  89.4747920   8.9696830
  13.7001070  89.7927210   8.3077910  13.6310220  88.9896510   9.5892690
  19.5035840 105.3739550   6.3758670  19.0094120 105.7708420   5.6585800
  18.8949130 104.7488760   6.7695950   3.6081920  88.1542180   9.0835890
   4.1564910  87.9730230   8.3202000   3.6737230  87.3636290   9.6192200
   4.3813680 104.7447830   7.0936090   3.7874000 104.6132530   7.8326130
   4.3737520 103.9085970   6.6278190  13.8268700  88.0380060   5.2966120
  12.9528540  88.3715170   5.0939050  13.7179450  87.5653240   6.1217990
  14.7340680  90.2450930   6.6807840  14.4054040  89.4302690   6.3009570
  15.6822980  90.2020740   6.5573530  17.1875290 106.0162970   3.6545410
  16.7278260 106.7678780   3.2803430  16.5587750 105.2969440   3.5960210
   4.0125910 102.1106210   6.0444130   3.2859970 101.4911500   5.9770080
   4.0735060 102.5046820   5.1742210   7.6171010 104.3251210   2.8293540
   8.1336030 103.7138570   2.3041800   8.2668390 104.8279990   3.3204550
  10.3566510 105.2159700   3.6562520  10.6444320 104.9614000   2.7795530
  10.8689730 104.6637060   4.2468090  11.5743520  88.9549900   4.2359030
  10.7915310  89.4295400   4.5155790  11.2806450  88.0504730   4.1272210
  16.1264590  89.6573000   2.2808120  16.5672680  89.6018100   1.4329720
  15.8572180  90.5731010   2.3518300  10.4238870 106.1375800  11.0230720
  11.3506180 105.9020070  11.0666680  10.4089300 106.9647800  10.5416750
   7.6102480  88.8020550  10.7872600   7.3286750  89.3054150  10.0233420
   7.9922180  88.0042300  10.4214730  14.2117940  88.2174130  11.3653070
  14.0983390  88.5368740  12.2604590  15.0287680  88.6186640  11.0690350
  16.9916430 105.3645660  10.8471760  17.7841750 104.8694890  10.6397720
  17.2849580 106.0435800  11.4547370  13.1176090  77.4623110 150.6979220
  13.0370140  76.5477720 150.4270930  12.7040510  77.9590180 149.9918930
  11.2494130  79.2402130 152.5788490  10.4736230  78.7602570 152.8687060
  11.9007060  78.5607780 152.4044650  15.2701560  83.6462320 151.3587620
  14.8083090  82.8749560 151.6874790  16.0827110  83.6728390 151.8640070
   3.6751910  74.5123830 147.2406640   2.7868610  74.8539800 147.1386520
   3.9593100  74.3124150 146.3487470  11.4964870  85.9320330 150.9791610
  10.8776310  86.3877830 150.4086050  12.3516650  86.0871790 150.5781310
  10.6903120  81.9159320 152.5858650  10.6211400  80.9749260 152.4247780
  11.4522980  82.0060730 153.1581220  11.7208290  74.7229700 152.8127580
  12.0973110  73.8501580 152.7001250  11.6227800  75.0588400 151.9218020
   5.8513300  73.0955330 148.2745020   5.9580050  73.9959060 148.5813780
   4.9405660  73.0473300 147.9839670  15.5032410  72.2180140 149.7455920
  16.3242030  71.7276710 149.7881400  15.5366490  72.8077800 150.4987760
  12.3628220  80.8159570 148.3723520  11.7445490  81.2809020 147.8086240
  12.8751470  81.5087050 148.7893030  15.7393890  74.1580520 152.5183460
  15.0349460  74.4465410 153.0986570  16.1006050  74.9680630 152.1583020
   9.3400350  69.9032490 151.2048660   9.6475330  69.3479380 150.4884160
   8.4101050  70.0376950 151.0221650  16.1860830  82.3416000 148.5846290
  16.0757160  81.3990330 148.7095710  16.1829080  82.7031640 149.4709050
  11.7281110  77.9681320 147.9408780  10.8010390  77.9018700 148.1697250
  11.8805930  78.9061450 147.8264020  11.7150190  74.2398320 144.9375940
  10.7753860  74.4012280 145.0228400  12.0333450  74.9584000 144.3911930
  15.7578400  79.5301620 148.4444030  15.1390820  79.1921170 147.7970330
  15.7402850  78.8861380 149.1523220   7.3337750  78.4946060 150.7228510
   6.9294750  77.7823310 150.2274410   7.4200870  78.1499300 151.6116550
   7.8019450  82.1813620 152.8867720   7.5047740  81.5759090 152.2075500
   8.7519270  82.2190930 152.7757080  13.9343100  78.7688430 145.4516780
  14.3736380  77.9310860 145.3054600  14.6471520  79.4017830 145.5380920
  12.0438480  83.7084500 149.4198020  12.4834390  84.4508830 149.0053410
  11.9825370  83.9511070 150.3436980  17.5160240  70.0231240 143.7657820
  17.2032900  70.1158070 144.6656890  18.2772710  70.6012270 143.7155250
   4.0342380  77.3891040 148.2235160   3.9139980  78.1153130 147.6116430
   3.7243270  76.6193950 147.7463070   2.9175380  82.2606370 150.4409980
   2.5103460  82.4020960 149.5863580   3.8088390  81.9766530 150.2381190
  14.7108660  86.6953620 146.7761030  14.5509800  86.4056560 147.6742860
  14.5455370  85.9193750 146.2406260   7.1897040  86.4752150 148.5532650
   7.0139520  85.5587690 148.3400450   6.3352780  86.8339440 148.7930450
  14.4134790  84.2041180 145.3359030  13.7199950  84.2018470 144.6761310
  15.1557650  83.7800500 144.9053200  13.9784720  85.8303890 149.4107520
  14.4341670  85.0493270 149.7246140  14.3177240  86.5410710 149.9548700
   6.5006040  70.7326110 151.6058830   6.0574190  71.5135650 151.2743350
   7.0591030  71.0556000 152.3129770   9.6164860  70.3536810 146.4864660
   8.9919040  70.3496680 147.2117970   9.5294980  69.4867770 146.0900630
   6.2920260  75.8559680 149.3340080   6.0661180  75.6396850 150.2386700
   5.5112790  76.2888140 148.9886050  13.5218020  75.8623050 147.9330730
  12.9226910  76.5858850 147.7494350  14.0697630  75.7999830 147.1507180
  12.1282890  74.4986590 149.9634010  12.5212460  74.8158790 149.1502700
  12.4899740  73.6198470 150.0778530   9.1515420  73.7646540 152.4637280
   9.1551480  73.3236490 151.6141820  10.0466540  74.0863870 152.5709100
   5.0017800  73.6473030 151.4231490   4.6617850  74.1248260 152.1798540
   4.2395120  73.1938150 151.0632590   9.2135570  74.7658620 145.4544040
   9.3348390  74.7245100 146.4029860   8.8284080  75.6282770 145.2990770
   8.2257070  77.0759760 144.8527340   7.6573970  76.6278010 144.2263250
   8.9346070  77.4352540 144.3192490   2.3163880  72.5692010 150.3396160
   2.0310800  72.2047680 151.1774780   2.2542740  71.8372470 149.7259300
   5.7704550  81.0717950 147.1253750   4.9966810  80.5315570 146.9652470
   6.4999180  80.5524560 146.7871510  16.5292530  80.0683310 152.9180140
  17.2491650  80.5638600 152.5276250  16.3274350  79.3901200 152.2734010
  11.9902470  71.4621270 147.0609530  11.1767080  70.9634440 146.9854840
  11.7964420  72.3019520 146.6445880  14.7050860  75.8340920 145.3571690
  15.5930480  76.1458150 145.1823030  14.6755950  74.9613170 144.9652270
   5.8141950  80.7398330 150.7632560   6.3320620  79.9366590 150.7089450
   5.3625970  80.6777470 151.6049390  10.7011450  82.0064610 146.0359860
  11.0427150  82.7506840 145.5403180   9.8724160  82.3195730 146.3984690
  16.9765130  77.1452760 144.8251550  16.8928850  77.5766980 143.9747990
  17.6959320  77.6051110 145.2578370  18.0052380  83.9995020 147.5533680
  17.3628540  83.3450640 147.8277400  17.6183040  84.4050110 146.7774350
  13.5838860  81.3280450 151.4005370  13.9362680  80.7308580 150.7406740
  12.7001190  81.0024680 151.5713620   9.6702140  82.0878140 148.8075780
  10.3573270  82.6347350 149.1883370   8.8834560  82.6318870 148.8425390
   8.9729350  79.0924170 148.4201140   9.4292130  79.9029420 148.6461330
   8.6217560  78.7747310 149.2519630   4.8741130  69.4361820 148.8923660
   4.7455760  69.4279720 149.8408580   4.0503150  69.7744910 148.5414670
  16.3949760  82.8911480 144.0910030  16.1687340  82.1741920 144.6834670
  16.0045960  82.6423920 143.2531780   2.1765790  86.9178340 144.8654490
   2.5363430  87.5167680 144.2111760   2.0358130  87.4638230 145.6389520
  15.9766010  80.8083420 145.7524190  15.6887710  81.2696110 146.5402070
  16.7718180  80.3481190 146.0208410   8.1934410  84.3009540 145.6828160
   8.1844510  85.0339230 145.0672670   7.2732770  84.0541120 145.7755120
   3.7941050  79.5224430 146.4274920   3.1869000  80.2623330 146.4370220
   4.2690400  79.6123790 145.6013120  16.7335870  72.6432190 146.9119370
  16.1049030  72.7477860 146.1977600  16.2387790  72.8628970 147.7013250
  11.1794010  84.3637780 144.3453350  11.2805990  84.1601770 143.4155330
  10.2795750  84.1096060 144.5501130   8.7019900  74.9218140 148.3277250
   7.9936050  75.3904480 148.7690860   8.9864380  74.2640150 148.9622440
  12.7335330  71.6468800 149.7673040  12.6103110  71.6654930 148.8182550
  13.6819890  71.6947740 149.8871440   9.8212120  86.8824100 149.0401020
  10.0753620  86.8445490 148.1180390   8.8724600  86.7557430 149.0329270
   6.9054920  73.2303220 145.7027960   7.7545450  73.6673370 145.6368150
   6.5386190  73.5423480 146.5300020  15.8264700  77.8015980 150.6159530
  14.8854840  77.8166210 150.7907220  16.1408770  77.0151940 151.0619830
   5.8046340  79.4835580 144.1763490   6.5709610  79.3716940 144.7388920
   5.8821030  78.7873550 143.5240260   4.4993100  76.9160650 144.8596380
   4.5796690  75.9688160 144.9713780   5.3912850  77.2467530 144.9657040
  17.8290280  84.9724830 152.2913790  17.9537700  85.7956000 152.7637600
  18.6955840  84.7615560 151.9437940   5.3007810  87.0656040 151.9630920
   6.0370290  86.5171500 152.2339490   5.6848730  87.9312050 151.8236910
   8.4110120  86.2386350 143.7856490   9.2038730  86.5275180 143.3338280
   7.8914470  85.8078520 143.1068970  17.4640290  85.4656480 145.2093230
  17.1781800  85.0521620 144.3947410  17.2659840  86.3944190 145.0893750
   8.9287520  81.4589760 143.6498840   8.8238160  80.8442110 144.3760220
   8.7611740  80.9355650 142.8661850  12.1690250  80.5209790 144.2540830
  11.6200350  80.9679090 144.8983570  12.7909510  80.0159040 144.7778500
   7.8365370  79.4800710 146.1506130   8.2581790  79.3140580 146.9937520
   7.9616210  78.6700940 145.6561270  10.3493010  78.5038320 143.3983230
  10.8698670  77.7887340 143.0324380  10.9961410  79.1424190 143.6983740
   6.7324270  75.5533940 143.0964290   6.5313330  74.6901300 143.4577630
   6.5616320  75.4667300 142.1585890  14.2112580  70.3642170 145.6251170
  14.4914870  69.5210070 145.9810590  13.4378310  70.5965280 146.1389920
   5.5307070  72.6534560 143.0842170   5.8332970  72.6601990 142.1761320
   6.2701660  72.3032420 143.5809830   8.7492000  71.5969180 144.0698370
   8.4014000  70.9193170 143.4900820   8.9504770  71.1358690 144.8841760
  10.9141040  86.5849930 145.6884970  11.8091830  86.9234900 145.7103730
  10.9458670  85.8629340 145.0609250   4.5537200  81.9576980 143.9171970
   4.9912070  82.5006650 144.5729550   5.0384930  81.1323930 143.9268310
   1.7683000  84.7466010 151.3692230   2.0986010  83.8787070 151.1370870
   2.1974000  84.9524530 152.1997190   6.3644920  83.0775020 149.0294200
   6.0640460  82.9539990 149.9298110   6.2582410  82.2183610 148.6209930
  19.1336840  82.8571420 143.7320880  18.3029800  82.9248070 144.2028110
  19.3108670  83.7475540 143.4287740  18.5893300  79.6018900 146.2355080
  19.3512210  80.1715550 146.3414770  18.6047670  79.0346100 147.0063390
  19.5953270  80.4569000 151.0797010  19.9662100  79.6736320 150.6732980
  20.2355200  81.1458100 150.9014310  18.6412470  79.8953270 143.3927600
  18.9161310  80.8032150 143.2646820  18.4523210  79.8315800 144.3289590
  15.0388080  72.9198120 144.6881230  15.4572960  72.7329100 143.8477890
  14.7324140  72.0677170 144.9984160  18.5377810  77.8322260 148.3857030
  18.1621410  77.0650190 147.9538320  17.8080930  78.2144960 148.8731960
  17.8128770  76.0579750 151.6864270  18.3366250  75.5642400 151.0554440
  18.3988190  76.1930110 152.4311840   3.8462930  74.3921300 144.3182450
   4.5554630  73.9704520 143.8329730   3.1302870  74.4596530 143.6865800
   3.4937090  70.4460630 143.3585100   4.2165220  70.9869570 143.6766320
   3.7661610  70.1724050 142.4826640  17.3028740  75.3153100 147.6256680
  17.7987860  75.0823970 148.4105560  17.1044810  74.4764940 147.2094320
  18.7315900  73.9514050 150.1594360  18.6215180  73.7970090 151.0976630
  19.4923490  73.4234990 149.9169770  19.6206170  71.7821970 143.4000500
  20.5455480  71.6503150 143.1918790  19.5981960  71.8614790 144.3536950
  19.6944660  72.5532630 146.0257210  18.8996160  72.4877750 146.5550120
  19.8987940  73.4883270 146.0142560  16.6363080  86.5924180 150.0195600
  17.2322150  86.2708750 149.3430020  16.8941230  86.1196000 150.8108870
  16.1264590  70.8829510 152.4756040  16.5672680  70.8274610 151.6277640
  15.8572180  71.7987520 152.5466220  17.9903160  70.5144750 150.4864860
  17.9291560  69.5705970 150.3395880  18.7695190  70.6224840 151.0318320
   2.9183930  70.4853890 146.9520670   3.6763290  70.5982770 146.3784700
   2.4561100  71.3223090 146.9064100   9.4597740  72.5993160 149.9422980
   8.6472250  72.2250050 149.6018860   9.9639380  71.8438240 150.2444170
  13.9622720  69.2635610 151.1806050  14.5652090  69.8355820 151.6554570
  13.2215710  69.8275050 150.9579950  17.1057320  69.6657170 146.4546330
  17.3007950  70.5640620 146.7213760  16.3187190  69.4344250 146.9479280
   3.9018610  85.3470340 146.8938950   3.3766230  85.7278370 146.1900910
   3.8263190  85.9721110 147.6148660   5.2909080  71.0117940 145.4922640
   5.8201840  70.2247740 145.3630590   5.9237400  71.6909130 145.7258170
   7.4846920  70.7493080 148.5468030   6.8549660  70.0480390 148.7138160
   6.9452060  71.5097210 148.3301190  18.6583930  86.9057880 148.2152890
  18.8336120  86.2195620 147.5713810  17.9605500  87.4304930 147.8229560
   6.5011580  87.2952720 145.7688200   7.2330400  87.0112000 145.2212090
   6.7605250  87.0566000 146.6587580   5.6626370  83.4117450 145.7734530
   5.0335250  83.8802550 146.3220360   5.7774200  82.5666670 146.2080720
  13.1176090  77.4623110 131.9235730  13.0370140  76.5477720 131.6527440
  12.7040510  77.9590180 131.2175440  11.2494130  79.2402130 133.8045000
  10.4736230  78.7602570 134.0943570  11.9007060  78.5607780 133.6301160
   5.2659960  79.5521940 134.6820760   4.4344840  79.2970650 135.0817270
   5.8740940  79.6232710 135.4178680  15.2701560  83.6462320 132.5844130
  14.8083090  82.8749560 132.9131300  16.0827110  83.6728390 133.0896580
   5.2461220  83.5862030 134.8778780   5.5489260  82.6959770 134.6989000
   5.9904810  84.1432250 134.6501030   3.6751910  74.5123830 128.4663150
   2.7868610  74.8539800 128.3643030   3.9593100  74.3124150 127.5743980
  11.4964870  85.9320330 132.2048120  10.8776310  86.3877830 131.6342560
  12.3516650  86.0871790 131.8037820  10.6903120  81.9159320 133.8115160
  10.6211400  80.9749260 133.6504290  11.4522980  82.0060730 134.3837730
   2.8809790  72.5213840 136.1371780   2.7012630  71.6239590 136.4174540
   2.4789870  73.0685710 136.8118730  11.7208290  74.7229700 134.0384090
  12.0973110  73.8501580 133.9257760  11.6227800  75.0588400 133.1474530
   5.8513300  73.0955330 129.5001530   5.9580050  73.9959060 129.8070290
   4.9405660  73.0473300 129.2096180  15.5032410  72.2180140 130.9712430
  16.3242030  71.7276710 131.0137910  15.5366490  72.8077800 131.7244270
   3.4996460  75.0174340 134.7454120   4.1806570  75.2812710 135.3641520
   3.1844510  74.1775210 135.0792130   7.6921030  76.0641700 133.8326710
   8.1999250  76.5622670 134.4731730   8.2234270  75.2876900 133.6566070
  19.7931960  74.2346890 137.5356060  19.0884130  74.6228600 137.0171170
  20.0589880  74.9297180 138.1376990   5.9757130  70.7040260 138.0990130
   5.9775570  71.2212650 137.2936030   5.1461440  70.2270440 138.0760060
  12.3628220  80.8159570 129.5980030  11.7445490  81.2809020 129.0342750
  12.8751470  81.5087050 130.0149540   7.2259980  80.3435440 136.2763630
   6.8929360  80.9704360 136.9184700   7.4026660  80.8697320 135.4965300
  15.7393890  74.1580520 133.7439970  15.0349460  74.4465410 134.3243080
  16.1006050  74.9680630 133.3839530   5.6572460  72.4150220 136.1060580
   5.9989270  73.2592270 135.8114450   4.7188270  72.5633960 136.2225920
   6.4379080  82.3116240 138.0912810   7.0553080  82.9867320 137.8097260
   5.5772200  82.7204220 138.0000310  17.3556670  83.7755650 136.0067450
  16.6720190  84.4454760 135.9984120  17.8950960  83.9736300 135.2412310
  18.8080810  73.6035310 134.1349180  17.8605720  73.6374290 134.2664610
  19.1330800  74.4174260 134.5198540   9.3400350  69.9032490 132.4305170
   9.6475330  69.3479380 131.7140670   8.4101050  70.0376950 132.2478160
  14.8915410  85.6199780 134.7212630  14.9042570  85.2162070 133.8534890
  14.3390630  86.3947070 134.6174060  16.1860830  82.3416000 129.8102800
  16.0757160  81.3990330 129.9352220  16.1829080  82.7031640 130.6965560
  14.2900850  80.5229620 136.0495240  14.7069640  80.3089730 135.2148700
  15.0140670  80.7802410 136.6203860  11.7281110  77.9681320 129.1665290
  10.8010390  77.9018700 129.3953760  11.8805930  78.9061450 129.0520530
  11.7150190  74.2398320 126.1632450  10.7753860  74.4012280 126.2484910
  12.0333450  74.9584000 125.6168440  18.2362950  78.9216840 136.1411480
  17.4081580  78.9909930 135.6661610  18.8313430  79.5071150 135.6727310
  15.7578400  79.5301620 129.6700540  15.1390820  79.1921170 129.0226840
  15.7402850  78.8861380 130.3779730  15.2004960  75.7086160 137.0866350
  14.7876140  76.5339870 137.3406340  14.4680910  75.1231200 136.8942710
   7.3337750  78.4946060 131.9485020   6.9294750  77.7823310 131.4530920
   7.4200870  78.1499300 132.8373060   7.8019450  82.1813620 134.1124230
   7.5047740  81.5759090 133.4332010   8.7519270  82.2190930 134.0013590
   6.0466370  75.2689270 135.7284060   6.5980960  75.3784610 134.9537310
   6.5609880  75.6426870 136.4439290  15.8905060  85.7545490 137.7747330
  15.4135620  86.5617680 137.5819940  15.2066850  85.1023820 137.9273540
   6.8937880  81.9195310 140.7632030   5.9966410  82.1435280 141.0105430
   6.9190750  82.0430250 139.8143430  13.9343100  78.7688430 126.6773290
  14.3736380  77.9310860 126.5311110  14.6471520  79.4017830 126.7637430
   5.7209100  78.7908630 139.3389400   5.5816870  79.6631430 139.7076800
   4.8390460  78.4481440 139.1937340  12.0438480  83.7084500 130.6454530
  12.4834390  84.4508830 130.2309920  11.9825370  83.9511070 131.5693490
   7.5189450  84.7330330 141.5474550   7.4904880  85.1373280 140.6802980
   7.3554420  83.8040690 141.3846150  17.5160240  70.0231240 124.9914330
  17.2032900  70.1158070 125.8913400  18.2772710  70.6012270 124.9411760
   4.0342380  77.3891040 129.4491670   3.9139980  78.1153130 128.8372940
   3.7243270  76.6193950 128.9719580  19.4704270  85.5157430 142.8438720
  19.9463990  85.9940320 143.5227800  20.0911430  85.4474920 142.1184220
   2.9175380  82.2606370 131.6666490   2.5103460  82.4020960 130.8120090
   3.8088390  81.9766530 131.4637700  18.8737520  82.7070280 140.0038730
  19.0000580  82.4682160 139.0855910  18.9158900  81.8754820 140.4760810
  12.7354260  86.4098280 138.5733540  13.2498930  86.3206290 139.3755970
  11.8923340  86.7557980 138.8661450  14.7108660  86.6953620 128.0017540
  14.5509800  86.4056560 128.8999370  14.5455370  85.9193750 127.4662770
   7.1897040  86.4752150 129.7789160   7.0139520  85.5587690 129.5656960
   6.3352780  86.8339440 130.0186960  14.4134790  84.2041180 126.5615540
  13.7199950  84.2018470 125.9017820  15.1557650  83.7800500 126.1309710
  13.9784720  85.8303890 130.6364030  14.4341670  85.0493270 130.9502650
  14.3177240  86.5410710 131.1805210  18.7261530  74.7602740 140.9688470
  18.1105800  75.2682410 140.4403930  18.4057950  73.8601070 140.9114410
   6.5006040  70.7326110 132.8315340   6.0574190  71.5135650 132.4999860
   7.0591030  71.0556000 133.5386280  10.7875850  73.5994630 138.4350660
  10.3255220  73.8077650 139.2470600  10.3853960  72.7853980 138.1321330
  15.7880360  74.8203580 139.5647320  14.9373950  74.5209330 139.8856390
  15.6282150  75.0645590 138.6531140  12.8830070  76.3205330 141.6646110
  13.2083480  75.4869080 141.3248340  13.6710400  76.8433850 141.8124440
   9.6164860  70.3536810 127.7121170   8.9919040  70.3496680 128.4374480
   9.5294980  69.4867770 127.3157140   8.5381940  71.2773440 134.6904940
   8.8354270  72.1836270 134.6096960   9.0867500  70.7892220 134.0764510
   6.2920260  75.8559680 130.5596590   6.0661180  75.6396850 131.4643210
   5.5112790  76.2888140 130.2142560  13.5218020  75.8623050 129.1587240
  12.9226910  76.5858850 128.9750860  14.0697630  75.7999830 128.3763690
   8.7319470  76.7545260 141.2256860   8.6363070  75.8139990 141.0757260
   9.5751450  76.9760330 140.8304930  12.1282890  74.4986590 131.1890520
  12.5212460  74.8158790 130.3759210  12.4899740  73.6198470 131.3035040
   3.8630010  73.1658930 139.3790640   3.4693400  74.0134140 139.5863420
   3.1748410  72.5285300 139.5699280  10.4375060  73.2493900 142.4487380
   9.7473380  73.0566100 143.0833470  11.1807360  73.5328540 142.9811680
  12.7138030  77.0892340 135.2841300  11.9819150  77.5979150 135.6331400
  12.3162370  76.2722320 134.9830080   9.1515420  73.7646540 133.6893790
   9.1551480  73.3236490 132.8398330  10.0466540  74.0863870 133.7965610
   5.0017800  73.6473030 132.6488000   4.6617850  74.1248260 133.4055050
   4.2395120  73.1938150 132.2889100   9.2135570  74.7658620 126.6800550
   9.3348390  74.7245100 127.6286370   8.8284080  75.6282770 126.5247280
  13.1763940  72.5426020 134.6964240  13.1936680  72.9934670 135.5406090
  12.9279520  71.6431660 134.9097680   8.2257070  77.0759760 126.0783850
   7.6573970  76.6278010 125.4519760   8.9346070  77.4352540 125.5449000
  16.6034690  69.9558200 140.5350620  16.9280460  69.2247860 141.0608600
  16.6391200  69.6371840 139.6331610   3.3026250  80.9771780 139.9550580
   2.9181040  80.3365450 140.5533540   3.6138440  81.6807900 140.5245310
   9.4523390  77.8248320 135.4359200   9.8193520  77.3506890 136.1820540
   9.2628450  78.6989890 135.7767540   2.3163880  72.5692010 131.5652670
   2.0310800  72.2047680 132.4031290   2.2542740  71.8372470 130.9515810
   7.2422760  76.8656960 137.7543410   6.9379830  77.7448940 137.9793770
   8.1969220  76.9256750 137.7900850   5.7704550  81.0717950 128.3510260
   4.9966810  80.5315570 128.1908980   6.4999180  80.5524560 128.0128020
  16.5292530  80.0683310 134.1436650  17.2491650  80.5638600 133.7532760
  16.3274350  79.3901200 133.4990520  11.9902470  71.4621270 128.2866040
  11.1767080  70.9634440 128.2111350  11.7964420  72.3019520 127.8702390
  11.9111330  80.1392370 140.0305650  11.8448640  79.2188040 139.7763240
  11.2816470  80.2367810 140.7450290  14.7050860  75.8340920 126.5828200
  15.5930480  76.1458150 126.4079540  14.6755950  74.9613170 126.1908780
   5.8141950  80.7398330 131.9889070   6.3320620  79.9366590 131.9345960
   5.3625970  80.6777470 132.8305900  10.7011450  82.0064610 127.2616370
  11.0427150  82.7506840 126.7659690   9.8724160  82.3195730 127.6241200
   3.2986490  77.7059700 138.9014770   2.9401430  78.3713550 139.4888110
   3.0041050  76.8743250 139.2727390   6.4999610  78.1643940 141.7854320
   6.1999750  78.3101120 140.8882140   7.2710850  77.6049230 141.6927710
  11.8428060  82.9612940 139.7809450  11.8572600  82.0293900 139.5628360
  11.1353160  83.0472700 140.4199220  16.9765130  77.1452760 126.0508060
  16.8928850  77.5766980 125.2004500  17.6959320  77.6051110 126.4834880
  18.0539270  79.6020280 139.1278030  17.3287460  80.1949060 138.9307420
  18.5814730  79.5943820 138.3291400  18.0052380  83.9995020 128.7790190
  17.3628540  83.3450640 129.0533910  17.6183040  84.4050110 128.0030860
  13.5838860  81.3280450 132.6261880  13.9362680  80.7308580 131.9663250
  12.7001190  81.0024680 132.7970130   9.6702140  82.0878140 130.0332290
  10.3573270  82.6347350 130.4139880   8.8834560  82.6318870 130.0681900
   8.9729350  79.0924170 129.6457650   9.4292130  79.9029420 129.8717840
   8.6217560  78.7747310 130.4776140  11.2761960  84.6030510 136.8749950
  11.9204180  84.8089890 137.5523370  11.6391400  83.8418910 136.4220800
   4.8741130  69.4361820 130.1180170   4.7455760  69.4279720 131.0665090
   4.0503150  69.7744910 129.7671180  12.5494040  82.6062860 135.5927400
  13.1916270  81.9056020 135.7059570  13.0743390  83.3861300 135.4124290
  16.3949760  82.8911480 125.3166540  16.1687340  82.1741920 125.9091180
  16.0045960  82.6423920 124.4788290  14.3231660  83.4057760 138.7963460
  14.6587900  83.9924450 139.4741380  13.4032000  83.2750470 139.0261250
   2.1765790  86.9178340 126.0911000   2.5363430  87.5167680 125.4368270
   2.0358130  87.4638230 126.8646030  15.9766010  80.8083420 126.9780700
  15.6887710  81.2696110 127.7658580  16.7718180  80.3481190 127.2464920
  10.1520240  83.4549090 141.9651520   9.8317110  82.7358330 142.5097210
   9.4778600  84.1304160 142.0387580   8.1934410  84.3009540 126.9084670
   8.1844510  85.0339230 126.2929180   7.2732770  84.0541120 127.0011630
   3.7941050  79.5224430 127.6531430   3.1869000  80.2623330 127.6626730
   4.2690400  79.6123790 126.8269630  13.3673840  73.6875250 137.3288320
  13.7354660  72.8670460 137.6567890  12.5072040  73.7477140 137.7443970
  16.7335870  72.6432190 128.1375880  16.1049030  72.7477860 127.4234110
  16.2387790  72.8628970 128.9269760  11.1794010  84.3637780 125.5709860
  11.2805990  84.1601770 124.6411840  10.2795750  84.1096060 125.7757640
   8.7019900  74.9218140 129.5533760   7.9936050  75.3904480 129.9947370
   8.9864380  74.2640150 130.1878950  10.3275830  76.3414840 137.5526290
  10.8261080  76.8160660 138.2178140  10.4698780  75.4178360 137.7596320
  12.7335330  71.6468800 130.9929550  12.6103110  71.6654930 130.0439060
  13.6819890  71.6947740 131.1127950   9.8212120  86.8824100 130.2657530
  10.0753620  86.8445490 129.3436900   8.8724600  86.7557430 130.2585780
   6.9054920  73.2303220 126.9284470   7.7545450  73.6673370 126.8624660
   6.5386190  73.5423480 127.7556530  17.5342690  72.5582800 138.3954680
  17.0316290  73.2988200 138.7348490  18.3499350  72.9466800 138.0791470
  15.8264700  77.8015980 131.8416040  14.8854840  77.8166210 132.0163730
  16.1408770  77.0151940 132.2876340   5.8046340  79.4835580 125.4020000
   6.5709610  79.3716940 125.9645430   5.8821030  78.7873550 124.7496770
   4.4993100  76.9160650 126.0852890   4.5796690  75.9688160 126.1970290
   5.3912850  77.2467530 126.1913550  17.8290280  84.9724830 133.5170300
  17.9537700  85.7956000 133.9894110  18.6955840  84.7615560 133.1694450
   5.3007810  87.0656040 133.1887430   6.0370290  86.5171500 133.4596000
   5.6848730  87.9312050 133.0493420   4.3066090  86.2502110 142.3773010
   5.1078820  86.5714160 142.7908410   3.7917910  85.8897690 143.0992920
   8.4110120  86.2386350 125.0113000   9.2038730  86.5275180 124.5594790
   7.8914470  85.8078520 124.3325480  13.1430720  82.3581980 142.3248420
  12.5368880  82.3813580 141.5844170  12.8384830  81.6265020 142.8615670
  14.5731090  86.0862270 140.9357830  15.5252840  86.0020290 140.8858070
  14.4259310  86.7503980 141.6091620  17.4640290  85.4656480 126.4349740
  17.1781800  85.0521620 125.6203920  17.2659840  86.3944190 126.3150260
   8.9287520  81.4589760 124.8755350   8.8238160  80.8442110 125.6016730
   8.7611740  80.9355650 124.0918360   9.0801840  80.1446560 140.8544580
   8.3147510  80.7131560 140.7699250   9.2617800  79.8522770 139.9612810
  12.1690250  80.5209790 125.4797340  11.6200350  80.9679090 126.1240080
  12.7909510  80.0159040 126.0035010  16.2225190  81.8751890 141.4119600
  16.9634660  82.2127650 140.9087060  15.4597870  82.0443950 140.8589370
   4.0586980  76.8805160 142.2159130   4.0992320  76.5819030 143.1244360
   4.9132480  77.2812770 142.0566650   7.8365370  79.4800710 127.3762640
   8.2581790  79.3140580 128.2194030   7.9616210  78.6700940 126.8817780
   5.9992790  75.4597260 140.1833620   5.4689250  74.9688210 139.5556960
   6.6680860  75.8881460 139.6491550  10.3493010  78.5038320 124.6239740
  10.8698670  77.7887340 124.2580890  10.9961410  79.1424190 124.9240250
  14.8970850  79.9266720 139.9474810  15.3111870  80.0811800 140.7965230
  13.9621850  80.0521940 140.1100590  15.3693020  77.2662880 141.9513960
  15.9513790  76.5115200 141.8634440  15.5454790  77.7970320 141.1745440
   6.4865090  72.4259630 140.2630910   6.3921960  71.8080380 139.5381780
   5.9062480  73.1525920 140.0360820   9.2526530  70.9832870 137.2958300
   8.8043830  71.0057130 136.4503850   8.6191730  70.5851890 137.8928600
   9.6586080  79.8787200 137.9170740  10.0774190  80.7219930 137.7446980
   8.7394710  80.0159240 137.6877520  11.9949980  77.6103380 139.3008580
  12.1146190  77.0144520 140.0403420  12.8543980  77.6473070 138.8809880
  14.3337880  78.1640570 137.8771090  13.8073100  78.6883190 137.2736230
  14.6769220  78.7967960 138.5080820   6.7324270  75.5533940 124.3220800
   6.5313330  74.6901300 124.6834140   6.5616320  75.4667300 123.3842400
   7.5093500  86.1840210 139.0328470   6.9714590  86.9086270 138.7137170
   7.7627460  85.7070550 138.2425810   8.7618750  74.1524730 140.5584400
   9.3518440  73.8440580 141.2462220   7.9438990  73.6804480 140.7144300
  13.5812180  73.7690540 140.7917420  12.8927700  73.1072080 140.7267410
  14.3018200  73.3228810 141.2365880  14.2112580  70.3642170 126.8507680
  14.4914870  69.5210070 127.2067100  13.4378310  70.5965280 127.3646430
   5.5307070  72.6534560 124.3098680   5.8332970  72.6601990 123.4017830
   6.2701660  72.3032420 124.8066340  10.3655710  87.4191420 139.2915120
  10.2914410  88.3226560 139.5987490   9.4634550  87.1003320 139.2637190
   8.7492000  71.5969180 125.2954880   8.4014000  70.9193170 124.7157330
   8.9504770  71.1358690 126.1098270  10.9141040  86.5849930 126.9141480
  11.8091830  86.9234900 126.9360240  10.9458670  85.8629340 126.2865760
   4.5537200  81.9576980 125.1428480   4.9912070  82.5006650 125.7986060
   5.0384930  81.1323930 125.1524820   1.7683000  84.7466010 132.5948740
   2.0986010  83.8787070 132.3627380   2.1974000  84.9524530 133.4253700
   6.3644920  83.0775020 130.2550710   6.0640460  82.9539990 131.1554620
   6.2582410  82.2183610 129.8466440   2.2573210  85.6136600 135.3330370
   1.8204200  85.7937400 136.1654520   2.8250890  86.3711220 135.1912090
  17.8935390  85.1153600 139.6207680  17.2937380  85.1746160 138.8771600
  18.0229290  84.1758580 139.7504530  19.1336840  82.8571420 124.9577390
  18.3029800  82.9248070 125.4284620  19.3108670  83.7475540 124.6544250
  18.5893300  79.6018900 127.4611590  19.3512210  80.1715550 127.5671280
  18.6047670  79.0346100 128.2319900  19.5953270  80.4569000 132.3053520
  19.9662100  79.6736320 131.8989490  20.2355200  81.1458100 132.1270820
  16.5787030  81.8405580 137.7183840  15.7646870  82.2702740 137.9809630
  16.9861230  82.4523990 137.1052890  18.6412470  79.8953270 124.6184110
  18.9161310  80.8032150 124.4903330  18.4523210  79.8315800 125.5546100
  15.0388080  72.9198120 125.9137740  15.4572960  72.7329100 125.0734400
  14.7324140  72.0677170 126.2240670  18.5377810  77.8322260 129.6113540
  18.1621410  77.0650190 129.1794830  17.8080930  78.2144960 130.0988470
   3.1273570  78.5109400 136.2322590   3.4946610  78.4236800 137.1118610
   2.5584390  77.7475950 136.1329450  17.9277430  76.9793780 139.2453060
  17.6963520  76.7506530 138.3451010  18.1881980  77.8993330 139.1997950
   2.6789570  75.4218490 140.1381010   1.7845620  75.3885250 140.4774720
   3.2187120  75.6205280 140.9032260  16.3665500  72.2050210 142.0232760
  17.2435680  72.2133610 142.4066760  16.3786340  71.4681050 141.4125110
  17.8128770  76.0579750 132.9120780  18.3366250  75.5642400 132.2810950
  18.3988190  76.1930110 133.6568350  17.9918490  76.1419620 136.4340330
  17.0421200  76.1083160 136.5485320  18.1731500  77.0519730 136.1990100
   3.8462930  74.3921300 125.5438960   4.5554630  73.9704520 125.0586240
   3.1302870  74.4596530 124.9122310   3.4937090  70.4460630 124.5841610
   4.2165220  70.9869570 124.9022830   3.7661610  70.1724050 123.7083150
  17.3028740  75.3153100 128.8513190  17.7987860  75.0823970 129.6362070
  17.1044810  74.4764940 128.4350830   3.1829280  69.6966820 134.4864230
   3.8305470  69.1464200 134.0459390   3.6031120  69.9509970 135.3080040
  18.7315900  73.9514050 131.3850870  18.6215180  73.7970090 132.3233140
  19.4923490  73.4234990 131.1426280  17.0781620  69.8908180 137.8433870
  17.7153840  70.5042320 138.2093060  17.2256510  69.9268840 136.8983100
  19.6206170  71.7821970 124.6257010  20.5455480  71.6503150 124.4175300
  19.5981960  71.8614790 125.5793460  19.6944660  72.5532630 127.2513720
  18.8996160  72.4877750 127.7806630  19.8987940  73.4883270 127.2399070
  16.6363080  86.5924180 131.2452110  17.2322150  86.2708750 130.5686530
  16.8941230  86.1196000 132.0365380   2.9361280  69.8522490 137.2289550
   2.5876100  70.3086310 137.9947730   2.6048980  68.9579620 137.3111980
   4.5425650  83.0242090 141.3942740   4.4995280  82.6535000 142.2757200
   4.6736660  83.9619660 141.5344560   8.2431680  84.5801680 136.9952460
   8.0023040  84.8476240 136.1082980   9.1834320  84.7507410 137.0503320
  10.4486100  71.0434370 140.7508970  10.3874990  71.6356200 141.5004380
  11.3886480  70.9360330 140.6059230  13.0860660  70.7004430 140.3901260
  13.7001070  71.0183720 139.7282340  13.6310220  70.2153020 141.0097120
  19.5035840  86.5996060 137.7963100  19.0094120  86.9964930 137.0790230
  18.8949130  85.9745270 138.1900380   3.6081920  69.3798690 140.5040320
   4.1564910  69.1986740 139.7406430   3.6737230  68.5892800 141.0396630
   4.3813680  85.9704340 138.5140520   3.7874000  85.8389040 139.2530560
   4.3737520  85.1342480 138.0482620  13.8268700  69.2636570 136.7170550
  12.9528540  69.5971680 136.5143480  13.7179450  68.7909750 137.5422420
  14.7340680  71.4707440 138.1012270  14.4054040  70.6559200 137.7214000
  15.6822980  71.4277250 137.9777960  17.1875290  87.2419480 135.0749840
  16.7278260  87.9935290 134.7007860  16.5587750  86.5225950 135.0164640
   4.0125910  83.3362720 137.4648560   3.2859970  82.7168010 137.3974510
   4.0735060  83.7303330 136.5946640   7.6171010  85.5507720 134.2497970
   8.1336030  84.9395080 133.7246230   8.2668390  86.0536500 134.7408980
  10.3566510  86.4416210 135.0766950  10.6444320  86.1870510 134.1999960
  10.8689730  85.8893570 135.6672520  11.5743520  70.1806410 135.6563460
  10.7915310  70.6551910 135.9360220  11.2806450  69.2761240 135.5476640
  16.1264590  70.8829510 133.7012550  16.5672680  70.8274610 132.8534150
  15.8572180  71.7987520 133.7722730  17.9903160  70.5144750 131.7121370
  17.9291560  69.5705970 131.5652390  18.7695190  70.6224840 132.2574830
   2.9183930  70.4853890 128.1777180   3.6763290  70.5982770 127.6041210
   2.4561100  71.3223090 128.1320610   9.4597740  72.5993160 131.1679490
   8.6472250  72.2250050 130.8275370   9.9639380  71.8438240 131.4700680
  13.9622720  69.2635610 132.4062560  14.5652090  69.8355820 132.8811080
  13.2215710  69.8275050 132.1836460  17.1057320  69.6657170 127.6802840
  17.3007950  70.5640620 127.9470270  16.3187190  69.4344250 128.1735790
   3.9018610  85.3470340 128.1195460   3.3766230  85.7278370 127.4157420
   3.8263190  85.9721110 128.8405170   5.2909080  71.0117940 126.7179150
   5.8201840  70.2247740 126.5887100   5.9237400  71.6909130 126.9514680
   7.4846920  70.7493080 129.7724540   6.8549660  70.0480390 129.9394670
   6.9452060  71.5097210 129.5557700  10.4238870  87.3632310 142.4435150
  11.3506180  87.1276580 142.4871110  10.4089300  88.1904310 141.9621180
  18.6583930  86.9057880 129.4409400  18.8336120  86.2195620 128.7970320
  17.9605500  87.4304930 129.0486070   7.6102480  70.0277060 142.2077030
   7.3286750  70.5310660 141.4437850   7.9922180  69.2298810 141.8419160
   6.5011580  87.2952720 126.9944710   7.2330400  87.0112000 126.4468600
   6.7605250  87.0566000 127.8844090   5.6626370  83.4117450 126.9991040
   5.0335250  83.8802550 127.5476870   5.7774200  82.5666670 127.4337230
  14.2117940  69.4430640 142.7857500  14.0983390  69.7625250 143.6809020
  15.0287680  69.8443150 142.4894780  16.9916430  86.5902170 142.2676190
  17.7841750  86.0951400 142.0602150  17.2849580  87.2692310 142.8751800
  13.1176090  77.4623110 113.1492240  13.0370140  76.5477720 112.8783950
  12.7040510  77.9590180 112.4431950  11.2494130  79.2402130 115.0301510
  10.4736230  78.7602570 115.3200080  11.9007060  78.5607780 114.8557670
   5.2659960  79.5521940 115.9077270   4.4344840  79.2970650 116.3073780
   5.8740940  79.6232710 116.6435190  15.2701560  83.6462320 113.8100640
  14.8083090  82.8749560 114.1387810  16.0827110  83.6728390 114.3153090
   5.2461220  83.5862030 116.1035290   5.5489260  82.6959770 115.9245510
   5.9904810  84.1432250 115.8757540   3.6751910  74.5123830 109.6919660
   2.7868610  74.8539800 109.5899540   3.9593100  74.3124150 108.8000490
  11.4964870  85.9320330 113.4304630  10.8776310  86.3877830 112.8599070
  12.3516650  86.0871790 113.0294330  10.6903120  81.9159320 115.0371670
  10.6211400  80.9749260 114.8760800  11.4522980  82.0060730 115.6094240
   2.8809790  72.5213840 117.3628290   2.7012630  71.6239590 117.6431050
   2.4789870  73.0685710 118.0375240  11.7208290  74.7229700 115.2640600
  12.0973110  73.8501580 115.1514270  11.6227800  75.0588400 114.3731040
   5.8513300  73.0955330 110.7258040   5.9580050  73.9959060 111.0326800
   4.9405660  73.0473300 110.4352690  15.5032410  72.2180140 112.1968940
  16.3242030  71.7276710 112.2394420  15.5366490  72.8077800 112.9500780
   3.4996460  75.0174340 115.9710630   4.1806570  75.2812710 116.5898030
   3.1844510  74.1775210 116.3048640   7.6921030  76.0641700 115.0583220
   8.1999250  76.5622670 115.6988240   8.2234270  75.2876900 114.8822580
  19.7931960  74.2346890 118.7612570  19.0884130  74.6228600 118.2427680
  20.0589880  74.9297180 119.3633500   5.9757130  70.7040260 119.3246640
   5.9775570  71.2212650 118.5192540   5.1461440  70.2270440 119.3016570
  12.3628220  80.8159570 110.8236540  11.7445490  81.2809020 110.2599260
  12.8751470  81.5087050 111.2406050   7.2259980  80.3435440 117.5020140
   6.8929360  80.9704360 118.1441210   7.4026660  80.8697320 116.7221810
  15.7393890  74.1580520 114.9696480  15.0349460  74.4465410 115.5499590
  16.1006050  74.9680630 114.6096040   5.6572460  72.4150220 117.3317090
   5.9989270  73.2592270 117.0370960   4.7188270  72.5633960 117.4482430
   6.4379080  82.3116240 119.3169320   7.0553080  82.9867320 119.0353770
   5.5772200  82.7204220 119.2256820  17.3556670  83.7755650 117.2323960
  16.6720190  84.4454760 117.2240630  17.8950960  83.9736300 116.4668820
  18.8080810  73.6035310 115.3605690  17.8605720  73.6374290 115.4921120
  19.1330800  74.4174260 115.7455050   9.3400350  69.9032490 113.6561680
   9.6475330  69.3479380 112.9397180   8.4101050  70.0376950 113.4734670
  14.8915410  85.6199780 115.9469140  14.9042570  85.2162070 115.0791400
  14.3390630  86.3947070 115.8430570  16.1860830  82.3416000 111.0359310
  16.0757160  81.3990330 111.1608730  16.1829080  82.7031640 111.9222070
  14.2900850  80.5229620 117.2751750  14.7069640  80.3089730 116.4405210
  15.0140670  80.7802410 117.8460370  11.7281110  77.9681320 110.3921800
  10.8010390  77.9018700 110.6210270  11.8805930  78.9061450 110.2777040
  11.7150190  74.2398320 107.3888960  10.7753860  74.4012280 107.4741420
  12.0333450  74.9584000 106.8424950  18.2362950  78.9216840 117.3667990
  17.4081580  78.9909930 116.8918120  18.8313430  79.5071150 116.8983820
  15.7578400  79.5301620 110.8957050  15.1390820  79.1921170 110.2483350
  15.7402850  78.8861380 111.6036240  15.2004960  75.7086160 118.3122860
  14.7876140  76.5339870 118.5662850  14.4680910  75.1231200 118.1199220
   7.3337750  78.4946060 113.1741530   6.9294750  77.7823310 112.6787430
   7.4200870  78.1499300 114.0629570   7.8019450  82.1813620 115.3380740
   7.5047740  81.5759090 114.6588520   8.7519270  82.2190930 115.2270100
   6.0466370  75.2689270 116.9540570   6.5980960  75.3784610 116.1793820
   6.5609880  75.6426870 117.6695800  15.8905060  85.7545490 119.0003840
  15.4135620  86.5617680 118.8076450  15.2066850  85.1023820 119.1530050
   6.8937880  81.9195310 121.9888540   5.9966410  82.1435280 122.2361940
   6.9190750  82.0430250 121.0399940  13.9343100  78.7688430 107.9029800
  14.3736380  77.9310860 107.7567620  14.6471520  79.4017830 107.9893940
   5.7209100  78.7908630 120.5645910   5.5816870  79.6631430 120.9333310
   4.8390460  78.4481440 120.4193850  12.0438480  83.7084500 111.8711040
  12.4834390  84.4508830 111.4566430  11.9825370  83.9511070 112.7950000
   7.5189450  84.7330330 122.7731060   7.4904880  85.1373280 121.9059490
   7.3554420  83.8040690 122.6102660  17.5160240  70.0231240 106.2170840
  17.2032900  70.1158070 107.1169910  18.2772710  70.6012270 106.1668270
   4.0342380  77.3891040 110.6748180   3.9139980  78.1153130 110.0629450
   3.7243270  76.6193950 110.1976090  19.4704270  85.5157430 124.0695230
  19.9463990  85.9940320 124.7484310  20.0911430  85.4474920 123.3440730
   2.9175380  82.2606370 112.8923000   2.5103460  82.4020960 112.0376600
   3.8088390  81.9766530 112.6894210  18.8737520  82.7070280 121.2295240
  19.0000580  82.4682160 120.3112420  18.9158900  81.8754820 121.7017320
  12.7354260  86.4098280 119.7990050  13.2498930  86.3206290 120.6012480
  11.8923340  86.7557980 120.0917960  14.7108660  86.6953620 109.2274050
  14.5509800  86.4056560 110.1255880  14.5455370  85.9193750 108.6919280
   7.1897040  86.4752150 111.0045670   7.0139520  85.5587690 110.7913470
   6.3352780  86.8339440 111.2443470  14.4134790  84.2041180 107.7872050
  13.7199950  84.2018470 107.1274330  15.1557650  83.7800500 107.3566220
  13.9784720  85.8303890 111.8620540  14.4341670  85.0493270 112.1759160
  14.3177240  86.5410710 112.4061720  18.7261530  74.7602740 122.1944980
  18.1105800  75.2682410 121.6660440  18.4057950  73.8601070 122.1370920
   6.5006040  70.7326110 114.0571850   6.0574190  71.5135650 113.7256370
   7.0591030  71.0556000 114.7642790  10.7875850  73.5994630 119.6607170
  10.3255220  73.8077650 120.4727110  10.3853960  72.7853980 119.3577840
  15.7880360  74.8203580 120.7903830  14.9373950  74.5209330 121.1112900
  15.6282150  75.0645590 119.8787650  12.8830070  76.3205330 122.8902620
  13.2083480  75.4869080 122.5504850  13.6710400  76.8433850 123.0380950
   9.6164860  70.3536810 108.9377680   8.9919040  70.3496680 109.6630990
   9.5294980  69.4867770 108.5413650   8.5381940  71.2773440 115.9161450
   8.8354270  72.1836270 115.8353470   9.0867500  70.7892220 115.3021020
   6.2920260  75.8559680 111.7853100   6.0661180  75.6396850 112.6899720
   5.5112790  76.2888140 111.4399070  13.5218020  75.8623050 110.3843750
  12.9226910  76.5858850 110.2007370  14.0697630  75.7999830 109.6020200
   8.7319470  76.7545260 122.4513370   8.6363070  75.8139990 122.3013770
   9.5751450  76.9760330 122.0561440  12.1282890  74.4986590 112.4147030
  12.5212460  74.8158790 111.6015720  12.4899740  73.6198470 112.5291550
   3.8630010  73.1658930 120.6047150   3.4693400  74.0134140 120.8119930
   3.1748410  72.5285300 120.7955790  10.4375060  73.2493900 123.6743890
   9.7473380  73.0566100 124.3089980  11.1807360  73.5328540 124.2068190
  12.7138030  77.0892340 116.5097810  11.9819150  77.5979150 116.8587910
  12.3162370  76.2722320 116.2086590   9.1515420  73.7646540 114.9150300
   9.1551480  73.3236490 114.0654840  10.0466540  74.0863870 115.0222120
   5.0017800  73.6473030 113.8744510   4.6617850  74.1248260 114.6311560
   4.2395120  73.1938150 113.5145610   9.2135570  74.7658620 107.9057060
   9.3348390  74.7245100 108.8542880   8.8284080  75.6282770 107.7503790
  13.1763940  72.5426020 115.9220750  13.1936680  72.9934670 116.7662600
  12.9279520  71.6431660 116.1354190   8.2257070  77.0759760 107.3040360
   7.6573970  76.6278010 106.6776270   8.9346070  77.4352540 106.7705510
  16.6034690  69.9558200 121.7607130  16.9280460  69.2247860 122.2865110
  16.6391200  69.6371840 120.8588120   3.3026250  80.9771780 121.1807090
   2.9181040  80.3365450 121.7790050   3.6138440  81.6807900 121.7501820
   9.4523390  77.8248320 116.6615710   9.8193520  77.3506890 117.4077050
   9.2628450  78.6989890 117.0024050   2.3163880  72.5692010 112.7909180
   2.0310800  72.2047680 113.6287800   2.2542740  71.8372470 112.1772320
   7.2422760  76.8656960 118.9799920   6.9379830  77.7448940 119.2050280
   8.1969220  76.9256750 119.0157360   5.7704550  81.0717950 109.5766770
   4.9966810  80.5315570 109.4165490   6.4999180  80.5524560 109.2384530
  16.5292530  80.0683310 115.3693160  17.2491650  80.5638600 114.9789270
  16.3274350  79.3901200 114.7247030  11.9902470  71.4621270 109.5122550
  11.1767080  70.9634440 109.4367860  11.7964420  72.3019520 109.0958900
  11.9111330  80.1392370 121.2562160  11.8448640  79.2188040 121.0019750
  11.2816470  80.2367810 121.9706800  14.7050860  75.8340920 107.8084710
  15.5930480  76.1458150 107.6336050  14.6755950  74.9613170 107.4165290
   5.8141950  80.7398330 113.2145580   6.3320620  79.9366590 113.1602470
   5.3625970  80.6777470 114.0562410  10.7011450  82.0064610 108.4872880
  11.0427150  82.7506840 107.9916200   9.8724160  82.3195730 108.8497710
   3.2986490  77.7059700 120.1271280   2.9401430  78.3713550 120.7144620
   3.0041050  76.8743250 120.4983900   6.4999610  78.1643940 123.0110830
   6.1999750  78.3101120 122.1138650   7.2710850  77.6049230 122.9184220
  11.8428060  82.9612940 121.0065960  11.8572600  82.0293900 120.7884870
  11.1353160  83.0472700 121.6455730  16.9765130  77.1452760 107.2764570
  16.8928850  77.5766980 106.4261010  17.6959320  77.6051110 107.7091390
  18.0539270  79.6020280 120.3534540  17.3287460  80.1949060 120.1563930
  18.5814730  79.5943820 119.5547910  18.0052380  83.9995020 110.0046700
  17.3628540  83.3450640 110.2790420  17.6183040  84.4050110 109.2287370
  13.5838860  81.3280450 113.8518390  13.9362680  80.7308580 113.1919760
  12.7001190  81.0024680 114.0226640   9.6702140  82.0878140 111.2588800
  10.3573270  82.6347350 111.6396390   8.8834560  82.6318870 111.2938410
   8.9729350  79.0924170 110.8714160   9.4292130  79.9029420 111.0974350
   8.6217560  78.7747310 111.7032650  11.2761960  84.6030510 118.1006460
  11.9204180  84.8089890 118.7779880  11.6391400  83.8418910 117.6477310
   4.8741130  69.4361820 111.3436680   4.7455760  69.4279720 112.2921600
   4.0503150  69.7744910 110.9927690  12.5494040  82.6062860 116.8183910
  13.1916270  81.9056020 116.9316080  13.0743390  83.3861300 116.6380800
  16.3949760  82.8911480 106.5423050  16.1687340  82.1741920 107.1347690
  16.0045960  82.6423920 105.7044800  14.3231660  83.4057760 120.0219970
  14.6587900  83.9924450 120.6997890  13.4032000  83.2750470 120.2517760
   2.1765790  86.9178340 107.3167510   2.5363430  87.5167680 106.6624780
   2.0358130  87.4638230 108.0902540  15.9766010  80.8083420 108.2037210
  15.6887710  81.2696110 108.9915090  16.7718180  80.3481190 108.4721430
  10.1520240  83.4549090 123.1908030   9.8317110  82.7358330 123.7353720
   9.4778600  84.1304160 123.2644090   8.1934410  84.3009540 108.1341180
   8.1844510  85.0339230 107.5185690   7.2732770  84.0541120 108.2268140
   3.7941050  79.5224430 108.8787940   3.1869000  80.2623330 108.8883240
   4.2690400  79.6123790 108.0526140  13.3673840  73.6875250 118.5544830
  13.7354660  72.8670460 118.8824400  12.5072040  73.7477140 118.9700480
  16.7335870  72.6432190 109.3632390  16.1049030  72.7477860 108.6490620
  16.2387790  72.8628970 110.1526270  11.1794010  84.3637780 106.7966370
  11.2805990  84.1601770 105.8668350  10.2795750  84.1096060 107.0014150
   8.7019900  74.9218140 110.7790270   7.9936050  75.3904480 111.2203880
   8.9864380  74.2640150 111.4135460  10.3275830  76.3414840 118.7782800
  10.8261080  76.8160660 119.4434650  10.4698780  75.4178360 118.9852830
  12.7335330  71.6468800 112.2186060  12.6103110  71.6654930 111.2695570
  13.6819890  71.6947740 112.3384460   9.8212120  86.8824100 111.4914040
  10.0753620  86.8445490 110.5693410   8.8724600  86.7557430 111.4842290
   6.9054920  73.2303220 108.1540980   7.7545450  73.6673370 108.0881170
   6.5386190  73.5423480 108.9813040  17.5342690  72.5582800 119.6211190
  17.0316290  73.2988200 119.9605000  18.3499350  72.9466800 119.3047980
  15.8264700  77.8015980 113.0672550  14.8854840  77.8166210 113.2420240
  16.1408770  77.0151940 113.5132850   5.8046340  79.4835580 106.6276510
   6.5709610  79.3716940 107.1901940   5.8821030  78.7873550 105.9753280
   4.4993100  76.9160650 107.3109400   4.5796690  75.9688160 107.4226800
   5.3912850  77.2467530 107.4170060  17.8290280  84.9724830 114.7426810
  17.9537700  85.7956000 115.2150620  18.6955840  84.7615560 114.3950960
   5.3007810  87.0656040 114.4143940   6.0370290  86.5171500 114.6852510
   5.6848730  87.9312050 114.2749930   4.3066090  86.2502110 123.6029520
   5.1078820  86.5714160 124.0164920   3.7917910  85.8897690 124.3249430
   8.4110120  86.2386350 106.2369510   9.2038730  86.5275180 105.7851300
   7.8914470  85.8078520 105.5581990  13.1430720  82.3581980 123.5504930
  12.5368880  82.3813580 122.8100680  12.8384830  81.6265020 124.0872180
  14.5731090  86.0862270 122.1614340  15.5252840  86.0020290 122.1114580
  14.4259310  86.7503980 122.8348130  17.4640290  85.4656480 107.6606250
  17.1781800  85.0521620 106.8460430  17.2659840  86.3944190 107.5406770
   8.9287520  81.4589760 106.1011860   8.8238160  80.8442110 106.8273240
   8.7611740  80.9355650 105.3174870   9.0801840  80.1446560 122.0801090
   8.3147510  80.7131560 121.9955760   9.2617800  79.8522770 121.1869320
  12.1690250  80.5209790 106.7053850  11.6200350  80.9679090 107.3496590
  12.7909510  80.0159040 107.2291520  16.2225190  81.8751890 122.6376110
  16.9634660  82.2127650 122.1343570  15.4597870  82.0443950 122.0845880
   4.0586980  76.8805160 123.4415640   4.0992320  76.5819030 124.3500870
   4.9132480  77.2812770 123.2823160   7.8365370  79.4800710 108.6019150
   8.2581790  79.3140580 109.4450540   7.9616210  78.6700940 108.1074290
   5.9992790  75.4597260 121.4090130   5.4689250  74.9688210 120.7813470
   6.6680860  75.8881460 120.8748060  10.3493010  78.5038320 105.8496250
  10.8698670  77.7887340 105.4837400  10.9961410  79.1424190 106.1496760
  14.8970850  79.9266720 121.1731320  15.3111870  80.0811800 122.0221740
  13.9621850  80.0521940 121.3357100  15.3693020  77.2662880 123.1770470
  15.9513790  76.5115200 123.0890950  15.5454790  77.7970320 122.4001950
   6.4865090  72.4259630 121.4887420   6.3921960  71.8080380 120.7638290
   5.9062480  73.1525920 121.2617330   9.2526530  70.9832870 118.5214810
   8.8043830  71.0057130 117.6760360   8.6191730  70.5851890 119.1185110
   9.6586080  79.8787200 119.1427250  10.0774190  80.7219930 118.9703490
   8.7394710  80.0159240 118.9134030  11.9949980  77.6103380 120.5265090
  12.1146190  77.0144520 121.2659930  12.8543980  77.6473070 120.1066390
  14.3337880  78.1640570 119.1027600  13.8073100  78.6883190 118.4992740
  14.6769220  78.7967960 119.7337330   6.7324270  75.5533940 105.5477310
   6.5313330  74.6901300 105.9090650   6.5616320  75.4667300 104.6098910
   7.5093500  86.1840210 120.2584980   6.9714590  86.9086270 119.9393680
   7.7627460  85.7070550 119.4682320   8.7618750  74.1524730 121.7840910
   9.3518440  73.8440580 122.4718730   7.9438990  73.6804480 121.9400810
  13.5812180  73.7690540 122.0173930  12.8927700  73.1072080 121.9523920
  14.3018200  73.3228810 122.4622390  14.2112580  70.3642170 108.0764190
  14.4914870  69.5210070 108.4323610  13.4378310  70.5965280 108.5902940
   5.5307070  72.6534560 105.5355190   5.8332970  72.6601990 104.6274340
   6.2701660  72.3032420 106.0322850  10.3655710  87.4191420 120.5171630
  10.2914410  88.3226560 120.8244000   9.4634550  87.1003320 120.4893700
   8.7492000  71.5969180 106.5211390   8.4014000  70.9193170 105.9413840
   8.9504770  71.1358690 107.3354780  10.9141040  86.5849930 108.1397990
  11.8091830  86.9234900 108.1616750  10.9458670  85.8629340 107.5122270
   4.5537200  81.9576980 106.3684990   4.9912070  82.5006650 107.0242570
   5.0384930  81.1323930 106.3781330   1.7683000  84.7466010 113.8205250
   2.0986010  83.8787070 113.5883890   2.1974000  84.9524530 114.6510210
   6.3644920  83.0775020 111.4807220   6.0640460  82.9539990 112.3811130
   6.2582410  82.2183610 111.0722950   2.2573210  85.6136600 116.5586880
   1.8204200  85.7937400 117.3911030   2.8250890  86.3711220 116.4168600
  17.8935390  85.1153600 120.8464190  17.2937380  85.1746160 120.1028110
  18.0229290  84.1758580 120.9761040  19.1336840  82.8571420 106.1833900
  18.3029800  82.9248070 106.6541130  19.3108670  83.7475540 105.8800760
  18.5893300  79.6018900 108.6868100  19.3512210  80.1715550 108.7927790
  18.6047670  79.0346100 109.4576410  19.5953270  80.4569000 113.5310030
  19.9662100  79.6736320 113.1246000  20.2355200  81.1458100 113.3527330
  16.5787030  81.8405580 118.9440350  15.7646870  82.2702740 119.2066140
  16.9861230  82.4523990 118.3309400  18.6412470  79.8953270 105.8440620
  18.9161310  80.8032150 105.7159840  18.4523210  79.8315800 106.7802610
  15.0388080  72.9198120 107.1394250  15.4572960  72.7329100 106.2990910
  14.7324140  72.0677170 107.4497180  18.5377810  77.8322260 110.8370050
  18.1621410  77.0650190 110.4051340  17.8080930  78.2144960 111.3244980
   3.1273570  78.5109400 117.4579100   3.4946610  78.4236800 118.3375120
   2.5584390  77.7475950 117.3585960  17.9277430  76.9793780 120.4709570
  17.6963520  76.7506530 119.5707520  18.1881980  77.8993330 120.4254460
   2.6789570  75.4218490 121.3637520   1.7845620  75.3885250 121.7031230
   3.2187120  75.6205280 122.1288770  16.3665500  72.2050210 123.2489270
  17.2435680  72.2133610 123.6323270  16.3786340  71.4681050 122.6381620
  17.8128770  76.0579750 114.1377290  18.3366250  75.5642400 113.5067460
  18.3988190  76.1930110 114.8824860  17.9918490  76.1419620 117.6596840
  17.0421200  76.1083160 117.7741830  18.1731500  77.0519730 117.4246610
   3.8462930  74.3921300 106.7695470   4.5554630  73.9704520 106.2842750
   3.1302870  74.4596530 106.1378820   3.4937090  70.4460630 105.8098120
   4.2165220  70.9869570 106.1279340   3.7661610  70.1724050 104.9339660
  17.3028740  75.3153100 110.0769700  17.7987860  75.0823970 110.8618580
  17.1044810  74.4764940 109.6607340   3.1829280  69.6966820 115.7120740
   3.8305470  69.1464200 115.2715900   3.6031120  69.9509970 116.5336550
  17.0781620  69.8908180 119.0690380  17.7153840  70.5042320 119.4349570
  17.2256510  69.9268840 118.1239610  19.6206170  71.7821970 105.8513520
  20.5455480  71.6503150 105.6431810  19.5981960  71.8614790 106.8049970
  19.6944660  72.5532630 108.4770230  18.8996160  72.4877750 109.0063140
  19.8987940  73.4883270 108.4655580  16.6363080  86.5924180 112.4708620
  17.2322150  86.2708750 111.7943040  16.8941230  86.1196000 113.2621890
   2.9361280  69.8522490 118.4546060   2.5876100  70.3086310 119.2204240
   2.6048980  68.9579620 118.5368490   4.5425650  83.0242090 122.6199250
   4.4995280  82.6535000 123.5013710   4.6736660  83.9619660 122.7601070
   8.2431680  84.5801680 118.2208970   8.0023040  84.8476240 117.3339490
   9.1834320  84.7507410 118.2759830  10.4486100  71.0434370 121.9765480
  10.3874990  71.6356200 122.7260890  11.3886480  70.9360330 121.8315740
  13.0860660  70.7004430 121.6157770  13.7001070  71.0183720 120.9538850
  13.6310220  70.2153020 122.2353630  19.5035840  86.5996060 119.0219610
  19.0094120  86.9964930 118.3046740  18.8949130  85.9745270 119.4156890
   3.6081920  69.3798690 121.7296830   4.1564910  69.1986740 120.9662940
   3.6737230  68.5892800 122.2653140   4.3813680  85.9704340 119.7397030
   3.7874000  85.8389040 120.4787070   4.3737520  85.1342480 119.2739130
  13.8268700  69.2636570 117.9427060  12.9528540  69.5971680 117.7399990
  13.7179450  68.7909750 118.7678930  14.7340680  71.4707440 119.3268780
  14.4054040  70.6559200 118.9470510  15.6822980  71.4277250 119.2034470
  17.1875290  87.2419480 116.3006350  16.7278260  87.9935290 115.9264370
  16.5587750  86.5225950 116.2421150   4.0125910  83.3362720 118.6905070
   3.2859970  82.7168010 118.6231020   4.0735060  83.7303330 117.8203150
   7.6171010  85.5507720 115.4754480   8.1336030  84.9395080 114.9502740
   8.2668390  86.0536500 115.9665490  10.3566510  86.4416210 116.3023460
  10.6444320  86.1870510 115.4256470  10.8689730  85.8893570 116.8929030
  11.5743520  70.1806410 116.8819970  10.7915310  70.6551910 117.1616730
  11.2806450  69.2761240 116.7733150  16.1264590  70.8829510 114.9269060
  16.5672680  70.8274610 114.0790660  15.8572180  71.7987520 114.9979240
  17.9903160  70.5144750 112.9377880  17.9291560  69.5705970 112.7908900
  18.7695190  70.6224840 113.4831340   2.9183930  70.4853890 109.4033690
   3.6763290  70.5982770 108.8297720   2.4561100  71.3223090 109.3577120
   9.4597740  72.5993160 112.3936000   8.6472250  72.2250050 112.0531880
   9.9639380  71.8438240 112.6957190  13.9622720  69.2635610 113.6319070
  14.5652090  69.8355820 114.1067590  13.2215710  69.8275050 113.4092970
  17.1057320  69.6657170 108.9059350  17.3007950  70.5640620 109.1726780
  16.3187190  69.4344250 109.3992300   3.9018610  85.3470340 109.3451970
   3.3766230  85.7278370 108.6413930   3.8263190  85.9721110 110.0661680
   5.2909080  71.0117940 107.9435660   5.8201840  70.2247740 107.8143610
   5.9237400  71.6909130 108.1771190   7.4846920  70.7493080 110.9981050
   6.8549660  70.0480390 111.1651180   6.9452060  71.5097210 110.7814210
  10.4238870  87.3632310 123.6691660  11.3506180  87.1276580 123.7127620
  10.4089300  88.1904310 123.1877690  18.6583930  86.9057880 110.6665910
  18.8336120  86.2195620 110.0226830  17.9605500  87.4304930 110.2742580
   7.6102480  70.0277060 123.4333540   7.3286750  70.5310660 122.6694360
   7.9922180  69.2298810 123.0675670   6.5011580  87.2952720 108.2201220
   7.2330400  87.0112000 107.6725110   6.7605250  87.0566000 109.1100600
   5.6626370  83.4117450 108.2247550   5.0335250  83.8802550 108.7733380
   5.7774200  82.5666670 108.6593740  14.2117940  69.4430640 124.0114010
  14.0983390  69.7625250 124.9065530  15.0287680  69.8443150 123.7151290
  16.9916430  86.5902170 123.4932700  17.7841750  86.0951400 123.2858660
  17.2849580  87.2692310 124.1008310  13.1176090  77.4623110  94.3748750
  13.0370140  76.5477720  94.1040460  12.7040510  77.9590180  93.6688460
  11.2494130  79.2402130  96.2558020  10.4736230  78.7602570  96.5456590
  11.9007060  78.5607780  96.0814180   5.2659960  79.5521940  97.1333780
   4.4344840  79.2970650  97.5330290   5.8740940  79.6232710  97.8691700
   5.2461220  83.5862030  97.3291800   5.5489260  82.6959770  97.1502020
   5.9904810  84.1432250  97.1014050   3.6751910  74.5123830  90.9176170
   2.7868610  74.8539800  90.8156050   3.9593100  74.3124150  90.0257000
  11.4964870  85.9320330  94.6561140  10.8776310  86.3877830  94.0855580
  12.3516650  86.0871790  94.2550840  10.6903120  81.9159320  96.2628180
  10.6211400  80.9749260  96.1017310  11.4522980  82.0060730  96.8350750
   2.8809790  72.5213840  98.5884800   2.7012630  71.6239590  98.8687560
   2.4789870  73.0685710  99.2631750  11.7208290  74.7229700  96.4897110
  12.0973110  73.8501580  96.3770780  11.6227800  75.0588400  95.5987550
   5.8513300  73.0955330  91.9514550   5.9580050  73.9959060  92.2583310
   4.9405660  73.0473300  91.6609200   3.4996460  75.0174340  97.1967140
   4.1806570  75.2812710  97.8154540   3.1844510  74.1775210  97.5305150
   7.6921030  76.0641700  96.2839730   8.1999250  76.5622670  96.9244750
   8.2234270  75.2876900  96.1079090   5.9757130  70.7040260 100.5503150
   5.9775570  71.2212650  99.7449050   5.1461440  70.2270440 100.5273080
   7.2259980  80.3435440  98.7276650   6.8929360  80.9704360  99.3697720
   7.4026660  80.8697320  97.9478320   5.6572460  72.4150220  98.5573600
   5.9989270  73.2592270  98.2627470   4.7188270  72.5633960  98.6738940
   6.4379080  82.3116240 100.5425830   7.0553080  82.9867320 100.2610280
   5.5772200  82.7204220 100.4513330   9.3400350  69.9032490  94.8818190
   9.6475330  69.3479380  94.1653690   8.4101050  70.0376950  94.6991180
  11.7281110  77.9681320  91.6178310  10.8010390  77.9018700  91.8466780
  11.8805930  78.9061450  91.5033550  11.7150190  74.2398320  88.6145470
  10.7753860  74.4012280  88.6997930  12.0333450  74.9584000  88.0681460
   7.3337750  78.4946060  94.3998040   6.9294750  77.7823310  93.9043940
   7.4200870  78.1499300  95.2886080   7.8019450  82.1813620  96.5637250
   7.5047740  81.5759090  95.8845030   8.7519270  82.2190930  96.4526610
   6.0466370  75.2689270  98.1797080   6.5980960  75.3784610  97.4050330
   6.5609880  75.6426870  98.8952310   6.8937880  81.9195310 103.2145050
   5.9966410  82.1435280 103.4618450   6.9190750  82.0430250 102.2656450
   5.7209100  78.7908630 101.7902420   5.5816870  79.6631430 102.1589820
   4.8390460  78.4481440 101.6450360  12.0438480  83.7084500  93.0967550
  12.4834390  84.4508830  92.6822940  11.9825370  83.9511070  94.0206510
   7.5189450  84.7330330 103.9987570   7.4904880  85.1373280 103.1316000
   7.3554420  83.8040690 103.8359170  17.5160240  70.0231240  87.4427350
  17.2032900  70.1158070  88.3426420  18.2772710  70.6012270  87.3924780
   4.0342380  77.3891040  91.9004690   3.9139980  78.1153130  91.2885960
   3.7243270  76.6193950  91.4232600  19.4704270  85.5157430 105.2951740
  19.9463990  85.9940320 105.9740820  20.0911430  85.4474920 104.5697240
   2.9175380  82.2606370  94.1179510   2.5103460  82.4020960  93.2633110
   3.8088390  81.9766530  93.9150720  12.7354260  86.4098280 101.0246560
  13.2498930  86.3206290 101.8268990  11.8923340  86.7557980 101.3174470
  14.7108660  86.6953620  90.4530560  14.5509800  86.4056560  91.3512390
  14.5455370  85.9193750  89.9175790   7.1897040  86.4752150  92.2302180
   7.0139520  85.5587690  92.0169980   6.3352780  86.8339440  92.4699980
  13.9784720  85.8303890  93.0877050  14.4341670  85.0493270  93.4015670
  14.3177240  86.5410710  93.6318230  18.7261530  74.7602740 103.4201490
  18.1105800  75.2682410 102.8916950  18.4057950  73.8601070 103.3627430
   6.5006040  70.7326110  95.2828360   6.0574190  71.5135650  94.9512880
   7.0591030  71.0556000  95.9899300  10.7875850  73.5994630 100.8863680
  10.3255220  73.8077650 101.6983620  10.3853960  72.7853980 100.5834350
  15.7880360  74.8203580 102.0160340  14.9373950  74.5209330 102.3369410
  15.6282150  75.0645590 101.1044160  12.8830070  76.3205330 104.1159130
  13.2083480  75.4869080 103.7761360  13.6710400  76.8433850 104.2637460
   9.6164860  70.3536810  90.1634190   8.9919040  70.3496680  90.8887500
   9.5294980  69.4867770  89.7670160   8.5381940  71.2773440  97.1417960
   8.8354270  72.1836270  97.0609980   9.0867500  70.7892220  96.5277530
   6.2920260  75.8559680  93.0109610   6.0661180  75.6396850  93.9156230
   5.5112790  76.2888140  92.6655580   8.7319470  76.7545260 103.6769880
   8.6363070  75.8139990 103.5270280   9.5751450  76.9760330 103.2817950
  12.1282890  74.4986590  93.6403540  12.5212460  74.8158790  92.8272230
  12.4899740  73.6198470  93.7548060   3.8630010  73.1658930 101.8303660
   3.4693400  74.0134140 102.0376440   3.1748410  72.5285300 102.0212300
  10.4375060  73.2493900 104.9000400   9.7473380  73.0566100 105.5346490
  11.1807360  73.5328540 105.4324700  12.7138030  77.0892340  97.7354320
  11.9819150  77.5979150  98.0844420  12.3162370  76.2722320  97.4343100
   9.1515420  73.7646540  96.1406810   9.1551480  73.3236490  95.2911350
  10.0466540  74.0863870  96.2478630   5.0017800  73.6473030  95.1001020
   4.6617850  74.1248260  95.8568070   4.2395120  73.1938150  94.7402120
   9.2135570  74.7658620  89.1313570   9.3348390  74.7245100  90.0799390
   8.8284080  75.6282770  88.9760300  13.1763940  72.5426020  97.1477260
  13.1936680  72.9934670  97.9919110  12.9279520  71.6431660  97.3610700
   8.2257070  77.0759760  88.5296870   7.6573970  76.6278010  87.9032780
   8.9346070  77.4352540  87.9962020  16.6034690  69.9558200 102.9863640
  16.9280460  69.2247860 103.5121620  16.6391200  69.6371840 102.0844630
   3.3026250  80.9771780 102.4063600   2.9181040  80.3365450 103.0046560
   3.6138440  81.6807900 102.9758330   9.4523390  77.8248320  97.8872220
   9.8193520  77.3506890  98.6333560   9.2628450  78.6989890  98.2280560
   2.3163880  72.5692010  94.0165690   2.0310800  72.2047680  94.8544310
   2.2542740  71.8372470  93.4028830   7.2422760  76.8656960 100.2056430
   6.9379830  77.7448940 100.4306790   8.1969220  76.9256750 100.2413870
   5.7704550  81.0717950  90.8023280   4.9966810  80.5315570  90.6422000
   6.4999180  80.5524560  90.4641040  11.9902470  71.4621270  90.7379060
  11.1767080  70.9634440  90.6624370  11.7964420  72.3019520  90.3215410
  11.9111330  80.1392370 102.4818670  11.8448640  79.2188040 102.2276260
  11.2816470  80.2367810 103.1963310   5.8141950  80.7398330  94.4402090
   6.3320620  79.9366590  94.3858980   5.3625970  80.6777470  95.2818920
  10.7011450  82.0064610  89.7129390  11.0427150  82.7506840  89.2172710
   9.8724160  82.3195730  90.0754220   3.2986490  77.7059700 101.3527790
   2.9401430  78.3713550 101.9401130   3.0041050  76.8743250 101.7240410
   6.4999610  78.1643940 104.2367340   6.1999750  78.3101120 103.3395160
   7.2710850  77.6049230 104.1440730  11.8428060  82.9612940 102.2322470
  11.8572600  82.0293900 102.0141380  11.1353160  83.0472700 102.8712240
  16.9765130  77.1452760  88.5021080  16.8928850  77.5766980  87.6517520
  17.6959320  77.6051110  88.9347900   9.6702140  82.0878140  92.4845310
  10.3573270  82.6347350  92.8652900   8.8834560  82.6318870  92.5194920
   8.9729350  79.0924170  92.0970670   9.4292130  79.9029420  92.3230860
   8.6217560  78.7747310  92.9289160  11.2761960  84.6030510  99.3262970
  11.9204180  84.8089890 100.0036390  11.6391400  83.8418910  98.8733820
   4.8741130  69.4361820  92.5693190   4.7455760  69.4279720  93.5178110
   4.0503150  69.7744910  92.2184200  12.5494040  82.6062860  98.0440420
  13.1916270  81.9056020  98.1572590  13.0743390  83.3861300  97.8637310
   2.1765790  86.9178340  88.5424020   2.5363430  87.5167680  87.8881290
   2.0358130  87.4638230  89.3159050  10.1520240  83.4549090 104.4164540
   9.8317110  82.7358330 104.9610230   9.4778600  84.1304160 104.4900600
   8.1934410  84.3009540  89.3597690   8.1844510  85.0339230  88.7442200
   7.2732770  84.0541120  89.4524650   3.7941050  79.5224430  90.1044450
   3.1869000  80.2623330  90.1139750   4.2690400  79.6123790  89.2782650
  13.3673840  73.6875250  99.7801340  13.7354660  72.8670460 100.1080910
  12.5072040  73.7477140 100.1956990  16.7335870  72.6432190  90.5888900
  16.1049030  72.7477860  89.8747130  16.2387790  72.8628970  91.3782780
  11.1794010  84.3637780  88.0222880  11.2805990  84.1601770  87.0924860
  10.2795750  84.1096060  88.2270660   8.7019900  74.9218140  92.0046780
   7.9936050  75.3904480  92.4460390   8.9864380  74.2640150  92.6391970
  10.3275830  76.3414840 100.0039310  10.8261080  76.8160660 100.6691160
  10.4698780  75.4178360 100.2109340  12.7335330  71.6468800  93.4442570
  12.6103110  71.6654930  92.4952080  13.6819890  71.6947740  93.5640970
   9.8212120  86.8824100  92.7170550  10.0753620  86.8445490  91.7949920
   8.8724600  86.7557430  92.7098800   6.9054920  73.2303220  89.3797490
   7.7545450  73.6673370  89.3137680   6.5386190  73.5423480  90.2069550
   5.8046340  79.4835580  87.8533020   6.5709610  79.3716940  88.4158450
   5.8821030  78.7873550  87.2009790   4.4993100  76.9160650  88.5365910
   4.5796690  75.9688160  88.6483310   5.3912850  77.2467530  88.6426570
   5.3007810  87.0656040  95.6400450   6.0370290  86.5171500  95.9109020
   5.6848730  87.9312050  95.5006440   4.3066090  86.2502110 104.8286030
   5.1078820  86.5714160 105.2421430   3.7917910  85.8897690 105.5505940
   8.4110120  86.2386350  87.4626020   9.2038730  86.5275180  87.0107810
   7.8914470  85.8078520  86.7838500  13.1430720  82.3581980 104.7761440
  12.5368880  82.3813580 104.0357190  12.8384830  81.6265020 105.3128690
  14.5731090  86.0862270 103.3870850  15.5252840  86.0020290 103.3371090
  14.4259310  86.7503980 104.0604640   8.9287520  81.4589760  87.3268370
   8.8238160  80.8442110  88.0529750   8.7611740  80.9355650  86.5431380
   9.0801840  80.1446560 103.3057600   8.3147510  80.7131560 103.2212270
   9.2617800  79.8522770 102.4125830  12.1690250  80.5209790  87.9310360
  11.6200350  80.9679090  88.5753100  12.7909510  80.0159040  88.4548030
  16.2225190  81.8751890 103.8632620  16.9634660  82.2127650 103.3600080
  15.4597870  82.0443950 103.3102390   4.0586980  76.8805160 104.6672150
   4.0992320  76.5819030 105.5757380   4.9132480  77.2812770 104.5079670
   7.8365370  79.4800710  89.8275660   8.2581790  79.3140580  90.6707050
   7.9616210  78.6700940  89.3330800   5.9992790  75.4597260 102.6346640
   5.4689250  74.9688210 102.0069980   6.6680860  75.8881460 102.1004570
  10.3493010  78.5038320  87.0752760  10.8698670  77.7887340  86.7093910
  10.9961410  79.1424190  87.3753270  15.3693020  77.2662880 104.4026980
  15.9513790  76.5115200 104.3147460  15.5454790  77.7970320 103.6258460
   6.4865090  72.4259630 102.7143930   6.3921960  71.8080380 101.9894800
   5.9062480  73.1525920 102.4873840   9.2526530  70.9832870  99.7471320
   8.8043830  71.0057130  98.9016870   8.6191730  70.5851890 100.3441620
   9.6586080  79.8787200 100.3683760  10.0774190  80.7219930 100.1960000
   8.7394710  80.0159240 100.1390540  11.9949980  77.6103380 101.7521600
  12.1146190  77.0144520 102.4916440  12.8543980  77.6473070 101.3322900
   6.7324270  75.5533940  86.7733820   6.5313330  74.6901300  87.1347160
   6.5616320  75.4667300  85.8355420   7.5093500  86.1840210 101.4841490
   6.9714590  86.9086270 101.1650190   7.7627460  85.7070550 100.6938830
   8.7618750  74.1524730 103.0097420   9.3518440  73.8440580 103.6975240
   7.9438990  73.6804480 103.1657320  13.5812180  73.7690540 103.2430440
  12.8927700  73.1072080 103.1780430  14.3018200  73.3228810 103.6878900
  14.2112580  70.3642170  89.3020700  14.4914870  69.5210070  89.6580120
  13.4378310  70.5965280  89.8159450   5.5307070  72.6534560  86.7611700
   5.8332970  72.6601990  85.8530850   6.2701660  72.3032420  87.2579360
  10.3655710  87.4191420 101.7428140  10.2914410  88.3226560 102.0500510
   9.4634550  87.1003320 101.7150210   8.7492000  71.5969180  87.7467900
   8.4014000  70.9193170  87.1670350   8.9504770  71.1358690  88.5611290
  10.9141040  86.5849930  89.3654500  11.8091830  86.9234900  89.3873260
  10.9458670  85.8629340  88.7378780   4.5537200  81.9576980  87.5941500
   4.9912070  82.5006650  88.2499080   5.0384930  81.1323930  87.6037840
   1.7683000  84.7466010  95.0461760   2.0986010  83.8787070  94.8140400
   2.1974000  84.9524530  95.8766720   6.3644920  83.0775020  92.7063730
   6.0640460  82.9539990  93.6067640   6.2582410  82.2183610  92.2979460
   2.2573210  85.6136600  97.7843390   1.8204200  85.7937400  98.6167540
   2.8250890  86.3711220  97.6425110  18.5893300  79.6018900  89.9124610
  19.3512210  80.1715550  90.0184300  18.6047670  79.0346100  90.6832920
  15.0388080  72.9198120  88.3650760  15.4572960  72.7329100  87.5247420
  14.7324140  72.0677170  88.6753690   3.1273570  78.5109400  98.6835610
   3.4946610  78.4236800  99.5631630   2.5584390  77.7475950  98.5842470
  17.9277430  76.9793780 101.6966080  17.6963520  76.7506530 100.7964030
  18.1881980  77.8993330 101.6510970   2.6789570  75.4218490 102.5894030
   1.7845620  75.3885250 102.9287740   3.2187120  75.6205280 103.3545280
  16.3665500  72.2050210 104.4745780  17.2435680  72.2133610 104.8579780
  16.3786340  71.4681050 103.8638130   3.8462930  74.3921300  87.9951980
   4.5554630  73.9704520  87.5099260   3.1302870  74.4596530  87.3635330
   3.4937090  70.4460630  87.0354630   4.2165220  70.9869570  87.3535850
   3.7661610  70.1724050  86.1596170   3.1829280  69.6966820  96.9377250
   3.8305470  69.1464200  96.4972410   3.6031120  69.9509970  97.7593060
  17.0781620  69.8908180 100.2946890  17.7153840  70.5042320 100.6606080
  17.2256510  69.9268840  99.3496120  19.6206170  71.7821970  87.0770030
  20.5455480  71.6503150  86.8688320  19.5981960  71.8614790  88.0306480
  19.6944660  72.5532630  89.7026740  18.8996160  72.4877750  90.2319650
  19.8987940  73.4883270  89.6912090  16.6363080  86.5924180  93.6965130
  17.2322150  86.2708750  93.0199550  16.8941230  86.1196000  94.4878400
   2.9361280  69.8522490  99.6802570   2.5876100  70.3086310 100.4460750
   2.6048980  68.9579620  99.7625000   4.5425650  83.0242090 103.8455760
   4.4995280  82.6535000 104.7270220   4.6736660  83.9619660 103.9857580
   8.2431680  84.5801680  99.4465480   8.0023040  84.8476240  98.5596000
   9.1834320  84.7507410  99.5016340  10.4486100  71.0434370 103.2021990
  10.3874990  71.6356200 103.9517400  11.3886480  70.9360330 103.0572250
  13.0860660  70.7004430 102.8414280  13.7001070  71.0183720 102.1795360
  13.6310220  70.2153020 103.4610140   3.6081920  69.3798690 102.9553340
   4.1564910  69.1986740 102.1919450   3.6737230  68.5892800 103.4909650
   4.3813680  85.9704340 100.9653540   3.7874000  85.8389040 101.7043580
   4.3737520  85.1342480 100.4995640  13.8268700  69.2636570  99.1683570
  12.9528540  69.5971680  98.9656500  13.7179450  68.7909750  99.9935440
  14.7340680  71.4707440 100.5525290  14.4054040  70.6559200 100.1727020
  15.6822980  71.4277250 100.4290980   4.0125910  83.3362720  99.9161580
   3.2859970  82.7168010  99.8487530   4.0735060  83.7303330  99.0459660
   7.6171010  85.5507720  96.7010990   8.1336030  84.9395080  96.1759250
   8.2668390  86.0536500  97.1922000  10.3566510  86.4416210  97.5279970
  10.6444320  86.1870510  96.6512980  10.8689730  85.8893570  98.1185540
  11.5743520  70.1806410  98.1076480  10.7915310  70.6551910  98.3873240
  11.2806450  69.2761240  97.9989660   2.9183930  70.4853890  90.6290200
   3.6763290  70.5982770  90.0554230   2.4561100  71.3223090  90.5833630
   9.4597740  72.5993160  93.6192510   8.6472250  72.2250050  93.2788390
   9.9639380  71.8438240  93.9213700  13.9622720  69.2635610  94.8575580
  14.5652090  69.8355820  95.3324100  13.2215710  69.8275050  94.6349480
   3.9018610  85.3470340  90.5708480   3.3766230  85.7278370  89.8670440
   3.8263190  85.9721110  91.2918190   5.2909080  71.0117940  89.1692170
   5.8201840  70.2247740  89.0400120   5.9237400  71.6909130  89.4027700
   7.4846920  70.7493080  92.2237560   6.8549660  70.0480390  92.3907690
   6.9452060  71.5097210  92.0070720  10.4238870  87.3632310 104.8948170
  11.3506180  87.1276580 104.9384130  10.4089300  88.1904310 104.4134200
  18.6583930  86.9057880  91.8922420  18.8336120  86.2195620  91.2483340
  17.9605500  87.4304930  91.4999090   7.6102480  70.0277060 104.6590050
   7.3286750  70.5310660 103.8950870   7.9922180  69.2298810 104.2932180
   6.5011580  87.2952720  89.4457730   7.2330400  87.0112000  88.8981620
   6.7605250  87.0566000  90.3357110   5.6626370  83.4117450  89.4504060
   5.0335250  83.8802550  89.9989890   5.7774200  82.5666670  89.8850250
  14.2117940  69.4430640 105.2370520  14.0983390  69.7625250 106.1322040
  15.0287680  69.8443150 104.9407800  16.9916430  86.5902170 104.7189210
  17.7841750  86.0951400 104.5115170  17.2849580  87.2692310 105.3264820
  11.2494130  79.2402130  77.4814530  10.4736230  78.7602570  77.7713100
  11.9007060  78.5607780  77.3070690   5.2659960  79.5521940  78.3590290
   4.4344840  79.2970650  78.7586800   5.8740940  79.6232710  79.0948210
   5.2461220  83.5862030  78.5548310   5.5489260  82.6959770  78.3758530
   5.9904810  84.1432250  78.3270560   3.6751910  74.5123830  72.1432680
   2.7868610  74.8539800  72.0412560   3.9593100  74.3124150  71.2513510
  11.4964870  85.9320330  75.8817650  10.8776310  86.3877830  75.3112090
  12.3516650  86.0871790  75.4807350  10.6903120  81.9159320  77.4884690
  10.6211400  80.9749260  77.3273820  11.4522980  82.0060730  78.0607260
   2.8809790  72.5213840  79.8141310   2.7012630  71.6239590  80.0944070
   2.4789870  73.0685710  80.4888260  11.7208290  74.7229700  77.7153620
  12.0973110  73.8501580  77.6027290  11.6227800  75.0588400  76.8244060
   5.8513300  73.0955330  73.1771060   5.9580050  73.9959060  73.4839820
   4.9405660  73.0473300  72.8865710  15.5032410  72.2180140  74.6481960
  16.3242030  71.7276710  74.6907440  15.5366490  72.8077800  75.4013800
   3.4996460  75.0174340  78.4223650   4.1806570  75.2812710  79.0411050
   3.1844510  74.1775210  78.7561660   7.6921030  76.0641700  77.5096240
   8.1999250  76.5622670  78.1501260   8.2234270  75.2876900  77.3335600
   5.9757130  70.7040260  81.7759660   5.9775570  71.2212650  80.9705560
   5.1461440  70.2270440  81.7529590   7.2259980  80.3435440  79.9533160
   6.8929360  80.9704360  80.5954230   7.4026660  80.8697320  79.1734830
  15.7393890  74.1580520  77.4209500  15.0349460  74.4465410  78.0012610
  16.1006050  74.9680630  77.0609060   5.6572460  72.4150220  79.7830110
   5.9989270  73.2592270  79.4883980   4.7188270  72.5633960  79.8995450
   6.4379080  82.3116240  81.7682340   7.0553080  82.9867320  81.4866790
   5.5772200  82.7204220  81.6769840  17.3556670  83.7755650  79.6836980
  16.6720190  84.4454760  79.6753650  17.8950960  83.9736300  78.9181840
   9.3400350  69.9032490  76.1074700   9.6475330  69.3479380  75.3910200
   8.4101050  70.0376950  75.9247690  14.8915410  85.6199780  78.3982160
  14.9042570  85.2162070  77.5304420  14.3390630  86.3947070  78.2943590
  14.2900850  80.5229620  79.7264770  14.7069640  80.3089730  78.8918230
  15.0140670  80.7802410  80.2973390  11.7150190  74.2398320  69.8401980
  10.7753860  74.4012280  69.9254440  12.0333450  74.9584000  69.2937970
  18.2362950  78.9216840  79.8181010  17.4081580  78.9909930  79.3431140
  18.8313430  79.5071150  79.3496840  15.2004960  75.7086160  80.7635880
  14.7876140  76.5339870  81.0175870  14.4680910  75.1231200  80.5712240
   7.3337750  78.4946060  75.6254550   6.9294750  77.7823310  75.1300450
   7.4200870  78.1499300  76.5142590   7.8019450  82.1813620  77.7893760
   7.5047740  81.5759090  77.1101540   8.7519270  82.2190930  77.6783120
   6.0466370  75.2689270  79.4053590   6.5980960  75.3784610  78.6306840
   6.5609880  75.6426870  80.1208820  15.8905060  85.7545490  81.4516860
  15.4135620  86.5617680  81.2589470  15.2066850  85.1023820  81.6043070
   6.8937880  81.9195310  84.4401560   5.9966410  82.1435280  84.6874960
   6.9190750  82.0430250  83.4912960  13.9343100  78.7688430  70.3542820
  14.3736380  77.9310860  70.2080640  14.6471520  79.4017830  70.4406960
   5.7209100  78.7908630  83.0158930   5.5816870  79.6631430  83.3846330
   4.8390460  78.4481440  82.8706870  12.0438480  83.7084500  74.3224060
  12.4834390  84.4508830  73.9079450  11.9825370  83.9511070  75.2463020
   7.5189450  84.7330330  85.2244080   7.4904880  85.1373280  84.3572510
   7.3554420  83.8040690  85.0615680  17.5160240  70.0231240  68.6683860
  17.2032900  70.1158070  69.5682930  18.2772710  70.6012270  68.6181290
   4.0342380  77.3891040  73.1261200   3.9139980  78.1153130  72.5142470
   3.7243270  76.6193950  72.6489110  19.4704270  85.5157430  86.5208250
  19.9463990  85.9940320  87.1997330  20.0911430  85.4474920  85.7953750
   2.9175380  82.2606370  75.3436020   2.5103460  82.4020960  74.4889620
   3.8088390  81.9766530  75.1407230  12.7354260  86.4098280  82.2503070
  13.2498930  86.3206290  83.0525500  11.8923340  86.7557980  82.5430980
   7.1897040  86.4752150  73.4558690   7.0139520  85.5587690  73.2426490
   6.3352780  86.8339440  73.6956490   6.5006040  70.7326110  76.5084870
   6.0574190  71.5135650  76.1769390   7.0591030  71.0556000  77.2155810
  10.7875850  73.5994630  82.1120190  10.3255220  73.8077650  82.9240130
  10.3853960  72.7853980  81.8090860  15.7880360  74.8203580  83.2416850
  14.9373950  74.5209330  83.5625920  15.6282150  75.0645590  82.3300670
  12.8830070  76.3205330  85.3415640  13.2083480  75.4869080  85.0017870
  13.6710400  76.8433850  85.4893970   9.6164860  70.3536810  71.3890700
   8.9919040  70.3496680  72.1144010   9.5294980  69.4867770  70.9926670
   8.5381940  71.2773440  78.3674470   8.8354270  72.1836270  78.2866490
   9.0867500  70.7892220  77.7534040   6.2920260  75.8559680  74.2366120
   6.0661180  75.6396850  75.1412740   5.5112790  76.2888140  73.8912090
  13.5218020  75.8623050  72.8356770  12.9226910  76.5858850  72.6520390
  14.0697630  75.7999830  72.0533220   8.7319470  76.7545260  84.9026390
   8.6363070  75.8139990  84.7526790   9.5751450  76.9760330  84.5074460
  12.1282890  74.4986590  74.8660050  12.5212460  74.8158790  74.0528740
  12.4899740  73.6198470  74.9804570   3.8630010  73.1658930  83.0560170
   3.4693400  74.0134140  83.2632950   3.1748410  72.5285300  83.2468810
  10.4375060  73.2493900  86.1256910   9.7473380  73.0566100  86.7603000
  11.1807360  73.5328540  86.6581210  12.7138030  77.0892340  78.9610830
  11.9819150  77.5979150  79.3100930  12.3162370  76.2722320  78.6599610
   9.1515420  73.7646540  77.3663320   9.1551480  73.3236490  76.5167860
  10.0466540  74.0863870  77.4735140   5.0017800  73.6473030  76.3257530
   4.6617850  74.1248260  77.0824580   4.2395120  73.1938150  75.9658630
   9.2135570  74.7658620  70.3570080   9.3348390  74.7245100  71.3055900
   8.8284080  75.6282770  70.2016810  13.1763940  72.5426020  78.3733770
  13.1936680  72.9934670  79.2175620  12.9279520  71.6431660  78.5867210
   8.2257070  77.0759760  69.7553380   7.6573970  76.6278010  69.1289290
   8.9346070  77.4352540  69.2218530  16.6034690  69.9558200  84.2120150
  16.9280460  69.2247860  84.7378130  16.6391200  69.6371840  83.3101140
   3.3026250  80.9771780  83.6320110   2.9181040  80.3365450  84.2303070
   3.6138440  81.6807900  84.2014840   9.4523390  77.8248320  79.1128730
   9.8193520  77.3506890  79.8590070   9.2628450  78.6989890  79.4537070
   2.3163880  72.5692010  75.2422200   2.0310800  72.2047680  76.0800820
   2.2542740  71.8372470  74.6285340   7.2422760  76.8656960  81.4312940
   6.9379830  77.7448940  81.6563300   8.1969220  76.9256750  81.4670380
   5.7704550  81.0717950  72.0279790   4.9966810  80.5315570  71.8678510
   6.4999180  80.5524560  71.6897550  16.5292530  80.0683310  77.8206180
  17.2491650  80.5638600  77.4302290  16.3274350  79.3901200  77.1760050
  11.9111330  80.1392370  83.7075180  11.8448640  79.2188040  83.4532770
  11.2816470  80.2367810  84.4219820  14.7050860  75.8340920  70.2597730
  15.5930480  76.1458150  70.0849070  14.6755950  74.9613170  69.8678310
   5.8141950  80.7398330  75.6658600   6.3320620  79.9366590  75.6115490
   5.3625970  80.6777470  76.5075430  10.7011450  82.0064610  70.9385900
  11.0427150  82.7506840  70.4429220   9.8724160  82.3195730  71.3010730
   3.2986490  77.7059700  82.5784300   2.9401430  78.3713550  83.1657640
   3.0041050  76.8743250  82.9496920   6.4999610  78.1643940  85.4623850
   6.1999750  78.3101120  84.5651670   7.2710850  77.6049230  85.3697240
  11.8428060  82.9612940  83.4578980  11.8572600  82.0293900  83.2397890
  11.1353160  83.0472700  84.0968750   9.6702140  82.0878140  73.7101820
  10.3573270  82.6347350  74.0909410   8.8834560  82.6318870  73.7451430
   8.9729350  79.0924170  73.3227180   9.4292130  79.9029420  73.5487370
   8.6217560  78.7747310  74.1545670  11.2761960  84.6030510  80.5519480
  11.9204180  84.8089890  81.2292900  11.6391400  83.8418910  80.0990330
   4.8741130  69.4361820  73.7949700   4.7455760  69.4279720  74.7434620
   4.0503150  69.7744910  73.4440710  12.5494040  82.6062860  79.2696930
  13.1916270  81.9056020  79.3829100  13.0743390  83.3861300  79.0893820
  14.3231660  83.4057760  82.4732990  14.6587900  83.9924450  83.1510910
  13.4032000  83.2750470  82.7030780   2.1765790  86.9178340  69.7680530
   2.5363430  87.5167680  69.1137800   2.0358130  87.4638230  70.5415560
  10.1520240  83.4549090  85.6421050   9.8317110  82.7358330  86.1866740
   9.4778600  84.1304160  85.7157110   8.1934410  84.3009540  70.5854200
   8.1844510  85.0339230  69.9698710   7.2732770  84.0541120  70.6781160
   3.7941050  79.5224430  71.3300960   3.1869000  80.2623330  71.3396260
   4.2690400  79.6123790  70.5039160  13.3673840  73.6875250  81.0057850
  13.7354660  72.8670460  81.3337420  12.5072040  73.7477140  81.4213500
  16.7335870  72.6432190  71.8145410  16.1049030  72.7477860  71.1003640
  16.2387790  72.8628970  72.6039290  11.1794010  84.3637780  69.2479390
  11.2805990  84.1601770  68.3181370  10.2795750  84.1096060  69.4527170
   8.7019900  74.9218140  73.2303290   7.9936050  75.3904480  73.6716900
   8.9864380  74.2640150  73.8648480  10.3275830  76.3414840  81.2295820
  10.8261080  76.8160660  81.8947670  10.4698780  75.4178360  81.4365850
   9.8212120  86.8824100  73.9427060  10.0753620  86.8445490  73.0206430
   8.8724600  86.7557430  73.9355310   6.9054920  73.2303220  70.6054000
   7.7545450  73.6673370  70.5394190   6.5386190  73.5423480  71.4326060
  17.5342690  72.5582800  82.0724210  17.0316290  73.2988200  82.4118020
  18.3499350  72.9466800  81.7561000  15.8264700  77.8015980  75.5185570
  14.8854840  77.8166210  75.6933260  16.1408770  77.0151940  75.9645870
   5.8046340  79.4835580  69.0789530   6.5709610  79.3716940  69.6414960
   5.8821030  78.7873550  68.4266300   4.4993100  76.9160650  69.7622420
   4.5796690  75.9688160  69.8739820   5.3912850  77.2467530  69.8683080
   5.3007810  87.0656040  76.8656960   6.0370290  86.5171500  77.1365530
   5.6848730  87.9312050  76.7262950   4.3066090  86.2502110  86.0542540
   5.1078820  86.5714160  86.4677940   3.7917910  85.8897690  86.7762450
   8.4110120  86.2386350  68.6882530   9.2038730  86.5275180  68.2364320
   7.8914470  85.8078520  68.0095010  13.1430720  82.3581980  86.0017950
  12.5368880  82.3813580  85.2613700  12.8384830  81.6265020  86.5385200
  14.5731090  86.0862270  84.6127360  15.5252840  86.0020290  84.5627600
  14.4259310  86.7503980  85.2861150   8.9287520  81.4589760  68.5524880
   8.8238160  80.8442110  69.2786260   8.7611740  80.9355650  67.7687890
   9.0801840  80.1446560  84.5314110   8.3147510  80.7131560  84.4468780
   9.2617800  79.8522770  83.6382340  16.2225190  81.8751890  85.0889130
  16.9634660  82.2127650  84.5856590  15.4597870  82.0443950  84.5358900
   4.0586980  76.8805160  85.8928660   4.0992320  76.5819030  86.8013890
   4.9132480  77.2812770  85.7336180   7.8365370  79.4800710  71.0532170
   8.2581790  79.3140580  71.8963560   7.9616210  78.6700940  70.5587310
   5.9992790  75.4597260  83.8603150   5.4689250  74.9688210  83.2326490
   6.6680860  75.8881460  83.3261080  10.3493010  78.5038320  68.3009270
  10.8698670  77.7887340  67.9350420  10.9961410  79.1424190  68.6009780
  14.8970850  79.9266720  83.6244340  15.3111870  80.0811800  84.4734760
  13.9621850  80.0521940  83.7870120  15.3693020  77.2662880  85.6283490
  15.9513790  76.5115200  85.5403970  15.5454790  77.7970320  84.8514970
   6.4865090  72.4259630  83.9400440   6.3921960  71.8080380  83.2151310
   5.9062480  73.1525920  83.7130350   9.2526530  70.9832870  80.9727830
   8.8043830  71.0057130  80.1273380   8.6191730  70.5851890  81.5698130
   9.6586080  79.8787200  81.5940270  10.0774190  80.7219930  81.4216510
   8.7394710  80.0159240  81.3647050  11.9949980  77.6103380  82.9778110
  12.1146190  77.0144520  83.7172950  12.8543980  77.6473070  82.5579410
  14.3337880  78.1640570  81.5540620  13.8073100  78.6883190  80.9505760
  14.6769220  78.7967960  82.1850350   6.7324270  75.5533940  67.9990330
   6.5313330  74.6901300  68.3603670   6.5616320  75.4667300  67.0611930
   7.5093500  86.1840210  82.7098000   6.9714590  86.9086270  82.3906700
   7.7627460  85.7070550  81.9195340   8.7618750  74.1524730  84.2353930
   9.3518440  73.8440580  84.9231750   7.9438990  73.6804480  84.3913830
  13.5812180  73.7690540  84.4686950  12.8927700  73.1072080  84.4036940
  14.3018200  73.3228810  84.9135410   5.5307070  72.6534560  67.9868210
   5.8332970  72.6601990  67.0787360   6.2701660  72.3032420  68.4835870
  10.3655710  87.4191420  82.9684650  10.2914410  88.3226560  83.2757020
   9.4634550  87.1003320  82.9406720   8.7492000  71.5969180  68.9724410
   8.4014000  70.9193170  68.3926860   8.9504770  71.1358690  69.7867800
  10.9141040  86.5849930  70.5911010  11.8091830  86.9234900  70.6129770
  10.9458670  85.8629340  69.9635290   4.5537200  81.9576980  68.8198010
   4.9912070  82.5006650  69.4755590   5.0384930  81.1323930  68.8294350
   1.7683000  84.7466010  76.2718270   2.0986010  83.8787070  76.0396910
   2.1974000  84.9524530  77.1023230   6.3644920  83.0775020  73.9320240
   6.0640460  82.9539990  74.8324150   6.2582410  82.2183610  73.5235970
   2.2573210  85.6136600  79.0099900   1.8204200  85.7937400  79.8424050
   2.8250890  86.3711220  78.8681620  17.8935390  85.1153600  83.2977210
  17.2937380  85.1746160  82.5541130  18.0229290  84.1758580  83.4274060
  18.5893300  79.6018900  71.1381120  19.3512210  80.1715550  71.2440810
  18.6047670  79.0346100  71.9089430  19.5953270  80.4569000  75.9823050
  19.9662100  79.6736320  75.5759020  20.2355200  81.1458100  75.8040350
  16.5787030  81.8405580  81.3953370  15.7646870  82.2702740  81.6579160
  16.9861230  82.4523990  80.7822420  15.0388080  72.9198120  69.5907270
  15.4572960  72.7329100  68.7503930  14.7324140  72.0677170  69.9010200
  18.5377810  77.8322260  73.2883070  18.1621410  77.0650190  72.8564360
  17.8080930  78.2144960  73.7758000   3.1273570  78.5109400  79.9092120
   3.4946610  78.4236800  80.7888140   2.5584390  77.7475950  79.8098980
   2.6789570  75.4218490  83.8150540   1.7845620  75.3885250  84.1544250
   3.2187120  75.6205280  84.5801790  16.3665500  72.2050210  85.7002290
  17.2435680  72.2133610  86.0836290  16.3786340  71.4681050  85.0894640
  17.8128770  76.0579750  76.5890310  18.3366250  75.5642400  75.9580480
  18.3988190  76.1930110  77.3337880   3.8462930  74.3921300  69.2208490
   4.5554630  73.9704520  68.7355770   3.1302870  74.4596530  68.5891840
   3.4937090  70.4460630  68.2611140   4.2165220  70.9869570  68.5792360
   3.7661610  70.1724050  67.3852680  17.3028740  75.3153100  72.5282720
  17.7987860  75.0823970  73.3131600  17.1044810  74.4764940  72.1120360
   3.1829280  69.6966820  78.1633760   3.8305470  69.1464200  77.7228920
   3.6031120  69.9509970  78.9849570  17.0781620  69.8908180  81.5203400
  17.7153840  70.5042320  81.8862590  17.2256510  69.9268840  80.5752630
  19.6206170  71.7821970  68.3026540  20.5455480  71.6503150  68.0944830
  19.5981960  71.8614790  69.2562990  19.6944660  72.5532630  70.9283250
  18.8996160  72.4877750  71.4576160  19.8987940  73.4883270  70.9168600
   2.9361280  69.8522490  80.9059080   2.5876100  70.3086310  81.6717260
   2.6048980  68.9579620  80.9881510   4.5425650  83.0242090  85.0712270
   4.4995280  82.6535000  85.9526730   4.6736660  83.9619660  85.2114090
   8.2431680  84.5801680  80.6721990   8.0023040  84.8476240  79.7852510
   9.1834320  84.7507410  80.7272850  10.4486100  71.0434370  84.4278500
  10.3874990  71.6356200  85.1773910  11.3886480  70.9360330  84.2828760
  13.0860660  70.7004430  84.0670790  13.7001070  71.0183720  83.4051870
  13.6310220  70.2153020  84.6866650  19.5035840  86.5996060  81.4732630
  19.0094120  86.9964930  80.7559760  18.8949130  85.9745270  81.8669910
   3.6081920  69.3798690  84.1809850   4.1564910  69.1986740  83.4175960
   3.6737230  68.5892800  84.7166160   4.3813680  85.9704340  82.1910050
   3.7874000  85.8389040  82.9300090   4.3737520  85.1342480  81.7252150
  13.8268700  69.2636570  80.3940080  12.9528540  69.5971680  80.1913010
  13.7179450  68.7909750  81.2191950  14.7340680  71.4707440  81.7781800
  14.4054040  70.6559200  81.3983530  15.6822980  71.4277250  81.6547490
   4.0125910  83.3362720  81.1418090   3.2859970  82.7168010  81.0744040
   4.0735060  83.7303330  80.2716170   7.6171010  85.5507720  77.9267500
   8.1336030  84.9395080  77.4015760   8.2668390  86.0536500  78.4178510
  10.3566510  86.4416210  78.7536480  10.6444320  86.1870510  77.8769490
  10.8689730  85.8893570  79.3442050  11.5743520  70.1806410  79.3332990
  10.7915310  70.6551910  79.6129750  11.2806450  69.2761240  79.2246170
  16.1264590  70.8829510  77.3782080  16.5672680  70.8274610  76.5303680
  15.8572180  71.7987520  77.4492260  17.9903160  70.5144750  75.3890900
  17.9291560  69.5705970  75.2421920  18.7695190  70.6224840  75.9344360
   2.9183930  70.4853890  71.8546710   3.6763290  70.5982770  71.2810740
   2.4561100  71.3223090  71.8090140   9.4597740  72.5993160  74.8449020
   8.6472250  72.2250050  74.5044900   9.9639380  71.8438240  75.1470210
  13.9622720  69.2635610  76.0832090  14.5652090  69.8355820  76.5580610
  13.2215710  69.8275050  75.8605990  17.1057320  69.6657170  71.3572370
  17.3007950  70.5640620  71.6239800  16.3187190  69.4344250  71.8505320
   3.9018610  85.3470340  71.7964990   3.3766230  85.7278370  71.0926950
   3.8263190  85.9721110  72.5174700   5.2909080  71.0117940  70.3948680
   5.8201840  70.2247740  70.2656630   5.9237400  71.6909130  70.6284210
   7.4846920  70.7493080  73.4494070   6.8549660  70.0480390  73.6164200
   6.9452060  71.5097210  73.2327230  10.4238870  87.3632310  86.1204680
  11.3506180  87.1276580  86.1640640  10.4089300  88.1904310  85.6390710
   7.6102480  70.0277060  85.8846560   7.3286750  70.5310660  85.1207380
   7.9922180  69.2298810  85.5188690   6.5011580  87.2952720  70.6714240
   7.2330400  87.0112000  70.1238130   6.7605250  87.0566000  71.5613620
   5.6626370  83.4117450  70.6760570   5.0335250  83.8802550  71.2246400
   5.7774200  82.5666670  71.1106760  14.2117940  69.4430640  86.4627030
  14.0983390  69.7625250  87.3578550  15.0287680  69.8443150  86.1664310
  16.9916430  86.5902170  85.9445720  17.7841750  86.0951400  85.7371680
  17.2849580  87.2692310  86.5521330  13.1176090  77.4623110  56.8261770
  13.0370140  76.5477720  56.5553480  12.7040510  77.9590180  56.1201480
  11.2494130  79.2402130  58.7071040  10.4736230  78.7602570  58.9969610
  11.9007060  78.5607780  58.5327200   5.2659960  79.5521940  59.5846800
   4.4344840  79.2970650  59.9843310   5.8740940  79.6232710  60.3204720
  15.2701560  83.6462320  57.4870170  14.8083090  82.8749560  57.8157340
  16.0827110  83.6728390  57.9922620   5.2461220  83.5862030  59.7804820
   5.5489260  82.6959770  59.6015040   5.9904810  84.1432250  59.5527070
   3.6751910  74.5123830  53.3689190   2.7868610  74.8539800  53.2669070
   3.9593100  74.3124150  52.4770020  11.4964870  85.9320330  57.1074160
  10.8776310  86.3877830  56.5368600  12.3516650  86.0871790  56.7063860
  10.6903120  81.9159320  58.7141200  10.6211400  80.9749260  58.5530330
  11.4522980  82.0060730  59.2863770   2.8809790  72.5213840  61.0397820
   2.7012630  71.6239590  61.3200580   2.4789870  73.0685710  61.7144770
  11.7208290  74.7229700  58.9410130  12.0973110  73.8501580  58.8283800
  11.6227800  75.0588400  58.0500570   5.8513300  73.0955330  54.4027570
   5.9580050  73.9959060  54.7096330   4.9405660  73.0473300  54.1122220
  15.5032410  72.2180140  55.8738470  16.3242030  71.7276710  55.9163950
  15.5366490  72.8077800  56.6270310   3.4996460  75.0174340  59.6480160
   4.1806570  75.2812710  60.2667560   3.1844510  74.1775210  59.9818170
   7.6921030  76.0641700  58.7352750   8.1999250  76.5622670  59.3757770
   8.2234270  75.2876900  58.5592110   5.9757130  70.7040260  63.0016170
   5.9775570  71.2212650  62.1962070   5.1461440  70.2270440  62.9786100
  12.3628220  80.8159570  54.5006070  11.7445490  81.2809020  53.9368790
  12.8751470  81.5087050  54.9175580   7.2259980  80.3435440  61.1789670
   6.8929360  80.9704360  61.8210740   7.4026660  80.8697320  60.3991340
   5.6572460  72.4150220  61.0086620   5.9989270  73.2592270  60.7140490
   4.7188270  72.5633960  61.1251960   6.4379080  82.3116240  62.9938850
   7.0553080  82.9867320  62.7123300   5.5772200  82.7204220  62.9026350
  17.3556670  83.7755650  60.9093490  16.6720190  84.4454760  60.9010160
  17.8950960  83.9736300  60.1438350   9.3400350  69.9032490  57.3331210
   9.6475330  69.3479380  56.6166710   8.4101050  70.0376950  57.1504200
  14.8915410  85.6199780  59.6238670  14.9042570  85.2162070  58.7560930
  14.3390630  86.3947070  59.5200100  16.1860830  82.3416000  54.7128840
  16.0757160  81.3990330  54.8378260  16.1829080  82.7031640  55.5991600
  14.2900850  80.5229620  60.9521280  14.7069640  80.3089730  60.1174740
  15.0140670  80.7802410  61.5229900  11.7281110  77.9681320  54.0691330
  10.8010390  77.9018700  54.2979800  11.8805930  78.9061450  53.9546570
  11.7150190  74.2398320  51.0658490  10.7753860  74.4012280  51.1510950
  12.0333450  74.9584000  50.5194480  15.7578400  79.5301620  54.5726580
  15.1390820  79.1921170  53.9252880  15.7402850  78.8861380  55.2805770
  15.2004960  75.7086160  61.9892390  14.7876140  76.5339870  62.2432380
  14.4680910  75.1231200  61.7968750   7.3337750  78.4946060  56.8511060
   6.9294750  77.7823310  56.3556960   7.4200870  78.1499300  57.7399100
   7.8019450  82.1813620  59.0150270   7.5047740  81.5759090  58.3358050
   8.7519270  82.2190930  58.9039630   6.0466370  75.2689270  60.6310100
   6.5980960  75.3784610  59.8563350   6.5609880  75.6426870  61.3465330
   6.8937880  81.9195310  65.6658070   5.9966410  82.1435280  65.9131470
   6.9190750  82.0430250  64.7169470  13.9343100  78.7688430  51.5799330
  14.3736380  77.9310860  51.4337150  14.6471520  79.4017830  51.6663470
   5.7209100  78.7908630  64.2415440   5.5816870  79.6631430  64.6102840
   4.8390460  78.4481440  64.0963380  12.0438480  83.7084500  55.5480570
  12.4834390  84.4508830  55.1335960  11.9825370  83.9511070  56.4719530
   7.5189450  84.7330330  66.4500590   7.4904880  85.1373280  65.5829020
   7.3554420  83.8040690  66.2872190  17.5160240  70.0231240  49.8940370
  17.2032900  70.1158070  50.7939440  18.2772710  70.6012270  49.8437800
   4.0342380  77.3891040  54.3517710   3.9139980  78.1153130  53.7398980
   3.7243270  76.6193950  53.8745620   2.9175380  82.2606370  56.5692530
   2.5103460  82.4020960  55.7146130   3.8088390  81.9766530  56.3663740
  12.7354260  86.4098280  63.4759580  13.2498930  86.3206290  64.2782010
  11.8923340  86.7557980  63.7687490  14.7108660  86.6953620  52.9043580
  14.5509800  86.4056560  53.8025410  14.5455370  85.9193750  52.3688810
   7.1897040  86.4752150  54.6815200   7.0139520  85.5587690  54.4683000
   6.3352780  86.8339440  54.9213000  14.4134790  84.2041180  51.4641580
  13.7199950  84.2018470  50.8043860  15.1557650  83.7800500  51.0335750
  13.9784720  85.8303890  55.5390070  14.4341670  85.0493270  55.8528690
  14.3177240  86.5410710  56.0831250   6.5006040  70.7326110  57.7341380
   6.0574190  71.5135650  57.4025900   7.0591030  71.0556000  58.4412320
  10.7875850  73.5994630  63.3376700  10.3255220  73.8077650  64.1496640
  10.3853960  72.7853980  63.0347370  15.7880360  74.8203580  64.4673360
  14.9373950  74.5209330  64.7882430  15.6282150  75.0645590  63.5557180
  12.8830070  76.3205330  66.5672150  13.2083480  75.4869080  66.2274380
  13.6710400  76.8433850  66.7150480   9.6164860  70.3536810  52.6147210
   8.9919040  70.3496680  53.3400520   9.5294980  69.4867770  52.2183180
   8.5381940  71.2773440  59.5930980   8.8354270  72.1836270  59.5123000
   9.0867500  70.7892220  58.9790550   6.2920260  75.8559680  55.4622630
   6.0661180  75.6396850  56.3669250   5.5112790  76.2888140  55.1168600
  13.5218020  75.8623050  54.0613280  12.9226910  76.5858850  53.8776900
  14.0697630  75.7999830  53.2789730   8.7319470  76.7545260  66.1282900
   8.6363070  75.8139990  65.9783300   9.5751450  76.9760330  65.7330970
  12.1282890  74.4986590  56.0916560  12.5212460  74.8158790  55.2785250
  12.4899740  73.6198470  56.2061080   3.8630010  73.1658930  64.2816680
   3.4693400  74.0134140  64.4889460   3.1748410  72.5285300  64.4725320
  10.4375060  73.2493900  67.3513420   9.7473380  73.0566100  67.9859510
  11.1807360  73.5328540  67.8837720  12.7138030  77.0892340  60.1867340
  11.9819150  77.5979150  60.5357440  12.3162370  76.2722320  59.8856120
   9.1515420  73.7646540  58.5919830   9.1551480  73.3236490  57.7424370
  10.0466540  74.0863870  58.6991650   5.0017800  73.6473030  57.5514040
   4.6617850  74.1248260  58.3081090   4.2395120  73.1938150  57.1915140
   9.2135570  74.7658620  51.5826590   9.3348390  74.7245100  52.5312410
   8.8284080  75.6282770  51.4273320  13.1763940  72.5426020  59.5990280
  13.1936680  72.9934670  60.4432130  12.9279520  71.6431660  59.8123720
   8.2257070  77.0759760  50.9809890   7.6573970  76.6278010  50.3545800
   8.9346070  77.4352540  50.4475040  16.6034690  69.9558200  65.4376660
  16.9280460  69.2247860  65.9634640  16.6391200  69.6371840  64.5357650
   3.3026250  80.9771780  64.8576620   2.9181040  80.3365450  65.4559580
   3.6138440  81.6807900  65.4271350   9.4523390  77.8248320  60.3385240
   9.8193520  77.3506890  61.0846580   9.2628450  78.6989890  60.6793580
   2.3163880  72.5692010  56.4678710   2.0310800  72.2047680  57.3057330
   2.2542740  71.8372470  55.8541850   7.2422760  76.8656960  62.6569450
   6.9379830  77.7448940  62.8819810   8.1969220  76.9256750  62.6926890
   5.7704550  81.0717950  53.2536300   4.9966810  80.5315570  53.0935020
   6.4999180  80.5524560  52.9154060  11.9902470  71.4621270  53.1892080
  11.1767080  70.9634440  53.1137390  11.7964420  72.3019520  52.7728430
  14.7050860  75.8340920  51.4854240  15.5930480  76.1458150  51.3105580
  14.6755950  74.9613170  51.0934820   5.8141950  80.7398330  56.8915110
   6.3320620  79.9366590  56.8372000   5.3625970  80.6777470  57.7331940
  10.7011450  82.0064610  52.1642410  11.0427150  82.7506840  51.6685730
   9.8724160  82.3195730  52.5267240   3.2986490  77.7059700  63.8040810
   2.9401430  78.3713550  64.3914150   3.0041050  76.8743250  64.1753430
   6.4999610  78.1643940  66.6880360   6.1999750  78.3101120  65.7908180
   7.2710850  77.6049230  66.5953750  16.9765130  77.1452760  50.9534100
  16.8928850  77.5766980  50.1030540  17.6959320  77.6051110  51.3860920
  18.0052380  83.9995020  53.6816230  17.3628540  83.3450640  53.9559950
  17.6183040  84.4050110  52.9056900  13.5838860  81.3280450  57.5287920
  13.9362680  80.7308580  56.8689290  12.7001190  81.0024680  57.6996170
   9.6702140  82.0878140  54.9358330  10.3573270  82.6347350  55.3165920
   8.8834560  82.6318870  54.9707940   8.9729350  79.0924170  54.5483690
   9.4292130  79.9029420  54.7743880   8.6217560  78.7747310  55.3802180
  11.2761960  84.6030510  61.7775990  11.9204180  84.8089890  62.4549410
  11.6391400  83.8418910  61.3246840   4.8741130  69.4361820  55.0206210
   4.7455760  69.4279720  55.9691130   4.0503150  69.7744910  54.6697220
  12.5494040  82.6062860  60.4953440  13.1916270  81.9056020  60.6085610
  13.0743390  83.3861300  60.3150330  16.3949760  82.8911480  50.2192580
  16.1687340  82.1741920  50.8117220  16.0045960  82.6423920  49.3814330
   2.1765790  86.9178340  50.9937040   2.5363430  87.5167680  50.3394310
   2.0358130  87.4638230  51.7672070  15.9766010  80.8083420  51.8806740
  15.6887710  81.2696110  52.6684620  16.7718180  80.3481190  52.1490960
  10.1520240  83.4549090  66.8677560   9.8317110  82.7358330  67.4123250
   9.4778600  84.1304160  66.9413620   8.1934410  84.3009540  51.8110710
   8.1844510  85.0339230  51.1955220   7.2732770  84.0541120  51.9037670
   3.7941050  79.5224430  52.5557470   3.1869000  80.2623330  52.5652770
   4.2690400  79.6123790  51.7295670  13.3673840  73.6875250  62.2314360
  13.7354660  72.8670460  62.5593930  12.5072040  73.7477140  62.6470010
  11.1794010  84.3637780  50.4735900  11.2805990  84.1601770  49.5437880
  10.2795750  84.1096060  50.6783680   8.7019900  74.9218140  54.4559800
   7.9936050  75.3904480  54.8973410   8.9864380  74.2640150  55.0904990
  10.3275830  76.3414840  62.4552330  10.8261080  76.8160660  63.1204180
  10.4698780  75.4178360  62.6622360  12.7335330  71.6468800  55.8955590
  12.6103110  71.6654930  54.9465100  13.6819890  71.6947740  56.0153990
   9.8212120  86.8824100  55.1683570  10.0753620  86.8445490  54.2462940
   8.8724600  86.7557430  55.1611820   6.9054920  73.2303220  51.8310510
   7.7545450  73.6673370  51.7650700   6.5386190  73.5423480  52.6582570
  17.5342690  72.5582800  63.2980720  17.0316290  73.2988200  63.6374530
  18.3499350  72.9466800  62.9817510  15.8264700  77.8015980  56.7442080
  14.8854840  77.8166210  56.9189770  16.1408770  77.0151940  57.1902380
   5.8046340  79.4835580  50.3046040   6.5709610  79.3716940  50.8671470
   5.8821030  78.7873550  49.6522810   4.4993100  76.9160650  50.9878930
   4.5796690  75.9688160  51.0996330   5.3912850  77.2467530  51.0939590
  17.8290280  84.9724830  58.4196340  17.9537700  85.7956000  58.8920150
  18.6955840  84.7615560  58.0720490   5.3007810  87.0656040  58.0913470
   6.0370290  86.5171500  58.3622040   5.6848730  87.9312050  57.9519460
   4.3066090  86.2502110  67.2799050   5.1078820  86.5714160  67.6934450
   3.7917910  85.8897690  68.0018960   8.4110120  86.2386350  49.9139040
   9.2038730  86.5275180  49.4620830   7.8914470  85.8078520  49.2351520
  17.4640290  85.4656480  51.3375780  17.1781800  85.0521620  50.5229960
  17.2659840  86.3944190  51.2176300   8.9287520  81.4589760  49.7781390
   8.8238160  80.8442110  50.5042770   8.7611740  80.9355650  48.9944400
   9.0801840  80.1446560  65.7570620   8.3147510  80.7131560  65.6725290
   9.2617800  79.8522770  64.8638850  12.1690250  80.5209790  50.3823380
  11.6200350  80.9679090  51.0266120  12.7909510  80.0159040  50.9061050
   4.0586980  76.8805160  67.1185170   4.0992320  76.5819030  68.0270400
   4.9132480  77.2812770  66.9592690   7.8365370  79.4800710  52.2788680
   8.2581790  79.3140580  53.1220070   7.9616210  78.6700940  51.7843820
   5.9992790  75.4597260  65.0859660   5.4689250  74.9688210  64.4583000
   6.6680860  75.8881460  64.5517590  10.3493010  78.5038320  49.5265780
  10.8698670  77.7887340  49.1606930  10.9961410  79.1424190  49.8266290
   6.4865090  72.4259630  65.1656950   6.3921960  71.8080380  64.4407820
   5.9062480  73.1525920  64.9386860   9.2526530  70.9832870  62.1984340
   8.8043830  71.0057130  61.3529890   8.6191730  70.5851890  62.7954640
   9.6586080  79.8787200  62.8196780  10.0774190  80.7219930  62.6473020
   8.7394710  80.0159240  62.5903560  11.9949980  77.6103380  64.2034620
  12.1146190  77.0144520  64.9429460  12.8543980  77.6473070  63.7835920
   6.7324270  75.5533940  49.2246840   6.5313330  74.6901300  49.5860180
   6.5616320  75.4667300  48.2868440   7.5093500  86.1840210  63.9354510
   6.9714590  86.9086270  63.6163210   7.7627460  85.7070550  63.1451850
   8.7618750  74.1524730  65.4610440   9.3518440  73.8440580  66.1488260
   7.9438990  73.6804480  65.6170340  13.5812180  73.7690540  65.6943460
  12.8927700  73.1072080  65.6293450  14.3018200  73.3228810  66.1391920
  14.2112580  70.3642170  51.7533720  14.4914870  69.5210070  52.1093140
  13.4378310  70.5965280  52.2672470   5.5307070  72.6534560  49.2124720
   5.8332970  72.6601990  48.3043870   6.2701660  72.3032420  49.7092380
  10.3655710  87.4191420  64.1941160  10.2914410  88.3226560  64.5013530
   9.4634550  87.1003320  64.1663230   8.7492000  71.5969180  50.1980920
   8.4014000  70.9193170  49.6183370   8.9504770  71.1358690  51.0124310
  10.9141040  86.5849930  51.8167520  11.8091830  86.9234900  51.8386280
  10.9458670  85.8629340  51.1891800   4.5537200  81.9576980  50.0454520
   4.9912070  82.5006650  50.7012100   5.0384930  81.1323930  50.0550860
   1.7683000  84.7466010  57.4974780   2.0986010  83.8787070  57.2653420
   2.1974000  84.9524530  58.3279740   6.3644920  83.0775020  55.1576750
   6.0640460  82.9539990  56.0580660   6.2582410  82.2183610  54.7492480
   2.2573210  85.6136600  60.2356410   1.8204200  85.7937400  61.0680560
   2.8250890  86.3711220  60.0938130  19.1336840  82.8571420  49.8603430
  18.3029800  82.9248070  50.3310660  19.3108670  83.7475540  49.5570290
  18.6412470  79.8953270  49.5210150  18.9161310  80.8032150  49.3929370
  18.4523210  79.8315800  50.4572140  15.0388080  72.9198120  50.8163780
  15.4572960  72.7329100  49.9760440  14.7324140  72.0677170  51.1266710
  18.5377810  77.8322260  54.5139580  18.1621410  77.0650190  54.0820870
  17.8080930  78.2144960  55.0014510   3.1273570  78.5109400  61.1348630
   3.4946610  78.4236800  62.0144650   2.5584390  77.7475950  61.0355490
   2.6789570  75.4218490  65.0407050   1.7845620  75.3885250  65.3800760
   3.2187120  75.6205280  65.8058300  16.3665500  72.2050210  66.9258800
  17.2435680  72.2133610  67.3092800  16.3786340  71.4681050  66.3151150
   3.8462930  74.3921300  50.4465000   4.5554630  73.9704520  49.9612280
   3.1302870  74.4596530  49.8148350   3.4937090  70.4460630  49.4867650
   4.2165220  70.9869570  49.8048870   3.7661610  70.1724050  48.6109190
   3.1829280  69.6966820  59.3890270   3.8305470  69.1464200  58.9485430
   3.6031120  69.9509970  60.2106080  18.7315900  73.9514050  56.2876910
  18.6215180  73.7970090  57.2259180  19.4923490  73.4234990  56.0452320
  17.0781620  69.8908180  62.7459910  17.7153840  70.5042320  63.1119100
  17.2256510  69.9268840  61.8009140  19.6206170  71.7821970  49.5283050
  20.5455480  71.6503150  49.3201340  19.5981960  71.8614790  50.4819500
  16.6363080  86.5924180  56.1478150  17.2322150  86.2708750  55.4712570
  16.8941230  86.1196000  56.9391420   2.9361280  69.8522490  62.1315590
   2.5876100  70.3086310  62.8973770   2.6048980  68.9579620  62.2138020
   4.5425650  83.0242090  66.2968780   4.4995280  82.6535000  67.1783240
   4.6736660  83.9619660  66.4370600   8.2431680  84.5801680  61.8978500
   8.0023040  84.8476240  61.0109020   9.1834320  84.7507410  61.9529360
  10.4486100  71.0434370  65.6535010  10.3874990  71.6356200  66.4030420
  11.3886480  70.9360330  65.5085270  13.0860660  70.7004430  65.2927300
  13.7001070  71.0183720  64.6308380  13.6310220  70.2153020  65.9123160
   3.6081920  69.3798690  65.4066360   4.1564910  69.1986740  64.6432470
   3.6737230  68.5892800  65.9422670   4.3813680  85.9704340  63.4166560
   3.7874000  85.8389040  64.1556600   4.3737520  85.1342480  62.9508660
  13.8268700  69.2636570  61.6196590  12.9528540  69.5971680  61.4169520
  13.7179450  68.7909750  62.4448460  14.7340680  71.4707440  63.0038310
  14.4054040  70.6559200  62.6240040  15.6822980  71.4277250  62.8804000
  17.1875290  87.2419480  59.9775880  16.7278260  87.9935290  59.6033900
  16.5587750  86.5225950  59.9190680   4.0125910  83.3362720  62.3674600
   3.2859970  82.7168010  62.3000550   4.0735060  83.7303330  61.4972680
   7.6171010  85.5507720  59.1524010   8.1336030  84.9395080  58.6272270
   8.2668390  86.0536500  59.6435020  10.3566510  86.4416210  59.9792990
  10.6444320  86.1870510  59.1026000  10.8689730  85.8893570  60.5698560
  11.5743520  70.1806410  60.5589500  10.7915310  70.6551910  60.8386260
  11.2806450  69.2761240  60.4502680  16.1264590  70.8829510  58.6038590
  16.5672680  70.8274610  57.7560190  15.8572180  71.7987520  58.6748770
  17.9903160  70.5144750  56.6147410  17.9291560  69.5705970  56.4678430
  18.7695190  70.6224840  57.1600870   2.9183930  70.4853890  53.0803220
   3.6763290  70.5982770  52.5067250   2.4561100  71.3223090  53.0346650
   9.4597740  72.5993160  56.0705530   8.6472250  72.2250050  55.7301410
   9.9639380  71.8438240  56.3726720  13.9622720  69.2635610  57.3088600
  14.5652090  69.8355820  57.7837120  13.2215710  69.8275050  57.0862500
  17.1057320  69.6657170  52.5828880  17.3007950  70.5640620  52.8496310
  16.3187190  69.4344250  53.0761830   3.9018610  85.3470340  53.0221500
   3.3766230  85.7278370  52.3183460   3.8263190  85.9721110  53.7431210
   5.2909080  71.0117940  51.6205190   5.8201840  70.2247740  51.4913140
   5.9237400  71.6909130  51.8540720   7.4846920  70.7493080  54.6750580
   6.8549660  70.0480390  54.8420710   6.9452060  71.5097210  54.4583740
  10.4238870  87.3632310  67.3461190  11.3506180  87.1276580  67.3897150
  10.4089300  88.1904310  66.8647220  18.6583930  86.9057880  54.3435440
  18.8336120  86.2195620  53.6996360  17.9605500  87.4304930  53.9512110
   7.6102480  70.0277060  67.1103070   7.3286750  70.5310660  66.3463890
   7.9922180  69.2298810  66.7445200   6.5011580  87.2952720  51.8970750
   7.2330400  87.0112000  51.3494640   6.7605250  87.0566000  52.7870130
   5.6626370  83.4117450  51.9017080   5.0335250  83.8802550  52.4502910
   5.7774200  82.5666670  52.3363270  14.2117940  69.4430640  67.6883540
  14.0983390  69.7625250  68.5835060  15.0287680  69.8443150  67.3920820
  13.1176090  77.4623110  38.0518280  13.0370140  76.5477720  37.7809990
  12.7040510  77.9590180  37.3457990  11.2494130  79.2402130  39.9327550
  10.4736230  78.7602570  40.2226120  11.9007060  78.5607780  39.7583710
   5.2659960  79.5521940  40.8103310   4.4344840  79.2970650  41.2099820
   5.8740940  79.6232710  41.5461230  15.2701560  83.6462320  38.7126680
  14.8083090  82.8749560  39.0413850  16.0827110  83.6728390  39.2179130
   5.2461220  83.5862030  41.0061330   5.5489260  82.6959770  40.8271550
   5.9904810  84.1432250  40.7783580   3.6751910  74.5123830  34.5945700
   2.7868610  74.8539800  34.4925580   3.9593100  74.3124150  33.7026530
  11.4964870  85.9320330  38.3330670  10.8776310  86.3877830  37.7625110
  12.3516650  86.0871790  37.9320370  10.6903120  81.9159320  39.9397710
  10.6211400  80.9749260  39.7786840  11.4522980  82.0060730  40.5120280
   2.8809790  72.5213840  42.2654330   2.7012630  71.6239590  42.5457090
   2.4789870  73.0685710  42.9401280  11.7208290  74.7229700  40.1666640
  12.0973110  73.8501580  40.0540310  11.6227800  75.0588400  39.2757080
   5.8513300  73.0955330  35.6284080   5.9580050  73.9959060  35.9352840
   4.9405660  73.0473300  35.3378730  15.5032410  72.2180140  37.0994980
  16.3242030  71.7276710  37.1420460  15.5366490  72.8077800  37.8526820
   3.4996460  75.0174340  40.8736670   4.1806570  75.2812710  41.4924070
   3.1844510  74.1775210  41.2074680   7.6921030  76.0641700  39.9609260
   8.1999250  76.5622670  40.6014280   8.2234270  75.2876900  39.7848620
   5.9757130  70.7040260  44.2272680   5.9775570  71.2212650  43.4218580
   5.1461440  70.2270440  44.2042610  12.3628220  80.8159570  35.7262580
  11.7445490  81.2809020  35.1625300  12.8751470  81.5087050  36.1432090
   7.2259980  80.3435440  42.4046180   6.8929360  80.9704360  43.0467250
   7.4026660  80.8697320  41.6247850  15.7393890  74.1580520  39.8722520
  15.0349460  74.4465410  40.4525630  16.1006050  74.9680630  39.5122080
   5.6572460  72.4150220  42.2343130   5.9989270  73.2592270  41.9397000
   4.7188270  72.5633960  42.3508470   6.4379080  82.3116240  44.2195360
   7.0553080  82.9867320  43.9379810   5.5772200  82.7204220  44.1282860
  17.3556670  83.7755650  42.1350000  16.6720190  84.4454760  42.1266670
  17.8950960  83.9736300  41.3694860  18.8080810  73.6035310  40.2631730
  17.8605720  73.6374290  40.3947160  19.1330800  74.4174260  40.6481090
   9.3400350  69.9032490  38.5587720   9.6475330  69.3479380  37.8423220
   8.4101050  70.0376950  38.3760710  14.8915410  85.6199780  40.8495180
  14.9042570  85.2162070  39.9817440  14.3390630  86.3947070  40.7456610
  16.1860830  82.3416000  35.9385350  16.0757160  81.3990330  36.0634770
  16.1829080  82.7031640  36.8248110  14.2900850  80.5229620  42.1777790
  14.7069640  80.3089730  41.3431250  15.0140670  80.7802410  42.7486410
  11.7281110  77.9681320  35.2947840  10.8010390  77.9018700  35.5236310
  11.8805930  78.9061450  35.1803080  11.7150190  74.2398320  32.2915000
  10.7753860  74.4012280  32.3767460  12.0333450  74.9584000  31.7450990
  18.2362950  78.9216840  42.2694030  17.4081580  78.9909930  41.7944160
  18.8313430  79.5071150  41.8009860  15.7578400  79.5301620  35.7983090
  15.1390820  79.1921170  35.1509390  15.7402850  78.8861380  36.5062280
  15.2004960  75.7086160  43.2148900  14.7876140  76.5339870  43.4688890
  14.4680910  75.1231200  43.0225260   7.3337750  78.4946060  38.0767570
   6.9294750  77.7823310  37.5813470   7.4200870  78.1499300  38.9655610
   7.8019450  82.1813620  40.2406780   7.5047740  81.5759090  39.5614560
   8.7519270  82.2190930  40.1296140   6.0466370  75.2689270  41.8566610
   6.5980960  75.3784610  41.0819860   6.5609880  75.6426870  42.5721840
  15.8905060  85.7545490  43.9029880  15.4135620  86.5617680  43.7102490
  15.2066850  85.1023820  44.0556090   6.8937880  81.9195310  46.8914580
   5.9966410  82.1435280  47.1387980   6.9190750  82.0430250  45.9425980
  13.9343100  78.7688430  32.8055840  14.3736380  77.9310860  32.6593660
  14.6471520  79.4017830  32.8919980   5.7209100  78.7908630  45.4671950
   5.5816870  79.6631430  45.8359350   4.8390460  78.4481440  45.3219890
  12.0438480  83.7084500  36.7737080  12.4834390  84.4508830  36.3592470
  11.9825370  83.9511070  37.6976040   7.5189450  84.7330330  47.6757100
   7.4904880  85.1373280  46.8085530   7.3554420  83.8040690  47.5128700
  17.5160240  70.0231240  31.1196880  17.2032900  70.1158070  32.0195950
  18.2772710  70.6012270  31.0694310   4.0342380  77.3891040  35.5774220
   3.9139980  78.1153130  34.9655490   3.7243270  76.6193950  35.1002130
  19.4704270  85.5157430  48.9721270  19.9463990  85.9940320  49.6510350
  20.0911430  85.4474920  48.2466770   2.9175380  82.2606370  37.7949040
   2.5103460  82.4020960  36.9402640   3.8088390  81.9766530  37.5920250
  18.8737520  82.7070280  46.1321280  19.0000580  82.4682160  45.2138460
  18.9158900  81.8754820  46.6043360  12.7354260  86.4098280  44.7016090
  13.2498930  86.3206290  45.5038520  11.8923340  86.7557980  44.9944000
  14.7108660  86.6953620  34.1300090  14.5509800  86.4056560  35.0281920
  14.5455370  85.9193750  33.5945320   7.1897040  86.4752150  35.9071710
   7.0139520  85.5587690  35.6939510   6.3352780  86.8339440  36.1469510
  14.4134790  84.2041180  32.6898090  13.7199950  84.2018470  32.0300370
  15.1557650  83.7800500  32.2592260  13.9784720  85.8303890  36.7646580
  14.4341670  85.0493270  37.0785200  14.3177240  86.5410710  37.3087760
  18.7261530  74.7602740  47.0971020  18.1105800  75.2682410  46.5686480
  18.4057950  73.8601070  47.0396960   6.5006040  70.7326110  38.9597890
   6.0574190  71.5135650  38.6282410   7.0591030  71.0556000  39.6668830
  10.7875850  73.5994630  44.5633210  10.3255220  73.8077650  45.3753150
  10.3853960  72.7853980  44.2603880  15.7880360  74.8203580  45.6929870
  14.9373950  74.5209330  46.0138940  15.6282150  75.0645590  44.7813690
  12.8830070  76.3205330  47.7928660  13.2083480  75.4869080  47.4530890
  13.6710400  76.8433850  47.9406990   9.6164860  70.3536810  33.8403720
   8.9919040  70.3496680  34.5657030   9.5294980  69.4867770  33.4439690
   8.5381940  71.2773440  40.8187490   8.8354270  72.1836270  40.7379510
   9.0867500  70.7892220  40.2047060   6.2920260  75.8559680  36.6879140
   6.0661180  75.6396850  37.5925760   5.5112790  76.2888140  36.3425110
  13.5218020  75.8623050  35.2869790  12.9226910  76.5858850  35.1033410
  14.0697630  75.7999830  34.5046240   8.7319470  76.7545260  47.3539410
   8.6363070  75.8139990  47.2039810   9.5751450  76.9760330  46.9587480
  12.1282890  74.4986590  37.3173070  12.5212460  74.8158790  36.5041760
  12.4899740  73.6198470  37.4317590   3.8630010  73.1658930  45.5073190
   3.4693400  74.0134140  45.7145970   3.1748410  72.5285300  45.6981830
  10.4375060  73.2493900  48.5769930   9.7473380  73.0566100  49.2116020
  11.1807360  73.5328540  49.1094230  12.7138030  77.0892340  41.4123850
  11.9819150  77.5979150  41.7613950  12.3162370  76.2722320  41.1112630
   9.1515420  73.7646540  39.8176340   9.1551480  73.3236490  38.9680880
  10.0466540  74.0863870  39.9248160   5.0017800  73.6473030  38.7770550
   4.6617850  74.1248260  39.5337600   4.2395120  73.1938150  38.4171650
   9.2135570  74.7658620  32.8083100   9.3348390  74.7245100  33.7568920
   8.8284080  75.6282770  32.6529830  13.1763940  72.5426020  40.8246790
  13.1936680  72.9934670  41.6688640  12.9279520  71.6431660  41.0380230
   8.2257070  77.0759760  32.2066400   7.6573970  76.6278010  31.5802310
   8.9346070  77.4352540  31.6731550  16.6034690  69.9558200  46.6633170
  16.9280460  69.2247860  47.1891150  16.6391200  69.6371840  45.7614160
   3.3026250  80.9771780  46.0833130   2.9181040  80.3365450  46.6816090
   3.6138440  81.6807900  46.6527860   9.4523390  77.8248320  41.5641750
   9.8193520  77.3506890  42.3103090   9.2628450  78.6989890  41.9050090
   2.3163880  72.5692010  37.6935220   2.0310800  72.2047680  38.5313840
   2.2542740  71.8372470  37.0798360   7.2422760  76.8656960  43.8825960
   6.9379830  77.7448940  44.1076320   8.1969220  76.9256750  43.9183400
   5.7704550  81.0717950  34.4792810   4.9966810  80.5315570  34.3191530
   6.4999180  80.5524560  34.1410570  16.5292530  80.0683310  40.2719200
  17.2491650  80.5638600  39.8815310  16.3274350  79.3901200  39.6273070
  11.9902470  71.4621270  34.4148590  11.1767080  70.9634440  34.3393900
  11.7964420  72.3019520  33.9984940  11.9111330  80.1392370  46.1588200
  11.8448640  79.2188040  45.9045790  11.2816470  80.2367810  46.8732840
  14.7050860  75.8340920  32.7110750  15.5930480  76.1458150  32.5362090
  14.6755950  74.9613170  32.3191330   5.8141950  80.7398330  38.1171620
   6.3320620  79.9366590  38.0628510   5.3625970  80.6777470  38.9588450
  10.7011450  82.0064610  33.3898920  11.0427150  82.7506840  32.8942240
   9.8724160  82.3195730  33.7523750   3.2986490  77.7059700  45.0297320
   2.9401430  78.3713550  45.6170660   3.0041050  76.8743250  45.4009940
   6.4999610  78.1643940  47.9136870   6.1999750  78.3101120  47.0164690
   7.2710850  77.6049230  47.8210260  11.8428060  82.9612940  45.9092000
  11.8572600  82.0293900  45.6910910  11.1353160  83.0472700  46.5481770
  16.9765130  77.1452760  32.1790610  16.8928850  77.5766980  31.3287050
  17.6959320  77.6051110  32.6117430  18.0539270  79.6020280  45.2560580
  17.3287460  80.1949060  45.0589970  18.5814730  79.5943820  44.4573950
  18.0052380  83.9995020  34.9072740  17.3628540  83.3450640  35.1816460
  17.6183040  84.4050110  34.1313410  13.5838860  81.3280450  38.7544430
  13.9362680  80.7308580  38.0945800  12.7001190  81.0024680  38.9252680
   9.6702140  82.0878140  36.1614840  10.3573270  82.6347350  36.5422430
   8.8834560  82.6318870  36.1964450   8.9729350  79.0924170  35.7740200
   9.4292130  79.9029420  36.0000390   8.6217560  78.7747310  36.6058690
  11.2761960  84.6030510  43.0032500  11.9204180  84.8089890  43.6805920
  11.6391400  83.8418910  42.5503350   4.8741130  69.4361820  36.2462720
   4.7455760  69.4279720  37.1947640   4.0503150  69.7744910  35.8953730
  12.5494040  82.6062860  41.7209950  13.1916270  81.9056020  41.8342120
  13.0743390  83.3861300  41.5406840  16.3949760  82.8911480  31.4449090
  16.1687340  82.1741920  32.0373730  16.0045960  82.6423920  30.6070840
  14.3231660  83.4057760  44.9246010  14.6587900  83.9924450  45.6023930
  13.4032000  83.2750470  45.1543800   2.1765790  86.9178340  32.2193550
   2.5363430  87.5167680  31.5650820   2.0358130  87.4638230  32.9928580
  15.9766010  80.8083420  33.1063250  15.6887710  81.2696110  33.8941130
  16.7718180  80.3481190  33.3747470  10.1520240  83.4549090  48.0934070
   9.8317110  82.7358330  48.6379760   9.4778600  84.1304160  48.1670130
   8.1934410  84.3009540  33.0367220   8.1844510  85.0339230  32.4211730
   7.2732770  84.0541120  33.1294180   3.7941050  79.5224430  33.7813980
   3.1869000  80.2623330  33.7909280   4.2690400  79.6123790  32.9552180
  13.3673840  73.6875250  43.4570870  13.7354660  72.8670460  43.7850440
  12.5072040  73.7477140  43.8726520  16.7335870  72.6432190  34.2658430
  16.1049030  72.7477860  33.5516660  16.2387790  72.8628970  35.0552310
  11.1794010  84.3637780  31.6992410  11.2805990  84.1601770  30.7694390
  10.2795750  84.1096060  31.9040190   8.7019900  74.9218140  35.6816310
   7.9936050  75.3904480  36.1229920   8.9864380  74.2640150  36.3161500
  10.3275830  76.3414840  43.6808840  10.8261080  76.8160660  44.3460690
  10.4698780  75.4178360  43.8878870  12.7335330  71.6468800  37.1212100
  12.6103110  71.6654930  36.1721610  13.6819890  71.6947740  37.2410500
   9.8212120  86.8824100  36.3940080  10.0753620  86.8445490  35.4719450
   8.8724600  86.7557430  36.3868330   6.9054920  73.2303220  33.0567020
   7.7545450  73.6673370  32.9907210   6.5386190  73.5423480  33.8839080
  17.5342690  72.5582800  44.5237230  17.0316290  73.2988200  44.8631040
  18.3499350  72.9466800  44.2074020  15.8264700  77.8015980  37.9698590
  14.8854840  77.8166210  38.1446280  16.1408770  77.0151940  38.4158890
   5.8046340  79.4835580  31.5302550   6.5709610  79.3716940  32.0927980
   5.8821030  78.7873550  30.8779320   4.4993100  76.9160650  32.2135440
   4.5796690  75.9688160  32.3252840   5.3912850  77.2467530  32.3196100
  17.8290280  84.9724830  39.6452850  17.9537700  85.7956000  40.1176660
  18.6955840  84.7615560  39.2977000   5.3007810  87.0656040  39.3169980
   6.0370290  86.5171500  39.5878550   5.6848730  87.9312050  39.1775970
   4.3066090  86.2502110  48.5055560   5.1078820  86.5714160  48.9190960
   3.7917910  85.8897690  49.2275470   8.4110120  86.2386350  31.1395550
   9.2038730  86.5275180  30.6877340   7.8914470  85.8078520  30.4608030
  13.1430720  82.3581980  48.4530970  12.5368880  82.3813580  47.7126720
  12.8384830  81.6265020  48.9898220  14.5731090  86.0862270  47.0640380
  15.5252840  86.0020290  47.0140620  14.4259310  86.7503980  47.7374170
  17.4640290  85.4656480  32.5632290  17.1781800  85.0521620  31.7486470
  17.2659840  86.3944190  32.4432810   8.9287520  81.4589760  31.0037900
   8.8238160  80.8442110  31.7299280   8.7611740  80.9355650  30.2200910
   9.0801840  80.1446560  46.9827130   8.3147510  80.7131560  46.8981800
   9.2617800  79.8522770  46.0895360  12.1690250  80.5209790  31.6079890
  11.6200350  80.9679090  32.2522630  12.7909510  80.0159040  32.1317560
  16.2225190  81.8751890  47.5402150  16.9634660  82.2127650  47.0369610
  15.4597870  82.0443950  46.9871920   4.0586980  76.8805160  48.3441680
   4.0992320  76.5819030  49.2526910   4.9132480  77.2812770  48.1849200
   7.8365370  79.4800710  33.5045190   8.2581790  79.3140580  34.3476580
   7.9616210  78.6700940  33.0100330   5.9992790  75.4597260  46.3116170
   5.4689250  74.9688210  45.6839510   6.6680860  75.8881460  45.7774100
  10.3493010  78.5038320  30.7522290  10.8698670  77.7887340  30.3863440
  10.9961410  79.1424190  31.0522800  14.8970850  79.9266720  46.0757360
  15.3111870  80.0811800  46.9247780  13.9621850  80.0521940  46.2383140
  15.3693020  77.2662880  48.0796510  15.9513790  76.5115200  47.9916990
  15.5454790  77.7970320  47.3027990   6.4865090  72.4259630  46.3913460
   6.3921960  71.8080380  45.6664330   5.9062480  73.1525920  46.1643370
   9.2526530  70.9832870  43.4240850   8.8043830  71.0057130  42.5786400
   8.6191730  70.5851890  44.0211150   9.6586080  79.8787200  44.0453290
  10.0774190  80.7219930  43.8729530   8.7394710  80.0159240  43.8160070
  11.9949980  77.6103380  45.4291130  12.1146190  77.0144520  46.1685970
  12.8543980  77.6473070  45.0092430  14.3337880  78.1640570  44.0053640
  13.8073100  78.6883190  43.4018780  14.6769220  78.7967960  44.6363370
   6.7324270  75.5533940  30.4503350   6.5313330  74.6901300  30.8116690
   6.5616320  75.4667300  29.5124950   7.5093500  86.1840210  45.1611020
   6.9714590  86.9086270  44.8419720   7.7627460  85.7070550  44.3708360
   8.7618750  74.1524730  46.6866950   9.3518440  73.8440580  47.3744770
   7.9438990  73.6804480  46.8426850  13.5812180  73.7690540  46.9199970
  12.8927700  73.1072080  46.8549960  14.3018200  73.3228810  47.3648430
  14.2112580  70.3642170  32.9790230  14.4914870  69.5210070  33.3349650
  13.4378310  70.5965280  33.4928980   5.5307070  72.6534560  30.4381230
   5.8332970  72.6601990  29.5300380   6.2701660  72.3032420  30.9348890
  10.3655710  87.4191420  45.4197670  10.2914410  88.3226560  45.7270040
   9.4634550  87.1003320  45.3919740   8.7492000  71.5969180  31.4237430
   8.4014000  70.9193170  30.8439880   8.9504770  71.1358690  32.2380820
  10.9141040  86.5849930  33.0424030  11.8091830  86.9234900  33.0642790
  10.9458670  85.8629340  32.4148310   4.5537200  81.9576980  31.2711030
   4.9912070  82.5006650  31.9268610   5.0384930  81.1323930  31.2807370
   1.7683000  84.7466010  38.7231290   2.0986010  83.8787070  38.4909930
   2.1974000  84.9524530  39.5536250   6.3644920  83.0775020  36.3833260
   6.0640460  82.9539990  37.2837170   6.2582410  82.2183610  35.9748990
   2.2573210  85.6136600  41.4612920   1.8204200  85.7937400  42.2937070
   2.8250890  86.3711220  41.3194640  17.8935390  85.1153600  45.7490230
  17.2937380  85.1746160  45.0054150  18.0229290  84.1758580  45.8787080
  19.1336840  82.8571420  31.0859940  18.3029800  82.9248070  31.5567170
  19.3108670  83.7475540  30.7826800  18.5893300  79.6018900  33.5894140
  19.3512210  80.1715550  33.6953830  18.6047670  79.0346100  34.3602450
  19.5953270  80.4569000  38.4336070  19.9662100  79.6736320  38.0272040
  20.2355200  81.1458100  38.2553370  16.5787030  81.8405580  43.8466390
  15.7646870  82.2702740  44.1092180  16.9861230  82.4523990  43.2335440
  18.6412470  79.8953270  30.7466660  18.9161310  80.8032150  30.6185880
  18.4523210  79.8315800  31.6828650  15.0388080  72.9198120  32.0420290
  15.4572960  72.7329100  31.2016950  14.7324140  72.0677170  32.3523220
  18.5377810  77.8322260  35.7396090  18.1621410  77.0650190  35.3077380
  17.8080930  78.2144960  36.2271020   3.1273570  78.5109400  42.3605140
   3.4946610  78.4236800  43.2401160   2.5584390  77.7475950  42.2612000
  17.9277430  76.9793780  45.3735610  17.6963520  76.7506530  44.4733560
  18.1881980  77.8993330  45.3280500   2.6789570  75.4218490  46.2663560
   1.7845620  75.3885250  46.6057270   3.2187120  75.6205280  47.0314810
  16.3665500  72.2050210  48.1515310  17.2435680  72.2133610  48.5349310
  16.3786340  71.4681050  47.5407660  17.8128770  76.0579750  39.0403330
  18.3366250  75.5642400  38.4093500  18.3988190  76.1930110  39.7850900
  17.9918490  76.1419620  42.5622880  17.0421200  76.1083160  42.6767870
  18.1731500  77.0519730  42.3272650   3.8462930  74.3921300  31.6721510
   4.5554630  73.9704520  31.1868790   3.1302870  74.4596530  31.0404860
   3.4937090  70.4460630  30.7124160   4.2165220  70.9869570  31.0305380
   3.7661610  70.1724050  29.8365700  17.3028740  75.3153100  34.9795740
  17.7987860  75.0823970  35.7644620  17.1044810  74.4764940  34.5633380
   3.1829280  69.6966820  40.6146780   3.8305470  69.1464200  40.1741940
   3.6031120  69.9509970  41.4362590  18.7315900  73.9514050  37.5133420
  18.6215180  73.7970090  38.4515690  19.4923490  73.4234990  37.2708830
  17.0781620  69.8908180  43.9716420  17.7153840  70.5042320  44.3375610
  17.2256510  69.9268840  43.0265650  19.6206170  71.7821970  30.7539560
  20.5455480  71.6503150  30.5457850  19.5981960  71.8614790  31.7076010
  19.6944660  72.5532630  33.3796270  18.8996160  72.4877750  33.9089180
  19.8987940  73.4883270  33.3681620  16.6363080  86.5924180  37.3734660
  17.2322150  86.2708750  36.6969080  16.8941230  86.1196000  38.1647930
   2.9361280  69.8522490  43.3572100   2.5876100  70.3086310  44.1230280
   2.6048980  68.9579620  43.4394530   4.5425650  83.0242090  47.5225290
   4.4995280  82.6535000  48.4039750   4.6736660  83.9619660  47.6627110
   8.2431680  84.5801680  43.1235010   8.0023040  84.8476240  42.2365530
   9.1834320  84.7507410  43.1785870  10.4486100  71.0434370  46.8791520
  10.3874990  71.6356200  47.6286930  11.3886480  70.9360330  46.7341780
  13.0860660  70.7004430  46.5183810  13.7001070  71.0183720  45.8564890
  13.6310220  70.2153020  47.1379670  19.5035840  86.5996060  43.9245650
  19.0094120  86.9964930  43.2072780  18.8949130  85.9745270  44.3182930
   3.6081920  69.3798690  46.6322870   4.1564910  69.1986740  45.8688980
   3.6737230  68.5892800  47.1679180   4.3813680  85.9704340  44.6423070
   3.7874000  85.8389040  45.3813110   4.3737520  85.1342480  44.1765170
  13.8268700  69.2636570  42.8453100  12.9528540  69.5971680  42.6426030
  13.7179450  68.7909750  43.6704970  14.7340680  71.4707440  44.2294820
  14.4054040  70.6559200  43.8496550  15.6822980  71.4277250  44.1060510
  17.1875290  87.2419480  41.2032390  16.7278260  87.9935290  40.8290410
  16.5587750  86.5225950  41.1447190   4.0125910  83.3362720  43.5931110
   3.2859970  82.7168010  43.5257060   4.0735060  83.7303330  42.7229190
   7.6171010  85.5507720  40.3780520   8.1336030  84.9395080  39.8528780
   8.2668390  86.0536500  40.8691530  10.3566510  86.4416210  41.2049500
  10.6444320  86.1870510  40.3282510  10.8689730  85.8893570  41.7955070
  11.5743520  70.1806410  41.7846010  10.7915310  70.6551910  42.0642770
  11.2806450  69.2761240  41.6759190  16.1264590  70.8829510  39.8295100
  16.5672680  70.8274610  38.9816700  15.8572180  71.7987520  39.9005280
  17.9903160  70.5144750  37.8403920  17.9291560  69.5705970  37.6934940
  18.7695190  70.6224840  38.3857380   2.9183930  70.4853890  34.3059730
   3.6763290  70.5982770  33.7323760   2.4561100  71.3223090  34.2603160
   9.4597740  72.5993160  37.2962040   8.6472250  72.2250050  36.9557920
   9.9639380  71.8438240  37.5983230  13.9622720  69.2635610  38.5345110
  14.5652090  69.8355820  39.0093630  13.2215710  69.8275050  38.3119010
  17.1057320  69.6657170  33.8085390  17.3007950  70.5640620  34.0752820
  16.3187190  69.4344250  34.3018340   3.9018610  85.3470340  34.2478010
   3.3766230  85.7278370  33.5439970   3.8263190  85.9721110  34.9687720
   5.2909080  71.0117940  32.8461700   5.8201840  70.2247740  32.7169650
   5.9237400  71.6909130  33.0797230   7.4846920  70.7493080  35.9007090
   6.8549660  70.0480390  36.0677220   6.9452060  71.5097210  35.6840250
  10.4238870  87.3632310  48.5717700  11.3506180  87.1276580  48.6153660
  10.4089300  88.1904310  48.0903730  18.6583930  86.9057880  35.5691950
  18.8336120  86.2195620  34.9252870  17.9605500  87.4304930  35.1768620
   7.6102480  70.0277060  48.3359580   7.3286750  70.5310660  47.5720400
   7.9922180  69.2298810  47.9701710   6.5011580  87.2952720  33.1227260
   7.2330400  87.0112000  32.5751150   6.7605250  87.0566000  34.0126640
   5.6626370  83.4117450  33.1273590   5.0335250  83.8802550  33.6759420
   5.7774200  82.5666670  33.5619780  14.2117940  69.4430640  48.9140050
  14.0983390  69.7625250  49.8091570  15.0287680  69.8443150  48.6177330
  16.9916430  86.5902170  48.3958740  17.7841750  86.0951400  48.1884700
  17.2849580  87.2692310  49.0034350  13.1176090  77.4623110  19.2774790
  13.0370140  76.5477720  19.0066500  12.7040510  77.9590180  18.5714500
  11.2494130  79.2402130  21.1584060  10.4736230  78.7602570  21.4482630
  11.9007060  78.5607780  20.9840220   5.2659960  79.5521940  22.0359820
   4.4344840  79.2970650  22.4356330   5.8740940  79.6232710  22.7717740
  15.2701560  83.6462320  19.9383190  14.8083090  82.8749560  20.2670360
  16.0827110  83.6728390  20.4435640   5.2461220  83.5862030  22.2317840
   5.5489260  82.6959770  22.0528060   5.9904810  84.1432250  22.0040090
   3.6751910  74.5123830  15.8202210   2.7868610  74.8539800  15.7182090
   3.9593100  74.3124150  14.9283040  11.4964870  85.9320330  19.5587180
  10.8776310  86.3877830  18.9881620  12.3516650  86.0871790  19.1576880
  10.6903120  81.9159320  21.1654220  10.6211400  80.9749260  21.0043350
  11.4522980  82.0060730  21.7376790   2.8809790  72.5213840  23.4910840
   2.7012630  71.6239590  23.7713600   2.4789870  73.0685710  24.1657790
  11.7208290  74.7229700  21.3923150  12.0973110  73.8501580  21.2796820
  11.6227800  75.0588400  20.5013590   5.8513300  73.0955330  16.8540590
   5.9580050  73.9959060  17.1609350   4.9405660  73.0473300  16.5635240
  15.5032410  72.2180140  18.3251490  16.3242030  71.7276710  18.3676970
  15.5366490  72.8077800  19.0783330   3.4996460  75.0174340  22.0993180
   4.1806570  75.2812710  22.7180580   3.1844510  74.1775210  22.4331190
   7.6921030  76.0641700  21.1865770   8.1999250  76.5622670  21.8270790
   8.2234270  75.2876900  21.0105130  19.7931960  74.2346890  24.8895120
  19.0884130  74.6228600  24.3710230  20.0589880  74.9297180  25.4916050
   5.9757130  70.7040260  25.4529190   5.9775570  71.2212650  24.6475090
   5.1461440  70.2270440  25.4299120  12.3628220  80.8159570  16.9519090
  11.7445490  81.2809020  16.3881810  12.8751470  81.5087050  17.3688600
   7.2259980  80.3435440  23.6302690   6.8929360  80.9704360  24.2723760
   7.4026660  80.8697320  22.8504360  15.7393890  74.1580520  21.0979030
  15.0349460  74.4465410  21.6782140  16.1006050  74.9680630  20.7378590
   5.6572460  72.4150220  23.4599640   5.9989270  73.2592270  23.1653510
   4.7188270  72.5633960  23.5764980   6.4379080  82.3116240  25.4451870
   7.0553080  82.9867320  25.1636320   5.5772200  82.7204220  25.3539370
  17.3556670  83.7755650  23.3606510  16.6720190  84.4454760  23.3523180
  17.8950960  83.9736300  22.5951370  18.8080810  73.6035310  21.4888240
  17.8605720  73.6374290  21.6203670  19.1330800  74.4174260  21.8737600
   9.3400350  69.9032490  19.7844230   9.6475330  69.3479380  19.0679730
   8.4101050  70.0376950  19.6017220  14.8915410  85.6199780  22.0751690
  14.9042570  85.2162070  21.2073950  14.3390630  86.3947070  21.9713120
  16.1860830  82.3416000  17.1641860  16.0757160  81.3990330  17.2891280
  16.1829080  82.7031640  18.0504620  14.2900850  80.5229620  23.4034300
  14.7069640  80.3089730  22.5687760  15.0140670  80.7802410  23.9742920
  11.7281110  77.9681320  16.5204350  10.8010390  77.9018700  16.7492820
  11.8805930  78.9061450  16.4059590  11.7150190  74.2398320  13.5171510
  10.7753860  74.4012280  13.6023970  12.0333450  74.9584000  12.9707500
  18.2362950  78.9216840  23.4950540  17.4081580  78.9909930  23.0200670
  18.8313430  79.5071150  23.0266370  15.7578400  79.5301620  17.0239600
  15.1390820  79.1921170  16.3765900  15.7402850  78.8861380  17.7318790
  15.2004960  75.7086160  24.4405410  14.7876140  76.5339870  24.6945400
  14.4680910  75.1231200  24.2481770   7.3337750  78.4946060  19.3024080
   6.9294750  77.7823310  18.8069980   7.4200870  78.1499300  20.1912120
   7.8019450  82.1813620  21.4663290   7.5047740  81.5759090  20.7871070
   8.7519270  82.2190930  21.3552650   6.0466370  75.2689270  23.0823120
   6.5980960  75.3784610  22.3076370   6.5609880  75.6426870  23.7978350
  15.8905060  85.7545490  25.1286390  15.4135620  86.5617680  24.9359000
  15.2066850  85.1023820  25.2812600   6.8937880  81.9195310  28.1171090
   5.9966410  82.1435280  28.3644490   6.9190750  82.0430250  27.1682490
  13.9343100  78.7688430  14.0312350  14.3736380  77.9310860  13.8850170
  14.6471520  79.4017830  14.1176490   5.7209100  78.7908630  26.6928460
   5.5816870  79.6631430  27.0615860   4.8390460  78.4481440  26.5476400
  12.0438480  83.7084500  17.9993590  12.4834390  84.4508830  17.5848980
  11.9825370  83.9511070  18.9232550   7.5189450  84.7330330  28.9013610
   7.4904880  85.1373280  28.0342040   7.3554420  83.8040690  28.7385210
  17.5160240  70.0231240  12.3453390  17.2032900  70.1158070  13.2452460
  18.2772710  70.6012270  12.2950820   4.0342380  77.3891040  16.8030730
   3.9139980  78.1153130  16.1912000   3.7243270  76.6193950  16.3258640
  19.4704270  85.5157430  30.1977780  19.9463990  85.9940320  30.8766860
  20.0911430  85.4474920  29.4723280   2.9175380  82.2606370  19.0205550
   2.5103460  82.4020960  18.1659150   3.8088390  81.9766530  18.8176760
  18.8737520  82.7070280  27.3577790  19.0000580  82.4682160  26.4394970
  18.9158900  81.8754820  27.8299870  12.7354260  86.4098280  25.9272600
  13.2498930  86.3206290  26.7295030  11.8923340  86.7557980  26.2200510
  14.7108660  86.6953620  15.3556600  14.5509800  86.4056560  16.2538430
  14.5455370  85.9193750  14.8201830   7.1897040  86.4752150  17.1328220
   7.0139520  85.5587690  16.9196020   6.3352780  86.8339440  17.3726020
  14.4134790  84.2041180  13.9154600  13.7199950  84.2018470  13.2556880
  15.1557650  83.7800500  13.4848770  13.9784720  85.8303890  17.9903090
  14.4341670  85.0493270  18.3041710  14.3177240  86.5410710  18.5344270
  18.7261530  74.7602740  28.3227530  18.1105800  75.2682410  27.7942990
  18.4057950  73.8601070  28.2653470   6.5006040  70.7326110  20.1854400
   6.0574190  71.5135650  19.8538920   7.0591030  71.0556000  20.8925340
  10.7875850  73.5994630  25.7889720  10.3255220  73.8077650  26.6009660
  10.3853960  72.7853980  25.4860390  15.7880360  74.8203580  26.9186380
  14.9373950  74.5209330  27.2395450  15.6282150  75.0645590  26.0070200
  12.8830070  76.3205330  29.0185170  13.2083480  75.4869080  28.6787400
  13.6710400  76.8433850  29.1663500   9.6164860  70.3536810  15.0660230
   8.9919040  70.3496680  15.7913540   9.5294980  69.4867770  14.6696200
   8.5381940  71.2773440  22.0444000   8.8354270  72.1836270  21.9636020
   9.0867500  70.7892220  21.4303570   6.2920260  75.8559680  17.9135650
   6.0661180  75.6396850  18.8182270   5.5112790  76.2888140  17.5681620
  13.5218020  75.8623050  16.5126300  12.9226910  76.5858850  16.3289920
  14.0697630  75.7999830  15.7302750   8.7319470  76.7545260  28.5795920
   8.6363070  75.8139990  28.4296320   9.5751450  76.9760330  28.1843990
  12.1282890  74.4986590  18.5429580  12.5212460  74.8158790  17.7298270
  12.4899740  73.6198470  18.6574100   3.8630010  73.1658930  26.7329700
   3.4693400  74.0134140  26.9402480   3.1748410  72.5285300  26.9238340
  10.4375060  73.2493900  29.8026440   9.7473380  73.0566100  30.4372530
  11.1807360  73.5328540  30.3350740  12.7138030  77.0892340  22.6380360
  11.9819150  77.5979150  22.9870460  12.3162370  76.2722320  22.3369140
   9.1515420  73.7646540  21.0432850   9.1551480  73.3236490  20.1937390
  10.0466540  74.0863870  21.1504670   5.0017800  73.6473030  20.0027060
   4.6617850  74.1248260  20.7594110   4.2395120  73.1938150  19.6428160
   9.2135570  74.7658620  14.0339610   9.3348390  74.7245100  14.9825430
   8.8284080  75.6282770  13.8786340  13.1763940  72.5426020  22.0503300
  13.1936680  72.9934670  22.8945150  12.9279520  71.6431660  22.2636740
   8.2257070  77.0759760  13.4322910   7.6573970  76.6278010  12.8058820
   8.9346070  77.4352540  12.8988060  16.6034690  69.9558200  27.8889680
  16.9280460  69.2247860  28.4147660  16.6391200  69.6371840  26.9870670
   3.3026250  80.9771780  27.3089640   2.9181040  80.3365450  27.9072600
   3.6138440  81.6807900  27.8784370   9.4523390  77.8248320  22.7898260
   9.8193520  77.3506890  23.5359600   9.2628450  78.6989890  23.1306600
   2.3163880  72.5692010  18.9191730   2.0310800  72.2047680  19.7570350
   2.2542740  71.8372470  18.3054870   7.2422760  76.8656960  25.1082470
   6.9379830  77.7448940  25.3332830   8.1969220  76.9256750  25.1439910
   5.7704550  81.0717950  15.7049320   4.9966810  80.5315570  15.5448040
   6.4999180  80.5524560  15.3667080  16.5292530  80.0683310  21.4975710
  17.2491650  80.5638600  21.1071820  16.3274350  79.3901200  20.8529580
  11.9902470  71.4621270  15.6405100  11.1767080  70.9634440  15.5650410
  11.7964420  72.3019520  15.2241450  11.9111330  80.1392370  27.3844710
  11.8448640  79.2188040  27.1302300  11.2816470  80.2367810  28.0989350
  14.7050860  75.8340920  13.9367260  15.5930480  76.1458150  13.7618600
  14.6755950  74.9613170  13.5447840   5.8141950  80.7398330  19.3428130
   6.3320620  79.9366590  19.2885020   5.3625970  80.6777470  20.1844960
  10.7011450  82.0064610  14.6155430  11.0427150  82.7506840  14.1198750
   9.8724160  82.3195730  14.9780260   3.2986490  77.7059700  26.2553830
   2.9401430  78.3713550  26.8427170   3.0041050  76.8743250  26.6266450
   6.4999610  78.1643940  29.1393380   6.1999750  78.3101120  28.2421200
   7.2710850  77.6049230  29.0466770  11.8428060  82.9612940  27.1348510
  11.8572600  82.0293900  26.9167420  11.1353160  83.0472700  27.7738280
  16.9765130  77.1452760  13.4047120  16.8928850  77.5766980  12.5543560
  17.6959320  77.6051110  13.8373940  18.0539270  79.6020280  26.4817090
  17.3287460  80.1949060  26.2846480  18.5814730  79.5943820  25.6830460
  18.0052380  83.9995020  16.1329250  17.3628540  83.3450640  16.4072970
  17.6183040  84.4050110  15.3569920  13.5838860  81.3280450  19.9800940
  13.9362680  80.7308580  19.3202310  12.7001190  81.0024680  20.1509190
   9.6702140  82.0878140  17.3871350  10.3573270  82.6347350  17.7678940
   8.8834560  82.6318870  17.4220960   8.9729350  79.0924170  16.9996710
   9.4292130  79.9029420  17.2256900   8.6217560  78.7747310  17.8315200
  11.2761960  84.6030510  24.2289010  11.9204180  84.8089890  24.9062430
  11.6391400  83.8418910  23.7759860   4.8741130  69.4361820  17.4719230
   4.7455760  69.4279720  18.4204150   4.0503150  69.7744910  17.1210240
  12.5494040  82.6062860  22.9466460  13.1916270  81.9056020  23.0598630
  13.0743390  83.3861300  22.7663350  16.3949760  82.8911480  12.6705600
  16.1687340  82.1741920  13.2630240  16.0045960  82.6423920  11.8327350
  14.3231660  83.4057760  26.1502520  14.6587900  83.9924450  26.8280440
  13.4032000  83.2750470  26.3800310   2.1765790  86.9178340  13.4450060
   2.5363430  87.5167680  12.7907330   2.0358130  87.4638230  14.2185090
  15.9766010  80.8083420  14.3319760  15.6887710  81.2696110  15.1197640
  16.7718180  80.3481190  14.6003980  10.1520240  83.4549090  29.3190580
   9.8317110  82.7358330  29.8636270   9.4778600  84.1304160  29.3926640
   8.1934410  84.3009540  14.2623730   8.1844510  85.0339230  13.6468240
   7.2732770  84.0541120  14.3550690   3.7941050  79.5224430  15.0070490
   3.1869000  80.2623330  15.0165790   4.2690400  79.6123790  14.1808690
  13.3673840  73.6875250  24.6827380  13.7354660  72.8670460  25.0106950
  12.5072040  73.7477140  25.0983030  16.7335870  72.6432190  15.4914940
  16.1049030  72.7477860  14.7773170  16.2387790  72.8628970  16.2808820
  11.1794010  84.3637780  12.9248920  11.2805990  84.1601770  11.9950900
  10.2795750  84.1096060  13.1296700   8.7019900  74.9218140  16.9072820
   7.9936050  75.3904480  17.3486430   8.9864380  74.2640150  17.5418010
  10.3275830  76.3414840  24.9065350  10.8261080  76.8160660  25.5717200
  10.4698780  75.4178360  25.1135380  12.7335330  71.6468800  18.3468610
  12.6103110  71.6654930  17.3978120  13.6819890  71.6947740  18.4667010
   9.8212120  86.8824100  17.6196590  10.0753620  86.8445490  16.6975960
   8.8724600  86.7557430  17.6124840   6.9054920  73.2303220  14.2823530
   7.7545450  73.6673370  14.2163720   6.5386190  73.5423480  15.1095590
  17.5342690  72.5582800  25.7493740  17.0316290  73.2988200  26.0887550
  18.3499350  72.9466800  25.4330530  15.8264700  77.8015980  19.1955100
  14.8854840  77.8166210  19.3702790  16.1408770  77.0151940  19.6415400
   5.8046340  79.4835580  12.7559060   6.5709610  79.3716940  13.3184490
   5.8821030  78.7873550  12.1035830   4.4993100  76.9160650  13.4391950
   4.5796690  75.9688160  13.5509350   5.3912850  77.2467530  13.5452610
  17.8290280  84.9724830  20.8709360  17.9537700  85.7956000  21.3433170
  18.6955840  84.7615560  20.5233510   5.3007810  87.0656040  20.5426490
   6.0370290  86.5171500  20.8135060   5.6848730  87.9312050  20.4032480
   4.3066090  86.2502110  29.7312070   5.1078820  86.5714160  30.1447470
   3.7917910  85.8897690  30.4531980   8.4110120  86.2386350  12.3652060
   9.2038730  86.5275180  11.9133850   7.8914470  85.8078520  11.6864540
  13.1430720  82.3581980  29.6787480  12.5368880  82.3813580  28.9383230
  12.8384830  81.6265020  30.2154730  14.5731090  86.0862270  28.2896890
  15.5252840  86.0020290  28.2397130  14.4259310  86.7503980  28.9630680
  17.4640290  85.4656480  13.7888800  17.1781800  85.0521620  12.9742980
  17.2659840  86.3944190  13.6689320   8.9287520  81.4589760  12.2294410
   8.8238160  80.8442110  12.9555790   8.7611740  80.9355650  11.4457420
   9.0801840  80.1446560  28.2083640   8.3147510  80.7131560  28.1238310
   9.2617800  79.8522770  27.3151870  12.1690250  80.5209790  12.8336400
  11.6200350  80.9679090  13.4779140  12.7909510  80.0159040  13.3574070
  16.2225190  81.8751890  28.7658660  16.9634660  82.2127650  28.2626120
  15.4597870  82.0443950  28.2128430   4.0586980  76.8805160  29.5698190
   4.0992320  76.5819030  30.4783420   4.9132480  77.2812770  29.4105710
   7.8365370  79.4800710  14.7301700   8.2581790  79.3140580  15.5733090
   7.9616210  78.6700940  14.2356840   5.9992790  75.4597260  27.5372680
   5.4689250  74.9688210  26.9096020   6.6680860  75.8881460  27.0030610
  10.3493010  78.5038320  11.9778800  10.8698670  77.7887340  11.6119950
  10.9961410  79.1424190  12.2779310  14.8970850  79.9266720  27.3013870
  15.3111870  80.0811800  28.1504290  13.9621850  80.0521940  27.4639650
  15.3693020  77.2662880  29.3053020  15.9513790  76.5115200  29.2173500
  15.5454790  77.7970320  28.5284500   6.4865090  72.4259630  27.6169970
   6.3921960  71.8080380  26.8920840   5.9062480  73.1525920  27.3899880
   9.2526530  70.9832870  24.6497360   8.8043830  71.0057130  23.8042910
   8.6191730  70.5851890  25.2467660   9.6586080  79.8787200  25.2709800
  10.0774190  80.7219930  25.0986040   8.7394710  80.0159240  25.0416580
  11.9949980  77.6103380  26.6547640  12.1146190  77.0144520  27.3942480
  12.8543980  77.6473070  26.2348940  14.3337880  78.1640570  25.2310150
  13.8073100  78.6883190  24.6275290  14.6769220  78.7967960  25.8619880
   6.7324270  75.5533940  11.6759860   6.5313330  74.6901300  12.0373200
   6.5616320  75.4667300  10.7381460   7.5093500  86.1840210  26.3867530
   6.9714590  86.9086270  26.0676230   7.7627460  85.7070550  25.5964870
   8.7618750  74.1524730  27.9123460   9.3518440  73.8440580  28.6001280
   7.9438990  73.6804480  28.0683360  13.5812180  73.7690540  28.1456480
  12.8927700  73.1072080  28.0806470  14.3018200  73.3228810  28.5904940
  14.2112580  70.3642170  14.2046740  14.4914870  69.5210070  14.5606160
  13.4378310  70.5965280  14.7185490   5.5307070  72.6534560  11.6637740
   5.8332970  72.6601990  10.7556890   6.2701660  72.3032420  12.1605400
  10.3655710  87.4191420  26.6454180  10.2914410  88.3226560  26.9526550
   9.4634550  87.1003320  26.6176250   8.7492000  71.5969180  12.6493940
   8.4014000  70.9193170  12.0696390   8.9504770  71.1358690  13.4637330
  10.9141040  86.5849930  14.2680540  11.8091830  86.9234900  14.2899300
  10.9458670  85.8629340  13.6404820   4.5537200  81.9576980  12.4967540
   4.9912070  82.5006650  13.1525120   5.0384930  81.1323930  12.5063880
   1.7683000  84.7466010  19.9487800   2.0986010  83.8787070  19.7166440
   2.1974000  84.9524530  20.7792760   6.3644920  83.0775020  17.6089770
   6.0640460  82.9539990  18.5093680   6.2582410  82.2183610  17.2005500
   2.2573210  85.6136600  22.6869430   1.8204200  85.7937400  23.5193580
   2.8250890  86.3711220  22.5451150  17.8935390  85.1153600  26.9746740
  17.2937380  85.1746160  26.2310660  18.0229290  84.1758580  27.1043590
  19.1336840  82.8571420  12.3116450  18.3029800  82.9248070  12.7823680
  19.3108670  83.7475540  12.0083310  18.5893300  79.6018900  14.8150650
  19.3512210  80.1715550  14.9210340  18.6047670  79.0346100  15.5858960
  19.5953270  80.4569000  19.6592580  19.9662100  79.6736320  19.2528550
  20.2355200  81.1458100  19.4809880  16.5787030  81.8405580  25.0722900
  15.7646870  82.2702740  25.3348690  16.9861230  82.4523990  24.4591950
  18.6412470  79.8953270  11.9723170  18.9161310  80.8032150  11.8442390
  18.4523210  79.8315800  12.9085160  15.0388080  72.9198120  13.2676800
  15.4572960  72.7329100  12.4273460  14.7324140  72.0677170  13.5779730
  18.5377810  77.8322260  16.9652600  18.1621410  77.0650190  16.5333890
  17.8080930  78.2144960  17.4527530   3.1273570  78.5109400  23.5861650
   3.4946610  78.4236800  24.4657670   2.5584390  77.7475950  23.4868510
  17.9277430  76.9793780  26.5992120  17.6963520  76.7506530  25.6990070
  18.1881980  77.8993330  26.5537010   2.6789570  75.4218490  27.4920070
   1.7845620  75.3885250  27.8313780   3.2187120  75.6205280  28.2571320
  16.3665500  72.2050210  29.3771820  17.2435680  72.2133610  29.7605820
  16.3786340  71.4681050  28.7664170  17.8128770  76.0579750  20.2659840
  18.3366250  75.5642400  19.6350010  18.3988190  76.1930110  21.0107410
  17.9918490  76.1419620  23.7879390  17.0421200  76.1083160  23.9024380
  18.1731500  77.0519730  23.5529160   3.8462930  74.3921300  12.8978020
   4.5554630  73.9704520  12.4125300   3.1302870  74.4596530  12.2661370
   3.4937090  70.4460630  11.9380670   4.2165220  70.9869570  12.2561890
   3.7661610  70.1724050  11.0622210  17.3028740  75.3153100  16.2052250
  17.7987860  75.0823970  16.9901130  17.1044810  74.4764940  15.7889890
   3.1829280  69.6966820  21.8403290   3.8305470  69.1464200  21.3998450
   3.6031120  69.9509970  22.6619100  18.7315900  73.9514050  18.7389930
  18.6215180  73.7970090  19.6772200  19.4923490  73.4234990  18.4965340
  17.0781620  69.8908180  25.1972930  17.7153840  70.5042320  25.5632120
  17.2256510  69.9268840  24.2522160  19.6206170  71.7821970  11.9796070
  20.5455480  71.6503150  11.7714360  19.5981960  71.8614790  12.9332520
  19.6944660  72.5532630  14.6052780  18.8996160  72.4877750  15.1345690
  19.8987940  73.4883270  14.5938130  16.6363080  86.5924180  18.5991170
  17.2322150  86.2708750  17.9225590  16.8941230  86.1196000  19.3904440
   2.9361280  69.8522490  24.5828610   2.5876100  70.3086310  25.3486790
   2.6048980  68.9579620  24.6651040   4.5425650  83.0242090  28.7481800
   4.4995280  82.6535000  29.6296260   4.6736660  83.9619660  28.8883620
   8.2431680  84.5801680  24.3491520   8.0023040  84.8476240  23.4622040
   9.1834320  84.7507410  24.4042380  10.4486100  71.0434370  28.1048030
  10.3874990  71.6356200  28.8543440  11.3886480  70.9360330  27.9598290
  13.0860660  70.7004430  27.7440320  13.7001070  71.0183720  27.0821400
  13.6310220  70.2153020  28.3636180  19.5035840  86.5996060  25.1502160
  19.0094120  86.9964930  24.4329290  18.8949130  85.9745270  25.5439440
   3.6081920  69.3798690  27.8579380   4.1564910  69.1986740  27.0945490
   3.6737230  68.5892800  28.3935690   4.3813680  85.9704340  25.8679580
   3.7874000  85.8389040  26.6069620   4.3737520  85.1342480  25.4021680
  13.8268700  69.2636570  24.0709610  12.9528540  69.5971680  23.8682540
  13.7179450  68.7909750  24.8961480  14.7340680  71.4707440  25.4551330
  14.4054040  70.6559200  25.0753060  15.6822980  71.4277250  25.3317020
  17.1875290  87.2419480  22.4288900  16.7278260  87.9935290  22.0546920
  16.5587750  86.5225950  22.3703700   4.0125910  83.3362720  24.8187620
   3.2859970  82.7168010  24.7513570   4.0735060  83.7303330  23.9485700
   7.6171010  85.5507720  21.6037030   8.1336030  84.9395080  21.0785290
   8.2668390  86.0536500  22.0948040  10.3566510  86.4416210  22.4306010
  10.6444320  86.1870510  21.5539020  10.8689730  85.8893570  23.0211580
  11.5743520  70.1806410  23.0102520  10.7915310  70.6551910  23.2899280
  11.2806450  69.2761240  22.9015700  16.1264590  70.8829510  21.0551610
  16.5672680  70.8274610  20.2073210  15.8572180  71.7987520  21.1261790
  17.9903160  70.5144750  19.0660430  17.9291560  69.5705970  18.9191450
  18.7695190  70.6224840  19.6113890   2.9183930  70.4853890  15.5316240
   3.6763290  70.5982770  14.9580270   2.4561100  71.3223090  15.4859670
   9.4597740  72.5993160  18.5218550   8.6472250  72.2250050  18.1814430
   9.9639380  71.8438240  18.8239740  13.9622720  69.2635610  19.7601620
  14.5652090  69.8355820  20.2350140  13.2215710  69.8275050  19.5375520
  17.1057320  69.6657170  15.0341900  17.3007950  70.5640620  15.3009330
  16.3187190  69.4344250  15.5274850   3.9018610  85.3470340  15.4734520
   3.3766230  85.7278370  14.7696480   3.8263190  85.9721110  16.1944230
   5.2909080  71.0117940  14.0718210   5.8201840  70.2247740  13.9426160
   5.9237400  71.6909130  14.3053740   7.4846920  70.7493080  17.1263600
   6.8549660  70.0480390  17.2933730   6.9452060  71.5097210  16.9096760
  10.4238870  87.3632310  29.7974210  11.3506180  87.1276580  29.8410170
  10.4089300  88.1904310  29.3160240  18.6583930  86.9057880  16.7948460
  18.8336120  86.2195620  16.1509380  17.9605500  87.4304930  16.4025130
   7.6102480  70.0277060  29.5616090   7.3286750  70.5310660  28.7976910
   7.9922180  69.2298810  29.1958220   6.5011580  87.2952720  14.3483770
   7.2330400  87.0112000  13.8007660   6.7605250  87.0566000  15.2383150
   5.6626370  83.4117450  14.3530100   5.0335250  83.8802550  14.9015930
   5.7774200  82.5666670  14.7876290  14.2117940  69.4430640  30.1396560
  14.0983390  69.7625250  31.0348080  15.0287680  69.8443150  29.8433840
  16.9916430  86.5902170  29.6215250  17.7841750  86.0951400  29.4141210
  17.2849580  87.2692310  30.2290860  11.2494130  79.2402130   2.3840570
  10.4736230  78.7602570   2.6739140  11.9007060  78.5607780   2.2096730
   5.2659960  79.5521940   3.2616330   4.4344840  79.2970650   3.6612840
   5.8740940  79.6232710   3.9974250   5.2461220  83.5862030   3.4574350
   5.5489260  82.6959770   3.2784570   5.9904810  84.1432250   3.2296600
  10.6903120  81.9159320   2.3910730  10.6211400  80.9749260   2.2299860
  11.4522980  82.0060730   2.9633300   2.8809790  72.5213840   4.7167350
   2.7012630  71.6239590   4.9970110   2.4789870  73.0685710   5.3914300
  11.7208290  74.7229700   2.6179660  12.0973110  73.8501580   2.5053330
  11.6227800  75.0588400   1.7270100   3.4996460  75.0174340   3.3249690
   4.1806570  75.2812710   3.9437090   3.1844510  74.1775210   3.6587700
   7.6921030  76.0641700   2.4122280   8.1999250  76.5622670   3.0527300
   8.2234270  75.2876900   2.2361640  19.7931960  74.2346890   6.1151630
  19.0884130  74.6228600   5.5966740  20.0589880  74.9297180   6.7172560
   5.9757130  70.7040260   6.6785700   5.9775570  71.2212650   5.8731600
   5.1461440  70.2270440   6.6555630   7.2259980  80.3435440   4.8559200
   6.8929360  80.9704360   5.4980270   7.4026660  80.8697320   4.0760870
  15.7393890  74.1580520   2.3235540  15.0349460  74.4465410   2.9038650
  16.1006050  74.9680630   1.9635100   5.6572460  72.4150220   4.6856150
   5.9989270  73.2592270   4.3910020   4.7188270  72.5633960   4.8021490
   6.4379080  82.3116240   6.6708380   7.0553080  82.9867320   6.3892830
   5.5772200  82.7204220   6.5795880  17.3556670  83.7755650   4.5863020
  16.6720190  84.4454760   4.5779690  17.8950960  83.9736300   3.8207880
  18.8080810  73.6035310   2.7144750  17.8605720  73.6374290   2.8460180
  19.1330800  74.4174260   3.0994110  14.8915410  85.6199780   3.3008200
  14.9042570  85.2162070   2.4330460  14.3390630  86.3947070   3.1969630
  14.2900850  80.5229620   4.6290810  14.7069640  80.3089730   3.7944270
  15.0140670  80.7802410   5.1999430  18.2362950  78.9216840   4.7207050
  17.4081580  78.9909930   4.2457180  18.8313430  79.5071150   4.2522880
  15.2004960  75.7086160   5.6661920  14.7876140  76.5339870   5.9201910
  14.4680910  75.1231200   5.4738280   7.8019450  82.1813620   2.6919800
   7.5047740  81.5759090   2.0127580   8.7519270  82.2190930   2.5809160
   6.0466370  75.2689270   4.3079630   6.5980960  75.3784610   3.5332880
   6.5609880  75.6426870   5.0234860  15.8905060  85.7545490   6.3542900
  15.4135620  86.5617680   6.1615510  15.2066850  85.1023820   6.5069110
   6.8937880  81.9195310   9.3427600   5.9966410  82.1435280   9.5901000
   6.9190750  82.0430250   8.3939000   5.7209100  78.7908630   7.9184970
   5.5816870  79.6631430   8.2872370   4.8390460  78.4481440   7.7732910
   7.5189450  84.7330330  10.1270120   7.4904880  85.1373280   9.2598550
   7.3554420  83.8040690   9.9641720  19.4704270  85.5157430  11.4234290
  19.9463990  85.9940320  12.1023370  20.0911430  85.4474920  10.6979790
  18.8737520  82.7070280   8.5834300  19.0000580  82.4682160   7.6651480
  18.9158900  81.8754820   9.0556380  12.7354260  86.4098280   7.1529110
  13.2498930  86.3206290   7.9551540  11.8923340  86.7557980   7.4457020
  18.7261530  74.7602740   9.5484040  18.1105800  75.2682410   9.0199500
  18.4057950  73.8601070   9.4909980  10.7875850  73.5994630   7.0146230
  10.3255220  73.8077650   7.8266170  10.3853960  72.7853980   6.7116900
  15.7880360  74.8203580   8.1442890  14.9373950  74.5209330   8.4651960
  15.6282150  75.0645590   7.2326710  12.8830070  76.3205330  10.2441680
  13.2083480  75.4869080   9.9043910  13.6710400  76.8433850  10.3920010
   8.5381940  71.2773440   3.2700510   8.8354270  72.1836270   3.1892530
   9.0867500  70.7892220   2.6560080   8.7319470  76.7545260   9.8052430
   8.6363070  75.8139990   9.6552830   9.5751450  76.9760330   9.4100500
   3.8630010  73.1658930   7.9586210   3.4693400  74.0134140   8.1658990
   3.1748410  72.5285300   8.1494850  10.4375060  73.2493900  11.0282950
   9.7473380  73.0566100  11.6629040  11.1807360  73.5328540  11.5607250
  12.7138030  77.0892340   3.8636870  11.9819150  77.5979150   4.2126970
  12.3162370  76.2722320   3.5625650   9.1515420  73.7646540   2.2689360
   9.1551480  73.3236490   1.4193900  10.0466540  74.0863870   2.3761180
  13.1763940  72.5426020   3.2759810  13.1936680  72.9934670   4.1201660
  12.9279520  71.6431660   3.4893250  16.6034690  69.9558200   9.1146190
  16.9280460  69.2247860   9.6404170  16.6391200  69.6371840   8.2127180
   3.3026250  80.9771780   8.5346150   2.9181040  80.3365450   9.1329110
   3.6138440  81.6807900   9.1040880   9.4523390  77.8248320   4.0154770
   9.8193520  77.3506890   4.7616110   9.2628450  78.6989890   4.3563110
   7.2422760  76.8656960   6.3338980   6.9379830  77.7448940   6.5589340
   8.1969220  76.9256750   6.3696420  16.5292530  80.0683310   2.7232220
  17.2491650  80.5638600   2.3328330  16.3274350  79.3901200   2.0786090
  11.9111330  80.1392370   8.6101220  11.8448640  79.2188040   8.3558810
  11.2816470  80.2367810   9.3245860   3.2986490  77.7059700   7.4810340
   2.9401430  78.3713550   8.0683680   3.0041050  76.8743250   7.8522960
   6.4999610  78.1643940  10.3649890   6.1999750  78.3101120   9.4677710
   7.2710850  77.6049230  10.2723280  11.8428060  82.9612940   8.3605020
  11.8572600  82.0293900   8.1423930  11.1353160  83.0472700   8.9994790
  18.0539270  79.6020280   7.7073600  17.3287460  80.1949060   7.5102990
  18.5814730  79.5943820   6.9086970  11.2761960  84.6030510   5.4545520
  11.9204180  84.8089890   6.1318940  11.6391400  83.8418910   5.0016370
  12.5494040  82.6062860   4.1722970  13.1916270  81.9056020   4.2855140
  13.0743390  83.3861300   3.9919860  14.3231660  83.4057760   7.3759030
  14.6587900  83.9924450   8.0536950  13.4032000  83.2750470   7.6056820
  10.1520240  83.4549090  10.5447090   9.8317110  82.7358330  11.0892780
   9.4778600  84.1304160  10.6183150  13.3673840  73.6875250   5.9083890
  13.7354660  72.8670460   6.2363460  12.5072040  73.7477140   6.3239540
  10.3275830  76.3414840   6.1321860  10.8261080  76.8160660   6.7973710
  10.4698780  75.4178360   6.3391890  17.5342690  72.5582800   6.9750250
  17.0316290  73.2988200   7.3144060  18.3499350  72.9466800   6.6587040
  17.8290280  84.9724830   2.0965870  17.9537700  85.7956000   2.5689680
  18.6955840  84.7615560   1.7490020   5.3007810  87.0656040   1.7683000
   6.0370290  86.5171500   2.0391570   5.6848730  87.9312050   1.6288990
   4.3066090  86.2502110  10.9568580   5.1078820  86.5714160  11.3703980
   3.7917910  85.8897690  11.6788490  13.1430720  82.3581980  10.9043990
  12.5368880  82.3813580  10.1639740  12.8384830  81.6265020  11.4411240
  14.5731090  86.0862270   9.5153400  15.5252840  86.0020290   9.4653640
  14.4259310  86.7503980  10.1887190   9.0801840  80.1446560   9.4340150
   8.3147510  80.7131560   9.3494820   9.2617800  79.8522770   8.5408380
  16.2225190  81.8751890   9.9915170  16.9634660  82.2127650   9.4882630
  15.4597870  82.0443950   9.4384940   4.0586980  76.8805160  10.7954700
   4.0992320  76.5819030  11.7039930   4.9132480  77.2812770  10.6362220
   5.9992790  75.4597260   8.7629190   5.4689250  74.9688210   8.1352530
   6.6680860  75.8881460   8.2287120  14.8970850  79.9266720   8.5270380
  15.3111870  80.0811800   9.3760800  13.9621850  80.0521940   8.6896160
  15.3693020  77.2662880  10.5309530  15.9513790  76.5115200  10.4430010
  15.5454790  77.7970320   9.7541010   6.4865090  72.4259630   8.8426480
   6.3921960  71.8080380   8.1177350   5.9062480  73.1525920   8.6156390
   9.2526530  70.9832870   5.8753870   8.8043830  71.0057130   5.0299420
   8.6191730  70.5851890   6.4724170   9.6586080  79.8787200   6.4966310
  10.0774190  80.7219930   6.3242550   8.7394710  80.0159240   6.2673090
  11.9949980  77.6103380   7.8804150  12.1146190  77.0144520   8.6198990
  12.8543980  77.6473070   7.4605450  14.3337880  78.1640570   6.4566660
  13.8073100  78.6883190   5.8531800  14.6769220  78.7967960   7.0876390
   7.5093500  86.1840210   7.6124040   6.9714590  86.9086270   7.2932740
   7.7627460  85.7070550   6.8221380   8.7618750  74.1524730   9.1379970
   9.3518440  73.8440580   9.8257790   7.9438990  73.6804480   9.2939870
  13.5812180  73.7690540   9.3712990  12.8927700  73.1072080   9.3062980
  14.3018200  73.3228810   9.8161450  10.3655710  87.4191420   7.8710690
  10.2914410  88.3226560   8.1783060   9.4634550  87.1003320   7.8432760
   2.2573210  85.6136600   3.9125940   1.8204200  85.7937400   4.7450090
   2.8250890  86.3711220   3.7707660  17.8935390  85.1153600   8.2003250
  17.2937380  85.1746160   7.4567170  18.0229290  84.1758580   8.3300100
  16.5787030  81.8405580   6.2979410  15.7646870  82.2702740   6.5605200
  16.9861230  82.4523990   5.6848460   3.1273570  78.5109400   4.8118160
   3.4946610  78.4236800   5.6914180   2.5584390  77.7475950   4.7125020
  17.9277430  76.9793780   7.8248630  17.6963520  76.7506530   6.9246580
  18.1881980  77.8993330   7.7793520   2.6789570  75.4218490   8.7176580
   1.7845620  75.3885250   9.0570290   3.2187120  75.6205280   9.4827830
  16.3665500  72.2050210  10.6028330  17.2435680  72.2133610  10.9862330
  16.3786340  71.4681050   9.9920680  17.9918490  76.1419620   5.0135900
  17.0421200  76.1083160   5.1280890  18.1731500  77.0519730   4.7785670
   3.1829280  69.6966820   3.0659800   3.8305470  69.1464200   2.6254960
   3.6031120  69.9509970   3.8875610  17.0781620  69.8908180   6.4229440
  17.7153840  70.5042320   6.7888630  17.2256510  69.9268840   5.4778670
   2.9361280  69.8522490   5.8085120   2.5876100  70.3086310   6.5743300
   2.6048980  68.9579620   5.8907550   4.5425650  83.0242090   9.9738310
   4.4995280  82.6535000  10.8552770   4.6736660  83.9619660  10.1140130
   8.2431680  84.5801680   5.5748030   8.0023040  84.8476240   4.6878550
   9.1834320  84.7507410   5.6298890  10.4486100  71.0434370   9.3304540
  10.3874990  71.6356200  10.0799950  11.3886480  70.9360330   9.1854800
  13.0860660  70.7004430   8.9696830  13.7001070  71.0183720   8.3077910
  13.6310220  70.2153020   9.5892690  19.5035840  86.5996060   6.3758670
  19.0094120  86.9964930   5.6585800  18.8949130  85.9745270   6.7695950
   3.6081920  69.3798690   9.0835890   4.1564910  69.1986740   8.3202000
   3.6737230  68.5892800   9.6192200   4.3813680  85.9704340   7.0936090
   3.7874000  85.8389040   7.8326130   4.3737520  85.1342480   6.6278190
  13.8268700  69.2636570   5.2966120  12.9528540  69.5971680   5.0939050
  13.7179450  68.7909750   6.1217990  14.7340680  71.4707440   6.6807840
  14.4054040  70.6559200   6.3009570  15.6822980  71.4277250   6.5573530
  17.1875290  87.2419480   3.6545410  16.7278260  87.9935290   3.2803430
  16.5587750  86.5225950   3.5960210   4.0125910  83.3362720   6.0444130
   3.2859970  82.7168010   5.9770080   4.0735060  83.7303330   5.1742210
   7.6171010  85.5507720   2.8293540   8.1336030  84.9395080   2.3041800
   8.2668390  86.0536500   3.3204550  10.3566510  86.4416210   3.6562520
  10.6444320  86.1870510   2.7795530  10.8689730  85.8893570   4.2468090
  11.5743520  70.1806410   4.2359030  10.7915310  70.6551910   4.5155790
  11.2806450  69.2761240   4.1272210  16.1264590  70.8829510   2.2808120
  16.5672680  70.8274610   1.4329720  15.8572180  71.7987520   2.3518300
  10.4238870  87.3632310  11.0230720  11.3506180  87.1276580  11.0666680
  10.4089300  88.1904310  10.5416750   7.6102480  70.0277060  10.7872600
   7.3286750  70.5310660  10.0233420   7.9922180  69.2298810  10.4214730
  14.2117940  69.4430640  11.3653070  14.0983390  69.7625250  12.2604590
  15.0287680  69.8443150  11.0690350  16.9916430  86.5902170  10.8471760
  17.7841750  86.0951400  10.6397720  17.2849580  87.2692310  11.4547370
  13.1176090  58.6879620 150.6979220  13.0370140  57.7734230 150.4270930
  12.7040510  59.1846690 149.9918930  11.2494130  60.4658640 152.5788490
  10.4736230  59.9859080 152.8687060  11.9007060  59.7864290 152.4044650
  15.2701560  64.8718830 151.3587620  14.8083090  64.1006070 151.6874790
  16.0827110  64.8984900 151.8640070   3.6751910  55.7380340 147.2406640
   2.7868610  56.0796310 147.1386520   3.9593100  55.5380660 146.3487470
  11.4964870  67.1576840 150.9791610  10.8776310  67.6134340 150.4086050
  12.3516650  67.3128300 150.5781310  10.6903120  63.1415830 152.5858650
  10.6211400  62.2005770 152.4247780  11.4522980  63.2317240 153.1581220
  11.7208290  55.9486210 152.8127580  12.0973110  55.0758090 152.7001250
  11.6227800  56.2844910 151.9218020   5.8513300  54.3211840 148.2745020
   5.9580050  55.2215570 148.5813780   4.9405660  54.2729810 147.9839670
  15.5032410  53.4436650 149.7455920  16.3242030  52.9533220 149.7881400
  15.5366490  54.0334310 150.4987760  12.3628220  62.0416080 148.3723520
  11.7445490  62.5065530 147.8086240  12.8751470  62.7343560 148.7893030
  15.7393890  55.3837030 152.5183460  15.0349460  55.6721920 153.0986570
  16.1006050  56.1937140 152.1583020   9.3400350  51.1289000 151.2048660
   9.6475330  50.5735890 150.4884160   8.4101050  51.2633460 151.0221650
  16.1860830  63.5672510 148.5846290  16.0757160  62.6246840 148.7095710
  16.1829080  63.9288150 149.4709050  11.7281110  59.1937830 147.9408780
  10.8010390  59.1275210 148.1697250  11.8805930  60.1317960 147.8264020
  11.7150190  55.4654830 144.9375940  10.7753860  55.6268790 145.0228400
  12.0333450  56.1840510 144.3911930  15.7578400  60.7558130 148.4444030
  15.1390820  60.4177680 147.7970330  15.7402850  60.1117890 149.1523220
   7.3337750  59.7202570 150.7228510   6.9294750  59.0079820 150.2274410
   7.4200870  59.3755810 151.6116550   7.8019450  63.4070130 152.8867720
   7.5047740  62.8015600 152.2075500   8.7519270  63.4447440 152.7757080
  13.9343100  59.9944940 145.4516780  14.3736380  59.1567370 145.3054600
  14.6471520  60.6274340 145.5380920  12.0438480  64.9341010 149.4198020
  12.4834390  65.6765340 149.0053410  11.9825370  65.1767580 150.3436980
  17.5160240  51.2487750 143.7657820  17.2032900  51.3414580 144.6656890
  18.2772710  51.8268780 143.7155250   4.0342380  58.6147550 148.2235160
   3.9139980  59.3409640 147.6116430   3.7243270  57.8450460 147.7463070
   2.9175380  63.4862880 150.4409980   2.5103460  63.6277470 149.5863580
   3.8088390  63.2023040 150.2381190  14.7108660  67.9210130 146.7761030
  14.5509800  67.6313070 147.6742860  14.5455370  67.1450260 146.2406260
   7.1897040  67.7008660 148.5532650   7.0139520  66.7844200 148.3400450
   6.3352780  68.0595950 148.7930450  14.4134790  65.4297690 145.3359030
  13.7199950  65.4274980 144.6761310  15.1557650  65.0057010 144.9053200
  13.9784720  67.0560400 149.4107520  14.4341670  66.2749780 149.7246140
  14.3177240  67.7667220 149.9548700   6.5006040  51.9582620 151.6058830
   6.0574190  52.7392160 151.2743350   7.0591030  52.2812510 152.3129770
   9.6164860  51.5793320 146.4864660   8.9919040  51.5753190 147.2117970
   9.5294980  50.7124280 146.0900630   6.2920260  57.0816190 149.3340080
   6.0661180  56.8653360 150.2386700   5.5112790  57.5144650 148.9886050
  13.5218020  57.0879560 147.9330730  12.9226910  57.8115360 147.7494350
  14.0697630  57.0256340 147.1507180  12.1282890  55.7243100 149.9634010
  12.5212460  56.0415300 149.1502700  12.4899740  54.8454980 150.0778530
   9.1515420  54.9903050 152.4637280   9.1551480  54.5493000 151.6141820
  10.0466540  55.3120380 152.5709100   5.0017800  54.8729540 151.4231490
   4.6617850  55.3504770 152.1798540   4.2395120  54.4194660 151.0632590
   9.2135570  55.9915130 145.4544040   9.3348390  55.9501610 146.4029860
   8.8284080  56.8539280 145.2990770   8.2257070  58.3016270 144.8527340
   7.6573970  57.8534520 144.2263250   8.9346070  58.6609050 144.3192490
   2.3163880  53.7948520 150.3396160   2.0310800  53.4304190 151.1774780
   2.2542740  53.0628980 149.7259300   5.7704550  62.2974460 147.1253750
   4.9966810  61.7572080 146.9652470   6.4999180  61.7781070 146.7871510
  16.5292530  61.2939820 152.9180140  17.2491650  61.7895110 152.5276250
  16.3274350  60.6157710 152.2734010  11.9902470  52.6877780 147.0609530
  11.1767080  52.1890950 146.9854840  11.7964420  53.5276030 146.6445880
  14.7050860  57.0597430 145.3571690  15.5930480  57.3714660 145.1823030
  14.6755950  56.1869680 144.9652270   5.8141950  61.9654840 150.7632560
   6.3320620  61.1623100 150.7089450   5.3625970  61.9033980 151.6049390
  10.7011450  63.2321120 146.0359860  11.0427150  63.9763350 145.5403180
   9.8724160  63.5452240 146.3984690  16.9765130  58.3709270 144.8251550
  16.8928850  58.8023490 143.9747990  17.6959320  58.8307620 145.2578370
  18.0052380  65.2251530 147.5533680  17.3628540  64.5707150 147.8277400
  17.6183040  65.6306620 146.7774350  13.5838860  62.5536960 151.4005370
  13.9362680  61.9565090 150.7406740  12.7001190  62.2281190 151.5713620
   9.6702140  63.3134650 148.8075780  10.3573270  63.8603860 149.1883370
   8.8834560  63.8575380 148.8425390   8.9729350  60.3180680 148.4201140
   9.4292130  61.1285930 148.6461330   8.6217560  60.0003820 149.2519630
   4.8741130  50.6618330 148.8923660   4.7455760  50.6536230 149.8408580
   4.0503150  51.0001420 148.5414670  16.3949760  64.1167990 144.0910030
  16.1687340  63.3998430 144.6834670  16.0045960  63.8680430 143.2531780
   2.1765790  68.1434850 144.8654490   2.5363430  68.7424190 144.2111760
   2.0358130  68.6894740 145.6389520  15.9766010  62.0339930 145.7524190
  15.6887710  62.4952620 146.5402070  16.7718180  61.5737700 146.0208410
   8.1934410  65.5266050 145.6828160   8.1844510  66.2595740 145.0672670
   7.2732770  65.2797630 145.7755120   3.7941050  60.7480940 146.4274920
   3.1869000  61.4879840 146.4370220   4.2690400  60.8380300 145.6013120
  16.7335870  53.8688700 146.9119370  16.1049030  53.9734370 146.1977600
  16.2387790  54.0885480 147.7013250  11.1794010  65.5894290 144.3453350
  11.2805990  65.3858280 143.4155330  10.2795750  65.3352570 144.5501130
   8.7019900  56.1474650 148.3277250   7.9936050  56.6160990 148.7690860
   8.9864380  55.4896660 148.9622440  12.7335330  52.8725310 149.7673040
  12.6103110  52.8911440 148.8182550  13.6819890  52.9204250 149.8871440
   9.8212120  68.1080610 149.0401020  10.0753620  68.0702000 148.1180390
   8.8724600  67.9813940 149.0329270   6.9054920  54.4559730 145.7027960
   7.7545450  54.8929880 145.6368150   6.5386190  54.7679990 146.5300020
  15.8264700  59.0272490 150.6159530  14.8854840  59.0422720 150.7907220
  16.1408770  58.2408450 151.0619830   5.8046340  60.7092090 144.1763490
   6.5709610  60.5973450 144.7388920   5.8821030  60.0130060 143.5240260
   4.4993100  58.1417160 144.8596380   4.5796690  57.1944670 144.9713780
   5.3912850  58.4724040 144.9657040  17.8290280  66.1981340 152.2913790
  17.9537700  67.0212510 152.7637600  18.6955840  65.9872070 151.9437940
   5.3007810  68.2912550 151.9630920   6.0370290  67.7428010 152.2339490
   5.6848730  69.1568560 151.8236910   8.4110120  67.4642860 143.7856490
   9.2038730  67.7531690 143.3338280   7.8914470  67.0335030 143.1068970
  17.4640290  66.6912990 145.2093230  17.1781800  66.2778130 144.3947410
  17.2659840  67.6200700 145.0893750   8.9287520  62.6846270 143.6498840
   8.8238160  62.0698620 144.3760220   8.7611740  62.1612160 142.8661850
  12.1690250  61.7466300 144.2540830  11.6200350  62.1935600 144.8983570
  12.7909510  61.2415550 144.7778500   7.8365370  60.7057220 146.1506130
   8.2581790  60.5397090 146.9937520   7.9616210  59.8957450 145.6561270
  10.3493010  59.7294830 143.3983230  10.8698670  59.0143850 143.0324380
  10.9961410  60.3680700 143.6983740   6.7324270  56.7790450 143.0964290
   6.5313330  55.9157810 143.4577630   6.5616320  56.6923810 142.1585890
  14.2112580  51.5898680 145.6251170  14.4914870  50.7466580 145.9810590
  13.4378310  51.8221790 146.1389920   5.5307070  53.8791070 143.0842170
   5.8332970  53.8858500 142.1761320   6.2701660  53.5288930 143.5809830
   8.7492000  52.8225690 144.0698370   8.4014000  52.1449680 143.4900820
   8.9504770  52.3615200 144.8841760  10.9141040  67.8106440 145.6884970
  11.8091830  68.1491410 145.7103730  10.9458670  67.0885850 145.0609250
   4.5537200  63.1833490 143.9171970   4.9912070  63.7263160 144.5729550
   5.0384930  62.3580440 143.9268310   1.7683000  65.9722520 151.3692230
   2.0986010  65.1043580 151.1370870   2.1974000  66.1781040 152.1997190
   6.3644920  64.3031530 149.0294200   6.0640460  64.1796500 149.9298110
   6.2582410  63.4440120 148.6209930  19.1336840  64.0827930 143.7320880
  18.3029800  64.1504580 144.2028110  19.3108670  64.9732050 143.4287740
  18.5893300  60.8275410 146.2355080  19.3512210  61.3972060 146.3414770
  18.6047670  60.2602610 147.0063390  19.5953270  61.6825510 151.0797010
  19.9662100  60.8992830 150.6732980  20.2355200  62.3714610 150.9014310
  18.6412470  61.1209780 143.3927600  18.9161310  62.0288660 143.2646820
  18.4523210  61.0572310 144.3289590  15.0388080  54.1454630 144.6881230
  15.4572960  53.9585610 143.8477890  14.7324140  53.2933680 144.9984160
  18.5377810  59.0578770 148.3857030  18.1621410  58.2906700 147.9538320
  17.8080930  59.4401470 148.8731960  17.8128770  57.2836260 151.6864270
  18.3366250  56.7898910 151.0554440  18.3988190  57.4186620 152.4311840
   3.8462930  55.6177810 144.3182450   4.5554630  55.1961030 143.8329730
   3.1302870  55.6853040 143.6865800   3.4937090  51.6717140 143.3585100
   4.2165220  52.2126080 143.6766320   3.7661610  51.3980560 142.4826640
  17.3028740  56.5409610 147.6256680  17.7987860  56.3080480 148.4105560
  17.1044810  55.7021450 147.2094320  18.7315900  55.1770560 150.1594360
  18.6215180  55.0226600 151.0976630  19.4923490  54.6491500 149.9169770
  19.6206170  53.0078480 143.4000500  20.5455480  52.8759660 143.1918790
  19.5981960  53.0871300 144.3536950  19.6944660  53.7789140 146.0257210
  18.8996160  53.7134260 146.5550120  19.8987940  54.7139780 146.0142560
  16.6363080  67.8180690 150.0195600  17.2322150  67.4965260 149.3430020
  16.8941230  67.3452510 150.8108870  16.1264590  52.1086020 152.4756040
  16.5672680  52.0531120 151.6277640  15.8572180  53.0244030 152.5466220
  17.9903160  51.7401260 150.4864860  17.9291560  50.7962480 150.3395880
  18.7695190  51.8481350 151.0318320   2.9183930  51.7110400 146.9520670
   3.6763290  51.8239280 146.3784700   2.4561100  52.5479600 146.9064100
   9.4597740  53.8249670 149.9422980   8.6472250  53.4506560 149.6018860
   9.9639380  53.0694750 150.2444170  13.9622720  50.4892120 151.1806050
  14.5652090  51.0612330 151.6554570  13.2215710  51.0531560 150.9579950
  17.1057320  50.8913680 146.4546330  17.3007950  51.7897130 146.7213760
  16.3187190  50.6600760 146.9479280   3.9018610  66.5726850 146.8938950
   3.3766230  66.9534880 146.1900910   3.8263190  67.1977620 147.6148660
   5.2909080  52.2374450 145.4922640   5.8201840  51.4504250 145.3630590
   5.9237400  52.9165640 145.7258170   7.4846920  51.9749590 148.5468030
   6.8549660  51.2736900 148.7138160   6.9452060  52.7353720 148.3301190
  18.6583930  68.1314390 148.2152890  18.8336120  67.4452130 147.5713810
  17.9605500  68.6561440 147.8229560   6.5011580  68.5209230 145.7688200
   7.2330400  68.2368510 145.2212090   6.7605250  68.2822510 146.6587580
   5.6626370  64.6373960 145.7734530   5.0335250  65.1059060 146.3220360
   5.7774200  63.7923180 146.2080720  13.1176090  58.6879620 131.9235730
  13.0370140  57.7734230 131.6527440  12.7040510  59.1846690 131.2175440
  11.2494130  60.4658640 133.8045000  10.4736230  59.9859080 134.0943570
  11.9007060  59.7864290 133.6301160   5.2659960  60.7778450 134.6820760
   4.4344840  60.5227160 135.0817270   5.8740940  60.8489220 135.4178680
  15.2701560  64.8718830 132.5844130  14.8083090  64.1006070 132.9131300
  16.0827110  64.8984900 133.0896580   5.2461220  64.8118540 134.8778780
   5.5489260  63.9216280 134.6989000   5.9904810  65.3688760 134.6501030
   3.6751910  55.7380340 128.4663150   2.7868610  56.0796310 128.3643030
   3.9593100  55.5380660 127.5743980  11.4964870  67.1576840 132.2048120
  10.8776310  67.6134340 131.6342560  12.3516650  67.3128300 131.8037820
  10.6903120  63.1415830 133.8115160  10.6211400  62.2005770 133.6504290
  11.4522980  63.2317240 134.3837730   2.8809790  53.7470350 136.1371780
   2.7012630  52.8496100 136.4174540   2.4789870  54.2942220 136.8118730
  11.7208290  55.9486210 134.0384090  12.0973110  55.0758090 133.9257760
  11.6227800  56.2844910 133.1474530   5.8513300  54.3211840 129.5001530
   5.9580050  55.2215570 129.8070290   4.9405660  54.2729810 129.2096180
  15.5032410  53.4436650 130.9712430  16.3242030  52.9533220 131.0137910
  15.5366490  54.0334310 131.7244270   3.4996460  56.2430850 134.7454120
   4.1806570  56.5069220 135.3641520   3.1844510  55.4031720 135.0792130
   7.6921030  57.2898210 133.8326710   8.1999250  57.7879180 134.4731730
   8.2234270  56.5133410 133.6566070  19.7931960  55.4603400 137.5356060
  19.0884130  55.8485110 137.0171170  20.0589880  56.1553690 138.1376990
   5.9757130  51.9296770 138.0990130   5.9775570  52.4469160 137.2936030
   5.1461440  51.4526950 138.0760060  12.3628220  62.0416080 129.5980030
  11.7445490  62.5065530 129.0342750  12.8751470  62.7343560 130.0149540
   7.2259980  61.5691950 136.2763630   6.8929360  62.1960870 136.9184700
   7.4026660  62.0953830 135.4965300  15.7393890  55.3837030 133.7439970
  15.0349460  55.6721920 134.3243080  16.1006050  56.1937140 133.3839530
   5.6572460  53.6406730 136.1060580   5.9989270  54.4848780 135.8114450
   4.7188270  53.7890470 136.2225920   6.4379080  63.5372750 138.0912810
   7.0553080  64.2123830 137.8097260   5.5772200  63.9460730 138.0000310
  17.3556670  65.0012160 136.0067450  16.6720190  65.6711270 135.9984120
  17.8950960  65.1992810 135.2412310  18.8080810  54.8291820 134.1349180
  17.8605720  54.8630800 134.2664610  19.1330800  55.6430770 134.5198540
   9.3400350  51.1289000 132.4305170   9.6475330  50.5735890 131.7140670
   8.4101050  51.2633460 132.2478160  14.8915410  66.8456290 134.7212630
  14.9042570  66.4418580 133.8534890  14.3390630  67.6203580 134.6174060
  16.1860830  63.5672510 129.8102800  16.0757160  62.6246840 129.9352220
  16.1829080  63.9288150 130.6965560  14.2900850  61.7486130 136.0495240
  14.7069640  61.5346240 135.2148700  15.0140670  62.0058920 136.6203860
  11.7281110  59.1937830 129.1665290  10.8010390  59.1275210 129.3953760
  11.8805930  60.1317960 129.0520530  11.7150190  55.4654830 126.1632450
  10.7753860  55.6268790 126.2484910  12.0333450  56.1840510 125.6168440
  18.2362950  60.1473350 136.1411480  17.4081580  60.2166440 135.6661610
  18.8313430  60.7327660 135.6727310  15.7578400  60.7558130 129.6700540
  15.1390820  60.4177680 129.0226840  15.7402850  60.1117890 130.3779730
  15.2004960  56.9342670 137.0866350  14.7876140  57.7596380 137.3406340
  14.4680910  56.3487710 136.8942710   7.3337750  59.7202570 131.9485020
   6.9294750  59.0079820 131.4530920   7.4200870  59.3755810 132.8373060
   7.8019450  63.4070130 134.1124230   7.5047740  62.8015600 133.4332010
   8.7519270  63.4447440 134.0013590   6.0466370  56.4945780 135.7284060
   6.5980960  56.6041120 134.9537310   6.5609880  56.8683380 136.4439290
  15.8905060  66.9802000 137.7747330  15.4135620  67.7874190 137.5819940
  15.2066850  66.3280330 137.9273540   6.8937880  63.1451820 140.7632030
   5.9966410  63.3691790 141.0105430   6.9190750  63.2686760 139.8143430
  13.9343100  59.9944940 126.6773290  14.3736380  59.1567370 126.5311110
  14.6471520  60.6274340 126.7637430   5.7209100  60.0165140 139.3389400
   5.5816870  60.8887940 139.7076800   4.8390460  59.6737950 139.1937340
  12.0438480  64.9341010 130.6454530  12.4834390  65.6765340 130.2309920
  11.9825370  65.1767580 131.5693490   7.5189450  65.9586840 141.5474550
   7.4904880  66.3629790 140.6802980   7.3554420  65.0297200 141.3846150
  17.5160240  51.2487750 124.9914330  17.2032900  51.3414580 125.8913400
  18.2772710  51.8268780 124.9411760   4.0342380  58.6147550 129.4491670
   3.9139980  59.3409640 128.8372940   3.7243270  57.8450460 128.9719580
  19.4704270  66.7413940 142.8438720  19.9463990  67.2196830 143.5227800
  20.0911430  66.6731430 142.1184220   2.9175380  63.4862880 131.6666490
   2.5103460  63.6277470 130.8120090   3.8088390  63.2023040 131.4637700
  18.8737520  63.9326790 140.0038730  19.0000580  63.6938670 139.0855910
  18.9158900  63.1011330 140.4760810  12.7354260  67.6354790 138.5733540
  13.2498930  67.5462800 139.3755970  11.8923340  67.9814490 138.8661450
  14.7108660  67.9210130 128.0017540  14.5509800  67.6313070 128.8999370
  14.5455370  67.1450260 127.4662770   7.1897040  67.7008660 129.7789160
   7.0139520  66.7844200 129.5656960   6.3352780  68.0595950 130.0186960
  14.4134790  65.4297690 126.5615540  13.7199950  65.4274980 125.9017820
  15.1557650  65.0057010 126.1309710  13.9784720  67.0560400 130.6364030
  14.4341670  66.2749780 130.9502650  14.3177240  67.7667220 131.1805210
  18.7261530  55.9859250 140.9688470  18.1105800  56.4938920 140.4403930
  18.4057950  55.0857580 140.9114410   6.5006040  51.9582620 132.8315340
   6.0574190  52.7392160 132.4999860   7.0591030  52.2812510 133.5386280
  10.7875850  54.8251140 138.4350660  10.3255220  55.0334160 139.2470600
  10.3853960  54.0110490 138.1321330  15.7880360  56.0460090 139.5647320
  14.9373950  55.7465840 139.8856390  15.6282150  56.2902100 138.6531140
  12.8830070  57.5461840 141.6646110  13.2083480  56.7125590 141.3248340
  13.6710400  58.0690360 141.8124440   9.6164860  51.5793320 127.7121170
   8.9919040  51.5753190 128.4374480   9.5294980  50.7124280 127.3157140
   8.5381940  52.5029950 134.6904940   8.8354270  53.4092780 134.6096960
   9.0867500  52.0148730 134.0764510   6.2920260  57.0816190 130.5596590
   6.0661180  56.8653360 131.4643210   5.5112790  57.5144650 130.2142560
  13.5218020  57.0879560 129.1587240  12.9226910  57.8115360 128.9750860
  14.0697630  57.0256340 128.3763690   8.7319470  57.9801770 141.2256860
   8.6363070  57.0396500 141.0757260   9.5751450  58.2016840 140.8304930
  12.1282890  55.7243100 131.1890520  12.5212460  56.0415300 130.3759210
  12.4899740  54.8454980 131.3035040   3.8630010  54.3915440 139.3790640
   3.4693400  55.2390650 139.5863420   3.1748410  53.7541810 139.5699280
  10.4375060  54.4750410 142.4487380   9.7473380  54.2822610 143.0833470
  11.1807360  54.7585050 142.9811680  12.7138030  58.3148850 135.2841300
  11.9819150  58.8235660 135.6331400  12.3162370  57.4978830 134.9830080
   9.1515420  54.9903050 133.6893790   9.1551480  54.5493000 132.8398330
  10.0466540  55.3120380 133.7965610   5.0017800  54.8729540 132.6488000
   4.6617850  55.3504770 133.4055050   4.2395120  54.4194660 132.2889100
   9.2135570  55.9915130 126.6800550   9.3348390  55.9501610 127.6286370
   8.8284080  56.8539280 126.5247280  13.1763940  53.7682530 134.6964240
  13.1936680  54.2191180 135.5406090  12.9279520  52.8688170 134.9097680
   8.2257070  58.3016270 126.0783850   7.6573970  57.8534520 125.4519760
   8.9346070  58.6609050 125.5449000  16.6034690  51.1814710 140.5350620
  16.9280460  50.4504370 141.0608600  16.6391200  50.8628350 139.6331610
   3.3026250  62.2028290 139.9550580   2.9181040  61.5621960 140.5533540
   3.6138440  62.9064410 140.5245310   9.4523390  59.0504830 135.4359200
   9.8193520  58.5763400 136.1820540   9.2628450  59.9246400 135.7767540
   2.3163880  53.7948520 131.5652670   2.0310800  53.4304190 132.4031290
   2.2542740  53.0628980 130.9515810   7.2422760  58.0913470 137.7543410
   6.9379830  58.9705450 137.9793770   8.1969220  58.1513260 137.7900850
   5.7704550  62.2974460 128.3510260   4.9966810  61.7572080 128.1908980
   6.4999180  61.7781070 128.0128020  16.5292530  61.2939820 134.1436650
  17.2491650  61.7895110 133.7532760  16.3274350  60.6157710 133.4990520
  11.9902470  52.6877780 128.2866040  11.1767080  52.1890950 128.2111350
  11.7964420  53.5276030 127.8702390  11.9111330  61.3648880 140.0305650
  11.8448640  60.4444550 139.7763240  11.2816470  61.4624320 140.7450290
  14.7050860  57.0597430 126.5828200  15.5930480  57.3714660 126.4079540
  14.6755950  56.1869680 126.1908780   5.8141950  61.9654840 131.9889070
   6.3320620  61.1623100 131.9345960   5.3625970  61.9033980 132.8305900
  10.7011450  63.2321120 127.2616370  11.0427150  63.9763350 126.7659690
   9.8724160  63.5452240 127.6241200   3.2986490  58.9316210 138.9014770
   2.9401430  59.5970060 139.4888110   3.0041050  58.0999760 139.2727390
   6.4999610  59.3900450 141.7854320   6.1999750  59.5357630 140.8882140
   7.2710850  58.8305740 141.6927710  11.8428060  64.1869450 139.7809450
  11.8572600  63.2550410 139.5628360  11.1353160  64.2729210 140.4199220
  16.9765130  58.3709270 126.0508060  16.8928850  58.8023490 125.2004500
  17.6959320  58.8307620 126.4834880  18.0539270  60.8276790 139.1278030
  17.3287460  61.4205570 138.9307420  18.5814730  60.8200330 138.3291400
  18.0052380  65.2251530 128.7790190  17.3628540  64.5707150 129.0533910
  17.6183040  65.6306620 128.0030860  13.5838860  62.5536960 132.6261880
  13.9362680  61.9565090 131.9663250  12.7001190  62.2281190 132.7970130
   9.6702140  63.3134650 130.0332290  10.3573270  63.8603860 130.4139880
   8.8834560  63.8575380 130.0681900   8.9729350  60.3180680 129.6457650
   9.4292130  61.1285930 129.8717840   8.6217560  60.0003820 130.4776140
  11.2761960  65.8287020 136.8749950  11.9204180  66.0346400 137.5523370
  11.6391400  65.0675420 136.4220800   4.8741130  50.6618330 130.1180170
   4.7455760  50.6536230 131.0665090   4.0503150  51.0001420 129.7671180
  12.5494040  63.8319370 135.5927400  13.1916270  63.1312530 135.7059570
  13.0743390  64.6117810 135.4124290  16.3949760  64.1167990 125.3166540
  16.1687340  63.3998430 125.9091180  16.0045960  63.8680430 124.4788290
  14.3231660  64.6314270 138.7963460  14.6587900  65.2180960 139.4741380
  13.4032000  64.5006980 139.0261250   2.1765790  68.1434850 126.0911000
   2.5363430  68.7424190 125.4368270   2.0358130  68.6894740 126.8646030
  15.9766010  62.0339930 126.9780700  15.6887710  62.4952620 127.7658580
  16.7718180  61.5737700 127.2464920  10.1520240  64.6805600 141.9651520
   9.8317110  63.9614840 142.5097210   9.4778600  65.3560670 142.0387580
   8.1934410  65.5266050 126.9084670   8.1844510  66.2595740 126.2929180
   7.2732770  65.2797630 127.0011630   3.7941050  60.7480940 127.6531430
   3.1869000  61.4879840 127.6626730   4.2690400  60.8380300 126.8269630
  13.3673840  54.9131760 137.3288320  13.7354660  54.0926970 137.6567890
  12.5072040  54.9733650 137.7443970  16.7335870  53.8688700 128.1375880
  16.1049030  53.9734370 127.4234110  16.2387790  54.0885480 128.9269760
  11.1794010  65.5894290 125.5709860  11.2805990  65.3858280 124.6411840
  10.2795750  65.3352570 125.7757640   8.7019900  56.1474650 129.5533760
   7.9936050  56.6160990 129.9947370   8.9864380  55.4896660 130.1878950
  10.3275830  57.5671350 137.5526290  10.8261080  58.0417170 138.2178140
  10.4698780  56.6434870 137.7596320  12.7335330  52.8725310 130.9929550
  12.6103110  52.8911440 130.0439060  13.6819890  52.9204250 131.1127950
   9.8212120  68.1080610 130.2657530  10.0753620  68.0702000 129.3436900
   8.8724600  67.9813940 130.2585780   6.9054920  54.4559730 126.9284470
   7.7545450  54.8929880 126.8624660   6.5386190  54.7679990 127.7556530
  17.5342690  53.7839310 138.3954680  17.0316290  54.5244710 138.7348490
  18.3499350  54.1723310 138.0791470  15.8264700  59.0272490 131.8416040
  14.8854840  59.0422720 132.0163730  16.1408770  58.2408450 132.2876340
   5.8046340  60.7092090 125.4020000   6.5709610  60.5973450 125.9645430
   5.8821030  60.0130060 124.7496770   4.4993100  58.1417160 126.0852890
   4.5796690  57.1944670 126.1970290   5.3912850  58.4724040 126.1913550
  17.8290280  66.1981340 133.5170300  17.9537700  67.0212510 133.9894110
  18.6955840  65.9872070 133.1694450   5.3007810  68.2912550 133.1887430
   6.0370290  67.7428010 133.4596000   5.6848730  69.1568560 133.0493420
   4.3066090  67.4758620 142.3773010   5.1078820  67.7970670 142.7908410
   3.7917910  67.1154200 143.0992920   8.4110120  67.4642860 125.0113000
   9.2038730  67.7531690 124.5594790   7.8914470  67.0335030 124.3325480
  13.1430720  63.5838490 142.3248420  12.5368880  63.6070090 141.5844170
  12.8384830  62.8521530 142.8615670  14.5731090  67.3118780 140.9357830
  15.5252840  67.2276800 140.8858070  14.4259310  67.9760490 141.6091620
  17.4640290  66.6912990 126.4349740  17.1781800  66.2778130 125.6203920
  17.2659840  67.6200700 126.3150260   8.9287520  62.6846270 124.8755350
   8.8238160  62.0698620 125.6016730   8.7611740  62.1612160 124.0918360
   9.0801840  61.3703070 140.8544580   8.3147510  61.9388070 140.7699250
   9.2617800  61.0779280 139.9612810  12.1690250  61.7466300 125.4797340
  11.6200350  62.1935600 126.1240080  12.7909510  61.2415550 126.0035010
  16.2225190  63.1008400 141.4119600  16.9634660  63.4384160 140.9087060
  15.4597870  63.2700460 140.8589370   4.0586980  58.1061670 142.2159130
   4.0992320  57.8075540 143.1244360   4.9132480  58.5069280 142.0566650
   7.8365370  60.7057220 127.3762640   8.2581790  60.5397090 128.2194030
   7.9616210  59.8957450 126.8817780   5.9992790  56.6853770 140.1833620
   5.4689250  56.1944720 139.5556960   6.6680860  57.1137970 139.6491550
  10.3493010  59.7294830 124.6239740  10.8698670  59.0143850 124.2580890
  10.9961410  60.3680700 124.9240250  14.8970850  61.1523230 139.9474810
  15.3111870  61.3068310 140.7965230  13.9621850  61.2778450 140.1100590
  15.3693020  58.4919390 141.9513960  15.9513790  57.7371710 141.8634440
  15.5454790  59.0226830 141.1745440   6.4865090  53.6516140 140.2630910
   6.3921960  53.0336890 139.5381780   5.9062480  54.3782430 140.0360820
   9.2526530  52.2089380 137.2958300   8.8043830  52.2313640 136.4503850
   8.6191730  51.8108400 137.8928600   9.6586080  61.1043710 137.9170740
  10.0774190  61.9476440 137.7446980   8.7394710  61.2415750 137.6877520
  11.9949980  58.8359890 139.3008580  12.1146190  58.2401030 140.0403420
  12.8543980  58.8729580 138.8809880  14.3337880  59.3897080 137.8771090
  13.8073100  59.9139700 137.2736230  14.6769220  60.0224470 138.5080820
   6.7324270  56.7790450 124.3220800   6.5313330  55.9157810 124.6834140
   6.5616320  56.6923810 123.3842400   7.5093500  67.4096720 139.0328470
   6.9714590  68.1342780 138.7137170   7.7627460  66.9327060 138.2425810
   8.7618750  55.3781240 140.5584400   9.3518440  55.0697090 141.2462220
   7.9438990  54.9060990 140.7144300  13.5812180  54.9947050 140.7917420
  12.8927700  54.3328590 140.7267410  14.3018200  54.5485320 141.2365880
  14.2112580  51.5898680 126.8507680  14.4914870  50.7466580 127.2067100
  13.4378310  51.8221790 127.3646430   5.5307070  53.8791070 124.3098680
   5.8332970  53.8858500 123.4017830   6.2701660  53.5288930 124.8066340
  10.3655710  68.6447930 139.2915120  10.2914410  69.5483070 139.5987490
   9.4634550  68.3259830 139.2637190   8.7492000  52.8225690 125.2954880
   8.4014000  52.1449680 124.7157330   8.9504770  52.3615200 126.1098270
  10.9141040  67.8106440 126.9141480  11.8091830  68.1491410 126.9360240
  10.9458670  67.0885850 126.2865760   4.5537200  63.1833490 125.1428480
   4.9912070  63.7263160 125.7986060   5.0384930  62.3580440 125.1524820
   1.7683000  65.9722520 132.5948740   2.0986010  65.1043580 132.3627380
   2.1974000  66.1781040 133.4253700   6.3644920  64.3031530 130.2550710
   6.0640460  64.1796500 131.1554620   6.2582410  63.4440120 129.8466440
   2.2573210  66.8393110 135.3330370   1.8204200  67.0193910 136.1654520
   2.8250890  67.5967730 135.1912090  17.8935390  66.3410110 139.6207680
  17.2937380  66.4002670 138.8771600  18.0229290  65.4015090 139.7504530
  19.1336840  64.0827930 124.9577390  18.3029800  64.1504580 125.4284620
  19.3108670  64.9732050 124.6544250  18.5893300  60.8275410 127.4611590
  19.3512210  61.3972060 127.5671280  18.6047670  60.2602610 128.2319900
  19.5953270  61.6825510 132.3053520  19.9662100  60.8992830 131.8989490
  20.2355200  62.3714610 132.1270820  16.5787030  63.0662090 137.7183840
  15.7646870  63.4959250 137.9809630  16.9861230  63.6780500 137.1052890
  18.6412470  61.1209780 124.6184110  18.9161310  62.0288660 124.4903330
  18.4523210  61.0572310 125.5546100  15.0388080  54.1454630 125.9137740
  15.4572960  53.9585610 125.0734400  14.7324140  53.2933680 126.2240670
  18.5377810  59.0578770 129.6113540  18.1621410  58.2906700 129.1794830
  17.8080930  59.4401470 130.0988470   3.1273570  59.7365910 136.2322590
   3.4946610  59.6493310 137.1118610   2.5584390  58.9732460 136.1329450
  17.9277430  58.2050290 139.2453060  17.6963520  57.9763040 138.3451010
  18.1881980  59.1249840 139.1997950   2.6789570  56.6475000 140.1381010
   1.7845620  56.6141760 140.4774720   3.2187120  56.8461790 140.9032260
  16.3665500  53.4306720 142.0232760  17.2435680  53.4390120 142.4066760
  16.3786340  52.6937560 141.4125110  17.8128770  57.2836260 132.9120780
  18.3366250  56.7898910 132.2810950  18.3988190  57.4186620 133.6568350
  17.9918490  57.3676130 136.4340330  17.0421200  57.3339670 136.5485320
  18.1731500  58.2776240 136.1990100   3.8462930  55.6177810 125.5438960
   4.5554630  55.1961030 125.0586240   3.1302870  55.6853040 124.9122310
   3.4937090  51.6717140 124.5841610   4.2165220  52.2126080 124.9022830
   3.7661610  51.3980560 123.7083150  17.3028740  56.5409610 128.8513190
  17.7987860  56.3080480 129.6362070  17.1044810  55.7021450 128.4350830
   3.1829280  50.9223330 134.4864230   3.8305470  50.3720710 134.0459390
   3.6031120  51.1766480 135.3080040  18.7315900  55.1770560 131.3850870
  18.6215180  55.0226600 132.3233140  19.4923490  54.6491500 131.1426280
  17.0781620  51.1164690 137.8433870  17.7153840  51.7298830 138.2093060
  17.2256510  51.1525350 136.8983100  19.6206170  53.0078480 124.6257010
  20.5455480  52.8759660 124.4175300  19.5981960  53.0871300 125.5793460
  19.6944660  53.7789140 127.2513720  18.8996160  53.7134260 127.7806630
  19.8987940  54.7139780 127.2399070  16.6363080  67.8180690 131.2452110
  17.2322150  67.4965260 130.5686530  16.8941230  67.3452510 132.0365380
   2.9361280  51.0779000 137.2289550   2.5876100  51.5342820 137.9947730
   2.6048980  50.1836130 137.3111980   4.5425650  64.2498600 141.3942740
   4.4995280  63.8791510 142.2757200   4.6736660  65.1876170 141.5344560
   8.2431680  65.8058190 136.9952460   8.0023040  66.0732750 136.1082980
   9.1834320  65.9763920 137.0503320  10.4486100  52.2690880 140.7508970
  10.3874990  52.8612710 141.5004380  11.3886480  52.1616840 140.6059230
  13.0860660  51.9260940 140.3901260  13.7001070  52.2440230 139.7282340
  13.6310220  51.4409530 141.0097120  19.5035840  67.8252570 137.7963100
  19.0094120  68.2221440 137.0790230  18.8949130  67.2001780 138.1900380
   3.6081920  50.6055200 140.5040320   4.1564910  50.4243250 139.7406430
   3.6737230  49.8149310 141.0396630   4.3813680  67.1960850 138.5140520
   3.7874000  67.0645550 139.2530560   4.3737520  66.3598990 138.0482620
  13.8268700  50.4893080 136.7170550  12.9528540  50.8228190 136.5143480
  13.7179450  50.0166260 137.5422420  14.7340680  52.6963950 138.1012270
  14.4054040  51.8815710 137.7214000  15.6822980  52.6533760 137.9777960
  17.1875290  68.4675990 135.0749840  16.7278260  69.2191800 134.7007860
  16.5587750  67.7482460 135.0164640   4.0125910  64.5619230 137.4648560
   3.2859970  63.9424520 137.3974510   4.0735060  64.9559840 136.5946640
   7.6171010  66.7764230 134.2497970   8.1336030  66.1651590 133.7246230
   8.2668390  67.2793010 134.7408980  10.3566510  67.6672720 135.0766950
  10.6444320  67.4127020 134.1999960  10.8689730  67.1150080 135.6672520
  11.5743520  51.4062920 135.6563460  10.7915310  51.8808420 135.9360220
  11.2806450  50.5017750 135.5476640  16.1264590  52.1086020 133.7012550
  16.5672680  52.0531120 132.8534150  15.8572180  53.0244030 133.7722730
  17.9903160  51.7401260 131.7121370  17.9291560  50.7962480 131.5652390
  18.7695190  51.8481350 132.2574830   2.9183930  51.7110400 128.1777180
   3.6763290  51.8239280 127.6041210   2.4561100  52.5479600 128.1320610
   9.4597740  53.8249670 131.1679490   8.6472250  53.4506560 130.8275370
   9.9639380  53.0694750 131.4700680  13.9622720  50.4892120 132.4062560
  14.5652090  51.0612330 132.8811080  13.2215710  51.0531560 132.1836460
  17.1057320  50.8913680 127.6802840  17.3007950  51.7897130 127.9470270
  16.3187190  50.6600760 128.1735790   3.9018610  66.5726850 128.1195460
   3.3766230  66.9534880 127.4157420   3.8263190  67.1977620 128.8405170
   5.2909080  52.2374450 126.7179150   5.8201840  51.4504250 126.5887100
   5.9237400  52.9165640 126.9514680   7.4846920  51.9749590 129.7724540
   6.8549660  51.2736900 129.9394670   6.9452060  52.7353720 129.5557700
  10.4238870  68.5888820 142.4435150  11.3506180  68.3533090 142.4871110
  10.4089300  69.4160820 141.9621180  18.6583930  68.1314390 129.4409400
  18.8336120  67.4452130 128.7970320  17.9605500  68.6561440 129.0486070
   7.6102480  51.2533570 142.2077030   7.3286750  51.7567170 141.4437850
   7.9922180  50.4555320 141.8419160   6.5011580  68.5209230 126.9944710
   7.2330400  68.2368510 126.4468600   6.7605250  68.2822510 127.8844090
   5.6626370  64.6373960 126.9991040   5.0335250  65.1059060 127.5476870
   5.7774200  63.7923180 127.4337230  14.2117940  50.6687150 142.7857500
  14.0983390  50.9881760 143.6809020  15.0287680  51.0699660 142.4894780
  16.9916430  67.8158680 142.2676190  17.7841750  67.3207910 142.0602150
  17.2849580  68.4948820 142.8751800  13.1176090  58.6879620 113.1492240
  13.0370140  57.7734230 112.8783950  12.7040510  59.1846690 112.4431950
  11.2494130  60.4658640 115.0301510  10.4736230  59.9859080 115.3200080
  11.9007060  59.7864290 114.8557670   5.2659960  60.7778450 115.9077270
   4.4344840  60.5227160 116.3073780   5.8740940  60.8489220 116.6435190
  15.2701560  64.8718830 113.8100640  14.8083090  64.1006070 114.1387810
  16.0827110  64.8984900 114.3153090   5.2461220  64.8118540 116.1035290
   5.5489260  63.9216280 115.9245510   5.9904810  65.3688760 115.8757540
   3.6751910  55.7380340 109.6919660   2.7868610  56.0796310 109.5899540
   3.9593100  55.5380660 108.8000490  11.4964870  67.1576840 113.4304630
  10.8776310  67.6134340 112.8599070  12.3516650  67.3128300 113.0294330
  10.6903120  63.1415830 115.0371670  10.6211400  62.2005770 114.8760800
  11.4522980  63.2317240 115.6094240   2.8809790  53.7470350 117.3628290
   2.7012630  52.8496100 117.6431050   2.4789870  54.2942220 118.0375240
  11.7208290  55.9486210 115.2640600  12.0973110  55.0758090 115.1514270
  11.6227800  56.2844910 114.3731040   5.8513300  54.3211840 110.7258040
   5.9580050  55.2215570 111.0326800   4.9405660  54.2729810 110.4352690
  15.5032410  53.4436650 112.1968940  16.3242030  52.9533220 112.2394420
  15.5366490  54.0334310 112.9500780   3.4996460  56.2430850 115.9710630
   4.1806570  56.5069220 116.5898030   3.1844510  55.4031720 116.3048640
   7.6921030  57.2898210 115.0583220   8.1999250  57.7879180 115.6988240
   8.2234270  56.5133410 114.8822580  19.7931960  55.4603400 118.7612570
  19.0884130  55.8485110 118.2427680  20.0589880  56.1553690 119.3633500
   5.9757130  51.9296770 119.3246640   5.9775570  52.4469160 118.5192540
   5.1461440  51.4526950 119.3016570  12.3628220  62.0416080 110.8236540
  11.7445490  62.5065530 110.2599260  12.8751470  62.7343560 111.2406050
   7.2259980  61.5691950 117.5020140   6.8929360  62.1960870 118.1441210
   7.4026660  62.0953830 116.7221810  15.7393890  55.3837030 114.9696480
  15.0349460  55.6721920 115.5499590  16.1006050  56.1937140 114.6096040
   5.6572460  53.6406730 117.3317090   5.9989270  54.4848780 117.0370960
   4.7188270  53.7890470 117.4482430   6.4379080  63.5372750 119.3169320
   7.0553080  64.2123830 119.0353770   5.5772200  63.9460730 119.2256820
  17.3556670  65.0012160 117.2323960  16.6720190  65.6711270 117.2240630
  17.8950960  65.1992810 116.4668820  18.8080810  54.8291820 115.3605690
  17.8605720  54.8630800 115.4921120  19.1330800  55.6430770 115.7455050
   9.3400350  51.1289000 113.6561680   9.6475330  50.5735890 112.9397180
   8.4101050  51.2633460 113.4734670  14.8915410  66.8456290 115.9469140
  14.9042570  66.4418580 115.0791400  14.3390630  67.6203580 115.8430570
  16.1860830  63.5672510 111.0359310  16.0757160  62.6246840 111.1608730
  16.1829080  63.9288150 111.9222070  14.2900850  61.7486130 117.2751750
  14.7069640  61.5346240 116.4405210  15.0140670  62.0058920 117.8460370
  11.7281110  59.1937830 110.3921800  10.8010390  59.1275210 110.6210270
  11.8805930  60.1317960 110.2777040  11.7150190  55.4654830 107.3888960
  10.7753860  55.6268790 107.4741420  12.0333450  56.1840510 106.8424950
  18.2362950  60.1473350 117.3667990  17.4081580  60.2166440 116.8918120
  18.8313430  60.7327660 116.8983820  15.7578400  60.7558130 110.8957050
  15.1390820  60.4177680 110.2483350  15.7402850  60.1117890 111.6036240
  15.2004960  56.9342670 118.3122860  14.7876140  57.7596380 118.5662850
  14.4680910  56.3487710 118.1199220   7.3337750  59.7202570 113.1741530
   6.9294750  59.0079820 112.6787430   7.4200870  59.3755810 114.0629570
   7.8019450  63.4070130 115.3380740   7.5047740  62.8015600 114.6588520
   8.7519270  63.4447440 115.2270100   6.0466370  56.4945780 116.9540570
   6.5980960  56.6041120 116.1793820   6.5609880  56.8683380 117.6695800
  15.8905060  66.9802000 119.0003840  15.4135620  67.7874190 118.8076450
  15.2066850  66.3280330 119.1530050   6.8937880  63.1451820 121.9888540
   5.9966410  63.3691790 122.2361940   6.9190750  63.2686760 121.0399940
  13.9343100  59.9944940 107.9029800  14.3736380  59.1567370 107.7567620
  14.6471520  60.6274340 107.9893940   5.7209100  60.0165140 120.5645910
   5.5816870  60.8887940 120.9333310   4.8390460  59.6737950 120.4193850
  12.0438480  64.9341010 111.8711040  12.4834390  65.6765340 111.4566430
  11.9825370  65.1767580 112.7950000   7.5189450  65.9586840 122.7731060
   7.4904880  66.3629790 121.9059490   7.3554420  65.0297200 122.6102660
  17.5160240  51.2487750 106.2170840  17.2032900  51.3414580 107.1169910
  18.2772710  51.8268780 106.1668270   4.0342380  58.6147550 110.6748180
   3.9139980  59.3409640 110.0629450   3.7243270  57.8450460 110.1976090
  19.4704270  66.7413940 124.0695230  19.9463990  67.2196830 124.7484310
  20.0911430  66.6731430 123.3440730   2.9175380  63.4862880 112.8923000
   2.5103460  63.6277470 112.0376600   3.8088390  63.2023040 112.6894210
  18.8737520  63.9326790 121.2295240  19.0000580  63.6938670 120.3112420
  18.9158900  63.1011330 121.7017320  12.7354260  67.6354790 119.7990050
  13.2498930  67.5462800 120.6012480  11.8923340  67.9814490 120.0917960
  14.7108660  67.9210130 109.2274050  14.5509800  67.6313070 110.1255880
  14.5455370  67.1450260 108.6919280   7.1897040  67.7008660 111.0045670
   7.0139520  66.7844200 110.7913470   6.3352780  68.0595950 111.2443470
  14.4134790  65.4297690 107.7872050  13.7199950  65.4274980 107.1274330
  15.1557650  65.0057010 107.3566220  13.9784720  67.0560400 111.8620540
  14.4341670  66.2749780 112.1759160  14.3177240  67.7667220 112.4061720
  18.7261530  55.9859250 122.1944980  18.1105800  56.4938920 121.6660440
  18.4057950  55.0857580 122.1370920   6.5006040  51.9582620 114.0571850
   6.0574190  52.7392160 113.7256370   7.0591030  52.2812510 114.7642790
  10.7875850  54.8251140 119.6607170  10.3255220  55.0334160 120.4727110
  10.3853960  54.0110490 119.3577840  15.7880360  56.0460090 120.7903830
  14.9373950  55.7465840 121.1112900  15.6282150  56.2902100 119.8787650
  12.8830070  57.5461840 122.8902620  13.2083480  56.7125590 122.5504850
  13.6710400  58.0690360 123.0380950   9.6164860  51.5793320 108.9377680
   8.9919040  51.5753190 109.6630990   9.5294980  50.7124280 108.5413650
   8.5381940  52.5029950 115.9161450   8.8354270  53.4092780 115.8353470
   9.0867500  52.0148730 115.3021020   6.2920260  57.0816190 111.7853100
   6.0661180  56.8653360 112.6899720   5.5112790  57.5144650 111.4399070
  13.5218020  57.0879560 110.3843750  12.9226910  57.8115360 110.2007370
  14.0697630  57.0256340 109.6020200   8.7319470  57.9801770 122.4513370
   8.6363070  57.0396500 122.3013770   9.5751450  58.2016840 122.0561440
  12.1282890  55.7243100 112.4147030  12.5212460  56.0415300 111.6015720
  12.4899740  54.8454980 112.5291550   3.8630010  54.3915440 120.6047150
   3.4693400  55.2390650 120.8119930   3.1748410  53.7541810 120.7955790
  10.4375060  54.4750410 123.6743890   9.7473380  54.2822610 124.3089980
  11.1807360  54.7585050 124.2068190  12.7138030  58.3148850 116.5097810
  11.9819150  58.8235660 116.8587910  12.3162370  57.4978830 116.2086590
   9.1515420  54.9903050 114.9150300   9.1551480  54.5493000 114.0654840
  10.0466540  55.3120380 115.0222120   5.0017800  54.8729540 113.8744510
   4.6617850  55.3504770 114.6311560   4.2395120  54.4194660 113.5145610
   9.2135570  55.9915130 107.9057060   9.3348390  55.9501610 108.8542880
   8.8284080  56.8539280 107.7503790  13.1763940  53.7682530 115.9220750
  13.1936680  54.2191180 116.7662600  12.9279520  52.8688170 116.1354190
   8.2257070  58.3016270 107.3040360   7.6573970  57.8534520 106.6776270
   8.9346070  58.6609050 106.7705510  16.6034690  51.1814710 121.7607130
  16.9280460  50.4504370 122.2865110  16.6391200  50.8628350 120.8588120
   3.3026250  62.2028290 121.1807090   2.9181040  61.5621960 121.7790050
   3.6138440  62.9064410 121.7501820   9.4523390  59.0504830 116.6615710
   9.8193520  58.5763400 117.4077050   9.2628450  59.9246400 117.0024050
   2.3163880  53.7948520 112.7909180   2.0310800  53.4304190 113.6287800
   2.2542740  53.0628980 112.1772320   7.2422760  58.0913470 118.9799920
   6.9379830  58.9705450 119.2050280   8.1969220  58.1513260 119.0157360
   5.7704550  62.2974460 109.5766770   4.9966810  61.7572080 109.4165490
   6.4999180  61.7781070 109.2384530  16.5292530  61.2939820 115.3693160
  17.2491650  61.7895110 114.9789270  16.3274350  60.6157710 114.7247030
  11.9902470  52.6877780 109.5122550  11.1767080  52.1890950 109.4367860
  11.7964420  53.5276030 109.0958900  11.9111330  61.3648880 121.2562160
  11.8448640  60.4444550 121.0019750  11.2816470  61.4624320 121.9706800
  14.7050860  57.0597430 107.8084710  15.5930480  57.3714660 107.6336050
  14.6755950  56.1869680 107.4165290   5.8141950  61.9654840 113.2145580
   6.3320620  61.1623100 113.1602470   5.3625970  61.9033980 114.0562410
  10.7011450  63.2321120 108.4872880  11.0427150  63.9763350 107.9916200
   9.8724160  63.5452240 108.8497710   3.2986490  58.9316210 120.1271280
   2.9401430  59.5970060 120.7144620   3.0041050  58.0999760 120.4983900
   6.4999610  59.3900450 123.0110830   6.1999750  59.5357630 122.1138650
   7.2710850  58.8305740 122.9184220  11.8428060  64.1869450 121.0065960
  11.8572600  63.2550410 120.7884870  11.1353160  64.2729210 121.6455730
  16.9765130  58.3709270 107.2764570  16.8928850  58.8023490 106.4261010
  17.6959320  58.8307620 107.7091390  18.0539270  60.8276790 120.3534540
  17.3287460  61.4205570 120.1563930  18.5814730  60.8200330 119.5547910
  18.0052380  65.2251530 110.0046700  17.3628540  64.5707150 110.2790420
  17.6183040  65.6306620 109.2287370  13.5838860  62.5536960 113.8518390
  13.9362680  61.9565090 113.1919760  12.7001190  62.2281190 114.0226640
   9.6702140  63.3134650 111.2588800  10.3573270  63.8603860 111.6396390
   8.8834560  63.8575380 111.2938410   8.9729350  60.3180680 110.8714160
   9.4292130  61.1285930 111.0974350   8.6217560  60.0003820 111.7032650
  11.2761960  65.8287020 118.1006460  11.9204180  66.0346400 118.7779880
  11.6391400  65.0675420 117.6477310   4.8741130  50.6618330 111.3436680
   4.7455760  50.6536230 112.2921600   4.0503150  51.0001420 110.9927690
  12.5494040  63.8319370 116.8183910  13.1916270  63.1312530 116.9316080
  13.0743390  64.6117810 116.6380800  16.3949760  64.1167990 106.5423050
  16.1687340  63.3998430 107.1347690  16.0045960  63.8680430 105.7044800
  14.3231660  64.6314270 120.0219970  14.6587900  65.2180960 120.6997890
  13.4032000  64.5006980 120.2517760   2.1765790  68.1434850 107.3167510
   2.5363430  68.7424190 106.6624780   2.0358130  68.6894740 108.0902540
  15.9766010  62.0339930 108.2037210  15.6887710  62.4952620 108.9915090
  16.7718180  61.5737700 108.4721430  10.1520240  64.6805600 123.1908030
   9.8317110  63.9614840 123.7353720   9.4778600  65.3560670 123.2644090
   8.1934410  65.5266050 108.1341180   8.1844510  66.2595740 107.5185690
   7.2732770  65.2797630 108.2268140   3.7941050  60.7480940 108.8787940
   3.1869000  61.4879840 108.8883240   4.2690400  60.8380300 108.0526140
  13.3673840  54.9131760 118.5544830  13.7354660  54.0926970 118.8824400
  12.5072040  54.9733650 118.9700480  16.7335870  53.8688700 109.3632390
  16.1049030  53.9734370 108.6490620  16.2387790  54.0885480 110.1526270
  11.1794010  65.5894290 106.7966370  11.2805990  65.3858280 105.8668350
  10.2795750  65.3352570 107.0014150   8.7019900  56.1474650 110.7790270
   7.9936050  56.6160990 111.2203880   8.9864380  55.4896660 111.4135460
  10.3275830  57.5671350 118.7782800  10.8261080  58.0417170 119.4434650
  10.4698780  56.6434870 118.9852830  12.7335330  52.8725310 112.2186060
  12.6103110  52.8911440 111.2695570  13.6819890  52.9204250 112.3384460
   9.8212120  68.1080610 111.4914040  10.0753620  68.0702000 110.5693410
   8.8724600  67.9813940 111.4842290   6.9054920  54.4559730 108.1540980
   7.7545450  54.8929880 108.0881170   6.5386190  54.7679990 108.9813040
  17.5342690  53.7839310 119.6211190  17.0316290  54.5244710 119.9605000
  18.3499350  54.1723310 119.3047980  15.8264700  59.0272490 113.0672550
  14.8854840  59.0422720 113.2420240  16.1408770  58.2408450 113.5132850
   5.8046340  60.7092090 106.6276510   6.5709610  60.5973450 107.1901940
   5.8821030  60.0130060 105.9753280   4.4993100  58.1417160 107.3109400
   4.5796690  57.1944670 107.4226800   5.3912850  58.4724040 107.4170060
  17.8290280  66.1981340 114.7426810  17.9537700  67.0212510 115.2150620
  18.6955840  65.9872070 114.3950960   5.3007810  68.2912550 114.4143940
   6.0370290  67.7428010 114.6852510   5.6848730  69.1568560 114.2749930
   4.3066090  67.4758620 123.6029520   5.1078820  67.7970670 124.0164920
   3.7917910  67.1154200 124.3249430   8.4110120  67.4642860 106.2369510
   9.2038730  67.7531690 105.7851300   7.8914470  67.0335030 105.5581990
  13.1430720  63.5838490 123.5504930  12.5368880  63.6070090 122.8100680
  12.8384830  62.8521530 124.0872180  14.5731090  67.3118780 122.1614340
  15.5252840  67.2276800 122.1114580  14.4259310  67.9760490 122.8348130
  17.4640290  66.6912990 107.6606250  17.1781800  66.2778130 106.8460430
  17.2659840  67.6200700 107.5406770   8.9287520  62.6846270 106.1011860
   8.8238160  62.0698620 106.8273240   8.7611740  62.1612160 105.3174870
   9.0801840  61.3703070 122.0801090   8.3147510  61.9388070 121.9955760
   9.2617800  61.0779280 121.1869320  12.1690250  61.7466300 106.7053850
  11.6200350  62.1935600 107.3496590  12.7909510  61.2415550 107.2291520
  16.2225190  63.1008400 122.6376110  16.9634660  63.4384160 122.1343570
  15.4597870  63.2700460 122.0845880   4.0586980  58.1061670 123.4415640
   4.0992320  57.8075540 124.3500870   4.9132480  58.5069280 123.2823160
   7.8365370  60.7057220 108.6019150   8.2581790  60.5397090 109.4450540
   7.9616210  59.8957450 108.1074290   5.9992790  56.6853770 121.4090130
   5.4689250  56.1944720 120.7813470   6.6680860  57.1137970 120.8748060
  10.3493010  59.7294830 105.8496250  10.8698670  59.0143850 105.4837400
  10.9961410  60.3680700 106.1496760  14.8970850  61.1523230 121.1731320
  15.3111870  61.3068310 122.0221740  13.9621850  61.2778450 121.3357100
  15.3693020  58.4919390 123.1770470  15.9513790  57.7371710 123.0890950
  15.5454790  59.0226830 122.4001950   6.4865090  53.6516140 121.4887420
   6.3921960  53.0336890 120.7638290   5.9062480  54.3782430 121.2617330
   9.2526530  52.2089380 118.5214810   8.8043830  52.2313640 117.6760360
   8.6191730  51.8108400 119.1185110   9.6586080  61.1043710 119.1427250
  10.0774190  61.9476440 118.9703490   8.7394710  61.2415750 118.9134030
  11.9949980  58.8359890 120.5265090  12.1146190  58.2401030 121.2659930
  12.8543980  58.8729580 120.1066390  14.3337880  59.3897080 119.1027600
  13.8073100  59.9139700 118.4992740  14.6769220  60.0224470 119.7337330
   6.7324270  56.7790450 105.5477310   6.5313330  55.9157810 105.9090650
   6.5616320  56.6923810 104.6098910   7.5093500  67.4096720 120.2584980
   6.9714590  68.1342780 119.9393680   7.7627460  66.9327060 119.4682320
   8.7618750  55.3781240 121.7840910   9.3518440  55.0697090 122.4718730
   7.9438990  54.9060990 121.9400810  13.5812180  54.9947050 122.0173930
  12.8927700  54.3328590 121.9523920  14.3018200  54.5485320 122.4622390
  14.2112580  51.5898680 108.0764190  14.4914870  50.7466580 108.4323610
  13.4378310  51.8221790 108.5902940   5.5307070  53.8791070 105.5355190
   5.8332970  53.8858500 104.6274340   6.2701660  53.5288930 106.0322850
  10.3655710  68.6447930 120.5171630  10.2914410  69.5483070 120.8244000
   9.4634550  68.3259830 120.4893700   8.7492000  52.8225690 106.5211390
   8.4014000  52.1449680 105.9413840   8.9504770  52.3615200 107.3354780
  10.9141040  67.8106440 108.1397990  11.8091830  68.1491410 108.1616750
  10.9458670  67.0885850 107.5122270   4.5537200  63.1833490 106.3684990
   4.9912070  63.7263160 107.0242570   5.0384930  62.3580440 106.3781330
   1.7683000  65.9722520 113.8205250   2.0986010  65.1043580 113.5883890
   2.1974000  66.1781040 114.6510210   6.3644920  64.3031530 111.4807220
   6.0640460  64.1796500 112.3811130   6.2582410  63.4440120 111.0722950
   2.2573210  66.8393110 116.5586880   1.8204200  67.0193910 117.3911030
   2.8250890  67.5967730 116.4168600  17.8935390  66.3410110 120.8464190
  17.2937380  66.4002670 120.1028110  18.0229290  65.4015090 120.9761040
  19.1336840  64.0827930 106.1833900  18.3029800  64.1504580 106.6541130
  19.3108670  64.9732050 105.8800760  18.5893300  60.8275410 108.6868100
  19.3512210  61.3972060 108.7927790  18.6047670  60.2602610 109.4576410
  19.5953270  61.6825510 113.5310030  19.9662100  60.8992830 113.1246000
  20.2355200  62.3714610 113.3527330  16.5787030  63.0662090 118.9440350
  15.7646870  63.4959250 119.2066140  16.9861230  63.6780500 118.3309400
  18.6412470  61.1209780 105.8440620  18.9161310  62.0288660 105.7159840
  18.4523210  61.0572310 106.7802610  15.0388080  54.1454630 107.1394250
  15.4572960  53.9585610 106.2990910  14.7324140  53.2933680 107.4497180
  18.5377810  59.0578770 110.8370050  18.1621410  58.2906700 110.4051340
  17.8080930  59.4401470 111.3244980   3.1273570  59.7365910 117.4579100
   3.4946610  59.6493310 118.3375120   2.5584390  58.9732460 117.3585960
  17.9277430  58.2050290 120.4709570  17.6963520  57.9763040 119.5707520
  18.1881980  59.1249840 120.4254460   2.6789570  56.6475000 121.3637520
   1.7845620  56.6141760 121.7031230   3.2187120  56.8461790 122.1288770
  16.3665500  53.4306720 123.2489270  17.2435680  53.4390120 123.6323270
  16.3786340  52.6937560 122.6381620  17.8128770  57.2836260 114.1377290
  18.3366250  56.7898910 113.5067460  18.3988190  57.4186620 114.8824860
  17.9918490  57.3676130 117.6596840  17.0421200  57.3339670 117.7741830
  18.1731500  58.2776240 117.4246610   3.8462930  55.6177810 106.7695470
   4.5554630  55.1961030 106.2842750   3.1302870  55.6853040 106.1378820
   3.4937090  51.6717140 105.8098120   4.2165220  52.2126080 106.1279340
   3.7661610  51.3980560 104.9339660  17.3028740  56.5409610 110.0769700
  17.7987860  56.3080480 110.8618580  17.1044810  55.7021450 109.6607340
   3.1829280  50.9223330 115.7120740   3.8305470  50.3720710 115.2715900
   3.6031120  51.1766480 116.5336550  18.7315900  55.1770560 112.6107380
  18.6215180  55.0226600 113.5489650  19.4923490  54.6491500 112.3682790
  17.0781620  51.1164690 119.0690380  17.7153840  51.7298830 119.4349570
  17.2256510  51.1525350 118.1239610  19.6206170  53.0078480 105.8513520
  20.5455480  52.8759660 105.6431810  19.5981960  53.0871300 106.8049970
  19.6944660  53.7789140 108.4770230  18.8996160  53.7134260 109.0063140
  19.8987940  54.7139780 108.4655580  16.6363080  67.8180690 112.4708620
  17.2322150  67.4965260 111.7943040  16.8941230  67.3452510 113.2621890
   2.9361280  51.0779000 118.4546060   2.5876100  51.5342820 119.2204240
   2.6048980  50.1836130 118.5368490   4.5425650  64.2498600 122.6199250
   4.4995280  63.8791510 123.5013710   4.6736660  65.1876170 122.7601070
   8.2431680  65.8058190 118.2208970   8.0023040  66.0732750 117.3339490
   9.1834320  65.9763920 118.2759830  10.4486100  52.2690880 121.9765480
  10.3874990  52.8612710 122.7260890  11.3886480  52.1616840 121.8315740
  13.0860660  51.9260940 121.6157770  13.7001070  52.2440230 120.9538850
  13.6310220  51.4409530 122.2353630  19.5035840  67.8252570 119.0219610
  19.0094120  68.2221440 118.3046740  18.8949130  67.2001780 119.4156890
   3.6081920  50.6055200 121.7296830   4.1564910  50.4243250 120.9662940
   3.6737230  49.8149310 122.2653140   4.3813680  67.1960850 119.7397030
   3.7874000  67.0645550 120.4787070   4.3737520  66.3598990 119.2739130
  13.8268700  50.4893080 117.9427060  12.9528540  50.8228190 117.7399990
  13.7179450  50.0166260 118.7678930  14.7340680  52.6963950 119.3268780
  14.4054040  51.8815710 118.9470510  15.6822980  52.6533760 119.2034470
  17.1875290  68.4675990 116.3006350  16.7278260  69.2191800 115.9264370
  16.5587750  67.7482460 116.2421150   4.0125910  64.5619230 118.6905070
   3.2859970  63.9424520 118.6231020   4.0735060  64.9559840 117.8203150
   7.6171010  66.7764230 115.4754480   8.1336030  66.1651590 114.9502740
   8.2668390  67.2793010 115.9665490  10.3566510  67.6672720 116.3023460
  10.6444320  67.4127020 115.4256470  10.8689730  67.1150080 116.8929030
  11.5743520  51.4062920 116.8819970  10.7915310  51.8808420 117.1616730
  11.2806450  50.5017750 116.7733150  16.1264590  52.1086020 114.9269060
  16.5672680  52.0531120 114.0790660  15.8572180  53.0244030 114.9979240
  17.9903160  51.7401260 112.9377880  17.9291560  50.7962480 112.7908900
  18.7695190  51.8481350 113.4831340   2.9183930  51.7110400 109.4033690
   3.6763290  51.8239280 108.8297720   2.4561100  52.5479600 109.3577120
   9.4597740  53.8249670 112.3936000   8.6472250  53.4506560 112.0531880
   9.9639380  53.0694750 112.6957190  13.9622720  50.4892120 113.6319070
  14.5652090  51.0612330 114.1067590  13.2215710  51.0531560 113.4092970
  17.1057320  50.8913680 108.9059350  17.3007950  51.7897130 109.1726780
  16.3187190  50.6600760 109.3992300   3.9018610  66.5726850 109.3451970
   3.3766230  66.9534880 108.6413930   3.8263190  67.1977620 110.0661680
   5.2909080  52.2374450 107.9435660   5.8201840  51.4504250 107.8143610
   5.9237400  52.9165640 108.1771190   7.4846920  51.9749590 110.9981050
   6.8549660  51.2736900 111.1651180   6.9452060  52.7353720 110.7814210
  10.4238870  68.5888820 123.6691660  11.3506180  68.3533090 123.7127620
  10.4089300  69.4160820 123.1877690  18.6583930  68.1314390 110.6665910
  18.8336120  67.4452130 110.0226830  17.9605500  68.6561440 110.2742580
   7.6102480  51.2533570 123.4333540   7.3286750  51.7567170 122.6694360
   7.9922180  50.4555320 123.0675670   6.5011580  68.5209230 108.2201220
   7.2330400  68.2368510 107.6725110   6.7605250  68.2822510 109.1100600
   5.6626370  64.6373960 108.2247550   5.0335250  65.1059060 108.7733380
   5.7774200  63.7923180 108.6593740  14.2117940  50.6687150 124.0114010
  14.0983390  50.9881760 124.9065530  15.0287680  51.0699660 123.7151290
  16.9916430  67.8158680 123.4932700  17.7841750  67.3207910 123.2858660
  17.2849580  68.4948820 124.1008310  13.1176090  58.6879620  94.3748750
  13.0370140  57.7734230  94.1040460  12.7040510  59.1846690  93.6688460
  11.2494130  60.4658640  96.2558020  10.4736230  59.9859080  96.5456590
  11.9007060  59.7864290  96.0814180   5.2659960  60.7778450  97.1333780
   4.4344840  60.5227160  97.5330290   5.8740940  60.8489220  97.8691700
  15.2701560  64.8718830  95.0357150  14.8083090  64.1006070  95.3644320
  16.0827110  64.8984900  95.5409600   5.2461220  64.8118540  97.3291800
   5.5489260  63.9216280  97.1502020   5.9904810  65.3688760  97.1014050
   3.6751910  55.7380340  90.9176170   2.7868610  56.0796310  90.8156050
   3.9593100  55.5380660  90.0257000  11.4964870  67.1576840  94.6561140
  10.8776310  67.6134340  94.0855580  12.3516650  67.3128300  94.2550840
  10.6903120  63.1415830  96.2628180  10.6211400  62.2005770  96.1017310
  11.4522980  63.2317240  96.8350750   2.8809790  53.7470350  98.5884800
   2.7012630  52.8496100  98.8687560   2.4789870  54.2942220  99.2631750
  11.7208290  55.9486210  96.4897110  12.0973110  55.0758090  96.3770780
  11.6227800  56.2844910  95.5987550   5.8513300  54.3211840  91.9514550
   5.9580050  55.2215570  92.2583310   4.9405660  54.2729810  91.6609200
  15.5032410  53.4436650  93.4225450  16.3242030  52.9533220  93.4650930
  15.5366490  54.0334310  94.1757290   3.4996460  56.2430850  97.1967140
   4.1806570  56.5069220  97.8154540   3.1844510  55.4031720  97.5305150
   7.6921030  57.2898210  96.2839730   8.1999250  57.7879180  96.9244750
   8.2234270  56.5133410  96.1079090   5.9757130  51.9296770 100.5503150
   5.9775570  52.4469160  99.7449050   5.1461440  51.4526950 100.5273080
  12.3628220  62.0416080  92.0493050  11.7445490  62.5065530  91.4855770
  12.8751470  62.7343560  92.4662560   7.2259980  61.5691950  98.7276650
   6.8929360  62.1960870  99.3697720   7.4026660  62.0953830  97.9478320
  15.7393890  55.3837030  96.1952990  15.0349460  55.6721920  96.7756100
  16.1006050  56.1937140  95.8352550   5.6572460  53.6406730  98.5573600
   5.9989270  54.4848780  98.2627470   4.7188270  53.7890470  98.6738940
   6.4379080  63.5372750 100.5425830   7.0553080  64.2123830 100.2610280
   5.5772200  63.9460730 100.4513330  17.3556670  65.0012160  98.4580470
  16.6720190  65.6711270  98.4497140  17.8950960  65.1992810  97.6925330
  18.8080810  54.8291820  96.5862200  17.8605720  54.8630800  96.7177630
  19.1330800  55.6430770  96.9711560   9.3400350  51.1289000  94.8818190
   9.6475330  50.5735890  94.1653690   8.4101050  51.2633460  94.6991180
  14.8915410  66.8456290  97.1725650  14.9042570  66.4418580  96.3047910
  14.3390630  67.6203580  97.0687080  14.2900850  61.7486130  98.5008260
  14.7069640  61.5346240  97.6661720  15.0140670  62.0058920  99.0716880
  11.7281110  59.1937830  91.6178310  10.8010390  59.1275210  91.8466780
  11.8805930  60.1317960  91.5033550  11.7150190  55.4654830  88.6145470
  10.7753860  55.6268790  88.6997930  12.0333450  56.1840510  88.0681460
  18.2362950  60.1473350  98.5924500  17.4081580  60.2166440  98.1174630
  18.8313430  60.7327660  98.1240330  15.7578400  60.7558130  92.1213560
  15.1390820  60.4177680  91.4739860  15.7402850  60.1117890  92.8292750
  15.2004960  56.9342670  99.5379370  14.7876140  57.7596380  99.7919360
  14.4680910  56.3487710  99.3455730   7.3337750  59.7202570  94.3998040
   6.9294750  59.0079820  93.9043940   7.4200870  59.3755810  95.2886080
   7.8019450  63.4070130  96.5637250   7.5047740  62.8015600  95.8845030
   8.7519270  63.4447440  96.4526610   6.0466370  56.4945780  98.1797080
   6.5980960  56.6041120  97.4050330   6.5609880  56.8683380  98.8952310
  15.8905060  66.9802000 100.2260350  15.4135620  67.7874190 100.0332960
  15.2066850  66.3280330 100.3786560   6.8937880  63.1451820 103.2145050
   5.9966410  63.3691790 103.4618450   6.9190750  63.2686760 102.2656450
  13.9343100  59.9944940  89.1286310  14.3736380  59.1567370  88.9824130
  14.6471520  60.6274340  89.2150450   5.7209100  60.0165140 101.7902420
   5.5816870  60.8887940 102.1589820   4.8390460  59.6737950 101.6450360
  12.0438480  64.9341010  93.0967550  12.4834390  65.6765340  92.6822940
  11.9825370  65.1767580  94.0206510   7.5189450  65.9586840 103.9987570
   7.4904880  66.3629790 103.1316000   7.3554420  65.0297200 103.8359170
  17.5160240  51.2487750  87.4427350  17.2032900  51.3414580  88.3426420
  18.2772710  51.8268780  87.3924780   4.0342380  58.6147550  91.9004690
   3.9139980  59.3409640  91.2885960   3.7243270  57.8450460  91.4232600
  19.4704270  66.7413940 105.2951740  19.9463990  67.2196830 105.9740820
  20.0911430  66.6731430 104.5697240   2.9175380  63.4862880  94.1179510
   2.5103460  63.6277470  93.2633110   3.8088390  63.2023040  93.9150720
  18.8737520  63.9326790 102.4551750  19.0000580  63.6938670 101.5368930
  18.9158900  63.1011330 102.9273830  12.7354260  67.6354790 101.0246560
  13.2498930  67.5462800 101.8268990  11.8923340  67.9814490 101.3174470
   7.1897040  67.7008660  92.2302180   7.0139520  66.7844200  92.0169980
   6.3352780  68.0595950  92.4699980  14.4134790  65.4297690  89.0128560
  13.7199950  65.4274980  88.3530840  15.1557650  65.0057010  88.5822730
  18.7261530  55.9859250 103.4201490  18.1105800  56.4938920 102.8916950
  18.4057950  55.0857580 103.3627430   6.5006040  51.9582620  95.2828360
   6.0574190  52.7392160  94.9512880   7.0591030  52.2812510  95.9899300
  10.7875850  54.8251140 100.8863680  10.3255220  55.0334160 101.6983620
  10.3853960  54.0110490 100.5834350  15.7880360  56.0460090 102.0160340
  14.9373950  55.7465840 102.3369410  15.6282150  56.2902100 101.1044160
  12.8830070  57.5461840 104.1159130  13.2083480  56.7125590 103.7761360
  13.6710400  58.0690360 104.2637460   9.6164860  51.5793320  90.1634190
   8.9919040  51.5753190  90.8887500   9.5294980  50.7124280  89.7670160
   8.5381940  52.5029950  97.1417960   8.8354270  53.4092780  97.0609980
   9.0867500  52.0148730  96.5277530   6.2920260  57.0816190  93.0109610
   6.0661180  56.8653360  93.9156230   5.5112790  57.5144650  92.6655580
  13.5218020  57.0879560  91.6100260  12.9226910  57.8115360  91.4263880
  14.0697630  57.0256340  90.8276710   8.7319470  57.9801770 103.6769880
   8.6363070  57.0396500 103.5270280   9.5751450  58.2016840 103.2817950
  12.1282890  55.7243100  93.6403540  12.5212460  56.0415300  92.8272230
  12.4899740  54.8454980  93.7548060   3.8630010  54.3915440 101.8303660
   3.4693400  55.2390650 102.0376440   3.1748410  53.7541810 102.0212300
  10.4375060  54.4750410 104.9000400   9.7473380  54.2822610 105.5346490
  11.1807360  54.7585050 105.4324700  12.7138030  58.3148850  97.7354320
  11.9819150  58.8235660  98.0844420  12.3162370  57.4978830  97.4343100
   9.1515420  54.9903050  96.1406810   9.1551480  54.5493000  95.2911350
  10.0466540  55.3120380  96.2478630   5.0017800  54.8729540  95.1001020
   4.6617850  55.3504770  95.8568070   4.2395120  54.4194660  94.7402120
   9.2135570  55.9915130  89.1313570   9.3348390  55.9501610  90.0799390
   8.8284080  56.8539280  88.9760300  13.1763940  53.7682530  97.1477260
  13.1936680  54.2191180  97.9919110  12.9279520  52.8688170  97.3610700
   8.2257070  58.3016270  88.5296870   7.6573970  57.8534520  87.9032780
   8.9346070  58.6609050  87.9962020  16.6034690  51.1814710 102.9863640
  16.9280460  50.4504370 103.5121620  16.6391200  50.8628350 102.0844630
   3.3026250  62.2028290 102.4063600   2.9181040  61.5621960 103.0046560
   3.6138440  62.9064410 102.9758330   9.4523390  59.0504830  97.8872220
   9.8193520  58.5763400  98.6333560   9.2628450  59.9246400  98.2280560
   2.3163880  53.7948520  94.0165690   2.0310800  53.4304190  94.8544310
   2.2542740  53.0628980  93.4028830   7.2422760  58.0913470 100.2056430
   6.9379830  58.9705450 100.4306790   8.1969220  58.1513260 100.2413870
   5.7704550  62.2974460  90.8023280   4.9966810  61.7572080  90.6422000
   6.4999180  61.7781070  90.4641040  16.5292530  61.2939820  96.5949670
  17.2491650  61.7895110  96.2045780  16.3274350  60.6157710  95.9503540
  11.9902470  52.6877780  90.7379060  11.1767080  52.1890950  90.6624370
  11.7964420  53.5276030  90.3215410  11.9111330  61.3648880 102.4818670
  11.8448640  60.4444550 102.2276260  11.2816470  61.4624320 103.1963310
  14.7050860  57.0597430  89.0341220  15.5930480  57.3714660  88.8592560
  14.6755950  56.1869680  88.6421800   5.8141950  61.9654840  94.4402090
   6.3320620  61.1623100  94.3858980   5.3625970  61.9033980  95.2818920
  10.7011450  63.2321120  89.7129390  11.0427150  63.9763350  89.2172710
   9.8724160  63.5452240  90.0754220   3.2986490  58.9316210 101.3527790
   2.9401430  59.5970060 101.9401130   3.0041050  58.0999760 101.7240410
   6.4999610  59.3900450 104.2367340   6.1999750  59.5357630 103.3395160
   7.2710850  58.8305740 104.1440730  11.8428060  64.1869450 102.2322470
  11.8572600  63.2550410 102.0141380  11.1353160  64.2729210 102.8712240
  16.9765130  58.3709270  88.5021080  16.8928850  58.8023490  87.6517520
  17.6959320  58.8307620  88.9347900  18.0539270  60.8276790 101.5791050
  17.3287460  61.4205570 101.3820440  18.5814730  60.8200330 100.7804420
  13.5838860  62.5536960  95.0774900  13.9362680  61.9565090  94.4176270
  12.7001190  62.2281190  95.2483150   9.6702140  63.3134650  92.4845310
  10.3573270  63.8603860  92.8652900   8.8834560  63.8575380  92.5194920
   8.9729350  60.3180680  92.0970670   9.4292130  61.1285930  92.3230860
   8.6217560  60.0003820  92.9289160  11.2761960  65.8287020  99.3262970
  11.9204180  66.0346400 100.0036390  11.6391400  65.0675420  98.8733820
   4.8741130  50.6618330  92.5693190   4.7455760  50.6536230  93.5178110
   4.0503150  51.0001420  92.2184200  12.5494040  63.8319370  98.0440420
  13.1916270  63.1312530  98.1572590  13.0743390  64.6117810  97.8637310
  16.3949760  64.1167990  87.7679560  16.1687340  63.3998430  88.3604200
  16.0045960  63.8680430  86.9301310  14.3231660  64.6314270 101.2476480
  14.6587900  65.2180960 101.9254400  13.4032000  64.5006980 101.4774270
   2.1765790  68.1434850  88.5424020   2.5363430  68.7424190  87.8881290
   2.0358130  68.6894740  89.3159050  15.9766010  62.0339930  89.4293720
  15.6887710  62.4952620  90.2171600  16.7718180  61.5737700  89.6977940
  10.1520240  64.6805600 104.4164540   9.8317110  63.9614840 104.9610230
   9.4778600  65.3560670 104.4900600   8.1934410  65.5266050  89.3597690
   8.1844510  66.2595740  88.7442200   7.2732770  65.2797630  89.4524650
   3.7941050  60.7480940  90.1044450   3.1869000  61.4879840  90.1139750
   4.2690400  60.8380300  89.2782650  13.3673840  54.9131760  99.7801340
  13.7354660  54.0926970 100.1080910  12.5072040  54.9733650 100.1956990
  16.7335870  53.8688700  90.5888900  16.1049030  53.9734370  89.8747130
  16.2387790  54.0885480  91.3782780  11.1794010  65.5894290  88.0222880
  11.2805990  65.3858280  87.0924860  10.2795750  65.3352570  88.2270660
   8.7019900  56.1474650  92.0046780   7.9936050  56.6160990  92.4460390
   8.9864380  55.4896660  92.6391970  10.3275830  57.5671350 100.0039310
  10.8261080  58.0417170 100.6691160  10.4698780  56.6434870 100.2109340
  12.7335330  52.8725310  93.4442570  12.6103110  52.8911440  92.4952080
  13.6819890  52.9204250  93.5640970   9.8212120  68.1080610  92.7170550
  10.0753620  68.0702000  91.7949920   8.8724600  67.9813940  92.7098800
   6.9054920  54.4559730  89.3797490   7.7545450  54.8929880  89.3137680
   6.5386190  54.7679990  90.2069550  17.5342690  53.7839310 100.8467700
  17.0316290  54.5244710 101.1861510  18.3499350  54.1723310 100.5304490
  15.8264700  59.0272490  94.2929060  14.8854840  59.0422720  94.4676750
  16.1408770  58.2408450  94.7389360   5.8046340  60.7092090  87.8533020
   6.5709610  60.5973450  88.4158450   5.8821030  60.0130060  87.2009790
   4.4993100  58.1417160  88.5365910   4.5796690  57.1944670  88.6483310
   5.3912850  58.4724040  88.6426570  17.8290280  66.1981340  95.9683320
  17.9537700  67.0212510  96.4407130  18.6955840  65.9872070  95.6207470
   5.3007810  68.2912550  95.6400450   6.0370290  67.7428010  95.9109020
   5.6848730  69.1568560  95.5006440   4.3066090  67.4758620 104.8286030
   5.1078820  67.7970670 105.2421430   3.7917910  67.1154200 105.5505940
   8.4110120  67.4642860  87.4626020   9.2038730  67.7531690  87.0107810
   7.8914470  67.0335030  86.7838500  13.1430720  63.5838490 104.7761440
  12.5368880  63.6070090 104.0357190  12.8384830  62.8521530 105.3128690
  14.5731090  67.3118780 103.3870850  15.5252840  67.2276800 103.3371090
  14.4259310  67.9760490 104.0604640   8.9287520  62.6846270  87.3268370
   8.8238160  62.0698620  88.0529750   8.7611740  62.1612160  86.5431380
   9.0801840  61.3703070 103.3057600   8.3147510  61.9388070 103.2212270
   9.2617800  61.0779280 102.4125830  12.1690250  61.7466300  87.9310360
  11.6200350  62.1935600  88.5753100  12.7909510  61.2415550  88.4548030
  16.2225190  63.1008400 103.8632620  16.9634660  63.4384160 103.3600080
  15.4597870  63.2700460 103.3102390   4.0586980  58.1061670 104.6672150
   4.0992320  57.8075540 105.5757380   4.9132480  58.5069280 104.5079670
   7.8365370  60.7057220  89.8275660   8.2581790  60.5397090  90.6707050
   7.9616210  59.8957450  89.3330800   5.9992790  56.6853770 102.6346640
   5.4689250  56.1944720 102.0069980   6.6680860  57.1137970 102.1004570
  10.3493010  59.7294830  87.0752760  10.8698670  59.0143850  86.7093910
  10.9961410  60.3680700  87.3753270  14.8970850  61.1523230 102.3987830
  15.3111870  61.3068310 103.2478250  13.9621850  61.2778450 102.5613610
  15.3693020  58.4919390 104.4026980  15.9513790  57.7371710 104.3147460
  15.5454790  59.0226830 103.6258460   6.4865090  53.6516140 102.7143930
   6.3921960  53.0336890 101.9894800   5.9062480  54.3782430 102.4873840
   9.2526530  52.2089380  99.7471320   8.8043830  52.2313640  98.9016870
   8.6191730  51.8108400 100.3441620   9.6586080  61.1043710 100.3683760
  10.0774190  61.9476440 100.1960000   8.7394710  61.2415750 100.1390540
  11.9949980  58.8359890 101.7521600  12.1146190  58.2401030 102.4916440
  12.8543980  58.8729580 101.3322900  14.3337880  59.3897080 100.3284110
  13.8073100  59.9139700  99.7249250  14.6769220  60.0224470 100.9593840
   6.7324270  56.7790450  86.7733820   6.5313330  55.9157810  87.1347160
   6.5616320  56.6923810  85.8355420   7.5093500  67.4096720 101.4841490
   6.9714590  68.1342780 101.1650190   7.7627460  66.9327060 100.6938830
   8.7618750  55.3781240 103.0097420   9.3518440  55.0697090 103.6975240
   7.9438990  54.9060990 103.1657320  13.5812180  54.9947050 103.2430440
  12.8927700  54.3328590 103.1780430  14.3018200  54.5485320 103.6878900
  14.2112580  51.5898680  89.3020700  14.4914870  50.7466580  89.6580120
  13.4378310  51.8221790  89.8159450   5.5307070  53.8791070  86.7611700
   5.8332970  53.8858500  85.8530850   6.2701660  53.5288930  87.2579360
  10.3655710  68.6447930 101.7428140  10.2914410  69.5483070 102.0500510
   9.4634550  68.3259830 101.7150210   8.7492000  52.8225690  87.7467900
   8.4014000  52.1449680  87.1670350   8.9504770  52.3615200  88.5611290
  10.9141040  67.8106440  89.3654500  11.8091830  68.1491410  89.3873260
  10.9458670  67.0885850  88.7378780   4.5537200  63.1833490  87.5941500
   4.9912070  63.7263160  88.2499080   5.0384930  62.3580440  87.6037840
   1.7683000  65.9722520  95.0461760   2.0986010  65.1043580  94.8140400
   2.1974000  66.1781040  95.8766720   6.3644920  64.3031530  92.7063730
   6.0640460  64.1796500  93.6067640   6.2582410  63.4440120  92.2979460
   2.2573210  66.8393110  97.7843390   1.8204200  67.0193910  98.6167540
   2.8250890  67.5967730  97.6425110  17.8935390  66.3410110 102.0720700
  17.2937380  66.4002670 101.3284620  18.0229290  65.4015090 102.2017550
  19.1336840  64.0827930  87.4090410  18.3029800  64.1504580  87.8797640
  19.3108670  64.9732050  87.1057270  18.5893300  60.8275410  89.9124610
  19.3512210  61.3972060  90.0184300  18.6047670  60.2602610  90.6832920
  19.5953270  61.6825510  94.7566540  19.9662100  60.8992830  94.3502510
  20.2355200  62.3714610  94.5783840  16.5787030  63.0662090 100.1696860
  15.7646870  63.4959250 100.4322650  16.9861230  63.6780500  99.5565910
  18.6412470  61.1209780  87.0697130  18.9161310  62.0288660  86.9416350
  18.4523210  61.0572310  88.0059120  15.0388080  54.1454630  88.3650760
  15.4572960  53.9585610  87.5247420  14.7324140  53.2933680  88.6753690
  18.5377810  59.0578770  92.0626560  18.1621410  58.2906700  91.6307850
  17.8080930  59.4401470  92.5501490   3.1273570  59.7365910  98.6835610
   3.4946610  59.6493310  99.5631630   2.5584390  58.9732460  98.5842470
  17.9277430  58.2050290 101.6966080  17.6963520  57.9763040 100.7964030
  18.1881980  59.1249840 101.6510970   2.6789570  56.6475000 102.5894030
   1.7845620  56.6141760 102.9287740   3.2187120  56.8461790 103.3545280
  16.3665500  53.4306720 104.4745780  17.2435680  53.4390120 104.8579780
  16.3786340  52.6937560 103.8638130  17.8128770  57.2836260  95.3633800
  18.3366250  56.7898910  94.7323970  18.3988190  57.4186620  96.1081370
  17.9918490  57.3676130  98.8853350  17.0421200  57.3339670  98.9998340
  18.1731500  58.2776240  98.6503120   3.8462930  55.6177810  87.9951980
   4.5554630  55.1961030  87.5099260   3.1302870  55.6853040  87.3635330
   3.4937090  51.6717140  87.0354630   4.2165220  52.2126080  87.3535850
   3.7661610  51.3980560  86.1596170  17.3028740  56.5409610  91.3026210
  17.7987860  56.3080480  92.0875090  17.1044810  55.7021450  90.8863850
   3.1829280  50.9223330  96.9377250   3.8305470  50.3720710  96.4972410
   3.6031120  51.1766480  97.7593060  17.0781620  51.1164690 100.2946890
  17.7153840  51.7298830 100.6606080  17.2256510  51.1525350  99.3496120
  19.6206170  53.0078480  87.0770030  20.5455480  52.8759660  86.8688320
  19.5981960  53.0871300  88.0306480   2.9361280  51.0779000  99.6802570
   2.5876100  51.5342820 100.4460750   2.6048980  50.1836130  99.7625000
   4.5425650  64.2498600 103.8455760   4.4995280  63.8791510 104.7270220
   4.6736660  65.1876170 103.9857580   8.2431680  65.8058190  99.4465480
   8.0023040  66.0732750  98.5596000   9.1834320  65.9763920  99.5016340
  10.4486100  52.2690880 103.2021990  10.3874990  52.8612710 103.9517400
  11.3886480  52.1616840 103.0572250  13.0860660  51.9260940 102.8414280
  13.7001070  52.2440230 102.1795360  13.6310220  51.4409530 103.4610140
  19.5035840  67.8252570 100.2476120  19.0094120  68.2221440  99.5303250
  18.8949130  67.2001780 100.6413400   3.6081920  50.6055200 102.9553340
   4.1564910  50.4243250 102.1919450   3.6737230  49.8149310 103.4909650
   4.3813680  67.1960850 100.9653540   3.7874000  67.0645550 101.7043580
   4.3737520  66.3598990 100.4995640  13.8268700  50.4893080  99.1683570
  12.9528540  50.8228190  98.9656500  13.7179450  50.0166260  99.9935440
  14.7340680  52.6963950 100.5525290  14.4054040  51.8815710 100.1727020
  15.6822980  52.6533760 100.4290980  17.1875290  68.4675990  97.5262860
  16.7278260  69.2191800  97.1520880  16.5587750  67.7482460  97.4677660
   4.0125910  64.5619230  99.9161580   3.2859970  63.9424520  99.8487530
   4.0735060  64.9559840  99.0459660   7.6171010  66.7764230  96.7010990
   8.1336030  66.1651590  96.1759250   8.2668390  67.2793010  97.1922000
  10.3566510  67.6672720  97.5279970  10.6444320  67.4127020  96.6512980
  10.8689730  67.1150080  98.1185540  11.5743520  51.4062920  98.1076480
  10.7915310  51.8808420  98.3873240  11.2806450  50.5017750  97.9989660
  16.1264590  52.1086020  96.1525570  16.5672680  52.0531120  95.3047170
  15.8572180  53.0244030  96.2235750  17.9903160  51.7401260  94.1634390
  17.9291560  50.7962480  94.0165410  18.7695190  51.8481350  94.7087850
   2.9183930  51.7110400  90.6290200   3.6763290  51.8239280  90.0554230
   2.4561100  52.5479600  90.5833630   9.4597740  53.8249670  93.6192510
   8.6472250  53.4506560  93.2788390   9.9639380  53.0694750  93.9213700
  13.9622720  50.4892120  94.8575580  14.5652090  51.0612330  95.3324100
  13.2215710  51.0531560  94.6349480  17.1057320  50.8913680  90.1315860
  17.3007950  51.7897130  90.3983290  16.3187190  50.6600760  90.6248810
   3.9018610  66.5726850  90.5708480   3.3766230  66.9534880  89.8670440
   3.8263190  67.1977620  91.2918190   5.2909080  52.2374450  89.1692170
   5.8201840  51.4504250  89.0400120   5.9237400  52.9165640  89.4027700
   7.4846920  51.9749590  92.2237560   6.8549660  51.2736900  92.3907690
   6.9452060  52.7353720  92.0070720  10.4238870  68.5888820 104.8948170
  11.3506180  68.3533090 104.9384130  10.4089300  69.4160820 104.4134200
   7.6102480  51.2533570 104.6590050   7.3286750  51.7567170 103.8950870
   7.9922180  50.4555320 104.2932180   6.5011580  68.5209230  89.4457730
   7.2330400  68.2368510  88.8981620   6.7605250  68.2822510  90.3357110
   5.6626370  64.6373960  89.4504060   5.0335250  65.1059060  89.9989890
   5.7774200  63.7923180  89.8850250  14.2117940  50.6687150 105.2370520
  14.0983390  50.9881760 106.1322040  15.0287680  51.0699660 104.9407800
  16.9916430  67.8158680 104.7189210  17.7841750  67.3207910 104.5115170
  17.2849580  68.4948820 105.3264820  13.1176090  58.6879620  75.6005260
  13.0370140  57.7734230  75.3296970  12.7040510  59.1846690  74.8944970
  11.2494130  60.4658640  77.4814530  10.4736230  59.9859080  77.7713100
  11.9007060  59.7864290  77.3070690   5.2659960  60.7778450  78.3590290
   4.4344840  60.5227160  78.7586800   5.8740940  60.8489220  79.0948210
   5.2461220  64.8118540  78.5548310   5.5489260  63.9216280  78.3758530
   5.9904810  65.3688760  78.3270560   3.6751910  55.7380340  72.1432680
   2.7868610  56.0796310  72.0412560   3.9593100  55.5380660  71.2513510
  11.4964870  67.1576840  75.8817650  10.8776310  67.6134340  75.3112090
  12.3516650  67.3128300  75.4807350  10.6903120  63.1415830  77.4884690
  10.6211400  62.2005770  77.3273820  11.4522980  63.2317240  78.0607260
   2.8809790  53.7470350  79.8141310   2.7012630  52.8496100  80.0944070
   2.4789870  54.2942220  80.4888260  11.7208290  55.9486210  77.7153620
  12.0973110  55.0758090  77.6027290  11.6227800  56.2844910  76.8244060
   5.8513300  54.3211840  73.1771060   5.9580050  55.2215570  73.4839820
   4.9405660  54.2729810  72.8865710  15.5032410  53.4436650  74.6481960
  16.3242030  52.9533220  74.6907440  15.5366490  54.0334310  75.4013800
   3.4996460  56.2430850  78.4223650   4.1806570  56.5069220  79.0411050
   3.1844510  55.4031720  78.7561660   7.6921030  57.2898210  77.5096240
   8.1999250  57.7879180  78.1501260   8.2234270  56.5133410  77.3335600
  19.7931960  55.4603400  81.2125590  19.0884130  55.8485110  80.6940700
  20.0589880  56.1553690  81.8146520   5.9757130  51.9296770  81.7759660
   5.9775570  52.4469160  80.9705560   5.1461440  51.4526950  81.7529590
  12.3628220  62.0416080  73.2749560  11.7445490  62.5065530  72.7112280
  12.8751470  62.7343560  73.6919070   7.2259980  61.5691950  79.9533160
   6.8929360  62.1960870  80.5954230   7.4026660  62.0953830  79.1734830
  15.7393890  55.3837030  77.4209500  15.0349460  55.6721920  78.0012610
  16.1006050  56.1937140  77.0609060   5.6572460  53.6406730  79.7830110
   5.9989270  54.4848780  79.4883980   4.7188270  53.7890470  79.8995450
   6.4379080  63.5372750  81.7682340   7.0553080  64.2123830  81.4866790
   5.5772200  63.9460730  81.6769840  18.8080810  54.8291820  77.8118710
  17.8605720  54.8630800  77.9434140  19.1330800  55.6430770  78.1968070
   9.3400350  51.1289000  76.1074700   9.6475330  50.5735890  75.3910200
   8.4101050  51.2633460  75.9247690  14.8915410  66.8456290  78.3982160
  14.9042570  66.4418580  77.5304420  14.3390630  67.6203580  78.2943590
  14.2900850  61.7486130  79.7264770  14.7069640  61.5346240  78.8918230
  15.0140670  62.0058920  80.2973390  11.7281110  59.1937830  72.8434820
  10.8010390  59.1275210  73.0723290  11.8805930  60.1317960  72.7290060
  11.7150190  55.4654830  69.8401980  10.7753860  55.6268790  69.9254440
  12.0333450  56.1840510  69.2937970  18.2362950  60.1473350  79.8181010
  17.4081580  60.2166440  79.3431140  18.8313430  60.7327660  79.3496840
  15.2004960  56.9342670  80.7635880  14.7876140  57.7596380  81.0175870
  14.4680910  56.3487710  80.5712240   7.3337750  59.7202570  75.6254550
   6.9294750  59.0079820  75.1300450   7.4200870  59.3755810  76.5142590
   7.8019450  63.4070130  77.7893760   7.5047740  62.8015600  77.1101540
   8.7519270  63.4447440  77.6783120   6.0466370  56.4945780  79.4053590
   6.5980960  56.6041120  78.6306840   6.5609880  56.8683380  80.1208820
  15.8905060  66.9802000  81.4516860  15.4135620  67.7874190  81.2589470
  15.2066850  66.3280330  81.6043070   6.8937880  63.1451820  84.4401560
   5.9966410  63.3691790  84.6874960   6.9190750  63.2686760  83.4912960
   5.7209100  60.0165140  83.0158930   5.5816870  60.8887940  83.3846330
   4.8390460  59.6737950  82.8706870  12.0438480  64.9341010  74.3224060
  12.4834390  65.6765340  73.9079450  11.9825370  65.1767580  75.2463020
   7.5189450  65.9586840  85.2244080   7.4904880  66.3629790  84.3572510
   7.3554420  65.0297200  85.0615680  17.5160240  51.2487750  68.6683860
  17.2032900  51.3414580  69.5682930  18.2772710  51.8268780  68.6181290
   4.0342380  58.6147550  73.1261200   3.9139980  59.3409640  72.5142470
   3.7243270  57.8450460  72.6489110   2.9175380  63.4862880  75.3436020
   2.5103460  63.6277470  74.4889620   3.8088390  63.2023040  75.1407230
  18.8737520  63.9326790  83.6808260  19.0000580  63.6938670  82.7625440
  18.9158900  63.1011330  84.1530340  12.7354260  67.6354790  82.2503070
  13.2498930  67.5462800  83.0525500  11.8923340  67.9814490  82.5430980
  14.7108660  67.9210130  71.6787070  14.5509800  67.6313070  72.5768900
  14.5455370  67.1450260  71.1432300   7.1897040  67.7008660  73.4558690
   7.0139520  66.7844200  73.2426490   6.3352780  68.0595950  73.6956490
  14.4134790  65.4297690  70.2385070  13.7199950  65.4274980  69.5787350
  15.1557650  65.0057010  69.8079240  13.9784720  67.0560400  74.3133560
  14.4341670  66.2749780  74.6272180  14.3177240  67.7667220  74.8574740
  18.7261530  55.9859250  84.6458000  18.1105800  56.4938920  84.1173460
  18.4057950  55.0857580  84.5883940   6.5006040  51.9582620  76.5084870
   6.0574190  52.7392160  76.1769390   7.0591030  52.2812510  77.2155810
  10.7875850  54.8251140  82.1120190  10.3255220  55.0334160  82.9240130
  10.3853960  54.0110490  81.8090860  15.7880360  56.0460090  83.2416850
  14.9373950  55.7465840  83.5625920  15.6282150  56.2902100  82.3300670
  12.8830070  57.5461840  85.3415640  13.2083480  56.7125590  85.0017870
  13.6710400  58.0690360  85.4893970   9.6164860  51.5793320  71.3890700
   8.9919040  51.5753190  72.1144010   9.5294980  50.7124280  70.9926670
   8.5381940  52.5029950  78.3674470   8.8354270  53.4092780  78.2866490
   9.0867500  52.0148730  77.7534040   6.2920260  57.0816190  74.2366120
   6.0661180  56.8653360  75.1412740   5.5112790  57.5144650  73.8912090
  13.5218020  57.0879560  72.8356770  12.9226910  57.8115360  72.6520390
  14.0697630  57.0256340  72.0533220   8.7319470  57.9801770  84.9026390
   8.6363070  57.0396500  84.7526790   9.5751450  58.2016840  84.5074460
  12.1282890  55.7243100  74.8660050  12.5212460  56.0415300  74.0528740
  12.4899740  54.8454980  74.9804570   3.8630010  54.3915440  83.0560170
   3.4693400  55.2390650  83.2632950   3.1748410  53.7541810  83.2468810
  10.4375060  54.4750410  86.1256910   9.7473380  54.2822610  86.7603000
  11.1807360  54.7585050  86.6581210  12.7138030  58.3148850  78.9610830
  11.9819150  58.8235660  79.3100930  12.3162370  57.4978830  78.6599610
   9.1515420  54.9903050  77.3663320   9.1551480  54.5493000  76.5167860
  10.0466540  55.3120380  77.4735140   5.0017800  54.8729540  76.3257530
   4.6617850  55.3504770  77.0824580   4.2395120  54.4194660  75.9658630
   9.2135570  55.9915130  70.3570080   9.3348390  55.9501610  71.3055900
   8.8284080  56.8539280  70.2016810  13.1763940  53.7682530  78.3733770
  13.1936680  54.2191180  79.2175620  12.9279520  52.8688170  78.5867210
   8.2257070  58.3016270  69.7553380   7.6573970  57.8534520  69.1289290
   8.9346070  58.6609050  69.2218530  16.6034690  51.1814710  84.2120150
  16.9280460  50.4504370  84.7378130  16.6391200  50.8628350  83.3101140
   3.3026250  62.2028290  83.6320110   2.9181040  61.5621960  84.2303070
   3.6138440  62.9064410  84.2014840   9.4523390  59.0504830  79.1128730
   9.8193520  58.5763400  79.8590070   9.2628450  59.9246400  79.4537070
   2.3163880  53.7948520  75.2422200   2.0310800  53.4304190  76.0800820
   2.2542740  53.0628980  74.6285340   7.2422760  58.0913470  81.4312940
   6.9379830  58.9705450  81.6563300   8.1969220  58.1513260  81.4670380
   5.7704550  62.2974460  72.0279790   4.9966810  61.7572080  71.8678510
   6.4999180  61.7781070  71.6897550  11.9902470  52.6877780  71.9635570
  11.1767080  52.1890950  71.8880880  11.7964420  53.5276030  71.5471920
  11.9111330  61.3648880  83.7075180  11.8448640  60.4444550  83.4532770
  11.2816470  61.4624320  84.4219820  14.7050860  57.0597430  70.2597730
  15.5930480  57.3714660  70.0849070  14.6755950  56.1869680  69.8678310
   5.8141950  61.9654840  75.6658600   6.3320620  61.1623100  75.6115490
   5.3625970  61.9033980  76.5075430  10.7011450  63.2321120  70.9385900
  11.0427150  63.9763350  70.4429220   9.8724160  63.5452240  71.3010730
   3.2986490  58.9316210  82.5784300   2.9401430  59.5970060  83.1657640
   3.0041050  58.0999760  82.9496920   6.4999610  59.3900450  85.4623850
   6.1999750  59.5357630  84.5651670   7.2710850  58.8305740  85.3697240
  11.8428060  64.1869450  83.4578980  11.8572600  63.2550410  83.2397890
  11.1353160  64.2729210  84.0968750  18.0539270  60.8276790  82.8047560
  17.3287460  61.4205570  82.6076950  18.5814730  60.8200330  82.0060930
  13.5838860  62.5536960  76.3031410  13.9362680  61.9565090  75.6432780
  12.7001190  62.2281190  76.4739660   9.6702140  63.3134650  73.7101820
  10.3573270  63.8603860  74.0909410   8.8834560  63.8575380  73.7451430
   8.9729350  60.3180680  73.3227180   9.4292130  61.1285930  73.5487370
   8.6217560  60.0003820  74.1545670  11.2761960  65.8287020  80.5519480
  11.9204180  66.0346400  81.2292900  11.6391400  65.0675420  80.0990330
   4.8741130  50.6618330  73.7949700   4.7455760  50.6536230  74.7434620
   4.0503150  51.0001420  73.4440710  12.5494040  63.8319370  79.2696930
  13.1916270  63.1312530  79.3829100  13.0743390  64.6117810  79.0893820
  14.3231660  64.6314270  82.4732990  14.6587900  65.2180960  83.1510910
  13.4032000  64.5006980  82.7030780   2.1765790  68.1434850  69.7680530
   2.5363430  68.7424190  69.1137800   2.0358130  68.6894740  70.5415560
  10.1520240  64.6805600  85.6421050   9.8317110  63.9614840  86.1866740
   9.4778600  65.3560670  85.7157110   8.1934410  65.5266050  70.5854200
   8.1844510  66.2595740  69.9698710   7.2732770  65.2797630  70.6781160
   3.7941050  60.7480940  71.3300960   3.1869000  61.4879840  71.3396260
   4.2690400  60.8380300  70.5039160  13.3673840  54.9131760  81.0057850
  13.7354660  54.0926970  81.3337420  12.5072040  54.9733650  81.4213500
  16.7335870  53.8688700  71.8145410  16.1049030  53.9734370  71.1003640
  16.2387790  54.0885480  72.6039290  11.1794010  65.5894290  69.2479390
  11.2805990  65.3858280  68.3181370  10.2795750  65.3352570  69.4527170
   8.7019900  56.1474650  73.2303290   7.9936050  56.6160990  73.6716900
   8.9864380  55.4896660  73.8648480  10.3275830  57.5671350  81.2295820
  10.8261080  58.0417170  81.8947670  10.4698780  56.6434870  81.4365850
  12.7335330  52.8725310  74.6699080  12.6103110  52.8911440  73.7208590
  13.6819890  52.9204250  74.7897480   9.8212120  68.1080610  73.9427060
  10.0753620  68.0702000  73.0206430   8.8724600  67.9813940  73.9355310
   6.9054920  54.4559730  70.6054000   7.7545450  54.8929880  70.5394190
   6.5386190  54.7679990  71.4326060  17.5342690  53.7839310  82.0724210
  17.0316290  54.5244710  82.4118020  18.3499350  54.1723310  81.7561000
  15.8264700  59.0272490  75.5185570  14.8854840  59.0422720  75.6933260
  16.1408770  58.2408450  75.9645870   5.8046340  60.7092090  69.0789530
   6.5709610  60.5973450  69.6414960   5.8821030  60.0130060  68.4266300
   4.4993100  58.1417160  69.7622420   4.5796690  57.1944670  69.8739820
   5.3912850  58.4724040  69.8683080   5.3007810  68.2912550  76.8656960
   6.0370290  67.7428010  77.1365530   5.6848730  69.1568560  76.7262950
   4.3066090  67.4758620  86.0542540   5.1078820  67.7970670  86.4677940
   3.7917910  67.1154200  86.7762450   8.4110120  67.4642860  68.6882530
   9.2038730  67.7531690  68.2364320   7.8914470  67.0335030  68.0095010
  13.1430720  63.5838490  86.0017950  12.5368880  63.6070090  85.2613700
  12.8384830  62.8521530  86.5385200  17.4640290  66.6912990  70.1119270
  17.1781800  66.2778130  69.2973450  17.2659840  67.6200700  69.9919790
   8.9287520  62.6846270  68.5524880   8.8238160  62.0698620  69.2786260
   8.7611740  62.1612160  67.7687890   9.0801840  61.3703070  84.5314110
   8.3147510  61.9388070  84.4468780   9.2617800  61.0779280  83.6382340
  12.1690250  61.7466300  69.1566870  11.6200350  62.1935600  69.8009610
  12.7909510  61.2415550  69.6804540  16.2225190  63.1008400  85.0889130
  16.9634660  63.4384160  84.5856590  15.4597870  63.2700460  84.5358900
   4.0586980  58.1061670  85.8928660   4.0992320  57.8075540  86.8013890
   4.9132480  58.5069280  85.7336180   7.8365370  60.7057220  71.0532170
   8.2581790  60.5397090  71.8963560   7.9616210  59.8957450  70.5587310
   5.9992790  56.6853770  83.8603150   5.4689250  56.1944720  83.2326490
   6.6680860  57.1137970  83.3261080  10.3493010  59.7294830  68.3009270
  10.8698670  59.0143850  67.9350420  10.9961410  60.3680700  68.6009780
  14.8970850  61.1523230  83.6244340  15.3111870  61.3068310  84.4734760
  13.9621850  61.2778450  83.7870120  15.3693020  58.4919390  85.6283490
  15.9513790  57.7371710  85.5403970  15.5454790  59.0226830  84.8514970
   6.4865090  53.6516140  83.9400440   6.3921960  53.0336890  83.2151310
   5.9062480  54.3782430  83.7130350   9.2526530  52.2089380  80.9727830
   8.8043830  52.2313640  80.1273380   8.6191730  51.8108400  81.5698130
   9.6586080  61.1043710  81.5940270  10.0774190  61.9476440  81.4216510
   8.7394710  61.2415750  81.3647050  11.9949980  58.8359890  82.9778110
  12.1146190  58.2401030  83.7172950  12.8543980  58.8729580  82.5579410
  14.3337880  59.3897080  81.5540620  13.8073100  59.9139700  80.9505760
  14.6769220  60.0224470  82.1850350   6.7324270  56.7790450  67.9990330
   6.5313330  55.9157810  68.3603670   6.5616320  56.6923810  67.0611930
   7.5093500  67.4096720  82.7098000   6.9714590  68.1342780  82.3906700
   7.7627460  66.9327060  81.9195340   8.7618750  55.3781240  84.2353930
   9.3518440  55.0697090  84.9231750   7.9438990  54.9060990  84.3913830
  13.5812180  54.9947050  84.4686950  12.8927700  54.3328590  84.4036940
  14.3018200  54.5485320  84.9135410  14.2112580  51.5898680  70.5277210
  14.4914870  50.7466580  70.8836630  13.4378310  51.8221790  71.0415960
   5.5307070  53.8791070  67.9868210   5.8332970  53.8858500  67.0787360
   6.2701660  53.5288930  68.4835870  10.3655710  68.6447930  82.9684650
  10.2914410  69.5483070  83.2757020   9.4634550  68.3259830  82.9406720
   8.7492000  52.8225690  68.9724410   8.4014000  52.1449680  68.3926860
   8.9504770  52.3615200  69.7867800  10.9141040  67.8106440  70.5911010
  11.8091830  68.1491410  70.6129770  10.9458670  67.0885850  69.9635290
   4.5537200  63.1833490  68.8198010   4.9912070  63.7263160  69.4755590
   5.0384930  62.3580440  68.8294350   1.7683000  65.9722520  76.2718270
   2.0986010  65.1043580  76.0396910   2.1974000  66.1781040  77.1023230
   6.3644920  64.3031530  73.9320240   6.0640460  64.1796500  74.8324150
   6.2582410  63.4440120  73.5235970   2.2573210  66.8393110  79.0099900
   1.8204200  67.0193910  79.8424050   2.8250890  67.5967730  78.8681620
  17.8935390  66.3410110  83.2977210  17.2937380  66.4002670  82.5541130
  18.0229290  65.4015090  83.4274060  19.5953270  61.6825510  75.9823050
  19.9662100  60.8992830  75.5759020  20.2355200  62.3714610  75.8040350
  16.5787030  63.0662090  81.3953370  15.7646870  63.4959250  81.6579160
  16.9861230  63.6780500  80.7822420  15.0388080  54.1454630  69.5907270
  15.4572960  53.9585610  68.7503930  14.7324140  53.2933680  69.9010200
   3.1273570  59.7365910  79.9092120   3.4946610  59.6493310  80.7888140
   2.5584390  58.9732460  79.8098980  17.9277430  58.2050290  82.9222590
  17.6963520  57.9763040  82.0220540  18.1881980  59.1249840  82.8767480
   2.6789570  56.6475000  83.8150540   1.7845620  56.6141760  84.1544250
   3.2187120  56.8461790  84.5801790  16.3665500  53.4306720  85.7002290
  17.2435680  53.4390120  86.0836290  16.3786340  52.6937560  85.0894640
  17.8128770  57.2836260  76.5890310  18.3366250  56.7898910  75.9580480
  18.3988190  57.4186620  77.3337880  17.9918490  57.3676130  80.1109860
  17.0421200  57.3339670  80.2254850  18.1731500  58.2776240  79.8759630
   3.8462930  55.6177810  69.2208490   4.5554630  55.1961030  68.7355770
   3.1302870  55.6853040  68.5891840   3.4937090  51.6717140  68.2611140
   4.2165220  52.2126080  68.5792360   3.7661610  51.3980560  67.3852680
  17.3028740  56.5409610  72.5282720  17.7987860  56.3080480  73.3131600
  17.1044810  55.7021450  72.1120360   3.1829280  50.9223330  78.1633760
   3.8305470  50.3720710  77.7228920   3.6031120  51.1766480  78.9849570
  18.7315900  55.1770560  75.0620400  18.6215180  55.0226600  76.0002670
  19.4923490  54.6491500  74.8195810  17.0781620  51.1164690  81.5203400
  17.7153840  51.7298830  81.8862590  17.2256510  51.1525350  80.5752630
  16.6363080  67.8180690  74.9221640  17.2322150  67.4965260  74.2456060
  16.8941230  67.3452510  75.7134910   2.9361280  51.0779000  80.9059080
   2.5876100  51.5342820  81.6717260   2.6048980  50.1836130  80.9881510
   4.5425650  64.2498600  85.0712270   4.4995280  63.8791510  85.9526730
   4.6736660  65.1876170  85.2114090   8.2431680  65.8058190  80.6721990
   8.0023040  66.0732750  79.7852510   9.1834320  65.9763920  80.7272850
  10.4486100  52.2690880  84.4278500  10.3874990  52.8612710  85.1773910
  11.3886480  52.1616840  84.2828760  13.0860660  51.9260940  84.0670790
  13.7001070  52.2440230  83.4051870  13.6310220  51.4409530  84.6866650
  19.5035840  67.8252570  81.4732630  19.0094120  68.2221440  80.7559760
  18.8949130  67.2001780  81.8669910   3.6081920  50.6055200  84.1809850
   4.1564910  50.4243250  83.4175960   3.6737230  49.8149310  84.7166160
   4.3813680  67.1960850  82.1910050   3.7874000  67.0645550  82.9300090
   4.3737520  66.3598990  81.7252150  13.8268700  50.4893080  80.3940080
  12.9528540  50.8228190  80.1913010  13.7179450  50.0166260  81.2191950
  14.7340680  52.6963950  81.7781800  14.4054040  51.8815710  81.3983530
  15.6822980  52.6533760  81.6547490  17.1875290  68.4675990  78.7519370
  16.7278260  69.2191800  78.3777390  16.5587750  67.7482460  78.6934170
   4.0125910  64.5619230  81.1418090   3.2859970  63.9424520  81.0744040
   4.0735060  64.9559840  80.2716170   7.6171010  66.7764230  77.9267500
   8.1336030  66.1651590  77.4015760   8.2668390  67.2793010  78.4178510
  10.3566510  67.6672720  78.7536480  10.6444320  67.4127020  77.8769490
  10.8689730  67.1150080  79.3442050  11.5743520  51.4062920  79.3332990
  10.7915310  51.8808420  79.6129750  11.2806450  50.5017750  79.2246170
  16.1264590  52.1086020  77.3782080  16.5672680  52.0531120  76.5303680
  15.8572180  53.0244030  77.4492260  17.9903160  51.7401260  75.3890900
  17.9291560  50.7962480  75.2421920  18.7695190  51.8481350  75.9344360
   2.9183930  51.7110400  71.8546710   3.6763290  51.8239280  71.2810740
   2.4561100  52.5479600  71.8090140   9.4597740  53.8249670  74.8449020
   8.6472250  53.4506560  74.5044900   9.9639380  53.0694750  75.1470210
  13.9622720  50.4892120  76.0832090  14.5652090  51.0612330  76.5580610
  13.2215710  51.0531560  75.8605990  17.1057320  50.8913680  71.3572370
  17.3007950  51.7897130  71.6239800  16.3187190  50.6600760  71.8505320
   3.9018610  66.5726850  71.7964990   3.3766230  66.9534880  71.0926950
   3.8263190  67.1977620  72.5174700   5.2909080  52.2374450  70.3948680
   5.8201840  51.4504250  70.2656630   5.9237400  52.9165640  70.6284210
   7.4846920  51.9749590  73.4494070   6.8549660  51.2736900  73.6164200
   6.9452060  52.7353720  73.2327230  10.4238870  68.5888820  86.1204680
  11.3506180  68.3533090  86.1640640  10.4089300  69.4160820  85.6390710
  18.6583930  68.1314390  73.1178930  18.8336120  67.4452130  72.4739850
  17.9605500  68.6561440  72.7255600   7.6102480  51.2533570  85.8846560
   7.3286750  51.7567170  85.1207380   7.9922180  50.4555320  85.5188690
   6.5011580  68.5209230  70.6714240   7.2330400  68.2368510  70.1238130
   6.7605250  68.2822510  71.5613620   5.6626370  64.6373960  70.6760570
   5.0335250  65.1059060  71.2246400   5.7774200  63.7923180  71.1106760
  14.2117940  50.6687150  86.4627030  14.0983390  50.9881760  87.3578550
  15.0287680  51.0699660  86.1664310  13.1176090  58.6879620  56.8261770
  13.0370140  57.7734230  56.5553480  12.7040510  59.1846690  56.1201480
  11.2494130  60.4658640  58.7071040  10.4736230  59.9859080  58.9969610
  11.9007060  59.7864290  58.5327200   5.2659960  60.7778450  59.5846800
   4.4344840  60.5227160  59.9843310   5.8740940  60.8489220  60.3204720
  15.2701560  64.8718830  57.4870170  14.8083090  64.1006070  57.8157340
  16.0827110  64.8984900  57.9922620   5.2461220  64.8118540  59.7804820
   5.5489260  63.9216280  59.6015040   5.9904810  65.3688760  59.5527070
   3.6751910  55.7380340  53.3689190   2.7868610  56.0796310  53.2669070
   3.9593100  55.5380660  52.4770020  11.4964870  67.1576840  57.1074160
  10.8776310  67.6134340  56.5368600  12.3516650  67.3128300  56.7063860
  10.6903120  63.1415830  58.7141200  10.6211400  62.2005770  58.5530330
  11.4522980  63.2317240  59.2863770   2.8809790  53.7470350  61.0397820
   2.7012630  52.8496100  61.3200580   2.4789870  54.2942220  61.7144770
  11.7208290  55.9486210  58.9410130  12.0973110  55.0758090  58.8283800
  11.6227800  56.2844910  58.0500570   5.8513300  54.3211840  54.4027570
   5.9580050  55.2215570  54.7096330   4.9405660  54.2729810  54.1122220
  15.5032410  53.4436650  55.8738470  16.3242030  52.9533220  55.9163950
  15.5366490  54.0334310  56.6270310   3.4996460  56.2430850  59.6480160
   4.1806570  56.5069220  60.2667560   3.1844510  55.4031720  59.9818170
   7.6921030  57.2898210  58.7352750   8.1999250  57.7879180  59.3757770
   8.2234270  56.5133410  58.5592110  19.7931960  55.4603400  62.4382100
  19.0884130  55.8485110  61.9197210  20.0589880  56.1553690  63.0403030
   5.9757130  51.9296770  63.0016170   5.9775570  52.4469160  62.1962070
   5.1461440  51.4526950  62.9786100  12.3628220  62.0416080  54.5006070
  11.7445490  62.5065530  53.9368790  12.8751470  62.7343560  54.9175580
   7.2259980  61.5691950  61.1789670   6.8929360  62.1960870  61.8210740
   7.4026660  62.0953830  60.3991340  15.7393890  55.3837030  58.6466010
  15.0349460  55.6721920  59.2269120  16.1006050  56.1937140  58.2865570
   5.6572460  53.6406730  61.0086620   5.9989270  54.4848780  60.7140490
   4.7188270  53.7890470  61.1251960   6.4379080  63.5372750  62.9938850
   7.0553080  64.2123830  62.7123300   5.5772200  63.9460730  62.9026350
  17.3556670  65.0012160  60.9093490  16.6720190  65.6711270  60.9010160
  17.8950960  65.1992810  60.1438350  18.8080810  54.8291820  59.0375220
  17.8605720  54.8630800  59.1690650  19.1330800  55.6430770  59.4224580
   9.3400350  51.1289000  57.3331210   9.6475330  50.5735890  56.6166710
   8.4101050  51.2633460  57.1504200  14.8915410  66.8456290  59.6238670
  14.9042570  66.4418580  58.7560930  14.3390630  67.6203580  59.5200100
  14.2900850  61.7486130  60.9521280  14.7069640  61.5346240  60.1174740
  15.0140670  62.0058920  61.5229900  11.7281110  59.1937830  54.0691330
  10.8010390  59.1275210  54.2979800  11.8805930  60.1317960  53.9546570
  11.7150190  55.4654830  51.0658490  10.7753860  55.6268790  51.1510950
  12.0333450  56.1840510  50.5194480  18.2362950  60.1473350  61.0437520
  17.4081580  60.2166440  60.5687650  18.8313430  60.7327660  60.5753350
  15.2004960  56.9342670  61.9892390  14.7876140  57.7596380  62.2432380
  14.4680910  56.3487710  61.7968750   7.3337750  59.7202570  56.8511060
   6.9294750  59.0079820  56.3556960   7.4200870  59.3755810  57.7399100
   7.8019450  63.4070130  59.0150270   7.5047740  62.8015600  58.3358050
   8.7519270  63.4447440  58.9039630   6.0466370  56.4945780  60.6310100
   6.5980960  56.6041120  59.8563350   6.5609880  56.8683380  61.3465330
  15.8905060  66.9802000  62.6773370  15.4135620  67.7874190  62.4845980
  15.2066850  66.3280330  62.8299580   6.8937880  63.1451820  65.6658070
   5.9966410  63.3691790  65.9131470   6.9190750  63.2686760  64.7169470
  13.9343100  59.9944940  51.5799330  14.3736380  59.1567370  51.4337150
  14.6471520  60.6274340  51.6663470   5.7209100  60.0165140  64.2415440
   5.5816870  60.8887940  64.6102840   4.8390460  59.6737950  64.0963380
  12.0438480  64.9341010  55.5480570  12.4834390  65.6765340  55.1335960
  11.9825370  65.1767580  56.4719530   7.5189450  65.9586840  66.4500590
   7.4904880  66.3629790  65.5829020   7.3554420  65.0297200  66.2872190
  17.5160240  51.2487750  49.8940370  17.2032900  51.3414580  50.7939440
  18.2772710  51.8268780  49.8437800   4.0342380  58.6147550  54.3517710
   3.9139980  59.3409640  53.7398980   3.7243270  57.8450460  53.8745620
  19.4704270  66.7413940  67.7464760  19.9463990  67.2196830  68.4253840
  20.0911430  66.6731430  67.0210260   2.9175380  63.4862880  56.5692530
   2.5103460  63.6277470  55.7146130   3.8088390  63.2023040  56.3663740
  18.8737520  63.9326790  64.9064770  19.0000580  63.6938670  63.9881950
  18.9158900  63.1011330  65.3786850  12.7354260  67.6354790  63.4759580
  13.2498930  67.5462800  64.2782010  11.8923340  67.9814490  63.7687490
  14.7108660  67.9210130  52.9043580  14.5509800  67.6313070  53.8025410
  14.5455370  67.1450260  52.3688810   7.1897040  67.7008660  54.6815200
   7.0139520  66.7844200  54.4683000   6.3352780  68.0595950  54.9213000
  14.4134790  65.4297690  51.4641580  13.7199950  65.4274980  50.8043860
  15.1557650  65.0057010  51.0335750  13.9784720  67.0560400  55.5390070
  14.4341670  66.2749780  55.8528690  14.3177240  67.7667220  56.0831250
   6.5006040  51.9582620  57.7341380   6.0574190  52.7392160  57.4025900
   7.0591030  52.2812510  58.4412320  10.7875850  54.8251140  63.3376700
  10.3255220  55.0334160  64.1496640  10.3853960  54.0110490  63.0347370
  15.7880360  56.0460090  64.4673360  14.9373950  55.7465840  64.7882430
  15.6282150  56.2902100  63.5557180  12.8830070  57.5461840  66.5672150
  13.2083480  56.7125590  66.2274380  13.6710400  58.0690360  66.7150480
   9.6164860  51.5793320  52.6147210   8.9919040  51.5753190  53.3400520
   9.5294980  50.7124280  52.2183180   8.5381940  52.5029950  59.5930980
   8.8354270  53.4092780  59.5123000   9.0867500  52.0148730  58.9790550
   6.2920260  57.0816190  55.4622630   6.0661180  56.8653360  56.3669250
   5.5112790  57.5144650  55.1168600  13.5218020  57.0879560  54.0613280
  12.9226910  57.8115360  53.8776900  14.0697630  57.0256340  53.2789730
   8.7319470  57.9801770  66.1282900   8.6363070  57.0396500  65.9783300
   9.5751450  58.2016840  65.7330970  12.1282890  55.7243100  56.0916560
  12.5212460  56.0415300  55.2785250  12.4899740  54.8454980  56.2061080
   3.8630010  54.3915440  64.2816680   3.4693400  55.2390650  64.4889460
   3.1748410  53.7541810  64.4725320  10.4375060  54.4750410  67.3513420
   9.7473380  54.2822610  67.9859510  11.1807360  54.7585050  67.8837720
  12.7138030  58.3148850  60.1867340  11.9819150  58.8235660  60.5357440
  12.3162370  57.4978830  59.8856120   9.1515420  54.9903050  58.5919830
   9.1551480  54.5493000  57.7424370  10.0466540  55.3120380  58.6991650
   5.0017800  54.8729540  57.5514040   4.6617850  55.3504770  58.3081090
   4.2395120  54.4194660  57.1915140   9.2135570  55.9915130  51.5826590
   9.3348390  55.9501610  52.5312410   8.8284080  56.8539280  51.4273320
  13.1763940  53.7682530  59.5990280  13.1936680  54.2191180  60.4432130
  12.9279520  52.8688170  59.8123720   8.2257070  58.3016270  50.9809890
   7.6573970  57.8534520  50.3545800   8.9346070  58.6609050  50.4475040
  16.6034690  51.1814710  65.4376660  16.9280460  50.4504370  65.9634640
  16.6391200  50.8628350  64.5357650   3.3026250  62.2028290  64.8576620
   2.9181040  61.5621960  65.4559580   3.6138440  62.9064410  65.4271350
   9.4523390  59.0504830  60.3385240   9.8193520  58.5763400  61.0846580
   9.2628450  59.9246400  60.6793580   2.3163880  53.7948520  56.4678710
   2.0310800  53.4304190  57.3057330   2.2542740  53.0628980  55.8541850
   7.2422760  58.0913470  62.6569450   6.9379830  58.9705450  62.8819810
   8.1969220  58.1513260  62.6926890   5.7704550  62.2974460  53.2536300
   4.9966810  61.7572080  53.0935020   6.4999180  61.7781070  52.9154060
  16.5292530  61.2939820  59.0462690  17.2491650  61.7895110  58.6558800
  16.3274350  60.6157710  58.4016560  11.9902470  52.6877780  53.1892080
  11.1767080  52.1890950  53.1137390  11.7964420  53.5276030  52.7728430
  11.9111330  61.3648880  64.9331690  11.8448640  60.4444550  64.6789280
  11.2816470  61.4624320  65.6476330  14.7050860  57.0597430  51.4854240
  15.5930480  57.3714660  51.3105580  14.6755950  56.1869680  51.0934820
   5.8141950  61.9654840  56.8915110   6.3320620  61.1623100  56.8372000
   5.3625970  61.9033980  57.7331940  10.7011450  63.2321120  52.1642410
  11.0427150  63.9763350  51.6685730   9.8724160  63.5452240  52.5267240
   3.2986490  58.9316210  63.8040810   2.9401430  59.5970060  64.3914150
   3.0041050  58.0999760  64.1753430   6.4999610  59.3900450  66.6880360
   6.1999750  59.5357630  65.7908180   7.2710850  58.8305740  66.5953750
  11.8428060  64.1869450  64.6835490  11.8572600  63.2550410  64.4654400
  11.1353160  64.2729210  65.3225260  16.9765130  58.3709270  50.9534100
  16.8928850  58.8023490  50.1030540  17.6959320  58.8307620  51.3860920
  18.0539270  60.8276790  64.0304070  17.3287460  61.4205570  63.8333460
  18.5814730  60.8200330  63.2317440  13.5838860  62.5536960  57.5287920
  13.9362680  61.9565090  56.8689290  12.7001190  62.2281190  57.6996170
   9.6702140  63.3134650  54.9358330  10.3573270  63.8603860  55.3165920
   8.8834560  63.8575380  54.9707940   8.9729350  60.3180680  54.5483690
   9.4292130  61.1285930  54.7743880   8.6217560  60.0003820  55.3802180
  11.2761960  65.8287020  61.7775990  11.9204180  66.0346400  62.4549410
  11.6391400  65.0675420  61.3246840   4.8741130  50.6618330  55.0206210
   4.7455760  50.6536230  55.9691130   4.0503150  51.0001420  54.6697220
  12.5494040  63.8319370  60.4953440  13.1916270  63.1312530  60.6085610
  13.0743390  64.6117810  60.3150330  16.3949760  64.1167990  50.2192580
  16.1687340  63.3998430  50.8117220  16.0045960  63.8680430  49.3814330
  14.3231660  64.6314270  63.6989500  14.6587900  65.2180960  64.3767420
  13.4032000  64.5006980  63.9287290   2.1765790  68.1434850  50.9937040
   2.5363430  68.7424190  50.3394310   2.0358130  68.6894740  51.7672070
  10.1520240  64.6805600  66.8677560   9.8317110  63.9614840  67.4123250
   9.4778600  65.3560670  66.9413620   8.1934410  65.5266050  51.8110710
   8.1844510  66.2595740  51.1955220   7.2732770  65.2797630  51.9037670
   3.7941050  60.7480940  52.5557470   3.1869000  61.4879840  52.5652770
   4.2690400  60.8380300  51.7295670  13.3673840  54.9131760  62.2314360
  13.7354660  54.0926970  62.5593930  12.5072040  54.9733650  62.6470010
  16.7335870  53.8688700  53.0401920  16.1049030  53.9734370  52.3260150
  16.2387790  54.0885480  53.8295800  11.1794010  65.5894290  50.4735900
  11.2805990  65.3858280  49.5437880  10.2795750  65.3352570  50.6783680
   8.7019900  56.1474650  54.4559800   7.9936050  56.6160990  54.8973410
   8.9864380  55.4896660  55.0904990  10.3275830  57.5671350  62.4552330
  10.8261080  58.0417170  63.1204180  10.4698780  56.6434870  62.6622360
  12.7335330  52.8725310  55.8955590  12.6103110  52.8911440  54.9465100
  13.6819890  52.9204250  56.0153990   9.8212120  68.1080610  55.1683570
  10.0753620  68.0702000  54.2462940   8.8724600  67.9813940  55.1611820
   6.9054920  54.4559730  51.8310510   7.7545450  54.8929880  51.7650700
   6.5386190  54.7679990  52.6582570  17.5342690  53.7839310  63.2980720
  17.0316290  54.5244710  63.6374530  18.3499350  54.1723310  62.9817510
  15.8264700  59.0272490  56.7442080  14.8854840  59.0422720  56.9189770
  16.1408770  58.2408450  57.1902380   5.8046340  60.7092090  50.3046040
   6.5709610  60.5973450  50.8671470   5.8821030  60.0130060  49.6522810
   4.4993100  58.1417160  50.9878930   4.5796690  57.1944670  51.0996330
   5.3912850  58.4724040  51.0939590   5.3007810  68.2912550  58.0913470
   6.0370290  67.7428010  58.3622040   5.6848730  69.1568560  57.9519460
   4.3066090  67.4758620  67.2799050   5.1078820  67.7970670  67.6934450
   3.7917910  67.1154200  68.0018960   8.4110120  67.4642860  49.9139040
   9.2038730  67.7531690  49.4620830   7.8914470  67.0335030  49.2351520
  14.5731090  67.3118780  65.8383870  15.5252840  67.2276800  65.7884110
  14.4259310  67.9760490  66.5117660  17.4640290  66.6912990  51.3375780
  17.1781800  66.2778130  50.5229960  17.2659840  67.6200700  51.2176300
   8.9287520  62.6846270  49.7781390   8.8238160  62.0698620  50.5042770
   8.7611740  62.1612160  48.9944400   9.0801840  61.3703070  65.7570620
   8.3147510  61.9388070  65.6725290   9.2617800  61.0779280  64.8638850
  12.1690250  61.7466300  50.3823380  11.6200350  62.1935600  51.0266120
  12.7909510  61.2415550  50.9061050   4.0586980  58.1061670  67.1185170
   4.0992320  57.8075540  68.0270400   4.9132480  58.5069280  66.9592690
   7.8365370  60.7057220  52.2788680   8.2581790  60.5397090  53.1220070
   7.9616210  59.8957450  51.7843820   5.9992790  56.6853770  65.0859660
   5.4689250  56.1944720  64.4583000   6.6680860  57.1137970  64.5517590
  10.3493010  59.7294830  49.5265780  10.8698670  59.0143850  49.1606930
  10.9961410  60.3680700  49.8266290  15.3693020  58.4919390  66.8540000
  15.9513790  57.7371710  66.7660480  15.5454790  59.0226830  66.0771480
   6.4865090  53.6516140  65.1656950   6.3921960  53.0336890  64.4407820
   5.9062480  54.3782430  64.9386860   9.2526530  52.2089380  62.1984340
   8.8043830  52.2313640  61.3529890   8.6191730  51.8108400  62.7954640
   9.6586080  61.1043710  62.8196780  10.0774190  61.9476440  62.6473020
   8.7394710  61.2415750  62.5903560  11.9949980  58.8359890  64.2034620
  12.1146190  58.2401030  64.9429460  12.8543980  58.8729580  63.7835920
  14.3337880  59.3897080  62.7797130  13.8073100  59.9139700  62.1762270
  14.6769220  60.0224470  63.4106860   6.7324270  56.7790450  49.2246840
   6.5313330  55.9157810  49.5860180   6.5616320  56.6923810  48.2868440
   7.5093500  67.4096720  63.9354510   6.9714590  68.1342780  63.6163210
   7.7627460  66.9327060  63.1451850   8.7618750  55.3781240  65.4610440
   9.3518440  55.0697090  66.1488260   7.9438990  54.9060990  65.6170340
  13.5812180  54.9947050  65.6943460  12.8927700  54.3328590  65.6293450
  14.3018200  54.5485320  66.1391920  14.2112580  51.5898680  51.7533720
  14.4914870  50.7466580  52.1093140  13.4378310  51.8221790  52.2672470
   5.5307070  53.8791070  49.2124720   5.8332970  53.8858500  48.3043870
   6.2701660  53.5288930  49.7092380  10.3655710  68.6447930  64.1941160
  10.2914410  69.5483070  64.5013530   9.4634550  68.3259830  64.1663230
   8.7492000  52.8225690  50.1980920   8.4014000  52.1449680  49.6183370
   8.9504770  52.3615200  51.0124310  10.9141040  67.8106440  51.8167520
  11.8091830  68.1491410  51.8386280  10.9458670  67.0885850  51.1891800
   4.5537200  63.1833490  50.0454520   4.9912070  63.7263160  50.7012100
   5.0384930  62.3580440  50.0550860   1.7683000  65.9722520  57.4974780
   2.0986010  65.1043580  57.2653420   2.1974000  66.1781040  58.3279740
   6.3644920  64.3031530  55.1576750   6.0640460  64.1796500  56.0580660
   6.2582410  63.4440120  54.7492480   2.2573210  66.8393110  60.2356410
   1.8204200  67.0193910  61.0680560   2.8250890  67.5967730  60.0938130
  17.8935390  66.3410110  64.5233720  17.2937380  66.4002670  63.7797640
  18.0229290  65.4015090  64.6530570  16.5787030  63.0662090  62.6209880
  15.7646870  63.4959250  62.8835670  16.9861230  63.6780500  62.0078930
  15.0388080  54.1454630  50.8163780  15.4572960  53.9585610  49.9760440
  14.7324140  53.2933680  51.1266710   3.1273570  59.7365910  61.1348630
   3.4946610  59.6493310  62.0144650   2.5584390  58.9732460  61.0355490
   2.6789570  56.6475000  65.0407050   1.7845620  56.6141760  65.3800760
   3.2187120  56.8461790  65.8058300  17.9918490  57.3676130  61.3366370
  17.0421200  57.3339670  61.4511360  18.1731500  58.2776240  61.1016140
   3.8462930  55.6177810  50.4465000   4.5554630  55.1961030  49.9612280
   3.1302870  55.6853040  49.8148350   3.4937090  51.6717140  49.4867650
   4.2165220  52.2126080  49.8048870   3.7661610  51.3980560  48.6109190
  17.3028740  56.5409610  53.7539230  17.7987860  56.3080480  54.5388110
  17.1044810  55.7021450  53.3376870   3.1829280  50.9223330  59.3890270
   3.8305470  50.3720710  58.9485430   3.6031120  51.1766480  60.2106080
  18.7315900  55.1770560  56.2876910  18.6215180  55.0226600  57.2259180
  19.4923490  54.6491500  56.0452320  17.0781620  51.1164690  62.7459910
  17.7153840  51.7298830  63.1119100  17.2256510  51.1525350  61.8009140
  19.6206170  53.0078480  49.5283050  20.5455480  52.8759660  49.3201340
  19.5981960  53.0871300  50.4819500  19.6944660  53.7789140  52.1539760
  18.8996160  53.7134260  52.6832670  19.8987940  54.7139780  52.1425110
  16.6363080  67.8180690  56.1478150  17.2322150  67.4965260  55.4712570
  16.8941230  67.3452510  56.9391420   2.9361280  51.0779000  62.1315590
   2.5876100  51.5342820  62.8973770   2.6048980  50.1836130  62.2138020
   4.5425650  64.2498600  66.2968780   4.4995280  63.8791510  67.1783240
   4.6736660  65.1876170  66.4370600   8.2431680  65.8058190  61.8978500
   8.0023040  66.0732750  61.0109020   9.1834320  65.9763920  61.9529360
  10.4486100  52.2690880  65.6535010  10.3874990  52.8612710  66.4030420
  11.3886480  52.1616840  65.5085270  13.0860660  51.9260940  65.2927300
  13.7001070  52.2440230  64.6308380  13.6310220  51.4409530  65.9123160
  19.5035840  67.8252570  62.6989140  19.0094120  68.2221440  61.9816270
  18.8949130  67.2001780  63.0926420   3.6081920  50.6055200  65.4066360
   4.1564910  50.4243250  64.6432470   3.6737230  49.8149310  65.9422670
   4.3813680  67.1960850  63.4166560   3.7874000  67.0645550  64.1556600
   4.3737520  66.3598990  62.9508660  13.8268700  50.4893080  61.6196590
  12.9528540  50.8228190  61.4169520  13.7179450  50.0166260  62.4448460
  14.7340680  52.6963950  63.0038310  14.4054040  51.8815710  62.6240040
  15.6822980  52.6533760  62.8804000  17.1875290  68.4675990  59.9775880
  16.7278260  69.2191800  59.6033900  16.5587750  67.7482460  59.9190680
   4.0125910  64.5619230  62.3674600   3.2859970  63.9424520  62.3000550
   4.0735060  64.9559840  61.4972680   7.6171010  66.7764230  59.1524010
   8.1336030  66.1651590  58.6272270   8.2668390  67.2793010  59.6435020
  10.3566510  67.6672720  59.9792990  10.6444320  67.4127020  59.1026000
  10.8689730  67.1150080  60.5698560  11.5743520  51.4062920  60.5589500
  10.7915310  51.8808420  60.8386260  11.2806450  50.5017750  60.4502680
  16.1264590  52.1086020  58.6038590  16.5672680  52.0531120  57.7560190
  15.8572180  53.0244030  58.6748770  17.9903160  51.7401260  56.6147410
  17.9291560  50.7962480  56.4678430  18.7695190  51.8481350  57.1600870
   2.9183930  51.7110400  53.0803220   3.6763290  51.8239280  52.5067250
   2.4561100  52.5479600  53.0346650   9.4597740  53.8249670  56.0705530
   8.6472250  53.4506560  55.7301410   9.9639380  53.0694750  56.3726720
  13.9622720  50.4892120  57.3088600  14.5652090  51.0612330  57.7837120
  13.2215710  51.0531560  57.0862500  17.1057320  50.8913680  52.5828880
  17.3007950  51.7897130  52.8496310  16.3187190  50.6600760  53.0761830
   3.9018610  66.5726850  53.0221500   3.3766230  66.9534880  52.3183460
   3.8263190  67.1977620  53.7431210   5.2909080  52.2374450  51.6205190
   5.8201840  51.4504250  51.4913140   5.9237400  52.9165640  51.8540720
   7.4846920  51.9749590  54.6750580   6.8549660  51.2736900  54.8420710
   6.9452060  52.7353720  54.4583740  10.4238870  68.5888820  67.3461190
  11.3506180  68.3533090  67.3897150  10.4089300  69.4160820  66.8647220
   7.6102480  51.2533570  67.1103070   7.3286750  51.7567170  66.3463890
   7.9922180  50.4555320  66.7445200   6.5011580  68.5209230  51.8970750
   7.2330400  68.2368510  51.3494640   6.7605250  68.2822510  52.7870130
   5.6626370  64.6373960  51.9017080   5.0335250  65.1059060  52.4502910
   5.7774200  63.7923180  52.3363270  14.2117940  50.6687150  67.6883540
  14.0983390  50.9881760  68.5835060  15.0287680  51.0699660  67.3920820
  16.9916430  67.8158680  67.1702230  17.7841750  67.3207910  66.9628190
  17.2849580  68.4948820  67.7777840  13.1176090  58.6879620  38.0518280
  13.0370140  57.7734230  37.7809990  12.7040510  59.1846690  37.3457990
  11.2494130  60.4658640  39.9327550  10.4736230  59.9859080  40.2226120
  11.9007060  59.7864290  39.7583710   5.2659960  60.7778450  40.8103310
   4.4344840  60.5227160  41.2099820   5.8740940  60.8489220  41.5461230
  15.2701560  64.8718830  38.7126680  14.8083090  64.1006070  39.0413850
  16.0827110  64.8984900  39.2179130   5.2461220  64.8118540  41.0061330
   5.5489260  63.9216280  40.8271550   5.9904810  65.3688760  40.7783580
   3.6751910  55.7380340  34.5945700   2.7868610  56.0796310  34.4925580
   3.9593100  55.5380660  33.7026530  11.4964870  67.1576840  38.3330670
  10.8776310  67.6134340  37.7625110  12.3516650  67.3128300  37.9320370
  10.6903120  63.1415830  39.9397710  10.6211400  62.2005770  39.7786840
  11.4522980  63.2317240  40.5120280   2.8809790  53.7470350  42.2654330
   2.7012630  52.8496100  42.5457090   2.4789870  54.2942220  42.9401280
  11.7208290  55.9486210  40.1666640  12.0973110  55.0758090  40.0540310
  11.6227800  56.2844910  39.2757080   5.8513300  54.3211840  35.6284080
   5.9580050  55.2215570  35.9352840   4.9405660  54.2729810  35.3378730
  15.5032410  53.4436650  37.0994980  16.3242030  52.9533220  37.1420460
  15.5366490  54.0334310  37.8526820   3.4996460  56.2430850  40.8736670
   4.1806570  56.5069220  41.4924070   3.1844510  55.4031720  41.2074680
   7.6921030  57.2898210  39.9609260   8.1999250  57.7879180  40.6014280
   8.2234270  56.5133410  39.7848620  19.7931960  55.4603400  43.6638610
  19.0884130  55.8485110  43.1453720  20.0589880  56.1553690  44.2659540
   5.9757130  51.9296770  44.2272680   5.9775570  52.4469160  43.4218580
   5.1461440  51.4526950  44.2042610  12.3628220  62.0416080  35.7262580
  11.7445490  62.5065530  35.1625300  12.8751470  62.7343560  36.1432090
   7.2259980  61.5691950  42.4046180   6.8929360  62.1960870  43.0467250
   7.4026660  62.0953830  41.6247850  15.7393890  55.3837030  39.8722520
  15.0349460  55.6721920  40.4525630  16.1006050  56.1937140  39.5122080
   5.6572460  53.6406730  42.2343130   5.9989270  54.4848780  41.9397000
   4.7188270  53.7890470  42.3508470   6.4379080  63.5372750  44.2195360
   7.0553080  64.2123830  43.9379810   5.5772200  63.9460730  44.1282860
  17.3556670  65.0012160  42.1350000  16.6720190  65.6711270  42.1266670
  17.8950960  65.1992810  41.3694860  18.8080810  54.8291820  40.2631730
  17.8605720  54.8630800  40.3947160  19.1330800  55.6430770  40.6481090
   9.3400350  51.1289000  38.5587720   9.6475330  50.5735890  37.8423220
   8.4101050  51.2633460  38.3760710  14.8915410  66.8456290  40.8495180
  14.9042570  66.4418580  39.9817440  14.3390630  67.6203580  40.7456610
  16.1860830  63.5672510  35.9385350  16.0757160  62.6246840  36.0634770
  16.1829080  63.9288150  36.8248110  14.2900850  61.7486130  42.1777790
  14.7069640  61.5346240  41.3431250  15.0140670  62.0058920  42.7486410
  11.7281110  59.1937830  35.2947840  10.8010390  59.1275210  35.5236310
  11.8805930  60.1317960  35.1803080  11.7150190  55.4654830  32.2915000
  10.7753860  55.6268790  32.3767460  12.0333450  56.1840510  31.7450990
  18.2362950  60.1473350  42.2694030  17.4081580  60.2166440  41.7944160
  18.8313430  60.7327660  41.8009860  15.7578400  60.7558130  35.7983090
  15.1390820  60.4177680  35.1509390  15.7402850  60.1117890  36.5062280
  15.2004960  56.9342670  43.2148900  14.7876140  57.7596380  43.4688890
  14.4680910  56.3487710  43.0225260   7.3337750  59.7202570  38.0767570
   6.9294750  59.0079820  37.5813470   7.4200870  59.3755810  38.9655610
   7.8019450  63.4070130  40.2406780   7.5047740  62.8015600  39.5614560
   8.7519270  63.4447440  40.1296140   6.0466370  56.4945780  41.8566610
   6.5980960  56.6041120  41.0819860   6.5609880  56.8683380  42.5721840
  15.8905060  66.9802000  43.9029880  15.4135620  67.7874190  43.7102490
  15.2066850  66.3280330  44.0556090   6.8937880  63.1451820  46.8914580
   5.9966410  63.3691790  47.1387980   6.9190750  63.2686760  45.9425980
  13.9343100  59.9944940  32.8055840  14.3736380  59.1567370  32.6593660
  14.6471520  60.6274340  32.8919980   5.7209100  60.0165140  45.4671950
   5.5816870  60.8887940  45.8359350   4.8390460  59.6737950  45.3219890
  12.0438480  64.9341010  36.7737080  12.4834390  65.6765340  36.3592470
  11.9825370  65.1767580  37.6976040   7.5189450  65.9586840  47.6757100
   7.4904880  66.3629790  46.8085530   7.3554420  65.0297200  47.5128700
  17.5160240  51.2487750  31.1196880  17.2032900  51.3414580  32.0195950
  18.2772710  51.8268780  31.0694310   4.0342380  58.6147550  35.5774220
   3.9139980  59.3409640  34.9655490   3.7243270  57.8450460  35.1002130
   2.9175380  63.4862880  37.7949040   2.5103460  63.6277470  36.9402640
   3.8088390  63.2023040  37.5920250  18.8737520  63.9326790  46.1321280
  19.0000580  63.6938670  45.2138460  18.9158900  63.1011330  46.6043360
  12.7354260  67.6354790  44.7016090  13.2498930  67.5462800  45.5038520
  11.8923340  67.9814490  44.9944000  14.7108660  67.9210130  34.1300090
  14.5509800  67.6313070  35.0281920  14.5455370  67.1450260  33.5945320
   7.1897040  67.7008660  35.9071710   7.0139520  66.7844200  35.6939510
   6.3352780  68.0595950  36.1469510  14.4134790  65.4297690  32.6898090
  13.7199950  65.4274980  32.0300370  15.1557650  65.0057010  32.2592260
  13.9784720  67.0560400  36.7646580  14.4341670  66.2749780  37.0785200
  14.3177240  67.7667220  37.3087760  18.7261530  55.9859250  47.0971020
  18.1105800  56.4938920  46.5686480  18.4057950  55.0857580  47.0396960
   6.5006040  51.9582620  38.9597890   6.0574190  52.7392160  38.6282410
   7.0591030  52.2812510  39.6668830  10.7875850  54.8251140  44.5633210
  10.3255220  55.0334160  45.3753150  10.3853960  54.0110490  44.2603880
  15.7880360  56.0460090  45.6929870  14.9373950  55.7465840  46.0138940
  15.6282150  56.2902100  44.7813690  12.8830070  57.5461840  47.7928660
  13.2083480  56.7125590  47.4530890  13.6710400  58.0690360  47.9406990
   9.6164860  51.5793320  33.8403720   8.9919040  51.5753190  34.5657030
   9.5294980  50.7124280  33.4439690   8.5381940  52.5029950  40.8187490
   8.8354270  53.4092780  40.7379510   9.0867500  52.0148730  40.2047060
   6.2920260  57.0816190  36.6879140   6.0661180  56.8653360  37.5925760
   5.5112790  57.5144650  36.3425110  13.5218020  57.0879560  35.2869790
  12.9226910  57.8115360  35.1033410  14.0697630  57.0256340  34.5046240
   8.7319470  57.9801770  47.3539410   8.6363070  57.0396500  47.2039810
   9.5751450  58.2016840  46.9587480  12.1282890  55.7243100  37.3173070
  12.5212460  56.0415300  36.5041760  12.4899740  54.8454980  37.4317590
   3.8630010  54.3915440  45.5073190   3.4693400  55.2390650  45.7145970
   3.1748410  53.7541810  45.6981830  10.4375060  54.4750410  48.5769930
   9.7473380  54.2822610  49.2116020  11.1807360  54.7585050  49.1094230
  12.7138030  58.3148850  41.4123850  11.9819150  58.8235660  41.7613950
  12.3162370  57.4978830  41.1112630   9.1515420  54.9903050  39.8176340
   9.1551480  54.5493000  38.9680880  10.0466540  55.3120380  39.9248160
   5.0017800  54.8729540  38.7770550   4.6617850  55.3504770  39.5337600
   4.2395120  54.4194660  38.4171650   9.2135570  55.9915130  32.8083100
   9.3348390  55.9501610  33.7568920   8.8284080  56.8539280  32.6529830
  13.1763940  53.7682530  40.8246790  13.1936680  54.2191180  41.6688640
  12.9279520  52.8688170  41.0380230   8.2257070  58.3016270  32.2066400
   7.6573970  57.8534520  31.5802310   8.9346070  58.6609050  31.6731550
  16.6034690  51.1814710  46.6633170  16.9280460  50.4504370  47.1891150
  16.6391200  50.8628350  45.7614160   3.3026250  62.2028290  46.0833130
   2.9181040  61.5621960  46.6816090   3.6138440  62.9064410  46.6527860
   9.4523390  59.0504830  41.5641750   9.8193520  58.5763400  42.3103090
   9.2628450  59.9246400  41.9050090   2.3163880  53.7948520  37.6935220
   2.0310800  53.4304190  38.5313840   2.2542740  53.0628980  37.0798360
   7.2422760  58.0913470  43.8825960   6.9379830  58.9705450  44.1076320
   8.1969220  58.1513260  43.9183400   5.7704550  62.2974460  34.4792810
   4.9966810  61.7572080  34.3191530   6.4999180  61.7781070  34.1410570
  16.5292530  61.2939820  40.2719200  17.2491650  61.7895110  39.8815310
  16.3274350  60.6157710  39.6273070  11.9902470  52.6877780  34.4148590
  11.1767080  52.1890950  34.3393900  11.7964420  53.5276030  33.9984940
  11.9111330  61.3648880  46.1588200  11.8448640  60.4444550  45.9045790
  11.2816470  61.4624320  46.8732840  14.7050860  57.0597430  32.7110750
  15.5930480  57.3714660  32.5362090  14.6755950  56.1869680  32.3191330
   5.8141950  61.9654840  38.1171620   6.3320620  61.1623100  38.0628510
   5.3625970  61.9033980  38.9588450  10.7011450  63.2321120  33.3898920
  11.0427150  63.9763350  32.8942240   9.8724160  63.5452240  33.7523750
   3.2986490  58.9316210  45.0297320   2.9401430  59.5970060  45.6170660
   3.0041050  58.0999760  45.4009940   6.4999610  59.3900450  47.9136870
   6.1999750  59.5357630  47.0164690   7.2710850  58.8305740  47.8210260
  11.8428060  64.1869450  45.9092000  11.8572600  63.2550410  45.6910910
  11.1353160  64.2729210  46.5481770  16.9765130  58.3709270  32.1790610
  16.8928850  58.8023490  31.3287050  17.6959320  58.8307620  32.6117430
  18.0539270  60.8276790  45.2560580  17.3287460  61.4205570  45.0589970
  18.5814730  60.8200330  44.4573950  18.0052380  65.2251530  34.9072740
  17.3628540  64.5707150  35.1816460  17.6183040  65.6306620  34.1313410
  13.5838860  62.5536960  38.7544430  13.9362680  61.9565090  38.0945800
  12.7001190  62.2281190  38.9252680   9.6702140  63.3134650  36.1614840
  10.3573270  63.8603860  36.5422430   8.8834560  63.8575380  36.1964450
   8.9729350  60.3180680  35.7740200   9.4292130  61.1285930  36.0000390
   8.6217560  60.0003820  36.6058690  11.2761960  65.8287020  43.0032500
  11.9204180  66.0346400  43.6805920  11.6391400  65.0675420  42.5503350
   4.8741130  50.6618330  36.2462720   4.7455760  50.6536230  37.1947640
   4.0503150  51.0001420  35.8953730  12.5494040  63.8319370  41.7209950
  13.1916270  63.1312530  41.8342120  13.0743390  64.6117810  41.5406840
  16.3949760  64.1167990  31.4449090  16.1687340  63.3998430  32.0373730
  16.0045960  63.8680430  30.6070840  14.3231660  64.6314270  44.9246010
  14.6587900  65.2180960  45.6023930  13.4032000  64.5006980  45.1543800
   2.1765790  68.1434850  32.2193550   2.5363430  68.7424190  31.5650820
   2.0358130  68.6894740  32.9928580  15.9766010  62.0339930  33.1063250
  15.6887710  62.4952620  33.8941130  16.7718180  61.5737700  33.3747470
  10.1520240  64.6805600  48.0934070   9.8317110  63.9614840  48.6379760
   9.4778600  65.3560670  48.1670130   8.1934410  65.5266050  33.0367220
   8.1844510  66.2595740  32.4211730   7.2732770  65.2797630  33.1294180
   3.7941050  60.7480940  33.7813980   3.1869000  61.4879840  33.7909280
   4.2690400  60.8380300  32.9552180  13.3673840  54.9131760  43.4570870
  13.7354660  54.0926970  43.7850440  12.5072040  54.9733650  43.8726520
  16.7335870  53.8688700  34.2658430  16.1049030  53.9734370  33.5516660
  16.2387790  54.0885480  35.0552310  11.1794010  65.5894290  31.6992410
  11.2805990  65.3858280  30.7694390  10.2795750  65.3352570  31.9040190
   8.7019900  56.1474650  35.6816310   7.9936050  56.6160990  36.1229920
   8.9864380  55.4896660  36.3161500  10.3275830  57.5671350  43.6808840
  10.8261080  58.0417170  44.3460690  10.4698780  56.6434870  43.8878870
  12.7335330  52.8725310  37.1212100  12.6103110  52.8911440  36.1721610
  13.6819890  52.9204250  37.2410500   9.8212120  68.1080610  36.3940080
  10.0753620  68.0702000  35.4719450   8.8724600  67.9813940  36.3868330
   6.9054920  54.4559730  33.0567020   7.7545450  54.8929880  32.9907210
   6.5386190  54.7679990  33.8839080  17.5342690  53.7839310  44.5237230
  17.0316290  54.5244710  44.8631040  18.3499350  54.1723310  44.2074020
  15.8264700  59.0272490  37.9698590  14.8854840  59.0422720  38.1446280
  16.1408770  58.2408450  38.4158890   5.8046340  60.7092090  31.5302550
   6.5709610  60.5973450  32.0927980   5.8821030  60.0130060  30.8779320
   4.4993100  58.1417160  32.2135440   4.5796690  57.1944670  32.3252840
   5.3912850  58.4724040  32.3196100  17.8290280  66.1981340  39.6452850
  17.9537700  67.0212510  40.1176660  18.6955840  65.9872070  39.2977000
   5.3007810  68.2912550  39.3169980   6.0370290  67.7428010  39.5878550
   5.6848730  69.1568560  39.1775970   4.3066090  67.4758620  48.5055560
   5.1078820  67.7970670  48.9190960   3.7917910  67.1154200  49.2275470
   8.4110120  67.4642860  31.1395550   9.2038730  67.7531690  30.6877340
   7.8914470  67.0335030  30.4608030  13.1430720  63.5838490  48.4530970
  12.5368880  63.6070090  47.7126720  12.8384830  62.8521530  48.9898220
  14.5731090  67.3118780  47.0640380  15.5252840  67.2276800  47.0140620
  14.4259310  67.9760490  47.7374170  17.4640290  66.6912990  32.5632290
  17.1781800  66.2778130  31.7486470  17.2659840  67.6200700  32.4432810
   8.9287520  62.6846270  31.0037900   8.8238160  62.0698620  31.7299280
   8.7611740  62.1612160  30.2200910   9.0801840  61.3703070  46.9827130
   8.3147510  61.9388070  46.8981800   9.2617800  61.0779280  46.0895360
  12.1690250  61.7466300  31.6079890  11.6200350  62.1935600  32.2522630
  12.7909510  61.2415550  32.1317560  16.2225190  63.1008400  47.5402150
  16.9634660  63.4384160  47.0369610  15.4597870  63.2700460  46.9871920
   4.0586980  58.1061670  48.3441680   4.0992320  57.8075540  49.2526910
   4.9132480  58.5069280  48.1849200   7.8365370  60.7057220  33.5045190
   8.2581790  60.5397090  34.3476580   7.9616210  59.8957450  33.0100330
   5.9992790  56.6853770  46.3116170   5.4689250  56.1944720  45.6839510
   6.6680860  57.1137970  45.7774100  10.3493010  59.7294830  30.7522290
  10.8698670  59.0143850  30.3863440  10.9961410  60.3680700  31.0522800
  14.8970850  61.1523230  46.0757360  15.3111870  61.3068310  46.9247780
  13.9621850  61.2778450  46.2383140  15.3693020  58.4919390  48.0796510
  15.9513790  57.7371710  47.9916990  15.5454790  59.0226830  47.3027990
   6.4865090  53.6516140  46.3913460   6.3921960  53.0336890  45.6664330
   5.9062480  54.3782430  46.1643370   9.2526530  52.2089380  43.4240850
   8.8043830  52.2313640  42.5786400   8.6191730  51.8108400  44.0211150
   9.6586080  61.1043710  44.0453290  10.0774190  61.9476440  43.8729530
   8.7394710  61.2415750  43.8160070  11.9949980  58.8359890  45.4291130
  12.1146190  58.2401030  46.1685970  12.8543980  58.8729580  45.0092430
  14.3337880  59.3897080  44.0053640  13.8073100  59.9139700  43.4018780
  14.6769220  60.0224470  44.6363370   6.7324270  56.7790450  30.4503350
   6.5313330  55.9157810  30.8116690   6.5616320  56.6923810  29.5124950
   7.5093500  67.4096720  45.1611020   6.9714590  68.1342780  44.8419720
   7.7627460  66.9327060  44.3708360   8.7618750  55.3781240  46.6866950
   9.3518440  55.0697090  47.3744770   7.9438990  54.9060990  46.8426850
  13.5812180  54.9947050  46.9199970  12.8927700  54.3328590  46.8549960
  14.3018200  54.5485320  47.3648430  14.2112580  51.5898680  32.9790230
  14.4914870  50.7466580  33.3349650  13.4378310  51.8221790  33.4928980
   5.5307070  53.8791070  30.4381230   5.8332970  53.8858500  29.5300380
   6.2701660  53.5288930  30.9348890  10.3655710  68.6447930  45.4197670
  10.2914410  69.5483070  45.7270040   9.4634550  68.3259830  45.3919740
   8.7492000  52.8225690  31.4237430   8.4014000  52.1449680  30.8439880
   8.9504770  52.3615200  32.2380820  10.9141040  67.8106440  33.0424030
  11.8091830  68.1491410  33.0642790  10.9458670  67.0885850  32.4148310
   4.5537200  63.1833490  31.2711030   4.9912070  63.7263160  31.9268610
   5.0384930  62.3580440  31.2807370   1.7683000  65.9722520  38.7231290
   2.0986010  65.1043580  38.4909930   2.1974000  66.1781040  39.5536250
   6.3644920  64.3031530  36.3833260   6.0640460  64.1796500  37.2837170
   6.2582410  63.4440120  35.9748990   2.2573210  66.8393110  41.4612920
   1.8204200  67.0193910  42.2937070   2.8250890  67.5967730  41.3194640
  17.8935390  66.3410110  45.7490230  17.2937380  66.4002670  45.0054150
  18.0229290  65.4015090  45.8787080  19.1336840  64.0827930  31.0859940
  18.3029800  64.1504580  31.5567170  19.3108670  64.9732050  30.7826800
  18.5893300  60.8275410  33.5894140  19.3512210  61.3972060  33.6953830
  18.6047670  60.2602610  34.3602450  19.5953270  61.6825510  38.4336070
  19.9662100  60.8992830  38.0272040  20.2355200  62.3714610  38.2553370
  16.5787030  63.0662090  43.8466390  15.7646870  63.4959250  44.1092180
  16.9861230  63.6780500  43.2335440  18.6412470  61.1209780  30.7466660
  18.9161310  62.0288660  30.6185880  18.4523210  61.0572310  31.6828650
  15.0388080  54.1454630  32.0420290  15.4572960  53.9585610  31.2016950
  14.7324140  53.2933680  32.3523220  18.5377810  59.0578770  35.7396090
  18.1621410  58.2906700  35.3077380  17.8080930  59.4401470  36.2271020
   3.1273570  59.7365910  42.3605140   3.4946610  59.6493310  43.2401160
   2.5584390  58.9732460  42.2612000  17.9277430  58.2050290  45.3735610
  17.6963520  57.9763040  44.4733560  18.1881980  59.1249840  45.3280500
   2.6789570  56.6475000  46.2663560   1.7845620  56.6141760  46.6057270
   3.2187120  56.8461790  47.0314810  16.3665500  53.4306720  48.1515310
  17.2435680  53.4390120  48.5349310  16.3786340  52.6937560  47.5407660
  17.8128770  57.2836260  39.0403330  18.3366250  56.7898910  38.4093500
  18.3988190  57.4186620  39.7850900  17.9918490  57.3676130  42.5622880
  17.0421200  57.3339670  42.6767870  18.1731500  58.2776240  42.3272650
   3.8462930  55.6177810  31.6721510   4.5554630  55.1961030  31.1868790
   3.1302870  55.6853040  31.0404860   3.4937090  51.6717140  30.7124160
   4.2165220  52.2126080  31.0305380   3.7661610  51.3980560  29.8365700
  17.3028740  56.5409610  34.9795740  17.7987860  56.3080480  35.7644620
  17.1044810  55.7021450  34.5633380   3.1829280  50.9223330  40.6146780
   3.8305470  50.3720710  40.1741940   3.6031120  51.1766480  41.4362590
  18.7315900  55.1770560  37.5133420  18.6215180  55.0226600  38.4515690
  19.4923490  54.6491500  37.2708830  17.0781620  51.1164690  43.9716420
  17.7153840  51.7298830  44.3375610  17.2256510  51.1525350  43.0265650
  19.6206170  53.0078480  30.7539560  20.5455480  52.8759660  30.5457850
  19.5981960  53.0871300  31.7076010  19.6944660  53.7789140  33.3796270
  18.8996160  53.7134260  33.9089180  19.8987940  54.7139780  33.3681620
  16.6363080  67.8180690  37.3734660  17.2322150  67.4965260  36.6969080
  16.8941230  67.3452510  38.1647930   2.9361280  51.0779000  43.3572100
   2.5876100  51.5342820  44.1230280   2.6048980  50.1836130  43.4394530
   4.5425650  64.2498600  47.5225290   4.4995280  63.8791510  48.4039750
   4.6736660  65.1876170  47.6627110   8.2431680  65.8058190  43.1235010
   8.0023040  66.0732750  42.2365530   9.1834320  65.9763920  43.1785870
  10.4486100  52.2690880  46.8791520  10.3874990  52.8612710  47.6286930
  11.3886480  52.1616840  46.7341780  13.0860660  51.9260940  46.5183810
  13.7001070  52.2440230  45.8564890  13.6310220  51.4409530  47.1379670
   3.6081920  50.6055200  46.6322870   4.1564910  50.4243250  45.8688980
   3.6737230  49.8149310  47.1679180   4.3813680  67.1960850  44.6423070
   3.7874000  67.0645550  45.3813110   4.3737520  66.3598990  44.1765170
  13.8268700  50.4893080  42.8453100  12.9528540  50.8228190  42.6426030
  13.7179450  50.0166260  43.6704970  14.7340680  52.6963950  44.2294820
  14.4054040  51.8815710  43.8496550  15.6822980  52.6533760  44.1060510
  17.1875290  68.4675990  41.2032390  16.7278260  69.2191800  40.8290410
  16.5587750  67.7482460  41.1447190   4.0125910  64.5619230  43.5931110
   3.2859970  63.9424520  43.5257060   4.0735060  64.9559840  42.7229190
   7.6171010  66.7764230  40.3780520   8.1336030  66.1651590  39.8528780
   8.2668390  67.2793010  40.8691530  10.3566510  67.6672720  41.2049500
  10.6444320  67.4127020  40.3282510  10.8689730  67.1150080  41.7955070
  11.5743520  51.4062920  41.7846010  10.7915310  51.8808420  42.0642770
  11.2806450  50.5017750  41.6759190  16.1264590  52.1086020  39.8295100
  16.5672680  52.0531120  38.9816700  15.8572180  53.0244030  39.9005280
  17.9903160  51.7401260  37.8403920  17.9291560  50.7962480  37.6934940
  18.7695190  51.8481350  38.3857380   2.9183930  51.7110400  34.3059730
   3.6763290  51.8239280  33.7323760   2.4561100  52.5479600  34.2603160
   9.4597740  53.8249670  37.2962040   8.6472250  53.4506560  36.9557920
   9.9639380  53.0694750  37.5983230  13.9622720  50.4892120  38.5345110
  14.5652090  51.0612330  39.0093630  13.2215710  51.0531560  38.3119010
  17.1057320  50.8913680  33.8085390  17.3007950  51.7897130  34.0752820
  16.3187190  50.6600760  34.3018340   3.9018610  66.5726850  34.2478010
   3.3766230  66.9534880  33.5439970   3.8263190  67.1977620  34.9687720
   5.2909080  52.2374450  32.8461700   5.8201840  51.4504250  32.7169650
   5.9237400  52.9165640  33.0797230   7.4846920  51.9749590  35.9007090
   6.8549660  51.2736900  36.0677220   6.9452060  52.7353720  35.6840250
  10.4238870  68.5888820  48.5717700  11.3506180  68.3533090  48.6153660
  10.4089300  69.4160820  48.0903730  18.6583930  68.1314390  35.5691950
  18.8336120  67.4452130  34.9252870  17.9605500  68.6561440  35.1768620
   7.6102480  51.2533570  48.3359580   7.3286750  51.7567170  47.5720400
   7.9922180  50.4555320  47.9701710   6.5011580  68.5209230  33.1227260
   7.2330400  68.2368510  32.5751150   6.7605250  68.2822510  34.0126640
   5.6626370  64.6373960  33.1273590   5.0335250  65.1059060  33.6759420
   5.7774200  63.7923180  33.5619780  14.2117940  50.6687150  48.9140050
  14.0983390  50.9881760  49.8091570  15.0287680  51.0699660  48.6177330
  16.9916430  67.8158680  48.3958740  17.7841750  67.3207910  48.1884700
  17.2849580  68.4948820  49.0034350  13.1176090  58.6879620  19.2774790
  13.0370140  57.7734230  19.0066500  12.7040510  59.1846690  18.5714500
  11.2494130  60.4658640  21.1584060  10.4736230  59.9859080  21.4482630
  11.9007060  59.7864290  20.9840220   5.2659960  60.7778450  22.0359820
   4.4344840  60.5227160  22.4356330   5.8740940  60.8489220  22.7717740
  15.2701560  64.8718830  19.9383190  14.8083090  64.1006070  20.2670360
  16.0827110  64.8984900  20.4435640   5.2461220  64.8118540  22.2317840
   5.5489260  63.9216280  22.0528060   5.9904810  65.3688760  22.0040090
   3.6751910  55.7380340  15.8202210   2.7868610  56.0796310  15.7182090
   3.9593100  55.5380660  14.9283040  11.4964870  67.1576840  19.5587180
  10.8776310  67.6134340  18.9881620  12.3516650  67.3128300  19.1576880
  10.6903120  63.1415830  21.1654220  10.6211400  62.2005770  21.0043350
  11.4522980  63.2317240  21.7376790   2.8809790  53.7470350  23.4910840
   2.7012630  52.8496100  23.7713600   2.4789870  54.2942220  24.1657790
  11.7208290  55.9486210  21.3923150  12.0973110  55.0758090  21.2796820
  11.6227800  56.2844910  20.5013590   5.8513300  54.3211840  16.8540590
   5.9580050  55.2215570  17.1609350   4.9405660  54.2729810  16.5635240
  15.5032410  53.4436650  18.3251490  16.3242030  52.9533220  18.3676970
  15.5366490  54.0334310  19.0783330   3.4996460  56.2430850  22.0993180
   4.1806570  56.5069220  22.7180580   3.1844510  55.4031720  22.4331190
   7.6921030  57.2898210  21.1865770   8.1999250  57.7879180  21.8270790
   8.2234270  56.5133410  21.0105130  19.7931960  55.4603400  24.8895120
  19.0884130  55.8485110  24.3710230  20.0589880  56.1553690  25.4916050
   5.9757130  51.9296770  25.4529190   5.9775570  52.4469160  24.6475090
   5.1461440  51.4526950  25.4299120  12.3628220  62.0416080  16.9519090
  11.7445490  62.5065530  16.3881810  12.8751470  62.7343560  17.3688600
   7.2259980  61.5691950  23.6302690   6.8929360  62.1960870  24.2723760
   7.4026660  62.0953830  22.8504360  15.7393890  55.3837030  21.0979030
  15.0349460  55.6721920  21.6782140  16.1006050  56.1937140  20.7378590
   5.6572460  53.6406730  23.4599640   5.9989270  54.4848780  23.1653510
   4.7188270  53.7890470  23.5764980   6.4379080  63.5372750  25.4451870
   7.0553080  64.2123830  25.1636320   5.5772200  63.9460730  25.3539370
  17.3556670  65.0012160  23.3606510  16.6720190  65.6711270  23.3523180
  17.8950960  65.1992810  22.5951370  18.8080810  54.8291820  21.4888240
  17.8605720  54.8630800  21.6203670  19.1330800  55.6430770  21.8737600
   9.3400350  51.1289000  19.7844230   9.6475330  50.5735890  19.0679730
   8.4101050  51.2633460  19.6017220  14.8915410  66.8456290  22.0751690
  14.9042570  66.4418580  21.2073950  14.3390630  67.6203580  21.9713120
  16.1860830  63.5672510  17.1641860  16.0757160  62.6246840  17.2891280
  16.1829080  63.9288150  18.0504620  14.2900850  61.7486130  23.4034300
  14.7069640  61.5346240  22.5687760  15.0140670  62.0058920  23.9742920
  11.7281110  59.1937830  16.5204350  10.8010390  59.1275210  16.7492820
  11.8805930  60.1317960  16.4059590  11.7150190  55.4654830  13.5171510
  10.7753860  55.6268790  13.6023970  12.0333450  56.1840510  12.9707500
  18.2362950  60.1473350  23.4950540  17.4081580  60.2166440  23.0200670
  18.8313430  60.7327660  23.0266370  15.7578400  60.7558130  17.0239600
  15.1390820  60.4177680  16.3765900  15.7402850  60.1117890  17.7318790
  15.2004960  56.9342670  24.4405410  14.7876140  57.7596380  24.6945400
  14.4680910  56.3487710  24.2481770   7.3337750  59.7202570  19.3024080
   6.9294750  59.0079820  18.8069980   7.4200870  59.3755810  20.1912120
   7.8019450  63.4070130  21.4663290   7.5047740  62.8015600  20.7871070
   8.7519270  63.4447440  21.3552650   6.0466370  56.4945780  23.0823120
   6.5980960  56.6041120  22.3076370   6.5609880  56.8683380  23.7978350
  15.8905060  66.9802000  25.1286390  15.4135620  67.7874190  24.9359000
  15.2066850  66.3280330  25.2812600   6.8937880  63.1451820  28.1171090
   5.9966410  63.3691790  28.3644490   6.9190750  63.2686760  27.1682490
  13.9343100  59.9944940  14.0312350  14.3736380  59.1567370  13.8850170
  14.6471520  60.6274340  14.1176490   5.7209100  60.0165140  26.6928460
   5.5816870  60.8887940  27.0615860   4.8390460  59.6737950  26.5476400
  12.0438480  64.9341010  17.9993590  12.4834390  65.6765340  17.5848980
  11.9825370  65.1767580  18.9232550   7.5189450  65.9586840  28.9013610
   7.4904880  66.3629790  28.0342040   7.3554420  65.0297200  28.7385210
  17.5160240  51.2487750  12.3453390  17.2032900  51.3414580  13.2452460
  18.2772710  51.8268780  12.2950820   4.0342380  58.6147550  16.8030730
   3.9139980  59.3409640  16.1912000   3.7243270  57.8450460  16.3258640
  19.4704270  66.7413940  30.1977780  19.9463990  67.2196830  30.8766860
  20.0911430  66.6731430  29.4723280   2.9175380  63.4862880  19.0205550
   2.5103460  63.6277470  18.1659150   3.8088390  63.2023040  18.8176760
  18.8737520  63.9326790  27.3577790  19.0000580  63.6938670  26.4394970
  18.9158900  63.1011330  27.8299870  12.7354260  67.6354790  25.9272600
  13.2498930  67.5462800  26.7295030  11.8923340  67.9814490  26.2200510
  14.7108660  67.9210130  15.3556600  14.5509800  67.6313070  16.2538430
  14.5455370  67.1450260  14.8201830   7.1897040  67.7008660  17.1328220
   7.0139520  66.7844200  16.9196020   6.3352780  68.0595950  17.3726020
  14.4134790  65.4297690  13.9154600  13.7199950  65.4274980  13.2556880
  15.1557650  65.0057010  13.4848770  13.9784720  67.0560400  17.9903090
  14.4341670  66.2749780  18.3041710  14.3177240  67.7667220  18.5344270
  18.7261530  55.9859250  28.3227530  18.1105800  56.4938920  27.7942990
  18.4057950  55.0857580  28.2653470   6.5006040  51.9582620  20.1854400
   6.0574190  52.7392160  19.8538920   7.0591030  52.2812510  20.8925340
  10.7875850  54.8251140  25.7889720  10.3255220  55.0334160  26.6009660
  10.3853960  54.0110490  25.4860390  15.7880360  56.0460090  26.9186380
  14.9373950  55.7465840  27.2395450  15.6282150  56.2902100  26.0070200
  12.8830070  57.5461840  29.0185170  13.2083480  56.7125590  28.6787400
  13.6710400  58.0690360  29.1663500   9.6164860  51.5793320  15.0660230
   8.9919040  51.5753190  15.7913540   9.5294980  50.7124280  14.6696200
   8.5381940  52.5029950  22.0444000   8.8354270  53.4092780  21.9636020
   9.0867500  52.0148730  21.4303570   6.2920260  57.0816190  17.9135650
   6.0661180  56.8653360  18.8182270   5.5112790  57.5144650  17.5681620
  13.5218020  57.0879560  16.5126300  12.9226910  57.8115360  16.3289920
  14.0697630  57.0256340  15.7302750   8.7319470  57.9801770  28.5795920
   8.6363070  57.0396500  28.4296320   9.5751450  58.2016840  28.1843990
  12.1282890  55.7243100  18.5429580  12.5212460  56.0415300  17.7298270
  12.4899740  54.8454980  18.6574100   3.8630010  54.3915440  26.7329700
   3.4693400  55.2390650  26.9402480   3.1748410  53.7541810  26.9238340
  10.4375060  54.4750410  29.8026440   9.7473380  54.2822610  30.4372530
  11.1807360  54.7585050  30.3350740  12.7138030  58.3148850  22.6380360
  11.9819150  58.8235660  22.9870460  12.3162370  57.4978830  22.3369140
   9.1515420  54.9903050  21.0432850   9.1551480  54.5493000  20.1937390
  10.0466540  55.3120380  21.1504670   5.0017800  54.8729540  20.0027060
   4.6617850  55.3504770  20.7594110   4.2395120  54.4194660  19.6428160
   9.2135570  55.9915130  14.0339610   9.3348390  55.9501610  14.9825430
   8.8284080  56.8539280  13.8786340  13.1763940  53.7682530  22.0503300
  13.1936680  54.2191180  22.8945150  12.9279520  52.8688170  22.2636740
   8.2257070  58.3016270  13.4322910   7.6573970  57.8534520  12.8058820
   8.9346070  58.6609050  12.8988060  16.6034690  51.1814710  27.8889680
  16.9280460  50.4504370  28.4147660  16.6391200  50.8628350  26.9870670
   3.3026250  62.2028290  27.3089640   2.9181040  61.5621960  27.9072600
   3.6138440  62.9064410  27.8784370   9.4523390  59.0504830  22.7898260
   9.8193520  58.5763400  23.5359600   9.2628450  59.9246400  23.1306600
   2.3163880  53.7948520  18.9191730   2.0310800  53.4304190  19.7570350
   2.2542740  53.0628980  18.3054870   7.2422760  58.0913470  25.1082470
   6.9379830  58.9705450  25.3332830   8.1969220  58.1513260  25.1439910
   5.7704550  62.2974460  15.7049320   4.9966810  61.7572080  15.5448040
   6.4999180  61.7781070  15.3667080  16.5292530  61.2939820  21.4975710
  17.2491650  61.7895110  21.1071820  16.3274350  60.6157710  20.8529580
  11.9902470  52.6877780  15.6405100  11.1767080  52.1890950  15.5650410
  11.7964420  53.5276030  15.2241450  11.9111330  61.3648880  27.3844710
  11.8448640  60.4444550  27.1302300  11.2816470  61.4624320  28.0989350
  14.7050860  57.0597430  13.9367260  15.5930480  57.3714660  13.7618600
  14.6755950  56.1869680  13.5447840   5.8141950  61.9654840  19.3428130
   6.3320620  61.1623100  19.2885020   5.3625970  61.9033980  20.1844960
  10.7011450  63.2321120  14.6155430  11.0427150  63.9763350  14.1198750
   9.8724160  63.5452240  14.9780260   3.2986490  58.9316210  26.2553830
   2.9401430  59.5970060  26.8427170   3.0041050  58.0999760  26.6266450
   6.4999610  59.3900450  29.1393380   6.1999750  59.5357630  28.2421200
   7.2710850  58.8305740  29.0466770  11.8428060  64.1869450  27.1348510
  11.8572600  63.2550410  26.9167420  11.1353160  64.2729210  27.7738280
  16.9765130  58.3709270  13.4047120  16.8928850  58.8023490  12.5543560
  17.6959320  58.8307620  13.8373940  18.0539270  60.8276790  26.4817090
  17.3287460  61.4205570  26.2846480  18.5814730  60.8200330  25.6830460
  18.0052380  65.2251530  16.1329250  17.3628540  64.5707150  16.4072970
  17.6183040  65.6306620  15.3569920  13.5838860  62.5536960  19.9800940
  13.9362680  61.9565090  19.3202310  12.7001190  62.2281190  20.1509190
   9.6702140  63.3134650  17.3871350  10.3573270  63.8603860  17.7678940
   8.8834560  63.8575380  17.4220960   8.9729350  60.3180680  16.9996710
   9.4292130  61.1285930  17.2256900   8.6217560  60.0003820  17.8315200
  11.2761960  65.8287020  24.2289010  11.9204180  66.0346400  24.9062430
  11.6391400  65.0675420  23.7759860   4.8741130  50.6618330  17.4719230
   4.7455760  50.6536230  18.4204150   4.0503150  51.0001420  17.1210240
  12.5494040  63.8319370  22.9466460  13.1916270  63.1312530  23.0598630
  13.0743390  64.6117810  22.7663350  16.3949760  64.1167990  12.6705600
  16.1687340  63.3998430  13.2630240  16.0045960  63.8680430  11.8327350
  14.3231660  64.6314270  26.1502520  14.6587900  65.2180960  26.8280440
  13.4032000  64.5006980  26.3800310   2.1765790  68.1434850  13.4450060
   2.5363430  68.7424190  12.7907330   2.0358130  68.6894740  14.2185090
  15.9766010  62.0339930  14.3319760  15.6887710  62.4952620  15.1197640
  16.7718180  61.5737700  14.6003980  10.1520240  64.6805600  29.3190580
   9.8317110  63.9614840  29.8636270   9.4778600  65.3560670  29.3926640
   8.1934410  65.5266050  14.2623730   8.1844510  66.2595740  13.6468240
   7.2732770  65.2797630  14.3550690   3.7941050  60.7480940  15.0070490
   3.1869000  61.4879840  15.0165790   4.2690400  60.8380300  14.1808690
  13.3673840  54.9131760  24.6827380  13.7354660  54.0926970  25.0106950
  12.5072040  54.9733650  25.0983030  16.7335870  53.8688700  15.4914940
  16.1049030  53.9734370  14.7773170  16.2387790  54.0885480  16.2808820
  11.1794010  65.5894290  12.9248920  11.2805990  65.3858280  11.9950900
  10.2795750  65.3352570  13.1296700   8.7019900  56.1474650  16.9072820
   7.9936050  56.6160990  17.3486430   8.9864380  55.4896660  17.5418010
  10.3275830  57.5671350  24.9065350  10.8261080  58.0417170  25.5717200
  10.4698780  56.6434870  25.1135380  12.7335330  52.8725310  18.3468610
  12.6103110  52.8911440  17.3978120  13.6819890  52.9204250  18.4667010
   9.8212120  68.1080610  17.6196590  10.0753620  68.0702000  16.6975960
   8.8724600  67.9813940  17.6124840   6.9054920  54.4559730  14.2823530
   7.7545450  54.8929880  14.2163720   6.5386190  54.7679990  15.1095590
  17.5342690  53.7839310  25.7493740  17.0316290  54.5244710  26.0887550
  18.3499350  54.1723310  25.4330530  15.8264700  59.0272490  19.1955100
  14.8854840  59.0422720  19.3702790  16.1408770  58.2408450  19.6415400
   5.8046340  60.7092090  12.7559060   6.5709610  60.5973450  13.3184490
   5.8821030  60.0130060  12.1035830   4.4993100  58.1417160  13.4391950
   4.5796690  57.1944670  13.5509350   5.3912850  58.4724040  13.5452610
  17.8290280  66.1981340  20.8709360  17.9537700  67.0212510  21.3433170
  18.6955840  65.9872070  20.5233510   5.3007810  68.2912550  20.5426490
   6.0370290  67.7428010  20.8135060   5.6848730  69.1568560  20.4032480
   4.3066090  67.4758620  29.7312070   5.1078820  67.7970670  30.1447470
   3.7917910  67.1154200  30.4531980   8.4110120  67.4642860  12.3652060
   9.2038730  67.7531690  11.9133850   7.8914470  67.0335030  11.6864540
  13.1430720  63.5838490  29.6787480  12.5368880  63.6070090  28.9383230
  12.8384830  62.8521530  30.2154730  14.5731090  67.3118780  28.2896890
  15.5252840  67.2276800  28.2397130  14.4259310  67.9760490  28.9630680
  17.4640290  66.6912990  13.7888800  17.1781800  66.2778130  12.9742980
  17.2659840  67.6200700  13.6689320   8.9287520  62.6846270  12.2294410
   8.8238160  62.0698620  12.9555790   8.7611740  62.1612160  11.4457420
   9.0801840  61.3703070  28.2083640   8.3147510  61.9388070  28.1238310
   9.2617800  61.0779280  27.3151870  12.1690250  61.7466300  12.8336400
  11.6200350  62.1935600  13.4779140  12.7909510  61.2415550  13.3574070
  16.2225190  63.1008400  28.7658660  16.9634660  63.4384160  28.2626120
  15.4597870  63.2700460  28.2128430   4.0586980  58.1061670  29.5698190
   4.0992320  57.8075540  30.4783420   4.9132480  58.5069280  29.4105710
   7.8365370  60.7057220  14.7301700   8.2581790  60.5397090  15.5733090
   7.9616210  59.8957450  14.2356840   5.9992790  56.6853770  27.5372680
   5.4689250  56.1944720  26.9096020   6.6680860  57.1137970  27.0030610
  10.3493010  59.7294830  11.9778800  10.8698670  59.0143850  11.6119950
  10.9961410  60.3680700  12.2779310  14.8970850  61.1523230  27.3013870
  15.3111870  61.3068310  28.1504290  13.9621850  61.2778450  27.4639650
  15.3693020  58.4919390  29.3053020  15.9513790  57.7371710  29.2173500
  15.5454790  59.0226830  28.5284500   6.4865090  53.6516140  27.6169970
   6.3921960  53.0336890  26.8920840   5.9062480  54.3782430  27.3899880
   9.2526530  52.2089380  24.6497360   8.8043830  52.2313640  23.8042910
   8.6191730  51.8108400  25.2467660   9.6586080  61.1043710  25.2709800
  10.0774190  61.9476440  25.0986040   8.7394710  61.2415750  25.0416580
  11.9949980  58.8359890  26.6547640  12.1146190  58.2401030  27.3942480
  12.8543980  58.8729580  26.2348940  14.3337880  59.3897080  25.2310150
  13.8073100  59.9139700  24.6275290  14.6769220  60.0224470  25.8619880
   6.7324270  56.7790450  11.6759860   6.5313330  55.9157810  12.0373200
   6.5616320  56.6923810  10.7381460   7.5093500  67.4096720  26.3867530
   6.9714590  68.1342780  26.0676230   7.7627460  66.9327060  25.5964870
   8.7618750  55.3781240  27.9123460   9.3518440  55.0697090  28.6001280
   7.9438990  54.9060990  28.0683360  13.5812180  54.9947050  28.1456480
  12.8927700  54.3328590  28.0806470  14.3018200  54.5485320  28.5904940
  14.2112580  51.5898680  14.2046740  14.4914870  50.7466580  14.5606160
  13.4378310  51.8221790  14.7185490   5.5307070  53.8791070  11.6637740
   5.8332970  53.8858500  10.7556890   6.2701660  53.5288930  12.1605400
  10.3655710  68.6447930  26.6454180  10.2914410  69.5483070  26.9526550
   9.4634550  68.3259830  26.6176250   8.7492000  52.8225690  12.6493940
   8.4014000  52.1449680  12.0696390   8.9504770  52.3615200  13.4637330
  10.9141040  67.8106440  14.2680540  11.8091830  68.1491410  14.2899300
  10.9458670  67.0885850  13.6404820   4.5537200  63.1833490  12.4967540
   4.9912070  63.7263160  13.1525120   5.0384930  62.3580440  12.5063880
   1.7683000  65.9722520  19.9487800   2.0986010  65.1043580  19.7166440
   2.1974000  66.1781040  20.7792760   6.3644920  64.3031530  17.6089770
   6.0640460  64.1796500  18.5093680   6.2582410  63.4440120  17.2005500
   2.2573210  66.8393110  22.6869430   1.8204200  67.0193910  23.5193580
   2.8250890  67.5967730  22.5451150  17.8935390  66.3410110  26.9746740
  17.2937380  66.4002670  26.2310660  18.0229290  65.4015090  27.1043590
  19.1336840  64.0827930  12.3116450  18.3029800  64.1504580  12.7823680
  19.3108670  64.9732050  12.0083310  18.5893300  60.8275410  14.8150650
  19.3512210  61.3972060  14.9210340  18.6047670  60.2602610  15.5858960
  19.5953270  61.6825510  19.6592580  19.9662100  60.8992830  19.2528550
  20.2355200  62.3714610  19.4809880  16.5787030  63.0662090  25.0722900
  15.7646870  63.4959250  25.3348690  16.9861230  63.6780500  24.4591950
  18.6412470  61.1209780  11.9723170  18.9161310  62.0288660  11.8442390
  18.4523210  61.0572310  12.9085160  15.0388080  54.1454630  13.2676800
  15.4572960  53.9585610  12.4273460  14.7324140  53.2933680  13.5779730
  18.5377810  59.0578770  16.9652600  18.1621410  58.2906700  16.5333890
  17.8080930  59.4401470  17.4527530   3.1273570  59.7365910  23.5861650
   3.4946610  59.6493310  24.4657670   2.5584390  58.9732460  23.4868510
  17.9277430  58.2050290  26.5992120  17.6963520  57.9763040  25.6990070
  18.1881980  59.1249840  26.5537010   2.6789570  56.6475000  27.4920070
   1.7845620  56.6141760  27.8313780   3.2187120  56.8461790  28.2571320
  16.3665500  53.4306720  29.3771820  17.2435680  53.4390120  29.7605820
  16.3786340  52.6937560  28.7664170  17.8128770  57.2836260  20.2659840
  18.3366250  56.7898910  19.6350010  18.3988190  57.4186620  21.0107410
  17.9918490  57.3676130  23.7879390  17.0421200  57.3339670  23.9024380
  18.1731500  58.2776240  23.5529160   3.8462930  55.6177810  12.8978020
   4.5554630  55.1961030  12.4125300   3.1302870  55.6853040  12.2661370
   3.4937090  51.6717140  11.9380670   4.2165220  52.2126080  12.2561890
   3.7661610  51.3980560  11.0622210  17.3028740  56.5409610  16.2052250
  17.7987860  56.3080480  16.9901130  17.1044810  55.7021450  15.7889890
   3.1829280  50.9223330  21.8403290   3.8305470  50.3720710  21.3998450
   3.6031120  51.1766480  22.6619100  18.7315900  55.1770560  18.7389930
  18.6215180  55.0226600  19.6772200  19.4923490  54.6491500  18.4965340
  17.0781620  51.1164690  25.1972930  17.7153840  51.7298830  25.5632120
  17.2256510  51.1525350  24.2522160  19.6206170  53.0078480  11.9796070
  20.5455480  52.8759660  11.7714360  19.5981960  53.0871300  12.9332520
  19.6944660  53.7789140  14.6052780  18.8996160  53.7134260  15.1345690
  19.8987940  54.7139780  14.5938130  16.6363080  67.8180690  18.5991170
  17.2322150  67.4965260  17.9225590  16.8941230  67.3452510  19.3904440
   2.9361280  51.0779000  24.5828610   2.5876100  51.5342820  25.3486790
   2.6048980  50.1836130  24.6651040   4.5425650  64.2498600  28.7481800
   4.4995280  63.8791510  29.6296260   4.6736660  65.1876170  28.8883620
   8.2431680  65.8058190  24.3491520   8.0023040  66.0732750  23.4622040
   9.1834320  65.9763920  24.4042380  10.4486100  52.2690880  28.1048030
  10.3874990  52.8612710  28.8543440  11.3886480  52.1616840  27.9598290
  13.0860660  51.9260940  27.7440320  13.7001070  52.2440230  27.0821400
  13.6310220  51.4409530  28.3636180  19.5035840  67.8252570  25.1502160
  19.0094120  68.2221440  24.4329290  18.8949130  67.2001780  25.5439440
   3.6081920  50.6055200  27.8579380   4.1564910  50.4243250  27.0945490
   3.6737230  49.8149310  28.3935690   4.3813680  67.1960850  25.8679580
   3.7874000  67.0645550  26.6069620   4.3737520  66.3598990  25.4021680
  13.8268700  50.4893080  24.0709610  12.9528540  50.8228190  23.8682540
  13.7179450  50.0166260  24.8961480  14.7340680  52.6963950  25.4551330
  14.4054040  51.8815710  25.0753060  15.6822980  52.6533760  25.3317020
  17.1875290  68.4675990  22.4288900  16.7278260  69.2191800  22.0546920
  16.5587750  67.7482460  22.3703700   4.0125910  64.5619230  24.8187620
   3.2859970  63.9424520  24.7513570   4.0735060  64.9559840  23.9485700
   7.6171010  66.7764230  21.6037030   8.1336030  66.1651590  21.0785290
   8.2668390  67.2793010  22.0948040  10.3566510  67.6672720  22.4306010
  10.6444320  67.4127020  21.5539020  10.8689730  67.1150080  23.0211580
  11.5743520  51.4062920  23.0102520  10.7915310  51.8808420  23.2899280
  11.2806450  50.5017750  22.9015700  16.1264590  52.1086020  21.0551610
  16.5672680  52.0531120  20.2073210  15.8572180  53.0244030  21.1261790
  17.9903160  51.7401260  19.0660430  17.9291560  50.7962480  18.9191450
  18.7695190  51.8481350  19.6113890   2.9183930  51.7110400  15.5316240
   3.6763290  51.8239280  14.9580270   2.4561100  52.5479600  15.4859670
   9.4597740  53.8249670  18.5218550   8.6472250  53.4506560  18.1814430
   9.9639380  53.0694750  18.8239740  13.9622720  50.4892120  19.7601620
  14.5652090  51.0612330  20.2350140  13.2215710  51.0531560  19.5375520
  17.1057320  50.8913680  15.0341900  17.3007950  51.7897130  15.3009330
  16.3187190  50.6600760  15.5274850   3.9018610  66.5726850  15.4734520
   3.3766230  66.9534880  14.7696480   3.8263190  67.1977620  16.1944230
   5.2909080  52.2374450  14.0718210   5.8201840  51.4504250  13.9426160
   5.9237400  52.9165640  14.3053740   7.4846920  51.9749590  17.1263600
   6.8549660  51.2736900  17.2933730   6.9452060  52.7353720  16.9096760
  10.4238870  68.5888820  29.7974210  11.3506180  68.3533090  29.8410170
  10.4089300  69.4160820  29.3160240  18.6583930  68.1314390  16.7948460
  18.8336120  67.4452130  16.1509380  17.9605500  68.6561440  16.4025130
   7.6102480  51.2533570  29.5616090   7.3286750  51.7567170  28.7976910
   7.9922180  50.4555320  29.1958220   6.5011580  68.5209230  14.3483770
   7.2330400  68.2368510  13.8007660   6.7605250  68.2822510  15.2383150
   5.6626370  64.6373960  14.3530100   5.0335250  65.1059060  14.9015930
   5.7774200  63.7923180  14.7876290  14.2117940  50.6687150  30.1396560
  14.0983390  50.9881760  31.0348080  15.0287680  51.0699660  29.8433840
  16.9916430  67.8158680  29.6215250  17.7841750  67.3207910  29.4141210
  17.2849580  68.4948820  30.2290860  11.2494130  60.4658640   2.3840570
  10.4736230  59.9859080   2.6739140  11.9007060  59.7864290   2.2096730
   5.2659960  60.7778450   3.2616330   4.4344840  60.5227160   3.6612840
   5.8740940  60.8489220   3.9974250   5.2461220  64.8118540   3.4574350
   5.5489260  63.9216280   3.2784570   5.9904810  65.3688760   3.2296600
  10.6903120  63.1415830   2.3910730  10.6211400  62.2005770   2.2299860
  11.4522980  63.2317240   2.9633300   2.8809790  53.7470350   4.7167350
   2.7012630  52.8496100   4.9970110   2.4789870  54.2942220   5.3914300
  11.7208290  55.9486210   2.6179660  12.0973110  55.0758090   2.5053330
  11.6227800  56.2844910   1.7270100   3.4996460  56.2430850   3.3249690
   4.1806570  56.5069220   3.9437090   3.1844510  55.4031720   3.6587700
   7.6921030  57.2898210   2.4122280   8.1999250  57.7879180   3.0527300
   8.2234270  56.5133410   2.2361640  19.7931960  55.4603400   6.1151630
  19.0884130  55.8485110   5.5966740  20.0589880  56.1553690   6.7172560
   5.9757130  51.9296770   6.6785700   5.9775570  52.4469160   5.8731600
   5.1461440  51.4526950   6.6555630   7.2259980  61.5691950   4.8559200
   6.8929360  62.1960870   5.4980270   7.4026660  62.0953830   4.0760870
  15.7393890  55.3837030   2.3235540  15.0349460  55.6721920   2.9038650
  16.1006050  56.1937140   1.9635100   5.6572460  53.6406730   4.6856150
   5.9989270  54.4848780   4.3910020   4.7188270  53.7890470   4.8021490
   6.4379080  63.5372750   6.6708380   7.0553080  64.2123830   6.3892830
   5.5772200  63.9460730   6.5795880  17.3556670  65.0012160   4.5863020
  16.6720190  65.6711270   4.5779690  17.8950960  65.1992810   3.8207880
  18.8080810  54.8291820   2.7144750  17.8605720  54.8630800   2.8460180
  19.1330800  55.6430770   3.0994110  14.8915410  66.8456290   3.3008200
  14.9042570  66.4418580   2.4330460  14.3390630  67.6203580   3.1969630
  14.2900850  61.7486130   4.6290810  14.7069640  61.5346240   3.7944270
  15.0140670  62.0058920   5.1999430  18.2362950  60.1473350   4.7207050
  17.4081580  60.2166440   4.2457180  18.8313430  60.7327660   4.2522880
  15.2004960  56.9342670   5.6661920  14.7876140  57.7596380   5.9201910
  14.4680910  56.3487710   5.4738280   7.8019450  63.4070130   2.6919800
   7.5047740  62.8015600   2.0127580   8.7519270  63.4447440   2.5809160
   6.0466370  56.4945780   4.3079630   6.5980960  56.6041120   3.5332880
   6.5609880  56.8683380   5.0234860  15.8905060  66.9802000   6.3542900
  15.4135620  67.7874190   6.1615510  15.2066850  66.3280330   6.5069110
   6.8937880  63.1451820   9.3427600   5.9966410  63.3691790   9.5901000
   6.9190750  63.2686760   8.3939000   5.7209100  60.0165140   7.9184970
   5.5816870  60.8887940   8.2872370   4.8390460  59.6737950   7.7732910
   7.5189450  65.9586840  10.1270120   7.4904880  66.3629790   9.2598550
   7.3554420  65.0297200   9.9641720  19.4704270  66.7413940  11.4234290
  19.9463990  67.2196830  12.1023370  20.0911430  66.6731430  10.6979790
  18.8737520  63.9326790   8.5834300  19.0000580  63.6938670   7.6651480
  18.9158900  63.1011330   9.0556380  12.7354260  67.6354790   7.1529110
  13.2498930  67.5462800   7.9551540  11.8923340  67.9814490   7.4457020
  18.7261530  55.9859250   9.5484040  18.1105800  56.4938920   9.0199500
  18.4057950  55.0857580   9.4909980  10.7875850  54.8251140   7.0146230
  10.3255220  55.0334160   7.8266170  10.3853960  54.0110490   6.7116900
  15.7880360  56.0460090   8.1442890  14.9373950  55.7465840   8.4651960
  15.6282150  56.2902100   7.2326710  12.8830070  57.5461840  10.2441680
  13.2083480  56.7125590   9.9043910  13.6710400  58.0690360  10.3920010
   8.5381940  52.5029950   3.2700510   8.8354270  53.4092780   3.1892530
   9.0867500  52.0148730   2.6560080   8.7319470  57.9801770   9.8052430
   8.6363070  57.0396500   9.6552830   9.5751450  58.2016840   9.4100500
   3.8630010  54.3915440   7.9586210   3.4693400  55.2390650   8.1658990
   3.1748410  53.7541810   8.1494850  10.4375060  54.4750410  11.0282950
   9.7473380  54.2822610  11.6629040  11.1807360  54.7585050  11.5607250
  12.7138030  58.3148850   3.8636870  11.9819150  58.8235660   4.2126970
  12.3162370  57.4978830   3.5625650   9.1515420  54.9903050   2.2689360
   9.1551480  54.5493000   1.4193900  10.0466540  55.3120380   2.3761180
  13.1763940  53.7682530   3.2759810  13.1936680  54.2191180   4.1201660
  12.9279520  52.8688170   3.4893250  16.6034690  51.1814710   9.1146190
  16.9280460  50.4504370   9.6404170  16.6391200  50.8628350   8.2127180
   3.3026250  62.2028290   8.5346150   2.9181040  61.5621960   9.1329110
   3.6138440  62.9064410   9.1040880   9.4523390  59.0504830   4.0154770
   9.8193520  58.5763400   4.7616110   9.2628450  59.9246400   4.3563110
   7.2422760  58.0913470   6.3338980   6.9379830  58.9705450   6.5589340
   8.1969220  58.1513260   6.3696420  16.5292530  61.2939820   2.7232220
  17.2491650  61.7895110   2.3328330  16.3274350  60.6157710   2.0786090
  11.9111330  61.3648880   8.6101220  11.8448640  60.4444550   8.3558810
  11.2816470  61.4624320   9.3245860   3.2986490  58.9316210   7.4810340
   2.9401430  59.5970060   8.0683680   3.0041050  58.0999760   7.8522960
   6.4999610  59.3900450  10.3649890   6.1999750  59.5357630   9.4677710
   7.2710850  58.8305740  10.2723280  11.8428060  64.1869450   8.3605020
  11.8572600  63.2550410   8.1423930  11.1353160  64.2729210   8.9994790
  18.0539270  60.8276790   7.7073600  17.3287460  61.4205570   7.5102990
  18.5814730  60.8200330   6.9086970  11.2761960  65.8287020   5.4545520
  11.9204180  66.0346400   6.1318940  11.6391400  65.0675420   5.0016370
  12.5494040  63.8319370   4.1722970  13.1916270  63.1312530   4.2855140
  13.0743390  64.6117810   3.9919860  14.3231660  64.6314270   7.3759030
  14.6587900  65.2180960   8.0536950  13.4032000  64.5006980   7.6056820
  10.1520240  64.6805600  10.5447090   9.8317110  63.9614840  11.0892780
   9.4778600  65.3560670  10.6183150  13.3673840  54.9131760   5.9083890
  13.7354660  54.0926970   6.2363460  12.5072040  54.9733650   6.3239540
  10.3275830  57.5671350   6.1321860  10.8261080  58.0417170   6.7973710
  10.4698780  56.6434870   6.3391890  17.5342690  53.7839310   6.9750250
  17.0316290  54.5244710   7.3144060  18.3499350  54.1723310   6.6587040
  17.8290280  66.1981340   2.0965870  17.9537700  67.0212510   2.5689680
  18.6955840  65.9872070   1.7490020   5.3007810  68.2912550   1.7683000
   6.0370290  67.7428010   2.0391570   5.6848730  69.1568560   1.6288990
   4.3066090  67.4758620  10.9568580   5.1078820  67.7970670  11.3703980
   3.7917910  67.1154200  11.6788490  13.1430720  63.5838490  10.9043990
  12.5368880  63.6070090  10.1639740  12.8384830  62.8521530  11.4411240
  14.5731090  67.3118780   9.5153400  15.5252840  67.2276800   9.4653640
  14.4259310  67.9760490  10.1887190   9.0801840  61.3703070   9.4340150
   8.3147510  61.9388070   9.3494820   9.2617800  61.0779280   8.5408380
  16.2225190  63.1008400   9.9915170  16.9634660  63.4384160   9.4882630
  15.4597870  63.2700460   9.4384940   4.0586980  58.1061670  10.7954700
   4.0992320  57.8075540  11.7039930   4.9132480  58.5069280  10.6362220
   5.9992790  56.6853770   8.7629190   5.4689250  56.1944720   8.1352530
   6.6680860  57.1137970   8.2287120  14.8970850  61.1523230   8.5270380
  15.3111870  61.3068310   9.3760800  13.9621850  61.2778450   8.6896160
  15.3693020  58.4919390  10.5309530  15.9513790  57.7371710  10.4430010
  15.5454790  59.0226830   9.7541010   6.4865090  53.6516140   8.8426480
   6.3921960  53.0336890   8.1177350   5.9062480  54.3782430   8.6156390
   9.2526530  52.2089380   5.8753870   8.8043830  52.2313640   5.0299420
   8.6191730  51.8108400   6.4724170   9.6586080  61.1043710   6.4966310
  10.0774190  61.9476440   6.3242550   8.7394710  61.2415750   6.2673090
  11.9949980  58.8359890   7.8804150  12.1146190  58.2401030   8.6198990
  12.8543980  58.8729580   7.4605450  14.3337880  59.3897080   6.4566660
  13.8073100  59.9139700   5.8531800  14.6769220  60.0224470   7.0876390
   7.5093500  67.4096720   7.6124040   6.9714590  68.1342780   7.2932740
   7.7627460  66.9327060   6.8221380   8.7618750  55.3781240   9.1379970
   9.3518440  55.0697090   9.8257790   7.9438990  54.9060990   9.2939870
  13.5812180  54.9947050   9.3712990  12.8927700  54.3328590   9.3062980
  14.3018200  54.5485320   9.8161450  10.3655710  68.6447930   7.8710690
  10.2914410  69.5483070   8.1783060   9.4634550  68.3259830   7.8432760
   2.2573210  66.8393110   3.9125940   1.8204200  67.0193910   4.7450090
   2.8250890  67.5967730   3.7707660  17.8935390  66.3410110   8.2003250
  17.2937380  66.4002670   7.4567170  18.0229290  65.4015090   8.3300100
  16.5787030  63.0662090   6.2979410  15.7646870  63.4959250   6.5605200
  16.9861230  63.6780500   5.6848460   3.1273570  59.7365910   4.8118160
   3.4946610  59.6493310   5.6914180   2.5584390  58.9732460   4.7125020
  17.9277430  58.2050290   7.8248630  17.6963520  57.9763040   6.9246580
  18.1881980  59.1249840   7.7793520   2.6789570  56.6475000   8.7176580
   1.7845620  56.6141760   9.0570290   3.2187120  56.8461790   9.4827830
  16.3665500  53.4306720  10.6028330  17.2435680  53.4390120  10.9862330
  16.3786340  52.6937560   9.9920680  17.9918490  57.3676130   5.0135900
  17.0421200  57.3339670   5.1280890  18.1731500  58.2776240   4.7785670
   3.1829280  50.9223330   3.0659800   3.8305470  50.3720710   2.6254960
   3.6031120  51.1766480   3.8875610  17.0781620  51.1164690   6.4229440
  17.7153840  51.7298830   6.7888630  17.2256510  51.1525350   5.4778670
   2.9361280  51.0779000   5.8085120   2.5876100  51.5342820   6.5743300
   2.6048980  50.1836130   5.8907550   4.5425650  64.2498600   9.9738310
   4.4995280  63.8791510  10.8552770   4.6736660  65.1876170  10.1140130
   8.2431680  65.8058190   5.5748030   8.0023040  66.0732750   4.6878550
   9.1834320  65.9763920   5.6298890  10.4486100  52.2690880   9.3304540
  10.3874990  52.8612710  10.0799950  11.3886480  52.1616840   9.1854800
  13.0860660  51.9260940   8.9696830  13.7001070  52.2440230   8.3077910
  13.6310220  51.4409530   9.5892690  19.5035840  67.8252570   6.3758670
  19.0094120  68.2221440   5.6585800  18.8949130  67.2001780   6.7695950
   3.6081920  50.6055200   9.0835890   4.1564910  50.4243250   8.3202000
   3.6737230  49.8149310   9.6192200   4.3813680  67.1960850   7.0936090
   3.7874000  67.0645550   7.8326130   4.3737520  66.3598990   6.6278190
  13.8268700  50.4893080   5.2966120  12.9528540  50.8228190   5.0939050
  13.7179450  50.0166260   6.1217990  14.7340680  52.6963950   6.6807840
  14.4054040  51.8815710   6.3009570  15.6822980  52.6533760   6.5573530
  17.1875290  68.4675990   3.6545410  16.7278260  69.2191800   3.2803430
  16.5587750  67.7482460   3.5960210   4.0125910  64.5619230   6.0444130
   3.2859970  63.9424520   5.9770080   4.0735060  64.9559840   5.1742210
   7.6171010  66.7764230   2.8293540   8.1336030  66.1651590   2.3041800
   8.2668390  67.2793010   3.3204550  10.3566510  67.6672720   3.6562520
  10.6444320  67.4127020   2.7795530  10.8689730  67.1150080   4.2468090
  11.5743520  51.4062920   4.2359030  10.7915310  51.8808420   4.5155790
  11.2806450  50.5017750   4.1272210  16.1264590  52.1086020   2.2808120
  16.5672680  52.0531120   1.4329720  15.8572180  53.0244030   2.3518300
  10.4238870  68.5888820  11.0230720  11.3506180  68.3533090  11.0666680
  10.4089300  69.4160820  10.5416750   7.6102480  51.2533570  10.7872600
   7.3286750  51.7567170  10.0233420   7.9922180  50.4555320  10.4214730
  14.2117940  50.6687150  11.3653070  14.0983390  50.9881760  12.2604590
  15.0287680  51.0699660  11.0690350  16.9916430  67.8158680  10.8471760
  17.7841750  67.3207910  10.6397720  17.2849580  68.4948820  11.4547370
  13.1176090  39.9136130 150.6979220  13.0370140  38.9990740 150.4270930
  12.7040510  40.4103200 149.9918930  11.2494130  41.6915150 152.5788490
  10.4736230  41.2115590 152.8687060  11.9007060  41.0120800 152.4044650
  15.2701560  46.0975340 151.3587620  14.8083090  45.3262580 151.6874790
  16.0827110  46.1241410 151.8640070   3.6751910  36.9636850 147.2406640
   2.7868610  37.3052820 147.1386520   3.9593100  36.7637170 146.3487470
  11.4964870  48.3833350 150.9791610  10.8776310  48.8390850 150.4086050
  12.3516650  48.5384810 150.5781310  10.6903120  44.3672340 152.5858650
  10.6211400  43.4262280 152.4247780  11.4522980  44.4573750 153.1581220
  11.7208290  37.1742720 152.8127580  12.0973110  36.3014600 152.7001250
  11.6227800  37.5101420 151.9218020   5.8513300  35.5468350 148.2745020
   5.9580050  36.4472080 148.5813780   4.9405660  35.4986320 147.9839670
  15.5032410  34.6693160 149.7455920  16.3242030  34.1789730 149.7881400
  15.5366490  35.2590820 150.4987760  12.3628220  43.2672590 148.3723520
  11.7445490  43.7322040 147.8086240  12.8751470  43.9600070 148.7893030
  15.7393890  36.6093540 152.5183460  15.0349460  36.8978430 153.0986570
  16.1006050  37.4193650 152.1583020   9.3400350  32.3545510 151.2048660
   9.6475330  31.7992400 150.4884160   8.4101050  32.4889970 151.0221650
  16.1860830  44.7929020 148.5846290  16.0757160  43.8503350 148.7095710
  16.1829080  45.1544660 149.4709050  11.7281110  40.4194340 147.9408780
  10.8010390  40.3531720 148.1697250  11.8805930  41.3574470 147.8264020
  11.7150190  36.6911340 144.9375940  10.7753860  36.8525300 145.0228400
  12.0333450  37.4097020 144.3911930  15.7578400  41.9814640 148.4444030
  15.1390820  41.6434190 147.7970330  15.7402850  41.3374400 149.1523220
   7.3337750  40.9459080 150.7228510   6.9294750  40.2336330 150.2274410
   7.4200870  40.6012320 151.6116550   7.8019450  44.6326640 152.8867720
   7.5047740  44.0272110 152.2075500   8.7519270  44.6703950 152.7757080
  13.9343100  41.2201450 145.4516780  14.3736380  40.3823880 145.3054600
  14.6471520  41.8530850 145.5380920  12.0438480  46.1597520 149.4198020
  12.4834390  46.9021850 149.0053410  11.9825370  46.4024090 150.3436980
  17.5160240  32.4744260 143.7657820  17.2032900  32.5671090 144.6656890
  18.2772710  33.0525290 143.7155250   4.0342380  39.8404060 148.2235160
   3.9139980  40.5666150 147.6116430   3.7243270  39.0706970 147.7463070
   2.9175380  44.7119390 150.4409980   2.5103460  44.8533980 149.5863580
   3.8088390  44.4279550 150.2381190  14.7108660  49.1466640 146.7761030
  14.5509800  48.8569580 147.6742860  14.5455370  48.3706770 146.2406260
   7.1897040  48.9265170 148.5532650   7.0139520  48.0100710 148.3400450
   6.3352780  49.2852460 148.7930450  14.4134790  46.6554200 145.3359030
  13.7199950  46.6531490 144.6761310  15.1557650  46.2313520 144.9053200
  13.9784720  48.2816910 149.4107520  14.4341670  47.5006290 149.7246140
  14.3177240  48.9923730 149.9548700   6.5006040  33.1839130 151.6058830
   6.0574190  33.9648670 151.2743350   7.0591030  33.5069020 152.3129770
   9.6164860  32.8049830 146.4864660   8.9919040  32.8009700 147.2117970
   9.5294980  31.9380790 146.0900630   6.2920260  38.3072700 149.3340080
   6.0661180  38.0909870 150.2386700   5.5112790  38.7401160 148.9886050
  13.5218020  38.3136070 147.9330730  12.9226910  39.0371870 147.7494350
  14.0697630  38.2512850 147.1507180  12.1282890  36.9499610 149.9634010
  12.5212460  37.2671810 149.1502700  12.4899740  36.0711490 150.0778530
   9.1515420  36.2159560 152.4637280   9.1551480  35.7749510 151.6141820
  10.0466540  36.5376890 152.5709100   5.0017800  36.0986050 151.4231490
   4.6617850  36.5761280 152.1798540   4.2395120  35.6451170 151.0632590
   9.2135570  37.2171640 145.4544040   9.3348390  37.1758120 146.4029860
   8.8284080  38.0795790 145.2990770   8.2257070  39.5272780 144.8527340
   7.6573970  39.0791030 144.2263250   8.9346070  39.8865560 144.3192490
   2.3163880  35.0205030 150.3396160   2.0310800  34.6560700 151.1774780
   2.2542740  34.2885490 149.7259300   5.7704550  43.5230970 147.1253750
   4.9966810  42.9828590 146.9652470   6.4999180  43.0037580 146.7871510
  16.5292530  42.5196330 152.9180140  17.2491650  43.0151620 152.5276250
  16.3274350  41.8414220 152.2734010  11.9902470  33.9134290 147.0609530
  11.1767080  33.4147460 146.9854840  11.7964420  34.7532540 146.6445880
  14.7050860  38.2853940 145.3571690  15.5930480  38.5971170 145.1823030
  14.6755950  37.4126190 144.9652270   5.8141950  43.1911350 150.7632560
   6.3320620  42.3879610 150.7089450   5.3625970  43.1290490 151.6049390
  10.7011450  44.4577630 146.0359860  11.0427150  45.2019860 145.5403180
   9.8724160  44.7708750 146.3984690  16.9765130  39.5965780 144.8251550
  16.8928850  40.0280000 143.9747990  17.6959320  40.0564130 145.2578370
  18.0052380  46.4508040 147.5533680  17.3628540  45.7963660 147.8277400
  17.6183040  46.8563130 146.7774350  13.5838860  43.7793470 151.4005370
  13.9362680  43.1821600 150.7406740  12.7001190  43.4537700 151.5713620
   9.6702140  44.5391160 148.8075780  10.3573270  45.0860370 149.1883370
   8.8834560  45.0831890 148.8425390   8.9729350  41.5437190 148.4201140
   9.4292130  42.3542440 148.6461330   8.6217560  41.2260330 149.2519630
   4.8741130  31.8874840 148.8923660   4.7455760  31.8792740 149.8408580
   4.0503150  32.2257930 148.5414670  16.3949760  45.3424500 144.0910030
  16.1687340  44.6254940 144.6834670  16.0045960  45.0936940 143.2531780
   2.1765790  49.3691360 144.8654490   2.5363430  49.9680700 144.2111760
   2.0358130  49.9151250 145.6389520  15.9766010  43.2596440 145.7524190
  15.6887710  43.7209130 146.5402070  16.7718180  42.7994210 146.0208410
   8.1934410  46.7522560 145.6828160   8.1844510  47.4852250 145.0672670
   7.2732770  46.5054140 145.7755120   3.7941050  41.9737450 146.4274920
   3.1869000  42.7136350 146.4370220   4.2690400  42.0636810 145.6013120
  16.7335870  35.0945210 146.9119370  16.1049030  35.1990880 146.1977600
  16.2387790  35.3141990 147.7013250  11.1794010  46.8150800 144.3453350
  11.2805990  46.6114790 143.4155330  10.2795750  46.5609080 144.5501130
   8.7019900  37.3731160 148.3277250   7.9936050  37.8417500 148.7690860
   8.9864380  36.7153170 148.9622440  12.7335330  34.0981820 149.7673040
  12.6103110  34.1167950 148.8182550  13.6819890  34.1460760 149.8871440
   9.8212120  49.3337120 149.0401020  10.0753620  49.2958510 148.1180390
   8.8724600  49.2070450 149.0329270   6.9054920  35.6816240 145.7027960
   7.7545450  36.1186390 145.6368150   6.5386190  35.9936500 146.5300020
  15.8264700  40.2529000 150.6159530  14.8854840  40.2679230 150.7907220
  16.1408770  39.4664960 151.0619830   5.8046340  41.9348600 144.1763490
   6.5709610  41.8229960 144.7388920   5.8821030  41.2386570 143.5240260
   4.4993100  39.3673670 144.8596380   4.5796690  38.4201180 144.9713780
   5.3912850  39.6980550 144.9657040  17.8290280  47.4237850 152.2913790
  17.9537700  48.2469020 152.7637600  18.6955840  47.2128580 151.9437940
   5.3007810  49.5169060 151.9630920   6.0370290  48.9684520 152.2339490
   5.6848730  50.3825070 151.8236910   8.4110120  48.6899370 143.7856490
   9.2038730  48.9788200 143.3338280   7.8914470  48.2591540 143.1068970
  17.4640290  47.9169500 145.2093230  17.1781800  47.5034640 144.3947410
  17.2659840  48.8457210 145.0893750   8.9287520  43.9102780 143.6498840
   8.8238160  43.2955130 144.3760220   8.7611740  43.3868670 142.8661850
  12.1690250  42.9722810 144.2540830  11.6200350  43.4192110 144.8983570
  12.7909510  42.4672060 144.7778500   7.8365370  41.9313730 146.1506130
   8.2581790  41.7653600 146.9937520   7.9616210  41.1213960 145.6561270
  10.3493010  40.9551340 143.3983230  10.8698670  40.2400360 143.0324380
  10.9961410  41.5937210 143.6983740   6.7324270  38.0046960 143.0964290
   6.5313330  37.1414320 143.4577630   6.5616320  37.9180320 142.1585890
  14.2112580  32.8155190 145.6251170  14.4914870  31.9723090 145.9810590
  13.4378310  33.0478300 146.1389920   5.5307070  35.1047580 143.0842170
   5.8332970  35.1115010 142.1761320   6.2701660  34.7545440 143.5809830
   8.7492000  34.0482200 144.0698370   8.4014000  33.3706190 143.4900820
   8.9504770  33.5871710 144.8841760  10.9141040  49.0362950 145.6884970
  11.8091830  49.3747920 145.7103730  10.9458670  48.3142360 145.0609250
   4.5537200  44.4090000 143.9171970   4.9912070  44.9519670 144.5729550
   5.0384930  43.5836950 143.9268310   1.7683000  47.1979030 151.3692230
   2.0986010  46.3300090 151.1370870   2.1974000  47.4037550 152.1997190
   6.3644920  45.5288040 149.0294200   6.0640460  45.4053010 149.9298110
   6.2582410  44.6696630 148.6209930  19.1336840  45.3084440 143.7320880
  18.3029800  45.3761090 144.2028110  19.3108670  46.1988560 143.4287740
  18.5893300  42.0531920 146.2355080  19.3512210  42.6228570 146.3414770
  18.6047670  41.4859120 147.0063390  19.5953270  42.9082020 151.0797010
  19.9662100  42.1249340 150.6732980  20.2355200  43.5971120 150.9014310
  18.6412470  42.3466290 143.3927600  18.9161310  43.2545170 143.2646820
  18.4523210  42.2828820 144.3289590  15.0388080  35.3711140 144.6881230
  15.4572960  35.1842120 143.8477890  14.7324140  34.5190190 144.9984160
  18.5377810  40.2835280 148.3857030  18.1621410  39.5163210 147.9538320
  17.8080930  40.6657980 148.8731960  17.8128770  38.5092770 151.6864270
  18.3366250  38.0155420 151.0554440  18.3988190  38.6443130 152.4311840
   3.8462930  36.8434320 144.3182450   4.5554630  36.4217540 143.8329730
   3.1302870  36.9109550 143.6865800   3.4937090  32.8973650 143.3585100
   4.2165220  33.4382590 143.6766320   3.7661610  32.6237070 142.4826640
  17.3028740  37.7666120 147.6256680  17.7987860  37.5336990 148.4105560
  17.1044810  36.9277960 147.2094320  18.7315900  36.4027070 150.1594360
  18.6215180  36.2483110 151.0976630  19.4923490  35.8748010 149.9169770
  19.6206170  34.2334990 143.4000500  20.5455480  34.1016170 143.1918790
  19.5981960  34.3127810 144.3536950  19.6944660  35.0045650 146.0257210
  18.8996160  34.9390770 146.5550120  19.8987940  35.9396290 146.0142560
  16.6363080  49.0437200 150.0195600  17.2322150  48.7221770 149.3430020
  16.8941230  48.5709020 150.8108870  16.1264590  33.3342530 152.4756040
  16.5672680  33.2787630 151.6277640  15.8572180  34.2500540 152.5466220
  17.9903160  32.9657770 150.4864860  17.9291560  32.0218990 150.3395880
  18.7695190  33.0737860 151.0318320   2.9183930  32.9366910 146.9520670
   3.6763290  33.0495790 146.3784700   2.4561100  33.7736110 146.9064100
   9.4597740  35.0506180 149.9422980   8.6472250  34.6763070 149.6018860
   9.9639380  34.2951260 150.2444170  13.9622720  31.7148630 151.1806050
  14.5652090  32.2868840 151.6554570  13.2215710  32.2788070 150.9579950
  17.1057320  32.1170190 146.4546330  17.3007950  33.0153640 146.7213760
  16.3187190  31.8857270 146.9479280   3.9018610  47.7983360 146.8938950
   3.3766230  48.1791390 146.1900910   3.8263190  48.4234130 147.6148660
   5.2909080  33.4630960 145.4922640   5.8201840  32.6760760 145.3630590
   5.9237400  34.1422150 145.7258170   7.4846920  33.2006100 148.5468030
   6.8549660  32.4993410 148.7138160   6.9452060  33.9610230 148.3301190
  18.6583930  49.3570900 148.2152890  18.8336120  48.6708640 147.5713810
  17.9605500  49.8817950 147.8229560   6.5011580  49.7465740 145.7688200
   7.2330400  49.4625020 145.2212090   6.7605250  49.5079020 146.6587580
   5.6626370  45.8630470 145.7734530   5.0335250  46.3315570 146.3220360
   5.7774200  45.0179690 146.2080720  13.1176090  39.9136130 131.9235730
  13.0370140  38.9990740 131.6527440  12.7040510  40.4103200 131.2175440
  11.2494130  41.6915150 133.8045000  10.4736230  41.2115590 134.0943570
  11.9007060  41.0120800 133.6301160   5.2659960  42.0034960 134.6820760
   4.4344840  41.7483670 135.0817270   5.8740940  42.0745730 135.4178680
  15.2701560  46.0975340 132.5844130  14.8083090  45.3262580 132.9131300
  16.0827110  46.1241410 133.0896580   5.2461220  46.0375050 134.8778780
   5.5489260  45.1472790 134.6989000   5.9904810  46.5945270 134.6501030
   3.6751910  36.9636850 128.4663150   2.7868610  37.3052820 128.3643030
   3.9593100  36.7637170 127.5743980  11.4964870  48.3833350 132.2048120
  10.8776310  48.8390850 131.6342560  12.3516650  48.5384810 131.8037820
  10.6903120  44.3672340 133.8115160  10.6211400  43.4262280 133.6504290
  11.4522980  44.4573750 134.3837730   2.8809790  34.9726860 136.1371780
   2.7012630  34.0752610 136.4174540   2.4789870  35.5198730 136.8118730
  11.7208290  37.1742720 134.0384090  12.0973110  36.3014600 133.9257760
  11.6227800  37.5101420 133.1474530   5.8513300  35.5468350 129.5001530
   5.9580050  36.4472080 129.8070290   4.9405660  35.4986320 129.2096180
  15.5032410  34.6693160 130.9712430  16.3242030  34.1789730 131.0137910
  15.5366490  35.2590820 131.7244270   3.4996460  37.4687360 134.7454120
   4.1806570  37.7325730 135.3641520   3.1844510  36.6288230 135.0792130
   7.6921030  38.5154720 133.8326710   8.1999250  39.0135690 134.4731730
   8.2234270  37.7389920 133.6566070  19.7931960  36.6859910 137.5356060
  19.0884130  37.0741620 137.0171170  20.0589880  37.3810200 138.1376990
   5.9757130  33.1553280 138.0990130   5.9775570  33.6725670 137.2936030
   5.1461440  32.6783460 138.0760060  12.3628220  43.2672590 129.5980030
  11.7445490  43.7322040 129.0342750  12.8751470  43.9600070 130.0149540
   7.2259980  42.7948460 136.2763630   6.8929360  43.4217380 136.9184700
   7.4026660  43.3210340 135.4965300  15.7393890  36.6093540 133.7439970
  15.0349460  36.8978430 134.3243080  16.1006050  37.4193650 133.3839530
   5.6572460  34.8663240 136.1060580   5.9989270  35.7105290 135.8114450
   4.7188270  35.0146980 136.2225920   6.4379080  44.7629260 138.0912810
   7.0553080  45.4380340 137.8097260   5.5772200  45.1717240 138.0000310
  17.3556670  46.2268670 136.0067450  16.6720190  46.8967780 135.9984120
  17.8950960  46.4249320 135.2412310  18.8080810  36.0548330 134.1349180
  17.8605720  36.0887310 134.2664610  19.1330800  36.8687280 134.5198540
   9.3400350  32.3545510 132.4305170   9.6475330  31.7992400 131.7140670
   8.4101050  32.4889970 132.2478160  14.8915410  48.0712800 134.7212630
  14.9042570  47.6675090 133.8534890  14.3390630  48.8460090 134.6174060
  16.1860830  44.7929020 129.8102800  16.0757160  43.8503350 129.9352220
  16.1829080  45.1544660 130.6965560  14.2900850  42.9742640 136.0495240
  14.7069640  42.7602750 135.2148700  15.0140670  43.2315430 136.6203860
  11.7281110  40.4194340 129.1665290  10.8010390  40.3531720 129.3953760
  11.8805930  41.3574470 129.0520530  11.7150190  36.6911340 126.1632450
  10.7753860  36.8525300 126.2484910  12.0333450  37.4097020 125.6168440
  18.2362950  41.3729860 136.1411480  17.4081580  41.4422950 135.6661610
  18.8313430  41.9584170 135.6727310  15.7578400  41.9814640 129.6700540
  15.1390820  41.6434190 129.0226840  15.7402850  41.3374400 130.3779730
  15.2004960  38.1599180 137.0866350  14.7876140  38.9852890 137.3406340
  14.4680910  37.5744220 136.8942710   7.3337750  40.9459080 131.9485020
   6.9294750  40.2336330 131.4530920   7.4200870  40.6012320 132.8373060
   7.8019450  44.6326640 134.1124230   7.5047740  44.0272110 133.4332010
   8.7519270  44.6703950 134.0013590   6.0466370  37.7202290 135.7284060
   6.5980960  37.8297630 134.9537310   6.5609880  38.0939890 136.4439290
  15.8905060  48.2058510 137.7747330  15.4135620  49.0130700 137.5819940
  15.2066850  47.5536840 137.9273540   6.8937880  44.3708330 140.7632030
   5.9966410  44.5948300 141.0105430   6.9190750  44.4943270 139.8143430
  13.9343100  41.2201450 126.6773290  14.3736380  40.3823880 126.5311110
  14.6471520  41.8530850 126.7637430   5.7209100  41.2421650 139.3389400
   5.5816870  42.1144450 139.7076800   4.8390460  40.8994460 139.1937340
  12.0438480  46.1597520 130.6454530  12.4834390  46.9021850 130.2309920
  11.9825370  46.4024090 131.5693490   7.5189450  47.1843350 141.5474550
   7.4904880  47.5886300 140.6802980   7.3554420  46.2553710 141.3846150
  17.5160240  32.4744260 124.9914330  17.2032900  32.5671090 125.8913400
  18.2772710  33.0525290 124.9411760   4.0342380  39.8404060 129.4491670
   3.9139980  40.5666150 128.8372940   3.7243270  39.0706970 128.9719580
  19.4704270  47.9670450 142.8438720  19.9463990  48.4453340 143.5227800
  20.0911430  47.8987940 142.1184220   2.9175380  44.7119390 131.6666490
   2.5103460  44.8533980 130.8120090   3.8088390  44.4279550 131.4637700
  18.8737520  45.1583300 140.0038730  19.0000580  44.9195180 139.0855910
  18.9158900  44.3267840 140.4760810  12.7354260  48.8611300 138.5733540
  13.2498930  48.7719310 139.3755970  11.8923340  49.2071000 138.8661450
  14.7108660  49.1466640 128.0017540  14.5509800  48.8569580 128.8999370
  14.5455370  48.3706770 127.4662770   7.1897040  48.9265170 129.7789160
   7.0139520  48.0100710 129.5656960   6.3352780  49.2852460 130.0186960
  14.4134790  46.6554200 126.5615540  13.7199950  46.6531490 125.9017820
  15.1557650  46.2313520 126.1309710  13.9784720  48.2816910 130.6364030
  14.4341670  47.5006290 130.9502650  14.3177240  48.9923730 131.1805210
  18.7261530  37.2115760 140.9688470  18.1105800  37.7195430 140.4403930
  18.4057950  36.3114090 140.9114410   6.5006040  33.1839130 132.8315340
   6.0574190  33.9648670 132.4999860   7.0591030  33.5069020 133.5386280
  10.7875850  36.0507650 138.4350660  10.3255220  36.2590670 139.2470600
  10.3853960  35.2367000 138.1321330  15.7880360  37.2716600 139.5647320
  14.9373950  36.9722350 139.8856390  15.6282150  37.5158610 138.6531140
  12.8830070  38.7718350 141.6646110  13.2083480  37.9382100 141.3248340
  13.6710400  39.2946870 141.8124440   9.6164860  32.8049830 127.7121170
   8.9919040  32.8009700 128.4374480   9.5294980  31.9380790 127.3157140
   8.5381940  33.7286460 134.6904940   8.8354270  34.6349290 134.6096960
   9.0867500  33.2405240 134.0764510   6.2920260  38.3072700 130.5596590
   6.0661180  38.0909870 131.4643210   5.5112790  38.7401160 130.2142560
  13.5218020  38.3136070 129.1587240  12.9226910  39.0371870 128.9750860
  14.0697630  38.2512850 128.3763690   8.7319470  39.2058280 141.2256860
   8.6363070  38.2653010 141.0757260   9.5751450  39.4273350 140.8304930
  12.1282890  36.9499610 131.1890520  12.5212460  37.2671810 130.3759210
  12.4899740  36.0711490 131.3035040   3.8630010  35.6171950 139.3790640
   3.4693400  36.4647160 139.5863420   3.1748410  34.9798320 139.5699280
  10.4375060  35.7006920 142.4487380   9.7473380  35.5079120 143.0833470
  11.1807360  35.9841560 142.9811680  12.7138030  39.5405360 135.2841300
  11.9819150  40.0492170 135.6331400  12.3162370  38.7235340 134.9830080
   9.1515420  36.2159560 133.6893790   9.1551480  35.7749510 132.8398330
  10.0466540  36.5376890 133.7965610   5.0017800  36.0986050 132.6488000
   4.6617850  36.5761280 133.4055050   4.2395120  35.6451170 132.2889100
   9.2135570  37.2171640 126.6800550   9.3348390  37.1758120 127.6286370
   8.8284080  38.0795790 126.5247280  13.1763940  34.9939040 134.6964240
  13.1936680  35.4447690 135.5406090  12.9279520  34.0944680 134.9097680
   8.2257070  39.5272780 126.0783850   7.6573970  39.0791030 125.4519760
   8.9346070  39.8865560 125.5449000  16.6034690  32.4071220 140.5350620
  16.9280460  31.6760880 141.0608600  16.6391200  32.0884860 139.6331610
   3.3026250  43.4284800 139.9550580   2.9181040  42.7878470 140.5533540
   3.6138440  44.1320920 140.5245310   9.4523390  40.2761340 135.4359200
   9.8193520  39.8019910 136.1820540   9.2628450  41.1502910 135.7767540
   2.3163880  35.0205030 131.5652670   2.0310800  34.6560700 132.4031290
   2.2542740  34.2885490 130.9515810   7.2422760  39.3169980 137.7543410
   6.9379830  40.1961960 137.9793770   8.1969220  39.3769770 137.7900850
   5.7704550  43.5230970 128.3510260   4.9966810  42.9828590 128.1908980
   6.4999180  43.0037580 128.0128020  16.5292530  42.5196330 134.1436650
  17.2491650  43.0151620 133.7532760  16.3274350  41.8414220 133.4990520
  11.9902470  33.9134290 128.2866040  11.1767080  33.4147460 128.2111350
  11.7964420  34.7532540 127.8702390  11.9111330  42.5905390 140.0305650
  11.8448640  41.6701060 139.7763240  11.2816470  42.6880830 140.7450290
  14.7050860  38.2853940 126.5828200  15.5930480  38.5971170 126.4079540
  14.6755950  37.4126190 126.1908780   5.8141950  43.1911350 131.9889070
   6.3320620  42.3879610 131.9345960   5.3625970  43.1290490 132.8305900
  10.7011450  44.4577630 127.2616370  11.0427150  45.2019860 126.7659690
   9.8724160  44.7708750 127.6241200   3.2986490  40.1572720 138.9014770
   2.9401430  40.8226570 139.4888110   3.0041050  39.3256270 139.2727390
   6.4999610  40.6156960 141.7854320   6.1999750  40.7614140 140.8882140
   7.2710850  40.0562250 141.6927710  11.8428060  45.4125960 139.7809450
  11.8572600  44.4806920 139.5628360  11.1353160  45.4985720 140.4199220
  16.9765130  39.5965780 126.0508060  16.8928850  40.0280000 125.2004500
  17.6959320  40.0564130 126.4834880  18.0539270  42.0533300 139.1278030
  17.3287460  42.6462080 138.9307420  18.5814730  42.0456840 138.3291400
  18.0052380  46.4508040 128.7790190  17.3628540  45.7963660 129.0533910
  17.6183040  46.8563130 128.0030860  13.5838860  43.7793470 132.6261880
  13.9362680  43.1821600 131.9663250  12.7001190  43.4537700 132.7970130
   9.6702140  44.5391160 130.0332290  10.3573270  45.0860370 130.4139880
   8.8834560  45.0831890 130.0681900   8.9729350  41.5437190 129.6457650
   9.4292130  42.3542440 129.8717840   8.6217560  41.2260330 130.4776140
  11.2761960  47.0543530 136.8749950  11.9204180  47.2602910 137.5523370
  11.6391400  46.2931930 136.4220800   4.8741130  31.8874840 130.1180170
   4.7455760  31.8792740 131.0665090   4.0503150  32.2257930 129.7671180
  12.5494040  45.0575880 135.5927400  13.1916270  44.3569040 135.7059570
  13.0743390  45.8374320 135.4124290  16.3949760  45.3424500 125.3166540
  16.1687340  44.6254940 125.9091180  16.0045960  45.0936940 124.4788290
  14.3231660  45.8570780 138.7963460  14.6587900  46.4437470 139.4741380
  13.4032000  45.7263490 139.0261250   2.1765790  49.3691360 126.0911000
   2.5363430  49.9680700 125.4368270   2.0358130  49.9151250 126.8646030
  15.9766010  43.2596440 126.9780700  15.6887710  43.7209130 127.7658580
  16.7718180  42.7994210 127.2464920  10.1520240  45.9062110 141.9651520
   9.8317110  45.1871350 142.5097210   9.4778600  46.5817180 142.0387580
   8.1934410  46.7522560 126.9084670   8.1844510  47.4852250 126.2929180
   7.2732770  46.5054140 127.0011630   3.7941050  41.9737450 127.6531430
   3.1869000  42.7136350 127.6626730   4.2690400  42.0636810 126.8269630
  13.3673840  36.1388270 137.3288320  13.7354660  35.3183480 137.6567890
  12.5072040  36.1990160 137.7443970  16.7335870  35.0945210 128.1375880
  16.1049030  35.1990880 127.4234110  16.2387790  35.3141990 128.9269760
  11.1794010  46.8150800 125.5709860  11.2805990  46.6114790 124.6411840
  10.2795750  46.5609080 125.7757640   8.7019900  37.3731160 129.5533760
   7.9936050  37.8417500 129.9947370   8.9864380  36.7153170 130.1878950
  10.3275830  38.7927860 137.5526290  10.8261080  39.2673680 138.2178140
  10.4698780  37.8691380 137.7596320  12.7335330  34.0981820 130.9929550
  12.6103110  34.1167950 130.0439060  13.6819890  34.1460760 131.1127950
   9.8212120  49.3337120 130.2657530  10.0753620  49.2958510 129.3436900
   8.8724600  49.2070450 130.2585780   6.9054920  35.6816240 126.9284470
   7.7545450  36.1186390 126.8624660   6.5386190  35.9936500 127.7556530
  17.5342690  35.0095820 138.3954680  17.0316290  35.7501220 138.7348490
  18.3499350  35.3979820 138.0791470  15.8264700  40.2529000 131.8416040
  14.8854840  40.2679230 132.0163730  16.1408770  39.4664960 132.2876340
   5.8046340  41.9348600 125.4020000   6.5709610  41.8229960 125.9645430
   5.8821030  41.2386570 124.7496770   4.4993100  39.3673670 126.0852890
   4.5796690  38.4201180 126.1970290   5.3912850  39.6980550 126.1913550
  17.8290280  47.4237850 133.5170300  17.9537700  48.2469020 133.9894110
  18.6955840  47.2128580 133.1694450   5.3007810  49.5169060 133.1887430
   6.0370290  48.9684520 133.4596000   5.6848730  50.3825070 133.0493420
   4.3066090  48.7015130 142.3773010   5.1078820  49.0227180 142.7908410
   3.7917910  48.3410710 143.0992920   8.4110120  48.6899370 125.0113000
   9.2038730  48.9788200 124.5594790   7.8914470  48.2591540 124.3325480
  13.1430720  44.8095000 142.3248420  12.5368880  44.8326600 141.5844170
  12.8384830  44.0778040 142.8615670  14.5731090  48.5375290 140.9357830
  15.5252840  48.4533310 140.8858070  14.4259310  49.2017000 141.6091620
  17.4640290  47.9169500 126.4349740  17.1781800  47.5034640 125.6203920
  17.2659840  48.8457210 126.3150260   8.9287520  43.9102780 124.8755350
   8.8238160  43.2955130 125.6016730   8.7611740  43.3868670 124.0918360
   9.0801840  42.5959580 140.8544580   8.3147510  43.1644580 140.7699250
   9.2617800  42.3035790 139.9612810  12.1690250  42.9722810 125.4797340
  11.6200350  43.4192110 126.1240080  12.7909510  42.4672060 126.0035010
  16.2225190  44.3264910 141.4119600  16.9634660  44.6640670 140.9087060
  15.4597870  44.4956970 140.8589370   4.0586980  39.3318180 142.2159130
   4.0992320  39.0332050 143.1244360   4.9132480  39.7325790 142.0566650
   7.8365370  41.9313730 127.3762640   8.2581790  41.7653600 128.2194030
   7.9616210  41.1213960 126.8817780   5.9992790  37.9110280 140.1833620
   5.4689250  37.4201230 139.5556960   6.6680860  38.3394480 139.6491550
  10.3493010  40.9551340 124.6239740  10.8698670  40.2400360 124.2580890
  10.9961410  41.5937210 124.9240250  14.8970850  42.3779740 139.9474810
  15.3111870  42.5324820 140.7965230  13.9621850  42.5034960 140.1100590
  15.3693020  39.7175900 141.9513960  15.9513790  38.9628220 141.8634440
  15.5454790  40.2483340 141.1745440   6.4865090  34.8772650 140.2630910
   6.3921960  34.2593400 139.5381780   5.9062480  35.6038940 140.0360820
   9.2526530  33.4345890 137.2958300   8.8043830  33.4570150 136.4503850
   8.6191730  33.0364910 137.8928600   9.6586080  42.3300220 137.9170740
  10.0774190  43.1732950 137.7446980   8.7394710  42.4672260 137.6877520
  11.9949980  40.0616400 139.3008580  12.1146190  39.4657540 140.0403420
  12.8543980  40.0986090 138.8809880  14.3337880  40.6153590 137.8771090
  13.8073100  41.1396210 137.2736230  14.6769220  41.2480980 138.5080820
   6.7324270  38.0046960 124.3220800   6.5313330  37.1414320 124.6834140
   6.5616320  37.9180320 123.3842400   7.5093500  48.6353230 139.0328470
   6.9714590  49.3599290 138.7137170   7.7627460  48.1583570 138.2425810
   8.7618750  36.6037750 140.5584400   9.3518440  36.2953600 141.2462220
   7.9438990  36.1317500 140.7144300  13.5812180  36.2203560 140.7917420
  12.8927700  35.5585100 140.7267410  14.3018200  35.7741830 141.2365880
  14.2112580  32.8155190 126.8507680  14.4914870  31.9723090 127.2067100
  13.4378310  33.0478300 127.3646430   5.5307070  35.1047580 124.3098680
   5.8332970  35.1115010 123.4017830   6.2701660  34.7545440 124.8066340
  10.3655710  49.8704440 139.2915120  10.2914410  50.7739580 139.5987490
   9.4634550  49.5516340 139.2637190   8.7492000  34.0482200 125.2954880
   8.4014000  33.3706190 124.7157330   8.9504770  33.5871710 126.1098270
  10.9141040  49.0362950 126.9141480  11.8091830  49.3747920 126.9360240
  10.9458670  48.3142360 126.2865760   4.5537200  44.4090000 125.1428480
   4.9912070  44.9519670 125.7986060   5.0384930  43.5836950 125.1524820
   1.7683000  47.1979030 132.5948740   2.0986010  46.3300090 132.3627380
   2.1974000  47.4037550 133.4253700   6.3644920  45.5288040 130.2550710
   6.0640460  45.4053010 131.1554620   6.2582410  44.6696630 129.8466440
   2.2573210  48.0649620 135.3330370   1.8204200  48.2450420 136.1654520
   2.8250890  48.8224240 135.1912090  17.8935390  47.5666620 139.6207680
  17.2937380  47.6259180 138.8771600  18.0229290  46.6271600 139.7504530
  19.1336840  45.3084440 124.9577390  18.3029800  45.3761090 125.4284620
  19.3108670  46.1988560 124.6544250  18.5893300  42.0531920 127.4611590
  19.3512210  42.6228570 127.5671280  18.6047670  41.4859120 128.2319900
  19.5953270  42.9082020 132.3053520  19.9662100  42.1249340 131.8989490
  20.2355200  43.5971120 132.1270820  16.5787030  44.2918600 137.7183840
  15.7646870  44.7215760 137.9809630  16.9861230  44.9037010 137.1052890
  18.6412470  42.3466290 124.6184110  18.9161310  43.2545170 124.4903330
  18.4523210  42.2828820 125.5546100  15.0388080  35.3711140 125.9137740
  15.4572960  35.1842120 125.0734400  14.7324140  34.5190190 126.2240670
  18.5377810  40.2835280 129.6113540  18.1621410  39.5163210 129.1794830
  17.8080930  40.6657980 130.0988470   3.1273570  40.9622420 136.2322590
   3.4946610  40.8749820 137.1118610   2.5584390  40.1988970 136.1329450
  17.9277430  39.4306800 139.2453060  17.6963520  39.2019550 138.3451010
  18.1881980  40.3506350 139.1997950   2.6789570  37.8731510 140.1381010
   1.7845620  37.8398270 140.4774720   3.2187120  38.0718300 140.9032260
  16.3665500  34.6563230 142.0232760  17.2435680  34.6646630 142.4066760
  16.3786340  33.9194070 141.4125110  17.8128770  38.5092770 132.9120780
  18.3366250  38.0155420 132.2810950  18.3988190  38.6443130 133.6568350
  17.9918490  38.5932640 136.4340330  17.0421200  38.5596180 136.5485320
  18.1731500  39.5032750 136.1990100   3.8462930  36.8434320 125.5438960
   4.5554630  36.4217540 125.0586240   3.1302870  36.9109550 124.9122310
   3.4937090  32.8973650 124.5841610   4.2165220  33.4382590 124.9022830
   3.7661610  32.6237070 123.7083150  17.3028740  37.7666120 128.8513190
  17.7987860  37.5336990 129.6362070  17.1044810  36.9277960 128.4350830
   3.1829280  32.1479840 134.4864230   3.8305470  31.5977220 134.0459390
   3.6031120  32.4022990 135.3080040  18.7315900  36.4027070 131.3850870
  18.6215180  36.2483110 132.3233140  19.4923490  35.8748010 131.1426280
  17.0781620  32.3421200 137.8433870  17.7153840  32.9555340 138.2093060
  17.2256510  32.3781860 136.8983100  19.6206170  34.2334990 124.6257010
  20.5455480  34.1016170 124.4175300  19.5981960  34.3127810 125.5793460
  19.6944660  35.0045650 127.2513720  18.8996160  34.9390770 127.7806630
  19.8987940  35.9396290 127.2399070  16.6363080  49.0437200 131.2452110
  17.2322150  48.7221770 130.5686530  16.8941230  48.5709020 132.0365380
   2.9361280  32.3035510 137.2289550   2.5876100  32.7599330 137.9947730
   2.6048980  31.4092640 137.3111980   4.5425650  45.4755110 141.3942740
   4.4995280  45.1048020 142.2757200   4.6736660  46.4132680 141.5344560
   8.2431680  47.0314700 136.9952460   8.0023040  47.2989260 136.1082980
   9.1834320  47.2020430 137.0503320  10.4486100  33.4947390 140.7508970
  10.3874990  34.0869220 141.5004380  11.3886480  33.3873350 140.6059230
  13.0860660  33.1517450 140.3901260  13.7001070  33.4696740 139.7282340
  13.6310220  32.6666040 141.0097120  19.5035840  49.0509080 137.7963100
  19.0094120  49.4477950 137.0790230  18.8949130  48.4258290 138.1900380
   3.6081920  31.8311710 140.5040320   4.1564910  31.6499760 139.7406430
   3.6737230  31.0405820 141.0396630   4.3813680  48.4217360 138.5140520
   3.7874000  48.2902060 139.2530560   4.3737520  47.5855500 138.0482620
  13.8268700  31.7149590 136.7170550  12.9528540  32.0484700 136.5143480
  13.7179450  31.2422770 137.5422420  14.7340680  33.9220460 138.1012270
  14.4054040  33.1072220 137.7214000  15.6822980  33.8790270 137.9777960
  17.1875290  49.6932500 135.0749840  16.7278260  50.4448310 134.7007860
  16.5587750  48.9738970 135.0164640   4.0125910  45.7875740 137.4648560
   3.2859970  45.1681030 137.3974510   4.0735060  46.1816350 136.5946640
   7.6171010  48.0020740 134.2497970   8.1336030  47.3908100 133.7246230
   8.2668390  48.5049520 134.7408980  10.3566510  48.8929230 135.0766950
  10.6444320  48.6383530 134.1999960  10.8689730  48.3406590 135.6672520
  11.5743520  32.6319430 135.6563460  10.7915310  33.1064930 135.9360220
  11.2806450  31.7274260 135.5476640  16.1264590  33.3342530 133.7012550
  16.5672680  33.2787630 132.8534150  15.8572180  34.2500540 133.7722730
  17.9903160  32.9657770 131.7121370  17.9291560  32.0218990 131.5652390
  18.7695190  33.0737860 132.2574830   2.9183930  32.9366910 128.1777180
   3.6763290  33.0495790 127.6041210   2.4561100  33.7736110 128.1320610
   9.4597740  35.0506180 131.1679490   8.6472250  34.6763070 130.8275370
   9.9639380  34.2951260 131.4700680  13.9622720  31.7148630 132.4062560
  14.5652090  32.2868840 132.8811080  13.2215710  32.2788070 132.1836460
  17.1057320  32.1170190 127.6802840  17.3007950  33.0153640 127.9470270
  16.3187190  31.8857270 128.1735790   3.9018610  47.7983360 128.1195460
   3.3766230  48.1791390 127.4157420   3.8263190  48.4234130 128.8405170
   5.2909080  33.4630960 126.7179150   5.8201840  32.6760760 126.5887100
   5.9237400  34.1422150 126.9514680   7.4846920  33.2006100 129.7724540
   6.8549660  32.4993410 129.9394670   6.9452060  33.9610230 129.5557700
  10.4238870  49.8145330 142.4435150  11.3506180  49.5789600 142.4871110
  10.4089300  50.6417330 141.9621180  18.6583930  49.3570900 129.4409400
  18.8336120  48.6708640 128.7970320  17.9605500  49.8817950 129.0486070
   7.6102480  32.4790080 142.2077030   7.3286750  32.9823680 141.4437850
   7.9922180  31.6811830 141.8419160   6.5011580  49.7465740 126.9944710
   7.2330400  49.4625020 126.4468600   6.7605250  49.5079020 127.8844090
   5.6626370  45.8630470 126.9991040   5.0335250  46.3315570 127.5476870
   5.7774200  45.0179690 127.4337230  14.2117940  31.8943660 142.7857500
  14.0983390  32.2138270 143.6809020  15.0287680  32.2956170 142.4894780
  16.9916430  49.0415190 142.2676190  17.7841750  48.5464420 142.0602150
  17.2849580  49.7205330 142.8751800  13.1176090  39.9136130 113.1492240
  13.0370140  38.9990740 112.8783950  12.7040510  40.4103200 112.4431950
  11.2494130  41.6915150 115.0301510  10.4736230  41.2115590 115.3200080
  11.9007060  41.0120800 114.8557670   5.2659960  42.0034960 115.9077270
   4.4344840  41.7483670 116.3073780   5.8740940  42.0745730 116.6435190
  15.2701560  46.0975340 113.8100640  14.8083090  45.3262580 114.1387810
  16.0827110  46.1241410 114.3153090   5.2461220  46.0375050 116.1035290
   5.5489260  45.1472790 115.9245510   5.9904810  46.5945270 115.8757540
   3.6751910  36.9636850 109.6919660   2.7868610  37.3052820 109.5899540
   3.9593100  36.7637170 108.8000490  11.4964870  48.3833350 113.4304630
  10.8776310  48.8390850 112.8599070  12.3516650  48.5384810 113.0294330
  10.6903120  44.3672340 115.0371670  10.6211400  43.4262280 114.8760800
  11.4522980  44.4573750 115.6094240   2.8809790  34.9726860 117.3628290
   2.7012630  34.0752610 117.6431050   2.4789870  35.5198730 118.0375240
  11.7208290  37.1742720 115.2640600  12.0973110  36.3014600 115.1514270
  11.6227800  37.5101420 114.3731040   5.8513300  35.5468350 110.7258040
   5.9580050  36.4472080 111.0326800   4.9405660  35.4986320 110.4352690
  15.5032410  34.6693160 112.1968940  16.3242030  34.1789730 112.2394420
  15.5366490  35.2590820 112.9500780   3.4996460  37.4687360 115.9710630
   4.1806570  37.7325730 116.5898030   3.1844510  36.6288230 116.3048640
   7.6921030  38.5154720 115.0583220   8.1999250  39.0135690 115.6988240
   8.2234270  37.7389920 114.8822580  19.7931960  36.6859910 118.7612570
  19.0884130  37.0741620 118.2427680  20.0589880  37.3810200 119.3633500
   5.9757130  33.1553280 119.3246640   5.9775570  33.6725670 118.5192540
   5.1461440  32.6783460 119.3016570  12.3628220  43.2672590 110.8236540
  11.7445490  43.7322040 110.2599260  12.8751470  43.9600070 111.2406050
   7.2259980  42.7948460 117.5020140   6.8929360  43.4217380 118.1441210
   7.4026660  43.3210340 116.7221810  15.7393890  36.6093540 114.9696480
  15.0349460  36.8978430 115.5499590  16.1006050  37.4193650 114.6096040
   5.6572460  34.8663240 117.3317090   5.9989270  35.7105290 117.0370960
   4.7188270  35.0146980 117.4482430   6.4379080  44.7629260 119.3169320
   7.0553080  45.4380340 119.0353770   5.5772200  45.1717240 119.2256820
  17.3556670  46.2268670 117.2323960  16.6720190  46.8967780 117.2240630
  17.8950960  46.4249320 116.4668820  18.8080810  36.0548330 115.3605690
  17.8605720  36.0887310 115.4921120  19.1330800  36.8687280 115.7455050
   9.3400350  32.3545510 113.6561680   9.6475330  31.7992400 112.9397180
   8.4101050  32.4889970 113.4734670  14.8915410  48.0712800 115.9469140
  14.9042570  47.6675090 115.0791400  14.3390630  48.8460090 115.8430570
  16.1860830  44.7929020 111.0359310  16.0757160  43.8503350 111.1608730
  16.1829080  45.1544660 111.9222070  14.2900850  42.9742640 117.2751750
  14.7069640  42.7602750 116.4405210  15.0140670  43.2315430 117.8460370
  11.7281110  40.4194340 110.3921800  10.8010390  40.3531720 110.6210270
  11.8805930  41.3574470 110.2777040  11.7150190  36.6911340 107.3888960
  10.7753860  36.8525300 107.4741420  12.0333450  37.4097020 106.8424950
  18.2362950  41.3729860 117.3667990  17.4081580  41.4422950 116.8918120
  18.8313430  41.9584170 116.8983820  15.7578400  41.9814640 110.8957050
  15.1390820  41.6434190 110.2483350  15.7402850  41.3374400 111.6036240
  15.2004960  38.1599180 118.3122860  14.7876140  38.9852890 118.5662850
  14.4680910  37.5744220 118.1199220   7.3337750  40.9459080 113.1741530
   6.9294750  40.2336330 112.6787430   7.4200870  40.6012320 114.0629570
   7.8019450  44.6326640 115.3380740   7.5047740  44.0272110 114.6588520
   8.7519270  44.6703950 115.2270100   6.0466370  37.7202290 116.9540570
   6.5980960  37.8297630 116.1793820   6.5609880  38.0939890 117.6695800
  15.8905060  48.2058510 119.0003840  15.4135620  49.0130700 118.8076450
  15.2066850  47.5536840 119.1530050   6.8937880  44.3708330 121.9888540
   5.9966410  44.5948300 122.2361940   6.9190750  44.4943270 121.0399940
  13.9343100  41.2201450 107.9029800  14.3736380  40.3823880 107.7567620
  14.6471520  41.8530850 107.9893940   5.7209100  41.2421650 120.5645910
   5.5816870  42.1144450 120.9333310   4.8390460  40.8994460 120.4193850
  12.0438480  46.1597520 111.8711040  12.4834390  46.9021850 111.4566430
  11.9825370  46.4024090 112.7950000   7.5189450  47.1843350 122.7731060
   7.4904880  47.5886300 121.9059490   7.3554420  46.2553710 122.6102660
  17.5160240  32.4744260 106.2170840  17.2032900  32.5671090 107.1169910
  18.2772710  33.0525290 106.1668270   4.0342380  39.8404060 110.6748180
   3.9139980  40.5666150 110.0629450   3.7243270  39.0706970 110.1976090
  19.4704270  47.9670450 124.0695230  19.9463990  48.4453340 124.7484310
  20.0911430  47.8987940 123.3440730   2.9175380  44.7119390 112.8923000
   2.5103460  44.8533980 112.0376600   3.8088390  44.4279550 112.6894210
  18.8737520  45.1583300 121.2295240  19.0000580  44.9195180 120.3112420
  18.9158900  44.3267840 121.7017320  12.7354260  48.8611300 119.7990050
  13.2498930  48.7719310 120.6012480  11.8923340  49.2071000 120.0917960
  14.7108660  49.1466640 109.2274050  14.5509800  48.8569580 110.1255880
  14.5455370  48.3706770 108.6919280   7.1897040  48.9265170 111.0045670
   7.0139520  48.0100710 110.7913470   6.3352780  49.2852460 111.2443470
  14.4134790  46.6554200 107.7872050  13.7199950  46.6531490 107.1274330
  15.1557650  46.2313520 107.3566220  13.9784720  48.2816910 111.8620540
  14.4341670  47.5006290 112.1759160  14.3177240  48.9923730 112.4061720
  18.7261530  37.2115760 122.1944980  18.1105800  37.7195430 121.6660440
  18.4057950  36.3114090 122.1370920   6.5006040  33.1839130 114.0571850
   6.0574190  33.9648670 113.7256370   7.0591030  33.5069020 114.7642790
  10.7875850  36.0507650 119.6607170  10.3255220  36.2590670 120.4727110
  10.3853960  35.2367000 119.3577840  15.7880360  37.2716600 120.7903830
  14.9373950  36.9722350 121.1112900  15.6282150  37.5158610 119.8787650
  12.8830070  38.7718350 122.8902620  13.2083480  37.9382100 122.5504850
  13.6710400  39.2946870 123.0380950   9.6164860  32.8049830 108.9377680
   8.9919040  32.8009700 109.6630990   9.5294980  31.9380790 108.5413650
   8.5381940  33.7286460 115.9161450   8.8354270  34.6349290 115.8353470
   9.0867500  33.2405240 115.3021020   6.2920260  38.3072700 111.7853100
   6.0661180  38.0909870 112.6899720   5.5112790  38.7401160 111.4399070
  13.5218020  38.3136070 110.3843750  12.9226910  39.0371870 110.2007370
  14.0697630  38.2512850 109.6020200   8.7319470  39.2058280 122.4513370
   8.6363070  38.2653010 122.3013770   9.5751450  39.4273350 122.0561440
  12.1282890  36.9499610 112.4147030  12.5212460  37.2671810 111.6015720
  12.4899740  36.0711490 112.5291550   3.8630010  35.6171950 120.6047150
   3.4693400  36.4647160 120.8119930   3.1748410  34.9798320 120.7955790
  10.4375060  35.7006920 123.6743890   9.7473380  35.5079120 124.3089980
  11.1807360  35.9841560 124.2068190  12.7138030  39.5405360 116.5097810
  11.9819150  40.0492170 116.8587910  12.3162370  38.7235340 116.2086590
   9.1515420  36.2159560 114.9150300   9.1551480  35.7749510 114.0654840
  10.0466540  36.5376890 115.0222120   5.0017800  36.0986050 113.8744510
   4.6617850  36.5761280 114.6311560   4.2395120  35.6451170 113.5145610
   9.2135570  37.2171640 107.9057060   9.3348390  37.1758120 108.8542880
   8.8284080  38.0795790 107.7503790  13.1763940  34.9939040 115.9220750
  13.1936680  35.4447690 116.7662600  12.9279520  34.0944680 116.1354190
   8.2257070  39.5272780 107.3040360   7.6573970  39.0791030 106.6776270
   8.9346070  39.8865560 106.7705510  16.6034690  32.4071220 121.7607130
  16.9280460  31.6760880 122.2865110  16.6391200  32.0884860 120.8588120
   3.3026250  43.4284800 121.1807090   2.9181040  42.7878470 121.7790050
   3.6138440  44.1320920 121.7501820   9.4523390  40.2761340 116.6615710
   9.8193520  39.8019910 117.4077050   9.2628450  41.1502910 117.0024050
   2.3163880  35.0205030 112.7909180   2.0310800  34.6560700 113.6287800
   2.2542740  34.2885490 112.1772320   7.2422760  39.3169980 118.9799920
   6.9379830  40.1961960 119.2050280   8.1969220  39.3769770 119.0157360
   5.7704550  43.5230970 109.5766770   4.9966810  42.9828590 109.4165490
   6.4999180  43.0037580 109.2384530  16.5292530  42.5196330 115.3693160
  17.2491650  43.0151620 114.9789270  16.3274350  41.8414220 114.7247030
  11.9902470  33.9134290 109.5122550  11.1767080  33.4147460 109.4367860
  11.7964420  34.7532540 109.0958900  11.9111330  42.5905390 121.2562160
  11.8448640  41.6701060 121.0019750  11.2816470  42.6880830 121.9706800
  14.7050860  38.2853940 107.8084710  15.5930480  38.5971170 107.6336050
  14.6755950  37.4126190 107.4165290   5.8141950  43.1911350 113.2145580
   6.3320620  42.3879610 113.1602470   5.3625970  43.1290490 114.0562410
  10.7011450  44.4577630 108.4872880  11.0427150  45.2019860 107.9916200
   9.8724160  44.7708750 108.8497710   3.2986490  40.1572720 120.1271280
   2.9401430  40.8226570 120.7144620   3.0041050  39.3256270 120.4983900
   6.4999610  40.6156960 123.0110830   6.1999750  40.7614140 122.1138650
   7.2710850  40.0562250 122.9184220  11.8428060  45.4125960 121.0065960
  11.8572600  44.4806920 120.7884870  11.1353160  45.4985720 121.6455730
  16.9765130  39.5965780 107.2764570  16.8928850  40.0280000 106.4261010
  17.6959320  40.0564130 107.7091390  18.0539270  42.0533300 120.3534540
  17.3287460  42.6462080 120.1563930  18.5814730  42.0456840 119.5547910
  18.0052380  46.4508040 110.0046700  17.3628540  45.7963660 110.2790420
  17.6183040  46.8563130 109.2287370  13.5838860  43.7793470 113.8518390
  13.9362680  43.1821600 113.1919760  12.7001190  43.4537700 114.0226640
   9.6702140  44.5391160 111.2588800  10.3573270  45.0860370 111.6396390
   8.8834560  45.0831890 111.2938410   8.9729350  41.5437190 110.8714160
   9.4292130  42.3542440 111.0974350   8.6217560  41.2260330 111.7032650
  11.2761960  47.0543530 118.1006460  11.9204180  47.2602910 118.7779880
  11.6391400  46.2931930 117.6477310   4.8741130  31.8874840 111.3436680
   4.7455760  31.8792740 112.2921600   4.0503150  32.2257930 110.9927690
  12.5494040  45.0575880 116.8183910  13.1916270  44.3569040 116.9316080
  13.0743390  45.8374320 116.6380800  16.3949760  45.3424500 106.5423050
  16.1687340  44.6254940 107.1347690  16.0045960  45.0936940 105.7044800
  14.3231660  45.8570780 120.0219970  14.6587900  46.4437470 120.6997890
  13.4032000  45.7263490 120.2517760   2.1765790  49.3691360 107.3167510
   2.5363430  49.9680700 106.6624780   2.0358130  49.9151250 108.0902540
  15.9766010  43.2596440 108.2037210  15.6887710  43.7209130 108.9915090
  16.7718180  42.7994210 108.4721430  10.1520240  45.9062110 123.1908030
   9.8317110  45.1871350 123.7353720   9.4778600  46.5817180 123.2644090
   8.1934410  46.7522560 108.1341180   8.1844510  47.4852250 107.5185690
   7.2732770  46.5054140 108.2268140   3.7941050  41.9737450 108.8787940
   3.1869000  42.7136350 108.8883240   4.2690400  42.0636810 108.0526140
  13.3673840  36.1388270 118.5544830  13.7354660  35.3183480 118.8824400
  12.5072040  36.1990160 118.9700480  16.7335870  35.0945210 109.3632390
  16.1049030  35.1990880 108.6490620  16.2387790  35.3141990 110.1526270
  11.1794010  46.8150800 106.7966370  11.2805990  46.6114790 105.8668350
  10.2795750  46.5609080 107.0014150   8.7019900  37.3731160 110.7790270
   7.9936050  37.8417500 111.2203880   8.9864380  36.7153170 111.4135460
  10.3275830  38.7927860 118.7782800  10.8261080  39.2673680 119.4434650
  10.4698780  37.8691380 118.9852830  12.7335330  34.0981820 112.2186060
  12.6103110  34.1167950 111.2695570  13.6819890  34.1460760 112.3384460
   9.8212120  49.3337120 111.4914040  10.0753620  49.2958510 110.5693410
   8.8724600  49.2070450 111.4842290   6.9054920  35.6816240 108.1540980
   7.7545450  36.1186390 108.0881170   6.5386190  35.9936500 108.9813040
  17.5342690  35.0095820 119.6211190  17.0316290  35.7501220 119.9605000
  18.3499350  35.3979820 119.3047980  15.8264700  40.2529000 113.0672550
  14.8854840  40.2679230 113.2420240  16.1408770  39.4664960 113.5132850
   5.8046340  41.9348600 106.6276510   6.5709610  41.8229960 107.1901940
   5.8821030  41.2386570 105.9753280   4.4993100  39.3673670 107.3109400
   4.5796690  38.4201180 107.4226800   5.3912850  39.6980550 107.4170060
  17.8290280  47.4237850 114.7426810  17.9537700  48.2469020 115.2150620
  18.6955840  47.2128580 114.3950960   5.3007810  49.5169060 114.4143940
   6.0370290  48.9684520 114.6852510   5.6848730  50.3825070 114.2749930
   4.3066090  48.7015130 123.6029520   5.1078820  49.0227180 124.0164920
   3.7917910  48.3410710 124.3249430   8.4110120  48.6899370 106.2369510
   9.2038730  48.9788200 105.7851300   7.8914470  48.2591540 105.5581990
  13.1430720  44.8095000 123.5504930  12.5368880  44.8326600 122.8100680
  12.8384830  44.0778040 124.0872180  14.5731090  48.5375290 122.1614340
  15.5252840  48.4533310 122.1114580  14.4259310  49.2017000 122.8348130
  17.4640290  47.9169500 107.6606250  17.1781800  47.5034640 106.8460430
  17.2659840  48.8457210 107.5406770   8.9287520  43.9102780 106.1011860
   8.8238160  43.2955130 106.8273240   8.7611740  43.3868670 105.3174870
   9.0801840  42.5959580 122.0801090   8.3147510  43.1644580 121.9955760
   9.2617800  42.3035790 121.1869320  12.1690250  42.9722810 106.7053850
  11.6200350  43.4192110 107.3496590  12.7909510  42.4672060 107.2291520
  16.2225190  44.3264910 122.6376110  16.9634660  44.6640670 122.1343570
  15.4597870  44.4956970 122.0845880   4.0586980  39.3318180 123.4415640
   4.0992320  39.0332050 124.3500870   4.9132480  39.7325790 123.2823160
   7.8365370  41.9313730 108.6019150   8.2581790  41.7653600 109.4450540
   7.9616210  41.1213960 108.1074290   5.9992790  37.9110280 121.4090130
   5.4689250  37.4201230 120.7813470   6.6680860  38.3394480 120.8748060
  10.3493010  40.9551340 105.8496250  10.8698670  40.2400360 105.4837400
  10.9961410  41.5937210 106.1496760  14.8970850  42.3779740 121.1731320
  15.3111870  42.5324820 122.0221740  13.9621850  42.5034960 121.3357100
  15.3693020  39.7175900 123.1770470  15.9513790  38.9628220 123.0890950
  15.5454790  40.2483340 122.4001950   6.4865090  34.8772650 121.4887420
   6.3921960  34.2593400 120.7638290   5.9062480  35.6038940 121.2617330
   9.2526530  33.4345890 118.5214810   8.8043830  33.4570150 117.6760360
   8.6191730  33.0364910 119.1185110   9.6586080  42.3300220 119.1427250
  10.0774190  43.1732950 118.9703490   8.7394710  42.4672260 118.9134030
  11.9949980  40.0616400 120.5265090  12.1146190  39.4657540 121.2659930
  12.8543980  40.0986090 120.1066390  14.3337880  40.6153590 119.1027600
  13.8073100  41.1396210 118.4992740  14.6769220  41.2480980 119.7337330
   6.7324270  38.0046960 105.5477310   6.5313330  37.1414320 105.9090650
   6.5616320  37.9180320 104.6098910   7.5093500  48.6353230 120.2584980
   6.9714590  49.3599290 119.9393680   7.7627460  48.1583570 119.4682320
   8.7618750  36.6037750 121.7840910   9.3518440  36.2953600 122.4718730
   7.9438990  36.1317500 121.9400810  13.5812180  36.2203560 122.0173930
  12.8927700  35.5585100 121.9523920  14.3018200  35.7741830 122.4622390
  14.2112580  32.8155190 108.0764190  14.4914870  31.9723090 108.4323610
  13.4378310  33.0478300 108.5902940   5.5307070  35.1047580 105.5355190
   5.8332970  35.1115010 104.6274340   6.2701660  34.7545440 106.0322850
  10.3655710  49.8704440 120.5171630  10.2914410  50.7739580 120.8244000
   9.4634550  49.5516340 120.4893700   8.7492000  34.0482200 106.5211390
   8.4014000  33.3706190 105.9413840   8.9504770  33.5871710 107.3354780
  10.9141040  49.0362950 108.1397990  11.8091830  49.3747920 108.1616750
  10.9458670  48.3142360 107.5122270   4.5537200  44.4090000 106.3684990
   4.9912070  44.9519670 107.0242570   5.0384930  43.5836950 106.3781330
   1.7683000  47.1979030 113.8205250   2.0986010  46.3300090 113.5883890
   2.1974000  47.4037550 114.6510210   6.3644920  45.5288040 111.4807220
   6.0640460  45.4053010 112.3811130   6.2582410  44.6696630 111.0722950
   2.2573210  48.0649620 116.5586880   1.8204200  48.2450420 117.3911030
   2.8250890  48.8224240 116.4168600  17.8935390  47.5666620 120.8464190
  17.2937380  47.6259180 120.1028110  18.0229290  46.6271600 120.9761040
  19.1336840  45.3084440 106.1833900  18.3029800  45.3761090 106.6541130
  19.3108670  46.1988560 105.8800760  18.5893300  42.0531920 108.6868100
  19.3512210  42.6228570 108.7927790  18.6047670  41.4859120 109.4576410
  19.5953270  42.9082020 113.5310030  19.9662100  42.1249340 113.1246000
  20.2355200  43.5971120 113.3527330  16.5787030  44.2918600 118.9440350
  15.7646870  44.7215760 119.2066140  16.9861230  44.9037010 118.3309400
  18.6412470  42.3466290 105.8440620  18.9161310  43.2545170 105.7159840
  18.4523210  42.2828820 106.7802610  15.0388080  35.3711140 107.1394250
  15.4572960  35.1842120 106.2990910  14.7324140  34.5190190 107.4497180
  18.5377810  40.2835280 110.8370050  18.1621410  39.5163210 110.4051340
  17.8080930  40.6657980 111.3244980   3.1273570  40.9622420 117.4579100
   3.4946610  40.8749820 118.3375120   2.5584390  40.1988970 117.3585960
  17.9277430  39.4306800 120.4709570  17.6963520  39.2019550 119.5707520
  18.1881980  40.3506350 120.4254460   2.6789570  37.8731510 121.3637520
   1.7845620  37.8398270 121.7031230   3.2187120  38.0718300 122.1288770
  16.3665500  34.6563230 123.2489270  17.2435680  34.6646630 123.6323270
  16.3786340  33.9194070 122.6381620  17.8128770  38.5092770 114.1377290
  18.3366250  38.0155420 113.5067460  18.3988190  38.6443130 114.8824860
  17.9918490  38.5932640 117.6596840  17.0421200  38.5596180 117.7741830
  18.1731500  39.5032750 117.4246610   3.8462930  36.8434320 106.7695470
   4.5554630  36.4217540 106.2842750   3.1302870  36.9109550 106.1378820
   3.4937090  32.8973650 105.8098120   4.2165220  33.4382590 106.1279340
   3.7661610  32.6237070 104.9339660  17.3028740  37.7666120 110.0769700
  17.7987860  37.5336990 110.8618580  17.1044810  36.9277960 109.6607340
   3.1829280  32.1479840 115.7120740   3.8305470  31.5977220 115.2715900
   3.6031120  32.4022990 116.5336550  18.7315900  36.4027070 112.6107380
  18.6215180  36.2483110 113.5489650  19.4923490  35.8748010 112.3682790
  17.0781620  32.3421200 119.0690380  17.7153840  32.9555340 119.4349570
  17.2256510  32.3781860 118.1239610  19.6206170  34.2334990 105.8513520
  20.5455480  34.1016170 105.6431810  19.5981960  34.3127810 106.8049970
  19.6944660  35.0045650 108.4770230  18.8996160  34.9390770 109.0063140
  19.8987940  35.9396290 108.4655580  16.6363080  49.0437200 112.4708620
  17.2322150  48.7221770 111.7943040  16.8941230  48.5709020 113.2621890
   2.9361280  32.3035510 118.4546060   2.5876100  32.7599330 119.2204240
   2.6048980  31.4092640 118.5368490   4.5425650  45.4755110 122.6199250
   4.4995280  45.1048020 123.5013710   4.6736660  46.4132680 122.7601070
   8.2431680  47.0314700 118.2208970   8.0023040  47.2989260 117.3339490
   9.1834320  47.2020430 118.2759830  10.4486100  33.4947390 121.9765480
  10.3874990  34.0869220 122.7260890  11.3886480  33.3873350 121.8315740
  13.0860660  33.1517450 121.6157770  13.7001070  33.4696740 120.9538850
  13.6310220  32.6666040 122.2353630  19.5035840  49.0509080 119.0219610
  19.0094120  49.4477950 118.3046740  18.8949130  48.4258290 119.4156890
   3.6081920  31.8311710 121.7296830   4.1564910  31.6499760 120.9662940
   3.6737230  31.0405820 122.2653140   4.3813680  48.4217360 119.7397030
   3.7874000  48.2902060 120.4787070   4.3737520  47.5855500 119.2739130
  13.8268700  31.7149590 117.9427060  12.9528540  32.0484700 117.7399990
  13.7179450  31.2422770 118.7678930  14.7340680  33.9220460 119.3268780
  14.4054040  33.1072220 118.9470510  15.6822980  33.8790270 119.2034470
  17.1875290  49.6932500 116.3006350  16.7278260  50.4448310 115.9264370
  16.5587750  48.9738970 116.2421150   4.0125910  45.7875740 118.6905070
   3.2859970  45.1681030 118.6231020   4.0735060  46.1816350 117.8203150
   7.6171010  48.0020740 115.4754480   8.1336030  47.3908100 114.9502740
   8.2668390  48.5049520 115.9665490  10.3566510  48.8929230 116.3023460
  10.6444320  48.6383530 115.4256470  10.8689730  48.3406590 116.8929030
  11.5743520  32.6319430 116.8819970  10.7915310  33.1064930 117.1616730
  11.2806450  31.7274260 116.7733150  16.1264590  33.3342530 114.9269060
  16.5672680  33.2787630 114.0790660  15.8572180  34.2500540 114.9979240
  17.9903160  32.9657770 112.9377880  17.9291560  32.0218990 112.7908900
  18.7695190  33.0737860 113.4831340   2.9183930  32.9366910 109.4033690
   3.6763290  33.0495790 108.8297720   2.4561100  33.7736110 109.3577120
   9.4597740  35.0506180 112.3936000   8.6472250  34.6763070 112.0531880
   9.9639380  34.2951260 112.6957190  13.9622720  31.7148630 113.6319070
  14.5652090  32.2868840 114.1067590  13.2215710  32.2788070 113.4092970
  17.1057320  32.1170190 108.9059350  17.3007950  33.0153640 109.1726780
  16.3187190  31.8857270 109.3992300   3.9018610  47.7983360 109.3451970
   3.3766230  48.1791390 108.6413930   3.8263190  48.4234130 110.0661680
   5.2909080  33.4630960 107.9435660   5.8201840  32.6760760 107.8143610
   5.9237400  34.1422150 108.1771190   7.4846920  33.2006100 110.9981050
   6.8549660  32.4993410 111.1651180   6.9452060  33.9610230 110.7814210
  10.4238870  49.8145330 123.6691660  11.3506180  49.5789600 123.7127620
  10.4089300  50.6417330 123.1877690  18.6583930  49.3570900 110.6665910
  18.8336120  48.6708640 110.0226830  17.9605500  49.8817950 110.2742580
   7.6102480  32.4790080 123.4333540   7.3286750  32.9823680 122.6694360
   7.9922180  31.6811830 123.0675670   6.5011580  49.7465740 108.2201220
   7.2330400  49.4625020 107.6725110   6.7605250  49.5079020 109.1100600
   5.6626370  45.8630470 108.2247550   5.0335250  46.3315570 108.7733380
   5.7774200  45.0179690 108.6593740  14.2117940  31.8943660 124.0114010
  14.0983390  32.2138270 124.9065530  15.0287680  32.2956170 123.7151290
  16.9916430  49.0415190 123.4932700  17.7841750  48.5464420 123.2858660
  17.2849580  49.7205330 124.1008310  13.1176090  39.9136130  94.3748750
  13.0370140  38.9990740  94.1040460  12.7040510  40.4103200  93.6688460
  11.2494130  41.6915150  96.2558020  10.4736230  41.2115590  96.5456590
  11.9007060  41.0120800  96.0814180   5.2659960  42.0034960  97.1333780
   4.4344840  41.7483670  97.5330290   5.8740940  42.0745730  97.8691700
  15.2701560  46.0975340  95.0357150  14.8083090  45.3262580  95.3644320
  16.0827110  46.1241410  95.5409600   5.2461220  46.0375050  97.3291800
   5.5489260  45.1472790  97.1502020   5.9904810  46.5945270  97.1014050
   3.6751910  36.9636850  90.9176170   2.7868610  37.3052820  90.8156050
   3.9593100  36.7637170  90.0257000  11.4964870  48.3833350  94.6561140
  10.8776310  48.8390850  94.0855580  12.3516650  48.5384810  94.2550840
  10.6903120  44.3672340  96.2628180  10.6211400  43.4262280  96.1017310
  11.4522980  44.4573750  96.8350750   2.8809790  34.9726860  98.5884800
   2.7012630  34.0752610  98.8687560   2.4789870  35.5198730  99.2631750
  11.7208290  37.1742720  96.4897110  12.0973110  36.3014600  96.3770780
  11.6227800  37.5101420  95.5987550   5.8513300  35.5468350  91.9514550
   5.9580050  36.4472080  92.2583310   4.9405660  35.4986320  91.6609200
  15.5032410  34.6693160  93.4225450  16.3242030  34.1789730  93.4650930
  15.5366490  35.2590820  94.1757290   3.4996460  37.4687360  97.1967140
   4.1806570  37.7325730  97.8154540   3.1844510  36.6288230  97.5305150
   7.6921030  38.5154720  96.2839730   8.1999250  39.0135690  96.9244750
   8.2234270  37.7389920  96.1079090  19.7931960  36.6859910  99.9869080
  19.0884130  37.0741620  99.4684190  20.0589880  37.3810200 100.5890010
   5.9757130  33.1553280 100.5503150   5.9775570  33.6725670  99.7449050
   5.1461440  32.6783460 100.5273080  12.3628220  43.2672590  92.0493050
  11.7445490  43.7322040  91.4855770  12.8751470  43.9600070  92.4662560
   7.2259980  42.7948460  98.7276650   6.8929360  43.4217380  99.3697720
   7.4026660  43.3210340  97.9478320  15.7393890  36.6093540  96.1952990
  15.0349460  36.8978430  96.7756100  16.1006050  37.4193650  95.8352550
   5.6572460  34.8663240  98.5573600   5.9989270  35.7105290  98.2627470
   4.7188270  35.0146980  98.6738940   6.4379080  44.7629260 100.5425830
   7.0553080  45.4380340 100.2610280   5.5772200  45.1717240 100.4513330
  17.3556670  46.2268670  98.4580470  16.6720190  46.8967780  98.4497140
  17.8950960  46.4249320  97.6925330  18.8080810  36.0548330  96.5862200
  17.8605720  36.0887310  96.7177630  19.1330800  36.8687280  96.9711560
   9.3400350  32.3545510  94.8818190   9.6475330  31.7992400  94.1653690
   8.4101050  32.4889970  94.6991180  14.8915410  48.0712800  97.1725650
  14.9042570  47.6675090  96.3047910  14.3390630  48.8460090  97.0687080
  16.1860830  44.7929020  92.2615820  16.0757160  43.8503350  92.3865240
  16.1829080  45.1544660  93.1478580  14.2900850  42.9742640  98.5008260
  14.7069640  42.7602750  97.6661720  15.0140670  43.2315430  99.0716880
  11.7281110  40.4194340  91.6178310  10.8010390  40.3531720  91.8466780
  11.8805930  41.3574470  91.5033550  11.7150190  36.6911340  88.6145470
  10.7753860  36.8525300  88.6997930  12.0333450  37.4097020  88.0681460
  18.2362950  41.3729860  98.5924500  17.4081580  41.4422950  98.1174630
  18.8313430  41.9584170  98.1240330  15.7578400  41.9814640  92.1213560
  15.1390820  41.6434190  91.4739860  15.7402850  41.3374400  92.8292750
  15.2004960  38.1599180  99.5379370  14.7876140  38.9852890  99.7919360
  14.4680910  37.5744220  99.3455730   7.3337750  40.9459080  94.3998040
   6.9294750  40.2336330  93.9043940   7.4200870  40.6012320  95.2886080
   7.8019450  44.6326640  96.5637250   7.5047740  44.0272110  95.8845030
   8.7519270  44.6703950  96.4526610   6.0466370  37.7202290  98.1797080
   6.5980960  37.8297630  97.4050330   6.5609880  38.0939890  98.8952310
  15.8905060  48.2058510 100.2260350  15.4135620  49.0130700 100.0332960
  15.2066850  47.5536840 100.3786560   6.8937880  44.3708330 103.2145050
   5.9966410  44.5948300 103.4618450   6.9190750  44.4943270 102.2656450
  13.9343100  41.2201450  89.1286310  14.3736380  40.3823880  88.9824130
  14.6471520  41.8530850  89.2150450   5.7209100  41.2421650 101.7902420
   5.5816870  42.1144450 102.1589820   4.8390460  40.8994460 101.6450360
  12.0438480  46.1597520  93.0967550  12.4834390  46.9021850  92.6822940
  11.9825370  46.4024090  94.0206510   7.5189450  47.1843350 103.9987570
   7.4904880  47.5886300 103.1316000   7.3554420  46.2553710 103.8359170
  17.5160240  32.4744260  87.4427350  17.2032900  32.5671090  88.3426420
  18.2772710  33.0525290  87.3924780   4.0342380  39.8404060  91.9004690
   3.9139980  40.5666150  91.2885960   3.7243270  39.0706970  91.4232600
  19.4704270  47.9670450 105.2951740  19.9463990  48.4453340 105.9740820
  20.0911430  47.8987940 104.5697240   2.9175380  44.7119390  94.1179510
   2.5103460  44.8533980  93.2633110   3.8088390  44.4279550  93.9150720
  18.8737520  45.1583300 102.4551750  19.0000580  44.9195180 101.5368930
  18.9158900  44.3267840 102.9273830  12.7354260  48.8611300 101.0246560
  13.2498930  48.7719310 101.8268990  11.8923340  49.2071000 101.3174470
  14.7108660  49.1466640  90.4530560  14.5509800  48.8569580  91.3512390
  14.5455370  48.3706770  89.9175790   7.1897040  48.9265170  92.2302180
   7.0139520  48.0100710  92.0169980   6.3352780  49.2852460  92.4699980
  14.4134790  46.6554200  89.0128560  13.7199950  46.6531490  88.3530840
  15.1557650  46.2313520  88.5822730  13.9784720  48.2816910  93.0877050
  14.4341670  47.5006290  93.4015670  14.3177240  48.9923730  93.6318230
  18.7261530  37.2115760 103.4201490  18.1105800  37.7195430 102.8916950
  18.4057950  36.3114090 103.3627430   6.5006040  33.1839130  95.2828360
   6.0574190  33.9648670  94.9512880   7.0591030  33.5069020  95.9899300
  10.7875850  36.0507650 100.8863680  10.3255220  36.2590670 101.6983620
  10.3853960  35.2367000 100.5834350  15.7880360  37.2716600 102.0160340
  14.9373950  36.9722350 102.3369410  15.6282150  37.5158610 101.1044160
  12.8830070  38.7718350 104.1159130  13.2083480  37.9382100 103.7761360
  13.6710400  39.2946870 104.2637460   9.6164860  32.8049830  90.1634190
   8.9919040  32.8009700  90.8887500   9.5294980  31.9380790  89.7670160
   8.5381940  33.7286460  97.1417960   8.8354270  34.6349290  97.0609980
   9.0867500  33.2405240  96.5277530   6.2920260  38.3072700  93.0109610
   6.0661180  38.0909870  93.9156230   5.5112790  38.7401160  92.6655580
  13.5218020  38.3136070  91.6100260  12.9226910  39.0371870  91.4263880
  14.0697630  38.2512850  90.8276710   8.7319470  39.2058280 103.6769880
   8.6363070  38.2653010 103.5270280   9.5751450  39.4273350 103.2817950
  12.1282890  36.9499610  93.6403540  12.5212460  37.2671810  92.8272230
  12.4899740  36.0711490  93.7548060   3.8630010  35.6171950 101.8303660
   3.4693400  36.4647160 102.0376440   3.1748410  34.9798320 102.0212300
  10.4375060  35.7006920 104.9000400   9.7473380  35.5079120 105.5346490
  11.1807360  35.9841560 105.4324700  12.7138030  39.5405360  97.7354320
  11.9819150  40.0492170  98.0844420  12.3162370  38.7235340  97.4343100
   9.1515420  36.2159560  96.1406810   9.1551480  35.7749510  95.2911350
  10.0466540  36.5376890  96.2478630   5.0017800  36.0986050  95.1001020
   4.6617850  36.5761280  95.8568070   4.2395120  35.6451170  94.7402120
   9.2135570  37.2171640  89.1313570   9.3348390  37.1758120  90.0799390
   8.8284080  38.0795790  88.9760300  13.1763940  34.9939040  97.1477260
  13.1936680  35.4447690  97.9919110  12.9279520  34.0944680  97.3610700
   8.2257070  39.5272780  88.5296870   7.6573970  39.0791030  87.9032780
   8.9346070  39.8865560  87.9962020  16.6034690  32.4071220 102.9863640
  16.9280460  31.6760880 103.5121620  16.6391200  32.0884860 102.0844630
   3.3026250  43.4284800 102.4063600   2.9181040  42.7878470 103.0046560
   3.6138440  44.1320920 102.9758330   9.4523390  40.2761340  97.8872220
   9.8193520  39.8019910  98.6333560   9.2628450  41.1502910  98.2280560
   2.3163880  35.0205030  94.0165690   2.0310800  34.6560700  94.8544310
   2.2542740  34.2885490  93.4028830   7.2422760  39.3169980 100.2056430
   6.9379830  40.1961960 100.4306790   8.1969220  39.3769770 100.2413870
   5.7704550  43.5230970  90.8023280   4.9966810  42.9828590  90.6422000
   6.4999180  43.0037580  90.4641040  16.5292530  42.5196330  96.5949670
  17.2491650  43.0151620  96.2045780  16.3274350  41.8414220  95.9503540
  11.9902470  33.9134290  90.7379060  11.1767080  33.4147460  90.6624370
  11.7964420  34.7532540  90.3215410  11.9111330  42.5905390 102.4818670
  11.8448640  41.6701060 102.2276260  11.2816470  42.6880830 103.1963310
  14.7050860  38.2853940  89.0341220  15.5930480  38.5971170  88.8592560
  14.6755950  37.4126190  88.6421800   5.8141950  43.1911350  94.4402090
   6.3320620  42.3879610  94.3858980   5.3625970  43.1290490  95.2818920
  10.7011450  44.4577630  89.7129390  11.0427150  45.2019860  89.2172710
   9.8724160  44.7708750  90.0754220   3.2986490  40.1572720 101.3527790
   2.9401430  40.8226570 101.9401130   3.0041050  39.3256270 101.7240410
   6.4999610  40.6156960 104.2367340   6.1999750  40.7614140 103.3395160
   7.2710850  40.0562250 104.1440730  11.8428060  45.4125960 102.2322470
  11.8572600  44.4806920 102.0141380  11.1353160  45.4985720 102.8712240
  16.9765130  39.5965780  88.5021080  16.8928850  40.0280000  87.6517520
  17.6959320  40.0564130  88.9347900  18.0539270  42.0533300 101.5791050
  17.3287460  42.6462080 101.3820440  18.5814730  42.0456840 100.7804420
  18.0052380  46.4508040  91.2303210  17.3628540  45.7963660  91.5046930
  17.6183040  46.8563130  90.4543880  13.5838860  43.7793470  95.0774900
  13.9362680  43.1821600  94.4176270  12.7001190  43.4537700  95.2483150
   9.6702140  44.5391160  92.4845310  10.3573270  45.0860370  92.8652900
   8.8834560  45.0831890  92.5194920   8.9729350  41.5437190  92.0970670
   9.4292130  42.3542440  92.3230860   8.6217560  41.2260330  92.9289160
  11.2761960  47.0543530  99.3262970  11.9204180  47.2602910 100.0036390
  11.6391400  46.2931930  98.8733820   4.8741130  31.8874840  92.5693190
   4.7455760  31.8792740  93.5178110   4.0503150  32.2257930  92.2184200
  12.5494040  45.0575880  98.0440420  13.1916270  44.3569040  98.1572590
  13.0743390  45.8374320  97.8637310  16.3949760  45.3424500  87.7679560
  16.1687340  44.6254940  88.3604200  16.0045960  45.0936940  86.9301310
  14.3231660  45.8570780 101.2476480  14.6587900  46.4437470 101.9254400
  13.4032000  45.7263490 101.4774270   2.1765790  49.3691360  88.5424020
   2.5363430  49.9680700  87.8881290   2.0358130  49.9151250  89.3159050
  15.9766010  43.2596440  89.4293720  15.6887710  43.7209130  90.2171600
  16.7718180  42.7994210  89.6977940  10.1520240  45.9062110 104.4164540
   9.8317110  45.1871350 104.9610230   9.4778600  46.5817180 104.4900600
   8.1934410  46.7522560  89.3597690   8.1844510  47.4852250  88.7442200
   7.2732770  46.5054140  89.4524650   3.7941050  41.9737450  90.1044450
   3.1869000  42.7136350  90.1139750   4.2690400  42.0636810  89.2782650
  13.3673840  36.1388270  99.7801340  13.7354660  35.3183480 100.1080910
  12.5072040  36.1990160 100.1956990  16.7335870  35.0945210  90.5888900
  16.1049030  35.1990880  89.8747130  16.2387790  35.3141990  91.3782780
  11.1794010  46.8150800  88.0222880  11.2805990  46.6114790  87.0924860
  10.2795750  46.5609080  88.2270660   8.7019900  37.3731160  92.0046780
   7.9936050  37.8417500  92.4460390   8.9864380  36.7153170  92.6391970
  10.3275830  38.7927860 100.0039310  10.8261080  39.2673680 100.6691160
  10.4698780  37.8691380 100.2109340  12.7335330  34.0981820  93.4442570
  12.6103110  34.1167950  92.4952080  13.6819890  34.1460760  93.5640970
   9.8212120  49.3337120  92.7170550  10.0753620  49.2958510  91.7949920
   8.8724600  49.2070450  92.7098800   6.9054920  35.6816240  89.3797490
   7.7545450  36.1186390  89.3137680   6.5386190  35.9936500  90.2069550
  17.5342690  35.0095820 100.8467700  17.0316290  35.7501220 101.1861510
  18.3499350  35.3979820 100.5304490  15.8264700  40.2529000  94.2929060
  14.8854840  40.2679230  94.4676750  16.1408770  39.4664960  94.7389360
   5.8046340  41.9348600  87.8533020   6.5709610  41.8229960  88.4158450
   5.8821030  41.2386570  87.2009790   4.4993100  39.3673670  88.5365910
   4.5796690  38.4201180  88.6483310   5.3912850  39.6980550  88.6426570
  17.8290280  47.4237850  95.9683320  17.9537700  48.2469020  96.4407130
  18.6955840  47.2128580  95.6207470   5.3007810  49.5169060  95.6400450
   6.0370290  48.9684520  95.9109020   5.6848730  50.3825070  95.5006440
   4.3066090  48.7015130 104.8286030   5.1078820  49.0227180 105.2421430
   3.7917910  48.3410710 105.5505940   8.4110120  48.6899370  87.4626020
   9.2038730  48.9788200  87.0107810   7.8914470  48.2591540  86.7838500
  13.1430720  44.8095000 104.7761440  12.5368880  44.8326600 104.0357190
  12.8384830  44.0778040 105.3128690  14.5731090  48.5375290 103.3870850
  15.5252840  48.4533310 103.3371090  14.4259310  49.2017000 104.0604640
  17.4640290  47.9169500  88.8862760  17.1781800  47.5034640  88.0716940
  17.2659840  48.8457210  88.7663280   8.9287520  43.9102780  87.3268370
   8.8238160  43.2955130  88.0529750   8.7611740  43.3868670  86.5431380
   9.0801840  42.5959580 103.3057600   8.3147510  43.1644580 103.2212270
   9.2617800  42.3035790 102.4125830  12.1690250  42.9722810  87.9310360
  11.6200350  43.4192110  88.5753100  12.7909510  42.4672060  88.4548030
  16.2225190  44.3264910 103.8632620  16.9634660  44.6640670 103.3600080
  15.4597870  44.4956970 103.3102390   4.0586980  39.3318180 104.6672150
   4.0992320  39.0332050 105.5757380   4.9132480  39.7325790 104.5079670
   7.8365370  41.9313730  89.8275660   8.2581790  41.7653600  90.6707050
   7.9616210  41.1213960  89.3330800   5.9992790  37.9110280 102.6346640
   5.4689250  37.4201230 102.0069980   6.6680860  38.3394480 102.1004570
  10.3493010  40.9551340  87.0752760  10.8698670  40.2400360  86.7093910
  10.9961410  41.5937210  87.3753270  14.8970850  42.3779740 102.3987830
  15.3111870  42.5324820 103.2478250  13.9621850  42.5034960 102.5613610
  15.3693020  39.7175900 104.4026980  15.9513790  38.9628220 104.3147460
  15.5454790  40.2483340 103.6258460   6.4865090  34.8772650 102.7143930
   6.3921960  34.2593400 101.9894800   5.9062480  35.6038940 102.4873840
   9.2526530  33.4345890  99.7471320   8.8043830  33.4570150  98.9016870
   8.6191730  33.0364910 100.3441620   9.6586080  42.3300220 100.3683760
  10.0774190  43.1732950 100.1960000   8.7394710  42.4672260 100.1390540
  11.9949980  40.0616400 101.7521600  12.1146190  39.4657540 102.4916440
  12.8543980  40.0986090 101.3322900  14.3337880  40.6153590 100.3284110
  13.8073100  41.1396210  99.7249250  14.6769220  41.2480980 100.9593840
   6.7324270  38.0046960  86.7733820   6.5313330  37.1414320  87.1347160
   6.5616320  37.9180320  85.8355420   7.5093500  48.6353230 101.4841490
   6.9714590  49.3599290 101.1650190   7.7627460  48.1583570 100.6938830
   8.7618750  36.6037750 103.0097420   9.3518440  36.2953600 103.6975240
   7.9438990  36.1317500 103.1657320  13.5812180  36.2203560 103.2430440
  12.8927700  35.5585100 103.1780430  14.3018200  35.7741830 103.6878900
  14.2112580  32.8155190  89.3020700  14.4914870  31.9723090  89.6580120
  13.4378310  33.0478300  89.8159450   5.5307070  35.1047580  86.7611700
   5.8332970  35.1115010  85.8530850   6.2701660  34.7545440  87.2579360
  10.3655710  49.8704440 101.7428140  10.2914410  50.7739580 102.0500510
   9.4634550  49.5516340 101.7150210   8.7492000  34.0482200  87.7467900
   8.4014000  33.3706190  87.1670350   8.9504770  33.5871710  88.5611290
  10.9141040  49.0362950  89.3654500  11.8091830  49.3747920  89.3873260
  10.9458670  48.3142360  88.7378780   4.5537200  44.4090000  87.5941500
   4.9912070  44.9519670  88.2499080   5.0384930  43.5836950  87.6037840
   1.7683000  47.1979030  95.0461760   2.0986010  46.3300090  94.8140400
   2.1974000  47.4037550  95.8766720   6.3644920  45.5288040  92.7063730
   6.0640460  45.4053010  93.6067640   6.2582410  44.6696630  92.2979460
   2.2573210  48.0649620  97.7843390   1.8204200  48.2450420  98.6167540
   2.8250890  48.8224240  97.6425110  17.8935390  47.5666620 102.0720700
  17.2937380  47.6259180 101.3284620  18.0229290  46.6271600 102.2017550
  19.1336840  45.3084440  87.4090410  18.3029800  45.3761090  87.8797640
  19.3108670  46.1988560  87.1057270  18.5893300  42.0531920  89.9124610
  19.3512210  42.6228570  90.0184300  18.6047670  41.4859120  90.6832920
  19.5953270  42.9082020  94.7566540  19.9662100  42.1249340  94.3502510
  20.2355200  43.5971120  94.5783840  16.5787030  44.2918600 100.1696860
  15.7646870  44.7215760 100.4322650  16.9861230  44.9037010  99.5565910
  18.6412470  42.3466290  87.0697130  18.9161310  43.2545170  86.9416350
  18.4523210  42.2828820  88.0059120  15.0388080  35.3711140  88.3650760
  15.4572960  35.1842120  87.5247420  14.7324140  34.5190190  88.6753690
  18.5377810  40.2835280  92.0626560  18.1621410  39.5163210  91.6307850
  17.8080930  40.6657980  92.5501490   3.1273570  40.9622420  98.6835610
   3.4946610  40.8749820  99.5631630   2.5584390  40.1988970  98.5842470
  17.9277430  39.4306800 101.6966080  17.6963520  39.2019550 100.7964030
  18.1881980  40.3506350 101.6510970   2.6789570  37.8731510 102.5894030
   1.7845620  37.8398270 102.9287740   3.2187120  38.0718300 103.3545280
  16.3665500  34.6563230 104.4745780  17.2435680  34.6646630 104.8579780
  16.3786340  33.9194070 103.8638130  17.8128770  38.5092770  95.3633800
  18.3366250  38.0155420  94.7323970  18.3988190  38.6443130  96.1081370
  17.9918490  38.5932640  98.8853350  17.0421200  38.5596180  98.9998340
  18.1731500  39.5032750  98.6503120   3.8462930  36.8434320  87.9951980
   4.5554630  36.4217540  87.5099260   3.1302870  36.9109550  87.3635330
   3.4937090  32.8973650  87.0354630   4.2165220  33.4382590  87.3535850
   3.7661610  32.6237070  86.1596170  17.3028740  37.7666120  91.3026210
  17.7987860  37.5336990  92.0875090  17.1044810  36.9277960  90.8863850
   3.1829280  32.1479840  96.9377250   3.8305470  31.5977220  96.4972410
   3.6031120  32.4022990  97.7593060  18.7315900  36.4027070  93.8363890
  18.6215180  36.2483110  94.7746160  19.4923490  35.8748010  93.5939300
  17.0781620  32.3421200 100.2946890  17.7153840  32.9555340 100.6606080
  17.2256510  32.3781860  99.3496120  19.6206170  34.2334990  87.0770030
  20.5455480  34.1016170  86.8688320  19.5981960  34.3127810  88.0306480
  19.6944660  35.0045650  89.7026740  18.8996160  34.9390770  90.2319650
  19.8987940  35.9396290  89.6912090  16.6363080  49.0437200  93.6965130
  17.2322150  48.7221770  93.0199550  16.8941230  48.5709020  94.4878400
   2.9361280  32.3035510  99.6802570   2.5876100  32.7599330 100.4460750
   2.6048980  31.4092640  99.7625000   4.5425650  45.4755110 103.8455760
   4.4995280  45.1048020 104.7270220   4.6736660  46.4132680 103.9857580
   8.2431680  47.0314700  99.4465480   8.0023040  47.2989260  98.5596000
   9.1834320  47.2020430  99.5016340  10.4486100  33.4947390 103.2021990
  10.3874990  34.0869220 103.9517400  11.3886480  33.3873350 103.0572250
  13.0860660  33.1517450 102.8414280  13.7001070  33.4696740 102.1795360
  13.6310220  32.6666040 103.4610140  19.5035840  49.0509080 100.2476120
  19.0094120  49.4477950  99.5303250  18.8949130  48.4258290 100.6413400
   3.6081920  31.8311710 102.9553340   4.1564910  31.6499760 102.1919450
   3.6737230  31.0405820 103.4909650   4.3813680  48.4217360 100.9653540
   3.7874000  48.2902060 101.7043580   4.3737520  47.5855500 100.4995640
  13.8268700  31.7149590  99.1683570  12.9528540  32.0484700  98.9656500
  13.7179450  31.2422770  99.9935440  14.7340680  33.9220460 100.5525290
  14.4054040  33.1072220 100.1727020  15.6822980  33.8790270 100.4290980
  17.1875290  49.6932500  97.5262860  16.7278260  50.4448310  97.1520880
  16.5587750  48.9738970  97.4677660   4.0125910  45.7875740  99.9161580
   3.2859970  45.1681030  99.8487530   4.0735060  46.1816350  99.0459660
   7.6171010  48.0020740  96.7010990   8.1336030  47.3908100  96.1759250
   8.2668390  48.5049520  97.1922000  10.3566510  48.8929230  97.5279970
  10.6444320  48.6383530  96.6512980  10.8689730  48.3406590  98.1185540
  11.5743520  32.6319430  98.1076480  10.7915310  33.1064930  98.3873240
  11.2806450  31.7274260  97.9989660  16.1264590  33.3342530  96.1525570
  16.5672680  33.2787630  95.3047170  15.8572180  34.2500540  96.2235750
  17.9903160  32.9657770  94.1634390  17.9291560  32.0218990  94.0165410
  18.7695190  33.0737860  94.7087850   2.9183930  32.9366910  90.6290200
   3.6763290  33.0495790  90.0554230   2.4561100  33.7736110  90.5833630
   9.4597740  35.0506180  93.6192510   8.6472250  34.6763070  93.2788390
   9.9639380  34.2951260  93.9213700  13.9622720  31.7148630  94.8575580
  14.5652090  32.2868840  95.3324100  13.2215710  32.2788070  94.6349480
  17.1057320  32.1170190  90.1315860  17.3007950  33.0153640  90.3983290
  16.3187190  31.8857270  90.6248810   3.9018610  47.7983360  90.5708480
   3.3766230  48.1791390  89.8670440   3.8263190  48.4234130  91.2918190
   5.2909080  33.4630960  89.1692170   5.8201840  32.6760760  89.0400120
   5.9237400  34.1422150  89.4027700   7.4846920  33.2006100  92.2237560
   6.8549660  32.4993410  92.3907690   6.9452060  33.9610230  92.0070720
  10.4238870  49.8145330 104.8948170  11.3506180  49.5789600 104.9384130
  10.4089300  50.6417330 104.4134200  18.6583930  49.3570900  91.8922420
  18.8336120  48.6708640  91.2483340  17.9605500  49.8817950  91.4999090
   7.6102480  32.4790080 104.6590050   7.3286750  32.9823680 103.8950870
   7.9922180  31.6811830 104.2932180   6.5011580  49.7465740  89.4457730
   7.2330400  49.4625020  88.8981620   6.7605250  49.5079020  90.3357110
   5.6626370  45.8630470  89.4504060   5.0335250  46.3315570  89.9989890
   5.7774200  45.0179690  89.8850250  14.2117940  31.8943660 105.2370520
  14.0983390  32.2138270 106.1322040  15.0287680  32.2956170 104.9407800
  16.9916430  49.0415190 104.7189210  17.7841750  48.5464420 104.5115170
  17.2849580  49.7205330 105.3264820  13.1176090  39.9136130  75.6005260
  13.0370140  38.9990740  75.3296970  12.7040510  40.4103200  74.8944970
  11.2494130  41.6915150  77.4814530  10.4736230  41.2115590  77.7713100
  11.9007060  41.0120800  77.3070690   5.2659960  42.0034960  78.3590290
   4.4344840  41.7483670  78.7586800   5.8740940  42.0745730  79.0948210
  15.2701560  46.0975340  76.2613660  14.8083090  45.3262580  76.5900830
  16.0827110  46.1241410  76.7666110   5.2461220  46.0375050  78.5548310
   5.5489260  45.1472790  78.3758530   5.9904810  46.5945270  78.3270560
   3.6751910  36.9636850  72.1432680   2.7868610  37.3052820  72.0412560
   3.9593100  36.7637170  71.2513510  11.4964870  48.3833350  75.8817650
  10.8776310  48.8390850  75.3112090  12.3516650  48.5384810  75.4807350
  10.6903120  44.3672340  77.4884690  10.6211400  43.4262280  77.3273820
  11.4522980  44.4573750  78.0607260   2.8809790  34.9726860  79.8141310
   2.7012630  34.0752610  80.0944070   2.4789870  35.5198730  80.4888260
  11.7208290  37.1742720  77.7153620  12.0973110  36.3014600  77.6027290
  11.6227800  37.5101420  76.8244060   5.8513300  35.5468350  73.1771060
   5.9580050  36.4472080  73.4839820   4.9405660  35.4986320  72.8865710
  15.5032410  34.6693160  74.6481960  16.3242030  34.1789730  74.6907440
  15.5366490  35.2590820  75.4013800   3.4996460  37.4687360  78.4223650
   4.1806570  37.7325730  79.0411050   3.1844510  36.6288230  78.7561660
   7.6921030  38.5154720  77.5096240   8.1999250  39.0135690  78.1501260
   8.2234270  37.7389920  77.3335600  19.7931960  36.6859910  81.2125590
  19.0884130  37.0741620  80.6940700  20.0589880  37.3810200  81.8146520
   5.9757130  33.1553280  81.7759660   5.9775570  33.6725670  80.9705560
   5.1461440  32.6783460  81.7529590  12.3628220  43.2672590  73.2749560
  11.7445490  43.7322040  72.7112280  12.8751470  43.9600070  73.6919070
   7.2259980  42.7948460  79.9533160   6.8929360  43.4217380  80.5954230
   7.4026660  43.3210340  79.1734830  15.7393890  36.6093540  77.4209500
  15.0349460  36.8978430  78.0012610  16.1006050  37.4193650  77.0609060
   5.6572460  34.8663240  79.7830110   5.9989270  35.7105290  79.4883980
   4.7188270  35.0146980  79.8995450   6.4379080  44.7629260  81.7682340
   7.0553080  45.4380340  81.4866790   5.5772200  45.1717240  81.6769840
  17.3556670  46.2268670  79.6836980  16.6720190  46.8967780  79.6753650
  17.8950960  46.4249320  78.9181840  18.8080810  36.0548330  77.8118710
  17.8605720  36.0887310  77.9434140  19.1330800  36.8687280  78.1968070
   9.3400350  32.3545510  76.1074700   9.6475330  31.7992400  75.3910200
   8.4101050  32.4889970  75.9247690  14.8915410  48.0712800  78.3982160
  14.9042570  47.6675090  77.5304420  14.3390630  48.8460090  78.2943590
  16.1860830  44.7929020  73.4872330  16.0757160  43.8503350  73.6121750
  16.1829080  45.1544660  74.3735090  14.2900850  42.9742640  79.7264770
  14.7069640  42.7602750  78.8918230  15.0140670  43.2315430  80.2973390
  11.7281110  40.4194340  72.8434820  10.8010390  40.3531720  73.0723290
  11.8805930  41.3574470  72.7290060  11.7150190  36.6911340  69.8401980
  10.7753860  36.8525300  69.9254440  12.0333450  37.4097020  69.2937970
  18.2362950  41.3729860  79.8181010  17.4081580  41.4422950  79.3431140
  18.8313430  41.9584170  79.3496840  15.7578400  41.9814640  73.3470070
  15.1390820  41.6434190  72.6996370  15.7402850  41.3374400  74.0549260
  15.2004960  38.1599180  80.7635880  14.7876140  38.9852890  81.0175870
  14.4680910  37.5744220  80.5712240   7.3337750  40.9459080  75.6254550
   6.9294750  40.2336330  75.1300450   7.4200870  40.6012320  76.5142590
   7.8019450  44.6326640  77.7893760   7.5047740  44.0272110  77.1101540
   8.7519270  44.6703950  77.6783120   6.0466370  37.7202290  79.4053590
   6.5980960  37.8297630  78.6306840   6.5609880  38.0939890  80.1208820
  15.8905060  48.2058510  81.4516860  15.4135620  49.0130700  81.2589470
  15.2066850  47.5536840  81.6043070   6.8937880  44.3708330  84.4401560
   5.9966410  44.5948300  84.6874960   6.9190750  44.4943270  83.4912960
  13.9343100  41.2201450  70.3542820  14.3736380  40.3823880  70.2080640
  14.6471520  41.8530850  70.4406960   5.7209100  41.2421650  83.0158930
   5.5816870  42.1144450  83.3846330   4.8390460  40.8994460  82.8706870
  12.0438480  46.1597520  74.3224060  12.4834390  46.9021850  73.9079450
  11.9825370  46.4024090  75.2463020   7.5189450  47.1843350  85.2244080
   7.4904880  47.5886300  84.3572510   7.3554420  46.2553710  85.0615680
  17.5160240  32.4744260  68.6683860  17.2032900  32.5671090  69.5682930
  18.2772710  33.0525290  68.6181290   4.0342380  39.8404060  73.1261200
   3.9139980  40.5666150  72.5142470   3.7243270  39.0706970  72.6489110
   2.9175380  44.7119390  75.3436020   2.5103460  44.8533980  74.4889620
   3.8088390  44.4279550  75.1407230  18.8737520  45.1583300  83.6808260
  19.0000580  44.9195180  82.7625440  18.9158900  44.3267840  84.1530340
  12.7354260  48.8611300  82.2503070  13.2498930  48.7719310  83.0525500
  11.8923340  49.2071000  82.5430980  14.7108660  49.1466640  71.6787070
  14.5509800  48.8569580  72.5768900  14.5455370  48.3706770  71.1432300
   7.1897040  48.9265170  73.4558690   7.0139520  48.0100710  73.2426490
   6.3352780  49.2852460  73.6956490  14.4134790  46.6554200  70.2385070
  13.7199950  46.6531490  69.5787350  15.1557650  46.2313520  69.8079240
  13.9784720  48.2816910  74.3133560  14.4341670  47.5006290  74.6272180
  14.3177240  48.9923730  74.8574740  18.7261530  37.2115760  84.6458000
  18.1105800  37.7195430  84.1173460  18.4057950  36.3114090  84.5883940
   6.5006040  33.1839130  76.5084870   6.0574190  33.9648670  76.1769390
   7.0591030  33.5069020  77.2155810  10.7875850  36.0507650  82.1120190
  10.3255220  36.2590670  82.9240130  10.3853960  35.2367000  81.8090860
  15.7880360  37.2716600  83.2416850  14.9373950  36.9722350  83.5625920
  15.6282150  37.5158610  82.3300670  12.8830070  38.7718350  85.3415640
  13.2083480  37.9382100  85.0017870  13.6710400  39.2946870  85.4893970
   9.6164860  32.8049830  71.3890700   8.9919040  32.8009700  72.1144010
   9.5294980  31.9380790  70.9926670   8.5381940  33.7286460  78.3674470
   8.8354270  34.6349290  78.2866490   9.0867500  33.2405240  77.7534040
   6.2920260  38.3072700  74.2366120   6.0661180  38.0909870  75.1412740
   5.5112790  38.7401160  73.8912090  13.5218020  38.3136070  72.8356770
  12.9226910  39.0371870  72.6520390  14.0697630  38.2512850  72.0533220
   8.7319470  39.2058280  84.9026390   8.6363070  38.2653010  84.7526790
   9.5751450  39.4273350  84.5074460  12.1282890  36.9499610  74.8660050
  12.5212460  37.2671810  74.0528740  12.4899740  36.0711490  74.9804570
   3.8630010  35.6171950  83.0560170   3.4693400  36.4647160  83.2632950
   3.1748410  34.9798320  83.2468810  10.4375060  35.7006920  86.1256910
   9.7473380  35.5079120  86.7603000  11.1807360  35.9841560  86.6581210
  12.7138030  39.5405360  78.9610830  11.9819150  40.0492170  79.3100930
  12.3162370  38.7235340  78.6599610   9.1515420  36.2159560  77.3663320
   9.1551480  35.7749510  76.5167860  10.0466540  36.5376890  77.4735140
   5.0017800  36.0986050  76.3257530   4.6617850  36.5761280  77.0824580
   4.2395120  35.6451170  75.9658630   9.2135570  37.2171640  70.3570080
   9.3348390  37.1758120  71.3055900   8.8284080  38.0795790  70.2016810
  13.1763940  34.9939040  78.3733770  13.1936680  35.4447690  79.2175620
  12.9279520  34.0944680  78.5867210   8.2257070  39.5272780  69.7553380
   7.6573970  39.0791030  69.1289290   8.9346070  39.8865560  69.2218530
  16.6034690  32.4071220  84.2120150  16.9280460  31.6760880  84.7378130
  16.6391200  32.0884860  83.3101140   3.3026250  43.4284800  83.6320110
   2.9181040  42.7878470  84.2303070   3.6138440  44.1320920  84.2014840
   9.4523390  40.2761340  79.1128730   9.8193520  39.8019910  79.8590070
   9.2628450  41.1502910  79.4537070   2.3163880  35.0205030  75.2422200
   2.0310800  34.6560700  76.0800820   2.2542740  34.2885490  74.6285340
   7.2422760  39.3169980  81.4312940   6.9379830  40.1961960  81.6563300
   8.1969220  39.3769770  81.4670380   5.7704550  43.5230970  72.0279790
   4.9966810  42.9828590  71.8678510   6.4999180  43.0037580  71.6897550
  16.5292530  42.5196330  77.8206180  17.2491650  43.0151620  77.4302290
  16.3274350  41.8414220  77.1760050  11.9902470  33.9134290  71.9635570
  11.1767080  33.4147460  71.8880880  11.7964420  34.7532540  71.5471920
  11.9111330  42.5905390  83.7075180  11.8448640  41.6701060  83.4532770
  11.2816470  42.6880830  84.4219820  14.7050860  38.2853940  70.2597730
  15.5930480  38.5971170  70.0849070  14.6755950  37.4126190  69.8678310
   5.8141950  43.1911350  75.6658600   6.3320620  42.3879610  75.6115490
   5.3625970  43.1290490  76.5075430  10.7011450  44.4577630  70.9385900
  11.0427150  45.2019860  70.4429220   9.8724160  44.7708750  71.3010730
   3.2986490  40.1572720  82.5784300   2.9401430  40.8226570  83.1657640
   3.0041050  39.3256270  82.9496920   6.4999610  40.6156960  85.4623850
   6.1999750  40.7614140  84.5651670   7.2710850  40.0562250  85.3697240
  11.8428060  45.4125960  83.4578980  11.8572600  44.4806920  83.2397890
  11.1353160  45.4985720  84.0968750  16.9765130  39.5965780  69.7277590
  16.8928850  40.0280000  68.8774030  17.6959320  40.0564130  70.1604410
  18.0539270  42.0533300  82.8047560  17.3287460  42.6462080  82.6076950
  18.5814730  42.0456840  82.0060930  18.0052380  46.4508040  72.4559720
  17.3628540  45.7963660  72.7303440  17.6183040  46.8563130  71.6800390
  13.5838860  43.7793470  76.3031410  13.9362680  43.1821600  75.6432780
  12.7001190  43.4537700  76.4739660   9.6702140  44.5391160  73.7101820
  10.3573270  45.0860370  74.0909410   8.8834560  45.0831890  73.7451430
   8.9729350  41.5437190  73.3227180   9.4292130  42.3542440  73.5487370
   8.6217560  41.2260330  74.1545670  11.2761960  47.0543530  80.5519480
  11.9204180  47.2602910  81.2292900  11.6391400  46.2931930  80.0990330
   4.8741130  31.8874840  73.7949700   4.7455760  31.8792740  74.7434620
   4.0503150  32.2257930  73.4440710  12.5494040  45.0575880  79.2696930
  13.1916270  44.3569040  79.3829100  13.0743390  45.8374320  79.0893820
  16.3949760  45.3424500  68.9936070  16.1687340  44.6254940  69.5860710
  16.0045960  45.0936940  68.1557820  14.3231660  45.8570780  82.4732990
  14.6587900  46.4437470  83.1510910  13.4032000  45.7263490  82.7030780
   2.1765790  49.3691360  69.7680530   2.5363430  49.9680700  69.1137800
   2.0358130  49.9151250  70.5415560  15.9766010  43.2596440  70.6550230
  15.6887710  43.7209130  71.4428110  16.7718180  42.7994210  70.9234450
  10.1520240  45.9062110  85.6421050   9.8317110  45.1871350  86.1866740
   9.4778600  46.5817180  85.7157110   8.1934410  46.7522560  70.5854200
   8.1844510  47.4852250  69.9698710   7.2732770  46.5054140  70.6781160
   3.7941050  41.9737450  71.3300960   3.1869000  42.7136350  71.3396260
   4.2690400  42.0636810  70.5039160  13.3673840  36.1388270  81.0057850
  13.7354660  35.3183480  81.3337420  12.5072040  36.1990160  81.4213500
  16.7335870  35.0945210  71.8145410  16.1049030  35.1990880  71.1003640
  16.2387790  35.3141990  72.6039290  11.1794010  46.8150800  69.2479390
  11.2805990  46.6114790  68.3181370  10.2795750  46.5609080  69.4527170
   8.7019900  37.3731160  73.2303290   7.9936050  37.8417500  73.6716900
   8.9864380  36.7153170  73.8648480  10.3275830  38.7927860  81.2295820
  10.8261080  39.2673680  81.8947670  10.4698780  37.8691380  81.4365850
  12.7335330  34.0981820  74.6699080  12.6103110  34.1167950  73.7208590
  13.6819890  34.1460760  74.7897480   9.8212120  49.3337120  73.9427060
  10.0753620  49.2958510  73.0206430   8.8724600  49.2070450  73.9355310
   6.9054920  35.6816240  70.6054000   7.7545450  36.1186390  70.5394190
   6.5386190  35.9936500  71.4326060  17.5342690  35.0095820  82.0724210
  17.0316290  35.7501220  82.4118020  18.3499350  35.3979820  81.7561000
  15.8264700  40.2529000  75.5185570  14.8854840  40.2679230  75.6933260
  16.1408770  39.4664960  75.9645870   5.8046340  41.9348600  69.0789530
   6.5709610  41.8229960  69.6414960   5.8821030  41.2386570  68.4266300
   4.4993100  39.3673670  69.7622420   4.5796690  38.4201180  69.8739820
   5.3912850  39.6980550  69.8683080  17.8290280  47.4237850  77.1939830
  17.9537700  48.2469020  77.6663640  18.6955840  47.2128580  76.8463980
   5.3007810  49.5169060  76.8656960   6.0370290  48.9684520  77.1365530
   5.6848730  50.3825070  76.7262950   4.3066090  48.7015130  86.0542540
   5.1078820  49.0227180  86.4677940   3.7917910  48.3410710  86.7762450
   8.4110120  48.6899370  68.6882530   9.2038730  48.9788200  68.2364320
   7.8914470  48.2591540  68.0095010  13.1430720  44.8095000  86.0017950
  12.5368880  44.8326600  85.2613700  12.8384830  44.0778040  86.5385200
  14.5731090  48.5375290  84.6127360  15.5252840  48.4533310  84.5627600
  14.4259310  49.2017000  85.2861150  17.4640290  47.9169500  70.1119270
  17.1781800  47.5034640  69.2973450  17.2659840  48.8457210  69.9919790
   8.9287520  43.9102780  68.5524880   8.8238160  43.2955130  69.2786260
   8.7611740  43.3868670  67.7687890   9.0801840  42.5959580  84.5314110
   8.3147510  43.1644580  84.4468780   9.2617800  42.3035790  83.6382340
  12.1690250  42.9722810  69.1566870  11.6200350  43.4192110  69.8009610
  12.7909510  42.4672060  69.6804540  16.2225190  44.3264910  85.0889130
  16.9634660  44.6640670  84.5856590  15.4597870  44.4956970  84.5358900
   4.0586980  39.3318180  85.8928660   4.0992320  39.0332050  86.8013890
   4.9132480  39.7325790  85.7336180   7.8365370  41.9313730  71.0532170
   8.2581790  41.7653600  71.8963560   7.9616210  41.1213960  70.5587310
   5.9992790  37.9110280  83.8603150   5.4689250  37.4201230  83.2326490
   6.6680860  38.3394480  83.3261080  10.3493010  40.9551340  68.3009270
  10.8698670  40.2400360  67.9350420  10.9961410  41.5937210  68.6009780
  14.8970850  42.3779740  83.6244340  15.3111870  42.5324820  84.4734760
  13.9621850  42.5034960  83.7870120  15.3693020  39.7175900  85.6283490
  15.9513790  38.9628220  85.5403970  15.5454790  40.2483340  84.8514970
   6.4865090  34.8772650  83.9400440   6.3921960  34.2593400  83.2151310
   5.9062480  35.6038940  83.7130350   9.2526530  33.4345890  80.9727830
   8.8043830  33.4570150  80.1273380   8.6191730  33.0364910  81.5698130
   9.6586080  42.3300220  81.5940270  10.0774190  43.1732950  81.4216510
   8.7394710  42.4672260  81.3647050  11.9949980  40.0616400  82.9778110
  12.1146190  39.4657540  83.7172950  12.8543980  40.0986090  82.5579410
  14.3337880  40.6153590  81.5540620  13.8073100  41.1396210  80.9505760
  14.6769220  41.2480980  82.1850350   6.7324270  38.0046960  67.9990330
   6.5313330  37.1414320  68.3603670   6.5616320  37.9180320  67.0611930
   7.5093500  48.6353230  82.7098000   6.9714590  49.3599290  82.3906700
   7.7627460  48.1583570  81.9195340   8.7618750  36.6037750  84.2353930
   9.3518440  36.2953600  84.9231750   7.9438990  36.1317500  84.3913830
  13.5812180  36.2203560  84.4686950  12.8927700  35.5585100  84.4036940
  14.3018200  35.7741830  84.9135410  14.2112580  32.8155190  70.5277210
  14.4914870  31.9723090  70.8836630  13.4378310  33.0478300  71.0415960
   5.5307070  35.1047580  67.9868210   5.8332970  35.1115010  67.0787360
   6.2701660  34.7545440  68.4835870  10.3655710  49.8704440  82.9684650
  10.2914410  50.7739580  83.2757020   9.4634550  49.5516340  82.9406720
   8.7492000  34.0482200  68.9724410   8.4014000  33.3706190  68.3926860
   8.9504770  33.5871710  69.7867800  10.9141040  49.0362950  70.5911010
  11.8091830  49.3747920  70.6129770  10.9458670  48.3142360  69.9635290
   4.5537200  44.4090000  68.8198010   4.9912070  44.9519670  69.4755590
   5.0384930  43.5836950  68.8294350   1.7683000  47.1979030  76.2718270
   2.0986010  46.3300090  76.0396910   2.1974000  47.4037550  77.1023230
   6.3644920  45.5288040  73.9320240   6.0640460  45.4053010  74.8324150
   6.2582410  44.6696630  73.5235970   2.2573210  48.0649620  79.0099900
   1.8204200  48.2450420  79.8424050   2.8250890  48.8224240  78.8681620
  17.8935390  47.5666620  83.2977210  17.2937380  47.6259180  82.5541130
  18.0229290  46.6271600  83.4274060  19.1336840  45.3084440  68.6346920
  18.3029800  45.3761090  69.1054150  19.3108670  46.1988560  68.3313780
  18.5893300  42.0531920  71.1381120  19.3512210  42.6228570  71.2440810
  18.6047670  41.4859120  71.9089430  19.5953270  42.9082020  75.9823050
  19.9662100  42.1249340  75.5759020  20.2355200  43.5971120  75.8040350
  16.5787030  44.2918600  81.3953370  15.7646870  44.7215760  81.6579160
  16.9861230  44.9037010  80.7822420  18.6412470  42.3466290  68.2953640
  18.9161310  43.2545170  68.1672860  18.4523210  42.2828820  69.2315630
  15.0388080  35.3711140  69.5907270  15.4572960  35.1842120  68.7503930
  14.7324140  34.5190190  69.9010200  18.5377810  40.2835280  73.2883070
  18.1621410  39.5163210  72.8564360  17.8080930  40.6657980  73.7758000
   3.1273570  40.9622420  79.9092120   3.4946610  40.8749820  80.7888140
   2.5584390  40.1988970  79.8098980  17.9277430  39.4306800  82.9222590
  17.6963520  39.2019550  82.0220540  18.1881980  40.3506350  82.8767480
   2.6789570  37.8731510  83.8150540   1.7845620  37.8398270  84.1544250
   3.2187120  38.0718300  84.5801790  16.3665500  34.6563230  85.7002290
  17.2435680  34.6646630  86.0836290  16.3786340  33.9194070  85.0894640
  17.8128770  38.5092770  76.5890310  18.3366250  38.0155420  75.9580480
  18.3988190  38.6443130  77.3337880  17.9918490  38.5932640  80.1109860
  17.0421200  38.5596180  80.2254850  18.1731500  39.5032750  79.8759630
   3.8462930  36.8434320  69.2208490   4.5554630  36.4217540  68.7355770
   3.1302870  36.9109550  68.5891840   3.4937090  32.8973650  68.2611140
   4.2165220  33.4382590  68.5792360   3.7661610  32.6237070  67.3852680
  17.3028740  37.7666120  72.5282720  17.7987860  37.5336990  73.3131600
  17.1044810  36.9277960  72.1120360   3.1829280  32.1479840  78.1633760
   3.8305470  31.5977220  77.7228920   3.6031120  32.4022990  78.9849570
  18.7315900  36.4027070  75.0620400  18.6215180  36.2483110  76.0002670
  19.4923490  35.8748010  74.8195810  17.0781620  32.3421200  81.5203400
  17.7153840  32.9555340  81.8862590  17.2256510  32.3781860  80.5752630
  19.6206170  34.2334990  68.3026540  20.5455480  34.1016170  68.0944830
  19.5981960  34.3127810  69.2562990  19.6944660  35.0045650  70.9283250
  18.8996160  34.9390770  71.4576160  19.8987940  35.9396290  70.9168600
  16.6363080  49.0437200  74.9221640  17.2322150  48.7221770  74.2456060
  16.8941230  48.5709020  75.7134910   2.9361280  32.3035510  80.9059080
   2.5876100  32.7599330  81.6717260   2.6048980  31.4092640  80.9881510
   4.5425650  45.4755110  85.0712270   4.4995280  45.1048020  85.9526730
   4.6736660  46.4132680  85.2114090   8.2431680  47.0314700  80.6721990
   8.0023040  47.2989260  79.7852510   9.1834320  47.2020430  80.7272850
  10.4486100  33.4947390  84.4278500  10.3874990  34.0869220  85.1773910
  11.3886480  33.3873350  84.2828760  13.0860660  33.1517450  84.0670790
  13.7001070  33.4696740  83.4051870  13.6310220  32.6666040  84.6866650
  19.5035840  49.0509080  81.4732630  19.0094120  49.4477950  80.7559760
  18.8949130  48.4258290  81.8669910   3.6081920  31.8311710  84.1809850
   4.1564910  31.6499760  83.4175960   3.6737230  31.0405820  84.7166160
   4.3813680  48.4217360  82.1910050   3.7874000  48.2902060  82.9300090
   4.3737520  47.5855500  81.7252150  13.8268700  31.7149590  80.3940080
  12.9528540  32.0484700  80.1913010  13.7179450  31.2422770  81.2191950
  14.7340680  33.9220460  81.7781800  14.4054040  33.1072220  81.3983530
  15.6822980  33.8790270  81.6547490  17.1875290  49.6932500  78.7519370
  16.7278260  50.4448310  78.3777390  16.5587750  48.9738970  78.6934170
   4.0125910  45.7875740  81.1418090   3.2859970  45.1681030  81.0744040
   4.0735060  46.1816350  80.2716170   7.6171010  48.0020740  77.9267500
   8.1336030  47.3908100  77.4015760   8.2668390  48.5049520  78.4178510
  10.3566510  48.8929230  78.7536480  10.6444320  48.6383530  77.8769490
  10.8689730  48.3406590  79.3442050  11.5743520  32.6319430  79.3332990
  10.7915310  33.1064930  79.6129750  11.2806450  31.7274260  79.2246170
  16.1264590  33.3342530  77.3782080  16.5672680  33.2787630  76.5303680
  15.8572180  34.2500540  77.4492260  17.9903160  32.9657770  75.3890900
  17.9291560  32.0218990  75.2421920  18.7695190  33.0737860  75.9344360
   2.9183930  32.9366910  71.8546710   3.6763290  33.0495790  71.2810740
   2.4561100  33.7736110  71.8090140   9.4597740  35.0506180  74.8449020
   8.6472250  34.6763070  74.5044900   9.9639380  34.2951260  75.1470210
  13.9622720  31.7148630  76.0832090  14.5652090  32.2868840  76.5580610
  13.2215710  32.2788070  75.8605990  17.1057320  32.1170190  71.3572370
  17.3007950  33.0153640  71.6239800  16.3187190  31.8857270  71.8505320
   3.9018610  47.7983360  71.7964990   3.3766230  48.1791390  71.0926950
   3.8263190  48.4234130  72.5174700   5.2909080  33.4630960  70.3948680
   5.8201840  32.6760760  70.2656630   5.9237400  34.1422150  70.6284210
   7.4846920  33.2006100  73.4494070   6.8549660  32.4993410  73.6164200
   6.9452060  33.9610230  73.2327230  10.4238870  49.8145330  86.1204680
  11.3506180  49.5789600  86.1640640  10.4089300  50.6417330  85.6390710
  18.6583930  49.3570900  73.1178930  18.8336120  48.6708640  72.4739850
  17.9605500  49.8817950  72.7255600   7.6102480  32.4790080  85.8846560
   7.3286750  32.9823680  85.1207380   7.9922180  31.6811830  85.5188690
   6.5011580  49.7465740  70.6714240   7.2330400  49.4625020  70.1238130
   6.7605250  49.5079020  71.5613620   5.6626370  45.8630470  70.6760570
   5.0335250  46.3315570  71.2246400   5.7774200  45.0179690  71.1106760
  14.2117940  31.8943660  86.4627030  14.0983390  32.2138270  87.3578550
  15.0287680  32.2956170  86.1664310  16.9916430  49.0415190  85.9445720
  17.7841750  48.5464420  85.7371680  17.2849580  49.7205330  86.5521330
  13.1176090  39.9136130  56.8261770  13.0370140  38.9990740  56.5553480
  12.7040510  40.4103200  56.1201480  11.2494130  41.6915150  58.7071040
  10.4736230  41.2115590  58.9969610  11.9007060  41.0120800  58.5327200
   5.2659960  42.0034960  59.5846800   4.4344840  41.7483670  59.9843310
   5.8740940  42.0745730  60.3204720  15.2701560  46.0975340  57.4870170
  14.8083090  45.3262580  57.8157340  16.0827110  46.1241410  57.9922620
   5.2461220  46.0375050  59.7804820   5.5489260  45.1472790  59.6015040
   5.9904810  46.5945270  59.5527070   3.6751910  36.9636850  53.3689190
   2.7868610  37.3052820  53.2669070   3.9593100  36.7637170  52.4770020
  11.4964870  48.3833350  57.1074160  10.8776310  48.8390850  56.5368600
  12.3516650  48.5384810  56.7063860  10.6903120  44.3672340  58.7141200
  10.6211400  43.4262280  58.5530330  11.4522980  44.4573750  59.2863770
   2.8809790  34.9726860  61.0397820   2.7012630  34.0752610  61.3200580
   2.4789870  35.5198730  61.7144770  11.7208290  37.1742720  58.9410130
  12.0973110  36.3014600  58.8283800  11.6227800  37.5101420  58.0500570
   5.8513300  35.5468350  54.4027570   5.9580050  36.4472080  54.7096330
   4.9405660  35.4986320  54.1122220  15.5032410  34.6693160  55.8738470
  16.3242030  34.1789730  55.9163950  15.5366490  35.2590820  56.6270310
   3.4996460  37.4687360  59.6480160   4.1806570  37.7325730  60.2667560
   3.1844510  36.6288230  59.9818170   7.6921030  38.5154720  58.7352750
   8.1999250  39.0135690  59.3757770   8.2234270  37.7389920  58.5592110
  19.7931960  36.6859910  62.4382100  19.0884130  37.0741620  61.9197210
  20.0589880  37.3810200  63.0403030   5.9757130  33.1553280  63.0016170
   5.9775570  33.6725670  62.1962070   5.1461440  32.6783460  62.9786100
  12.3628220  43.2672590  54.5006070  11.7445490  43.7322040  53.9368790
  12.8751470  43.9600070  54.9175580   7.2259980  42.7948460  61.1789670
   6.8929360  43.4217380  61.8210740   7.4026660  43.3210340  60.3991340
  15.7393890  36.6093540  58.6466010  15.0349460  36.8978430  59.2269120
  16.1006050  37.4193650  58.2865570   5.6572460  34.8663240  61.0086620
   5.9989270  35.7105290  60.7140490   4.7188270  35.0146980  61.1251960
   6.4379080  44.7629260  62.9938850   7.0553080  45.4380340  62.7123300
   5.5772200  45.1717240  62.9026350  17.3556670  46.2268670  60.9093490
  16.6720190  46.8967780  60.9010160  17.8950960  46.4249320  60.1438350
  18.8080810  36.0548330  59.0375220  17.8605720  36.0887310  59.1690650
  19.1330800  36.8687280  59.4224580   9.3400350  32.3545510  57.3331210
   9.6475330  31.7992400  56.6166710   8.4101050  32.4889970  57.1504200
  14.8915410  48.0712800  59.6238670  14.9042570  47.6675090  58.7560930
  14.3390630  48.8460090  59.5200100  16.1860830  44.7929020  54.7128840
  16.0757160  43.8503350  54.8378260  16.1829080  45.1544660  55.5991600
  14.2900850  42.9742640  60.9521280  14.7069640  42.7602750  60.1174740
  15.0140670  43.2315430  61.5229900  11.7281110  40.4194340  54.0691330
  10.8010390  40.3531720  54.2979800  11.8805930  41.3574470  53.9546570
  11.7150190  36.6911340  51.0658490  10.7753860  36.8525300  51.1510950
  12.0333450  37.4097020  50.5194480  18.2362950  41.3729860  61.0437520
  17.4081580  41.4422950  60.5687650  18.8313430  41.9584170  60.5753350
  15.7578400  41.9814640  54.5726580  15.1390820  41.6434190  53.9252880
  15.7402850  41.3374400  55.2805770  15.2004960  38.1599180  61.9892390
  14.7876140  38.9852890  62.2432380  14.4680910  37.5744220  61.7968750
   7.3337750  40.9459080  56.8511060   6.9294750  40.2336330  56.3556960
   7.4200870  40.6012320  57.7399100   7.8019450  44.6326640  59.0150270
   7.5047740  44.0272110  58.3358050   8.7519270  44.6703950  58.9039630
   6.0466370  37.7202290  60.6310100   6.5980960  37.8297630  59.8563350
   6.5609880  38.0939890  61.3465330  15.8905060  48.2058510  62.6773370
  15.4135620  49.0130700  62.4845980  15.2066850  47.5536840  62.8299580
   6.8937880  44.3708330  65.6658070   5.9966410  44.5948300  65.9131470
   6.9190750  44.4943270  64.7169470  13.9343100  41.2201450  51.5799330
  14.3736380  40.3823880  51.4337150  14.6471520  41.8530850  51.6663470
   5.7209100  41.2421650  64.2415440   5.5816870  42.1144450  64.6102840
   4.8390460  40.8994460  64.0963380  12.0438480  46.1597520  55.5480570
  12.4834390  46.9021850  55.1335960  11.9825370  46.4024090  56.4719530
   7.5189450  47.1843350  66.4500590   7.4904880  47.5886300  65.5829020
   7.3554420  46.2553710  66.2872190  17.5160240  32.4744260  49.8940370
  17.2032900  32.5671090  50.7939440  18.2772710  33.0525290  49.8437800
   4.0342380  39.8404060  54.3517710   3.9139980  40.5666150  53.7398980
   3.7243270  39.0706970  53.8745620  19.4704270  47.9670450  67.7464760
  19.9463990  48.4453340  68.4253840  20.0911430  47.8987940  67.0210260
   2.9175380  44.7119390  56.5692530   2.5103460  44.8533980  55.7146130
   3.8088390  44.4279550  56.3663740  18.8737520  45.1583300  64.9064770
  19.0000580  44.9195180  63.9881950  18.9158900  44.3267840  65.3786850
  12.7354260  48.8611300  63.4759580  13.2498930  48.7719310  64.2782010
  11.8923340  49.2071000  63.7687490  14.7108660  49.1466640  52.9043580
  14.5509800  48.8569580  53.8025410  14.5455370  48.3706770  52.3688810
   7.1897040  48.9265170  54.6815200   7.0139520  48.0100710  54.4683000
   6.3352780  49.2852460  54.9213000  14.4134790  46.6554200  51.4641580
  13.7199950  46.6531490  50.8043860  15.1557650  46.2313520  51.0335750
  13.9784720  48.2816910  55.5390070  14.4341670  47.5006290  55.8528690
  14.3177240  48.9923730  56.0831250  18.7261530  37.2115760  65.8714510
  18.1105800  37.7195430  65.3429970  18.4057950  36.3114090  65.8140450
   6.5006040  33.1839130  57.7341380   6.0574190  33.9648670  57.4025900
   7.0591030  33.5069020  58.4412320  10.7875850  36.0507650  63.3376700
  10.3255220  36.2590670  64.1496640  10.3853960  35.2367000  63.0347370
  15.7880360  37.2716600  64.4673360  14.9373950  36.9722350  64.7882430
  15.6282150  37.5158610  63.5557180  12.8830070  38.7718350  66.5672150
  13.2083480  37.9382100  66.2274380  13.6710400  39.2946870  66.7150480
   9.6164860  32.8049830  52.6147210   8.9919040  32.8009700  53.3400520
   9.5294980  31.9380790  52.2183180   8.5381940  33.7286460  59.5930980
   8.8354270  34.6349290  59.5123000   9.0867500  33.2405240  58.9790550
   6.2920260  38.3072700  55.4622630   6.0661180  38.0909870  56.3669250
   5.5112790  38.7401160  55.1168600  13.5218020  38.3136070  54.0613280
  12.9226910  39.0371870  53.8776900  14.0697630  38.2512850  53.2789730
   8.7319470  39.2058280  66.1282900   8.6363070  38.2653010  65.9783300
   9.5751450  39.4273350  65.7330970  12.1282890  36.9499610  56.0916560
  12.5212460  37.2671810  55.2785250  12.4899740  36.0711490  56.2061080
   3.8630010  35.6171950  64.2816680   3.4693400  36.4647160  64.4889460
   3.1748410  34.9798320  64.4725320  10.4375060  35.7006920  67.3513420
   9.7473380  35.5079120  67.9859510  11.1807360  35.9841560  67.8837720
  12.7138030  39.5405360  60.1867340  11.9819150  40.0492170  60.5357440
  12.3162370  38.7235340  59.8856120   9.1515420  36.2159560  58.5919830
   9.1551480  35.7749510  57.7424370  10.0466540  36.5376890  58.6991650
   5.0017800  36.0986050  57.5514040   4.6617850  36.5761280  58.3081090
   4.2395120  35.6451170  57.1915140   9.2135570  37.2171640  51.5826590
   9.3348390  37.1758120  52.5312410   8.8284080  38.0795790  51.4273320
  13.1763940  34.9939040  59.5990280  13.1936680  35.4447690  60.4432130
  12.9279520  34.0944680  59.8123720   8.2257070  39.5272780  50.9809890
   7.6573970  39.0791030  50.3545800   8.9346070  39.8865560  50.4475040
  16.6034690  32.4071220  65.4376660  16.9280460  31.6760880  65.9634640
  16.6391200  32.0884860  64.5357650   3.3026250  43.4284800  64.8576620
   2.9181040  42.7878470  65.4559580   3.6138440  44.1320920  65.4271350
   9.4523390  40.2761340  60.3385240   9.8193520  39.8019910  61.0846580
   9.2628450  41.1502910  60.6793580   2.3163880  35.0205030  56.4678710
   2.0310800  34.6560700  57.3057330   2.2542740  34.2885490  55.8541850
   7.2422760  39.3169980  62.6569450   6.9379830  40.1961960  62.8819810
   8.1969220  39.3769770  62.6926890   5.7704550  43.5230970  53.2536300
   4.9966810  42.9828590  53.0935020   6.4999180  43.0037580  52.9154060
  16.5292530  42.5196330  59.0462690  17.2491650  43.0151620  58.6558800
  16.3274350  41.8414220  58.4016560  11.9902470  33.9134290  53.1892080
  11.1767080  33.4147460  53.1137390  11.7964420  34.7532540  52.7728430
  11.9111330  42.5905390  64.9331690  11.8448640  41.6701060  64.6789280
  11.2816470  42.6880830  65.6476330  14.7050860  38.2853940  51.4854240
  15.5930480  38.5971170  51.3105580  14.6755950  37.4126190  51.0934820
   5.8141950  43.1911350  56.8915110   6.3320620  42.3879610  56.8372000
   5.3625970  43.1290490  57.7331940  10.7011450  44.4577630  52.1642410
  11.0427150  45.2019860  51.6685730   9.8724160  44.7708750  52.5267240
   3.2986490  40.1572720  63.8040810   2.9401430  40.8226570  64.3914150
   3.0041050  39.3256270  64.1753430   6.4999610  40.6156960  66.6880360
   6.1999750  40.7614140  65.7908180   7.2710850  40.0562250  66.5953750
  11.8428060  45.4125960  64.6835490  11.8572600  44.4806920  64.4654400
  11.1353160  45.4985720  65.3225260  16.9765130  39.5965780  50.9534100
  16.8928850  40.0280000  50.1030540  17.6959320  40.0564130  51.3860920
  18.0539270  42.0533300  64.0304070  17.3287460  42.6462080  63.8333460
  18.5814730  42.0456840  63.2317440  18.0052380  46.4508040  53.6816230
  17.3628540  45.7963660  53.9559950  17.6183040  46.8563130  52.9056900
  13.5838860  43.7793470  57.5287920  13.9362680  43.1821600  56.8689290
  12.7001190  43.4537700  57.6996170   9.6702140  44.5391160  54.9358330
  10.3573270  45.0860370  55.3165920   8.8834560  45.0831890  54.9707940
   8.9729350  41.5437190  54.5483690   9.4292130  42.3542440  54.7743880
   8.6217560  41.2260330  55.3802180  11.2761960  47.0543530  61.7775990
  11.9204180  47.2602910  62.4549410  11.6391400  46.2931930  61.3246840
   4.8741130  31.8874840  55.0206210   4.7455760  31.8792740  55.9691130
   4.0503150  32.2257930  54.6697220  12.5494040  45.0575880  60.4953440
  13.1916270  44.3569040  60.6085610  13.0743390  45.8374320  60.3150330
  16.3949760  45.3424500  50.2192580  16.1687340  44.6254940  50.8117220
  16.0045960  45.0936940  49.3814330  14.3231660  45.8570780  63.6989500
  14.6587900  46.4437470  64.3767420  13.4032000  45.7263490  63.9287290
   2.1765790  49.3691360  50.9937040   2.5363430  49.9680700  50.3394310
   2.0358130  49.9151250  51.7672070  15.9766010  43.2596440  51.8806740
  15.6887710  43.7209130  52.6684620  16.7718180  42.7994210  52.1490960
  10.1520240  45.9062110  66.8677560   9.8317110  45.1871350  67.4123250
   9.4778600  46.5817180  66.9413620   8.1934410  46.7522560  51.8110710
   8.1844510  47.4852250  51.1955220   7.2732770  46.5054140  51.9037670
   3.7941050  41.9737450  52.5557470   3.1869000  42.7136350  52.5652770
   4.2690400  42.0636810  51.7295670  13.3673840  36.1388270  62.2314360
  13.7354660  35.3183480  62.5593930  12.5072040  36.1990160  62.6470010
  16.7335870  35.0945210  53.0401920  16.1049030  35.1990880  52.3260150
  16.2387790  35.3141990  53.8295800  11.1794010  46.8150800  50.4735900
  11.2805990  46.6114790  49.5437880  10.2795750  46.5609080  50.6783680
   8.7019900  37.3731160  54.4559800   7.9936050  37.8417500  54.8973410
   8.9864380  36.7153170  55.0904990  10.3275830  38.7927860  62.4552330
  10.8261080  39.2673680  63.1204180  10.4698780  37.8691380  62.6622360
  12.7335330  34.0981820  55.8955590  12.6103110  34.1167950  54.9465100
  13.6819890  34.1460760  56.0153990   9.8212120  49.3337120  55.1683570
  10.0753620  49.2958510  54.2462940   8.8724600  49.2070450  55.1611820
   6.9054920  35.6816240  51.8310510   7.7545450  36.1186390  51.7650700
   6.5386190  35.9936500  52.6582570  17.5342690  35.0095820  63.2980720
  17.0316290  35.7501220  63.6374530  18.3499350  35.3979820  62.9817510
  15.8264700  40.2529000  56.7442080  14.8854840  40.2679230  56.9189770
  16.1408770  39.4664960  57.1902380   5.8046340  41.9348600  50.3046040
   6.5709610  41.8229960  50.8671470   5.8821030  41.2386570  49.6522810
   4.4993100  39.3673670  50.9878930   4.5796690  38.4201180  51.0996330
   5.3912850  39.6980550  51.0939590  17.8290280  47.4237850  58.4196340
  17.9537700  48.2469020  58.8920150  18.6955840  47.2128580  58.0720490
   5.3007810  49.5169060  58.0913470   6.0370290  48.9684520  58.3622040
   5.6848730  50.3825070  57.9519460   4.3066090  48.7015130  67.2799050
   5.1078820  49.0227180  67.6934450   3.7917910  48.3410710  68.0018960
   8.4110120  48.6899370  49.9139040   9.2038730  48.9788200  49.4620830
   7.8914470  48.2591540  49.2351520  13.1430720  44.8095000  67.2274460
  12.5368880  44.8326600  66.4870210  12.8384830  44.0778040  67.7641710
  14.5731090  48.5375290  65.8383870  15.5252840  48.4533310  65.7884110
  14.4259310  49.2017000  66.5117660  17.4640290  47.9169500  51.3375780
  17.1781800  47.5034640  50.5229960  17.2659840  48.8457210  51.2176300
   8.9287520  43.9102780  49.7781390   8.8238160  43.2955130  50.5042770
   8.7611740  43.3868670  48.9944400   9.0801840  42.5959580  65.7570620
   8.3147510  43.1644580  65.6725290   9.2617800  42.3035790  64.8638850
  12.1690250  42.9722810  50.3823380  11.6200350  43.4192110  51.0266120
  12.7909510  42.4672060  50.9061050  16.2225190  44.3264910  66.3145640
  16.9634660  44.6640670  65.8113100  15.4597870  44.4956970  65.7615410
   4.0586980  39.3318180  67.1185170   4.0992320  39.0332050  68.0270400
   4.9132480  39.7325790  66.9592690   7.8365370  41.9313730  52.2788680
   8.2581790  41.7653600  53.1220070   7.9616210  41.1213960  51.7843820
   5.9992790  37.9110280  65.0859660   5.4689250  37.4201230  64.4583000
   6.6680860  38.3394480  64.5517590  10.3493010  40.9551340  49.5265780
  10.8698670  40.2400360  49.1606930  10.9961410  41.5937210  49.8266290
  14.8970850  42.3779740  64.8500850  15.3111870  42.5324820  65.6991270
  13.9621850  42.5034960  65.0126630  15.3693020  39.7175900  66.8540000
  15.9513790  38.9628220  66.7660480  15.5454790  40.2483340  66.0771480
   6.4865090  34.8772650  65.1656950   6.3921960  34.2593400  64.4407820
   5.9062480  35.6038940  64.9386860   9.2526530  33.4345890  62.1984340
   8.8043830  33.4570150  61.3529890   8.6191730  33.0364910  62.7954640
   9.6586080  42.3300220  62.8196780  10.0774190  43.1732950  62.6473020
   8.7394710  42.4672260  62.5903560  11.9949980  40.0616400  64.2034620
  12.1146190  39.4657540  64.9429460  12.8543980  40.0986090  63.7835920
  14.3337880  40.6153590  62.7797130  13.8073100  41.1396210  62.1762270
  14.6769220  41.2480980  63.4106860   6.7324270  38.0046960  49.2246840
   6.5313330  37.1414320  49.5860180   6.5616320  37.9180320  48.2868440
   7.5093500  48.6353230  63.9354510   6.9714590  49.3599290  63.6163210
   7.7627460  48.1583570  63.1451850   8.7618750  36.6037750  65.4610440
   9.3518440  36.2953600  66.1488260   7.9438990  36.1317500  65.6170340
  13.5812180  36.2203560  65.6943460  12.8927700  35.5585100  65.6293450
  14.3018200  35.7741830  66.1391920  14.2112580  32.8155190  51.7533720
  14.4914870  31.9723090  52.1093140  13.4378310  33.0478300  52.2672470
   5.5307070  35.1047580  49.2124720   5.8332970  35.1115010  48.3043870
   6.2701660  34.7545440  49.7092380  10.3655710  49.8704440  64.1941160
  10.2914410  50.7739580  64.5013530   9.4634550  49.5516340  64.1663230
   8.7492000  34.0482200  50.1980920   8.4014000  33.3706190  49.6183370
   8.9504770  33.5871710  51.0124310  10.9141040  49.0362950  51.8167520
  11.8091830  49.3747920  51.8386280  10.9458670  48.3142360  51.1891800
   4.5537200  44.4090000  50.0454520   4.9912070  44.9519670  50.7012100
   5.0384930  43.5836950  50.0550860   1.7683000  47.1979030  57.4974780
   2.0986010  46.3300090  57.2653420   2.1974000  47.4037550  58.3279740
   6.3644920  45.5288040  55.1576750   6.0640460  45.4053010  56.0580660
   6.2582410  44.6696630  54.7492480   2.2573210  48.0649620  60.2356410
   1.8204200  48.2450420  61.0680560   2.8250890  48.8224240  60.0938130
  17.8935390  47.5666620  64.5233720  17.2937380  47.6259180  63.7797640
  18.0229290  46.6271600  64.6530570  19.1336840  45.3084440  49.8603430
  18.3029800  45.3761090  50.3310660  19.3108670  46.1988560  49.5570290
  18.5893300  42.0531920  52.3637630  19.3512210  42.6228570  52.4697320
  18.6047670  41.4859120  53.1345940  19.5953270  42.9082020  57.2079560
  19.9662100  42.1249340  56.8015530  20.2355200  43.5971120  57.0296860
  16.5787030  44.2918600  62.6209880  15.7646870  44.7215760  62.8835670
  16.9861230  44.9037010  62.0078930  18.6412470  42.3466290  49.5210150
  18.9161310  43.2545170  49.3929370  18.4523210  42.2828820  50.4572140
  15.0388080  35.3711140  50.8163780  15.4572960  35.1842120  49.9760440
  14.7324140  34.5190190  51.1266710  18.5377810  40.2835280  54.5139580
  18.1621410  39.5163210  54.0820870  17.8080930  40.6657980  55.0014510
   3.1273570  40.9622420  61.1348630   3.4946610  40.8749820  62.0144650
   2.5584390  40.1988970  61.0355490  17.9277430  39.4306800  64.1479100
  17.6963520  39.2019550  63.2477050  18.1881980  40.3506350  64.1023990
   2.6789570  37.8731510  65.0407050   1.7845620  37.8398270  65.3800760
   3.2187120  38.0718300  65.8058300  16.3665500  34.6563230  66.9258800
  17.2435680  34.6646630  67.3092800  16.3786340  33.9194070  66.3151150
  17.8128770  38.5092770  57.8146820  18.3366250  38.0155420  57.1836990
  18.3988190  38.6443130  58.5594390  17.9918490  38.5932640  61.3366370
  17.0421200  38.5596180  61.4511360  18.1731500  39.5032750  61.1016140
   3.8462930  36.8434320  50.4465000   4.5554630  36.4217540  49.9612280
   3.1302870  36.9109550  49.8148350   3.4937090  32.8973650  49.4867650
   4.2165220  33.4382590  49.8048870   3.7661610  32.6237070  48.6109190
  17.3028740  37.7666120  53.7539230  17.7987860  37.5336990  54.5388110
  17.1044810  36.9277960  53.3376870   3.1829280  32.1479840  59.3890270
   3.8305470  31.5977220  58.9485430   3.6031120  32.4022990  60.2106080
  18.7315900  36.4027070  56.2876910  18.6215180  36.2483110  57.2259180
  19.4923490  35.8748010  56.0452320  17.0781620  32.3421200  62.7459910
  17.7153840  32.9555340  63.1119100  17.2256510  32.3781860  61.8009140
  19.6206170  34.2334990  49.5283050  20.5455480  34.1016170  49.3201340
  19.5981960  34.3127810  50.4819500  19.6944660  35.0045650  52.1539760
  18.8996160  34.9390770  52.6832670  19.8987940  35.9396290  52.1425110
  16.6363080  49.0437200  56.1478150  17.2322150  48.7221770  55.4712570
  16.8941230  48.5709020  56.9391420   2.9361280  32.3035510  62.1315590
   2.5876100  32.7599330  62.8973770   2.6048980  31.4092640  62.2138020
   4.5425650  45.4755110  66.2968780   4.4995280  45.1048020  67.1783240
   4.6736660  46.4132680  66.4370600   8.2431680  47.0314700  61.8978500
   8.0023040  47.2989260  61.0109020   9.1834320  47.2020430  61.9529360
  10.4486100  33.4947390  65.6535010  10.3874990  34.0869220  66.4030420
  11.3886480  33.3873350  65.5085270  13.0860660  33.1517450  65.2927300
  13.7001070  33.4696740  64.6308380  13.6310220  32.6666040  65.9123160
  19.5035840  49.0509080  62.6989140  19.0094120  49.4477950  61.9816270
  18.8949130  48.4258290  63.0926420   3.6081920  31.8311710  65.4066360
   4.1564910  31.6499760  64.6432470   3.6737230  31.0405820  65.9422670
   4.3813680  48.4217360  63.4166560   3.7874000  48.2902060  64.1556600
   4.3737520  47.5855500  62.9508660  13.8268700  31.7149590  61.6196590
  12.9528540  32.0484700  61.4169520  13.7179450  31.2422770  62.4448460
  14.7340680  33.9220460  63.0038310  14.4054040  33.1072220  62.6240040
  15.6822980  33.8790270  62.8804000  17.1875290  49.6932500  59.9775880
  16.7278260  50.4448310  59.6033900  16.5587750  48.9738970  59.9190680
   4.0125910  45.7875740  62.3674600   3.2859970  45.1681030  62.3000550
   4.0735060  46.1816350  61.4972680   7.6171010  48.0020740  59.1524010
   8.1336030  47.3908100  58.6272270   8.2668390  48.5049520  59.6435020
  10.3566510  48.8929230  59.9792990  10.6444320  48.6383530  59.1026000
  10.8689730  48.3406590  60.5698560  11.5743520  32.6319430  60.5589500
  10.7915310  33.1064930  60.8386260  11.2806450  31.7274260  60.4502680
  16.1264590  33.3342530  58.6038590  16.5672680  33.2787630  57.7560190
  15.8572180  34.2500540  58.6748770  17.9903160  32.9657770  56.6147410
  17.9291560  32.0218990  56.4678430  18.7695190  33.0737860  57.1600870
   2.9183930  32.9366910  53.0803220   3.6763290  33.0495790  52.5067250
   2.4561100  33.7736110  53.0346650   9.4597740  35.0506180  56.0705530
   8.6472250  34.6763070  55.7301410   9.9639380  34.2951260  56.3726720
  13.9622720  31.7148630  57.3088600  14.5652090  32.2868840  57.7837120
  13.2215710  32.2788070  57.0862500  17.1057320  32.1170190  52.5828880
  17.3007950  33.0153640  52.8496310  16.3187190  31.8857270  53.0761830
   3.9018610  47.7983360  53.0221500   3.3766230  48.1791390  52.3183460
   3.8263190  48.4234130  53.7431210   5.2909080  33.4630960  51.6205190
   5.8201840  32.6760760  51.4913140   5.9237400  34.1422150  51.8540720
   7.4846920  33.2006100  54.6750580   6.8549660  32.4993410  54.8420710
   6.9452060  33.9610230  54.4583740  10.4238870  49.8145330  67.3461190
  11.3506180  49.5789600  67.3897150  10.4089300  50.6417330  66.8647220
  18.6583930  49.3570900  54.3435440  18.8336120  48.6708640  53.6996360
  17.9605500  49.8817950  53.9512110   7.6102480  32.4790080  67.1103070
   7.3286750  32.9823680  66.3463890   7.9922180  31.6811830  66.7445200
   6.5011580  49.7465740  51.8970750   7.2330400  49.4625020  51.3494640
   6.7605250  49.5079020  52.7870130   5.6626370  45.8630470  51.9017080
   5.0335250  46.3315570  52.4502910   5.7774200  45.0179690  52.3363270
  14.2117940  31.8943660  67.6883540  14.0983390  32.2138270  68.5835060
  15.0287680  32.2956170  67.3920820  16.9916430  49.0415190  67.1702230
  17.7841750  48.5464420  66.9628190  17.2849580  49.7205330  67.7777840
  13.1176090  39.9136130  38.0518280  13.0370140  38.9990740  37.7809990
  12.7040510  40.4103200  37.3457990  11.2494130  41.6915150  39.9327550
  10.4736230  41.2115590  40.2226120  11.9007060  41.0120800  39.7583710
   5.2659960  42.0034960  40.8103310   4.4344840  41.7483670  41.2099820
   5.8740940  42.0745730  41.5461230  15.2701560  46.0975340  38.7126680
  14.8083090  45.3262580  39.0413850  16.0827110  46.1241410  39.2179130
   5.2461220  46.0375050  41.0061330   5.5489260  45.1472790  40.8271550
   5.9904810  46.5945270  40.7783580   3.6751910  36.9636850  34.5945700
   2.7868610  37.3052820  34.4925580   3.9593100  36.7637170  33.7026530
  11.4964870  48.3833350  38.3330670  10.8776310  48.8390850  37.7625110
  12.3516650  48.5384810  37.9320370  10.6903120  44.3672340  39.9397710
  10.6211400  43.4262280  39.7786840  11.4522980  44.4573750  40.5120280
   2.8809790  34.9726860  42.2654330   2.7012630  34.0752610  42.5457090
   2.4789870  35.5198730  42.9401280  11.7208290  37.1742720  40.1666640
  12.0973110  36.3014600  40.0540310  11.6227800  37.5101420  39.2757080
   5.8513300  35.5468350  35.6284080   5.9580050  36.4472080  35.9352840
   4.9405660  35.4986320  35.3378730  15.5032410  34.6693160  37.0994980
  16.3242030  34.1789730  37.1420460  15.5366490  35.2590820  37.8526820
   3.4996460  37.4687360  40.8736670   4.1806570  37.7325730  41.4924070
   3.1844510  36.6288230  41.2074680   7.6921030  38.5154720  39.9609260
   8.1999250  39.0135690  40.6014280   8.2234270  37.7389920  39.7848620
  19.7931960  36.6859910  43.6638610  19.0884130  37.0741620  43.1453720
  20.0589880  37.3810200  44.2659540   5.9757130  33.1553280  44.2272680
   5.9775570  33.6725670  43.4218580   5.1461440  32.6783460  44.2042610
  12.3628220  43.2672590  35.7262580  11.7445490  43.7322040  35.1625300
  12.8751470  43.9600070  36.1432090   7.2259980  42.7948460  42.4046180
   6.8929360  43.4217380  43.0467250   7.4026660  43.3210340  41.6247850
  15.7393890  36.6093540  39.8722520  15.0349460  36.8978430  40.4525630
  16.1006050  37.4193650  39.5122080   5.6572460  34.8663240  42.2343130
   5.9989270  35.7105290  41.9397000   4.7188270  35.0146980  42.3508470
   6.4379080  44.7629260  44.2195360   7.0553080  45.4380340  43.9379810
   5.5772200  45.1717240  44.1282860  17.3556670  46.2268670  42.1350000
  16.6720190  46.8967780  42.1266670  17.8950960  46.4249320  41.3694860
  18.8080810  36.0548330  40.2631730  17.8605720  36.0887310  40.3947160
  19.1330800  36.8687280  40.6481090   9.3400350  32.3545510  38.5587720
   9.6475330  31.7992400  37.8423220   8.4101050  32.4889970  38.3760710
  14.8915410  48.0712800  40.8495180  14.9042570  47.6675090  39.9817440
  14.3390630  48.8460090  40.7456610  16.1860830  44.7929020  35.9385350
  16.0757160  43.8503350  36.0634770  16.1829080  45.1544660  36.8248110
  14.2900850  42.9742640  42.1777790  14.7069640  42.7602750  41.3431250
  15.0140670  43.2315430  42.7486410  11.7281110  40.4194340  35.2947840
  10.8010390  40.3531720  35.5236310  11.8805930  41.3574470  35.1803080
  11.7150190  36.6911340  32.2915000  10.7753860  36.8525300  32.3767460
  12.0333450  37.4097020  31.7450990  18.2362950  41.3729860  42.2694030
  17.4081580  41.4422950  41.7944160  18.8313430  41.9584170  41.8009860
  15.7578400  41.9814640  35.7983090  15.1390820  41.6434190  35.1509390
  15.7402850  41.3374400  36.5062280  15.2004960  38.1599180  43.2148900
  14.7876140  38.9852890  43.4688890  14.4680910  37.5744220  43.0225260
   7.3337750  40.9459080  38.0767570   6.9294750  40.2336330  37.5813470
   7.4200870  40.6012320  38.9655610   7.8019450  44.6326640  40.2406780
   7.5047740  44.0272110  39.5614560   8.7519270  44.6703950  40.1296140
   6.0466370  37.7202290  41.8566610   6.5980960  37.8297630  41.0819860
   6.5609880  38.0939890  42.5721840  15.8905060  48.2058510  43.9029880
  15.4135620  49.0130700  43.7102490  15.2066850  47.5536840  44.0556090
   6.8937880  44.3708330  46.8914580   5.9966410  44.5948300  47.1387980
   6.9190750  44.4943270  45.9425980  13.9343100  41.2201450  32.8055840
  14.3736380  40.3823880  32.6593660  14.6471520  41.8530850  32.8919980
   5.7209100  41.2421650  45.4671950   5.5816870  42.1144450  45.8359350
   4.8390460  40.8994460  45.3219890  12.0438480  46.1597520  36.7737080
  12.4834390  46.9021850  36.3592470  11.9825370  46.4024090  37.6976040
   7.5189450  47.1843350  47.6757100   7.4904880  47.5886300  46.8085530
   7.3554420  46.2553710  47.5128700  17.5160240  32.4744260  31.1196880
  17.2032900  32.5671090  32.0195950  18.2772710  33.0525290  31.0694310
   4.0342380  39.8404060  35.5774220   3.9139980  40.5666150  34.9655490
   3.7243270  39.0706970  35.1002130  19.4704270  47.9670450  48.9721270
  19.9463990  48.4453340  49.6510350  20.0911430  47.8987940  48.2466770
   2.9175380  44.7119390  37.7949040   2.5103460  44.8533980  36.9402640
   3.8088390  44.4279550  37.5920250  18.8737520  45.1583300  46.1321280
  19.0000580  44.9195180  45.2138460  18.9158900  44.3267840  46.6043360
  12.7354260  48.8611300  44.7016090  13.2498930  48.7719310  45.5038520
  11.8923340  49.2071000  44.9944000  14.7108660  49.1466640  34.1300090
  14.5509800  48.8569580  35.0281920  14.5455370  48.3706770  33.5945320
   7.1897040  48.9265170  35.9071710   7.0139520  48.0100710  35.6939510
   6.3352780  49.2852460  36.1469510  14.4134790  46.6554200  32.6898090
  13.7199950  46.6531490  32.0300370  15.1557650  46.2313520  32.2592260
  13.9784720  48.2816910  36.7646580  14.4341670  47.5006290  37.0785200
  14.3177240  48.9923730  37.3087760  18.7261530  37.2115760  47.0971020
  18.1105800  37.7195430  46.5686480  18.4057950  36.3114090  47.0396960
   6.5006040  33.1839130  38.9597890   6.0574190  33.9648670  38.6282410
   7.0591030  33.5069020  39.6668830  10.7875850  36.0507650  44.5633210
  10.3255220  36.2590670  45.3753150  10.3853960  35.2367000  44.2603880
  15.7880360  37.2716600  45.6929870  14.9373950  36.9722350  46.0138940
  15.6282150  37.5158610  44.7813690  12.8830070  38.7718350  47.7928660
  13.2083480  37.9382100  47.4530890  13.6710400  39.2946870  47.9406990
   9.6164860  32.8049830  33.8403720   8.9919040  32.8009700  34.5657030
   9.5294980  31.9380790  33.4439690   8.5381940  33.7286460  40.8187490
   8.8354270  34.6349290  40.7379510   9.0867500  33.2405240  40.2047060
   6.2920260  38.3072700  36.6879140   6.0661180  38.0909870  37.5925760
   5.5112790  38.7401160  36.3425110  13.5218020  38.3136070  35.2869790
  12.9226910  39.0371870  35.1033410  14.0697630  38.2512850  34.5046240
   8.7319470  39.2058280  47.3539410   8.6363070  38.2653010  47.2039810
   9.5751450  39.4273350  46.9587480  12.1282890  36.9499610  37.3173070
  12.5212460  37.2671810  36.5041760  12.4899740  36.0711490  37.4317590
   3.8630010  35.6171950  45.5073190   3.4693400  36.4647160  45.7145970
   3.1748410  34.9798320  45.6981830  10.4375060  35.7006920  48.5769930
   9.7473380  35.5079120  49.2116020  11.1807360  35.9841560  49.1094230
  12.7138030  39.5405360  41.4123850  11.9819150  40.0492170  41.7613950
  12.3162370  38.7235340  41.1112630   9.1515420  36.2159560  39.8176340
   9.1551480  35.7749510  38.9680880  10.0466540  36.5376890  39.9248160
   5.0017800  36.0986050  38.7770550   4.6617850  36.5761280  39.5337600
   4.2395120  35.6451170  38.4171650   9.2135570  37.2171640  32.8083100
   9.3348390  37.1758120  33.7568920   8.8284080  38.0795790  32.6529830
  13.1763940  34.9939040  40.8246790  13.1936680  35.4447690  41.6688640
  12.9279520  34.0944680  41.0380230   8.2257070  39.5272780  32.2066400
   7.6573970  39.0791030  31.5802310   8.9346070  39.8865560  31.6731550
  16.6034690  32.4071220  46.6633170  16.9280460  31.6760880  47.1891150
  16.6391200  32.0884860  45.7614160   3.3026250  43.4284800  46.0833130
   2.9181040  42.7878470  46.6816090   3.6138440  44.1320920  46.6527860
   9.4523390  40.2761340  41.5641750   9.8193520  39.8019910  42.3103090
   9.2628450  41.1502910  41.9050090   2.3163880  35.0205030  37.6935220
   2.0310800  34.6560700  38.5313840   2.2542740  34.2885490  37.0798360
   7.2422760  39.3169980  43.8825960   6.9379830  40.1961960  44.1076320
   8.1969220  39.3769770  43.9183400   5.7704550  43.5230970  34.4792810
   4.9966810  42.9828590  34.3191530   6.4999180  43.0037580  34.1410570
  16.5292530  42.5196330  40.2719200  17.2491650  43.0151620  39.8815310
  16.3274350  41.8414220  39.6273070  11.9902470  33.9134290  34.4148590
  11.1767080  33.4147460  34.3393900  11.7964420  34.7532540  33.9984940
  11.9111330  42.5905390  46.1588200  11.8448640  41.6701060  45.9045790
  11.2816470  42.6880830  46.8732840  14.7050860  38.2853940  32.7110750
  15.5930480  38.5971170  32.5362090  14.6755950  37.4126190  32.3191330
   5.8141950  43.1911350  38.1171620   6.3320620  42.3879610  38.0628510
   5.3625970  43.1290490  38.9588450  10.7011450  44.4577630  33.3898920
  11.0427150  45.2019860  32.8942240   9.8724160  44.7708750  33.7523750
   3.2986490  40.1572720  45.0297320   2.9401430  40.8226570  45.6170660
   3.0041050  39.3256270  45.4009940   6.4999610  40.6156960  47.9136870
   6.1999750  40.7614140  47.0164690   7.2710850  40.0562250  47.8210260
  11.8428060  45.4125960  45.9092000  11.8572600  44.4806920  45.6910910
  11.1353160  45.4985720  46.5481770  16.9765130  39.5965780  32.1790610
  16.8928850  40.0280000  31.3287050  17.6959320  40.0564130  32.6117430
  18.0539270  42.0533300  45.2560580  17.3287460  42.6462080  45.0589970
  18.5814730  42.0456840  44.4573950  18.0052380  46.4508040  34.9072740
  17.3628540  45.7963660  35.1816460  17.6183040  46.8563130  34.1313410
  13.5838860  43.7793470  38.7544430  13.9362680  43.1821600  38.0945800
  12.7001190  43.4537700  38.9252680   9.6702140  44.5391160  36.1614840
  10.3573270  45.0860370  36.5422430   8.8834560  45.0831890  36.1964450
   8.9729350  41.5437190  35.7740200   9.4292130  42.3542440  36.0000390
   8.6217560  41.2260330  36.6058690  11.2761960  47.0543530  43.0032500
  11.9204180  47.2602910  43.6805920  11.6391400  46.2931930  42.5503350
   4.8741130  31.8874840  36.2462720   4.7455760  31.8792740  37.1947640
   4.0503150  32.2257930  35.8953730  12.5494040  45.0575880  41.7209950
  13.1916270  44.3569040  41.8342120  13.0743390  45.8374320  41.5406840
  16.3949760  45.3424500  31.4449090  16.1687340  44.6254940  32.0373730
  16.0045960  45.0936940  30.6070840  14.3231660  45.8570780  44.9246010
  14.6587900  46.4437470  45.6023930  13.4032000  45.7263490  45.1543800
   2.1765790  49.3691360  32.2193550   2.5363430  49.9680700  31.5650820
   2.0358130  49.9151250  32.9928580  15.9766010  43.2596440  33.1063250
  15.6887710  43.7209130  33.8941130  16.7718180  42.7994210  33.3747470
  10.1520240  45.9062110  48.0934070   9.8317110  45.1871350  48.6379760
   9.4778600  46.5817180  48.1670130   8.1934410  46.7522560  33.0367220
   8.1844510  47.4852250  32.4211730   7.2732770  46.5054140  33.1294180
   3.7941050  41.9737450  33.7813980   3.1869000  42.7136350  33.7909280
   4.2690400  42.0636810  32.9552180  13.3673840  36.1388270  43.4570870
  13.7354660  35.3183480  43.7850440  12.5072040  36.1990160  43.8726520
  16.7335870  35.0945210  34.2658430  16.1049030  35.1990880  33.5516660
  16.2387790  35.3141990  35.0552310  11.1794010  46.8150800  31.6992410
  11.2805990  46.6114790  30.7694390  10.2795750  46.5609080  31.9040190
   8.7019900  37.3731160  35.6816310   7.9936050  37.8417500  36.1229920
   8.9864380  36.7153170  36.3161500  10.3275830  38.7927860  43.6808840
  10.8261080  39.2673680  44.3460690  10.4698780  37.8691380  43.8878870
  12.7335330  34.0981820  37.1212100  12.6103110  34.1167950  36.1721610
  13.6819890  34.1460760  37.2410500   9.8212120  49.3337120  36.3940080
  10.0753620  49.2958510  35.4719450   8.8724600  49.2070450  36.3868330
   6.9054920  35.6816240  33.0567020   7.7545450  36.1186390  32.9907210
   6.5386190  35.9936500  33.8839080  17.5342690  35.0095820  44.5237230
  17.0316290  35.7501220  44.8631040  18.3499350  35.3979820  44.2074020
  15.8264700  40.2529000  37.9698590  14.8854840  40.2679230  38.1446280
  16.1408770  39.4664960  38.4158890   5.8046340  41.9348600  31.5302550
   6.5709610  41.8229960  32.0927980   5.8821030  41.2386570  30.8779320
   4.4993100  39.3673670  32.2135440   4.5796690  38.4201180  32.3252840
   5.3912850  39.6980550  32.3196100  17.8290280  47.4237850  39.6452850
  17.9537700  48.2469020  40.1176660  18.6955840  47.2128580  39.2977000
   5.3007810  49.5169060  39.3169980   6.0370290  48.9684520  39.5878550
   5.6848730  50.3825070  39.1775970   4.3066090  48.7015130  48.5055560
   5.1078820  49.0227180  48.9190960   3.7917910  48.3410710  49.2275470
   8.4110120  48.6899370  31.1395550   9.2038730  48.9788200  30.6877340
   7.8914470  48.2591540  30.4608030  13.1430720  44.8095000  48.4530970
  12.5368880  44.8326600  47.7126720  12.8384830  44.0778040  48.9898220
  14.5731090  48.5375290  47.0640380  15.5252840  48.4533310  47.0140620
  14.4259310  49.2017000  47.7374170  17.4640290  47.9169500  32.5632290
  17.1781800  47.5034640  31.7486470  17.2659840  48.8457210  32.4432810
   8.9287520  43.9102780  31.0037900   8.8238160  43.2955130  31.7299280
   8.7611740  43.3868670  30.2200910   9.0801840  42.5959580  46.9827130
   8.3147510  43.1644580  46.8981800   9.2617800  42.3035790  46.0895360
  12.1690250  42.9722810  31.6079890  11.6200350  43.4192110  32.2522630
  12.7909510  42.4672060  32.1317560  16.2225190  44.3264910  47.5402150
  16.9634660  44.6640670  47.0369610  15.4597870  44.4956970  46.9871920
   4.0586980  39.3318180  48.3441680   4.0992320  39.0332050  49.2526910
   4.9132480  39.7325790  48.1849200   7.8365370  41.9313730  33.5045190
   8.2581790  41.7653600  34.3476580   7.9616210  41.1213960  33.0100330
   5.9992790  37.9110280  46.3116170   5.4689250  37.4201230  45.6839510
   6.6680860  38.3394480  45.7774100  10.3493010  40.9551340  30.7522290
  10.8698670  40.2400360  30.3863440  10.9961410  41.5937210  31.0522800
  14.8970850  42.3779740  46.0757360  15.3111870  42.5324820  46.9247780
  13.9621850  42.5034960  46.2383140  15.3693020  39.7175900  48.0796510
  15.9513790  38.9628220  47.9916990  15.5454790  40.2483340  47.3027990
   6.4865090  34.8772650  46.3913460   6.3921960  34.2593400  45.6664330
   5.9062480  35.6038940  46.1643370   9.2526530  33.4345890  43.4240850
   8.8043830  33.4570150  42.5786400   8.6191730  33.0364910  44.0211150
   9.6586080  42.3300220  44.0453290  10.0774190  43.1732950  43.8729530
   8.7394710  42.4672260  43.8160070  11.9949980  40.0616400  45.4291130
  12.1146190  39.4657540  46.1685970  12.8543980  40.0986090  45.0092430
  14.3337880  40.6153590  44.0053640  13.8073100  41.1396210  43.4018780
  14.6769220  41.2480980  44.6363370   6.7324270  38.0046960  30.4503350
   6.5313330  37.1414320  30.8116690   6.5616320  37.9180320  29.5124950
   7.5093500  48.6353230  45.1611020   6.9714590  49.3599290  44.8419720
   7.7627460  48.1583570  44.3708360   8.7618750  36.6037750  46.6866950
   9.3518440  36.2953600  47.3744770   7.9438990  36.1317500  46.8426850
  13.5812180  36.2203560  46.9199970  12.8927700  35.5585100  46.8549960
  14.3018200  35.7741830  47.3648430  14.2112580  32.8155190  32.9790230
  14.4914870  31.9723090  33.3349650  13.4378310  33.0478300  33.4928980
   5.5307070  35.1047580  30.4381230   5.8332970  35.1115010  29.5300380
   6.2701660  34.7545440  30.9348890  10.3655710  49.8704440  45.4197670
  10.2914410  50.7739580  45.7270040   9.4634550  49.5516340  45.3919740
   8.7492000  34.0482200  31.4237430   8.4014000  33.3706190  30.8439880
   8.9504770  33.5871710  32.2380820  10.9141040  49.0362950  33.0424030
  11.8091830  49.3747920  33.0642790  10.9458670  48.3142360  32.4148310
   4.5537200  44.4090000  31.2711030   4.9912070  44.9519670  31.9268610
   5.0384930  43.5836950  31.2807370   1.7683000  47.1979030  38.7231290
   2.0986010  46.3300090  38.4909930   2.1974000  47.4037550  39.5536250
   6.3644920  45.5288040  36.3833260   6.0640460  45.4053010  37.2837170
   6.2582410  44.6696630  35.9748990   2.2573210  48.0649620  41.4612920
   1.8204200  48.2450420  42.2937070   2.8250890  48.8224240  41.3194640
  17.8935390  47.5666620  45.7490230  17.2937380  47.6259180  45.0054150
  18.0229290  46.6271600  45.8787080  19.1336840  45.3084440  31.0859940
  18.3029800  45.3761090  31.5567170  19.3108670  46.1988560  30.7826800
  18.5893300  42.0531920  33.5894140  19.3512210  42.6228570  33.6953830
  18.6047670  41.4859120  34.3602450  19.5953270  42.9082020  38.4336070
  19.9662100  42.1249340  38.0272040  20.2355200  43.5971120  38.2553370
  16.5787030  44.2918600  43.8466390  15.7646870  44.7215760  44.1092180
  16.9861230  44.9037010  43.2335440  18.6412470  42.3466290  30.7466660
  18.9161310  43.2545170  30.6185880  18.4523210  42.2828820  31.6828650
  15.0388080  35.3711140  32.0420290  15.4572960  35.1842120  31.2016950
  14.7324140  34.5190190  32.3523220  18.5377810  40.2835280  35.7396090
  18.1621410  39.5163210  35.3077380  17.8080930  40.6657980  36.2271020
   3.1273570  40.9622420  42.3605140   3.4946610  40.8749820  43.2401160
   2.5584390  40.1988970  42.2612000  17.9277430  39.4306800  45.3735610
  17.6963520  39.2019550  44.4733560  18.1881980  40.3506350  45.3280500
   2.6789570  37.8731510  46.2663560   1.7845620  37.8398270  46.6057270
   3.2187120  38.0718300  47.0314810  16.3665500  34.6563230  48.1515310
  17.2435680  34.6646630  48.5349310  16.3786340  33.9194070  47.5407660
  17.8128770  38.5092770  39.0403330  18.3366250  38.0155420  38.4093500
  18.3988190  38.6443130  39.7850900  17.9918490  38.5932640  42.5622880
  17.0421200  38.5596180  42.6767870  18.1731500  39.5032750  42.3272650
   3.8462930  36.8434320  31.6721510   4.5554630  36.4217540  31.1868790
   3.1302870  36.9109550  31.0404860   3.4937090  32.8973650  30.7124160
   4.2165220  33.4382590  31.0305380   3.7661610  32.6237070  29.8365700
  17.3028740  37.7666120  34.9795740  17.7987860  37.5336990  35.7644620
  17.1044810  36.9277960  34.5633380   3.1829280  32.1479840  40.6146780
   3.8305470  31.5977220  40.1741940   3.6031120  32.4022990  41.4362590
  18.7315900  36.4027070  37.5133420  18.6215180  36.2483110  38.4515690
  19.4923490  35.8748010  37.2708830  17.0781620  32.3421200  43.9716420
  17.7153840  32.9555340  44.3375610  17.2256510  32.3781860  43.0265650
  19.6206170  34.2334990  30.7539560  20.5455480  34.1016170  30.5457850
  19.5981960  34.3127810  31.7076010  19.6944660  35.0045650  33.3796270
  18.8996160  34.9390770  33.9089180  19.8987940  35.9396290  33.3681620
  16.6363080  49.0437200  37.3734660  17.2322150  48.7221770  36.6969080
  16.8941230  48.5709020  38.1647930   2.9361280  32.3035510  43.3572100
   2.5876100  32.7599330  44.1230280   2.6048980  31.4092640  43.4394530
   4.5425650  45.4755110  47.5225290   4.4995280  45.1048020  48.4039750
   4.6736660  46.4132680  47.6627110   8.2431680  47.0314700  43.1235010
   8.0023040  47.2989260  42.2365530   9.1834320  47.2020430  43.1785870
  10.4486100  33.4947390  46.8791520  10.3874990  34.0869220  47.6286930
  11.3886480  33.3873350  46.7341780  13.0860660  33.1517450  46.5183810
  13.7001070  33.4696740  45.8564890  13.6310220  32.6666040  47.1379670
  19.5035840  49.0509080  43.9245650  19.0094120  49.4477950  43.2072780
  18.8949130  48.4258290  44.3182930   3.6081920  31.8311710  46.6322870
   4.1564910  31.6499760  45.8688980   3.6737230  31.0405820  47.1679180
   4.3813680  48.4217360  44.6423070   3.7874000  48.2902060  45.3813110
   4.3737520  47.5855500  44.1765170  13.8268700  31.7149590  42.8453100
  12.9528540  32.0484700  42.6426030  13.7179450  31.2422770  43.6704970
  14.7340680  33.9220460  44.2294820  14.4054040  33.1072220  43.8496550
  15.6822980  33.8790270  44.1060510  17.1875290  49.6932500  41.2032390
  16.7278260  50.4448310  40.8290410  16.5587750  48.9738970  41.1447190
   4.0125910  45.7875740  43.5931110   3.2859970  45.1681030  43.5257060
   4.0735060  46.1816350  42.7229190   7.6171010  48.0020740  40.3780520
   8.1336030  47.3908100  39.8528780   8.2668390  48.5049520  40.8691530
  10.3566510  48.8929230  41.2049500  10.6444320  48.6383530  40.3282510
  10.8689730  48.3406590  41.7955070  11.5743520  32.6319430  41.7846010
  10.7915310  33.1064930  42.0642770  11.2806450  31.7274260  41.6759190
  16.1264590  33.3342530  39.8295100  16.5672680  33.2787630  38.9816700
  15.8572180  34.2500540  39.9005280  17.9903160  32.9657770  37.8403920
  17.9291560  32.0218990  37.6934940  18.7695190  33.0737860  38.3857380
   2.9183930  32.9366910  34.3059730   3.6763290  33.0495790  33.7323760
   2.4561100  33.7736110  34.2603160   9.4597740  35.0506180  37.2962040
   8.6472250  34.6763070  36.9557920   9.9639380  34.2951260  37.5983230
  13.9622720  31.7148630  38.5345110  14.5652090  32.2868840  39.0093630
  13.2215710  32.2788070  38.3119010  17.1057320  32.1170190  33.8085390
  17.3007950  33.0153640  34.0752820  16.3187190  31.8857270  34.3018340
   3.9018610  47.7983360  34.2478010   3.3766230  48.1791390  33.5439970
   3.8263190  48.4234130  34.9687720   5.2909080  33.4630960  32.8461700
   5.8201840  32.6760760  32.7169650   5.9237400  34.1422150  33.0797230
   7.4846920  33.2006100  35.9007090   6.8549660  32.4993410  36.0677220
   6.9452060  33.9610230  35.6840250  10.4238870  49.8145330  48.5717700
  11.3506180  49.5789600  48.6153660  10.4089300  50.6417330  48.0903730
  18.6583930  49.3570900  35.5691950  18.8336120  48.6708640  34.9252870
  17.9605500  49.8817950  35.1768620   7.6102480  32.4790080  48.3359580
   7.3286750  32.9823680  47.5720400   7.9922180  31.6811830  47.9701710
   6.5011580  49.7465740  33.1227260   7.2330400  49.4625020  32.5751150
   6.7605250  49.5079020  34.0126640   5.6626370  45.8630470  33.1273590
   5.0335250  46.3315570  33.6759420   5.7774200  45.0179690  33.5619780
  14.2117940  31.8943660  48.9140050  14.0983390  32.2138270  49.8091570
  15.0287680  32.2956170  48.6177330  16.9916430  49.0415190  48.3958740
  17.7841750  48.5464420  48.1884700  17.2849580  49.7205330  49.0034350
  13.1176090  39.9136130  19.2774790  13.0370140  38.9990740  19.0066500
  12.7040510  40.4103200  18.5714500  11.2494130  41.6915150  21.1584060
  10.4736230  41.2115590  21.4482630  11.9007060  41.0120800  20.9840220
   5.2659960  42.0034960  22.0359820   4.4344840  41.7483670  22.4356330
   5.8740940  42.0745730  22.7717740  15.2701560  46.0975340  19.9383190
  14.8083090  45.3262580  20.2670360  16.0827110  46.1241410  20.4435640
   5.2461220  46.0375050  22.2317840   5.5489260  45.1472790  22.0528060
   5.9904810  46.5945270  22.0040090   3.6751910  36.9636850  15.8202210
   2.7868610  37.3052820  15.7182090   3.9593100  36.7637170  14.9283040
  11.4964870  48.3833350  19.5587180  10.8776310  48.8390850  18.9881620
  12.3516650  48.5384810  19.1576880  10.6903120  44.3672340  21.1654220
  10.6211400  43.4262280  21.0043350  11.4522980  44.4573750  21.7376790
   2.8809790  34.9726860  23.4910840   2.7012630  34.0752610  23.7713600
   2.4789870  35.5198730  24.1657790  11.7208290  37.1742720  21.3923150
  12.0973110  36.3014600  21.2796820  11.6227800  37.5101420  20.5013590
   5.8513300  35.5468350  16.8540590   5.9580050  36.4472080  17.1609350
   4.9405660  35.4986320  16.5635240  15.5032410  34.6693160  18.3251490
  16.3242030  34.1789730  18.3676970  15.5366490  35.2590820  19.0783330
   3.4996460  37.4687360  22.0993180   4.1806570  37.7325730  22.7180580
   3.1844510  36.6288230  22.4331190   7.6921030  38.5154720  21.1865770
   8.1999250  39.0135690  21.8270790   8.2234270  37.7389920  21.0105130
  19.7931960  36.6859910  24.8895120  19.0884130  37.0741620  24.3710230
  20.0589880  37.3810200  25.4916050   5.9757130  33.1553280  25.4529190
   5.9775570  33.6725670  24.6475090   5.1461440  32.6783460  25.4299120
  12.3628220  43.2672590  16.9519090  11.7445490  43.7322040  16.3881810
  12.8751470  43.9600070  17.3688600   7.2259980  42.7948460  23.6302690
   6.8929360  43.4217380  24.2723760   7.4026660  43.3210340  22.8504360
  15.7393890  36.6093540  21.0979030  15.0349460  36.8978430  21.6782140
  16.1006050  37.4193650  20.7378590   5.6572460  34.8663240  23.4599640
   5.9989270  35.7105290  23.1653510   4.7188270  35.0146980  23.5764980
   6.4379080  44.7629260  25.4451870   7.0553080  45.4380340  25.1636320
   5.5772200  45.1717240  25.3539370  17.3556670  46.2268670  23.3606510
  16.6720190  46.8967780  23.3523180  17.8950960  46.4249320  22.5951370
  18.8080810  36.0548330  21.4888240  17.8605720  36.0887310  21.6203670
  19.1330800  36.8687280  21.8737600   9.3400350  32.3545510  19.7844230
   9.6475330  31.7992400  19.0679730   8.4101050  32.4889970  19.6017220
  14.8915410  48.0712800  22.0751690  14.9042570  47.6675090  21.2073950
  14.3390630  48.8460090  21.9713120  16.1860830  44.7929020  17.1641860
  16.0757160  43.8503350  17.2891280  16.1829080  45.1544660  18.0504620
  14.2900850  42.9742640  23.4034300  14.7069640  42.7602750  22.5687760
  15.0140670  43.2315430  23.9742920  11.7281110  40.4194340  16.5204350
  10.8010390  40.3531720  16.7492820  11.8805930  41.3574470  16.4059590
  11.7150190  36.6911340  13.5171510  10.7753860  36.8525300  13.6023970
  12.0333450  37.4097020  12.9707500  18.2362950  41.3729860  23.4950540
  17.4081580  41.4422950  23.0200670  18.8313430  41.9584170  23.0266370
  15.7578400  41.9814640  17.0239600  15.1390820  41.6434190  16.3765900
  15.7402850  41.3374400  17.7318790  15.2004960  38.1599180  24.4405410
  14.7876140  38.9852890  24.6945400  14.4680910  37.5744220  24.2481770
   7.3337750  40.9459080  19.3024080   6.9294750  40.2336330  18.8069980
   7.4200870  40.6012320  20.1912120   7.8019450  44.6326640  21.4663290
   7.5047740  44.0272110  20.7871070   8.7519270  44.6703950  21.3552650
   6.0466370  37.7202290  23.0823120   6.5980960  37.8297630  22.3076370
   6.5609880  38.0939890  23.7978350  15.8905060  48.2058510  25.1286390
  15.4135620  49.0130700  24.9359000  15.2066850  47.5536840  25.2812600
   6.8937880  44.3708330  28.1171090   5.9966410  44.5948300  28.3644490
   6.9190750  44.4943270  27.1682490  13.9343100  41.2201450  14.0312350
  14.3736380  40.3823880  13.8850170  14.6471520  41.8530850  14.1176490
   5.7209100  41.2421650  26.6928460   5.5816870  42.1144450  27.0615860
   4.8390460  40.8994460  26.5476400  12.0438480  46.1597520  17.9993590
  12.4834390  46.9021850  17.5848980  11.9825370  46.4024090  18.9232550
   7.5189450  47.1843350  28.9013610   7.4904880  47.5886300  28.0342040
   7.3554420  46.2553710  28.7385210  17.5160240  32.4744260  12.3453390
  17.2032900  32.5671090  13.2452460  18.2772710  33.0525290  12.2950820
   4.0342380  39.8404060  16.8030730   3.9139980  40.5666150  16.1912000
   3.7243270  39.0706970  16.3258640  19.4704270  47.9670450  30.1977780
  19.9463990  48.4453340  30.8766860  20.0911430  47.8987940  29.4723280
   2.9175380  44.7119390  19.0205550   2.5103460  44.8533980  18.1659150
   3.8088390  44.4279550  18.8176760  18.8737520  45.1583300  27.3577790
  19.0000580  44.9195180  26.4394970  18.9158900  44.3267840  27.8299870
  12.7354260  48.8611300  25.9272600  13.2498930  48.7719310  26.7295030
  11.8923340  49.2071000  26.2200510  14.7108660  49.1466640  15.3556600
  14.5509800  48.8569580  16.2538430  14.5455370  48.3706770  14.8201830
   7.1897040  48.9265170  17.1328220   7.0139520  48.0100710  16.9196020
   6.3352780  49.2852460  17.3726020  14.4134790  46.6554200  13.9154600
  13.7199950  46.6531490  13.2556880  15.1557650  46.2313520  13.4848770
  13.9784720  48.2816910  17.9903090  14.4341670  47.5006290  18.3041710
  14.3177240  48.9923730  18.5344270  18.7261530  37.2115760  28.3227530
  18.1105800  37.7195430  27.7942990  18.4057950  36.3114090  28.2653470
   6.5006040  33.1839130  20.1854400   6.0574190  33.9648670  19.8538920
   7.0591030  33.5069020  20.8925340  10.7875850  36.0507650  25.7889720
  10.3255220  36.2590670  26.6009660  10.3853960  35.2367000  25.4860390
  15.7880360  37.2716600  26.9186380  14.9373950  36.9722350  27.2395450
  15.6282150  37.5158610  26.0070200  12.8830070  38.7718350  29.0185170
  13.2083480  37.9382100  28.6787400  13.6710400  39.2946870  29.1663500
   9.6164860  32.8049830  15.0660230   8.9919040  32.8009700  15.7913540
   9.5294980  31.9380790  14.6696200   8.5381940  33.7286460  22.0444000
   8.8354270  34.6349290  21.9636020   9.0867500  33.2405240  21.4303570
   6.2920260  38.3072700  17.9135650   6.0661180  38.0909870  18.8182270
   5.5112790  38.7401160  17.5681620  13.5218020  38.3136070  16.5126300
  12.9226910  39.0371870  16.3289920  14.0697630  38.2512850  15.7302750
   8.7319470  39.2058280  28.5795920   8.6363070  38.2653010  28.4296320
   9.5751450  39.4273350  28.1843990  12.1282890  36.9499610  18.5429580
  12.5212460  37.2671810  17.7298270  12.4899740  36.0711490  18.6574100
   3.8630010  35.6171950  26.7329700   3.4693400  36.4647160  26.9402480
   3.1748410  34.9798320  26.9238340  10.4375060  35.7006920  29.8026440
   9.7473380  35.5079120  30.4372530  11.1807360  35.9841560  30.3350740
  12.7138030  39.5405360  22.6380360  11.9819150  40.0492170  22.9870460
  12.3162370  38.7235340  22.3369140   9.1515420  36.2159560  21.0432850
   9.1551480  35.7749510  20.1937390  10.0466540  36.5376890  21.1504670
   5.0017800  36.0986050  20.0027060   4.6617850  36.5761280  20.7594110
   4.2395120  35.6451170  19.6428160   9.2135570  37.2171640  14.0339610
   9.3348390  37.1758120  14.9825430   8.8284080  38.0795790  13.8786340
  13.1763940  34.9939040  22.0503300  13.1936680  35.4447690  22.8945150
  12.9279520  34.0944680  22.2636740   8.2257070  39.5272780  13.4322910
   7.6573970  39.0791030  12.8058820   8.9346070  39.8865560  12.8988060
  16.6034690  32.4071220  27.8889680  16.9280460  31.6760880  28.4147660
  16.6391200  32.0884860  26.9870670   3.3026250  43.4284800  27.3089640
   2.9181040  42.7878470  27.9072600   3.6138440  44.1320920  27.8784370
   9.4523390  40.2761340  22.7898260   9.8193520  39.8019910  23.5359600
   9.2628450  41.1502910  23.1306600   2.3163880  35.0205030  18.9191730
   2.0310800  34.6560700  19.7570350   2.2542740  34.2885490  18.3054870
   7.2422760  39.3169980  25.1082470   6.9379830  40.1961960  25.3332830
   8.1969220  39.3769770  25.1439910   5.7704550  43.5230970  15.7049320
   4.9966810  42.9828590  15.5448040   6.4999180  43.0037580  15.3667080
  16.5292530  42.5196330  21.4975710  17.2491650  43.0151620  21.1071820
  16.3274350  41.8414220  20.8529580  11.9902470  33.9134290  15.6405100
  11.1767080  33.4147460  15.5650410  11.7964420  34.7532540  15.2241450
  11.9111330  42.5905390  27.3844710  11.8448640  41.6701060  27.1302300
  11.2816470  42.6880830  28.0989350  14.7050860  38.2853940  13.9367260
  15.5930480  38.5971170  13.7618600  14.6755950  37.4126190  13.5447840
   5.8141950  43.1911350  19.3428130   6.3320620  42.3879610  19.2885020
   5.3625970  43.1290490  20.1844960  10.7011450  44.4577630  14.6155430
  11.0427150  45.2019860  14.1198750   9.8724160  44.7708750  14.9780260
   3.2986490  40.1572720  26.2553830   2.9401430  40.8226570  26.8427170
   3.0041050  39.3256270  26.6266450   6.4999610  40.6156960  29.1393380
   6.1999750  40.7614140  28.2421200   7.2710850  40.0562250  29.0466770
  11.8428060  45.4125960  27.1348510  11.8572600  44.4806920  26.9167420
  11.1353160  45.4985720  27.7738280  16.9765130  39.5965780  13.4047120
  16.8928850  40.0280000  12.5543560  17.6959320  40.0564130  13.8373940
  18.0539270  42.0533300  26.4817090  17.3287460  42.6462080  26.2846480
  18.5814730  42.0456840  25.6830460  18.0052380  46.4508040  16.1329250
  17.3628540  45.7963660  16.4072970  17.6183040  46.8563130  15.3569920
  13.5838860  43.7793470  19.9800940  13.9362680  43.1821600  19.3202310
  12.7001190  43.4537700  20.1509190   9.6702140  44.5391160  17.3871350
  10.3573270  45.0860370  17.7678940   8.8834560  45.0831890  17.4220960
   8.9729350  41.5437190  16.9996710   9.4292130  42.3542440  17.2256900
   8.6217560  41.2260330  17.8315200  11.2761960  47.0543530  24.2289010
  11.9204180  47.2602910  24.9062430  11.6391400  46.2931930  23.7759860
   4.8741130  31.8874840  17.4719230   4.7455760  31.8792740  18.4204150
   4.0503150  32.2257930  17.1210240  12.5494040  45.0575880  22.9466460
  13.1916270  44.3569040  23.0598630  13.0743390  45.8374320  22.7663350
  16.3949760  45.3424500  12.6705600  16.1687340  44.6254940  13.2630240
  16.0045960  45.0936940  11.8327350  14.3231660  45.8570780  26.1502520
  14.6587900  46.4437470  26.8280440  13.4032000  45.7263490  26.3800310
   2.1765790  49.3691360  13.4450060   2.5363430  49.9680700  12.7907330
   2.0358130  49.9151250  14.2185090  15.9766010  43.2596440  14.3319760
  15.6887710  43.7209130  15.1197640  16.7718180  42.7994210  14.6003980
  10.1520240  45.9062110  29.3190580   9.8317110  45.1871350  29.8636270
   9.4778600  46.5817180  29.3926640   8.1934410  46.7522560  14.2623730
   8.1844510  47.4852250  13.6468240   7.2732770  46.5054140  14.3550690
   3.7941050  41.9737450  15.0070490   3.1869000  42.7136350  15.0165790
   4.2690400  42.0636810  14.1808690  13.3673840  36.1388270  24.6827380
  13.7354660  35.3183480  25.0106950  12.5072040  36.1990160  25.0983030
  16.7335870  35.0945210  15.4914940  16.1049030  35.1990880  14.7773170
  16.2387790  35.3141990  16.2808820  11.1794010  46.8150800  12.9248920
  11.2805990  46.6114790  11.9950900  10.2795750  46.5609080  13.1296700
   8.7019900  37.3731160  16.9072820   7.9936050  37.8417500  17.3486430
   8.9864380  36.7153170  17.5418010  10.3275830  38.7927860  24.9065350
  10.8261080  39.2673680  25.5717200  10.4698780  37.8691380  25.1135380
  12.7335330  34.0981820  18.3468610  12.6103110  34.1167950  17.3978120
  13.6819890  34.1460760  18.4667010   9.8212120  49.3337120  17.6196590
  10.0753620  49.2958510  16.6975960   8.8724600  49.2070450  17.6124840
   6.9054920  35.6816240  14.2823530   7.7545450  36.1186390  14.2163720
   6.5386190  35.9936500  15.1095590  17.5342690  35.0095820  25.7493740
  17.0316290  35.7501220  26.0887550  18.3499350  35.3979820  25.4330530
  15.8264700  40.2529000  19.1955100  14.8854840  40.2679230  19.3702790
  16.1408770  39.4664960  19.6415400   5.8046340  41.9348600  12.7559060
   6.5709610  41.8229960  13.3184490   5.8821030  41.2386570  12.1035830
   4.4993100  39.3673670  13.4391950   4.5796690  38.4201180  13.5509350
   5.3912850  39.6980550  13.5452610  17.8290280  47.4237850  20.8709360
  17.9537700  48.2469020  21.3433170  18.6955840  47.2128580  20.5233510
   5.3007810  49.5169060  20.5426490   6.0370290  48.9684520  20.8135060
   5.6848730  50.3825070  20.4032480   4.3066090  48.7015130  29.7312070
   5.1078820  49.0227180  30.1447470   3.7917910  48.3410710  30.4531980
   8.4110120  48.6899370  12.3652060   9.2038730  48.9788200  11.9133850
   7.8914470  48.2591540  11.6864540  13.1430720  44.8095000  29.6787480
  12.5368880  44.8326600  28.9383230  12.8384830  44.0778040  30.2154730
  14.5731090  48.5375290  28.2896890  15.5252840  48.4533310  28.2397130
  14.4259310  49.2017000  28.9630680  17.4640290  47.9169500  13.7888800
  17.1781800  47.5034640  12.9742980  17.2659840  48.8457210  13.6689320
   8.9287520  43.9102780  12.2294410   8.8238160  43.2955130  12.9555790
   8.7611740  43.3868670  11.4457420   9.0801840  42.5959580  28.2083640
   8.3147510  43.1644580  28.1238310   9.2617800  42.3035790  27.3151870
  12.1690250  42.9722810  12.8336400  11.6200350  43.4192110  13.4779140
  12.7909510  42.4672060  13.3574070  16.2225190  44.3264910  28.7658660
  16.9634660  44.6640670  28.2626120  15.4597870  44.4956970  28.2128430
   4.0586980  39.3318180  29.5698190   4.0992320  39.0332050  30.4783420
   4.9132480  39.7325790  29.4105710   7.8365370  41.9313730  14.7301700
   8.2581790  41.7653600  15.5733090   7.9616210  41.1213960  14.2356840
   5.9992790  37.9110280  27.5372680   5.4689250  37.4201230  26.9096020
   6.6680860  38.3394480  27.0030610  10.3493010  40.9551340  11.9778800
  10.8698670  40.2400360  11.6119950  10.9961410  41.5937210  12.2779310
  14.8970850  42.3779740  27.3013870  15.3111870  42.5324820  28.1504290
  13.9621850  42.5034960  27.4639650  15.3693020  39.7175900  29.3053020
  15.9513790  38.9628220  29.2173500  15.5454790  40.2483340  28.5284500
   6.4865090  34.8772650  27.6169970   6.3921960  34.2593400  26.8920840
   5.9062480  35.6038940  27.3899880   9.2526530  33.4345890  24.6497360
   8.8043830  33.4570150  23.8042910   8.6191730  33.0364910  25.2467660
   9.6586080  42.3300220  25.2709800  10.0774190  43.1732950  25.0986040
   8.7394710  42.4672260  25.0416580  11.9949980  40.0616400  26.6547640
  12.1146190  39.4657540  27.3942480  12.8543980  40.0986090  26.2348940
  14.3337880  40.6153590  25.2310150  13.8073100  41.1396210  24.6275290
  14.6769220  41.2480980  25.8619880   6.7324270  38.0046960  11.6759860
   6.5313330  37.1414320  12.0373200   6.5616320  37.9180320  10.7381460
   7.5093500  48.6353230  26.3867530   6.9714590  49.3599290  26.0676230
   7.7627460  48.1583570  25.5964870   8.7618750  36.6037750  27.9123460
   9.3518440  36.2953600  28.6001280   7.9438990  36.1317500  28.0683360
  13.5812180  36.2203560  28.1456480  12.8927700  35.5585100  28.0806470
  14.3018200  35.7741830  28.5904940  14.2112580  32.8155190  14.2046740
  14.4914870  31.9723090  14.5606160  13.4378310  33.0478300  14.7185490
   5.5307070  35.1047580  11.6637740   5.8332970  35.1115010  10.7556890
   6.2701660  34.7545440  12.1605400  10.3655710  49.8704440  26.6454180
  10.2914410  50.7739580  26.9526550   9.4634550  49.5516340  26.6176250
   8.7492000  34.0482200  12.6493940   8.4014000  33.3706190  12.0696390
   8.9504770  33.5871710  13.4637330  10.9141040  49.0362950  14.2680540
  11.8091830  49.3747920  14.2899300  10.9458670  48.3142360  13.6404820
   4.5537200  44.4090000  12.4967540   4.9912070  44.9519670  13.1525120
   5.0384930  43.5836950  12.5063880   1.7683000  47.1979030  19.9487800
   2.0986010  46.3300090  19.7166440   2.1974000  47.4037550  20.7792760
   6.3644920  45.5288040  17.6089770   6.0640460  45.4053010  18.5093680
   6.2582410  44.6696630  17.2005500   2.2573210  48.0649620  22.6869430
   1.8204200  48.2450420  23.5193580   2.8250890  48.8224240  22.5451150
  17.8935390  47.5666620  26.9746740  17.2937380  47.6259180  26.2310660
  18.0229290  46.6271600  27.1043590  19.1336840  45.3084440  12.3116450
  18.3029800  45.3761090  12.7823680  19.3108670  46.1988560  12.0083310
  18.5893300  42.0531920  14.8150650  19.3512210  42.6228570  14.9210340
  18.6047670  41.4859120  15.5858960  19.5953270  42.9082020  19.6592580
  19.9662100  42.1249340  19.2528550  20.2355200  43.5971120  19.4809880
  16.5787030  44.2918600  25.0722900  15.7646870  44.7215760  25.3348690
  16.9861230  44.9037010  24.4591950  18.6412470  42.3466290  11.9723170
  18.9161310  43.2545170  11.8442390  18.4523210  42.2828820  12.9085160
  15.0388080  35.3711140  13.2676800  15.4572960  35.1842120  12.4273460
  14.7324140  34.5190190  13.5779730  18.5377810  40.2835280  16.9652600
  18.1621410  39.5163210  16.5333890  17.8080930  40.6657980  17.4527530
   3.1273570  40.9622420  23.5861650   3.4946610  40.8749820  24.4657670
   2.5584390  40.1988970  23.4868510  17.9277430  39.4306800  26.5992120
  17.6963520  39.2019550  25.6990070  18.1881980  40.3506350  26.5537010
   2.6789570  37.8731510  27.4920070   1.7845620  37.8398270  27.8313780
   3.2187120  38.0718300  28.2571320  16.3665500  34.6563230  29.3771820
  17.2435680  34.6646630  29.7605820  16.3786340  33.9194070  28.7664170
  17.8128770  38.5092770  20.2659840  18.3366250  38.0155420  19.6350010
  18.3988190  38.6443130  21.0107410  17.9918490  38.5932640  23.7879390
  17.0421200  38.5596180  23.9024380  18.1731500  39.5032750  23.5529160
   3.8462930  36.8434320  12.8978020   4.5554630  36.4217540  12.4125300
   3.1302870  36.9109550  12.2661370   3.4937090  32.8973650  11.9380670
   4.2165220  33.4382590  12.2561890   3.7661610  32.6237070  11.0622210
  17.3028740  37.7666120  16.2052250  17.7987860  37.5336990  16.9901130
  17.1044810  36.9277960  15.7889890   3.1829280  32.1479840  21.8403290
   3.8305470  31.5977220  21.3998450   3.6031120  32.4022990  22.6619100
  18.7315900  36.4027070  18.7389930  18.6215180  36.2483110  19.6772200
  19.4923490  35.8748010  18.4965340  17.0781620  32.3421200  25.1972930
  17.7153840  32.9555340  25.5632120  17.2256510  32.3781860  24.2522160
  19.6206170  34.2334990  11.9796070  20.5455480  34.1016170  11.7714360
  19.5981960  34.3127810  12.9332520  19.6944660  35.0045650  14.6052780
  18.8996160  34.9390770  15.1345690  19.8987940  35.9396290  14.5938130
  16.6363080  49.0437200  18.5991170  17.2322150  48.7221770  17.9225590
  16.8941230  48.5709020  19.3904440   2.9361280  32.3035510  24.5828610
   2.5876100  32.7599330  25.3486790   2.6048980  31.4092640  24.6651040
   4.5425650  45.4755110  28.7481800   4.4995280  45.1048020  29.6296260
   4.6736660  46.4132680  28.8883620   8.2431680  47.0314700  24.3491520
   8.0023040  47.2989260  23.4622040   9.1834320  47.2020430  24.4042380
  10.4486100  33.4947390  28.1048030  10.3874990  34.0869220  28.8543440
  11.3886480  33.3873350  27.9598290  13.0860660  33.1517450  27.7440320
  13.7001070  33.4696740  27.0821400  13.6310220  32.6666040  28.3636180
  19.5035840  49.0509080  25.1502160  19.0094120  49.4477950  24.4329290
  18.8949130  48.4258290  25.5439440   3.6081920  31.8311710  27.8579380
   4.1564910  31.6499760  27.0945490   3.6737230  31.0405820  28.3935690
   4.3813680  48.4217360  25.8679580   3.7874000  48.2902060  26.6069620
   4.3737520  47.5855500  25.4021680  13.8268700  31.7149590  24.0709610
  12.9528540  32.0484700  23.8682540  13.7179450  31.2422770  24.8961480
  14.7340680  33.9220460  25.4551330  14.4054040  33.1072220  25.0753060
  15.6822980  33.8790270  25.3317020  17.1875290  49.6932500  22.4288900
  16.7278260  50.4448310  22.0546920  16.5587750  48.9738970  22.3703700
   4.0125910  45.7875740  24.8187620   3.2859970  45.1681030  24.7513570
   4.0735060  46.1816350  23.9485700   7.6171010  48.0020740  21.6037030
   8.1336030  47.3908100  21.0785290   8.2668390  48.5049520  22.0948040
  10.3566510  48.8929230  22.4306010  10.6444320  48.6383530  21.5539020
  10.8689730  48.3406590  23.0211580  11.5743520  32.6319430  23.0102520
  10.7915310  33.1064930  23.2899280  11.2806450  31.7274260  22.9015700
  16.1264590  33.3342530  21.0551610  16.5672680  33.2787630  20.2073210
  15.8572180  34.2500540  21.1261790  17.9903160  32.9657770  19.0660430
  17.9291560  32.0218990  18.9191450  18.7695190  33.0737860  19.6113890
   2.9183930  32.9366910  15.5316240   3.6763290  33.0495790  14.9580270
   2.4561100  33.7736110  15.4859670   9.4597740  35.0506180  18.5218550
   8.6472250  34.6763070  18.1814430   9.9639380  34.2951260  18.8239740
  13.9622720  31.7148630  19.7601620  14.5652090  32.2868840  20.2350140
  13.2215710  32.2788070  19.5375520  17.1057320  32.1170190  15.0341900
  17.3007950  33.0153640  15.3009330  16.3187190  31.8857270  15.5274850
   3.9018610  47.7983360  15.4734520   3.3766230  48.1791390  14.7696480
   3.8263190  48.4234130  16.1944230   5.2909080  33.4630960  14.0718210
   5.8201840  32.6760760  13.9426160   5.9237400  34.1422150  14.3053740
   7.4846920  33.2006100  17.1263600   6.8549660  32.4993410  17.2933730
   6.9452060  33.9610230  16.9096760  10.4238870  49.8145330  29.7974210
  11.3506180  49.5789600  29.8410170  10.4089300  50.6417330  29.3160240
  18.6583930  49.3570900  16.7948460  18.8336120  48.6708640  16.1509380
  17.9605500  49.8817950  16.4025130   7.6102480  32.4790080  29.5616090
   7.3286750  32.9823680  28.7976910   7.9922180  31.6811830  29.1958220
   6.5011580  49.7465740  14.3483770   7.2330400  49.4625020  13.8007660
   6.7605250  49.5079020  15.2383150   5.6626370  45.8630470  14.3530100
   5.0335250  46.3315570  14.9015930   5.7774200  45.0179690  14.7876290
  14.2117940  31.8943660  30.1396560  14.0983390  32.2138270  31.0348080
  15.0287680  32.2956170  29.8433840  16.9916430  49.0415190  29.6215250
  17.7841750  48.5464420  29.4141210  17.2849580  49.7205330  30.2290860
  11.2494130  41.6915150   2.3840570  10.4736230  41.2115590   2.6739140
  11.9007060  41.0120800   2.2096730   5.2659960  42.0034960   3.2616330
   4.4344840  41.7483670   3.6612840   5.8740940  42.0745730   3.9974250
   5.2461220  46.0375050   3.4574350   5.5489260  45.1472790   3.2784570
   5.9904810  46.5945270   3.2296600  10.6903120  44.3672340   2.3910730
  10.6211400  43.4262280   2.2299860  11.4522980  44.4573750   2.9633300
   2.8809790  34.9726860   4.7167350   2.7012630  34.0752610   4.9970110
   2.4789870  35.5198730   5.3914300  11.7208290  37.1742720   2.6179660
  12.0973110  36.3014600   2.5053330  11.6227800  37.5101420   1.7270100
   3.4996460  37.4687360   3.3249690   4.1806570  37.7325730   3.9437090
   3.1844510  36.6288230   3.6587700   7.6921030  38.5154720   2.4122280
   8.1999250  39.0135690   3.0527300   8.2234270  37.7389920   2.2361640
  19.7931960  36.6859910   6.1151630  19.0884130  37.0741620   5.5966740
  20.0589880  37.3810200   6.7172560   5.9757130  33.1553280   6.6785700
   5.9775570  33.6725670   5.8731600   5.1461440  32.6783460   6.6555630
   7.2259980  42.7948460   4.8559200   6.8929360  43.4217380   5.4980270
   7.4026660  43.3210340   4.0760870  15.7393890  36.6093540   2.3235540
  15.0349460  36.8978430   2.9038650  16.1006050  37.4193650   1.9635100
   5.6572460  34.8663240   4.6856150   5.9989270  35.7105290   4.3910020
   4.7188270  35.0146980   4.8021490   6.4379080  44.7629260   6.6708380
   7.0553080  45.4380340   6.3892830   5.5772200  45.1717240   6.5795880
  17.3556670  46.2268670   4.5863020  16.6720190  46.8967780   4.5779690
  17.8950960  46.4249320   3.8207880  18.8080810  36.0548330   2.7144750
  17.8605720  36.0887310   2.8460180  19.1330800  36.8687280   3.0994110
  14.8915410  48.0712800   3.3008200  14.9042570  47.6675090   2.4330460
  14.3390630  48.8460090   3.1969630  14.2900850  42.9742640   4.6290810
  14.7069640  42.7602750   3.7944270  15.0140670  43.2315430   5.1999430
  18.2362950  41.3729860   4.7207050  17.4081580  41.4422950   4.2457180
  18.8313430  41.9584170   4.2522880  15.2004960  38.1599180   5.6661920
  14.7876140  38.9852890   5.9201910  14.4680910  37.5744220   5.4738280
   7.8019450  44.6326640   2.6919800   7.5047740  44.0272110   2.0127580
   8.7519270  44.6703950   2.5809160   6.0466370  37.7202290   4.3079630
   6.5980960  37.8297630   3.5332880   6.5609880  38.0939890   5.0234860
  15.8905060  48.2058510   6.3542900  15.4135620  49.0130700   6.1615510
  15.2066850  47.5536840   6.5069110   6.8937880  44.3708330   9.3427600
   5.9966410  44.5948300   9.5901000   6.9190750  44.4943270   8.3939000
   5.7209100  41.2421650   7.9184970   5.5816870  42.1144450   8.2872370
   4.8390460  40.8994460   7.7732910   7.5189450  47.1843350  10.1270120
   7.4904880  47.5886300   9.2598550   7.3554420  46.2553710   9.9641720
  19.4704270  47.9670450  11.4234290  19.9463990  48.4453340  12.1023370
  20.0911430  47.8987940  10.6979790  18.8737520  45.1583300   8.5834300
  19.0000580  44.9195180   7.6651480  18.9158900  44.3267840   9.0556380
  12.7354260  48.8611300   7.1529110  13.2498930  48.7719310   7.9551540
  11.8923340  49.2071000   7.4457020  18.7261530  37.2115760   9.5484040
  18.1105800  37.7195430   9.0199500  18.4057950  36.3114090   9.4909980
  10.7875850  36.0507650   7.0146230  10.3255220  36.2590670   7.8266170
  10.3853960  35.2367000   6.7116900  15.7880360  37.2716600   8.1442890
  14.9373950  36.9722350   8.4651960  15.6282150  37.5158610   7.2326710
  12.8830070  38.7718350  10.2441680  13.2083480  37.9382100   9.9043910
  13.6710400  39.2946870  10.3920010   8.5381940  33.7286460   3.2700510
   8.8354270  34.6349290   3.1892530   9.0867500  33.2405240   2.6560080
   8.7319470  39.2058280   9.8052430   8.6363070  38.2653010   9.6552830
   9.5751450  39.4273350   9.4100500   3.8630010  35.6171950   7.9586210
   3.4693400  36.4647160   8.1658990   3.1748410  34.9798320   8.1494850
  10.4375060  35.7006920  11.0282950   9.7473380  35.5079120  11.6629040
  11.1807360  35.9841560  11.5607250  12.7138030  39.5405360   3.8636870
  11.9819150  40.0492170   4.2126970  12.3162370  38.7235340   3.5625650
   9.1515420  36.2159560   2.2689360   9.1551480  35.7749510   1.4193900
  10.0466540  36.5376890   2.3761180  13.1763940  34.9939040   3.2759810
  13.1936680  35.4447690   4.1201660  12.9279520  34.0944680   3.4893250
  16.6034690  32.4071220   9.1146190  16.9280460  31.6760880   9.6404170
  16.6391200  32.0884860   8.2127180   3.3026250  43.4284800   8.5346150
   2.9181040  42.7878470   9.1329110   3.6138440  44.1320920   9.1040880
   9.4523390  40.2761340   4.0154770   9.8193520  39.8019910   4.7616110
   9.2628450  41.1502910   4.3563110   7.2422760  39.3169980   6.3338980
   6.9379830  40.1961960   6.5589340   8.1969220  39.3769770   6.3696420
  16.5292530  42.5196330   2.7232220  17.2491650  43.0151620   2.3328330
  16.3274350  41.8414220   2.0786090  11.9111330  42.5905390   8.6101220
  11.8448640  41.6701060   8.3558810  11.2816470  42.6880830   9.3245860
   3.2986490  40.1572720   7.4810340   2.9401430  40.8226570   8.0683680
   3.0041050  39.3256270   7.8522960   6.4999610  40.6156960  10.3649890
   6.1999750  40.7614140   9.4677710   7.2710850  40.0562250  10.2723280
  11.8428060  45.4125960   8.3605020  11.8572600  44.4806920   8.1423930
  11.1353160  45.4985720   8.9994790  18.0539270  42.0533300   7.7073600
  17.3287460  42.6462080   7.5102990  18.5814730  42.0456840   6.9086970
  11.2761960  47.0543530   5.4545520  11.9204180  47.2602910   6.1318940
  11.6391400  46.2931930   5.0016370  12.5494040  45.0575880   4.1722970
  13.1916270  44.3569040   4.2855140  13.0743390  45.8374320   3.9919860
  14.3231660  45.8570780   7.3759030  14.6587900  46.4437470   8.0536950
  13.4032000  45.7263490   7.6056820  10.1520240  45.9062110  10.5447090
   9.8317110  45.1871350  11.0892780   9.4778600  46.5817180  10.6183150
  13.3673840  36.1388270   5.9083890  13.7354660  35.3183480   6.2363460
  12.5072040  36.1990160   6.3239540  10.3275830  38.7927860   6.1321860
  10.8261080  39.2673680   6.7973710  10.4698780  37.8691380   6.3391890
  17.5342690  35.0095820   6.9750250  17.0316290  35.7501220   7.3144060
  18.3499350  35.3979820   6.6587040  17.8290280  47.4237850   2.0965870
  17.9537700  48.2469020   2.5689680  18.6955840  47.2128580   1.7490020
   5.3007810  49.5169060   1.7683000   6.0370290  48.9684520   2.0391570
   5.6848730  50.3825070   1.6288990   4.3066090  48.7015130  10.9568580
   5.1078820  49.0227180  11.3703980   3.7917910  48.3410710  11.6788490
  13.1430720  44.8095000  10.9043990  12.5368880  44.8326600  10.1639740
  12.8384830  44.0778040  11.4411240  14.5731090  48.5375290   9.5153400
  15.5252840  48.4533310   9.4653640  14.4259310  49.2017000  10.1887190
   9.0801840  42.5959580   9.4340150   8.3147510  43.1644580   9.3494820
   9.2617800  42.3035790   8.5408380  16.2225190  44.3264910   9.9915170
  16.9634660  44.6640670   9.4882630  15.4597870  44.4956970   9.4384940
   4.0586980  39.3318180  10.7954700   4.0992320  39.0332050  11.7039930
   4.9132480  39.7325790  10.6362220   5.9992790  37.9110280   8.7629190
   5.4689250  37.4201230   8.1352530   6.6680860  38.3394480   8.2287120
  14.8970850  42.3779740   8.5270380  15.3111870  42.5324820   9.3760800
  13.9621850  42.5034960   8.6896160  15.3693020  39.7175900  10.5309530
  15.9513790  38.9628220  10.4430010  15.5454790  40.2483340   9.7541010
   6.4865090  34.8772650   8.8426480   6.3921960  34.2593400   8.1177350
   5.9062480  35.6038940   8.6156390   9.2526530  33.4345890   5.8753870
   8.8043830  33.4570150   5.0299420   8.6191730  33.0364910   6.4724170
   9.6586080  42.3300220   6.4966310  10.0774190  43.1732950   6.3242550
   8.7394710  42.4672260   6.2673090  11.9949980  40.0616400   7.8804150
  12.1146190  39.4657540   8.6198990  12.8543980  40.0986090   7.4605450
  14.3337880  40.6153590   6.4566660  13.8073100  41.1396210   5.8531800
  14.6769220  41.2480980   7.0876390   7.5093500  48.6353230   7.6124040
   6.9714590  49.3599290   7.2932740   7.7627460  48.1583570   6.8221380
   8.7618750  36.6037750   9.1379970   9.3518440  36.2953600   9.8257790
   7.9438990  36.1317500   9.2939870  13.5812180  36.2203560   9.3712990
  12.8927700  35.5585100   9.3062980  14.3018200  35.7741830   9.8161450
  10.3655710  49.8704440   7.8710690  10.2914410  50.7739580   8.1783060
   9.4634550  49.5516340   7.8432760   2.2573210  48.0649620   3.9125940
   1.8204200  48.2450420   4.7450090   2.8250890  48.8224240   3.7707660
  17.8935390  47.5666620   8.2003250  17.2937380  47.6259180   7.4567170
  18.0229290  46.6271600   8.3300100  16.5787030  44.2918600   6.2979410
  15.7646870  44.7215760   6.5605200  16.9861230  44.9037010   5.6848460
   3.1273570  40.9622420   4.8118160   3.4946610  40.8749820   5.6914180
   2.5584390  40.1988970   4.7125020  17.9277430  39.4306800   7.8248630
  17.6963520  39.2019550   6.9246580  18.1881980  40.3506350   7.7793520
   2.6789570  37.8731510   8.7176580   1.7845620  37.8398270   9.0570290
   3.2187120  38.0718300   9.4827830  16.3665500  34.6563230  10.6028330
  17.2435680  34.6646630  10.9862330  16.3786340  33.9194070   9.9920680
  17.9918490  38.5932640   5.0135900  17.0421200  38.5596180   5.1280890
  18.1731500  39.5032750   4.7785670   3.1829280  32.1479840   3.0659800
   3.8305470  31.5977220   2.6254960   3.6031120  32.4022990   3.8875610
  17.0781620  32.3421200   6.4229440  17.7153840  32.9555340   6.7888630
  17.2256510  32.3781860   5.4778670   2.9361280  32.3035510   5.8085120
   2.5876100  32.7599330   6.5743300   2.6048980  31.4092640   5.8907550
   4.5425650  45.4755110   9.9738310   4.4995280  45.1048020  10.8552770
   4.6736660  46.4132680  10.1140130   8.2431680  47.0314700   5.5748030
   8.0023040  47.2989260   4.6878550   9.1834320  47.2020430   5.6298890
  10.4486100  33.4947390   9.3304540  10.3874990  34.0869220  10.0799950
  11.3886480  33.3873350   9.1854800  13.0860660  33.1517450   8.9696830
  13.7001070  33.4696740   8.3077910  13.6310220  32.6666040   9.5892690
  19.5035840  49.0509080   6.3758670  19.0094120  49.4477950   5.6585800
  18.8949130  48.4258290   6.7695950   3.6081920  31.8311710   9.0835890
   4.1564910  31.6499760   8.3202000   3.6737230  31.0405820   9.6192200
   4.3813680  48.4217360   7.0936090   3.7874000  48.2902060   7.8326130
   4.3737520  47.5855500   6.6278190  13.8268700  31.7149590   5.2966120
  12.9528540  32.0484700   5.0939050  13.7179450  31.2422770   6.1217990
  14.7340680  33.9220460   6.6807840  14.4054040  33.1072220   6.3009570
  15.6822980  33.8790270   6.5573530  17.1875290  49.6932500   3.6545410
  16.7278260  50.4448310   3.2803430  16.5587750  48.9738970   3.5960210
   4.0125910  45.7875740   6.0444130   3.2859970  45.1681030   5.9770080
   4.0735060  46.1816350   5.1742210   7.6171010  48.0020740   2.8293540
   8.1336030  47.3908100   2.3041800   8.2668390  48.5049520   3.3204550
  10.3566510  48.8929230   3.6562520  10.6444320  48.6383530   2.7795530
  10.8689730  48.3406590   4.2468090  11.5743520  32.6319430   4.2359030
  10.7915310  33.1064930   4.5155790  11.2806450  31.7274260   4.1272210
  16.1264590  33.3342530   2.2808120  16.5672680  33.2787630   1.4329720
  15.8572180  34.2500540   2.3518300  10.4238870  49.8145330  11.0230720
  11.3506180  49.5789600  11.0666680  10.4089300  50.6417330  10.5416750
   7.6102480  32.4790080  10.7872600   7.3286750  32.9823680  10.0233420
   7.9922180  31.6811830  10.4214730  14.2117940  31.8943660  11.3653070
  14.0983390  32.2138270  12.2604590  15.0287680  32.2956170  11.0690350
  16.9916430  49.0415190  10.8471760  17.7841750  48.5464420  10.6397720
  17.2849580  49.7205330  11.4547370  13.1176090  21.1392640 150.6979220
  13.0370140  20.2247250 150.4270930  12.7040510  21.6359710 149.9918930
  11.2494130  22.9171660 152.5788490  10.4736230  22.4372100 152.8687060
  11.9007060  22.2377310 152.4044650  15.2701560  27.3231850 151.3587620
  14.8083090  26.5519090 151.6874790  16.0827110  27.3497920 151.8640070
   3.6751910  18.1893360 147.2406640   2.7868610  18.5309330 147.1386520
   3.9593100  17.9893680 146.3487470  11.4964870  29.6089860 150.9791610
  10.8776310  30.0647360 150.4086050  12.3516650  29.7641320 150.5781310
  10.6903120  25.5928850 152.5858650  10.6211400  24.6518790 152.4247780
  11.4522980  25.6830260 153.1581220  11.7208290  18.3999230 152.8127580
  12.0973110  17.5271110 152.7001250  11.6227800  18.7357930 151.9218020
   5.8513300  16.7724860 148.2745020   5.9580050  17.6728590 148.5813780
   4.9405660  16.7242830 147.9839670  15.5032410  15.8949670 149.7455920
  16.3242030  15.4046240 149.7881400  15.5366490  16.4847330 150.4987760
  12.3628220  24.4929100 148.3723520  11.7445490  24.9578550 147.8086240
  12.8751470  25.1856580 148.7893030  15.7393890  17.8350050 152.5183460
  15.0349460  18.1234940 153.0986570  16.1006050  18.6450160 152.1583020
   9.3400350  13.5802020 151.2048660   9.6475330  13.0248910 150.4884160
   8.4101050  13.7146480 151.0221650  16.1860830  26.0185530 148.5846290
  16.0757160  25.0759860 148.7095710  16.1829080  26.3801170 149.4709050
  11.7281110  21.6450850 147.9408780  10.8010390  21.5788230 148.1697250
  11.8805930  22.5830980 147.8264020  11.7150190  17.9167850 144.9375940
  10.7753860  18.0781810 145.0228400  12.0333450  18.6353530 144.3911930
  15.7578400  23.2071150 148.4444030  15.1390820  22.8690700 147.7970330
  15.7402850  22.5630910 149.1523220   7.3337750  22.1715590 150.7228510
   6.9294750  21.4592840 150.2274410   7.4200870  21.8268830 151.6116550
   7.8019450  25.8583150 152.8867720   7.5047740  25.2528620 152.2075500
   8.7519270  25.8960460 152.7757080  13.9343100  22.4457960 145.4516780
  14.3736380  21.6080390 145.3054600  14.6471520  23.0787360 145.5380920
  12.0438480  27.3854030 149.4198020  12.4834390  28.1278360 149.0053410
  11.9825370  27.6280600 150.3436980  17.5160240  13.7000770 143.7657820
  17.2032900  13.7927600 144.6656890  18.2772710  14.2781800 143.7155250
   4.0342380  21.0660570 148.2235160   3.9139980  21.7922660 147.6116430
   3.7243270  20.2963480 147.7463070   2.9175380  25.9375900 150.4409980
   2.5103460  26.0790490 149.5863580   3.8088390  25.6536060 150.2381190
  14.7108660  30.3723150 146.7761030  14.5509800  30.0826090 147.6742860
  14.5455370  29.5963280 146.2406260   7.1897040  30.1521680 148.5532650
   7.0139520  29.2357220 148.3400450   6.3352780  30.5108970 148.7930450
  14.4134790  27.8810710 145.3359030  13.7199950  27.8788000 144.6761310
  15.1557650  27.4570030 144.9053200  13.9784720  29.5073420 149.4107520
  14.4341670  28.7262800 149.7246140  14.3177240  30.2180240 149.9548700
   6.5006040  14.4095640 151.6058830   6.0574190  15.1905180 151.2743350
   7.0591030  14.7325530 152.3129770   9.6164860  14.0306340 146.4864660
   8.9919040  14.0266210 147.2117970   9.5294980  13.1637300 146.0900630
   6.2920260  19.5329210 149.3340080   6.0661180  19.3166380 150.2386700
   5.5112790  19.9657670 148.9886050  13.5218020  19.5392580 147.9330730
  12.9226910  20.2628380 147.7494350  14.0697630  19.4769360 147.1507180
  12.1282890  18.1756120 149.9634010  12.5212460  18.4928320 149.1502700
  12.4899740  17.2968000 150.0778530   9.1515420  17.4416070 152.4637280
   9.1551480  17.0006020 151.6141820  10.0466540  17.7633400 152.5709100
   5.0017800  17.3242560 151.4231490   4.6617850  17.8017790 152.1798540
   4.2395120  16.8707680 151.0632590   9.2135570  18.4428150 145.4544040
   9.3348390  18.4014630 146.4029860   8.8284080  19.3052300 145.2990770
   8.2257070  20.7529290 144.8527340   7.6573970  20.3047540 144.2263250
   8.9346070  21.1122070 144.3192490   2.3163880  16.2461540 150.3396160
   2.0310800  15.8817210 151.1774780   2.2542740  15.5142000 149.7259300
   5.7704550  24.7487480 147.1253750   4.9966810  24.2085100 146.9652470
   6.4999180  24.2294090 146.7871510  16.5292530  23.7452840 152.9180140
  17.2491650  24.2408130 152.5276250  16.3274350  23.0670730 152.2734010
  11.9902470  15.1390800 147.0609530  11.1767080  14.6403970 146.9854840
  11.7964420  15.9789050 146.6445880  14.7050860  19.5110450 145.3571690
  15.5930480  19.8227680 145.1823030  14.6755950  18.6382700 144.9652270
   5.8141950  24.4167860 150.7632560   6.3320620  23.6136120 150.7089450
   5.3625970  24.3547000 151.6049390  10.7011450  25.6834140 146.0359860
  11.0427150  26.4276370 145.5403180   9.8724160  25.9965260 146.3984690
  16.9765130  20.8222290 144.8251550  16.8928850  21.2536510 143.9747990
  17.6959320  21.2820640 145.2578370  18.0052380  27.6764550 147.5533680
  17.3628540  27.0220170 147.8277400  17.6183040  28.0819640 146.7774350
  13.5838860  25.0049980 151.4005370  13.9362680  24.4078110 150.7406740
  12.7001190  24.6794210 151.5713620   9.6702140  25.7647670 148.8075780
  10.3573270  26.3116880 149.1883370   8.8834560  26.3088400 148.8425390
   8.9729350  22.7693700 148.4201140   9.4292130  23.5798950 148.6461330
   8.6217560  22.4516840 149.2519630   4.8741130  13.1131350 148.8923660
   4.7455760  13.1049250 149.8408580   4.0503150  13.4514440 148.5414670
  16.3949760  26.5681010 144.0910030  16.1687340  25.8511450 144.6834670
  16.0045960  26.3193450 143.2531780   2.1765790  30.5947870 144.8654490
   2.5363430  31.1937210 144.2111760   2.0358130  31.1407760 145.6389520
  15.9766010  24.4852950 145.7524190  15.6887710  24.9465640 146.5402070
  16.7718180  24.0250720 146.0208410   8.1934410  27.9779070 145.6828160
   8.1844510  28.7108760 145.0672670   7.2732770  27.7310650 145.7755120
   3.7941050  23.1993960 146.4274920   3.1869000  23.9392860 146.4370220
   4.2690400  23.2893320 145.6013120  16.7335870  16.3201720 146.9119370
  16.1049030  16.4247390 146.1977600  16.2387790  16.5398500 147.7013250
  11.1794010  28.0407310 144.3453350  11.2805990  27.8371300 143.4155330
  10.2795750  27.7865590 144.5501130   8.7019900  18.5987670 148.3277250
   7.9936050  19.0674010 148.7690860   8.9864380  17.9409680 148.9622440
  12.7335330  15.3238330 149.7673040  12.6103110  15.3424460 148.8182550
  13.6819890  15.3717270 149.8871440   9.8212120  30.5593630 149.0401020
  10.0753620  30.5215020 148.1180390   8.8724600  30.4326960 149.0329270
   6.9054920  16.9072750 145.7027960   7.7545450  17.3442900 145.6368150
   6.5386190  17.2193010 146.5300020  15.8264700  21.4785510 150.6159530
  14.8854840  21.4935740 150.7907220  16.1408770  20.6921470 151.0619830
   5.8046340  23.1605110 144.1763490   6.5709610  23.0486470 144.7388920
   5.8821030  22.4643080 143.5240260   4.4993100  20.5930180 144.8596380
   4.5796690  19.6457690 144.9713780   5.3912850  20.9237060 144.9657040
  17.8290280  28.6494360 152.2913790  17.9537700  29.4725530 152.7637600
  18.6955840  28.4385090 151.9437940   5.3007810  30.7425570 151.9630920
   6.0370290  30.1941030 152.2339490   5.6848730  31.6081580 151.8236910
   8.4110120  29.9155880 143.7856490   9.2038730  30.2044710 143.3338280
   7.8914470  29.4848050 143.1068970  17.4640290  29.1426010 145.2093230
  17.1781800  28.7291150 144.3947410  17.2659840  30.0713720 145.0893750
   8.9287520  25.1359290 143.6498840   8.8238160  24.5211640 144.3760220
   8.7611740  24.6125180 142.8661850  12.1690250  24.1979320 144.2540830
  11.6200350  24.6448620 144.8983570  12.7909510  23.6928570 144.7778500
   7.8365370  23.1570240 146.1506130   8.2581790  22.9910110 146.9937520
   7.9616210  22.3470470 145.6561270  10.3493010  22.1807850 143.3983230
  10.8698670  21.4656870 143.0324380  10.9961410  22.8193720 143.6983740
   6.7324270  19.2303470 143.0964290   6.5313330  18.3670830 143.4577630
   6.5616320  19.1436830 142.1585890  14.2112580  14.0411700 145.6251170
  14.4914870  13.1979600 145.9810590  13.4378310  14.2734810 146.1389920
   5.5307070  16.3304090 143.0842170   5.8332970  16.3371520 142.1761320
   6.2701660  15.9801950 143.5809830   8.7492000  15.2738710 144.0698370
   8.4014000  14.5962700 143.4900820   8.9504770  14.8128220 144.8841760
  10.9141040  30.2619460 145.6884970  11.8091830  30.6004430 145.7103730
  10.9458670  29.5398870 145.0609250   4.5537200  25.6346510 143.9171970
   4.9912070  26.1776180 144.5729550   5.0384930  24.8093460 143.9268310
   1.7683000  28.4235540 151.3692230   2.0986010  27.5556600 151.1370870
   2.1974000  28.6294060 152.1997190   6.3644920  26.7544550 149.0294200
   6.0640460  26.6309520 149.9298110   6.2582410  25.8953140 148.6209930
  19.1336840  26.5340950 143.7320880  18.3029800  26.6017600 144.2028110
  19.3108670  27.4245070 143.4287740  18.5893300  23.2788430 146.2355080
  19.3512210  23.8485080 146.3414770  18.6047670  22.7115630 147.0063390
  19.5953270  24.1338530 151.0797010  19.9662100  23.3505850 150.6732980
  20.2355200  24.8227630 150.9014310  18.6412470  23.5722800 143.3927600
  18.9161310  24.4801680 143.2646820  18.4523210  23.5085330 144.3289590
  15.0388080  16.5967650 144.6881230  15.4572960  16.4098630 143.8477890
  14.7324140  15.7446700 144.9984160  18.5377810  21.5091790 148.3857030
  18.1621410  20.7419720 147.9538320  17.8080930  21.8914490 148.8731960
  17.8128770  19.7349280 151.6864270  18.3366250  19.2411930 151.0554440
  18.3988190  19.8699640 152.4311840   3.8462930  18.0690830 144.3182450
   4.5554630  17.6474050 143.8329730   3.1302870  18.1366060 143.6865800
   3.4937090  14.1230160 143.3585100   4.2165220  14.6639100 143.6766320
   3.7661610  13.8493580 142.4826640  17.3028740  18.9922630 147.6256680
  17.7987860  18.7593500 148.4105560  17.1044810  18.1534470 147.2094320
  18.7315900  17.6283580 150.1594360  18.6215180  17.4739620 151.0976630
  19.4923490  17.1004520 149.9169770  19.6206170  15.4591500 143.4000500
  20.5455480  15.3272680 143.1918790  19.5981960  15.5384320 144.3536950
  19.6944660  16.2302160 146.0257210  18.8996160  16.1647280 146.5550120
  19.8987940  17.1652800 146.0142560  16.6363080  30.2693710 150.0195600
  17.2322150  29.9478280 149.3430020  16.8941230  29.7965530 150.8108870
  16.1264590  14.5599040 152.4756040  16.5672680  14.5044140 151.6277640
  15.8572180  15.4757050 152.5466220  17.9903160  14.1914280 150.4864860
  17.9291560  13.2475500 150.3395880  18.7695190  14.2994370 151.0318320
   2.9183930  14.1623420 146.9520670   3.6763290  14.2752300 146.3784700
   2.4561100  14.9992620 146.9064100   9.4597740  16.2762690 149.9422980
   8.6472250  15.9019580 149.6018860   9.9639380  15.5207770 150.2444170
  13.9622720  12.9405140 151.1806050  14.5652090  13.5125350 151.6554570
  13.2215710  13.5044580 150.9579950  17.1057320  13.3426700 146.4546330
  17.3007950  14.2410150 146.7213760  16.3187190  13.1113780 146.9479280
   3.9018610  29.0239870 146.8938950   3.3766230  29.4047900 146.1900910
   3.8263190  29.6490640 147.6148660   5.2909080  14.6887470 145.4922640
   5.8201840  13.9017270 145.3630590   5.9237400  15.3678660 145.7258170
   7.4846920  14.4262610 148.5468030   6.8549660  13.7249920 148.7138160
   6.9452060  15.1866740 148.3301190  18.6583930  30.5827410 148.2152890
  18.8336120  29.8965150 147.5713810  17.9605500  31.1074460 147.8229560
   6.5011580  30.9722250 145.7688200   7.2330400  30.6881530 145.2212090
   6.7605250  30.7335530 146.6587580   5.6626370  27.0886980 145.7734530
   5.0335250  27.5572080 146.3220360   5.7774200  26.2436200 146.2080720
  13.1176090  21.1392640 131.9235730  13.0370140  20.2247250 131.6527440
  12.7040510  21.6359710 131.2175440  11.2494130  22.9171660 133.8045000
  10.4736230  22.4372100 134.0943570  11.9007060  22.2377310 133.6301160
   5.2659960  23.2291470 134.6820760   4.4344840  22.9740180 135.0817270
   5.8740940  23.3002240 135.4178680  15.2701560  27.3231850 132.5844130
  14.8083090  26.5519090 132.9131300  16.0827110  27.3497920 133.0896580
   5.2461220  27.2631560 134.8778780   5.5489260  26.3729300 134.6989000
   5.9904810  27.8201780 134.6501030   3.6751910  18.1893360 128.4663150
   2.7868610  18.5309330 128.3643030   3.9593100  17.9893680 127.5743980
  11.4964870  29.6089860 132.2048120  10.8776310  30.0647360 131.6342560
  12.3516650  29.7641320 131.8037820  10.6903120  25.5928850 133.8115160
  10.6211400  24.6518790 133.6504290  11.4522980  25.6830260 134.3837730
   2.8809790  16.1983370 136.1371780   2.7012630  15.3009120 136.4174540
   2.4789870  16.7455240 136.8118730  11.7208290  18.3999230 134.0384090
  12.0973110  17.5271110 133.9257760  11.6227800  18.7357930 133.1474530
   5.8513300  16.7724860 129.5001530   5.9580050  17.6728590 129.8070290
   4.9405660  16.7242830 129.2096180  15.5032410  15.8949670 130.9712430
  16.3242030  15.4046240 131.0137910  15.5366490  16.4847330 131.7244270
   3.4996460  18.6943870 134.7454120   4.1806570  18.9582240 135.3641520
   3.1844510  17.8544740 135.0792130   7.6921030  19.7411230 133.8326710
   8.1999250  20.2392200 134.4731730   8.2234270  18.9646430 133.6566070
  19.7931960  17.9116420 137.5356060  19.0884130  18.2998130 137.0171170
  20.0589880  18.6066710 138.1376990   5.9757130  14.3809790 138.0990130
   5.9775570  14.8982180 137.2936030   5.1461440  13.9039970 138.0760060
  12.3628220  24.4929100 129.5980030  11.7445490  24.9578550 129.0342750
  12.8751470  25.1856580 130.0149540   7.2259980  24.0204970 136.2763630
   6.8929360  24.6473890 136.9184700   7.4026660  24.5466850 135.4965300
  15.7393890  17.8350050 133.7439970  15.0349460  18.1234940 134.3243080
  16.1006050  18.6450160 133.3839530   5.6572460  16.0919750 136.1060580
   5.9989270  16.9361800 135.8114450   4.7188270  16.2403490 136.2225920
   6.4379080  25.9885770 138.0912810   7.0553080  26.6636850 137.8097260
   5.5772200  26.3973750 138.0000310  17.3556670  27.4525180 136.0067450
  16.6720190  28.1224290 135.9984120  17.8950960  27.6505830 135.2412310
  18.8080810  17.2804840 134.1349180  17.8605720  17.3143820 134.2664610
  19.1330800  18.0943790 134.5198540   9.3400350  13.5802020 132.4305170
   9.6475330  13.0248910 131.7140670   8.4101050  13.7146480 132.2478160
  14.8915410  29.2969310 134.7212630  14.9042570  28.8931600 133.8534890
  14.3390630  30.0716600 134.6174060  16.1860830  26.0185530 129.8102800
  16.0757160  25.0759860 129.9352220  16.1829080  26.3801170 130.6965560
  14.2900850  24.1999150 136.0495240  14.7069640  23.9859260 135.2148700
  15.0140670  24.4571940 136.6203860  11.7281110  21.6450850 129.1665290
  10.8010390  21.5788230 129.3953760  11.8805930  22.5830980 129.0520530
  11.7150190  17.9167850 126.1632450  10.7753860  18.0781810 126.2484910
  12.0333450  18.6353530 125.6168440  18.2362950  22.5986370 136.1411480
  17.4081580  22.6679460 135.6661610  18.8313430  23.1840680 135.6727310
  15.7578400  23.2071150 129.6700540  15.1390820  22.8690700 129.0226840
  15.7402850  22.5630910 130.3779730  15.2004960  19.3855690 137.0866350
  14.7876140  20.2109400 137.3406340  14.4680910  18.8000730 136.8942710
   7.3337750  22.1715590 131.9485020   6.9294750  21.4592840 131.4530920
   7.4200870  21.8268830 132.8373060   7.8019450  25.8583150 134.1124230
   7.5047740  25.2528620 133.4332010   8.7519270  25.8960460 134.0013590
   6.0466370  18.9458800 135.7284060   6.5980960  19.0554140 134.9537310
   6.5609880  19.3196400 136.4439290  15.8905060  29.4315020 137.7747330
  15.4135620  30.2387210 137.5819940  15.2066850  28.7793350 137.9273540
   6.8937880  25.5964840 140.7632030   5.9966410  25.8204810 141.0105430
   6.9190750  25.7199780 139.8143430  13.9343100  22.4457960 126.6773290
  14.3736380  21.6080390 126.5311110  14.6471520  23.0787360 126.7637430
   5.7209100  22.4678160 139.3389400   5.5816870  23.3400960 139.7076800
   4.8390460  22.1250970 139.1937340  12.0438480  27.3854030 130.6454530
  12.4834390  28.1278360 130.2309920  11.9825370  27.6280600 131.5693490
   7.5189450  28.4099860 141.5474550   7.4904880  28.8142810 140.6802980
   7.3554420  27.4810220 141.3846150  17.5160240  13.7000770 124.9914330
  17.2032900  13.7927600 125.8913400  18.2772710  14.2781800 124.9411760
   4.0342380  21.0660570 129.4491670   3.9139980  21.7922660 128.8372940
   3.7243270  20.2963480 128.9719580  19.4704270  29.1926960 142.8438720
  19.9463990  29.6709850 143.5227800  20.0911430  29.1244450 142.1184220
   2.9175380  25.9375900 131.6666490   2.5103460  26.0790490 130.8120090
   3.8088390  25.6536060 131.4637700  18.8737520  26.3839810 140.0038730
  19.0000580  26.1451690 139.0855910  18.9158900  25.5524350 140.4760810
  12.7354260  30.0867810 138.5733540  13.2498930  29.9975820 139.3755970
  11.8923340  30.4327510 138.8661450  14.7108660  30.3723150 128.0017540
  14.5509800  30.0826090 128.8999370  14.5455370  29.5963280 127.4662770
   7.1897040  30.1521680 129.7789160   7.0139520  29.2357220 129.5656960
   6.3352780  30.5108970 130.0186960  14.4134790  27.8810710 126.5615540
  13.7199950  27.8788000 125.9017820  15.1557650  27.4570030 126.1309710
  13.9784720  29.5073420 130.6364030  14.4341670  28.7262800 130.9502650
  14.3177240  30.2180240 131.1805210  18.7261530  18.4372270 140.9688470
  18.1105800  18.9451940 140.4403930  18.4057950  17.5370600 140.9114410
   6.5006040  14.4095640 132.8315340   6.0574190  15.1905180 132.4999860
   7.0591030  14.7325530 133.5386280  10.7875850  17.2764160 138.4350660
  10.3255220  17.4847180 139.2470600  10.3853960  16.4623510 138.1321330
  15.7880360  18.4973110 139.5647320  14.9373950  18.1978860 139.8856390
  15.6282150  18.7415120 138.6531140  12.8830070  19.9974860 141.6646110
  13.2083480  19.1638610 141.3248340  13.6710400  20.5203380 141.8124440
   9.6164860  14.0306340 127.7121170   8.9919040  14.0266210 128.4374480
   9.5294980  13.1637300 127.3157140   8.5381940  14.9542970 134.6904940
   8.8354270  15.8605800 134.6096960   9.0867500  14.4661750 134.0764510
   6.2920260  19.5329210 130.5596590   6.0661180  19.3166380 131.4643210
   5.5112790  19.9657670 130.2142560  13.5218020  19.5392580 129.1587240
  12.9226910  20.2628380 128.9750860  14.0697630  19.4769360 128.3763690
   8.7319470  20.4314790 141.2256860   8.6363070  19.4909520 141.0757260
   9.5751450  20.6529860 140.8304930  12.1282890  18.1756120 131.1890520
  12.5212460  18.4928320 130.3759210  12.4899740  17.2968000 131.3035040
   3.8630010  16.8428460 139.3790640   3.4693400  17.6903670 139.5863420
   3.1748410  16.2054830 139.5699280  10.4375060  16.9263430 142.4487380
   9.7473380  16.7335630 143.0833470  11.1807360  17.2098070 142.9811680
  12.7138030  20.7661870 135.2841300  11.9819150  21.2748680 135.6331400
  12.3162370  19.9491850 134.9830080   9.1515420  17.4416070 133.6893790
   9.1551480  17.0006020 132.8398330  10.0466540  17.7633400 133.7965610
   5.0017800  17.3242560 132.6488000   4.6617850  17.8017790 133.4055050
   4.2395120  16.8707680 132.2889100   9.2135570  18.4428150 126.6800550
   9.3348390  18.4014630 127.6286370   8.8284080  19.3052300 126.5247280
  13.1763940  16.2195550 134.6964240  13.1936680  16.6704200 135.5406090
  12.9279520  15.3201190 134.9097680   8.2257070  20.7529290 126.0783850
   7.6573970  20.3047540 125.4519760   8.9346070  21.1122070 125.5449000
  16.6034690  13.6327730 140.5350620  16.9280460  12.9017390 141.0608600
  16.6391200  13.3141370 139.6331610   3.3026250  24.6541310 139.9550580
   2.9181040  24.0134980 140.5533540   3.6138440  25.3577430 140.5245310
   9.4523390  21.5017850 135.4359200   9.8193520  21.0276420 136.1820540
   9.2628450  22.3759420 135.7767540   2.3163880  16.2461540 131.5652670
   2.0310800  15.8817210 132.4031290   2.2542740  15.5142000 130.9515810
   7.2422760  20.5426490 137.7543410   6.9379830  21.4218470 137.9793770
   8.1969220  20.6026280 137.7900850   5.7704550  24.7487480 128.3510260
   4.9966810  24.2085100 128.1908980   6.4999180  24.2294090 128.0128020
  16.5292530  23.7452840 134.1436650  17.2491650  24.2408130 133.7532760
  16.3274350  23.0670730 133.4990520  11.9902470  15.1390800 128.2866040
  11.1767080  14.6403970 128.2111350  11.7964420  15.9789050 127.8702390
  11.9111330  23.8161900 140.0305650  11.8448640  22.8957570 139.7763240
  11.2816470  23.9137340 140.7450290  14.7050860  19.5110450 126.5828200
  15.5930480  19.8227680 126.4079540  14.6755950  18.6382700 126.1908780
   5.8141950  24.4167860 131.9889070   6.3320620  23.6136120 131.9345960
   5.3625970  24.3547000 132.8305900  10.7011450  25.6834140 127.2616370
  11.0427150  26.4276370 126.7659690   9.8724160  25.9965260 127.6241200
   3.2986490  21.3829230 138.9014770   2.9401430  22.0483080 139.4888110
   3.0041050  20.5512780 139.2727390   6.4999610  21.8413470 141.7854320
   6.1999750  21.9870650 140.8882140   7.2710850  21.2818760 141.6927710
  11.8428060  26.6382470 139.7809450  11.8572600  25.7063430 139.5628360
  11.1353160  26.7242230 140.4199220  16.9765130  20.8222290 126.0508060
  16.8928850  21.2536510 125.2004500  17.6959320  21.2820640 126.4834880
  18.0539270  23.2789810 139.1278030  17.3287460  23.8718590 138.9307420
  18.5814730  23.2713350 138.3291400  18.0052380  27.6764550 128.7790190
  17.3628540  27.0220170 129.0533910  17.6183040  28.0819640 128.0030860
  13.5838860  25.0049980 132.6261880  13.9362680  24.4078110 131.9663250
  12.7001190  24.6794210 132.7970130   9.6702140  25.7647670 130.0332290
  10.3573270  26.3116880 130.4139880   8.8834560  26.3088400 130.0681900
   8.9729350  22.7693700 129.6457650   9.4292130  23.5798950 129.8717840
   8.6217560  22.4516840 130.4776140  11.2761960  28.2800040 136.8749950
  11.9204180  28.4859420 137.5523370  11.6391400  27.5188440 136.4220800
   4.8741130  13.1131350 130.1180170   4.7455760  13.1049250 131.0665090
   4.0503150  13.4514440 129.7671180  12.5494040  26.2832390 135.5927400
  13.1916270  25.5825550 135.7059570  13.0743390  27.0630830 135.4124290
  16.3949760  26.5681010 125.3166540  16.1687340  25.8511450 125.9091180
  16.0045960  26.3193450 124.4788290  14.3231660  27.0827290 138.7963460
  14.6587900  27.6693980 139.4741380  13.4032000  26.9520000 139.0261250
   2.1765790  30.5947870 126.0911000   2.5363430  31.1937210 125.4368270
   2.0358130  31.1407760 126.8646030  15.9766010  24.4852950 126.9780700
  15.6887710  24.9465640 127.7658580  16.7718180  24.0250720 127.2464920
  10.1520240  27.1318620 141.9651520   9.8317110  26.4127860 142.5097210
   9.4778600  27.8073690 142.0387580   8.1934410  27.9779070 126.9084670
   8.1844510  28.7108760 126.2929180   7.2732770  27.7310650 127.0011630
   3.7941050  23.1993960 127.6531430   3.1869000  23.9392860 127.6626730
   4.2690400  23.2893320 126.8269630  13.3673840  17.3644780 137.3288320
  13.7354660  16.5439990 137.6567890  12.5072040  17.4246670 137.7443970
  16.7335870  16.3201720 128.1375880  16.1049030  16.4247390 127.4234110
  16.2387790  16.5398500 128.9269760  11.1794010  28.0407310 125.5709860
  11.2805990  27.8371300 124.6411840  10.2795750  27.7865590 125.7757640
   8.7019900  18.5987670 129.5533760   7.9936050  19.0674010 129.9947370
   8.9864380  17.9409680 130.1878950  10.3275830  20.0184370 137.5526290
  10.8261080  20.4930190 138.2178140  10.4698780  19.0947890 137.7596320
  12.7335330  15.3238330 130.9929550  12.6103110  15.3424460 130.0439060
  13.6819890  15.3717270 131.1127950   9.8212120  30.5593630 130.2657530
  10.0753620  30.5215020 129.3436900   8.8724600  30.4326960 130.2585780
   6.9054920  16.9072750 126.9284470   7.7545450  17.3442900 126.8624660
   6.5386190  17.2193010 127.7556530  17.5342690  16.2352330 138.3954680
  17.0316290  16.9757730 138.7348490  18.3499350  16.6236330 138.0791470
  15.8264700  21.4785510 131.8416040  14.8854840  21.4935740 132.0163730
  16.1408770  20.6921470 132.2876340   5.8046340  23.1605110 125.4020000
   6.5709610  23.0486470 125.9645430   5.8821030  22.4643080 124.7496770
   4.4993100  20.5930180 126.0852890   4.5796690  19.6457690 126.1970290
   5.3912850  20.9237060 126.1913550  17.8290280  28.6494360 133.5170300
  17.9537700  29.4725530 133.9894110  18.6955840  28.4385090 133.1694450
   5.3007810  30.7425570 133.1887430   6.0370290  30.1941030 133.4596000
   5.6848730  31.6081580 133.0493420   4.3066090  29.9271640 142.3773010
   5.1078820  30.2483690 142.7908410   3.7917910  29.5667220 143.0992920
   8.4110120  29.9155880 125.0113000   9.2038730  30.2044710 124.5594790
   7.8914470  29.4848050 124.3325480  13.1430720  26.0351510 142.3248420
  12.5368880  26.0583110 141.5844170  12.8384830  25.3034550 142.8615670
  14.5731090  29.7631800 140.9357830  15.5252840  29.6789820 140.8858070
  14.4259310  30.4273510 141.6091620  17.4640290  29.1426010 126.4349740
  17.1781800  28.7291150 125.6203920  17.2659840  30.0713720 126.3150260
   8.9287520  25.1359290 124.8755350   8.8238160  24.5211640 125.6016730
   8.7611740  24.6125180 124.0918360   9.0801840  23.8216090 140.8544580
   8.3147510  24.3901090 140.7699250   9.2617800  23.5292300 139.9612810
  12.1690250  24.1979320 125.4797340  11.6200350  24.6448620 126.1240080
  12.7909510  23.6928570 126.0035010  16.2225190  25.5521420 141.4119600
  16.9634660  25.8897180 140.9087060  15.4597870  25.7213480 140.8589370
   4.0586980  20.5574690 142.2159130   4.0992320  20.2588560 143.1244360
   4.9132480  20.9582300 142.0566650   7.8365370  23.1570240 127.3762640
   8.2581790  22.9910110 128.2194030   7.9616210  22.3470470 126.8817780
   5.9992790  19.1366790 140.1833620   5.4689250  18.6457740 139.5556960
   6.6680860  19.5650990 139.6491550  10.3493010  22.1807850 124.6239740
  10.8698670  21.4656870 124.2580890  10.9961410  22.8193720 124.9240250
  14.8970850  23.6036250 139.9474810  15.3111870  23.7581330 140.7965230
  13.9621850  23.7291470 140.1100590  15.3693020  20.9432410 141.9513960
  15.9513790  20.1884730 141.8634440  15.5454790  21.4739850 141.1745440
   6.4865090  16.1029160 140.2630910   6.3921960  15.4849910 139.5381780
   5.9062480  16.8295450 140.0360820   9.2526530  14.6602400 137.2958300
   8.8043830  14.6826660 136.4503850   8.6191730  14.2621420 137.8928600
   9.6586080  23.5556730 137.9170740  10.0774190  24.3989460 137.7446980
   8.7394710  23.6928770 137.6877520  11.9949980  21.2872910 139.3008580
  12.1146190  20.6914050 140.0403420  12.8543980  21.3242600 138.8809880
  14.3337880  21.8410100 137.8771090  13.8073100  22.3652720 137.2736230
  14.6769220  22.4737490 138.5080820   6.7324270  19.2303470 124.3220800
   6.5313330  18.3670830 124.6834140   6.5616320  19.1436830 123.3842400
   7.5093500  29.8609740 139.0328470   6.9714590  30.5855800 138.7137170
   7.7627460  29.3840080 138.2425810   8.7618750  17.8294260 140.5584400
   9.3518440  17.5210110 141.2462220   7.9438990  17.3574010 140.7144300
  13.5812180  17.4460070 140.7917420  12.8927700  16.7841610 140.7267410
  14.3018200  16.9998340 141.2365880  14.2112580  14.0411700 126.8507680
  14.4914870  13.1979600 127.2067100  13.4378310  14.2734810 127.3646430
   5.5307070  16.3304090 124.3098680   5.8332970  16.3371520 123.4017830
   6.2701660  15.9801950 124.8066340  10.3655710  31.0960950 139.2915120
  10.2914410  31.9996090 139.5987490   9.4634550  30.7772850 139.2637190
   8.7492000  15.2738710 125.2954880   8.4014000  14.5962700 124.7157330
   8.9504770  14.8128220 126.1098270  10.9141040  30.2619460 126.9141480
  11.8091830  30.6004430 126.9360240  10.9458670  29.5398870 126.2865760
   4.5537200  25.6346510 125.1428480   4.9912070  26.1776180 125.7986060
   5.0384930  24.8093460 125.1524820   1.7683000  28.4235540 132.5948740
   2.0986010  27.5556600 132.3627380   2.1974000  28.6294060 133.4253700
   6.3644920  26.7544550 130.2550710   6.0640460  26.6309520 131.1554620
   6.2582410  25.8953140 129.8466440   2.2573210  29.2906130 135.3330370
   1.8204200  29.4706930 136.1654520   2.8250890  30.0480750 135.1912090
  17.8935390  28.7923130 139.6207680  17.2937380  28.8515690 138.8771600
  18.0229290  27.8528110 139.7504530  19.1336840  26.5340950 124.9577390
  18.3029800  26.6017600 125.4284620  19.3108670  27.4245070 124.6544250
  18.5893300  23.2788430 127.4611590  19.3512210  23.8485080 127.5671280
  18.6047670  22.7115630 128.2319900  19.5953270  24.1338530 132.3053520
  19.9662100  23.3505850 131.8989490  20.2355200  24.8227630 132.1270820
  16.5787030  25.5175110 137.7183840  15.7646870  25.9472270 137.9809630
  16.9861230  26.1293520 137.1052890  18.6412470  23.5722800 124.6184110
  18.9161310  24.4801680 124.4903330  18.4523210  23.5085330 125.5546100
  15.0388080  16.5967650 125.9137740  15.4572960  16.4098630 125.0734400
  14.7324140  15.7446700 126.2240670  18.5377810  21.5091790 129.6113540
  18.1621410  20.7419720 129.1794830  17.8080930  21.8914490 130.0988470
   3.1273570  22.1878930 136.2322590   3.4946610  22.1006330 137.1118610
   2.5584390  21.4245480 136.1329450  17.9277430  20.6563310 139.2453060
  17.6963520  20.4276060 138.3451010  18.1881980  21.5762860 139.1997950
   2.6789570  19.0988020 140.1381010   1.7845620  19.0654780 140.4774720
   3.2187120  19.2974810 140.9032260  16.3665500  15.8819740 142.0232760
  17.2435680  15.8903140 142.4066760  16.3786340  15.1450580 141.4125110
  17.8128770  19.7349280 132.9120780  18.3366250  19.2411930 132.2810950
  18.3988190  19.8699640 133.6568350  17.9918490  19.8189150 136.4340330
  17.0421200  19.7852690 136.5485320  18.1731500  20.7289260 136.1990100
   3.8462930  18.0690830 125.5438960   4.5554630  17.6474050 125.0586240
   3.1302870  18.1366060 124.9122310   3.4937090  14.1230160 124.5841610
   4.2165220  14.6639100 124.9022830   3.7661610  13.8493580 123.7083150
  17.3028740  18.9922630 128.8513190  17.7987860  18.7593500 129.6362070
  17.1044810  18.1534470 128.4350830   3.1829280  13.3736350 134.4864230
   3.8305470  12.8233730 134.0459390   3.6031120  13.6279500 135.3080040
  18.7315900  17.6283580 131.3850870  18.6215180  17.4739620 132.3233140
  19.4923490  17.1004520 131.1426280  17.0781620  13.5677710 137.8433870
  17.7153840  14.1811850 138.2093060  17.2256510  13.6038370 136.8983100
  19.6206170  15.4591500 124.6257010  20.5455480  15.3272680 124.4175300
  19.5981960  15.5384320 125.5793460  19.6944660  16.2302160 127.2513720
  18.8996160  16.1647280 127.7806630  19.8987940  17.1652800 127.2399070
  16.6363080  30.2693710 131.2452110  17.2322150  29.9478280 130.5686530
  16.8941230  29.7965530 132.0365380   2.9361280  13.5292020 137.2289550
   2.5876100  13.9855840 137.9947730   2.6048980  12.6349150 137.3111980
   4.5425650  26.7011620 141.3942740   4.4995280  26.3304530 142.2757200
   4.6736660  27.6389190 141.5344560   8.2431680  28.2571210 136.9952460
   8.0023040  28.5245770 136.1082980   9.1834320  28.4276940 137.0503320
  10.4486100  14.7203900 140.7508970  10.3874990  15.3125730 141.5004380
  11.3886480  14.6129860 140.6059230  13.0860660  14.3773960 140.3901260
  13.7001070  14.6953250 139.7282340  13.6310220  13.8922550 141.0097120
  19.5035840  30.2765590 137.7963100  19.0094120  30.6734460 137.0790230
  18.8949130  29.6514800 138.1900380   3.6081920  13.0568220 140.5040320
   4.1564910  12.8756270 139.7406430   3.6737230  12.2662330 141.0396630
   4.3813680  29.6473870 138.5140520   3.7874000  29.5158570 139.2530560
   4.3737520  28.8112010 138.0482620  13.8268700  12.9406100 136.7170550
  12.9528540  13.2741210 136.5143480  13.7179450  12.4679280 137.5422420
  14.7340680  15.1476970 138.1012270  14.4054040  14.3328730 137.7214000
  15.6822980  15.1046780 137.9777960  17.1875290  30.9189010 135.0749840
  16.7278260  31.6704820 134.7007860  16.5587750  30.1995480 135.0164640
   4.0125910  27.0132250 137.4648560   3.2859970  26.3937540 137.3974510
   4.0735060  27.4072860 136.5946640   7.6171010  29.2277250 134.2497970
   8.1336030  28.6164610 133.7246230   8.2668390  29.7306030 134.7408980
  10.3566510  30.1185740 135.0766950  10.6444320  29.8640040 134.1999960
  10.8689730  29.5663100 135.6672520  11.5743520  13.8575940 135.6563460
  10.7915310  14.3321440 135.9360220  11.2806450  12.9530770 135.5476640
  16.1264590  14.5599040 133.7012550  16.5672680  14.5044140 132.8534150
  15.8572180  15.4757050 133.7722730  17.9903160  14.1914280 131.7121370
  17.9291560  13.2475500 131.5652390  18.7695190  14.2994370 132.2574830
   2.9183930  14.1623420 128.1777180   3.6763290  14.2752300 127.6041210
   2.4561100  14.9992620 128.1320610   9.4597740  16.2762690 131.1679490
   8.6472250  15.9019580 130.8275370   9.9639380  15.5207770 131.4700680
  13.9622720  12.9405140 132.4062560  14.5652090  13.5125350 132.8811080
  13.2215710  13.5044580 132.1836460  17.1057320  13.3426700 127.6802840
  17.3007950  14.2410150 127.9470270  16.3187190  13.1113780 128.1735790
   3.9018610  29.0239870 128.1195460   3.3766230  29.4047900 127.4157420
   3.8263190  29.6490640 128.8405170   5.2909080  14.6887470 126.7179150
   5.8201840  13.9017270 126.5887100   5.9237400  15.3678660 126.9514680
   7.4846920  14.4262610 129.7724540   6.8549660  13.7249920 129.9394670
   6.9452060  15.1866740 129.5557700  10.4238870  31.0401840 142.4435150
  11.3506180  30.8046110 142.4871110  10.4089300  31.8673840 141.9621180
  18.6583930  30.5827410 129.4409400  18.8336120  29.8965150 128.7970320
  17.9605500  31.1074460 129.0486070   7.6102480  13.7046590 142.2077030
   7.3286750  14.2080190 141.4437850   7.9922180  12.9068340 141.8419160
   6.5011580  30.9722250 126.9944710   7.2330400  30.6881530 126.4468600
   6.7605250  30.7335530 127.8844090   5.6626370  27.0886980 126.9991040
   5.0335250  27.5572080 127.5476870   5.7774200  26.2436200 127.4337230
  14.2117940  13.1200170 142.7857500  14.0983390  13.4394780 143.6809020
  15.0287680  13.5212680 142.4894780  16.9916430  30.2671700 142.2676190
  17.7841750  29.7720930 142.0602150  17.2849580  30.9461840 142.8751800
  13.1176090  21.1392640 113.1492240  13.0370140  20.2247250 112.8783950
  12.7040510  21.6359710 112.4431950  11.2494130  22.9171660 115.0301510
  10.4736230  22.4372100 115.3200080  11.9007060  22.2377310 114.8557670
   5.2659960  23.2291470 115.9077270   4.4344840  22.9740180 116.3073780
   5.8740940  23.3002240 116.6435190  15.2701560  27.3231850 113.8100640
  14.8083090  26.5519090 114.1387810  16.0827110  27.3497920 114.3153090
   5.2461220  27.2631560 116.1035290   5.5489260  26.3729300 115.9245510
   5.9904810  27.8201780 115.8757540   3.6751910  18.1893360 109.6919660
   2.7868610  18.5309330 109.5899540   3.9593100  17.9893680 108.8000490
  11.4964870  29.6089860 113.4304630  10.8776310  30.0647360 112.8599070
  12.3516650  29.7641320 113.0294330  10.6903120  25.5928850 115.0371670
  10.6211400  24.6518790 114.8760800  11.4522980  25.6830260 115.6094240
   2.8809790  16.1983370 117.3628290   2.7012630  15.3009120 117.6431050
   2.4789870  16.7455240 118.0375240  11.7208290  18.3999230 115.2640600
  12.0973110  17.5271110 115.1514270  11.6227800  18.7357930 114.3731040
   5.8513300  16.7724860 110.7258040   5.9580050  17.6728590 111.0326800
   4.9405660  16.7242830 110.4352690  15.5032410  15.8949670 112.1968940
  16.3242030  15.4046240 112.2394420  15.5366490  16.4847330 112.9500780
   3.4996460  18.6943870 115.9710630   4.1806570  18.9582240 116.5898030
   3.1844510  17.8544740 116.3048640   7.6921030  19.7411230 115.0583220
   8.1999250  20.2392200 115.6988240   8.2234270  18.9646430 114.8822580
  19.7931960  17.9116420 118.7612570  19.0884130  18.2998130 118.2427680
  20.0589880  18.6066710 119.3633500   5.9757130  14.3809790 119.3246640
   5.9775570  14.8982180 118.5192540   5.1461440  13.9039970 119.3016570
  12.3628220  24.4929100 110.8236540  11.7445490  24.9578550 110.2599260
  12.8751470  25.1856580 111.2406050   7.2259980  24.0204970 117.5020140
   6.8929360  24.6473890 118.1441210   7.4026660  24.5466850 116.7221810
  15.7393890  17.8350050 114.9696480  15.0349460  18.1234940 115.5499590
  16.1006050  18.6450160 114.6096040   5.6572460  16.0919750 117.3317090
   5.9989270  16.9361800 117.0370960   4.7188270  16.2403490 117.4482430
   6.4379080  25.9885770 119.3169320   7.0553080  26.6636850 119.0353770
   5.5772200  26.3973750 119.2256820  17.3556670  27.4525180 117.2323960
  16.6720190  28.1224290 117.2240630  17.8950960  27.6505830 116.4668820
  18.8080810  17.2804840 115.3605690  17.8605720  17.3143820 115.4921120
  19.1330800  18.0943790 115.7455050   9.3400350  13.5802020 113.6561680
   9.6475330  13.0248910 112.9397180   8.4101050  13.7146480 113.4734670
  14.8915410  29.2969310 115.9469140  14.9042570  28.8931600 115.0791400
  14.3390630  30.0716600 115.8430570  16.1860830  26.0185530 111.0359310
  16.0757160  25.0759860 111.1608730  16.1829080  26.3801170 111.9222070
  14.2900850  24.1999150 117.2751750  14.7069640  23.9859260 116.4405210
  15.0140670  24.4571940 117.8460370  11.7281110  21.6450850 110.3921800
  10.8010390  21.5788230 110.6210270  11.8805930  22.5830980 110.2777040
  11.7150190  17.9167850 107.3888960  10.7753860  18.0781810 107.4741420
  12.0333450  18.6353530 106.8424950  18.2362950  22.5986370 117.3667990
  17.4081580  22.6679460 116.8918120  18.8313430  23.1840680 116.8983820
  15.7578400  23.2071150 110.8957050  15.1390820  22.8690700 110.2483350
  15.7402850  22.5630910 111.6036240  15.2004960  19.3855690 118.3122860
  14.7876140  20.2109400 118.5662850  14.4680910  18.8000730 118.1199220
   7.3337750  22.1715590 113.1741530   6.9294750  21.4592840 112.6787430
   7.4200870  21.8268830 114.0629570   7.8019450  25.8583150 115.3380740
   7.5047740  25.2528620 114.6588520   8.7519270  25.8960460 115.2270100
   6.0466370  18.9458800 116.9540570   6.5980960  19.0554140 116.1793820
   6.5609880  19.3196400 117.6695800  15.8905060  29.4315020 119.0003840
  15.4135620  30.2387210 118.8076450  15.2066850  28.7793350 119.1530050
   6.8937880  25.5964840 121.9888540   5.9966410  25.8204810 122.2361940
   6.9190750  25.7199780 121.0399940  13.9343100  22.4457960 107.9029800
  14.3736380  21.6080390 107.7567620  14.6471520  23.0787360 107.9893940
   5.7209100  22.4678160 120.5645910   5.5816870  23.3400960 120.9333310
   4.8390460  22.1250970 120.4193850  12.0438480  27.3854030 111.8711040
  12.4834390  28.1278360 111.4566430  11.9825370  27.6280600 112.7950000
   7.5189450  28.4099860 122.7731060   7.4904880  28.8142810 121.9059490
   7.3554420  27.4810220 122.6102660  17.5160240  13.7000770 106.2170840
  17.2032900  13.7927600 107.1169910  18.2772710  14.2781800 106.1668270
   4.0342380  21.0660570 110.6748180   3.9139980  21.7922660 110.0629450
   3.7243270  20.2963480 110.1976090  19.4704270  29.1926960 124.0695230
  19.9463990  29.6709850 124.7484310  20.0911430  29.1244450 123.3440730
   2.9175380  25.9375900 112.8923000   2.5103460  26.0790490 112.0376600
   3.8088390  25.6536060 112.6894210  18.8737520  26.3839810 121.2295240
  19.0000580  26.1451690 120.3112420  18.9158900  25.5524350 121.7017320
  12.7354260  30.0867810 119.7990050  13.2498930  29.9975820 120.6012480
  11.8923340  30.4327510 120.0917960  14.7108660  30.3723150 109.2274050
  14.5509800  30.0826090 110.1255880  14.5455370  29.5963280 108.6919280
   7.1897040  30.1521680 111.0045670   7.0139520  29.2357220 110.7913470
   6.3352780  30.5108970 111.2443470  14.4134790  27.8810710 107.7872050
  13.7199950  27.8788000 107.1274330  15.1557650  27.4570030 107.3566220
  13.9784720  29.5073420 111.8620540  14.4341670  28.7262800 112.1759160
  14.3177240  30.2180240 112.4061720  18.7261530  18.4372270 122.1944980
  18.1105800  18.9451940 121.6660440  18.4057950  17.5370600 122.1370920
   6.5006040  14.4095640 114.0571850   6.0574190  15.1905180 113.7256370
   7.0591030  14.7325530 114.7642790  10.7875850  17.2764160 119.6607170
  10.3255220  17.4847180 120.4727110  10.3853960  16.4623510 119.3577840
  15.7880360  18.4973110 120.7903830  14.9373950  18.1978860 121.1112900
  15.6282150  18.7415120 119.8787650  12.8830070  19.9974860 122.8902620
  13.2083480  19.1638610 122.5504850  13.6710400  20.5203380 123.0380950
   9.6164860  14.0306340 108.9377680   8.9919040  14.0266210 109.6630990
   9.5294980  13.1637300 108.5413650   8.5381940  14.9542970 115.9161450
   8.8354270  15.8605800 115.8353470   9.0867500  14.4661750 115.3021020
   6.2920260  19.5329210 111.7853100   6.0661180  19.3166380 112.6899720
   5.5112790  19.9657670 111.4399070  13.5218020  19.5392580 110.3843750
  12.9226910  20.2628380 110.2007370  14.0697630  19.4769360 109.6020200
   8.7319470  20.4314790 122.4513370   8.6363070  19.4909520 122.3013770
   9.5751450  20.6529860 122.0561440  12.1282890  18.1756120 112.4147030
  12.5212460  18.4928320 111.6015720  12.4899740  17.2968000 112.5291550
   3.8630010  16.8428460 120.6047150   3.4693400  17.6903670 120.8119930
   3.1748410  16.2054830 120.7955790  10.4375060  16.9263430 123.6743890
   9.7473380  16.7335630 124.3089980  11.1807360  17.2098070 124.2068190
  12.7138030  20.7661870 116.5097810  11.9819150  21.2748680 116.8587910
  12.3162370  19.9491850 116.2086590   9.1515420  17.4416070 114.9150300
   9.1551480  17.0006020 114.0654840  10.0466540  17.7633400 115.0222120
   5.0017800  17.3242560 113.8744510   4.6617850  17.8017790 114.6311560
   4.2395120  16.8707680 113.5145610   9.2135570  18.4428150 107.9057060
   9.3348390  18.4014630 108.8542880   8.8284080  19.3052300 107.7503790
  13.1763940  16.2195550 115.9220750  13.1936680  16.6704200 116.7662600
  12.9279520  15.3201190 116.1354190   8.2257070  20.7529290 107.3040360
   7.6573970  20.3047540 106.6776270   8.9346070  21.1122070 106.7705510
  16.6034690  13.6327730 121.7607130  16.9280460  12.9017390 122.2865110
  16.6391200  13.3141370 120.8588120   3.3026250  24.6541310 121.1807090
   2.9181040  24.0134980 121.7790050   3.6138440  25.3577430 121.7501820
   9.4523390  21.5017850 116.6615710   9.8193520  21.0276420 117.4077050
   9.2628450  22.3759420 117.0024050   2.3163880  16.2461540 112.7909180
   2.0310800  15.8817210 113.6287800   2.2542740  15.5142000 112.1772320
   7.2422760  20.5426490 118.9799920   6.9379830  21.4218470 119.2050280
   8.1969220  20.6026280 119.0157360   5.7704550  24.7487480 109.5766770
   4.9966810  24.2085100 109.4165490   6.4999180  24.2294090 109.2384530
  16.5292530  23.7452840 115.3693160  17.2491650  24.2408130 114.9789270
  16.3274350  23.0670730 114.7247030  11.9902470  15.1390800 109.5122550
  11.1767080  14.6403970 109.4367860  11.7964420  15.9789050 109.0958900
  11.9111330  23.8161900 121.2562160  11.8448640  22.8957570 121.0019750
  11.2816470  23.9137340 121.9706800  14.7050860  19.5110450 107.8084710
  15.5930480  19.8227680 107.6336050  14.6755950  18.6382700 107.4165290
   5.8141950  24.4167860 113.2145580   6.3320620  23.6136120 113.1602470
   5.3625970  24.3547000 114.0562410  10.7011450  25.6834140 108.4872880
  11.0427150  26.4276370 107.9916200   9.8724160  25.9965260 108.8497710
   3.2986490  21.3829230 120.1271280   2.9401430  22.0483080 120.7144620
   3.0041050  20.5512780 120.4983900   6.4999610  21.8413470 123.0110830
   6.1999750  21.9870650 122.1138650   7.2710850  21.2818760 122.9184220
  11.8428060  26.6382470 121.0065960  11.8572600  25.7063430 120.7884870
  11.1353160  26.7242230 121.6455730  16.9765130  20.8222290 107.2764570
  16.8928850  21.2536510 106.4261010  17.6959320  21.2820640 107.7091390
  18.0539270  23.2789810 120.3534540  17.3287460  23.8718590 120.1563930
  18.5814730  23.2713350 119.5547910  18.0052380  27.6764550 110.0046700
  17.3628540  27.0220170 110.2790420  17.6183040  28.0819640 109.2287370
  13.5838860  25.0049980 113.8518390  13.9362680  24.4078110 113.1919760
  12.7001190  24.6794210 114.0226640   9.6702140  25.7647670 111.2588800
  10.3573270  26.3116880 111.6396390   8.8834560  26.3088400 111.2938410
   8.9729350  22.7693700 110.8714160   9.4292130  23.5798950 111.0974350
   8.6217560  22.4516840 111.7032650  11.2761960  28.2800040 118.1006460
  11.9204180  28.4859420 118.7779880  11.6391400  27.5188440 117.6477310
   4.8741130  13.1131350 111.3436680   4.7455760  13.1049250 112.2921600
   4.0503150  13.4514440 110.9927690  12.5494040  26.2832390 116.8183910
  13.1916270  25.5825550 116.9316080  13.0743390  27.0630830 116.6380800
  16.3949760  26.5681010 106.5423050  16.1687340  25.8511450 107.1347690
  16.0045960  26.3193450 105.7044800  14.3231660  27.0827290 120.0219970
  14.6587900  27.6693980 120.6997890  13.4032000  26.9520000 120.2517760
   2.1765790  30.5947870 107.3167510   2.5363430  31.1937210 106.6624780
   2.0358130  31.1407760 108.0902540  15.9766010  24.4852950 108.2037210
  15.6887710  24.9465640 108.9915090  16.7718180  24.0250720 108.4721430
  10.1520240  27.1318620 123.1908030   9.8317110  26.4127860 123.7353720
   9.4778600  27.8073690 123.2644090   8.1934410  27.9779070 108.1341180
   8.1844510  28.7108760 107.5185690   7.2732770  27.7310650 108.2268140
   3.7941050  23.1993960 108.8787940   3.1869000  23.9392860 108.8883240
   4.2690400  23.2893320 108.0526140  13.3673840  17.3644780 118.5544830
  13.7354660  16.5439990 118.8824400  12.5072040  17.4246670 118.9700480
  16.7335870  16.3201720 109.3632390  16.1049030  16.4247390 108.6490620
  16.2387790  16.5398500 110.1526270  11.1794010  28.0407310 106.7966370
  11.2805990  27.8371300 105.8668350  10.2795750  27.7865590 107.0014150
   8.7019900  18.5987670 110.7790270   7.9936050  19.0674010 111.2203880
   8.9864380  17.9409680 111.4135460  10.3275830  20.0184370 118.7782800
  10.8261080  20.4930190 119.4434650  10.4698780  19.0947890 118.9852830
  12.7335330  15.3238330 112.2186060  12.6103110  15.3424460 111.2695570
  13.6819890  15.3717270 112.3384460   9.8212120  30.5593630 111.4914040
  10.0753620  30.5215020 110.5693410   8.8724600  30.4326960 111.4842290
   6.9054920  16.9072750 108.1540980   7.7545450  17.3442900 108.0881170
   6.5386190  17.2193010 108.9813040  17.5342690  16.2352330 119.6211190
  17.0316290  16.9757730 119.9605000  18.3499350  16.6236330 119.3047980
  15.8264700  21.4785510 113.0672550  14.8854840  21.4935740 113.2420240
  16.1408770  20.6921470 113.5132850   5.8046340  23.1605110 106.6276510
   6.5709610  23.0486470 107.1901940   5.8821030  22.4643080 105.9753280
   4.4993100  20.5930180 107.3109400   4.5796690  19.6457690 107.4226800
   5.3912850  20.9237060 107.4170060  17.8290280  28.6494360 114.7426810
  17.9537700  29.4725530 115.2150620  18.6955840  28.4385090 114.3950960
   5.3007810  30.7425570 114.4143940   6.0370290  30.1941030 114.6852510
   5.6848730  31.6081580 114.2749930   4.3066090  29.9271640 123.6029520
   5.1078820  30.2483690 124.0164920   3.7917910  29.5667220 124.3249430
   8.4110120  29.9155880 106.2369510   9.2038730  30.2044710 105.7851300
   7.8914470  29.4848050 105.5581990  13.1430720  26.0351510 123.5504930
  12.5368880  26.0583110 122.8100680  12.8384830  25.3034550 124.0872180
  14.5731090  29.7631800 122.1614340  15.5252840  29.6789820 122.1114580
  14.4259310  30.4273510 122.8348130  17.4640290  29.1426010 107.6606250
  17.1781800  28.7291150 106.8460430  17.2659840  30.0713720 107.5406770
   8.9287520  25.1359290 106.1011860   8.8238160  24.5211640 106.8273240
   8.7611740  24.6125180 105.3174870   9.0801840  23.8216090 122.0801090
   8.3147510  24.3901090 121.9955760   9.2617800  23.5292300 121.1869320
  12.1690250  24.1979320 106.7053850  11.6200350  24.6448620 107.3496590
  12.7909510  23.6928570 107.2291520  16.2225190  25.5521420 122.6376110
  16.9634660  25.8897180 122.1343570  15.4597870  25.7213480 122.0845880
   4.0586980  20.5574690 123.4415640   4.0992320  20.2588560 124.3500870
   4.9132480  20.9582300 123.2823160   7.8365370  23.1570240 108.6019150
   8.2581790  22.9910110 109.4450540   7.9616210  22.3470470 108.1074290
   5.9992790  19.1366790 121.4090130   5.4689250  18.6457740 120.7813470
   6.6680860  19.5650990 120.8748060  10.3493010  22.1807850 105.8496250
  10.8698670  21.4656870 105.4837400  10.9961410  22.8193720 106.1496760
  14.8970850  23.6036250 121.1731320  15.3111870  23.7581330 122.0221740
  13.9621850  23.7291470 121.3357100  15.3693020  20.9432410 123.1770470
  15.9513790  20.1884730 123.0890950  15.5454790  21.4739850 122.4001950
   6.4865090  16.1029160 121.4887420   6.3921960  15.4849910 120.7638290
   5.9062480  16.8295450 121.2617330   9.2526530  14.6602400 118.5214810
   8.8043830  14.6826660 117.6760360   8.6191730  14.2621420 119.1185110
   9.6586080  23.5556730 119.1427250  10.0774190  24.3989460 118.9703490
   8.7394710  23.6928770 118.9134030  11.9949980  21.2872910 120.5265090
  12.1146190  20.6914050 121.2659930  12.8543980  21.3242600 120.1066390
  14.3337880  21.8410100 119.1027600  13.8073100  22.3652720 118.4992740
  14.6769220  22.4737490 119.7337330   6.7324270  19.2303470 105.5477310
   6.5313330  18.3670830 105.9090650   6.5616320  19.1436830 104.6098910
   7.5093500  29.8609740 120.2584980   6.9714590  30.5855800 119.9393680
   7.7627460  29.3840080 119.4682320   8.7618750  17.8294260 121.7840910
   9.3518440  17.5210110 122.4718730   7.9438990  17.3574010 121.9400810
  13.5812180  17.4460070 122.0173930  12.8927700  16.7841610 121.9523920
  14.3018200  16.9998340 122.4622390  14.2112580  14.0411700 108.0764190
  14.4914870  13.1979600 108.4323610  13.4378310  14.2734810 108.5902940
   5.5307070  16.3304090 105.5355190   5.8332970  16.3371520 104.6274340
   6.2701660  15.9801950 106.0322850  10.3655710  31.0960950 120.5171630
  10.2914410  31.9996090 120.8244000   9.4634550  30.7772850 120.4893700
   8.7492000  15.2738710 106.5211390   8.4014000  14.5962700 105.9413840
   8.9504770  14.8128220 107.3354780  10.9141040  30.2619460 108.1397990
  11.8091830  30.6004430 108.1616750  10.9458670  29.5398870 107.5122270
   4.5537200  25.6346510 106.3684990   4.9912070  26.1776180 107.0242570
   5.0384930  24.8093460 106.3781330   1.7683000  28.4235540 113.8205250
   2.0986010  27.5556600 113.5883890   2.1974000  28.6294060 114.6510210
   6.3644920  26.7544550 111.4807220   6.0640460  26.6309520 112.3811130
   6.2582410  25.8953140 111.0722950   2.2573210  29.2906130 116.5586880
   1.8204200  29.4706930 117.3911030   2.8250890  30.0480750 116.4168600
  17.8935390  28.7923130 120.8464190  17.2937380  28.8515690 120.1028110
  18.0229290  27.8528110 120.9761040  19.1336840  26.5340950 106.1833900
  18.3029800  26.6017600 106.6541130  19.3108670  27.4245070 105.8800760
  18.5893300  23.2788430 108.6868100  19.3512210  23.8485080 108.7927790
  18.6047670  22.7115630 109.4576410  19.5953270  24.1338530 113.5310030
  19.9662100  23.3505850 113.1246000  20.2355200  24.8227630 113.3527330
  16.5787030  25.5175110 118.9440350  15.7646870  25.9472270 119.2066140
  16.9861230  26.1293520 118.3309400  18.6412470  23.5722800 105.8440620
  18.9161310  24.4801680 105.7159840  18.4523210  23.5085330 106.7802610
  15.0388080  16.5967650 107.1394250  15.4572960  16.4098630 106.2990910
  14.7324140  15.7446700 107.4497180  18.5377810  21.5091790 110.8370050
  18.1621410  20.7419720 110.4051340  17.8080930  21.8914490 111.3244980
   3.1273570  22.1878930 117.4579100   3.4946610  22.1006330 118.3375120
   2.5584390  21.4245480 117.3585960  17.9277430  20.6563310 120.4709570
  17.6963520  20.4276060 119.5707520  18.1881980  21.5762860 120.4254460
   2.6789570  19.0988020 121.3637520   1.7845620  19.0654780 121.7031230
   3.2187120  19.2974810 122.1288770  16.3665500  15.8819740 123.2489270
  17.2435680  15.8903140 123.6323270  16.3786340  15.1450580 122.6381620
  17.8128770  19.7349280 114.1377290  18.3366250  19.2411930 113.5067460
  18.3988190  19.8699640 114.8824860  17.9918490  19.8189150 117.6596840
  17.0421200  19.7852690 117.7741830  18.1731500  20.7289260 117.4246610
   3.8462930  18.0690830 106.7695470   4.5554630  17.6474050 106.2842750
   3.1302870  18.1366060 106.1378820   3.4937090  14.1230160 105.8098120
   4.2165220  14.6639100 106.1279340   3.7661610  13.8493580 104.9339660
  17.3028740  18.9922630 110.0769700  17.7987860  18.7593500 110.8618580
  17.1044810  18.1534470 109.6607340   3.1829280  13.3736350 115.7120740
   3.8305470  12.8233730 115.2715900   3.6031120  13.6279500 116.5336550
  18.7315900  17.6283580 112.6107380  18.6215180  17.4739620 113.5489650
  19.4923490  17.1004520 112.3682790  17.0781620  13.5677710 119.0690380
  17.7153840  14.1811850 119.4349570  17.2256510  13.6038370 118.1239610
  19.6206170  15.4591500 105.8513520  20.5455480  15.3272680 105.6431810
  19.5981960  15.5384320 106.8049970  19.6944660  16.2302160 108.4770230
  18.8996160  16.1647280 109.0063140  19.8987940  17.1652800 108.4655580
  16.6363080  30.2693710 112.4708620  17.2322150  29.9478280 111.7943040
  16.8941230  29.7965530 113.2621890   2.9361280  13.5292020 118.4546060
   2.5876100  13.9855840 119.2204240   2.6048980  12.6349150 118.5368490
   4.5425650  26.7011620 122.6199250   4.4995280  26.3304530 123.5013710
   4.6736660  27.6389190 122.7601070   8.2431680  28.2571210 118.2208970
   8.0023040  28.5245770 117.3339490   9.1834320  28.4276940 118.2759830
  10.4486100  14.7203900 121.9765480  10.3874990  15.3125730 122.7260890
  11.3886480  14.6129860 121.8315740  13.0860660  14.3773960 121.6157770
  13.7001070  14.6953250 120.9538850  13.6310220  13.8922550 122.2353630
  19.5035840  30.2765590 119.0219610  19.0094120  30.6734460 118.3046740
  18.8949130  29.6514800 119.4156890   3.6081920  13.0568220 121.7296830
   4.1564910  12.8756270 120.9662940   3.6737230  12.2662330 122.2653140
   4.3813680  29.6473870 119.7397030   3.7874000  29.5158570 120.4787070
   4.3737520  28.8112010 119.2739130  13.8268700  12.9406100 117.9427060
  12.9528540  13.2741210 117.7399990  13.7179450  12.4679280 118.7678930
  14.7340680  15.1476970 119.3268780  14.4054040  14.3328730 118.9470510
  15.6822980  15.1046780 119.2034470  17.1875290  30.9189010 116.3006350
  16.7278260  31.6704820 115.9264370  16.5587750  30.1995480 116.2421150
   4.0125910  27.0132250 118.6905070   3.2859970  26.3937540 118.6231020
   4.0735060  27.4072860 117.8203150   7.6171010  29.2277250 115.4754480
   8.1336030  28.6164610 114.9502740   8.2668390  29.7306030 115.9665490
  10.3566510  30.1185740 116.3023460  10.6444320  29.8640040 115.4256470
  10.8689730  29.5663100 116.8929030  11.5743520  13.8575940 116.8819970
  10.7915310  14.3321440 117.1616730  11.2806450  12.9530770 116.7733150
  16.1264590  14.5599040 114.9269060  16.5672680  14.5044140 114.0790660
  15.8572180  15.4757050 114.9979240  17.9903160  14.1914280 112.9377880
  17.9291560  13.2475500 112.7908900  18.7695190  14.2994370 113.4831340
   2.9183930  14.1623420 109.4033690   3.6763290  14.2752300 108.8297720
   2.4561100  14.9992620 109.3577120   9.4597740  16.2762690 112.3936000
   8.6472250  15.9019580 112.0531880   9.9639380  15.5207770 112.6957190
  13.9622720  12.9405140 113.6319070  14.5652090  13.5125350 114.1067590
  13.2215710  13.5044580 113.4092970  17.1057320  13.3426700 108.9059350
  17.3007950  14.2410150 109.1726780  16.3187190  13.1113780 109.3992300
   3.9018610  29.0239870 109.3451970   3.3766230  29.4047900 108.6413930
   3.8263190  29.6490640 110.0661680   5.2909080  14.6887470 107.9435660
   5.8201840  13.9017270 107.8143610   5.9237400  15.3678660 108.1771190
   7.4846920  14.4262610 110.9981050   6.8549660  13.7249920 111.1651180
   6.9452060  15.1866740 110.7814210  10.4238870  31.0401840 123.6691660
  11.3506180  30.8046110 123.7127620  10.4089300  31.8673840 123.1877690
  18.6583930  30.5827410 110.6665910  18.8336120  29.8965150 110.0226830
  17.9605500  31.1074460 110.2742580   7.6102480  13.7046590 123.4333540
   7.3286750  14.2080190 122.6694360   7.9922180  12.9068340 123.0675670
   6.5011580  30.9722250 108.2201220   7.2330400  30.6881530 107.6725110
   6.7605250  30.7335530 109.1100600   5.6626370  27.0886980 108.2247550
   5.0335250  27.5572080 108.7733380   5.7774200  26.2436200 108.6593740
  14.2117940  13.1200170 124.0114010  14.0983390  13.4394780 124.9065530
  15.0287680  13.5212680 123.7151290  16.9916430  30.2671700 123.4932700
  17.7841750  29.7720930 123.2858660  17.2849580  30.9461840 124.1008310
  13.1176090  21.1392640  94.3748750  13.0370140  20.2247250  94.1040460
  12.7040510  21.6359710  93.6688460  11.2494130  22.9171660  96.2558020
  10.4736230  22.4372100  96.5456590  11.9007060  22.2377310  96.0814180
   5.2659960  23.2291470  97.1333780   4.4344840  22.9740180  97.5330290
   5.8740940  23.3002240  97.8691700  15.2701560  27.3231850  95.0357150
  14.8083090  26.5519090  95.3644320  16.0827110  27.3497920  95.5409600
   5.2461220  27.2631560  97.3291800   5.5489260  26.3729300  97.1502020
   5.9904810  27.8201780  97.1014050   3.6751910  18.1893360  90.9176170
   2.7868610  18.5309330  90.8156050   3.9593100  17.9893680  90.0257000
  11.4964870  29.6089860  94.6561140  10.8776310  30.0647360  94.0855580
  12.3516650  29.7641320  94.2550840  10.6903120  25.5928850  96.2628180
  10.6211400  24.6518790  96.1017310  11.4522980  25.6830260  96.8350750
   2.8809790  16.1983370  98.5884800   2.7012630  15.3009120  98.8687560
   2.4789870  16.7455240  99.2631750  11.7208290  18.3999230  96.4897110
  12.0973110  17.5271110  96.3770780  11.6227800  18.7357930  95.5987550
   5.8513300  16.7724860  91.9514550   5.9580050  17.6728590  92.2583310
   4.9405660  16.7242830  91.6609200  15.5032410  15.8949670  93.4225450
  16.3242030  15.4046240  93.4650930  15.5366490  16.4847330  94.1757290
   3.4996460  18.6943870  97.1967140   4.1806570  18.9582240  97.8154540
   3.1844510  17.8544740  97.5305150   7.6921030  19.7411230  96.2839730
   8.1999250  20.2392200  96.9244750   8.2234270  18.9646430  96.1079090
  19.7931960  17.9116420  99.9869080  19.0884130  18.2998130  99.4684190
  20.0589880  18.6066710 100.5890010   5.9757130  14.3809790 100.5503150
   5.9775570  14.8982180  99.7449050   5.1461440  13.9039970 100.5273080
  12.3628220  24.4929100  92.0493050  11.7445490  24.9578550  91.4855770
  12.8751470  25.1856580  92.4662560   7.2259980  24.0204970  98.7276650
   6.8929360  24.6473890  99.3697720   7.4026660  24.5466850  97.9478320
  15.7393890  17.8350050  96.1952990  15.0349460  18.1234940  96.7756100
  16.1006050  18.6450160  95.8352550   5.6572460  16.0919750  98.5573600
   5.9989270  16.9361800  98.2627470   4.7188270  16.2403490  98.6738940
   6.4379080  25.9885770 100.5425830   7.0553080  26.6636850 100.2610280
   5.5772200  26.3973750 100.4513330  17.3556670  27.4525180  98.4580470
  16.6720190  28.1224290  98.4497140  17.8950960  27.6505830  97.6925330
  18.8080810  17.2804840  96.5862200  17.8605720  17.3143820  96.7177630
  19.1330800  18.0943790  96.9711560   9.3400350  13.5802020  94.8818190
   9.6475330  13.0248910  94.1653690   8.4101050  13.7146480  94.6991180
  14.8915410  29.2969310  97.1725650  14.9042570  28.8931600  96.3047910
  14.3390630  30.0716600  97.0687080  16.1860830  26.0185530  92.2615820
  16.0757160  25.0759860  92.3865240  16.1829080  26.3801170  93.1478580
  14.2900850  24.1999150  98.5008260  14.7069640  23.9859260  97.6661720
  15.0140670  24.4571940  99.0716880  11.7281110  21.6450850  91.6178310
  10.8010390  21.5788230  91.8466780  11.8805930  22.5830980  91.5033550
  11.7150190  17.9167850  88.6145470  10.7753860  18.0781810  88.6997930
  12.0333450  18.6353530  88.0681460  18.2362950  22.5986370  98.5924500
  17.4081580  22.6679460  98.1174630  18.8313430  23.1840680  98.1240330
  15.7578400  23.2071150  92.1213560  15.1390820  22.8690700  91.4739860
  15.7402850  22.5630910  92.8292750  15.2004960  19.3855690  99.5379370
  14.7876140  20.2109400  99.7919360  14.4680910  18.8000730  99.3455730
   7.3337750  22.1715590  94.3998040   6.9294750  21.4592840  93.9043940
   7.4200870  21.8268830  95.2886080   7.8019450  25.8583150  96.5637250
   7.5047740  25.2528620  95.8845030   8.7519270  25.8960460  96.4526610
   6.0466370  18.9458800  98.1797080   6.5980960  19.0554140  97.4050330
   6.5609880  19.3196400  98.8952310  15.8905060  29.4315020 100.2260350
  15.4135620  30.2387210 100.0332960  15.2066850  28.7793350 100.3786560
   6.8937880  25.5964840 103.2145050   5.9966410  25.8204810 103.4618450
   6.9190750  25.7199780 102.2656450  13.9343100  22.4457960  89.1286310
  14.3736380  21.6080390  88.9824130  14.6471520  23.0787360  89.2150450
   5.7209100  22.4678160 101.7902420   5.5816870  23.3400960 102.1589820
   4.8390460  22.1250970 101.6450360  12.0438480  27.3854030  93.0967550
  12.4834390  28.1278360  92.6822940  11.9825370  27.6280600  94.0206510
   7.5189450  28.4099860 103.9987570   7.4904880  28.8142810 103.1316000
   7.3554420  27.4810220 103.8359170  17.5160240  13.7000770  87.4427350
  17.2032900  13.7927600  88.3426420  18.2772710  14.2781800  87.3924780
   4.0342380  21.0660570  91.9004690   3.9139980  21.7922660  91.2885960
   3.7243270  20.2963480  91.4232600  19.4704270  29.1926960 105.2951740
  19.9463990  29.6709850 105.9740820  20.0911430  29.1244450 104.5697240
   2.9175380  25.9375900  94.1179510   2.5103460  26.0790490  93.2633110
   3.8088390  25.6536060  93.9150720  18.8737520  26.3839810 102.4551750
  19.0000580  26.1451690 101.5368930  18.9158900  25.5524350 102.9273830
  12.7354260  30.0867810 101.0246560  13.2498930  29.9975820 101.8268990
  11.8923340  30.4327510 101.3174470  14.7108660  30.3723150  90.4530560
  14.5509800  30.0826090  91.3512390  14.5455370  29.5963280  89.9175790
   7.1897040  30.1521680  92.2302180   7.0139520  29.2357220  92.0169980
   6.3352780  30.5108970  92.4699980  14.4134790  27.8810710  89.0128560
  13.7199950  27.8788000  88.3530840  15.1557650  27.4570030  88.5822730
  13.9784720  29.5073420  93.0877050  14.4341670  28.7262800  93.4015670
  14.3177240  30.2180240  93.6318230  18.7261530  18.4372270 103.4201490
  18.1105800  18.9451940 102.8916950  18.4057950  17.5370600 103.3627430
   6.5006040  14.4095640  95.2828360   6.0574190  15.1905180  94.9512880
   7.0591030  14.7325530  95.9899300  10.7875850  17.2764160 100.8863680
  10.3255220  17.4847180 101.6983620  10.3853960  16.4623510 100.5834350
  15.7880360  18.4973110 102.0160340  14.9373950  18.1978860 102.3369410
  15.6282150  18.7415120 101.1044160  12.8830070  19.9974860 104.1159130
  13.2083480  19.1638610 103.7761360  13.6710400  20.5203380 104.2637460
   9.6164860  14.0306340  90.1634190   8.9919040  14.0266210  90.8887500
   9.5294980  13.1637300  89.7670160   8.5381940  14.9542970  97.1417960
   8.8354270  15.8605800  97.0609980   9.0867500  14.4661750  96.5277530
   6.2920260  19.5329210  93.0109610   6.0661180  19.3166380  93.9156230
   5.5112790  19.9657670  92.6655580  13.5218020  19.5392580  91.6100260
  12.9226910  20.2628380  91.4263880  14.0697630  19.4769360  90.8276710
   8.7319470  20.4314790 103.6769880   8.6363070  19.4909520 103.5270280
   9.5751450  20.6529860 103.2817950  12.1282890  18.1756120  93.6403540
  12.5212460  18.4928320  92.8272230  12.4899740  17.2968000  93.7548060
   3.8630010  16.8428460 101.8303660   3.4693400  17.6903670 102.0376440
   3.1748410  16.2054830 102.0212300  10.4375060  16.9263430 104.9000400
   9.7473380  16.7335630 105.5346490  11.1807360  17.2098070 105.4324700
  12.7138030  20.7661870  97.7354320  11.9819150  21.2748680  98.0844420
  12.3162370  19.9491850  97.4343100   9.1515420  17.4416070  96.1406810
   9.1551480  17.0006020  95.2911350  10.0466540  17.7633400  96.2478630
   5.0017800  17.3242560  95.1001020   4.6617850  17.8017790  95.8568070
   4.2395120  16.8707680  94.7402120   9.2135570  18.4428150  89.1313570
   9.3348390  18.4014630  90.0799390   8.8284080  19.3052300  88.9760300
  13.1763940  16.2195550  97.1477260  13.1936680  16.6704200  97.9919110
  12.9279520  15.3201190  97.3610700   8.2257070  20.7529290  88.5296870
   7.6573970  20.3047540  87.9032780   8.9346070  21.1122070  87.9962020
  16.6034690  13.6327730 102.9863640  16.9280460  12.9017390 103.5121620
  16.6391200  13.3141370 102.0844630   3.3026250  24.6541310 102.4063600
   2.9181040  24.0134980 103.0046560   3.6138440  25.3577430 102.9758330
   9.4523390  21.5017850  97.8872220   9.8193520  21.0276420  98.6333560
   9.2628450  22.3759420  98.2280560   2.3163880  16.2461540  94.0165690
   2.0310800  15.8817210  94.8544310   2.2542740  15.5142000  93.4028830
   7.2422760  20.5426490 100.2056430   6.9379830  21.4218470 100.4306790
   8.1969220  20.6026280 100.2413870   5.7704550  24.7487480  90.8023280
   4.9966810  24.2085100  90.6422000   6.4999180  24.2294090  90.4641040
  16.5292530  23.7452840  96.5949670  17.2491650  24.2408130  96.2045780
  16.3274350  23.0670730  95.9503540  11.9902470  15.1390800  90.7379060
  11.1767080  14.6403970  90.6624370  11.7964420  15.9789050  90.3215410
  11.9111330  23.8161900 102.4818670  11.8448640  22.8957570 102.2276260
  11.2816470  23.9137340 103.1963310  14.7050860  19.5110450  89.0341220
  15.5930480  19.8227680  88.8592560  14.6755950  18.6382700  88.6421800
   5.8141950  24.4167860  94.4402090   6.3320620  23.6136120  94.3858980
   5.3625970  24.3547000  95.2818920  10.7011450  25.6834140  89.7129390
  11.0427150  26.4276370  89.2172710   9.8724160  25.9965260  90.0754220
   3.2986490  21.3829230 101.3527790   2.9401430  22.0483080 101.9401130
   3.0041050  20.5512780 101.7240410   6.4999610  21.8413470 104.2367340
   6.1999750  21.9870650 103.3395160   7.2710850  21.2818760 104.1440730
  11.8428060  26.6382470 102.2322470  11.8572600  25.7063430 102.0141380
  11.1353160  26.7242230 102.8712240  16.9765130  20.8222290  88.5021080
  16.8928850  21.2536510  87.6517520  17.6959320  21.2820640  88.9347900
  18.0539270  23.2789810 101.5791050  17.3287460  23.8718590 101.3820440
  18.5814730  23.2713350 100.7804420  18.0052380  27.6764550  91.2303210
  17.3628540  27.0220170  91.5046930  17.6183040  28.0819640  90.4543880
  13.5838860  25.0049980  95.0774900  13.9362680  24.4078110  94.4176270
  12.7001190  24.6794210  95.2483150   9.6702140  25.7647670  92.4845310
  10.3573270  26.3116880  92.8652900   8.8834560  26.3088400  92.5194920
   8.9729350  22.7693700  92.0970670   9.4292130  23.5798950  92.3230860
   8.6217560  22.4516840  92.9289160  11.2761960  28.2800040  99.3262970
  11.9204180  28.4859420 100.0036390  11.6391400  27.5188440  98.8733820
   4.8741130  13.1131350  92.5693190   4.7455760  13.1049250  93.5178110
   4.0503150  13.4514440  92.2184200  12.5494040  26.2832390  98.0440420
  13.1916270  25.5825550  98.1572590  13.0743390  27.0630830  97.8637310
  16.3949760  26.5681010  87.7679560  16.1687340  25.8511450  88.3604200
  16.0045960  26.3193450  86.9301310  14.3231660  27.0827290 101.2476480
  14.6587900  27.6693980 101.9254400  13.4032000  26.9520000 101.4774270
   2.1765790  30.5947870  88.5424020   2.5363430  31.1937210  87.8881290
   2.0358130  31.1407760  89.3159050  15.9766010  24.4852950  89.4293720
  15.6887710  24.9465640  90.2171600  16.7718180  24.0250720  89.6977940
  10.1520240  27.1318620 104.4164540   9.8317110  26.4127860 104.9610230
   9.4778600  27.8073690 104.4900600   8.1934410  27.9779070  89.3597690
   8.1844510  28.7108760  88.7442200   7.2732770  27.7310650  89.4524650
   3.7941050  23.1993960  90.1044450   3.1869000  23.9392860  90.1139750
   4.2690400  23.2893320  89.2782650  13.3673840  17.3644780  99.7801340
  13.7354660  16.5439990 100.1080910  12.5072040  17.4246670 100.1956990
  16.7335870  16.3201720  90.5888900  16.1049030  16.4247390  89.8747130
  16.2387790  16.5398500  91.3782780  11.1794010  28.0407310  88.0222880
  11.2805990  27.8371300  87.0924860  10.2795750  27.7865590  88.2270660
   8.7019900  18.5987670  92.0046780   7.9936050  19.0674010  92.4460390
   8.9864380  17.9409680  92.6391970  10.3275830  20.0184370 100.0039310
  10.8261080  20.4930190 100.6691160  10.4698780  19.0947890 100.2109340
  12.7335330  15.3238330  93.4442570  12.6103110  15.3424460  92.4952080
  13.6819890  15.3717270  93.5640970   9.8212120  30.5593630  92.7170550
  10.0753620  30.5215020  91.7949920   8.8724600  30.4326960  92.7098800
   6.9054920  16.9072750  89.3797490   7.7545450  17.3442900  89.3137680
   6.5386190  17.2193010  90.2069550  17.5342690  16.2352330 100.8467700
  17.0316290  16.9757730 101.1861510  18.3499350  16.6236330 100.5304490
  15.8264700  21.4785510  94.2929060  14.8854840  21.4935740  94.4676750
  16.1408770  20.6921470  94.7389360   5.8046340  23.1605110  87.8533020
   6.5709610  23.0486470  88.4158450   5.8821030  22.4643080  87.2009790
   4.4993100  20.5930180  88.5365910   4.5796690  19.6457690  88.6483310
   5.3912850  20.9237060  88.6426570  17.8290280  28.6494360  95.9683320
  17.9537700  29.4725530  96.4407130  18.6955840  28.4385090  95.6207470
   5.3007810  30.7425570  95.6400450   6.0370290  30.1941030  95.9109020
   5.6848730  31.6081580  95.5006440   4.3066090  29.9271640 104.8286030
   5.1078820  30.2483690 105.2421430   3.7917910  29.5667220 105.5505940
   8.4110120  29.9155880  87.4626020   9.2038730  30.2044710  87.0107810
   7.8914470  29.4848050  86.7838500  13.1430720  26.0351510 104.7761440
  12.5368880  26.0583110 104.0357190  12.8384830  25.3034550 105.3128690
  14.5731090  29.7631800 103.3870850  15.5252840  29.6789820 103.3371090
  14.4259310  30.4273510 104.0604640  17.4640290  29.1426010  88.8862760
  17.1781800  28.7291150  88.0716940  17.2659840  30.0713720  88.7663280
   8.9287520  25.1359290  87.3268370   8.8238160  24.5211640  88.0529750
   8.7611740  24.6125180  86.5431380   9.0801840  23.8216090 103.3057600
   8.3147510  24.3901090 103.2212270   9.2617800  23.5292300 102.4125830
  12.1690250  24.1979320  87.9310360  11.6200350  24.6448620  88.5753100
  12.7909510  23.6928570  88.4548030  16.2225190  25.5521420 103.8632620
  16.9634660  25.8897180 103.3600080  15.4597870  25.7213480 103.3102390
   4.0586980  20.5574690 104.6672150   4.0992320  20.2588560 105.5757380
   4.9132480  20.9582300 104.5079670   7.8365370  23.1570240  89.8275660
   8.2581790  22.9910110  90.6707050   7.9616210  22.3470470  89.3330800
   5.9992790  19.1366790 102.6346640   5.4689250  18.6457740 102.0069980
   6.6680860  19.5650990 102.1004570  10.3493010  22.1807850  87.0752760
  10.8698670  21.4656870  86.7093910  10.9961410  22.8193720  87.3753270
  14.8970850  23.6036250 102.3987830  15.3111870  23.7581330 103.2478250
  13.9621850  23.7291470 102.5613610  15.3693020  20.9432410 104.4026980
  15.9513790  20.1884730 104.3147460  15.5454790  21.4739850 103.6258460
   6.4865090  16.1029160 102.7143930   6.3921960  15.4849910 101.9894800
   5.9062480  16.8295450 102.4873840   9.2526530  14.6602400  99.7471320
   8.8043830  14.6826660  98.9016870   8.6191730  14.2621420 100.3441620
   9.6586080  23.5556730 100.3683760  10.0774190  24.3989460 100.1960000
   8.7394710  23.6928770 100.1390540  11.9949980  21.2872910 101.7521600
  12.1146190  20.6914050 102.4916440  12.8543980  21.3242600 101.3322900
  14.3337880  21.8410100 100.3284110  13.8073100  22.3652720  99.7249250
  14.6769220  22.4737490 100.9593840   6.7324270  19.2303470  86.7733820
   6.5313330  18.3670830  87.1347160   6.5616320  19.1436830  85.8355420
   7.5093500  29.8609740 101.4841490   6.9714590  30.5855800 101.1650190
   7.7627460  29.3840080 100.6938830   8.7618750  17.8294260 103.0097420
   9.3518440  17.5210110 103.6975240   7.9438990  17.3574010 103.1657320
  13.5812180  17.4460070 103.2430440  12.8927700  16.7841610 103.1780430
  14.3018200  16.9998340 103.6878900  14.2112580  14.0411700  89.3020700
  14.4914870  13.1979600  89.6580120  13.4378310  14.2734810  89.8159450
   5.5307070  16.3304090  86.7611700   5.8332970  16.3371520  85.8530850
   6.2701660  15.9801950  87.2579360  10.3655710  31.0960950 101.7428140
  10.2914410  31.9996090 102.0500510   9.4634550  30.7772850 101.7150210
   8.7492000  15.2738710  87.7467900   8.4014000  14.5962700  87.1670350
   8.9504770  14.8128220  88.5611290  10.9141040  30.2619460  89.3654500
  11.8091830  30.6004430  89.3873260  10.9458670  29.5398870  88.7378780
   4.5537200  25.6346510  87.5941500   4.9912070  26.1776180  88.2499080
   5.0384930  24.8093460  87.6037840   1.7683000  28.4235540  95.0461760
   2.0986010  27.5556600  94.8140400   2.1974000  28.6294060  95.8766720
   6.3644920  26.7544550  92.7063730   6.0640460  26.6309520  93.6067640
   6.2582410  25.8953140  92.2979460   2.2573210  29.2906130  97.7843390
   1.8204200  29.4706930  98.6167540   2.8250890  30.0480750  97.6425110
  17.8935390  28.7923130 102.0720700  17.2937380  28.8515690 101.3284620
  18.0229290  27.8528110 102.2017550  19.1336840  26.5340950  87.4090410
  18.3029800  26.6017600  87.8797640  19.3108670  27.4245070  87.1057270
  18.5893300  23.2788430  89.9124610  19.3512210  23.8485080  90.0184300
  18.6047670  22.7115630  90.6832920  19.5953270  24.1338530  94.7566540
  19.9662100  23.3505850  94.3502510  20.2355200  24.8227630  94.5783840
  16.5787030  25.5175110 100.1696860  15.7646870  25.9472270 100.4322650
  16.9861230  26.1293520  99.5565910  18.6412470  23.5722800  87.0697130
  18.9161310  24.4801680  86.9416350  18.4523210  23.5085330  88.0059120
  15.0388080  16.5967650  88.3650760  15.4572960  16.4098630  87.5247420
  14.7324140  15.7446700  88.6753690  18.5377810  21.5091790  92.0626560
  18.1621410  20.7419720  91.6307850  17.8080930  21.8914490  92.5501490
   3.1273570  22.1878930  98.6835610   3.4946610  22.1006330  99.5631630
   2.5584390  21.4245480  98.5842470  17.9277430  20.6563310 101.6966080
  17.6963520  20.4276060 100.7964030  18.1881980  21.5762860 101.6510970
   2.6789570  19.0988020 102.5894030   1.7845620  19.0654780 102.9287740
   3.2187120  19.2974810 103.3545280  16.3665500  15.8819740 104.4745780
  17.2435680  15.8903140 104.8579780  16.3786340  15.1450580 103.8638130
  17.8128770  19.7349280  95.3633800  18.3366250  19.2411930  94.7323970
  18.3988190  19.8699640  96.1081370  17.9918490  19.8189150  98.8853350
  17.0421200  19.7852690  98.9998340  18.1731500  20.7289260  98.6503120
   3.8462930  18.0690830  87.9951980   4.5554630  17.6474050  87.5099260
   3.1302870  18.1366060  87.3635330   3.4937090  14.1230160  87.0354630
   4.2165220  14.6639100  87.3535850   3.7661610  13.8493580  86.1596170
  17.3028740  18.9922630  91.3026210  17.7987860  18.7593500  92.0875090
  17.1044810  18.1534470  90.8863850   3.1829280  13.3736350  96.9377250
   3.8305470  12.8233730  96.4972410   3.6031120  13.6279500  97.7593060
  18.7315900  17.6283580  93.8363890  18.6215180  17.4739620  94.7746160
  19.4923490  17.1004520  93.5939300  17.0781620  13.5677710 100.2946890
  17.7153840  14.1811850 100.6606080  17.2256510  13.6038370  99.3496120
  19.6206170  15.4591500  87.0770030  20.5455480  15.3272680  86.8688320
  19.5981960  15.5384320  88.0306480  19.6944660  16.2302160  89.7026740
  18.8996160  16.1647280  90.2319650  19.8987940  17.1652800  89.6912090
  16.6363080  30.2693710  93.6965130  17.2322150  29.9478280  93.0199550
  16.8941230  29.7965530  94.4878400   2.9361280  13.5292020  99.6802570
   2.5876100  13.9855840 100.4460750   2.6048980  12.6349150  99.7625000
   4.5425650  26.7011620 103.8455760   4.4995280  26.3304530 104.7270220
   4.6736660  27.6389190 103.9857580   8.2431680  28.2571210  99.4465480
   8.0023040  28.5245770  98.5596000   9.1834320  28.4276940  99.5016340
  10.4486100  14.7203900 103.2021990  10.3874990  15.3125730 103.9517400
  11.3886480  14.6129860 103.0572250  13.0860660  14.3773960 102.8414280
  13.7001070  14.6953250 102.1795360  13.6310220  13.8922550 103.4610140
  19.5035840  30.2765590 100.2476120  19.0094120  30.6734460  99.5303250
  18.8949130  29.6514800 100.6413400   3.6081920  13.0568220 102.9553340
   4.1564910  12.8756270 102.1919450   3.6737230  12.2662330 103.4909650
   4.3813680  29.6473870 100.9653540   3.7874000  29.5158570 101.7043580
   4.3737520  28.8112010 100.4995640  13.8268700  12.9406100  99.1683570
  12.9528540  13.2741210  98.9656500  13.7179450  12.4679280  99.9935440
  14.7340680  15.1476970 100.5525290  14.4054040  14.3328730 100.1727020
  15.6822980  15.1046780 100.4290980  17.1875290  30.9189010  97.5262860
  16.7278260  31.6704820  97.1520880  16.5587750  30.1995480  97.4677660
   4.0125910  27.0132250  99.9161580   3.2859970  26.3937540  99.8487530
   4.0735060  27.4072860  99.0459660   7.6171010  29.2277250  96.7010990
   8.1336030  28.6164610  96.1759250   8.2668390  29.7306030  97.1922000
  10.3566510  30.1185740  97.5279970  10.6444320  29.8640040  96.6512980
  10.8689730  29.5663100  98.1185540  11.5743520  13.8575940  98.1076480
  10.7915310  14.3321440  98.3873240  11.2806450  12.9530770  97.9989660
  16.1264590  14.5599040  96.1525570  16.5672680  14.5044140  95.3047170
  15.8572180  15.4757050  96.2235750  17.9903160  14.1914280  94.1634390
  17.9291560  13.2475500  94.0165410  18.7695190  14.2994370  94.7087850
   2.9183930  14.1623420  90.6290200   3.6763290  14.2752300  90.0554230
   2.4561100  14.9992620  90.5833630   9.4597740  16.2762690  93.6192510
   8.6472250  15.9019580  93.2788390   9.9639380  15.5207770  93.9213700
  13.9622720  12.9405140  94.8575580  14.5652090  13.5125350  95.3324100
  13.2215710  13.5044580  94.6349480  17.1057320  13.3426700  90.1315860
  17.3007950  14.2410150  90.3983290  16.3187190  13.1113780  90.6248810
   3.9018610  29.0239870  90.5708480   3.3766230  29.4047900  89.8670440
   3.8263190  29.6490640  91.2918190   5.2909080  14.6887470  89.1692170
   5.8201840  13.9017270  89.0400120   5.9237400  15.3678660  89.4027700
   7.4846920  14.4262610  92.2237560   6.8549660  13.7249920  92.3907690
   6.9452060  15.1866740  92.0070720  10.4238870  31.0401840 104.8948170
  11.3506180  30.8046110 104.9384130  10.4089300  31.8673840 104.4134200
  18.6583930  30.5827410  91.8922420  18.8336120  29.8965150  91.2483340
  17.9605500  31.1074460  91.4999090   7.6102480  13.7046590 104.6590050
   7.3286750  14.2080190 103.8950870   7.9922180  12.9068340 104.2932180
   6.5011580  30.9722250  89.4457730   7.2330400  30.6881530  88.8981620
   6.7605250  30.7335530  90.3357110   5.6626370  27.0886980  89.4504060
   5.0335250  27.5572080  89.9989890   5.7774200  26.2436200  89.8850250
  14.2117940  13.1200170 105.2370520  14.0983390  13.4394780 106.1322040
  15.0287680  13.5212680 104.9407800  16.9916430  30.2671700 104.7189210
  17.7841750  29.7720930 104.5115170  17.2849580  30.9461840 105.3264820
  13.1176090  21.1392640  75.6005260  13.0370140  20.2247250  75.3296970
  12.7040510  21.6359710  74.8944970  11.2494130  22.9171660  77.4814530
  10.4736230  22.4372100  77.7713100  11.9007060  22.2377310  77.3070690
   5.2659960  23.2291470  78.3590290   4.4344840  22.9740180  78.7586800
   5.8740940  23.3002240  79.0948210  15.2701560  27.3231850  76.2613660
  14.8083090  26.5519090  76.5900830  16.0827110  27.3497920  76.7666110
   5.2461220  27.2631560  78.5548310   5.5489260  26.3729300  78.3758530
   5.9904810  27.8201780  78.3270560   3.6751910  18.1893360  72.1432680
   2.7868610  18.5309330  72.0412560   3.9593100  17.9893680  71.2513510
  11.4964870  29.6089860  75.8817650  10.8776310  30.0647360  75.3112090
  12.3516650  29.7641320  75.4807350  10.6903120  25.5928850  77.4884690
  10.6211400  24.6518790  77.3273820  11.4522980  25.6830260  78.0607260
   2.8809790  16.1983370  79.8141310   2.7012630  15.3009120  80.0944070
   2.4789870  16.7455240  80.4888260  11.7208290  18.3999230  77.7153620
  12.0973110  17.5271110  77.6027290  11.6227800  18.7357930  76.8244060
   5.8513300  16.7724860  73.1771060   5.9580050  17.6728590  73.4839820
   4.9405660  16.7242830  72.8865710  15.5032410  15.8949670  74.6481960
  16.3242030  15.4046240  74.6907440  15.5366490  16.4847330  75.4013800
   3.4996460  18.6943870  78.4223650   4.1806570  18.9582240  79.0411050
   3.1844510  17.8544740  78.7561660   7.6921030  19.7411230  77.5096240
   8.1999250  20.2392200  78.1501260   8.2234270  18.9646430  77.3335600
  19.7931960  17.9116420  81.2125590  19.0884130  18.2998130  80.6940700
  20.0589880  18.6066710  81.8146520   5.9757130  14.3809790  81.7759660
   5.9775570  14.8982180  80.9705560   5.1461440  13.9039970  81.7529590
  12.3628220  24.4929100  73.2749560  11.7445490  24.9578550  72.7112280
  12.8751470  25.1856580  73.6919070   7.2259980  24.0204970  79.9533160
   6.8929360  24.6473890  80.5954230   7.4026660  24.5466850  79.1734830
  15.7393890  17.8350050  77.4209500  15.0349460  18.1234940  78.0012610
  16.1006050  18.6450160  77.0609060   5.6572460  16.0919750  79.7830110
   5.9989270  16.9361800  79.4883980   4.7188270  16.2403490  79.8995450
   6.4379080  25.9885770  81.7682340   7.0553080  26.6636850  81.4866790
   5.5772200  26.3973750  81.6769840  17.3556670  27.4525180  79.6836980
  16.6720190  28.1224290  79.6753650  17.8950960  27.6505830  78.9181840
  18.8080810  17.2804840  77.8118710  17.8605720  17.3143820  77.9434140
  19.1330800  18.0943790  78.1968070   9.3400350  13.5802020  76.1074700
   9.6475330  13.0248910  75.3910200   8.4101050  13.7146480  75.9247690
  14.8915410  29.2969310  78.3982160  14.9042570  28.8931600  77.5304420
  14.3390630  30.0716600  78.2943590  16.1860830  26.0185530  73.4872330
  16.0757160  25.0759860  73.6121750  16.1829080  26.3801170  74.3735090
  14.2900850  24.1999150  79.7264770  14.7069640  23.9859260  78.8918230
  15.0140670  24.4571940  80.2973390  11.7281110  21.6450850  72.8434820
  10.8010390  21.5788230  73.0723290  11.8805930  22.5830980  72.7290060
  11.7150190  17.9167850  69.8401980  10.7753860  18.0781810  69.9254440
  12.0333450  18.6353530  69.2937970  18.2362950  22.5986370  79.8181010
  17.4081580  22.6679460  79.3431140  18.8313430  23.1840680  79.3496840
  15.7578400  23.2071150  73.3470070  15.1390820  22.8690700  72.6996370
  15.7402850  22.5630910  74.0549260  15.2004960  19.3855690  80.7635880
  14.7876140  20.2109400  81.0175870  14.4680910  18.8000730  80.5712240
   7.3337750  22.1715590  75.6254550   6.9294750  21.4592840  75.1300450
   7.4200870  21.8268830  76.5142590   7.8019450  25.8583150  77.7893760
   7.5047740  25.2528620  77.1101540   8.7519270  25.8960460  77.6783120
   6.0466370  18.9458800  79.4053590   6.5980960  19.0554140  78.6306840
   6.5609880  19.3196400  80.1208820  15.8905060  29.4315020  81.4516860
  15.4135620  30.2387210  81.2589470  15.2066850  28.7793350  81.6043070
   6.8937880  25.5964840  84.4401560   5.9966410  25.8204810  84.6874960
   6.9190750  25.7199780  83.4912960  13.9343100  22.4457960  70.3542820
  14.3736380  21.6080390  70.2080640  14.6471520  23.0787360  70.4406960
   5.7209100  22.4678160  83.0158930   5.5816870  23.3400960  83.3846330
   4.8390460  22.1250970  82.8706870  12.0438480  27.3854030  74.3224060
  12.4834390  28.1278360  73.9079450  11.9825370  27.6280600  75.2463020
   7.5189450  28.4099860  85.2244080   7.4904880  28.8142810  84.3572510
   7.3554420  27.4810220  85.0615680  17.5160240  13.7000770  68.6683860
  17.2032900  13.7927600  69.5682930  18.2772710  14.2781800  68.6181290
   4.0342380  21.0660570  73.1261200   3.9139980  21.7922660  72.5142470
   3.7243270  20.2963480  72.6489110  19.4704270  29.1926960  86.5208250
  19.9463990  29.6709850  87.1997330  20.0911430  29.1244450  85.7953750
   2.9175380  25.9375900  75.3436020   2.5103460  26.0790490  74.4889620
   3.8088390  25.6536060  75.1407230  18.8737520  26.3839810  83.6808260
  19.0000580  26.1451690  82.7625440  18.9158900  25.5524350  84.1530340
  12.7354260  30.0867810  82.2503070  13.2498930  29.9975820  83.0525500
  11.8923340  30.4327510  82.5430980  14.7108660  30.3723150  71.6787070
  14.5509800  30.0826090  72.5768900  14.5455370  29.5963280  71.1432300
   7.1897040  30.1521680  73.4558690   7.0139520  29.2357220  73.2426490
   6.3352780  30.5108970  73.6956490  14.4134790  27.8810710  70.2385070
  13.7199950  27.8788000  69.5787350  15.1557650  27.4570030  69.8079240
  13.9784720  29.5073420  74.3133560  14.4341670  28.7262800  74.6272180
  14.3177240  30.2180240  74.8574740  18.7261530  18.4372270  84.6458000
  18.1105800  18.9451940  84.1173460  18.4057950  17.5370600  84.5883940
   6.5006040  14.4095640  76.5084870   6.0574190  15.1905180  76.1769390
   7.0591030  14.7325530  77.2155810  10.7875850  17.2764160  82.1120190
  10.3255220  17.4847180  82.9240130  10.3853960  16.4623510  81.8090860
  15.7880360  18.4973110  83.2416850  14.9373950  18.1978860  83.5625920
  15.6282150  18.7415120  82.3300670  12.8830070  19.9974860  85.3415640
  13.2083480  19.1638610  85.0017870  13.6710400  20.5203380  85.4893970
   9.6164860  14.0306340  71.3890700   8.9919040  14.0266210  72.1144010
   9.5294980  13.1637300  70.9926670   8.5381940  14.9542970  78.3674470
   8.8354270  15.8605800  78.2866490   9.0867500  14.4661750  77.7534040
   6.2920260  19.5329210  74.2366120   6.0661180  19.3166380  75.1412740
   5.5112790  19.9657670  73.8912090  13.5218020  19.5392580  72.8356770
  12.9226910  20.2628380  72.6520390  14.0697630  19.4769360  72.0533220
   8.7319470  20.4314790  84.9026390   8.6363070  19.4909520  84.7526790
   9.5751450  20.6529860  84.5074460  12.1282890  18.1756120  74.8660050
  12.5212460  18.4928320  74.0528740  12.4899740  17.2968000  74.9804570
   3.8630010  16.8428460  83.0560170   3.4693400  17.6903670  83.2632950
   3.1748410  16.2054830  83.2468810  10.4375060  16.9263430  86.1256910
   9.7473380  16.7335630  86.7603000  11.1807360  17.2098070  86.6581210
  12.7138030  20.7661870  78.9610830  11.9819150  21.2748680  79.3100930
  12.3162370  19.9491850  78.6599610   9.1515420  17.4416070  77.3663320
   9.1551480  17.0006020  76.5167860  10.0466540  17.7633400  77.4735140
   5.0017800  17.3242560  76.3257530   4.6617850  17.8017790  77.0824580
   4.2395120  16.8707680  75.9658630   9.2135570  18.4428150  70.3570080
   9.3348390  18.4014630  71.3055900   8.8284080  19.3052300  70.2016810
  13.1763940  16.2195550  78.3733770  13.1936680  16.6704200  79.2175620
  12.9279520  15.3201190  78.5867210   8.2257070  20.7529290  69.7553380
   7.6573970  20.3047540  69.1289290   8.9346070  21.1122070  69.2218530
  16.6034690  13.6327730  84.2120150  16.9280460  12.9017390  84.7378130
  16.6391200  13.3141370  83.3101140   3.3026250  24.6541310  83.6320110
   2.9181040  24.0134980  84.2303070   3.6138440  25.3577430  84.2014840
   9.4523390  21.5017850  79.1128730   9.8193520  21.0276420  79.8590070
   9.2628450  22.3759420  79.4537070   2.3163880  16.2461540  75.2422200
   2.0310800  15.8817210  76.0800820   2.2542740  15.5142000  74.6285340
   7.2422760  20.5426490  81.4312940   6.9379830  21.4218470  81.6563300
   8.1969220  20.6026280  81.4670380   5.7704550  24.7487480  72.0279790
   4.9966810  24.2085100  71.8678510   6.4999180  24.2294090  71.6897550
  16.5292530  23.7452840  77.8206180  17.2491650  24.2408130  77.4302290
  16.3274350  23.0670730  77.1760050  11.9902470  15.1390800  71.9635570
  11.1767080  14.6403970  71.8880880  11.7964420  15.9789050  71.5471920
  11.9111330  23.8161900  83.7075180  11.8448640  22.8957570  83.4532770
  11.2816470  23.9137340  84.4219820  14.7050860  19.5110450  70.2597730
  15.5930480  19.8227680  70.0849070  14.6755950  18.6382700  69.8678310
   5.8141950  24.4167860  75.6658600   6.3320620  23.6136120  75.6115490
   5.3625970  24.3547000  76.5075430  10.7011450  25.6834140  70.9385900
  11.0427150  26.4276370  70.4429220   9.8724160  25.9965260  71.3010730
   3.2986490  21.3829230  82.5784300   2.9401430  22.0483080  83.1657640
   3.0041050  20.5512780  82.9496920   6.4999610  21.8413470  85.4623850
   6.1999750  21.9870650  84.5651670   7.2710850  21.2818760  85.3697240
  11.8428060  26.6382470  83.4578980  11.8572600  25.7063430  83.2397890
  11.1353160  26.7242230  84.0968750  16.9765130  20.8222290  69.7277590
  16.8928850  21.2536510  68.8774030  17.6959320  21.2820640  70.1604410
  18.0539270  23.2789810  82.8047560  17.3287460  23.8718590  82.6076950
  18.5814730  23.2713350  82.0060930  18.0052380  27.6764550  72.4559720
  17.3628540  27.0220170  72.7303440  17.6183040  28.0819640  71.6800390
  13.5838860  25.0049980  76.3031410  13.9362680  24.4078110  75.6432780
  12.7001190  24.6794210  76.4739660   9.6702140  25.7647670  73.7101820
  10.3573270  26.3116880  74.0909410   8.8834560  26.3088400  73.7451430
   8.9729350  22.7693700  73.3227180   9.4292130  23.5798950  73.5487370
   8.6217560  22.4516840  74.1545670  11.2761960  28.2800040  80.5519480
  11.9204180  28.4859420  81.2292900  11.6391400  27.5188440  80.0990330
   4.8741130  13.1131350  73.7949700   4.7455760  13.1049250  74.7434620
   4.0503150  13.4514440  73.4440710  12.5494040  26.2832390  79.2696930
  13.1916270  25.5825550  79.3829100  13.0743390  27.0630830  79.0893820
  16.3949760  26.5681010  68.9936070  16.1687340  25.8511450  69.5860710
  16.0045960  26.3193450  68.1557820  14.3231660  27.0827290  82.4732990
  14.6587900  27.6693980  83.1510910  13.4032000  26.9520000  82.7030780
   2.1765790  30.5947870  69.7680530   2.5363430  31.1937210  69.1137800
   2.0358130  31.1407760  70.5415560  15.9766010  24.4852950  70.6550230
  15.6887710  24.9465640  71.4428110  16.7718180  24.0250720  70.9234450
  10.1520240  27.1318620  85.6421050   9.8317110  26.4127860  86.1866740
   9.4778600  27.8073690  85.7157110   8.1934410  27.9779070  70.5854200
   8.1844510  28.7108760  69.9698710   7.2732770  27.7310650  70.6781160
   3.7941050  23.1993960  71.3300960   3.1869000  23.9392860  71.3396260
   4.2690400  23.2893320  70.5039160  13.3673840  17.3644780  81.0057850
  13.7354660  16.5439990  81.3337420  12.5072040  17.4246670  81.4213500
  16.7335870  16.3201720  71.8145410  16.1049030  16.4247390  71.1003640
  16.2387790  16.5398500  72.6039290  11.1794010  28.0407310  69.2479390
  11.2805990  27.8371300  68.3181370  10.2795750  27.7865590  69.4527170
   8.7019900  18.5987670  73.2303290   7.9936050  19.0674010  73.6716900
   8.9864380  17.9409680  73.8648480  10.3275830  20.0184370  81.2295820
  10.8261080  20.4930190  81.8947670  10.4698780  19.0947890  81.4365850
  12.7335330  15.3238330  74.6699080  12.6103110  15.3424460  73.7208590
  13.6819890  15.3717270  74.7897480   9.8212120  30.5593630  73.9427060
  10.0753620  30.5215020  73.0206430   8.8724600  30.4326960  73.9355310
   6.9054920  16.9072750  70.6054000   7.7545450  17.3442900  70.5394190
   6.5386190  17.2193010  71.4326060  17.5342690  16.2352330  82.0724210
  17.0316290  16.9757730  82.4118020  18.3499350  16.6236330  81.7561000
  15.8264700  21.4785510  75.5185570  14.8854840  21.4935740  75.6933260
  16.1408770  20.6921470  75.9645870   5.8046340  23.1605110  69.0789530
   6.5709610  23.0486470  69.6414960   5.8821030  22.4643080  68.4266300
   4.4993100  20.5930180  69.7622420   4.5796690  19.6457690  69.8739820
   5.3912850  20.9237060  69.8683080  17.8290280  28.6494360  77.1939830
  17.9537700  29.4725530  77.6663640  18.6955840  28.4385090  76.8463980
   5.3007810  30.7425570  76.8656960   6.0370290  30.1941030  77.1365530
   5.6848730  31.6081580  76.7262950   4.3066090  29.9271640  86.0542540
   5.1078820  30.2483690  86.4677940   3.7917910  29.5667220  86.7762450
   8.4110120  29.9155880  68.6882530   9.2038730  30.2044710  68.2364320
   7.8914470  29.4848050  68.0095010  13.1430720  26.0351510  86.0017950
  12.5368880  26.0583110  85.2613700  12.8384830  25.3034550  86.5385200
  14.5731090  29.7631800  84.6127360  15.5252840  29.6789820  84.5627600
  14.4259310  30.4273510  85.2861150  17.4640290  29.1426010  70.1119270
  17.1781800  28.7291150  69.2973450  17.2659840  30.0713720  69.9919790
   8.9287520  25.1359290  68.5524880   8.8238160  24.5211640  69.2786260
   8.7611740  24.6125180  67.7687890   9.0801840  23.8216090  84.5314110
   8.3147510  24.3901090  84.4468780   9.2617800  23.5292300  83.6382340
  12.1690250  24.1979320  69.1566870  11.6200350  24.6448620  69.8009610
  12.7909510  23.6928570  69.6804540  16.2225190  25.5521420  85.0889130
  16.9634660  25.8897180  84.5856590  15.4597870  25.7213480  84.5358900
   4.0586980  20.5574690  85.8928660   4.0992320  20.2588560  86.8013890
   4.9132480  20.9582300  85.7336180   7.8365370  23.1570240  71.0532170
   8.2581790  22.9910110  71.8963560   7.9616210  22.3470470  70.5587310
   5.9992790  19.1366790  83.8603150   5.4689250  18.6457740  83.2326490
   6.6680860  19.5650990  83.3261080  10.3493010  22.1807850  68.3009270
  10.8698670  21.4656870  67.9350420  10.9961410  22.8193720  68.6009780
  14.8970850  23.6036250  83.6244340  15.3111870  23.7581330  84.4734760
  13.9621850  23.7291470  83.7870120  15.3693020  20.9432410  85.6283490
  15.9513790  20.1884730  85.5403970  15.5454790  21.4739850  84.8514970
   6.4865090  16.1029160  83.9400440   6.3921960  15.4849910  83.2151310
   5.9062480  16.8295450  83.7130350   9.2526530  14.6602400  80.9727830
   8.8043830  14.6826660  80.1273380   8.6191730  14.2621420  81.5698130
   9.6586080  23.5556730  81.5940270  10.0774190  24.3989460  81.4216510
   8.7394710  23.6928770  81.3647050  11.9949980  21.2872910  82.9778110
  12.1146190  20.6914050  83.7172950  12.8543980  21.3242600  82.5579410
  14.3337880  21.8410100  81.5540620  13.8073100  22.3652720  80.9505760
  14.6769220  22.4737490  82.1850350   6.7324270  19.2303470  67.9990330
   6.5313330  18.3670830  68.3603670   6.5616320  19.1436830  67.0611930
   7.5093500  29.8609740  82.7098000   6.9714590  30.5855800  82.3906700
   7.7627460  29.3840080  81.9195340   8.7618750  17.8294260  84.2353930
   9.3518440  17.5210110  84.9231750   7.9438990  17.3574010  84.3913830
  13.5812180  17.4460070  84.4686950  12.8927700  16.7841610  84.4036940
  14.3018200  16.9998340  84.9135410  14.2112580  14.0411700  70.5277210
  14.4914870  13.1979600  70.8836630  13.4378310  14.2734810  71.0415960
   5.5307070  16.3304090  67.9868210   5.8332970  16.3371520  67.0787360
   6.2701660  15.9801950  68.4835870  10.3655710  31.0960950  82.9684650
  10.2914410  31.9996090  83.2757020   9.4634550  30.7772850  82.9406720
   8.7492000  15.2738710  68.9724410   8.4014000  14.5962700  68.3926860
   8.9504770  14.8128220  69.7867800  10.9141040  30.2619460  70.5911010
  11.8091830  30.6004430  70.6129770  10.9458670  29.5398870  69.9635290
   4.5537200  25.6346510  68.8198010   4.9912070  26.1776180  69.4755590
   5.0384930  24.8093460  68.8294350   1.7683000  28.4235540  76.2718270
   2.0986010  27.5556600  76.0396910   2.1974000  28.6294060  77.1023230
   6.3644920  26.7544550  73.9320240   6.0640460  26.6309520  74.8324150
   6.2582410  25.8953140  73.5235970   2.2573210  29.2906130  79.0099900
   1.8204200  29.4706930  79.8424050   2.8250890  30.0480750  78.8681620
  17.8935390  28.7923130  83.2977210  17.2937380  28.8515690  82.5541130
  18.0229290  27.8528110  83.4274060  19.1336840  26.5340950  68.6346920
  18.3029800  26.6017600  69.1054150  19.3108670  27.4245070  68.3313780
  18.5893300  23.2788430  71.1381120  19.3512210  23.8485080  71.2440810
  18.6047670  22.7115630  71.9089430  19.5953270  24.1338530  75.9823050
  19.9662100  23.3505850  75.5759020  20.2355200  24.8227630  75.8040350
  16.5787030  25.5175110  81.3953370  15.7646870  25.9472270  81.6579160
  16.9861230  26.1293520  80.7822420  18.6412470  23.5722800  68.2953640
  18.9161310  24.4801680  68.1672860  18.4523210  23.5085330  69.2315630
  15.0388080  16.5967650  69.5907270  15.4572960  16.4098630  68.7503930
  14.7324140  15.7446700  69.9010200  18.5377810  21.5091790  73.2883070
  18.1621410  20.7419720  72.8564360  17.8080930  21.8914490  73.7758000
   3.1273570  22.1878930  79.9092120   3.4946610  22.1006330  80.7888140
   2.5584390  21.4245480  79.8098980  17.9277430  20.6563310  82.9222590
  17.6963520  20.4276060  82.0220540  18.1881980  21.5762860  82.8767480
   2.6789570  19.0988020  83.8150540   1.7845620  19.0654780  84.1544250
   3.2187120  19.2974810  84.5801790  16.3665500  15.8819740  85.7002290
  17.2435680  15.8903140  86.0836290  16.3786340  15.1450580  85.0894640
  17.8128770  19.7349280  76.5890310  18.3366250  19.2411930  75.9580480
  18.3988190  19.8699640  77.3337880  17.9918490  19.8189150  80.1109860
  17.0421200  19.7852690  80.2254850  18.1731500  20.7289260  79.8759630
   3.8462930  18.0690830  69.2208490   4.5554630  17.6474050  68.7355770
   3.1302870  18.1366060  68.5891840   3.4937090  14.1230160  68.2611140
   4.2165220  14.6639100  68.5792360   3.7661610  13.8493580  67.3852680
  17.3028740  18.9922630  72.5282720  17.7987860  18.7593500  73.3131600
  17.1044810  18.1534470  72.1120360   3.1829280  13.3736350  78.1633760
   3.8305470  12.8233730  77.7228920   3.6031120  13.6279500  78.9849570
  18.7315900  17.6283580  75.0620400  18.6215180  17.4739620  76.0002670
  19.4923490  17.1004520  74.8195810  17.0781620  13.5677710  81.5203400
  17.7153840  14.1811850  81.8862590  17.2256510  13.6038370  80.5752630
  19.6206170  15.4591500  68.3026540  20.5455480  15.3272680  68.0944830
  19.5981960  15.5384320  69.2562990  19.6944660  16.2302160  70.9283250
  18.8996160  16.1647280  71.4576160  19.8987940  17.1652800  70.9168600
  16.6363080  30.2693710  74.9221640  17.2322150  29.9478280  74.2456060
  16.8941230  29.7965530  75.7134910   2.9361280  13.5292020  80.9059080
   2.5876100  13.9855840  81.6717260   2.6048980  12.6349150  80.9881510
   4.5425650  26.7011620  85.0712270   4.4995280  26.3304530  85.9526730
   4.6736660  27.6389190  85.2114090   8.2431680  28.2571210  80.6721990
   8.0023040  28.5245770  79.7852510   9.1834320  28.4276940  80.7272850
  10.4486100  14.7203900  84.4278500  10.3874990  15.3125730  85.1773910
  11.3886480  14.6129860  84.2828760  13.0860660  14.3773960  84.0670790
  13.7001070  14.6953250  83.4051870  13.6310220  13.8922550  84.6866650
  19.5035840  30.2765590  81.4732630  19.0094120  30.6734460  80.7559760
  18.8949130  29.6514800  81.8669910   3.6081920  13.0568220  84.1809850
   4.1564910  12.8756270  83.4175960   3.6737230  12.2662330  84.7166160
   4.3813680  29.6473870  82.1910050   3.7874000  29.5158570  82.9300090
   4.3737520  28.8112010  81.7252150  13.8268700  12.9406100  80.3940080
  12.9528540  13.2741210  80.1913010  13.7179450  12.4679280  81.2191950
  14.7340680  15.1476970  81.7781800  14.4054040  14.3328730  81.3983530
  15.6822980  15.1046780  81.6547490  17.1875290  30.9189010  78.7519370
  16.7278260  31.6704820  78.3777390  16.5587750  30.1995480  78.6934170
   4.0125910  27.0132250  81.1418090   3.2859970  26.3937540  81.0744040
   4.0735060  27.4072860  80.2716170   7.6171010  29.2277250  77.9267500
   8.1336030  28.6164610  77.4015760   8.2668390  29.7306030  78.4178510
  10.3566510  30.1185740  78.7536480  10.6444320  29.8640040  77.8769490
  10.8689730  29.5663100  79.3442050  11.5743520  13.8575940  79.3332990
  10.7915310  14.3321440  79.6129750  11.2806450  12.9530770  79.2246170
  16.1264590  14.5599040  77.3782080  16.5672680  14.5044140  76.5303680
  15.8572180  15.4757050  77.4492260  17.9903160  14.1914280  75.3890900
  17.9291560  13.2475500  75.2421920  18.7695190  14.2994370  75.9344360
   2.9183930  14.1623420  71.8546710   3.6763290  14.2752300  71.2810740
   2.4561100  14.9992620  71.8090140   9.4597740  16.2762690  74.8449020
   8.6472250  15.9019580  74.5044900   9.9639380  15.5207770  75.1470210
  13.9622720  12.9405140  76.0832090  14.5652090  13.5125350  76.5580610
  13.2215710  13.5044580  75.8605990  17.1057320  13.3426700  71.3572370
  17.3007950  14.2410150  71.6239800  16.3187190  13.1113780  71.8505320
   3.9018610  29.0239870  71.7964990   3.3766230  29.4047900  71.0926950
   3.8263190  29.6490640  72.5174700   5.2909080  14.6887470  70.3948680
   5.8201840  13.9017270  70.2656630   5.9237400  15.3678660  70.6284210
   7.4846920  14.4262610  73.4494070   6.8549660  13.7249920  73.6164200
   6.9452060  15.1866740  73.2327230  10.4238870  31.0401840  86.1204680
  11.3506180  30.8046110  86.1640640  10.4089300  31.8673840  85.6390710
  18.6583930  30.5827410  73.1178930  18.8336120  29.8965150  72.4739850
  17.9605500  31.1074460  72.7255600   7.6102480  13.7046590  85.8846560
   7.3286750  14.2080190  85.1207380   7.9922180  12.9068340  85.5188690
   6.5011580  30.9722250  70.6714240   7.2330400  30.6881530  70.1238130
   6.7605250  30.7335530  71.5613620   5.6626370  27.0886980  70.6760570
   5.0335250  27.5572080  71.2246400   5.7774200  26.2436200  71.1106760
  14.2117940  13.1200170  86.4627030  14.0983390  13.4394780  87.3578550
  15.0287680  13.5212680  86.1664310  16.9916430  30.2671700  85.9445720
  17.7841750  29.7720930  85.7371680  17.2849580  30.9461840  86.5521330
  13.1176090  21.1392640  56.8261770  13.0370140  20.2247250  56.5553480
  12.7040510  21.6359710  56.1201480  11.2494130  22.9171660  58.7071040
  10.4736230  22.4372100  58.9969610  11.9007060  22.2377310  58.5327200
   5.2659960  23.2291470  59.5846800   4.4344840  22.9740180  59.9843310
   5.8740940  23.3002240  60.3204720  15.2701560  27.3231850  57.4870170
  14.8083090  26.5519090  57.8157340  16.0827110  27.3497920  57.9922620
   5.2461220  27.2631560  59.7804820   5.5489260  26.3729300  59.6015040
   5.9904810  27.8201780  59.5527070   3.6751910  18.1893360  53.3689190
   2.7868610  18.5309330  53.2669070   3.9593100  17.9893680  52.4770020
  11.4964870  29.6089860  57.1074160  10.8776310  30.0647360  56.5368600
  12.3516650  29.7641320  56.7063860  10.6903120  25.5928850  58.7141200
  10.6211400  24.6518790  58.5530330  11.4522980  25.6830260  59.2863770
   2.8809790  16.1983370  61.0397820   2.7012630  15.3009120  61.3200580
   2.4789870  16.7455240  61.7144770  11.7208290  18.3999230  58.9410130
  12.0973110  17.5271110  58.8283800  11.6227800  18.7357930  58.0500570
   5.8513300  16.7724860  54.4027570   5.9580050  17.6728590  54.7096330
   4.9405660  16.7242830  54.1122220  15.5032410  15.8949670  55.8738470
  16.3242030  15.4046240  55.9163950  15.5366490  16.4847330  56.6270310
   3.4996460  18.6943870  59.6480160   4.1806570  18.9582240  60.2667560
   3.1844510  17.8544740  59.9818170   7.6921030  19.7411230  58.7352750
   8.1999250  20.2392200  59.3757770   8.2234270  18.9646430  58.5592110
  19.7931960  17.9116420  62.4382100  19.0884130  18.2998130  61.9197210
  20.0589880  18.6066710  63.0403030   5.9757130  14.3809790  63.0016170
   5.9775570  14.8982180  62.1962070   5.1461440  13.9039970  62.9786100
  12.3628220  24.4929100  54.5006070  11.7445490  24.9578550  53.9368790
  12.8751470  25.1856580  54.9175580   7.2259980  24.0204970  61.1789670
   6.8929360  24.6473890  61.8210740   7.4026660  24.5466850  60.3991340
  15.7393890  17.8350050  58.6466010  15.0349460  18.1234940  59.2269120
  16.1006050  18.6450160  58.2865570   5.6572460  16.0919750  61.0086620
   5.9989270  16.9361800  60.7140490   4.7188270  16.2403490  61.1251960
   6.4379080  25.9885770  62.9938850   7.0553080  26.6636850  62.7123300
   5.5772200  26.3973750  62.9026350  17.3556670  27.4525180  60.9093490
  16.6720190  28.1224290  60.9010160  17.8950960  27.6505830  60.1438350
  18.8080810  17.2804840  59.0375220  17.8605720  17.3143820  59.1690650
  19.1330800  18.0943790  59.4224580   9.3400350  13.5802020  57.3331210
   9.6475330  13.0248910  56.6166710   8.4101050  13.7146480  57.1504200
  14.8915410  29.2969310  59.6238670  14.9042570  28.8931600  58.7560930
  14.3390630  30.0716600  59.5200100  16.1860830  26.0185530  54.7128840
  16.0757160  25.0759860  54.8378260  16.1829080  26.3801170  55.5991600
  14.2900850  24.1999150  60.9521280  14.7069640  23.9859260  60.1174740
  15.0140670  24.4571940  61.5229900  11.7281110  21.6450850  54.0691330
  10.8010390  21.5788230  54.2979800  11.8805930  22.5830980  53.9546570
  11.7150190  17.9167850  51.0658490  10.7753860  18.0781810  51.1510950
  12.0333450  18.6353530  50.5194480  18.2362950  22.5986370  61.0437520
  17.4081580  22.6679460  60.5687650  18.8313430  23.1840680  60.5753350
  15.7578400  23.2071150  54.5726580  15.1390820  22.8690700  53.9252880
  15.7402850  22.5630910  55.2805770  15.2004960  19.3855690  61.9892390
  14.7876140  20.2109400  62.2432380  14.4680910  18.8000730  61.7968750
   7.3337750  22.1715590  56.8511060   6.9294750  21.4592840  56.3556960
   7.4200870  21.8268830  57.7399100   7.8019450  25.8583150  59.0150270
   7.5047740  25.2528620  58.3358050   8.7519270  25.8960460  58.9039630
   6.0466370  18.9458800  60.6310100   6.5980960  19.0554140  59.8563350
   6.5609880  19.3196400  61.3465330  15.8905060  29.4315020  62.6773370
  15.4135620  30.2387210  62.4845980  15.2066850  28.7793350  62.8299580
   6.8937880  25.5964840  65.6658070   5.9966410  25.8204810  65.9131470
   6.9190750  25.7199780  64.7169470  13.9343100  22.4457960  51.5799330
  14.3736380  21.6080390  51.4337150  14.6471520  23.0787360  51.6663470
   5.7209100  22.4678160  64.2415440   5.5816870  23.3400960  64.6102840
   4.8390460  22.1250970  64.0963380  12.0438480  27.3854030  55.5480570
  12.4834390  28.1278360  55.1335960  11.9825370  27.6280600  56.4719530
   7.5189450  28.4099860  66.4500590   7.4904880  28.8142810  65.5829020
   7.3554420  27.4810220  66.2872190  17.5160240  13.7000770  49.8940370
  17.2032900  13.7927600  50.7939440  18.2772710  14.2781800  49.8437800
   4.0342380  21.0660570  54.3517710   3.9139980  21.7922660  53.7398980
   3.7243270  20.2963480  53.8745620  19.4704270  29.1926960  67.7464760
  19.9463990  29.6709850  68.4253840  20.0911430  29.1244450  67.0210260
   2.9175380  25.9375900  56.5692530   2.5103460  26.0790490  55.7146130
   3.8088390  25.6536060  56.3663740  18.8737520  26.3839810  64.9064770
  19.0000580  26.1451690  63.9881950  18.9158900  25.5524350  65.3786850
  12.7354260  30.0867810  63.4759580  13.2498930  29.9975820  64.2782010
  11.8923340  30.4327510  63.7687490  14.7108660  30.3723150  52.9043580
  14.5509800  30.0826090  53.8025410  14.5455370  29.5963280  52.3688810
   7.1897040  30.1521680  54.6815200   7.0139520  29.2357220  54.4683000
   6.3352780  30.5108970  54.9213000  14.4134790  27.8810710  51.4641580
  13.7199950  27.8788000  50.8043860  15.1557650  27.4570030  51.0335750
  13.9784720  29.5073420  55.5390070  14.4341670  28.7262800  55.8528690
  14.3177240  30.2180240  56.0831250  18.7261530  18.4372270  65.8714510
  18.1105800  18.9451940  65.3429970  18.4057950  17.5370600  65.8140450
   6.5006040  14.4095640  57.7341380   6.0574190  15.1905180  57.4025900
   7.0591030  14.7325530  58.4412320  10.7875850  17.2764160  63.3376700
  10.3255220  17.4847180  64.1496640  10.3853960  16.4623510  63.0347370
  15.7880360  18.4973110  64.4673360  14.9373950  18.1978860  64.7882430
  15.6282150  18.7415120  63.5557180  12.8830070  19.9974860  66.5672150
  13.2083480  19.1638610  66.2274380  13.6710400  20.5203380  66.7150480
   9.6164860  14.0306340  52.6147210   8.9919040  14.0266210  53.3400520
   9.5294980  13.1637300  52.2183180   8.5381940  14.9542970  59.5930980
   8.8354270  15.8605800  59.5123000   9.0867500  14.4661750  58.9790550
   6.2920260  19.5329210  55.4622630   6.0661180  19.3166380  56.3669250
   5.5112790  19.9657670  55.1168600  13.5218020  19.5392580  54.0613280
  12.9226910  20.2628380  53.8776900  14.0697630  19.4769360  53.2789730
   8.7319470  20.4314790  66.1282900   8.6363070  19.4909520  65.9783300
   9.5751450  20.6529860  65.7330970  12.1282890  18.1756120  56.0916560
  12.5212460  18.4928320  55.2785250  12.4899740  17.2968000  56.2061080
   3.8630010  16.8428460  64.2816680   3.4693400  17.6903670  64.4889460
   3.1748410  16.2054830  64.4725320  10.4375060  16.9263430  67.3513420
   9.7473380  16.7335630  67.9859510  11.1807360  17.2098070  67.8837720
  12.7138030  20.7661870  60.1867340  11.9819150  21.2748680  60.5357440
  12.3162370  19.9491850  59.8856120   9.1515420  17.4416070  58.5919830
   9.1551480  17.0006020  57.7424370  10.0466540  17.7633400  58.6991650
   5.0017800  17.3242560  57.5514040   4.6617850  17.8017790  58.3081090
   4.2395120  16.8707680  57.1915140   9.2135570  18.4428150  51.5826590
   9.3348390  18.4014630  52.5312410   8.8284080  19.3052300  51.4273320
  13.1763940  16.2195550  59.5990280  13.1936680  16.6704200  60.4432130
  12.9279520  15.3201190  59.8123720   8.2257070  20.7529290  50.9809890
   7.6573970  20.3047540  50.3545800   8.9346070  21.1122070  50.4475040
  16.6034690  13.6327730  65.4376660  16.9280460  12.9017390  65.9634640
  16.6391200  13.3141370  64.5357650   3.3026250  24.6541310  64.8576620
   2.9181040  24.0134980  65.4559580   3.6138440  25.3577430  65.4271350
   9.4523390  21.5017850  60.3385240   9.8193520  21.0276420  61.0846580
   9.2628450  22.3759420  60.6793580   2.3163880  16.2461540  56.4678710
   2.0310800  15.8817210  57.3057330   2.2542740  15.5142000  55.8541850
   7.2422760  20.5426490  62.6569450   6.9379830  21.4218470  62.8819810
   8.1969220  20.6026280  62.6926890   5.7704550  24.7487480  53.2536300
   4.9966810  24.2085100  53.0935020   6.4999180  24.2294090  52.9154060
  16.5292530  23.7452840  59.0462690  17.2491650  24.2408130  58.6558800
  16.3274350  23.0670730  58.4016560  11.9902470  15.1390800  53.1892080
  11.1767080  14.6403970  53.1137390  11.7964420  15.9789050  52.7728430
  11.9111330  23.8161900  64.9331690  11.8448640  22.8957570  64.6789280
  11.2816470  23.9137340  65.6476330  14.7050860  19.5110450  51.4854240
  15.5930480  19.8227680  51.3105580  14.6755950  18.6382700  51.0934820
   5.8141950  24.4167860  56.8915110   6.3320620  23.6136120  56.8372000
   5.3625970  24.3547000  57.7331940  10.7011450  25.6834140  52.1642410
  11.0427150  26.4276370  51.6685730   9.8724160  25.9965260  52.5267240
   3.2986490  21.3829230  63.8040810   2.9401430  22.0483080  64.3914150
   3.0041050  20.5512780  64.1753430   6.4999610  21.8413470  66.6880360
   6.1999750  21.9870650  65.7908180   7.2710850  21.2818760  66.5953750
  11.8428060  26.6382470  64.6835490  11.8572600  25.7063430  64.4654400
  11.1353160  26.7242230  65.3225260  16.9765130  20.8222290  50.9534100
  16.8928850  21.2536510  50.1030540  17.6959320  21.2820640  51.3860920
  18.0539270  23.2789810  64.0304070  17.3287460  23.8718590  63.8333460
  18.5814730  23.2713350  63.2317440  18.0052380  27.6764550  53.6816230
  17.3628540  27.0220170  53.9559950  17.6183040  28.0819640  52.9056900
  13.5838860  25.0049980  57.5287920  13.9362680  24.4078110  56.8689290
  12.7001190  24.6794210  57.6996170   9.6702140  25.7647670  54.9358330
  10.3573270  26.3116880  55.3165920   8.8834560  26.3088400  54.9707940
   8.9729350  22.7693700  54.5483690   9.4292130  23.5798950  54.7743880
   8.6217560  22.4516840  55.3802180  11.2761960  28.2800040  61.7775990
  11.9204180  28.4859420  62.4549410  11.6391400  27.5188440  61.3246840
   4.8741130  13.1131350  55.0206210   4.7455760  13.1049250  55.9691130
   4.0503150  13.4514440  54.6697220  12.5494040  26.2832390  60.4953440
  13.1916270  25.5825550  60.6085610  13.0743390  27.0630830  60.3150330
  16.3949760  26.5681010  50.2192580  16.1687340  25.8511450  50.8117220
  16.0045960  26.3193450  49.3814330  14.3231660  27.0827290  63.6989500
  14.6587900  27.6693980  64.3767420  13.4032000  26.9520000  63.9287290
   2.1765790  30.5947870  50.9937040   2.5363430  31.1937210  50.3394310
   2.0358130  31.1407760  51.7672070  15.9766010  24.4852950  51.8806740
  15.6887710  24.9465640  52.6684620  16.7718180  24.0250720  52.1490960
  10.1520240  27.1318620  66.8677560   9.8317110  26.4127860  67.4123250
   9.4778600  27.8073690  66.9413620   8.1934410  27.9779070  51.8110710
   8.1844510  28.7108760  51.1955220   7.2732770  27.7310650  51.9037670
   3.7941050  23.1993960  52.5557470   3.1869000  23.9392860  52.5652770
   4.2690400  23.2893320  51.7295670  13.3673840  17.3644780  62.2314360
  13.7354660  16.5439990  62.5593930  12.5072040  17.4246670  62.6470010
  16.7335870  16.3201720  53.0401920  16.1049030  16.4247390  52.3260150
  16.2387790  16.5398500  53.8295800  11.1794010  28.0407310  50.4735900
  11.2805990  27.8371300  49.5437880  10.2795750  27.7865590  50.6783680
   8.7019900  18.5987670  54.4559800   7.9936050  19.0674010  54.8973410
   8.9864380  17.9409680  55.0904990  10.3275830  20.0184370  62.4552330
  10.8261080  20.4930190  63.1204180  10.4698780  19.0947890  62.6622360
  12.7335330  15.3238330  55.8955590  12.6103110  15.3424460  54.9465100
  13.6819890  15.3717270  56.0153990   9.8212120  30.5593630  55.1683570
  10.0753620  30.5215020  54.2462940   8.8724600  30.4326960  55.1611820
   6.9054920  16.9072750  51.8310510   7.7545450  17.3442900  51.7650700
   6.5386190  17.2193010  52.6582570  17.5342690  16.2352330  63.2980720
  17.0316290  16.9757730  63.6374530  18.3499350  16.6236330  62.9817510
  15.8264700  21.4785510  56.7442080  14.8854840  21.4935740  56.9189770
  16.1408770  20.6921470  57.1902380   5.8046340  23.1605110  50.3046040
   6.5709610  23.0486470  50.8671470   5.8821030  22.4643080  49.6522810
   4.4993100  20.5930180  50.9878930   4.5796690  19.6457690  51.0996330
   5.3912850  20.9237060  51.0939590  17.8290280  28.6494360  58.4196340
  17.9537700  29.4725530  58.8920150  18.6955840  28.4385090  58.0720490
   5.3007810  30.7425570  58.0913470   6.0370290  30.1941030  58.3622040
   5.6848730  31.6081580  57.9519460   4.3066090  29.9271640  67.2799050
   5.1078820  30.2483690  67.6934450   3.7917910  29.5667220  68.0018960
   8.4110120  29.9155880  49.9139040   9.2038730  30.2044710  49.4620830
   7.8914470  29.4848050  49.2351520  13.1430720  26.0351510  67.2274460
  12.5368880  26.0583110  66.4870210  12.8384830  25.3034550  67.7641710
  14.5731090  29.7631800  65.8383870  15.5252840  29.6789820  65.7884110
  14.4259310  30.4273510  66.5117660  17.4640290  29.1426010  51.3375780
  17.1781800  28.7291150  50.5229960  17.2659840  30.0713720  51.2176300
   8.9287520  25.1359290  49.7781390   8.8238160  24.5211640  50.5042770
   8.7611740  24.6125180  48.9944400   9.0801840  23.8216090  65.7570620
   8.3147510  24.3901090  65.6725290   9.2617800  23.5292300  64.8638850
  12.1690250  24.1979320  50.3823380  11.6200350  24.6448620  51.0266120
  12.7909510  23.6928570  50.9061050  16.2225190  25.5521420  66.3145640
  16.9634660  25.8897180  65.8113100  15.4597870  25.7213480  65.7615410
   4.0586980  20.5574690  67.1185170   4.0992320  20.2588560  68.0270400
   4.9132480  20.9582300  66.9592690   7.8365370  23.1570240  52.2788680
   8.2581790  22.9910110  53.1220070   7.9616210  22.3470470  51.7843820
   5.9992790  19.1366790  65.0859660   5.4689250  18.6457740  64.4583000
   6.6680860  19.5650990  64.5517590  10.3493010  22.1807850  49.5265780
  10.8698670  21.4656870  49.1606930  10.9961410  22.8193720  49.8266290
  14.8970850  23.6036250  64.8500850  15.3111870  23.7581330  65.6991270
  13.9621850  23.7291470  65.0126630  15.3693020  20.9432410  66.8540000
  15.9513790  20.1884730  66.7660480  15.5454790  21.4739850  66.0771480
   6.4865090  16.1029160  65.1656950   6.3921960  15.4849910  64.4407820
   5.9062480  16.8295450  64.9386860   9.2526530  14.6602400  62.1984340
   8.8043830  14.6826660  61.3529890   8.6191730  14.2621420  62.7954640
   9.6586080  23.5556730  62.8196780  10.0774190  24.3989460  62.6473020
   8.7394710  23.6928770  62.5903560  11.9949980  21.2872910  64.2034620
  12.1146190  20.6914050  64.9429460  12.8543980  21.3242600  63.7835920
  14.3337880  21.8410100  62.7797130  13.8073100  22.3652720  62.1762270
  14.6769220  22.4737490  63.4106860   6.7324270  19.2303470  49.2246840
   6.5313330  18.3670830  49.5860180   6.5616320  19.1436830  48.2868440
   7.5093500  29.8609740  63.9354510   6.9714590  30.5855800  63.6163210
   7.7627460  29.3840080  63.1451850   8.7618750  17.8294260  65.4610440
   9.3518440  17.5210110  66.1488260   7.9438990  17.3574010  65.6170340
  13.5812180  17.4460070  65.6943460  12.8927700  16.7841610  65.6293450
  14.3018200  16.9998340  66.1391920  14.2112580  14.0411700  51.7533720
  14.4914870  13.1979600  52.1093140  13.4378310  14.2734810  52.2672470
   5.5307070  16.3304090  49.2124720   5.8332970  16.3371520  48.3043870
   6.2701660  15.9801950  49.7092380  10.3655710  31.0960950  64.1941160
  10.2914410  31.9996090  64.5013530   9.4634550  30.7772850  64.1663230
   8.7492000  15.2738710  50.1980920   8.4014000  14.5962700  49.6183370
   8.9504770  14.8128220  51.0124310  10.9141040  30.2619460  51.8167520
  11.8091830  30.6004430  51.8386280  10.9458670  29.5398870  51.1891800
   4.5537200  25.6346510  50.0454520   4.9912070  26.1776180  50.7012100
   5.0384930  24.8093460  50.0550860   1.7683000  28.4235540  57.4974780
   2.0986010  27.5556600  57.2653420   2.1974000  28.6294060  58.3279740
   6.3644920  26.7544550  55.1576750   6.0640460  26.6309520  56.0580660
   6.2582410  25.8953140  54.7492480   2.2573210  29.2906130  60.2356410
   1.8204200  29.4706930  61.0680560   2.8250890  30.0480750  60.0938130
  17.8935390  28.7923130  64.5233720  17.2937380  28.8515690  63.7797640
  18.0229290  27.8528110  64.6530570  19.1336840  26.5340950  49.8603430
  18.3029800  26.6017600  50.3310660  19.3108670  27.4245070  49.5570290
  18.5893300  23.2788430  52.3637630  19.3512210  23.8485080  52.4697320
  18.6047670  22.7115630  53.1345940  19.5953270  24.1338530  57.2079560
  19.9662100  23.3505850  56.8015530  20.2355200  24.8227630  57.0296860
  16.5787030  25.5175110  62.6209880  15.7646870  25.9472270  62.8835670
  16.9861230  26.1293520  62.0078930  18.6412470  23.5722800  49.5210150
  18.9161310  24.4801680  49.3929370  18.4523210  23.5085330  50.4572140
  15.0388080  16.5967650  50.8163780  15.4572960  16.4098630  49.9760440
  14.7324140  15.7446700  51.1266710  18.5377810  21.5091790  54.5139580
  18.1621410  20.7419720  54.0820870  17.8080930  21.8914490  55.0014510
   3.1273570  22.1878930  61.1348630   3.4946610  22.1006330  62.0144650
   2.5584390  21.4245480  61.0355490  17.9277430  20.6563310  64.1479100
  17.6963520  20.4276060  63.2477050  18.1881980  21.5762860  64.1023990
   2.6789570  19.0988020  65.0407050   1.7845620  19.0654780  65.3800760
   3.2187120  19.2974810  65.8058300  16.3665500  15.8819740  66.9258800
  17.2435680  15.8903140  67.3092800  16.3786340  15.1450580  66.3151150
  17.8128770  19.7349280  57.8146820  18.3366250  19.2411930  57.1836990
  18.3988190  19.8699640  58.5594390  17.9918490  19.8189150  61.3366370
  17.0421200  19.7852690  61.4511360  18.1731500  20.7289260  61.1016140
   3.8462930  18.0690830  50.4465000   4.5554630  17.6474050  49.9612280
   3.1302870  18.1366060  49.8148350   3.4937090  14.1230160  49.4867650
   4.2165220  14.6639100  49.8048870   3.7661610  13.8493580  48.6109190
  17.3028740  18.9922630  53.7539230  17.7987860  18.7593500  54.5388110
  17.1044810  18.1534470  53.3376870   3.1829280  13.3736350  59.3890270
   3.8305470  12.8233730  58.9485430   3.6031120  13.6279500  60.2106080
  18.7315900  17.6283580  56.2876910  18.6215180  17.4739620  57.2259180
  19.4923490  17.1004520  56.0452320  17.0781620  13.5677710  62.7459910
  17.7153840  14.1811850  63.1119100  17.2256510  13.6038370  61.8009140
  19.6206170  15.4591500  49.5283050  20.5455480  15.3272680  49.3201340
  19.5981960  15.5384320  50.4819500  19.6944660  16.2302160  52.1539760
  18.8996160  16.1647280  52.6832670  19.8987940  17.1652800  52.1425110
  16.6363080  30.2693710  56.1478150  17.2322150  29.9478280  55.4712570
  16.8941230  29.7965530  56.9391420   2.9361280  13.5292020  62.1315590
   2.5876100  13.9855840  62.8973770   2.6048980  12.6349150  62.2138020
   4.5425650  26.7011620  66.2968780   4.4995280  26.3304530  67.1783240
   4.6736660  27.6389190  66.4370600   8.2431680  28.2571210  61.8978500
   8.0023040  28.5245770  61.0109020   9.1834320  28.4276940  61.9529360
  10.4486100  14.7203900  65.6535010  10.3874990  15.3125730  66.4030420
  11.3886480  14.6129860  65.5085270  13.0860660  14.3773960  65.2927300
  13.7001070  14.6953250  64.6308380  13.6310220  13.8922550  65.9123160
  19.5035840  30.2765590  62.6989140  19.0094120  30.6734460  61.9816270
  18.8949130  29.6514800  63.0926420   3.6081920  13.0568220  65.4066360
   4.1564910  12.8756270  64.6432470   3.6737230  12.2662330  65.9422670
   4.3813680  29.6473870  63.4166560   3.7874000  29.5158570  64.1556600
   4.3737520  28.8112010  62.9508660  13.8268700  12.9406100  61.6196590
  12.9528540  13.2741210  61.4169520  13.7179450  12.4679280  62.4448460
  14.7340680  15.1476970  63.0038310  14.4054040  14.3328730  62.6240040
  15.6822980  15.1046780  62.8804000  17.1875290  30.9189010  59.9775880
  16.7278260  31.6704820  59.6033900  16.5587750  30.1995480  59.9190680
   4.0125910  27.0132250  62.3674600   3.2859970  26.3937540  62.3000550
   4.0735060  27.4072860  61.4972680   7.6171010  29.2277250  59.1524010
   8.1336030  28.6164610  58.6272270   8.2668390  29.7306030  59.6435020
  10.3566510  30.1185740  59.9792990  10.6444320  29.8640040  59.1026000
  10.8689730  29.5663100  60.5698560  11.5743520  13.8575940  60.5589500
  10.7915310  14.3321440  60.8386260  11.2806450  12.9530770  60.4502680
  16.1264590  14.5599040  58.6038590  16.5672680  14.5044140  57.7560190
  15.8572180  15.4757050  58.6748770  17.9903160  14.1914280  56.6147410
  17.9291560  13.2475500  56.4678430  18.7695190  14.2994370  57.1600870
   2.9183930  14.1623420  53.0803220   3.6763290  14.2752300  52.5067250
   2.4561100  14.9992620  53.0346650   9.4597740  16.2762690  56.0705530
   8.6472250  15.9019580  55.7301410   9.9639380  15.5207770  56.3726720
  13.9622720  12.9405140  57.3088600  14.5652090  13.5125350  57.7837120
  13.2215710  13.5044580  57.0862500  17.1057320  13.3426700  52.5828880
  17.3007950  14.2410150  52.8496310  16.3187190  13.1113780  53.0761830
   3.9018610  29.0239870  53.0221500   3.3766230  29.4047900  52.3183460
   3.8263190  29.6490640  53.7431210   5.2909080  14.6887470  51.6205190
   5.8201840  13.9017270  51.4913140   5.9237400  15.3678660  51.8540720
   7.4846920  14.4262610  54.6750580   6.8549660  13.7249920  54.8420710
   6.9452060  15.1866740  54.4583740  10.4238870  31.0401840  67.3461190
  11.3506180  30.8046110  67.3897150  10.4089300  31.8673840  66.8647220
  18.6583930  30.5827410  54.3435440  18.8336120  29.8965150  53.6996360
  17.9605500  31.1074460  53.9512110   7.6102480  13.7046590  67.1103070
   7.3286750  14.2080190  66.3463890   7.9922180  12.9068340  66.7445200
   6.5011580  30.9722250  51.8970750   7.2330400  30.6881530  51.3494640
   6.7605250  30.7335530  52.7870130   5.6626370  27.0886980  51.9017080
   5.0335250  27.5572080  52.4502910   5.7774200  26.2436200  52.3363270
  14.2117940  13.1200170  67.6883540  14.0983390  13.4394780  68.5835060
  15.0287680  13.5212680  67.3920820  16.9916430  30.2671700  67.1702230
  17.7841750  29.7720930  66.9628190  17.2849580  30.9461840  67.7777840
  13.1176090  21.1392640  38.0518280  13.0370140  20.2247250  37.7809990
  12.7040510  21.6359710  37.3457990  11.2494130  22.9171660  39.9327550
  10.4736230  22.4372100  40.2226120  11.9007060  22.2377310  39.7583710
   5.2659960  23.2291470  40.8103310   4.4344840  22.9740180  41.2099820
   5.8740940  23.3002240  41.5461230  15.2701560  27.3231850  38.7126680
  14.8083090  26.5519090  39.0413850  16.0827110  27.3497920  39.2179130
   5.2461220  27.2631560  41.0061330   5.5489260  26.3729300  40.8271550
   5.9904810  27.8201780  40.7783580   3.6751910  18.1893360  34.5945700
   2.7868610  18.5309330  34.4925580   3.9593100  17.9893680  33.7026530
  11.4964870  29.6089860  38.3330670  10.8776310  30.0647360  37.7625110
  12.3516650  29.7641320  37.9320370  10.6903120  25.5928850  39.9397710
  10.6211400  24.6518790  39.7786840  11.4522980  25.6830260  40.5120280
   2.8809790  16.1983370  42.2654330   2.7012630  15.3009120  42.5457090
   2.4789870  16.7455240  42.9401280  11.7208290  18.3999230  40.1666640
  12.0973110  17.5271110  40.0540310  11.6227800  18.7357930  39.2757080
   5.8513300  16.7724860  35.6284080   5.9580050  17.6728590  35.9352840
   4.9405660  16.7242830  35.3378730  15.5032410  15.8949670  37.0994980
  16.3242030  15.4046240  37.1420460  15.5366490  16.4847330  37.8526820
   3.4996460  18.6943870  40.8736670   4.1806570  18.9582240  41.4924070
   3.1844510  17.8544740  41.2074680   7.6921030  19.7411230  39.9609260
   8.1999250  20.2392200  40.6014280   8.2234270  18.9646430  39.7848620
  19.7931960  17.9116420  43.6638610  19.0884130  18.2998130  43.1453720
  20.0589880  18.6066710  44.2659540   5.9757130  14.3809790  44.2272680
   5.9775570  14.8982180  43.4218580   5.1461440  13.9039970  44.2042610
  12.3628220  24.4929100  35.7262580  11.7445490  24.9578550  35.1625300
  12.8751470  25.1856580  36.1432090   7.2259980  24.0204970  42.4046180
   6.8929360  24.6473890  43.0467250   7.4026660  24.5466850  41.6247850
  15.7393890  17.8350050  39.8722520  15.0349460  18.1234940  40.4525630
  16.1006050  18.6450160  39.5122080   5.6572460  16.0919750  42.2343130
   5.9989270  16.9361800  41.9397000   4.7188270  16.2403490  42.3508470
   6.4379080  25.9885770  44.2195360   7.0553080  26.6636850  43.9379810
   5.5772200  26.3973750  44.1282860  17.3556670  27.4525180  42.1350000
  16.6720190  28.1224290  42.1266670  17.8950960  27.6505830  41.3694860
  18.8080810  17.2804840  40.2631730  17.8605720  17.3143820  40.3947160
  19.1330800  18.0943790  40.6481090   9.3400350  13.5802020  38.5587720
   9.6475330  13.0248910  37.8423220   8.4101050  13.7146480  38.3760710
  14.8915410  29.2969310  40.8495180  14.9042570  28.8931600  39.9817440
  14.3390630  30.0716600  40.7456610  16.1860830  26.0185530  35.9385350
  16.0757160  25.0759860  36.0634770  16.1829080  26.3801170  36.8248110
  14.2900850  24.1999150  42.1777790  14.7069640  23.9859260  41.3431250
  15.0140670  24.4571940  42.7486410  11.7281110  21.6450850  35.2947840
  10.8010390  21.5788230  35.5236310  11.8805930  22.5830980  35.1803080
  11.7150190  17.9167850  32.2915000  10.7753860  18.0781810  32.3767460
  12.0333450  18.6353530  31.7450990  18.2362950  22.5986370  42.2694030
  17.4081580  22.6679460  41.7944160  18.8313430  23.1840680  41.8009860
  15.7578400  23.2071150  35.7983090  15.1390820  22.8690700  35.1509390
  15.7402850  22.5630910  36.5062280  15.2004960  19.3855690  43.2148900
  14.7876140  20.2109400  43.4688890  14.4680910  18.8000730  43.0225260
   7.3337750  22.1715590  38.0767570   6.9294750  21.4592840  37.5813470
   7.4200870  21.8268830  38.9655610   7.8019450  25.8583150  40.2406780
   7.5047740  25.2528620  39.5614560   8.7519270  25.8960460  40.1296140
   6.0466370  18.9458800  41.8566610   6.5980960  19.0554140  41.0819860
   6.5609880  19.3196400  42.5721840  15.8905060  29.4315020  43.9029880
  15.4135620  30.2387210  43.7102490  15.2066850  28.7793350  44.0556090
   6.8937880  25.5964840  46.8914580   5.9966410  25.8204810  47.1387980
   6.9190750  25.7199780  45.9425980  13.9343100  22.4457960  32.8055840
  14.3736380  21.6080390  32.6593660  14.6471520  23.0787360  32.8919980
   5.7209100  22.4678160  45.4671950   5.5816870  23.3400960  45.8359350
   4.8390460  22.1250970  45.3219890  12.0438480  27.3854030  36.7737080
  12.4834390  28.1278360  36.3592470  11.9825370  27.6280600  37.6976040
   7.5189450  28.4099860  47.6757100   7.4904880  28.8142810  46.8085530
   7.3554420  27.4810220  47.5128700  17.5160240  13.7000770  31.1196880
  17.2032900  13.7927600  32.0195950  18.2772710  14.2781800  31.0694310
   4.0342380  21.0660570  35.5774220   3.9139980  21.7922660  34.9655490
   3.7243270  20.2963480  35.1002130  19.4704270  29.1926960  48.9721270
  19.9463990  29.6709850  49.6510350  20.0911430  29.1244450  48.2466770
   2.9175380  25.9375900  37.7949040   2.5103460  26.0790490  36.9402640
   3.8088390  25.6536060  37.5920250  18.8737520  26.3839810  46.1321280
  19.0000580  26.1451690  45.2138460  18.9158900  25.5524350  46.6043360
  12.7354260  30.0867810  44.7016090  13.2498930  29.9975820  45.5038520
  11.8923340  30.4327510  44.9944000  14.7108660  30.3723150  34.1300090
  14.5509800  30.0826090  35.0281920  14.5455370  29.5963280  33.5945320
   7.1897040  30.1521680  35.9071710   7.0139520  29.2357220  35.6939510
   6.3352780  30.5108970  36.1469510  14.4134790  27.8810710  32.6898090
  13.7199950  27.8788000  32.0300370  15.1557650  27.4570030  32.2592260
  13.9784720  29.5073420  36.7646580  14.4341670  28.7262800  37.0785200
  14.3177240  30.2180240  37.3087760  18.7261530  18.4372270  47.0971020
  18.1105800  18.9451940  46.5686480  18.4057950  17.5370600  47.0396960
   6.5006040  14.4095640  38.9597890   6.0574190  15.1905180  38.6282410
   7.0591030  14.7325530  39.6668830  10.7875850  17.2764160  44.5633210
  10.3255220  17.4847180  45.3753150  10.3853960  16.4623510  44.2603880
  15.7880360  18.4973110  45.6929870  14.9373950  18.1978860  46.0138940
  15.6282150  18.7415120  44.7813690  12.8830070  19.9974860  47.7928660
  13.2083480  19.1638610  47.4530890  13.6710400  20.5203380  47.9406990
   9.6164860  14.0306340  33.8403720   8.9919040  14.0266210  34.5657030
   9.5294980  13.1637300  33.4439690   8.5381940  14.9542970  40.8187490
   8.8354270  15.8605800  40.7379510   9.0867500  14.4661750  40.2047060
   6.2920260  19.5329210  36.6879140   6.0661180  19.3166380  37.5925760
   5.5112790  19.9657670  36.3425110  13.5218020  19.5392580  35.2869790
  12.9226910  20.2628380  35.1033410  14.0697630  19.4769360  34.5046240
   8.7319470  20.4314790  47.3539410   8.6363070  19.4909520  47.2039810
   9.5751450  20.6529860  46.9587480  12.1282890  18.1756120  37.3173070
  12.5212460  18.4928320  36.5041760  12.4899740  17.2968000  37.4317590
   3.8630010  16.8428460  45.5073190   3.4693400  17.6903670  45.7145970
   3.1748410  16.2054830  45.6981830  10.4375060  16.9263430  48.5769930
   9.7473380  16.7335630  49.2116020  11.1807360  17.2098070  49.1094230
  12.7138030  20.7661870  41.4123850  11.9819150  21.2748680  41.7613950
  12.3162370  19.9491850  41.1112630   9.1515420  17.4416070  39.8176340
   9.1551480  17.0006020  38.9680880  10.0466540  17.7633400  39.9248160
   5.0017800  17.3242560  38.7770550   4.6617850  17.8017790  39.5337600
   4.2395120  16.8707680  38.4171650   9.2135570  18.4428150  32.8083100
   9.3348390  18.4014630  33.7568920   8.8284080  19.3052300  32.6529830
  13.1763940  16.2195550  40.8246790  13.1936680  16.6704200  41.6688640
  12.9279520  15.3201190  41.0380230   8.2257070  20.7529290  32.2066400
   7.6573970  20.3047540  31.5802310   8.9346070  21.1122070  31.6731550
  16.6034690  13.6327730  46.6633170  16.9280460  12.9017390  47.1891150
  16.6391200  13.3141370  45.7614160   3.3026250  24.6541310  46.0833130
   2.9181040  24.0134980  46.6816090   3.6138440  25.3577430  46.6527860
   9.4523390  21.5017850  41.5641750   9.8193520  21.0276420  42.3103090
   9.2628450  22.3759420  41.9050090   2.3163880  16.2461540  37.6935220
   2.0310800  15.8817210  38.5313840   2.2542740  15.5142000  37.0798360
   7.2422760  20.5426490  43.8825960   6.9379830  21.4218470  44.1076320
   8.1969220  20.6026280  43.9183400   5.7704550  24.7487480  34.4792810
   4.9966810  24.2085100  34.3191530   6.4999180  24.2294090  34.1410570
  16.5292530  23.7452840  40.2719200  17.2491650  24.2408130  39.8815310
  16.3274350  23.0670730  39.6273070  11.9902470  15.1390800  34.4148590
  11.1767080  14.6403970  34.3393900  11.7964420  15.9789050  33.9984940
  11.9111330  23.8161900  46.1588200  11.8448640  22.8957570  45.9045790
  11.2816470  23.9137340  46.8732840  14.7050860  19.5110450  32.7110750
  15.5930480  19.8227680  32.5362090  14.6755950  18.6382700  32.3191330
   5.8141950  24.4167860  38.1171620   6.3320620  23.6136120  38.0628510
   5.3625970  24.3547000  38.9588450  10.7011450  25.6834140  33.3898920
  11.0427150  26.4276370  32.8942240   9.8724160  25.9965260  33.7523750
   3.2986490  21.3829230  45.0297320   2.9401430  22.0483080  45.6170660
   3.0041050  20.5512780  45.4009940   6.4999610  21.8413470  47.9136870
   6.1999750  21.9870650  47.0164690   7.2710850  21.2818760  47.8210260
  11.8428060  26.6382470  45.9092000  11.8572600  25.7063430  45.6910910
  11.1353160  26.7242230  46.5481770  16.9765130  20.8222290  32.1790610
  16.8928850  21.2536510  31.3287050  17.6959320  21.2820640  32.6117430
  18.0539270  23.2789810  45.2560580  17.3287460  23.8718590  45.0589970
  18.5814730  23.2713350  44.4573950  18.0052380  27.6764550  34.9072740
  17.3628540  27.0220170  35.1816460  17.6183040  28.0819640  34.1313410
  13.5838860  25.0049980  38.7544430  13.9362680  24.4078110  38.0945800
  12.7001190  24.6794210  38.9252680   9.6702140  25.7647670  36.1614840
  10.3573270  26.3116880  36.5422430   8.8834560  26.3088400  36.1964450
   8.9729350  22.7693700  35.7740200   9.4292130  23.5798950  36.0000390
   8.6217560  22.4516840  36.6058690  11.2761960  28.2800040  43.0032500
  11.9204180  28.4859420  43.6805920  11.6391400  27.5188440  42.5503350
   4.8741130  13.1131350  36.2462720   4.7455760  13.1049250  37.1947640
   4.0503150  13.4514440  35.8953730  12.5494040  26.2832390  41.7209950
  13.1916270  25.5825550  41.8342120  13.0743390  27.0630830  41.5406840
  16.3949760  26.5681010  31.4449090  16.1687340  25.8511450  32.0373730
  16.0045960  26.3193450  30.6070840  14.3231660  27.0827290  44.9246010
  14.6587900  27.6693980  45.6023930  13.4032000  26.9520000  45.1543800
   2.1765790  30.5947870  32.2193550   2.5363430  31.1937210  31.5650820
   2.0358130  31.1407760  32.9928580  15.9766010  24.4852950  33.1063250
  15.6887710  24.9465640  33.8941130  16.7718180  24.0250720  33.3747470
  10.1520240  27.1318620  48.0934070   9.8317110  26.4127860  48.6379760
   9.4778600  27.8073690  48.1670130   8.1934410  27.9779070  33.0367220
   8.1844510  28.7108760  32.4211730   7.2732770  27.7310650  33.1294180
   3.7941050  23.1993960  33.7813980   3.1869000  23.9392860  33.7909280
   4.2690400  23.2893320  32.9552180  13.3673840  17.3644780  43.4570870
  13.7354660  16.5439990  43.7850440  12.5072040  17.4246670  43.8726520
  16.7335870  16.3201720  34.2658430  16.1049030  16.4247390  33.5516660
  16.2387790  16.5398500  35.0552310  11.1794010  28.0407310  31.6992410
  11.2805990  27.8371300  30.7694390  10.2795750  27.7865590  31.9040190
   8.7019900  18.5987670  35.6816310   7.9936050  19.0674010  36.1229920
   8.9864380  17.9409680  36.3161500  10.3275830  20.0184370  43.6808840
  10.8261080  20.4930190  44.3460690  10.4698780  19.0947890  43.8878870
  12.7335330  15.3238330  37.1212100  12.6103110  15.3424460  36.1721610
  13.6819890  15.3717270  37.2410500   9.8212120  30.5593630  36.3940080
  10.0753620  30.5215020  35.4719450   8.8724600  30.4326960  36.3868330
   6.9054920  16.9072750  33.0567020   7.7545450  17.3442900  32.9907210
   6.5386190  17.2193010  33.8839080  17.5342690  16.2352330  44.5237230
  17.0316290  16.9757730  44.8631040  18.3499350  16.6236330  44.2074020
  15.8264700  21.4785510  37.9698590  14.8854840  21.4935740  38.1446280
  16.1408770  20.6921470  38.4158890   5.8046340  23.1605110  31.5302550
   6.5709610  23.0486470  32.0927980   5.8821030  22.4643080  30.8779320
   4.4993100  20.5930180  32.2135440   4.5796690  19.6457690  32.3252840
   5.3912850  20.9237060  32.3196100  17.8290280  28.6494360  39.6452850
  17.9537700  29.4725530  40.1176660  18.6955840  28.4385090  39.2977000
   5.3007810  30.7425570  39.3169980   6.0370290  30.1941030  39.5878550
   5.6848730  31.6081580  39.1775970   4.3066090  29.9271640  48.5055560
   5.1078820  30.2483690  48.9190960   3.7917910  29.5667220  49.2275470
   8.4110120  29.9155880  31.1395550   9.2038730  30.2044710  30.6877340
   7.8914470  29.4848050  30.4608030  13.1430720  26.0351510  48.4530970
  12.5368880  26.0583110  47.7126720  12.8384830  25.3034550  48.9898220
  14.5731090  29.7631800  47.0640380  15.5252840  29.6789820  47.0140620
  14.4259310  30.4273510  47.7374170  17.4640290  29.1426010  32.5632290
  17.1781800  28.7291150  31.7486470  17.2659840  30.0713720  32.4432810
   8.9287520  25.1359290  31.0037900   8.8238160  24.5211640  31.7299280
   8.7611740  24.6125180  30.2200910   9.0801840  23.8216090  46.9827130
   8.3147510  24.3901090  46.8981800   9.2617800  23.5292300  46.0895360
  12.1690250  24.1979320  31.6079890  11.6200350  24.6448620  32.2522630
  12.7909510  23.6928570  32.1317560  16.2225190  25.5521420  47.5402150
  16.9634660  25.8897180  47.0369610  15.4597870  25.7213480  46.9871920
   4.0586980  20.5574690  48.3441680   4.0992320  20.2588560  49.2526910
   4.9132480  20.9582300  48.1849200   7.8365370  23.1570240  33.5045190
   8.2581790  22.9910110  34.3476580   7.9616210  22.3470470  33.0100330
   5.9992790  19.1366790  46.3116170   5.4689250  18.6457740  45.6839510
   6.6680860  19.5650990  45.7774100  10.3493010  22.1807850  30.7522290
  10.8698670  21.4656870  30.3863440  10.9961410  22.8193720  31.0522800
  14.8970850  23.6036250  46.0757360  15.3111870  23.7581330  46.9247780
  13.9621850  23.7291470  46.2383140  15.3693020  20.9432410  48.0796510
  15.9513790  20.1884730  47.9916990  15.5454790  21.4739850  47.3027990
   6.4865090  16.1029160  46.3913460   6.3921960  15.4849910  45.6664330
   5.9062480  16.8295450  46.1643370   9.2526530  14.6602400  43.4240850
   8.8043830  14.6826660  42.5786400   8.6191730  14.2621420  44.0211150
   9.6586080  23.5556730  44.0453290  10.0774190  24.3989460  43.8729530
   8.7394710  23.6928770  43.8160070  11.9949980  21.2872910  45.4291130
  12.1146190  20.6914050  46.1685970  12.8543980  21.3242600  45.0092430
  14.3337880  21.8410100  44.0053640  13.8073100  22.3652720  43.4018780
  14.6769220  22.4737490  44.6363370   6.7324270  19.2303470  30.4503350
   6.5313330  18.3670830  30.8116690   6.5616320  19.1436830  29.5124950
   7.5093500  29.8609740  45.1611020   6.9714590  30.5855800  44.8419720
   7.7627460  29.3840080  44.3708360   8.7618750  17.8294260  46.6866950
   9.3518440  17.5210110  47.3744770   7.9438990  17.3574010  46.8426850
  13.5812180  17.4460070  46.9199970  12.8927700  16.7841610  46.8549960
  14.3018200  16.9998340  47.3648430  14.2112580  14.0411700  32.9790230
  14.4914870  13.1979600  33.3349650  13.4378310  14.2734810  33.4928980
   5.5307070  16.3304090  30.4381230   5.8332970  16.3371520  29.5300380
   6.2701660  15.9801950  30.9348890  10.3655710  31.0960950  45.4197670
  10.2914410  31.9996090  45.7270040   9.4634550  30.7772850  45.3919740
   8.7492000  15.2738710  31.4237430   8.4014000  14.5962700  30.8439880
   8.9504770  14.8128220  32.2380820  10.9141040  30.2619460  33.0424030
  11.8091830  30.6004430  33.0642790  10.9458670  29.5398870  32.4148310
   4.5537200  25.6346510  31.2711030   4.9912070  26.1776180  31.9268610
   5.0384930  24.8093460  31.2807370   1.7683000  28.4235540  38.7231290
   2.0986010  27.5556600  38.4909930   2.1974000  28.6294060  39.5536250
   6.3644920  26.7544550  36.3833260   6.0640460  26.6309520  37.2837170
   6.2582410  25.8953140  35.9748990   2.2573210  29.2906130  41.4612920
   1.8204200  29.4706930  42.2937070   2.8250890  30.0480750  41.3194640
  17.8935390  28.7923130  45.7490230  17.2937380  28.8515690  45.0054150
  18.0229290  27.8528110  45.8787080  19.1336840  26.5340950  31.0859940
  18.3029800  26.6017600  31.5567170  19.3108670  27.4245070  30.7826800
  18.5893300  23.2788430  33.5894140  19.3512210  23.8485080  33.6953830
  18.6047670  22.7115630  34.3602450  19.5953270  24.1338530  38.4336070
  19.9662100  23.3505850  38.0272040  20.2355200  24.8227630  38.2553370
  16.5787030  25.5175110  43.8466390  15.7646870  25.9472270  44.1092180
  16.9861230  26.1293520  43.2335440  18.6412470  23.5722800  30.7466660
  18.9161310  24.4801680  30.6185880  18.4523210  23.5085330  31.6828650
  15.0388080  16.5967650  32.0420290  15.4572960  16.4098630  31.2016950
  14.7324140  15.7446700  32.3523220  18.5377810  21.5091790  35.7396090
  18.1621410  20.7419720  35.3077380  17.8080930  21.8914490  36.2271020
   3.1273570  22.1878930  42.3605140   3.4946610  22.1006330  43.2401160
   2.5584390  21.4245480  42.2612000  17.9277430  20.6563310  45.3735610
  17.6963520  20.4276060  44.4733560  18.1881980  21.5762860  45.3280500
   2.6789570  19.0988020  46.2663560   1.7845620  19.0654780  46.6057270
   3.2187120  19.2974810  47.0314810  16.3665500  15.8819740  48.1515310
  17.2435680  15.8903140  48.5349310  16.3786340  15.1450580  47.5407660
  17.8128770  19.7349280  39.0403330  18.3366250  19.2411930  38.4093500
  18.3988190  19.8699640  39.7850900  17.9918490  19.8189150  42.5622880
  17.0421200  19.7852690  42.6767870  18.1731500  20.7289260  42.3272650
   3.8462930  18.0690830  31.6721510   4.5554630  17.6474050  31.1868790
   3.1302870  18.1366060  31.0404860   3.4937090  14.1230160  30.7124160
   4.2165220  14.6639100  31.0305380   3.7661610  13.8493580  29.8365700
  17.3028740  18.9922630  34.9795740  17.7987860  18.7593500  35.7644620
  17.1044810  18.1534470  34.5633380   3.1829280  13.3736350  40.6146780
   3.8305470  12.8233730  40.1741940   3.6031120  13.6279500  41.4362590
  18.7315900  17.6283580  37.5133420  18.6215180  17.4739620  38.4515690
  19.4923490  17.1004520  37.2708830  17.0781620  13.5677710  43.9716420
  17.7153840  14.1811850  44.3375610  17.2256510  13.6038370  43.0265650
  19.6206170  15.4591500  30.7539560  20.5455480  15.3272680  30.5457850
  19.5981960  15.5384320  31.7076010  19.6944660  16.2302160  33.3796270
  18.8996160  16.1647280  33.9089180  19.8987940  17.1652800  33.3681620
  16.6363080  30.2693710  37.3734660  17.2322150  29.9478280  36.6969080
  16.8941230  29.7965530  38.1647930   2.9361280  13.5292020  43.3572100
   2.5876100  13.9855840  44.1230280   2.6048980  12.6349150  43.4394530
   4.5425650  26.7011620  47.5225290   4.4995280  26.3304530  48.4039750
   4.6736660  27.6389190  47.6627110   8.2431680  28.2571210  43.1235010
   8.0023040  28.5245770  42.2365530   9.1834320  28.4276940  43.1785870
  10.4486100  14.7203900  46.8791520  10.3874990  15.3125730  47.6286930
  11.3886480  14.6129860  46.7341780  13.0860660  14.3773960  46.5183810
  13.7001070  14.6953250  45.8564890  13.6310220  13.8922550  47.1379670
  19.5035840  30.2765590  43.9245650  19.0094120  30.6734460  43.2072780
  18.8949130  29.6514800  44.3182930   3.6081920  13.0568220  46.6322870
   4.1564910  12.8756270  45.8688980   3.6737230  12.2662330  47.1679180
   4.3813680  29.6473870  44.6423070   3.7874000  29.5158570  45.3813110
   4.3737520  28.8112010  44.1765170  13.8268700  12.9406100  42.8453100
  12.9528540  13.2741210  42.6426030  13.7179450  12.4679280  43.6704970
  14.7340680  15.1476970  44.2294820  14.4054040  14.3328730  43.8496550
  15.6822980  15.1046780  44.1060510  17.1875290  30.9189010  41.2032390
  16.7278260  31.6704820  40.8290410  16.5587750  30.1995480  41.1447190
   4.0125910  27.0132250  43.5931110   3.2859970  26.3937540  43.5257060
   4.0735060  27.4072860  42.7229190   7.6171010  29.2277250  40.3780520
   8.1336030  28.6164610  39.8528780   8.2668390  29.7306030  40.8691530
  10.3566510  30.1185740  41.2049500  10.6444320  29.8640040  40.3282510
  10.8689730  29.5663100  41.7955070  11.5743520  13.8575940  41.7846010
  10.7915310  14.3321440  42.0642770  11.2806450  12.9530770  41.6759190
  16.1264590  14.5599040  39.8295100  16.5672680  14.5044140  38.9816700
  15.8572180  15.4757050  39.9005280  17.9903160  14.1914280  37.8403920
  17.9291560  13.2475500  37.6934940  18.7695190  14.2994370  38.3857380
   2.9183930  14.1623420  34.3059730   3.6763290  14.2752300  33.7323760
   2.4561100  14.9992620  34.2603160   9.4597740  16.2762690  37.2962040
   8.6472250  15.9019580  36.9557920   9.9639380  15.5207770  37.5983230
  13.9622720  12.9405140  38.5345110  14.5652090  13.5125350  39.0093630
  13.2215710  13.5044580  38.3119010  17.1057320  13.3426700  33.8085390
  17.3007950  14.2410150  34.0752820  16.3187190  13.1113780  34.3018340
   3.9018610  29.0239870  34.2478010   3.3766230  29.4047900  33.5439970
   3.8263190  29.6490640  34.9687720   5.2909080  14.6887470  32.8461700
   5.8201840  13.9017270  32.7169650   5.9237400  15.3678660  33.0797230
   7.4846920  14.4262610  35.9007090   6.8549660  13.7249920  36.0677220
   6.9452060  15.1866740  35.6840250  10.4238870  31.0401840  48.5717700
  11.3506180  30.8046110  48.6153660  10.4089300  31.8673840  48.0903730
  18.6583930  30.5827410  35.5691950  18.8336120  29.8965150  34.9252870
  17.9605500  31.1074460  35.1768620   7.6102480  13.7046590  48.3359580
   7.3286750  14.2080190  47.5720400   7.9922180  12.9068340  47.9701710
   6.5011580  30.9722250  33.1227260   7.2330400  30.6881530  32.5751150
   6.7605250  30.7335530  34.0126640   5.6626370  27.0886980  33.1273590
   5.0335250  27.5572080  33.6759420   5.7774200  26.2436200  33.5619780
  14.2117940  13.1200170  48.9140050  14.0983390  13.4394780  49.8091570
  15.0287680  13.5212680  48.6177330  16.9916430  30.2671700  48.3958740
  17.7841750  29.7720930  48.1884700  17.2849580  30.9461840  49.0034350
  13.1176090  21.1392640  19.2774790  13.0370140  20.2247250  19.0066500
  12.7040510  21.6359710  18.5714500  11.2494130  22.9171660  21.1584060
  10.4736230  22.4372100  21.4482630  11.9007060  22.2377310  20.9840220
   5.2659960  23.2291470  22.0359820   4.4344840  22.9740180  22.4356330
   5.8740940  23.3002240  22.7717740  15.2701560  27.3231850  19.9383190
  14.8083090  26.5519090  20.2670360  16.0827110  27.3497920  20.4435640
   5.2461220  27.2631560  22.2317840   5.5489260  26.3729300  22.0528060
   5.9904810  27.8201780  22.0040090   3.6751910  18.1893360  15.8202210
   2.7868610  18.5309330  15.7182090   3.9593100  17.9893680  14.9283040
  11.4964870  29.6089860  19.5587180  10.8776310  30.0647360  18.9881620
  12.3516650  29.7641320  19.1576880  10.6903120  25.5928850  21.1654220
  10.6211400  24.6518790  21.0043350  11.4522980  25.6830260  21.7376790
   2.8809790  16.1983370  23.4910840   2.7012630  15.3009120  23.7713600
   2.4789870  16.7455240  24.1657790  11.7208290  18.3999230  21.3923150
  12.0973110  17.5271110  21.2796820  11.6227800  18.7357930  20.5013590
   5.8513300  16.7724860  16.8540590   5.9580050  17.6728590  17.1609350
   4.9405660  16.7242830  16.5635240  15.5032410  15.8949670  18.3251490
  16.3242030  15.4046240  18.3676970  15.5366490  16.4847330  19.0783330
   3.4996460  18.6943870  22.0993180   4.1806570  18.9582240  22.7180580
   3.1844510  17.8544740  22.4331190   7.6921030  19.7411230  21.1865770
   8.1999250  20.2392200  21.8270790   8.2234270  18.9646430  21.0105130
  19.7931960  17.9116420  24.8895120  19.0884130  18.2998130  24.3710230
  20.0589880  18.6066710  25.4916050   5.9757130  14.3809790  25.4529190
   5.9775570  14.8982180  24.6475090   5.1461440  13.9039970  25.4299120
  12.3628220  24.4929100  16.9519090  11.7445490  24.9578550  16.3881810
  12.8751470  25.1856580  17.3688600   7.2259980  24.0204970  23.6302690
   6.8929360  24.6473890  24.2723760   7.4026660  24.5466850  22.8504360
  15.7393890  17.8350050  21.0979030  15.0349460  18.1234940  21.6782140
  16.1006050  18.6450160  20.7378590   5.6572460  16.0919750  23.4599640
   5.9989270  16.9361800  23.1653510   4.7188270  16.2403490  23.5764980
   6.4379080  25.9885770  25.4451870   7.0553080  26.6636850  25.1636320
   5.5772200  26.3973750  25.3539370  17.3556670  27.4525180  23.3606510
  16.6720190  28.1224290  23.3523180  17.8950960  27.6505830  22.5951370
  18.8080810  17.2804840  21.4888240  17.8605720  17.3143820  21.6203670
  19.1330800  18.0943790  21.8737600   9.3400350  13.5802020  19.7844230
   9.6475330  13.0248910  19.0679730   8.4101050  13.7146480  19.6017220
  14.8915410  29.2969310  22.0751690  14.9042570  28.8931600  21.2073950
  14.3390630  30.0716600  21.9713120  16.1860830  26.0185530  17.1641860
  16.0757160  25.0759860  17.2891280  16.1829080  26.3801170  18.0504620
  14.2900850  24.1999150  23.4034300  14.7069640  23.9859260  22.5687760
  15.0140670  24.4571940  23.9742920  11.7281110  21.6450850  16.5204350
  10.8010390  21.5788230  16.7492820  11.8805930  22.5830980  16.4059590
  11.7150190  17.9167850  13.5171510  10.7753860  18.0781810  13.6023970
  12.0333450  18.6353530  12.9707500  18.2362950  22.5986370  23.4950540
  17.4081580  22.6679460  23.0200670  18.8313430  23.1840680  23.0266370
  15.7578400  23.2071150  17.0239600  15.1390820  22.8690700  16.3765900
  15.7402850  22.5630910  17.7318790  15.2004960  19.3855690  24.4405410
  14.7876140  20.2109400  24.6945400  14.4680910  18.8000730  24.2481770
   7.3337750  22.1715590  19.3024080   6.9294750  21.4592840  18.8069980
   7.4200870  21.8268830  20.1912120   7.8019450  25.8583150  21.4663290
   7.5047740  25.2528620  20.7871070   8.7519270  25.8960460  21.3552650
   6.0466370  18.9458800  23.0823120   6.5980960  19.0554140  22.3076370
   6.5609880  19.3196400  23.7978350  15.8905060  29.4315020  25.1286390
  15.4135620  30.2387210  24.9359000  15.2066850  28.7793350  25.2812600
   6.8937880  25.5964840  28.1171090   5.9966410  25.8204810  28.3644490
   6.9190750  25.7199780  27.1682490  13.9343100  22.4457960  14.0312350
  14.3736380  21.6080390  13.8850170  14.6471520  23.0787360  14.1176490
   5.7209100  22.4678160  26.6928460   5.5816870  23.3400960  27.0615860
   4.8390460  22.1250970  26.5476400  12.0438480  27.3854030  17.9993590
  12.4834390  28.1278360  17.5848980  11.9825370  27.6280600  18.9232550
   7.5189450  28.4099860  28.9013610   7.4904880  28.8142810  28.0342040
   7.3554420  27.4810220  28.7385210  17.5160240  13.7000770  12.3453390
  17.2032900  13.7927600  13.2452460  18.2772710  14.2781800  12.2950820
   4.0342380  21.0660570  16.8030730   3.9139980  21.7922660  16.1912000
   3.7243270  20.2963480  16.3258640  19.4704270  29.1926960  30.1977780
  19.9463990  29.6709850  30.8766860  20.0911430  29.1244450  29.4723280
   2.9175380  25.9375900  19.0205550   2.5103460  26.0790490  18.1659150
   3.8088390  25.6536060  18.8176760  18.8737520  26.3839810  27.3577790
  19.0000580  26.1451690  26.4394970  18.9158900  25.5524350  27.8299870
  12.7354260  30.0867810  25.9272600  13.2498930  29.9975820  26.7295030
  11.8923340  30.4327510  26.2200510  14.7108660  30.3723150  15.3556600
  14.5509800  30.0826090  16.2538430  14.5455370  29.5963280  14.8201830
   7.1897040  30.1521680  17.1328220   7.0139520  29.2357220  16.9196020
   6.3352780  30.5108970  17.3726020  14.4134790  27.8810710  13.9154600
  13.7199950  27.8788000  13.2556880  15.1557650  27.4570030  13.4848770
  13.9784720  29.5073420  17.9903090  14.4341670  28.7262800  18.3041710
  14.3177240  30.2180240  18.5344270  18.7261530  18.4372270  28.3227530
  18.1105800  18.9451940  27.7942990  18.4057950  17.5370600  28.2653470
   6.5006040  14.4095640  20.1854400   6.0574190  15.1905180  19.8538920
   7.0591030  14.7325530  20.8925340  10.7875850  17.2764160  25.7889720
  10.3255220  17.4847180  26.6009660  10.3853960  16.4623510  25.4860390
  15.7880360  18.4973110  26.9186380  14.9373950  18.1978860  27.2395450
  15.6282150  18.7415120  26.0070200  12.8830070  19.9974860  29.0185170
  13.2083480  19.1638610  28.6787400  13.6710400  20.5203380  29.1663500
   9.6164860  14.0306340  15.0660230   8.9919040  14.0266210  15.7913540
   9.5294980  13.1637300  14.6696200   8.5381940  14.9542970  22.0444000
   8.8354270  15.8605800  21.9636020   9.0867500  14.4661750  21.4303570
   6.2920260  19.5329210  17.9135650   6.0661180  19.3166380  18.8182270
   5.5112790  19.9657670  17.5681620  13.5218020  19.5392580  16.5126300
  12.9226910  20.2628380  16.3289920  14.0697630  19.4769360  15.7302750
   8.7319470  20.4314790  28.5795920   8.6363070  19.4909520  28.4296320
   9.5751450  20.6529860  28.1843990  12.1282890  18.1756120  18.5429580
  12.5212460  18.4928320  17.7298270  12.4899740  17.2968000  18.6574100
   3.8630010  16.8428460  26.7329700   3.4693400  17.6903670  26.9402480
   3.1748410  16.2054830  26.9238340  10.4375060  16.9263430  29.8026440
   9.7473380  16.7335630  30.4372530  11.1807360  17.2098070  30.3350740
  12.7138030  20.7661870  22.6380360  11.9819150  21.2748680  22.9870460
  12.3162370  19.9491850  22.3369140   9.1515420  17.4416070  21.0432850
   9.1551480  17.0006020  20.1937390  10.0466540  17.7633400  21.1504670
   5.0017800  17.3242560  20.0027060   4.6617850  17.8017790  20.7594110
   4.2395120  16.8707680  19.6428160   9.2135570  18.4428150  14.0339610
   9.3348390  18.4014630  14.9825430   8.8284080  19.3052300  13.8786340
  13.1763940  16.2195550  22.0503300  13.1936680  16.6704200  22.8945150
  12.9279520  15.3201190  22.2636740   8.2257070  20.7529290  13.4322910
   7.6573970  20.3047540  12.8058820   8.9346070  21.1122070  12.8988060
  16.6034690  13.6327730  27.8889680  16.9280460  12.9017390  28.4147660
  16.6391200  13.3141370  26.9870670   3.3026250  24.6541310  27.3089640
   2.9181040  24.0134980  27.9072600   3.6138440  25.3577430  27.8784370
   9.4523390  21.5017850  22.7898260   9.8193520  21.0276420  23.5359600
   9.2628450  22.3759420  23.1306600   2.3163880  16.2461540  18.9191730
   2.0310800  15.8817210  19.7570350   2.2542740  15.5142000  18.3054870
   7.2422760  20.5426490  25.1082470   6.9379830  21.4218470  25.3332830
   8.1969220  20.6026280  25.1439910   5.7704550  24.7487480  15.7049320
   4.9966810  24.2085100  15.5448040   6.4999180  24.2294090  15.3667080
  16.5292530  23.7452840  21.4975710  17.2491650  24.2408130  21.1071820
  16.3274350  23.0670730  20.8529580  11.9902470  15.1390800  15.6405100
  11.1767080  14.6403970  15.5650410  11.7964420  15.9789050  15.2241450
  11.9111330  23.8161900  27.3844710  11.8448640  22.8957570  27.1302300
  11.2816470  23.9137340  28.0989350  14.7050860  19.5110450  13.9367260
  15.5930480  19.8227680  13.7618600  14.6755950  18.6382700  13.5447840
   5.8141950  24.4167860  19.3428130   6.3320620  23.6136120  19.2885020
   5.3625970  24.3547000  20.1844960  10.7011450  25.6834140  14.6155430
  11.0427150  26.4276370  14.1198750   9.8724160  25.9965260  14.9780260
   3.2986490  21.3829230  26.2553830   2.9401430  22.0483080  26.8427170
   3.0041050  20.5512780  26.6266450   6.4999610  21.8413470  29.1393380
   6.1999750  21.9870650  28.2421200   7.2710850  21.2818760  29.0466770
  11.8428060  26.6382470  27.1348510  11.8572600  25.7063430  26.9167420
  11.1353160  26.7242230  27.7738280  16.9765130  20.8222290  13.4047120
  16.8928850  21.2536510  12.5543560  17.6959320  21.2820640  13.8373940
  18.0539270  23.2789810  26.4817090  17.3287460  23.8718590  26.2846480
  18.5814730  23.2713350  25.6830460  18.0052380  27.6764550  16.1329250
  17.3628540  27.0220170  16.4072970  17.6183040  28.0819640  15.3569920
  13.5838860  25.0049980  19.9800940  13.9362680  24.4078110  19.3202310
  12.7001190  24.6794210  20.1509190   9.6702140  25.7647670  17.3871350
  10.3573270  26.3116880  17.7678940   8.8834560  26.3088400  17.4220960
   8.9729350  22.7693700  16.9996710   9.4292130  23.5798950  17.2256900
   8.6217560  22.4516840  17.8315200  11.2761960  28.2800040  24.2289010
  11.9204180  28.4859420  24.9062430  11.6391400  27.5188440  23.7759860
   4.8741130  13.1131350  17.4719230   4.7455760  13.1049250  18.4204150
   4.0503150  13.4514440  17.1210240  12.5494040  26.2832390  22.9466460
  13.1916270  25.5825550  23.0598630  13.0743390  27.0630830  22.7663350
  16.3949760  26.5681010  12.6705600  16.1687340  25.8511450  13.2630240
  16.0045960  26.3193450  11.8327350  14.3231660  27.0827290  26.1502520
  14.6587900  27.6693980  26.8280440  13.4032000  26.9520000  26.3800310
   2.1765790  30.5947870  13.4450060   2.5363430  31.1937210  12.7907330
   2.0358130  31.1407760  14.2185090  15.9766010  24.4852950  14.3319760
  15.6887710  24.9465640  15.1197640  16.7718180  24.0250720  14.6003980
  10.1520240  27.1318620  29.3190580   9.8317110  26.4127860  29.8636270
   9.4778600  27.8073690  29.3926640   8.1934410  27.9779070  14.2623730
   8.1844510  28.7108760  13.6468240   7.2732770  27.7310650  14.3550690
   3.7941050  23.1993960  15.0070490   3.1869000  23.9392860  15.0165790
   4.2690400  23.2893320  14.1808690  13.3673840  17.3644780  24.6827380
  13.7354660  16.5439990  25.0106950  12.5072040  17.4246670  25.0983030
  16.7335870  16.3201720  15.4914940  16.1049030  16.4247390  14.7773170
  16.2387790  16.5398500  16.2808820  11.1794010  28.0407310  12.9248920
  11.2805990  27.8371300  11.9950900  10.2795750  27.7865590  13.1296700
   8.7019900  18.5987670  16.9072820   7.9936050  19.0674010  17.3486430
   8.9864380  17.9409680  17.5418010  10.3275830  20.0184370  24.9065350
  10.8261080  20.4930190  25.5717200  10.4698780  19.0947890  25.1135380
  12.7335330  15.3238330  18.3468610  12.6103110  15.3424460  17.3978120
  13.6819890  15.3717270  18.4667010   9.8212120  30.5593630  17.6196590
  10.0753620  30.5215020  16.6975960   8.8724600  30.4326960  17.6124840
   6.9054920  16.9072750  14.2823530   7.7545450  17.3442900  14.2163720
   6.5386190  17.2193010  15.1095590  17.5342690  16.2352330  25.7493740
  17.0316290  16.9757730  26.0887550  18.3499350  16.6236330  25.4330530
  15.8264700  21.4785510  19.1955100  14.8854840  21.4935740  19.3702790
  16.1408770  20.6921470  19.6415400   5.8046340  23.1605110  12.7559060
   6.5709610  23.0486470  13.3184490   5.8821030  22.4643080  12.1035830
   4.4993100  20.5930180  13.4391950   4.5796690  19.6457690  13.5509350
   5.3912850  20.9237060  13.5452610  17.8290280  28.6494360  20.8709360
  17.9537700  29.4725530  21.3433170  18.6955840  28.4385090  20.5233510
   5.3007810  30.7425570  20.5426490   6.0370290  30.1941030  20.8135060
   5.6848730  31.6081580  20.4032480   4.3066090  29.9271640  29.7312070
   5.1078820  30.2483690  30.1447470   3.7917910  29.5667220  30.4531980
   8.4110120  29.9155880  12.3652060   9.2038730  30.2044710  11.9133850
   7.8914470  29.4848050  11.6864540  13.1430720  26.0351510  29.6787480
  12.5368880  26.0583110  28.9383230  12.8384830  25.3034550  30.2154730
  14.5731090  29.7631800  28.2896890  15.5252840  29.6789820  28.2397130
  14.4259310  30.4273510  28.9630680  17.4640290  29.1426010  13.7888800
  17.1781800  28.7291150  12.9742980  17.2659840  30.0713720  13.6689320
   8.9287520  25.1359290  12.2294410   8.8238160  24.5211640  12.9555790
   8.7611740  24.6125180  11.4457420   9.0801840  23.8216090  28.2083640
   8.3147510  24.3901090  28.1238310   9.2617800  23.5292300  27.3151870
  12.1690250  24.1979320  12.8336400  11.6200350  24.6448620  13.4779140
  12.7909510  23.6928570  13.3574070  16.2225190  25.5521420  28.7658660
  16.9634660  25.8897180  28.2626120  15.4597870  25.7213480  28.2128430
   4.0586980  20.5574690  29.5698190   4.0992320  20.2588560  30.4783420
   4.9132480  20.9582300  29.4105710   7.8365370  23.1570240  14.7301700
   8.2581790  22.9910110  15.5733090   7.9616210  22.3470470  14.2356840
   5.9992790  19.1366790  27.5372680   5.4689250  18.6457740  26.9096020
   6.6680860  19.5650990  27.0030610  10.3493010  22.1807850  11.9778800
  10.8698670  21.4656870  11.6119950  10.9961410  22.8193720  12.2779310
  14.8970850  23.6036250  27.3013870  15.3111870  23.7581330  28.1504290
  13.9621850  23.7291470  27.4639650  15.3693020  20.9432410  29.3053020
  15.9513790  20.1884730  29.2173500  15.5454790  21.4739850  28.5284500
   6.4865090  16.1029160  27.6169970   6.3921960  15.4849910  26.8920840
   5.9062480  16.8295450  27.3899880   9.2526530  14.6602400  24.6497360
   8.8043830  14.6826660  23.8042910   8.6191730  14.2621420  25.2467660
   9.6586080  23.5556730  25.2709800  10.0774190  24.3989460  25.0986040
   8.7394710  23.6928770  25.0416580  11.9949980  21.2872910  26.6547640
  12.1146190  20.6914050  27.3942480  12.8543980  21.3242600  26.2348940
  14.3337880  21.8410100  25.2310150  13.8073100  22.3652720  24.6275290
  14.6769220  22.4737490  25.8619880   6.7324270  19.2303470  11.6759860
   6.5313330  18.3670830  12.0373200   6.5616320  19.1436830  10.7381460
   7.5093500  29.8609740  26.3867530   6.9714590  30.5855800  26.0676230
   7.7627460  29.3840080  25.5964870   8.7618750  17.8294260  27.9123460
   9.3518440  17.5210110  28.6001280   7.9438990  17.3574010  28.0683360
  13.5812180  17.4460070  28.1456480  12.8927700  16.7841610  28.0806470
  14.3018200  16.9998340  28.5904940  14.2112580  14.0411700  14.2046740
  14.4914870  13.1979600  14.5606160  13.4378310  14.2734810  14.7185490
   5.5307070  16.3304090  11.6637740   5.8332970  16.3371520  10.7556890
   6.2701660  15.9801950  12.1605400  10.3655710  31.0960950  26.6454180
  10.2914410  31.9996090  26.9526550   9.4634550  30.7772850  26.6176250
   8.7492000  15.2738710  12.6493940   8.4014000  14.5962700  12.0696390
   8.9504770  14.8128220  13.4637330  10.9141040  30.2619460  14.2680540
  11.8091830  30.6004430  14.2899300  10.9458670  29.5398870  13.6404820
   4.5537200  25.6346510  12.4967540   4.9912070  26.1776180  13.1525120
   5.0384930  24.8093460  12.5063880   1.7683000  28.4235540  19.9487800
   2.0986010  27.5556600  19.7166440   2.1974000  28.6294060  20.7792760
   6.3644920  26.7544550  17.6089770   6.0640460  26.6309520  18.5093680
   6.2582410  25.8953140  17.2005500   2.2573210  29.2906130  22.6869430
   1.8204200  29.4706930  23.5193580   2.8250890  30.0480750  22.5451150
  17.8935390  28.7923130  26.9746740  17.2937380  28.8515690  26.2310660
  18.0229290  27.8528110  27.1043590  19.1336840  26.5340950  12.3116450
  18.3029800  26.6017600  12.7823680  19.3108670  27.4245070  12.0083310
  18.5893300  23.2788430  14.8150650  19.3512210  23.8485080  14.9210340
  18.6047670  22.7115630  15.5858960  19.5953270  24.1338530  19.6592580
  19.9662100  23.3505850  19.2528550  20.2355200  24.8227630  19.4809880
  16.5787030  25.5175110  25.0722900  15.7646870  25.9472270  25.3348690
  16.9861230  26.1293520  24.4591950  18.6412470  23.5722800  11.9723170
  18.9161310  24.4801680  11.8442390  18.4523210  23.5085330  12.9085160
  15.0388080  16.5967650  13.2676800  15.4572960  16.4098630  12.4273460
  14.7324140  15.7446700  13.5779730  18.5377810  21.5091790  16.9652600
  18.1621410  20.7419720  16.5333890  17.8080930  21.8914490  17.4527530
   3.1273570  22.1878930  23.5861650   3.4946610  22.1006330  24.4657670
   2.5584390  21.4245480  23.4868510  17.9277430  20.6563310  26.5992120
  17.6963520  20.4276060  25.6990070  18.1881980  21.5762860  26.5537010
   2.6789570  19.0988020  27.4920070   1.7845620  19.0654780  27.8313780
   3.2187120  19.2974810  28.2571320  16.3665500  15.8819740  29.3771820
  17.2435680  15.8903140  29.7605820  16.3786340  15.1450580  28.7664170
  17.8128770  19.7349280  20.2659840  18.3366250  19.2411930  19.6350010
  18.3988190  19.8699640  21.0107410  17.9918490  19.8189150  23.7879390
  17.0421200  19.7852690  23.9024380  18.1731500  20.7289260  23.5529160
   3.8462930  18.0690830  12.8978020   4.5554630  17.6474050  12.4125300
   3.1302870  18.1366060  12.2661370   3.4937090  14.1230160  11.9380670
   4.2165220  14.6639100  12.2561890   3.7661610  13.8493580  11.0622210
  17.3028740  18.9922630  16.2052250  17.7987860  18.7593500  16.9901130
  17.1044810  18.1534470  15.7889890   3.1829280  13.3736350  21.8403290
   3.8305470  12.8233730  21.3998450   3.6031120  13.6279500  22.6619100
  18.7315900  17.6283580  18.7389930  18.6215180  17.4739620  19.6772200
  19.4923490  17.1004520  18.4965340  17.0781620  13.5677710  25.1972930
  17.7153840  14.1811850  25.5632120  17.2256510  13.6038370  24.2522160
  19.6206170  15.4591500  11.9796070  20.5455480  15.3272680  11.7714360
  19.5981960  15.5384320  12.9332520  19.6944660  16.2302160  14.6052780
  18.8996160  16.1647280  15.1345690  19.8987940  17.1652800  14.5938130
  16.6363080  30.2693710  18.5991170  17.2322150  29.9478280  17.9225590
  16.8941230  29.7965530  19.3904440   2.9361280  13.5292020  24.5828610
   2.5876100  13.9855840  25.3486790   2.6048980  12.6349150  24.6651040
   4.5425650  26.7011620  28.7481800   4.4995280  26.3304530  29.6296260
   4.6736660  27.6389190  28.8883620   8.2431680  28.2571210  24.3491520
   8.0023040  28.5245770  23.4622040   9.1834320  28.4276940  24.4042380
  10.4486100  14.7203900  28.1048030  10.3874990  15.3125730  28.8543440
  11.3886480  14.6129860  27.9598290  13.0860660  14.3773960  27.7440320
  13.7001070  14.6953250  27.0821400  13.6310220  13.8922550  28.3636180
  19.5035840  30.2765590  25.1502160  19.0094120  30.6734460  24.4329290
  18.8949130  29.6514800  25.5439440   3.6081920  13.0568220  27.8579380
   4.1564910  12.8756270  27.0945490   3.6737230  12.2662330  28.3935690
   4.3813680  29.6473870  25.8679580   3.7874000  29.5158570  26.6069620
   4.3737520  28.8112010  25.4021680  13.8268700  12.9406100  24.0709610
  12.9528540  13.2741210  23.8682540  13.7179450  12.4679280  24.8961480
  14.7340680  15.1476970  25.4551330  14.4054040  14.3328730  25.0753060
  15.6822980  15.1046780  25.3317020  17.1875290  30.9189010  22.4288900
  16.7278260  31.6704820  22.0546920  16.5587750  30.1995480  22.3703700
   4.0125910  27.0132250  24.8187620   3.2859970  26.3937540  24.7513570
   4.0735060  27.4072860  23.9485700   7.6171010  29.2277250  21.6037030
   8.1336030  28.6164610  21.0785290   8.2668390  29.7306030  22.0948040
  10.3566510  30.1185740  22.4306010  10.6444320  29.8640040  21.5539020
  10.8689730  29.5663100  23.0211580  11.5743520  13.8575940  23.0102520
  10.7915310  14.3321440  23.2899280  11.2806450  12.9530770  22.9015700
  16.1264590  14.5599040  21.0551610  16.5672680  14.5044140  20.2073210
  15.8572180  15.4757050  21.1261790  17.9903160  14.1914280  19.0660430
  17.9291560  13.2475500  18.9191450  18.7695190  14.2994370  19.6113890
   2.9183930  14.1623420  15.5316240   3.6763290  14.2752300  14.9580270
   2.4561100  14.9992620  15.4859670   9.4597740  16.2762690  18.5218550
   8.6472250  15.9019580  18.1814430   9.9639380  15.5207770  18.8239740
  13.9622720  12.9405140  19.7601620  14.5652090  13.5125350  20.2350140
  13.2215710  13.5044580  19.5375520  17.1057320  13.3426700  15.0341900
  17.3007950  14.2410150  15.3009330  16.3187190  13.1113780  15.5274850
   3.9018610  29.0239870  15.4734520   3.3766230  29.4047900  14.7696480
   3.8263190  29.6490640  16.1944230   5.2909080  14.6887470  14.0718210
   5.8201840  13.9017270  13.9426160   5.9237400  15.3678660  14.3053740
   7.4846920  14.4262610  17.1263600   6.8549660  13.7249920  17.2933730
   6.9452060  15.1866740  16.9096760  10.4238870  31.0401840  29.7974210
  11.3506180  30.8046110  29.8410170  10.4089300  31.8673840  29.3160240
  18.6583930  30.5827410  16.7948460  18.8336120  29.8965150  16.1509380
  17.9605500  31.1074460  16.4025130   7.6102480  13.7046590  29.5616090
   7.3286750  14.2080190  28.7976910   7.9922180  12.9068340  29.1958220
   6.5011580  30.9722250  14.3483770   7.2330400  30.6881530  13.8007660
   6.7605250  30.7335530  15.2383150   5.6626370  27.0886980  14.3530100
   5.0335250  27.5572080  14.9015930   5.7774200  26.2436200  14.7876290
  14.2117940  13.1200170  30.1396560  14.0983390  13.4394780  31.0348080
  15.0287680  13.5212680  29.8433840  16.9916430  30.2671700  29.6215250
  17.7841750  29.7720930  29.4141210  17.2849580  30.9461840  30.2290860
  11.2494130  22.9171660   2.3840570  10.4736230  22.4372100   2.6739140
  11.9007060  22.2377310   2.2096730   5.2659960  23.2291470   3.2616330
   4.4344840  22.9740180   3.6612840   5.8740940  23.3002240   3.9974250
   5.2461220  27.2631560   3.4574350   5.5489260  26.3729300   3.2784570
   5.9904810  27.8201780   3.2296600  10.6903120  25.5928850   2.3910730
  10.6211400  24.6518790   2.2299860  11.4522980  25.6830260   2.9633300
   2.8809790  16.1983370   4.7167350   2.7012630  15.3009120   4.9970110
   2.4789870  16.7455240   5.3914300  11.7208290  18.3999230   2.6179660
  12.0973110  17.5271110   2.5053330  11.6227800  18.7357930   1.7270100
   3.4996460  18.6943870   3.3249690   4.1806570  18.9582240   3.9437090
   3.1844510  17.8544740   3.6587700   7.6921030  19.7411230   2.4122280
   8.1999250  20.2392200   3.0527300   8.2234270  18.9646430   2.2361640
  19.7931960  17.9116420   6.1151630  19.0884130  18.2998130   5.5966740
  20.0589880  18.6066710   6.7172560   5.9757130  14.3809790   6.6785700
   5.9775570  14.8982180   5.8731600   5.1461440  13.9039970   6.6555630
   7.2259980  24.0204970   4.8559200   6.8929360  24.6473890   5.4980270
   7.4026660  24.5466850   4.0760870  15.7393890  17.8350050   2.3235540
  15.0349460  18.1234940   2.9038650  16.1006050  18.6450160   1.9635100
   5.6572460  16.0919750   4.6856150   5.9989270  16.9361800   4.3910020
   4.7188270  16.2403490   4.8021490   6.4379080  25.9885770   6.6708380
   7.0553080  26.6636850   6.3892830   5.5772200  26.3973750   6.5795880
  17.3556670  27.4525180   4.5863020  16.6720190  28.1224290   4.5779690
  17.8950960  27.6505830   3.8207880  18.8080810  17.2804840   2.7144750
  17.8605720  17.3143820   2.8460180  19.1330800  18.0943790   3.0994110
  14.8915410  29.2969310   3.3008200  14.9042570  28.8931600   2.4330460
  14.3390630  30.0716600   3.1969630  14.2900850  24.1999150   4.6290810
  14.7069640  23.9859260   3.7944270  15.0140670  24.4571940   5.1999430
  18.2362950  22.5986370   4.7207050  17.4081580  22.6679460   4.2457180
  18.8313430  23.1840680   4.2522880  15.2004960  19.3855690   5.6661920
  14.7876140  20.2109400   5.9201910  14.4680910  18.8000730   5.4738280
   7.8019450  25.8583150   2.6919800   7.5047740  25.2528620   2.0127580
   8.7519270  25.8960460   2.5809160   6.0466370  18.9458800   4.3079630
   6.5980960  19.0554140   3.5332880   6.5609880  19.3196400   5.0234860
  15.8905060  29.4315020   6.3542900  15.4135620  30.2387210   6.1615510
  15.2066850  28.7793350   6.5069110   6.8937880  25.5964840   9.3427600
   5.9966410  25.8204810   9.5901000   6.9190750  25.7199780   8.3939000
   5.7209100  22.4678160   7.9184970   5.5816870  23.3400960   8.2872370
   4.8390460  22.1250970   7.7732910   7.5189450  28.4099860  10.1270120
   7.4904880  28.8142810   9.2598550   7.3554420  27.4810220   9.9641720
  19.4704270  29.1926960  11.4234290  19.9463990  29.6709850  12.1023370
  20.0911430  29.1244450  10.6979790  18.8737520  26.3839810   8.5834300
  19.0000580  26.1451690   7.6651480  18.9158900  25.5524350   9.0556380
  12.7354260  30.0867810   7.1529110  13.2498930  29.9975820   7.9551540
  11.8923340  30.4327510   7.4457020  18.7261530  18.4372270   9.5484040
  18.1105800  18.9451940   9.0199500  18.4057950  17.5370600   9.4909980
  10.7875850  17.2764160   7.0146230  10.3255220  17.4847180   7.8266170
  10.3853960  16.4623510   6.7116900  15.7880360  18.4973110   8.1442890
  14.9373950  18.1978860   8.4651960  15.6282150  18.7415120   7.2326710
  12.8830070  19.9974860  10.2441680  13.2083480  19.1638610   9.9043910
  13.6710400  20.5203380  10.3920010   8.5381940  14.9542970   3.2700510
   8.8354270  15.8605800   3.1892530   9.0867500  14.4661750   2.6560080
   8.7319470  20.4314790   9.8052430   8.6363070  19.4909520   9.6552830
   9.5751450  20.6529860   9.4100500   3.8630010  16.8428460   7.9586210
   3.4693400  17.6903670   8.1658990   3.1748410  16.2054830   8.1494850
  10.4375060  16.9263430  11.0282950   9.7473380  16.7335630  11.6629040
  11.1807360  17.2098070  11.5607250  12.7138030  20.7661870   3.8636870
  11.9819150  21.2748680   4.2126970  12.3162370  19.9491850   3.5625650
   9.1515420  17.4416070   2.2689360   9.1551480  17.0006020   1.4193900
  10.0466540  17.7633400   2.3761180  13.1763940  16.2195550   3.2759810
  13.1936680  16.6704200   4.1201660  12.9279520  15.3201190   3.4893250
  16.6034690  13.6327730   9.1146190  16.9280460  12.9017390   9.6404170
  16.6391200  13.3141370   8.2127180   3.3026250  24.6541310   8.5346150
   2.9181040  24.0134980   9.1329110   3.6138440  25.3577430   9.1040880
   9.4523390  21.5017850   4.0154770   9.8193520  21.0276420   4.7616110
   9.2628450  22.3759420   4.3563110   7.2422760  20.5426490   6.3338980
   6.9379830  21.4218470   6.5589340   8.1969220  20.6026280   6.3696420
  16.5292530  23.7452840   2.7232220  17.2491650  24.2408130   2.3328330
  16.3274350  23.0670730   2.0786090  11.9111330  23.8161900   8.6101220
  11.8448640  22.8957570   8.3558810  11.2816470  23.9137340   9.3245860
   3.2986490  21.3829230   7.4810340   2.9401430  22.0483080   8.0683680
   3.0041050  20.5512780   7.8522960   6.4999610  21.8413470  10.3649890
   6.1999750  21.9870650   9.4677710   7.2710850  21.2818760  10.2723280
  11.8428060  26.6382470   8.3605020  11.8572600  25.7063430   8.1423930
  11.1353160  26.7242230   8.9994790  18.0539270  23.2789810   7.7073600
  17.3287460  23.8718590   7.5102990  18.5814730  23.2713350   6.9086970
  11.2761960  28.2800040   5.4545520  11.9204180  28.4859420   6.1318940
  11.6391400  27.5188440   5.0016370  12.5494040  26.2832390   4.1722970
  13.1916270  25.5825550   4.2855140  13.0743390  27.0630830   3.9919860
  14.3231660  27.0827290   7.3759030  14.6587900  27.6693980   8.0536950
  13.4032000  26.9520000   7.6056820  10.1520240  27.1318620  10.5447090
   9.8317110  26.4127860  11.0892780   9.4778600  27.8073690  10.6183150
  13.3673840  17.3644780   5.9083890  13.7354660  16.5439990   6.2363460
  12.5072040  17.4246670   6.3239540  10.3275830  20.0184370   6.1321860
  10.8261080  20.4930190   6.7973710  10.4698780  19.0947890   6.3391890
  17.5342690  16.2352330   6.9750250  17.0316290  16.9757730   7.3144060
  18.3499350  16.6236330   6.6587040  17.8290280  28.6494360   2.0965870
  17.9537700  29.4725530   2.5689680  18.6955840  28.4385090   1.7490020
   5.3007810  30.7425570   1.7683000   6.0370290  30.1941030   2.0391570
   5.6848730  31.6081580   1.6288990   4.3066090  29.9271640  10.9568580
   5.1078820  30.2483690  11.3703980   3.7917910  29.5667220  11.6788490
  13.1430720  26.0351510  10.9043990  12.5368880  26.0583110  10.1639740
  12.8384830  25.3034550  11.4411240  14.5731090  29.7631800   9.5153400
  15.5252840  29.6789820   9.4653640  14.4259310  30.4273510  10.1887190
   9.0801840  23.8216090   9.4340150   8.3147510  24.3901090   9.3494820
   9.2617800  23.5292300   8.5408380  16.2225190  25.5521420   9.9915170
  16.9634660  25.8897180   9.4882630  15.4597870  25.7213480   9.4384940
   4.0586980  20.5574690  10.7954700   4.0992320  20.2588560  11.7039930
   4.9132480  20.9582300  10.6362220   5.9992790  19.1366790   8.7629190
   5.4689250  18.6457740   8.1352530   6.6680860  19.5650990   8.2287120
  14.8970850  23.6036250   8.5270380  15.3111870  23.7581330   9.3760800
  13.9621850  23.7291470   8.6896160  15.3693020  20.9432410  10.5309530
  15.9513790  20.1884730  10.4430010  15.5454790  21.4739850   9.7541010
   6.4865090  16.1029160   8.8426480   6.3921960  15.4849910   8.1177350
   5.9062480  16.8295450   8.6156390   9.2526530  14.6602400   5.8753870
   8.8043830  14.6826660   5.0299420   8.6191730  14.2621420   6.4724170
   9.6586080  23.5556730   6.4966310  10.0774190  24.3989460   6.3242550
   8.7394710  23.6928770   6.2673090  11.9949980  21.2872910   7.8804150
  12.1146190  20.6914050   8.6198990  12.8543980  21.3242600   7.4605450
  14.3337880  21.8410100   6.4566660  13.8073100  22.3652720   5.8531800
  14.6769220  22.4737490   7.0876390   7.5093500  29.8609740   7.6124040
   6.9714590  30.5855800   7.2932740   7.7627460  29.3840080   6.8221380
   8.7618750  17.8294260   9.1379970   9.3518440  17.5210110   9.8257790
   7.9438990  17.3574010   9.2939870  13.5812180  17.4460070   9.3712990
  12.8927700  16.7841610   9.3062980  14.3018200  16.9998340   9.8161450
  10.3655710  31.0960950   7.8710690  10.2914410  31.9996090   8.1783060
   9.4634550  30.7772850   7.8432760   2.2573210  29.2906130   3.9125940
   1.8204200  29.4706930   4.7450090   2.8250890  30.0480750   3.7707660
  17.8935390  28.7923130   8.2003250  17.2937380  28.8515690   7.4567170
  18.0229290  27.8528110   8.3300100  16.5787030  25.5175110   6.2979410
  15.7646870  25.9472270   6.5605200  16.9861230  26.1293520   5.6848460
   3.1273570  22.1878930   4.8118160   3.4946610  22.1006330   5.6914180
   2.5584390  21.4245480   4.7125020  17.9277430  20.6563310   7.8248630
  17.6963520  20.4276060   6.9246580  18.1881980  21.5762860   7.7793520
   2.6789570  19.0988020   8.7176580   1.7845620  19.0654780   9.0570290
   3.2187120  19.2974810   9.4827830  16.3665500  15.8819740  10.6028330
  17.2435680  15.8903140  10.9862330  16.3786340  15.1450580   9.9920680
  17.9918490  19.8189150   5.0135900  17.0421200  19.7852690   5.1280890
  18.1731500  20.7289260   4.7785670   3.1829280  13.3736350   3.0659800
   3.8305470  12.8233730   2.6254960   3.6031120  13.6279500   3.8875610
  17.0781620  13.5677710   6.4229440  17.7153840  14.1811850   6.7888630
  17.2256510  13.6038370   5.4778670   2.9361280  13.5292020   5.8085120
   2.5876100  13.9855840   6.5743300   2.6048980  12.6349150   5.8907550
   4.5425650  26.7011620   9.9738310   4.4995280  26.3304530  10.8552770
   4.6736660  27.6389190  10.1140130   8.2431680  28.2571210   5.5748030
   8.0023040  28.5245770   4.6878550   9.1834320  28.4276940   5.6298890
  10.4486100  14.7203900   9.3304540  10.3874990  15.3125730  10.0799950
  11.3886480  14.6129860   9.1854800  13.0860660  14.3773960   8.9696830
  13.7001070  14.6953250   8.3077910  13.6310220  13.8922550   9.5892690
  19.5035840  30.2765590   6.3758670  19.0094120  30.6734460   5.6585800
  18.8949130  29.6514800   6.7695950   3.6081920  13.0568220   9.0835890
   4.1564910  12.8756270   8.3202000   3.6737230  12.2662330   9.6192200
   4.3813680  29.6473870   7.0936090   3.7874000  29.5158570   7.8326130
   4.3737520  28.8112010   6.6278190  13.8268700  12.9406100   5.2966120
  12.9528540  13.2741210   5.0939050  13.7179450  12.4679280   6.1217990
  14.7340680  15.1476970   6.6807840  14.4054040  14.3328730   6.3009570
  15.6822980  15.1046780   6.5573530  17.1875290  30.9189010   3.6545410
  16.7278260  31.6704820   3.2803430  16.5587750  30.1995480   3.5960210
   4.0125910  27.0132250   6.0444130   3.2859970  26.3937540   5.9770080
   4.0735060  27.4072860   5.1742210   7.6171010  29.2277250   2.8293540
   8.1336030  28.6164610   2.3041800   8.2668390  29.7306030   3.3204550
  10.3566510  30.1185740   3.6562520  10.6444320  29.8640040   2.7795530
  10.8689730  29.5663100   4.2468090  11.5743520  13.8575940   4.2359030
  10.7915310  14.3321440   4.5155790  11.2806450  12.9530770   4.1272210
  16.1264590  14.5599040   2.2808120  16.5672680  14.5044140   1.4329720
  15.8572180  15.4757050   2.3518300  10.4238870  31.0401840  11.0230720
  11.3506180  30.8046110  11.0666680  10.4089300  31.8673840  10.5416750
   7.6102480  13.7046590  10.7872600   7.3286750  14.2080190  10.0233420
   7.9922180  12.9068340  10.4214730  14.2117940  13.1200170  11.3653070
  14.0983390  13.4394780  12.2604590  15.0287680  13.5212680  11.0690350
  16.9916430  30.2671700  10.8471760  17.7841750  29.7720930  10.6397720
  17.2849580  30.9461840  11.4547370  13.1176090   2.3649150 150.6979220
  13.0370140   1.4503760 150.4270930  12.7040510   2.8616220 149.9918930
  11.2494130   4.1428170 152.5788490  10.4736230   3.6628610 152.8687060
  11.9007060   3.4633820 152.4044650  15.2701560   8.5488360 151.3587620
  14.8083090   7.7775600 151.6874790  16.0827110   8.5754430 151.8640070
  11.4964870  10.8346370 150.9791610  10.8776310  11.2903870 150.4086050
  12.3516650  10.9897830 150.5781310  10.6903120   6.8185360 152.5858650
  10.6211400   5.8775300 152.4247780  11.4522980   6.9086770 153.1581220
  12.3628220   5.7185610 148.3723520  11.7445490   6.1835060 147.8086240
  12.8751470   6.4113090 148.7893030  16.1860830   7.2442040 148.5846290
  16.0757160   6.3016370 148.7095710  16.1829080   7.6057680 149.4709050
  11.7281110   2.8707360 147.9408780  10.8010390   2.8044740 148.1697250
  11.8805930   3.8087490 147.8264020  15.7578400   4.4327660 148.4444030
  15.1390820   4.0947210 147.7970330  15.7402850   3.7887420 149.1523220
   7.3337750   3.3972100 150.7228510   6.9294750   2.6849350 150.2274410
   7.4200870   3.0525340 151.6116550   7.8019450   7.0839660 152.8867720
   7.5047740   6.4785130 152.2075500   8.7519270   7.1216970 152.7757080
  13.9343100   3.6714470 145.4516780  14.3736380   2.8336900 145.3054600
  14.6471520   4.3043870 145.5380920  12.0438480   8.6110540 149.4198020
  12.4834390   9.3534870 149.0053410  11.9825370   8.8537110 150.3436980
   4.0342380   2.2917080 148.2235160   3.9139980   3.0179170 147.6116430
   3.7243270   1.5219990 147.7463070   2.9175380   7.1632410 150.4409980
   2.5103460   7.3047000 149.5863580   3.8088390   6.8792570 150.2381190
  14.7108660  11.5979660 146.7761030  14.5509800  11.3082600 147.6742860
  14.5455370  10.8219790 146.2406260   7.1897040  11.3778190 148.5532650
   7.0139520  10.4613730 148.3400450   6.3352780  11.7365480 148.7930450
  14.4134790   9.1067220 145.3359030  13.7199950   9.1044510 144.6761310
  15.1557650   8.6826540 144.9053200  13.9784720  10.7329930 149.4107520
  14.4341670   9.9519310 149.7246140  14.3177240  11.4436750 149.9548700
   8.2257070   1.9785800 144.8527340   7.6573970   1.5304050 144.2263250
   8.9346070   2.3378580 144.3192490   5.7704550   5.9743990 147.1253750
   4.9966810   5.4341610 146.9652470   6.4999180   5.4550600 146.7871510
  16.5292530   4.9709350 152.9180140  17.2491650   5.4664640 152.5276250
  16.3274350   4.2927240 152.2734010   5.8141950   5.6424370 150.7632560
   6.3320620   4.8392630 150.7089450   5.3625970   5.5803510 151.6049390
  10.7011450   6.9090650 146.0359860  11.0427150   7.6532880 145.5403180
   9.8724160   7.2221770 146.3984690  16.9765130   2.0478800 144.8251550
  16.8928850   2.4793020 143.9747990  17.6959320   2.5077150 145.2578370
  18.0052380   8.9021060 147.5533680  17.3628540   8.2476680 147.8277400
  17.6183040   9.3076150 146.7774350  13.5838860   6.2306490 151.4005370
  13.9362680   5.6334620 150.7406740  12.7001190   5.9050720 151.5713620
   9.6702140   6.9904180 148.8075780  10.3573270   7.5373390 149.1883370
   8.8834560   7.5344910 148.8425390   8.9729350   3.9950210 148.4201140
   9.4292130   4.8055460 148.6461330   8.6217560   3.6773350 149.2519630
  16.3949760   7.7937520 144.0910030  16.1687340   7.0767960 144.6834670
  16.0045960   7.5449960 143.2531780   2.1765790  11.8204380 144.8654490
   2.5363430  12.4193720 144.2111760   2.0358130  12.3664270 145.6389520
  15.9766010   5.7109460 145.7524190  15.6887710   6.1722150 146.5402070
  16.7718180   5.2507230 146.0208410   8.1934410   9.2035580 145.6828160
   8.1844510   9.9365270 145.0672670   7.2732770   8.9567160 145.7755120
   3.7941050   4.4250470 146.4274920   3.1869000   5.1649370 146.4370220
   4.2690400   4.5149830 145.6013120  11.1794010   9.2663820 144.3453350
  11.2805990   9.0627810 143.4155330  10.2795750   9.0122100 144.5501130
   9.8212120  11.7850140 149.0401020  10.0753620  11.7471530 148.1180390
   8.8724600  11.6583470 149.0329270  15.8264700   2.7042020 150.6159530
  14.8854840   2.7192250 150.7907220  16.1408770   1.9177980 151.0619830
   5.8046340   4.3861620 144.1763490   6.5709610   4.2742980 144.7388920
   5.8821030   3.6899590 143.5240260  17.8290280   9.8750870 152.2913790
  17.9537700  10.6982040 152.7637600  18.6955840   9.6641600 151.9437940
   5.3007810  11.9682080 151.9630920   6.0370290  11.4197540 152.2339490
   5.6848730  12.8338090 151.8236910   8.4110120  11.1412390 143.7856490
   9.2038730  11.4301220 143.3338280   7.8914470  10.7104560 143.1068970
  17.4640290  10.3682520 145.2093230  17.1781800   9.9547660 144.3947410
  17.2659840  11.2970230 145.0893750   8.9287520   6.3615800 143.6498840
   8.8238160   5.7468150 144.3760220   8.7611740   5.8381690 142.8661850
  12.1690250   5.4235830 144.2540830  11.6200350   5.8705130 144.8983570
  12.7909510   4.9185080 144.7778500   7.8365370   4.3826750 146.1506130
   8.2581790   4.2166620 146.9937520   7.9616210   3.5726980 145.6561270
  10.3493010   3.4064360 143.3983230  10.8698670   2.6913380 143.0324380
  10.9961410   4.0450230 143.6983740  10.9141040  11.4875970 145.6884970
  11.8091830  11.8260940 145.7103730  10.9458670  10.7655380 145.0609250
   4.5537200   6.8603020 143.9171970   4.9912070   7.4032690 144.5729550
   5.0384930   6.0349970 143.9268310   1.7683000   9.6492050 151.3692230
   2.0986010   8.7813110 151.1370870   2.1974000   9.8550570 152.1997190
   6.3644920   7.9801060 149.0294200   6.0640460   7.8566030 149.9298110
   6.2582410   7.1209650 148.6209930  19.1336840   7.7597460 143.7320880
  18.3029800   7.8274110 144.2028110  19.3108670   8.6501580 143.4287740
  18.5893300   4.5044940 146.2355080  19.3512210   5.0741590 146.3414770
  18.6047670   3.9372140 147.0063390  19.5953270   5.3595040 151.0797010
  19.9662100   4.5762360 150.6732980  20.2355200   6.0484140 150.9014310
  18.6412470   4.7979310 143.3927600  18.9161310   5.7058190 143.2646820
  18.4523210   4.7341840 144.3289590  18.5377810   2.7348300 148.3857030
  18.1621410   1.9676230 147.9538320  17.8080930   3.1171000 148.8731960
  16.6363080  11.4950220 150.0195600  17.2322150  11.1734790 149.3430020
  16.8941230  11.0222040 150.8108870   3.9018610  10.2496380 146.8938950
   3.3766230  10.6304410 146.1900910   3.8263190  10.8747150 147.6148660
  18.6583930  11.8083920 148.2152890  18.8336120  11.1221660 147.5713810
  17.9605500  12.3330970 147.8229560   6.5011580  12.1978760 145.7688200
   7.2330400  11.9138040 145.2212090   6.7605250  11.9592040 146.6587580
   5.6626370   8.3143490 145.7734530   5.0335250   8.7828590 146.3220360
   5.7774200   7.4692710 146.2080720  13.1176090   2.3649150 131.9235730
  13.0370140   1.4503760 131.6527440  12.7040510   2.8616220 131.2175440
  11.2494130   4.1428170 133.8045000  10.4736230   3.6628610 134.0943570
  11.9007060   3.4633820 133.6301160   5.2659960   4.4547980 134.6820760
   4.4344840   4.1996690 135.0817270   5.8740940   4.5258750 135.4178680
  15.2701560   8.5488360 132.5844130  14.8083090   7.7775600 132.9131300
  16.0827110   8.5754430 133.0896580   5.2461220   8.4888070 134.8778780
   5.5489260   7.5985810 134.6989000   5.9904810   9.0458290 134.6501030
  11.4964870  10.8346370 132.2048120  10.8776310  11.2903870 131.6342560
  12.3516650  10.9897830 131.8037820  10.6903120   6.8185360 133.8115160
  10.6211400   5.8775300 133.6504290  11.4522980   6.9086770 134.3837730
  12.3628220   5.7185610 129.5980030  11.7445490   6.1835060 129.0342750
  12.8751470   6.4113090 130.0149540   7.2259980   5.2461480 136.2763630
   6.8929360   5.8730400 136.9184700   7.4026660   5.7723360 135.4965300
   6.4379080   7.2142280 138.0912810   7.0553080   7.8893360 137.8097260
   5.5772200   7.6230260 138.0000310  17.3556670   8.6781690 136.0067450
  16.6720190   9.3480800 135.9984120  17.8950960   8.8762340 135.2412310
  14.8915410  10.5225820 134.7212630  14.9042570  10.1188110 133.8534890
  14.3390630  11.2973110 134.6174060  16.1860830   7.2442040 129.8102800
  16.0757160   6.3016370 129.9352220  16.1829080   7.6057680 130.6965560
  14.2900850   5.4255660 136.0495240  14.7069640   5.2115770 135.2148700
  15.0140670   5.6828450 136.6203860  11.7281110   2.8707360 129.1665290
  10.8010390   2.8044740 129.3953760  11.8805930   3.8087490 129.0520530
  18.2362950   3.8242880 136.1411480  17.4081580   3.8935970 135.6661610
  18.8313430   4.4097190 135.6727310  15.7578400   4.4327660 129.6700540
  15.1390820   4.0947210 129.0226840  15.7402850   3.7887420 130.3779730
   7.3337750   3.3972100 131.9485020   6.9294750   2.6849350 131.4530920
   7.4200870   3.0525340 132.8373060   7.8019450   7.0839660 134.1124230
   7.5047740   6.4785130 133.4332010   8.7519270   7.1216970 134.0013590
  15.8905060  10.6571530 137.7747330  15.4135620  11.4643720 137.5819940
  15.2066850  10.0049860 137.9273540   6.8937880   6.8221350 140.7632030
   5.9966410   7.0461320 141.0105430   6.9190750   6.9456290 139.8143430
  13.9343100   3.6714470 126.6773290  14.3736380   2.8336900 126.5311110
  14.6471520   4.3043870 126.7637430   5.7209100   3.6934670 139.3389400
   5.5816870   4.5657470 139.7076800   4.8390460   3.3507480 139.1937340
  12.0438480   8.6110540 130.6454530  12.4834390   9.3534870 130.2309920
  11.9825370   8.8537110 131.5693490   7.5189450   9.6356370 141.5474550
   7.4904880  10.0399320 140.6802980   7.3554420   8.7066730 141.3846150
   4.0342380   2.2917080 129.4491670   3.9139980   3.0179170 128.8372940
   3.7243270   1.5219990 128.9719580  19.4704270  10.4183470 142.8438720
  19.9463990  10.8966360 143.5227800  20.0911430  10.3500960 142.1184220
   2.9175380   7.1632410 131.6666490   2.5103460   7.3047000 130.8120090
   3.8088390   6.8792570 131.4637700  18.8737520   7.6096320 140.0038730
  19.0000580   7.3708200 139.0855910  18.9158900   6.7780860 140.4760810
  12.7354260  11.3124320 138.5733540  13.2498930  11.2232330 139.3755970
  11.8923340  11.6584020 138.8661450  14.7108660  11.5979660 128.0017540
  14.5509800  11.3082600 128.8999370  14.5455370  10.8219790 127.4662770
   7.1897040  11.3778190 129.7789160   7.0139520  10.4613730 129.5656960
   6.3352780  11.7365480 130.0186960  14.4134790   9.1067220 126.5615540
  13.7199950   9.1044510 125.9017820  15.1557650   8.6826540 126.1309710
  13.9784720  10.7329930 130.6364030  14.4341670   9.9519310 130.9502650
  14.3177240  11.4436750 131.1805210   8.2257070   1.9785800 126.0783850
   7.6573970   1.5304050 125.4519760   8.9346070   2.3378580 125.5449000
   3.3026250   5.8797820 139.9550580   2.9181040   5.2391490 140.5533540
   3.6138440   6.5833940 140.5245310   9.4523390   2.7274360 135.4359200
   9.8193520   2.2532930 136.1820540   9.2628450   3.6015930 135.7767540
   7.2422760   1.7683000 137.7543410   6.9379830   2.6474980 137.9793770
   8.1969220   1.8282790 137.7900850   5.7704550   5.9743990 128.3510260
   4.9966810   5.4341610 128.1908980   6.4999180   5.4550600 128.0128020
  16.5292530   4.9709350 134.1436650  17.2491650   5.4664640 133.7532760
  16.3274350   4.2927240 133.4990520  11.9111330   5.0418410 140.0305650
  11.8448640   4.1214080 139.7763240  11.2816470   5.1393850 140.7450290
   5.8141950   5.6424370 131.9889070   6.3320620   4.8392630 131.9345960
   5.3625970   5.5803510 132.8305900  10.7011450   6.9090650 127.2616370
  11.0427150   7.6532880 126.7659690   9.8724160   7.2221770 127.6241200
   3.2986490   2.6085740 138.9014770   2.9401430   3.2739590 139.4888110
   3.0041050   1.7769290 139.2727390   6.4999610   3.0669980 141.7854320
   6.1999750   3.2127160 140.8882140   7.2710850   2.5075270 141.6927710
  11.8428060   7.8638980 139.7809450  11.8572600   6.9319940 139.5628360
  11.1353160   7.9498740 140.4199220  16.9765130   2.0478800 126.0508060
  16.8928850   2.4793020 125.2004500  17.6959320   2.5077150 126.4834880
  18.0539270   4.5046320 139.1278030  17.3287460   5.0975100 138.9307420
  18.5814730   4.4969860 138.3291400  18.0052380   8.9021060 128.7790190
  17.3628540   8.2476680 129.0533910  17.6183040   9.3076150 128.0030860
  13.5838860   6.2306490 132.6261880  13.9362680   5.6334620 131.9663250
  12.7001190   5.9050720 132.7970130   9.6702140   6.9904180 130.0332290
  10.3573270   7.5373390 130.4139880   8.8834560   7.5344910 130.0681900
   8.9729350   3.9950210 129.6457650   9.4292130   4.8055460 129.8717840
   8.6217560   3.6773350 130.4776140  11.2761960   9.5056550 136.8749950
  11.9204180   9.7115930 137.5523370  11.6391400   8.7444950 136.4220800
  12.5494040   7.5088900 135.5927400  13.1916270   6.8082060 135.7059570
  13.0743390   8.2887340 135.4124290  16.3949760   7.7937520 125.3166540
  16.1687340   7.0767960 125.9091180  16.0045960   7.5449960 124.4788290
  14.3231660   8.3083800 138.7963460  14.6587900   8.8950490 139.4741380
  13.4032000   8.1776510 139.0261250   2.1765790  11.8204380 126.0911000
   2.5363430  12.4193720 125.4368270   2.0358130  12.3664270 126.8646030
  15.9766010   5.7109460 126.9780700  15.6887710   6.1722150 127.7658580
  16.7718180   5.2507230 127.2464920  10.1520240   8.3575130 141.9651520
   9.8317110   7.6384370 142.5097210   9.4778600   9.0330200 142.0387580
   8.1934410   9.2035580 126.9084670   8.1844510   9.9365270 126.2929180
   7.2732770   8.9567160 127.0011630   3.7941050   4.4250470 127.6531430
   3.1869000   5.1649370 127.6626730   4.2690400   4.5149830 126.8269630
  11.1794010   9.2663820 125.5709860  11.2805990   9.0627810 124.6411840
  10.2795750   9.0122100 125.7757640   9.8212120  11.7850140 130.2657530
  10.0753620  11.7471530 129.3436900   8.8724600  11.6583470 130.2585780
  15.8264700   2.7042020 131.8416040  14.8854840   2.7192250 132.0163730
  16.1408770   1.9177980 132.2876340   5.8046340   4.3861620 125.4020000
   6.5709610   4.2742980 125.9645430   5.8821030   3.6899590 124.7496770
  17.8290280   9.8750870 133.5170300  17.9537700  10.6982040 133.9894110
  18.6955840   9.6641600 133.1694450   5.3007810  11.9682080 133.1887430
   6.0370290  11.4197540 133.4596000   5.6848730  12.8338090 133.0493420
   4.3066090  11.1528150 142.3773010   5.1078820  11.4740200 142.7908410
   3.7917910  10.7923730 143.0992920   8.4110120  11.1412390 125.0113000
   9.2038730  11.4301220 124.5594790   7.8914470  10.7104560 124.3325480
  13.1430720   7.2608020 142.3248420  12.5368880   7.2839620 141.5844170
  12.8384830   6.5291060 142.8615670  14.5731090  10.9888310 140.9357830
  15.5252840  10.9046330 140.8858070  14.4259310  11.6530020 141.6091620
  17.4640290  10.3682520 126.4349740  17.1781800   9.9547660 125.6203920
  17.2659840  11.2970230 126.3150260   8.9287520   6.3615800 124.8755350
   8.8238160   5.7468150 125.6016730   8.7611740   5.8381690 124.0918360
   9.0801840   5.0472600 140.8544580   8.3147510   5.6157600 140.7699250
   9.2617800   4.7548810 139.9612810  12.1690250   5.4235830 125.4797340
  11.6200350   5.8705130 126.1240080  12.7909510   4.9185080 126.0035010
  16.2225190   6.7777930 141.4119600  16.9634660   7.1153690 140.9087060
  15.4597870   6.9469990 140.8589370   4.0586980   1.7831200 142.2159130
   4.0992320   1.4845070 143.1244360   4.9132480   2.1838810 142.0566650
   7.8365370   4.3826750 127.3762640   8.2581790   4.2166620 128.2194030
   7.9616210   3.5726980 126.8817780  10.3493010   3.4064360 124.6239740
  10.8698670   2.6913380 124.2580890  10.9961410   4.0450230 124.9240250
  14.8970850   4.8292760 139.9474810  15.3111870   4.9837840 140.7965230
  13.9621850   4.9547980 140.1100590  15.3693020   2.1688920 141.9513960
  15.9513790   1.4141240 141.8634440  15.5454790   2.6996360 141.1745440
   9.6586080   4.7813240 137.9170740  10.0774190   5.6245970 137.7446980
   8.7394710   4.9185280 137.6877520  11.9949980   2.5129420 139.3008580
  12.1146190   1.9170560 140.0403420  12.8543980   2.5499110 138.8809880
  14.3337880   3.0666610 137.8771090  13.8073100   3.5909230 137.2736230
  14.6769220   3.6994000 138.5080820   7.5093500  11.0866250 139.0328470
   6.9714590  11.8112310 138.7137170   7.7627460  10.6096590 138.2425810
  10.3655710  12.3217460 139.2915120  10.2914410  13.2252600 139.5987490
   9.4634550  12.0029360 139.2637190  10.9141040  11.4875970 126.9141480
  11.8091830  11.8260940 126.9360240  10.9458670  10.7655380 126.2865760
   4.5537200   6.8603020 125.1428480   4.9912070   7.4032690 125.7986060
   5.0384930   6.0349970 125.1524820   1.7683000   9.6492050 132.5948740
   2.0986010   8.7813110 132.3627380   2.1974000   9.8550570 133.4253700
   6.3644920   7.9801060 130.2550710   6.0640460   7.8566030 131.1554620
   6.2582410   7.1209650 129.8466440   2.2573210  10.5162640 135.3330370
   1.8204200  10.6963440 136.1654520   2.8250890  11.2737260 135.1912090
  17.8935390  10.0179640 139.6207680  17.2937380  10.0772200 138.8771600
  18.0229290   9.0784620 139.7504530  19.1336840   7.7597460 124.9577390
  18.3029800   7.8274110 125.4284620  19.3108670   8.6501580 124.6544250
  18.5893300   4.5044940 127.4611590  19.3512210   5.0741590 127.5671280
  18.6047670   3.9372140 128.2319900  19.5953270   5.3595040 132.3053520
  19.9662100   4.5762360 131.8989490  20.2355200   6.0484140 132.1270820
  16.5787030   6.7431620 137.7183840  15.7646870   7.1728780 137.9809630
  16.9861230   7.3550030 137.1052890  18.6412470   4.7979310 124.6184110
  18.9161310   5.7058190 124.4903330  18.4523210   4.7341840 125.5546100
  18.5377810   2.7348300 129.6113540  18.1621410   1.9676230 129.1794830
  17.8080930   3.1171000 130.0988470   3.1273570   3.4135440 136.2322590
   3.4946610   3.3262840 137.1118610   2.5584390   2.6501990 136.1329450
  17.9277430   1.8819820 139.2453060  17.6963520   1.6532570 138.3451010
  18.1881980   2.8019370 139.1997950  16.6363080  11.4950220 131.2452110
  17.2322150  11.1734790 130.5686530  16.8941230  11.0222040 132.0365380
   4.5425650   7.9268130 141.3942740   4.4995280   7.5561040 142.2757200
   4.6736660   8.8645700 141.5344560   8.2431680   9.4827720 136.9952460
   8.0023040   9.7502280 136.1082980   9.1834320   9.6533450 137.0503320
  19.5035840  11.5022100 137.7963100  19.0094120  11.8990970 137.0790230
  18.8949130  10.8771310 138.1900380   4.3813680  10.8730380 138.5140520
   3.7874000  10.7415080 139.2530560   4.3737520  10.0368520 138.0482620
  17.1875290  12.1445520 135.0749840  16.7278260  12.8961330 134.7007860
  16.5587750  11.4251990 135.0164640   4.0125910   8.2388760 137.4648560
   3.2859970   7.6194050 137.3974510   4.0735060   8.6329370 136.5946640
   7.6171010  10.4533760 134.2497970   8.1336030   9.8421120 133.7246230
   8.2668390  10.9562540 134.7408980  10.3566510  11.3442250 135.0766950
  10.6444320  11.0896550 134.1999960  10.8689730  10.7919610 135.6672520
   3.9018610  10.2496380 128.1195460   3.3766230  10.6304410 127.4157420
   3.8263190  10.8747150 128.8405170  10.4238870  12.2658350 142.4435150
  11.3506180  12.0302620 142.4871110  10.4089300  13.0930350 141.9621180
  18.6583930  11.8083920 129.4409400  18.8336120  11.1221660 128.7970320
  17.9605500  12.3330970 129.0486070   6.5011580  12.1978760 126.9944710
   7.2330400  11.9138040 126.4468600   6.7605250  11.9592040 127.8844090
   5.6626370   8.3143490 126.9991040   5.0335250   8.7828590 127.5476870
   5.7774200   7.4692710 127.4337230  16.9916430  11.4928210 142.2676190
  17.7841750  10.9977440 142.0602150  17.2849580  12.1718350 142.8751800
  13.1176090   2.3649150 113.1492240  13.0370140   1.4503760 112.8783950
  12.7040510   2.8616220 112.4431950  11.2494130   4.1428170 115.0301510
  10.4736230   3.6628610 115.3200080  11.9007060   3.4633820 114.8557670
   5.2659960   4.4547980 115.9077270   4.4344840   4.1996690 116.3073780
   5.8740940   4.5258750 116.6435190  15.2701560   8.5488360 113.8100640
  14.8083090   7.7775600 114.1387810  16.0827110   8.5754430 114.3153090
   5.2461220   8.4888070 116.1035290   5.5489260   7.5985810 115.9245510
   5.9904810   9.0458290 115.8757540  11.4964870  10.8346370 113.4304630
  10.8776310  11.2903870 112.8599070  12.3516650  10.9897830 113.0294330
  10.6903120   6.8185360 115.0371670  10.6211400   5.8775300 114.8760800
  11.4522980   6.9086770 115.6094240  12.3628220   5.7185610 110.8236540
  11.7445490   6.1835060 110.2599260  12.8751470   6.4113090 111.2406050
   7.2259980   5.2461480 117.5020140   6.8929360   5.8730400 118.1441210
   7.4026660   5.7723360 116.7221810   6.4379080   7.2142280 119.3169320
   7.0553080   7.8893360 119.0353770   5.5772200   7.6230260 119.2256820
  17.3556670   8.6781690 117.2323960  16.6720190   9.3480800 117.2240630
  17.8950960   8.8762340 116.4668820  14.8915410  10.5225820 115.9469140
  14.9042570  10.1188110 115.0791400  14.3390630  11.2973110 115.8430570
  16.1860830   7.2442040 111.0359310  16.0757160   6.3016370 111.1608730
  16.1829080   7.6057680 111.9222070  14.2900850   5.4255660 117.2751750
  14.7069640   5.2115770 116.4405210  15.0140670   5.6828450 117.8460370
  11.7281110   2.8707360 110.3921800  10.8010390   2.8044740 110.6210270
  11.8805930   3.8087490 110.2777040  18.2362950   3.8242880 117.3667990
  17.4081580   3.8935970 116.8918120  18.8313430   4.4097190 116.8983820
  15.7578400   4.4327660 110.8957050  15.1390820   4.0947210 110.2483350
  15.7402850   3.7887420 111.6036240   7.3337750   3.3972100 113.1741530
   6.9294750   2.6849350 112.6787430   7.4200870   3.0525340 114.0629570
   7.8019450   7.0839660 115.3380740   7.5047740   6.4785130 114.6588520
   8.7519270   7.1216970 115.2270100  15.8905060  10.6571530 119.0003840
  15.4135620  11.4643720 118.8076450  15.2066850  10.0049860 119.1530050
   6.8937880   6.8221350 121.9888540   5.9966410   7.0461320 122.2361940
   6.9190750   6.9456290 121.0399940  13.9343100   3.6714470 107.9029800
  14.3736380   2.8336900 107.7567620  14.6471520   4.3043870 107.9893940
   5.7209100   3.6934670 120.5645910   5.5816870   4.5657470 120.9333310
   4.8390460   3.3507480 120.4193850  12.0438480   8.6110540 111.8711040
  12.4834390   9.3534870 111.4566430  11.9825370   8.8537110 112.7950000
   7.5189450   9.6356370 122.7731060   7.4904880  10.0399320 121.9059490
   7.3554420   8.7066730 122.6102660   4.0342380   2.2917080 110.6748180
   3.9139980   3.0179170 110.0629450   3.7243270   1.5219990 110.1976090
  19.4704270  10.4183470 124.0695230  19.9463990  10.8966360 124.7484310
  20.0911430  10.3500960 123.3440730   2.9175380   7.1632410 112.8923000
   2.5103460   7.3047000 112.0376600   3.8088390   6.8792570 112.6894210
  18.8737520   7.6096320 121.2295240  19.0000580   7.3708200 120.3112420
  18.9158900   6.7780860 121.7017320  12.7354260  11.3124320 119.7990050
  13.2498930  11.2232330 120.6012480  11.8923340  11.6584020 120.0917960
  14.7108660  11.5979660 109.2274050  14.5509800  11.3082600 110.1255880
  14.5455370  10.8219790 108.6919280   7.1897040  11.3778190 111.0045670
   7.0139520  10.4613730 110.7913470   6.3352780  11.7365480 111.2443470
  14.4134790   9.1067220 107.7872050  13.7199950   9.1044510 107.1274330
  15.1557650   8.6826540 107.3566220  13.9784720  10.7329930 111.8620540
  14.4341670   9.9519310 112.1759160  14.3177240  11.4436750 112.4061720
   8.2257070   1.9785800 107.3040360   7.6573970   1.5304050 106.6776270
   8.9346070   2.3378580 106.7705510   3.3026250   5.8797820 121.1807090
   2.9181040   5.2391490 121.7790050   3.6138440   6.5833940 121.7501820
   9.4523390   2.7274360 116.6615710   9.8193520   2.2532930 117.4077050
   9.2628450   3.6015930 117.0024050   7.2422760   1.7683000 118.9799920
   6.9379830   2.6474980 119.2050280   8.1969220   1.8282790 119.0157360
   5.7704550   5.9743990 109.5766770   4.9966810   5.4341610 109.4165490
   6.4999180   5.4550600 109.2384530  16.5292530   4.9709350 115.3693160
  17.2491650   5.4664640 114.9789270  16.3274350   4.2927240 114.7247030
  11.9111330   5.0418410 121.2562160  11.8448640   4.1214080 121.0019750
  11.2816470   5.1393850 121.9706800   5.8141950   5.6424370 113.2145580
   6.3320620   4.8392630 113.1602470   5.3625970   5.5803510 114.0562410
  10.7011450   6.9090650 108.4872880  11.0427150   7.6532880 107.9916200
   9.8724160   7.2221770 108.8497710   3.2986490   2.6085740 120.1271280
   2.9401430   3.2739590 120.7144620   3.0041050   1.7769290 120.4983900
   6.4999610   3.0669980 123.0110830   6.1999750   3.2127160 122.1138650
   7.2710850   2.5075270 122.9184220  11.8428060   7.8638980 121.0065960
  11.8572600   6.9319940 120.7884870  11.1353160   7.9498740 121.6455730
  16.9765130   2.0478800 107.2764570  16.8928850   2.4793020 106.4261010
  17.6959320   2.5077150 107.7091390  18.0539270   4.5046320 120.3534540
  17.3287460   5.0975100 120.1563930  18.5814730   4.4969860 119.5547910
  18.0052380   8.9021060 110.0046700  17.3628540   8.2476680 110.2790420
  17.6183040   9.3076150 109.2287370  13.5838860   6.2306490 113.8518390
  13.9362680   5.6334620 113.1919760  12.7001190   5.9050720 114.0226640
   9.6702140   6.9904180 111.2588800  10.3573270   7.5373390 111.6396390
   8.8834560   7.5344910 111.2938410   8.9729350   3.9950210 110.8714160
   9.4292130   4.8055460 111.0974350   8.6217560   3.6773350 111.7032650
  11.2761960   9.5056550 118.1006460  11.9204180   9.7115930 118.7779880
  11.6391400   8.7444950 117.6477310  12.5494040   7.5088900 116.8183910
  13.1916270   6.8082060 116.9316080  13.0743390   8.2887340 116.6380800
  16.3949760   7.7937520 106.5423050  16.1687340   7.0767960 107.1347690
  16.0045960   7.5449960 105.7044800  14.3231660   8.3083800 120.0219970
  14.6587900   8.8950490 120.6997890  13.4032000   8.1776510 120.2517760
   2.1765790  11.8204380 107.3167510   2.5363430  12.4193720 106.6624780
   2.0358130  12.3664270 108.0902540  15.9766010   5.7109460 108.2037210
  15.6887710   6.1722150 108.9915090  16.7718180   5.2507230 108.4721430
  10.1520240   8.3575130 123.1908030   9.8317110   7.6384370 123.7353720
   9.4778600   9.0330200 123.2644090   8.1934410   9.2035580 108.1341180
   8.1844510   9.9365270 107.5185690   7.2732770   8.9567160 108.2268140
   3.7941050   4.4250470 108.8787940   3.1869000   5.1649370 108.8883240
   4.2690400   4.5149830 108.0526140  11.1794010   9.2663820 106.7966370
  11.2805990   9.0627810 105.8668350  10.2795750   9.0122100 107.0014150
   9.8212120  11.7850140 111.4914040  10.0753620  11.7471530 110.5693410
   8.8724600  11.6583470 111.4842290  15.8264700   2.7042020 113.0672550
  14.8854840   2.7192250 113.2420240  16.1408770   1.9177980 113.5132850
   5.8046340   4.3861620 106.6276510   6.5709610   4.2742980 107.1901940
   5.8821030   3.6899590 105.9753280  17.8290280   9.8750870 114.7426810
  17.9537700  10.6982040 115.2150620  18.6955840   9.6641600 114.3950960
   5.3007810  11.9682080 114.4143940   6.0370290  11.4197540 114.6852510
   5.6848730  12.8338090 114.2749930   4.3066090  11.1528150 123.6029520
   5.1078820  11.4740200 124.0164920   3.7917910  10.7923730 124.3249430
   8.4110120  11.1412390 106.2369510   9.2038730  11.4301220 105.7851300
   7.8914470  10.7104560 105.5581990  13.1430720   7.2608020 123.5504930
  12.5368880   7.2839620 122.8100680  12.8384830   6.5291060 124.0872180
  14.5731090  10.9888310 122.1614340  15.5252840  10.9046330 122.1114580
  14.4259310  11.6530020 122.8348130  17.4640290  10.3682520 107.6606250
  17.1781800   9.9547660 106.8460430  17.2659840  11.2970230 107.5406770
   8.9287520   6.3615800 106.1011860   8.8238160   5.7468150 106.8273240
   8.7611740   5.8381690 105.3174870   9.0801840   5.0472600 122.0801090
   8.3147510   5.6157600 121.9955760   9.2617800   4.7548810 121.1869320
  12.1690250   5.4235830 106.7053850  11.6200350   5.8705130 107.3496590
  12.7909510   4.9185080 107.2291520  16.2225190   6.7777930 122.6376110
  16.9634660   7.1153690 122.1343570  15.4597870   6.9469990 122.0845880
   4.0586980   1.7831200 123.4415640   4.0992320   1.4845070 124.3500870
   4.9132480   2.1838810 123.2823160   7.8365370   4.3826750 108.6019150
   8.2581790   4.2166620 109.4450540   7.9616210   3.5726980 108.1074290
  10.3493010   3.4064360 105.8496250  10.8698670   2.6913380 105.4837400
  10.9961410   4.0450230 106.1496760  14.8970850   4.8292760 121.1731320
  15.3111870   4.9837840 122.0221740  13.9621850   4.9547980 121.3357100
  15.3693020   2.1688920 123.1770470  15.9513790   1.4141240 123.0890950
  15.5454790   2.6996360 122.4001950   9.6586080   4.7813240 119.1427250
  10.0774190   5.6245970 118.9703490   8.7394710   4.9185280 118.9134030
  11.9949980   2.5129420 120.5265090  12.1146190   1.9170560 121.2659930
  12.8543980   2.5499110 120.1066390  14.3337880   3.0666610 119.1027600
  13.8073100   3.5909230 118.4992740  14.6769220   3.6994000 119.7337330
   7.5093500  11.0866250 120.2584980   6.9714590  11.8112310 119.9393680
   7.7627460  10.6096590 119.4682320  10.3655710  12.3217460 120.5171630
  10.2914410  13.2252600 120.8244000   9.4634550  12.0029360 120.4893700
  10.9141040  11.4875970 108.1397990  11.8091830  11.8260940 108.1616750
  10.9458670  10.7655380 107.5122270   4.5537200   6.8603020 106.3684990
   4.9912070   7.4032690 107.0242570   5.0384930   6.0349970 106.3781330
   1.7683000   9.6492050 113.8205250   2.0986010   8.7813110 113.5883890
   2.1974000   9.8550570 114.6510210   6.3644920   7.9801060 111.4807220
   6.0640460   7.8566030 112.3811130   6.2582410   7.1209650 111.0722950
   2.2573210  10.5162640 116.5586880   1.8204200  10.6963440 117.3911030
   2.8250890  11.2737260 116.4168600  17.8935390  10.0179640 120.8464190
  17.2937380  10.0772200 120.1028110  18.0229290   9.0784620 120.9761040
  19.1336840   7.7597460 106.1833900  18.3029800   7.8274110 106.6541130
  19.3108670   8.6501580 105.8800760  18.5893300   4.5044940 108.6868100
  19.3512210   5.0741590 108.7927790  18.6047670   3.9372140 109.4576410
  19.5953270   5.3595040 113.5310030  19.9662100   4.5762360 113.1246000
  20.2355200   6.0484140 113.3527330  16.5787030   6.7431620 118.9440350
  15.7646870   7.1728780 119.2066140  16.9861230   7.3550030 118.3309400
  18.6412470   4.7979310 105.8440620  18.9161310   5.7058190 105.7159840
  18.4523210   4.7341840 106.7802610  18.5377810   2.7348300 110.8370050
  18.1621410   1.9676230 110.4051340  17.8080930   3.1171000 111.3244980
   3.1273570   3.4135440 117.4579100   3.4946610   3.3262840 118.3375120
   2.5584390   2.6501990 117.3585960  17.9277430   1.8819820 120.4709570
  17.6963520   1.6532570 119.5707520  18.1881980   2.8019370 120.4254460
  16.6363080  11.4950220 112.4708620  17.2322150  11.1734790 111.7943040
  16.8941230  11.0222040 113.2621890   4.5425650   7.9268130 122.6199250
   4.4995280   7.5561040 123.5013710   4.6736660   8.8645700 122.7601070
   8.2431680   9.4827720 118.2208970   8.0023040   9.7502280 117.3339490
   9.1834320   9.6533450 118.2759830  19.5035840  11.5022100 119.0219610
  19.0094120  11.8990970 118.3046740  18.8949130  10.8771310 119.4156890
   4.3813680  10.8730380 119.7397030   3.7874000  10.7415080 120.4787070
   4.3737520  10.0368520 119.2739130  17.1875290  12.1445520 116.3006350
  16.7278260  12.8961330 115.9264370  16.5587750  11.4251990 116.2421150
   4.0125910   8.2388760 118.6905070   3.2859970   7.6194050 118.6231020
   4.0735060   8.6329370 117.8203150   7.6171010  10.4533760 115.4754480
   8.1336030   9.8421120 114.9502740   8.2668390  10.9562540 115.9665490
  10.3566510  11.3442250 116.3023460  10.6444320  11.0896550 115.4256470
  10.8689730  10.7919610 116.8929030   3.9018610  10.2496380 109.3451970
   3.3766230  10.6304410 108.6413930   3.8263190  10.8747150 110.0661680
  10.4238870  12.2658350 123.6691660  11.3506180  12.0302620 123.7127620
  10.4089300  13.0930350 123.1877690  18.6583930  11.8083920 110.6665910
  18.8336120  11.1221660 110.0226830  17.9605500  12.3330970 110.2742580
   6.5011580  12.1978760 108.2201220   7.2330400  11.9138040 107.6725110
   6.7605250  11.9592040 109.1100600   5.6626370   8.3143490 108.2247550
   5.0335250   8.7828590 108.7733380   5.7774200   7.4692710 108.6593740
  16.9916430  11.4928210 123.4932700  17.7841750  10.9977440 123.2858660
  17.2849580  12.1718350 124.1008310  13.1176090   2.3649150  94.3748750
  13.0370140   1.4503760  94.1040460  12.7040510   2.8616220  93.6688460
  11.2494130   4.1428170  96.2558020  10.4736230   3.6628610  96.5456590
  11.9007060   3.4633820  96.0814180   5.2659960   4.4547980  97.1333780
   4.4344840   4.1996690  97.5330290   5.8740940   4.5258750  97.8691700
  15.2701560   8.5488360  95.0357150  14.8083090   7.7775600  95.3644320
  16.0827110   8.5754430  95.5409600   5.2461220   8.4888070  97.3291800
   5.5489260   7.5985810  97.1502020   5.9904810   9.0458290  97.1014050
  11.4964870  10.8346370  94.6561140  10.8776310  11.2903870  94.0855580
  12.3516650  10.9897830  94.2550840  10.6903120   6.8185360  96.2628180
  10.6211400   5.8775300  96.1017310  11.4522980   6.9086770  96.8350750
  12.3628220   5.7185610  92.0493050  11.7445490   6.1835060  91.4855770
  12.8751470   6.4113090  92.4662560   7.2259980   5.2461480  98.7276650
   6.8929360   5.8730400  99.3697720   7.4026660   5.7723360  97.9478320
   6.4379080   7.2142280 100.5425830   7.0553080   7.8893360 100.2610280
   5.5772200   7.6230260 100.4513330  17.3556670   8.6781690  98.4580470
  16.6720190   9.3480800  98.4497140  17.8950960   8.8762340  97.6925330
  14.8915410  10.5225820  97.1725650  14.9042570  10.1188110  96.3047910
  14.3390630  11.2973110  97.0687080  16.1860830   7.2442040  92.2615820
  16.0757160   6.3016370  92.3865240  16.1829080   7.6057680  93.1478580
  14.2900850   5.4255660  98.5008260  14.7069640   5.2115770  97.6661720
  15.0140670   5.6828450  99.0716880  11.7281110   2.8707360  91.6178310
  10.8010390   2.8044740  91.8466780  11.8805930   3.8087490  91.5033550
  18.2362950   3.8242880  98.5924500  17.4081580   3.8935970  98.1174630
  18.8313430   4.4097190  98.1240330  15.7578400   4.4327660  92.1213560
  15.1390820   4.0947210  91.4739860  15.7402850   3.7887420  92.8292750
   7.3337750   3.3972100  94.3998040   6.9294750   2.6849350  93.9043940
   7.4200870   3.0525340  95.2886080   7.8019450   7.0839660  96.5637250
   7.5047740   6.4785130  95.8845030   8.7519270   7.1216970  96.4526610
  15.8905060  10.6571530 100.2260350  15.4135620  11.4643720 100.0332960
  15.2066850  10.0049860 100.3786560   6.8937880   6.8221350 103.2145050
   5.9966410   7.0461320 103.4618450   6.9190750   6.9456290 102.2656450
  13.9343100   3.6714470  89.1286310  14.3736380   2.8336900  88.9824130
  14.6471520   4.3043870  89.2150450   5.7209100   3.6934670 101.7902420
   5.5816870   4.5657470 102.1589820   4.8390460   3.3507480 101.6450360
  12.0438480   8.6110540  93.0967550  12.4834390   9.3534870  92.6822940
  11.9825370   8.8537110  94.0206510   7.5189450   9.6356370 103.9987570
   7.4904880  10.0399320 103.1316000   7.3554420   8.7066730 103.8359170
   4.0342380   2.2917080  91.9004690   3.9139980   3.0179170  91.2885960
   3.7243270   1.5219990  91.4232600  19.4704270  10.4183470 105.2951740
  19.9463990  10.8966360 105.9740820  20.0911430  10.3500960 104.5697240
   2.9175380   7.1632410  94.1179510   2.5103460   7.3047000  93.2633110
   3.8088390   6.8792570  93.9150720  18.8737520   7.6096320 102.4551750
  19.0000580   7.3708200 101.5368930  18.9158900   6.7780860 102.9273830
  12.7354260  11.3124320 101.0246560  13.2498930  11.2232330 101.8268990
  11.8923340  11.6584020 101.3174470  14.7108660  11.5979660  90.4530560
  14.5509800  11.3082600  91.3512390  14.5455370  10.8219790  89.9175790
   7.1897040  11.3778190  92.2302180   7.0139520  10.4613730  92.0169980
   6.3352780  11.7365480  92.4699980  14.4134790   9.1067220  89.0128560
  13.7199950   9.1044510  88.3530840  15.1557650   8.6826540  88.5822730
  13.9784720  10.7329930  93.0877050  14.4341670   9.9519310  93.4015670
  14.3177240  11.4436750  93.6318230   8.2257070   1.9785800  88.5296870
   7.6573970   1.5304050  87.9032780   8.9346070   2.3378580  87.9962020
   3.3026250   5.8797820 102.4063600   2.9181040   5.2391490 103.0046560
   3.6138440   6.5833940 102.9758330   9.4523390   2.7274360  97.8872220
   9.8193520   2.2532930  98.6333560   9.2628450   3.6015930  98.2280560
   7.2422760   1.7683000 100.2056430   6.9379830   2.6474980 100.4306790
   8.1969220   1.8282790 100.2413870   5.7704550   5.9743990  90.8023280
   4.9966810   5.4341610  90.6422000   6.4999180   5.4550600  90.4641040
  16.5292530   4.9709350  96.5949670  17.2491650   5.4664640  96.2045780
  16.3274350   4.2927240  95.9503540  11.9111330   5.0418410 102.4818670
  11.8448640   4.1214080 102.2276260  11.2816470   5.1393850 103.1963310
   5.8141950   5.6424370  94.4402090   6.3320620   4.8392630  94.3858980
   5.3625970   5.5803510  95.2818920  10.7011450   6.9090650  89.7129390
  11.0427150   7.6532880  89.2172710   9.8724160   7.2221770  90.0754220
   3.2986490   2.6085740 101.3527790   2.9401430   3.2739590 101.9401130
   3.0041050   1.7769290 101.7240410   6.4999610   3.0669980 104.2367340
   6.1999750   3.2127160 103.3395160   7.2710850   2.5075270 104.1440730
  11.8428060   7.8638980 102.2322470  11.8572600   6.9319940 102.0141380
  11.1353160   7.9498740 102.8712240  16.9765130   2.0478800  88.5021080
  16.8928850   2.4793020  87.6517520  17.6959320   2.5077150  88.9347900
  18.0539270   4.5046320 101.5791050  17.3287460   5.0975100 101.3820440
  18.5814730   4.4969860 100.7804420  18.0052380   8.9021060  91.2303210
  17.3628540   8.2476680  91.5046930  17.6183040   9.3076150  90.4543880
  13.5838860   6.2306490  95.0774900  13.9362680   5.6334620  94.4176270
  12.7001190   5.9050720  95.2483150   9.6702140   6.9904180  92.4845310
  10.3573270   7.5373390  92.8652900   8.8834560   7.5344910  92.5194920
   8.9729350   3.9950210  92.0970670   9.4292130   4.8055460  92.3230860
   8.6217560   3.6773350  92.9289160  11.2761960   9.5056550  99.3262970
  11.9204180   9.7115930 100.0036390  11.6391400   8.7444950  98.8733820
  12.5494040   7.5088900  98.0440420  13.1916270   6.8082060  98.1572590
  13.0743390   8.2887340  97.8637310  16.3949760   7.7937520  87.7679560
  16.1687340   7.0767960  88.3604200  16.0045960   7.5449960  86.9301310
  14.3231660   8.3083800 101.2476480  14.6587900   8.8950490 101.9254400
  13.4032000   8.1776510 101.4774270   2.1765790  11.8204380  88.5424020
   2.5363430  12.4193720  87.8881290   2.0358130  12.3664270  89.3159050
  15.9766010   5.7109460  89.4293720  15.6887710   6.1722150  90.2171600
  16.7718180   5.2507230  89.6977940  10.1520240   8.3575130 104.4164540
   9.8317110   7.6384370 104.9610230   9.4778600   9.0330200 104.4900600
   8.1934410   9.2035580  89.3597690   8.1844510   9.9365270  88.7442200
   7.2732770   8.9567160  89.4524650   3.7941050   4.4250470  90.1044450
   3.1869000   5.1649370  90.1139750   4.2690400   4.5149830  89.2782650
  11.1794010   9.2663820  88.0222880  11.2805990   9.0627810  87.0924860
  10.2795750   9.0122100  88.2270660   9.8212120  11.7850140  92.7170550
  10.0753620  11.7471530  91.7949920   8.8724600  11.6583470  92.7098800
  15.8264700   2.7042020  94.2929060  14.8854840   2.7192250  94.4676750
  16.1408770   1.9177980  94.7389360   5.8046340   4.3861620  87.8533020
   6.5709610   4.2742980  88.4158450   5.8821030   3.6899590  87.2009790
  17.8290280   9.8750870  95.9683320  17.9537700  10.6982040  96.4407130
  18.6955840   9.6641600  95.6207470   5.3007810  11.9682080  95.6400450
   6.0370290  11.4197540  95.9109020   5.6848730  12.8338090  95.5006440
   4.3066090  11.1528150 104.8286030   5.1078820  11.4740200 105.2421430
   3.7917910  10.7923730 105.5505940   8.4110120  11.1412390  87.4626020
   9.2038730  11.4301220  87.0107810   7.8914470  10.7104560  86.7838500
  13.1430720   7.2608020 104.7761440  12.5368880   7.2839620 104.0357190
  12.8384830   6.5291060 105.3128690  14.5731090  10.9888310 103.3870850
  15.5252840  10.9046330 103.3371090  14.4259310  11.6530020 104.0604640
  17.4640290  10.3682520  88.8862760  17.1781800   9.9547660  88.0716940
  17.2659840  11.2970230  88.7663280   8.9287520   6.3615800  87.3268370
   8.8238160   5.7468150  88.0529750   8.7611740   5.8381690  86.5431380
   9.0801840   5.0472600 103.3057600   8.3147510   5.6157600 103.2212270
   9.2617800   4.7548810 102.4125830  12.1690250   5.4235830  87.9310360
  11.6200350   5.8705130  88.5753100  12.7909510   4.9185080  88.4548030
  16.2225190   6.7777930 103.8632620  16.9634660   7.1153690 103.3600080
  15.4597870   6.9469990 103.3102390   4.0586980   1.7831200 104.6672150
   4.0992320   1.4845070 105.5757380   4.9132480   2.1838810 104.5079670
   7.8365370   4.3826750  89.8275660   8.2581790   4.2166620  90.6707050
   7.9616210   3.5726980  89.3330800  10.3493010   3.4064360  87.0752760
  10.8698670   2.6913380  86.7093910  10.9961410   4.0450230  87.3753270
  14.8970850   4.8292760 102.3987830  15.3111870   4.9837840 103.2478250
  13.9621850   4.9547980 102.5613610  15.3693020   2.1688920 104.4026980
  15.9513790   1.4141240 104.3147460  15.5454790   2.6996360 103.6258460
   9.6586080   4.7813240 100.3683760  10.0774190   5.6245970 100.1960000
   8.7394710   4.9185280 100.1390540  11.9949980   2.5129420 101.7521600
  12.1146190   1.9170560 102.4916440  12.8543980   2.5499110 101.3322900
  14.3337880   3.0666610 100.3284110  13.8073100   3.5909230  99.7249250
  14.6769220   3.6994000 100.9593840   7.5093500  11.0866250 101.4841490
   6.9714590  11.8112310 101.1650190   7.7627460  10.6096590 100.6938830
  10.3655710  12.3217460 101.7428140  10.2914410  13.2252600 102.0500510
   9.4634550  12.0029360 101.7150210  10.9141040  11.4875970  89.3654500
  11.8091830  11.8260940  89.3873260  10.9458670  10.7655380  88.7378780
   4.5537200   6.8603020  87.5941500   4.9912070   7.4032690  88.2499080
   5.0384930   6.0349970  87.6037840   1.7683000   9.6492050  95.0461760
   2.0986010   8.7813110  94.8140400   2.1974000   9.8550570  95.8766720
   6.3644920   7.9801060  92.7063730   6.0640460   7.8566030  93.6067640
   6.2582410   7.1209650  92.2979460   2.2573210  10.5162640  97.7843390
   1.8204200  10.6963440  98.6167540   2.8250890  11.2737260  97.6425110
  17.8935390  10.0179640 102.0720700  17.2937380  10.0772200 101.3284620
  18.0229290   9.0784620 102.2017550  19.1336840   7.7597460  87.4090410
  18.3029800   7.8274110  87.8797640  19.3108670   8.6501580  87.1057270
  18.5893300   4.5044940  89.9124610  19.3512210   5.0741590  90.0184300
  18.6047670   3.9372140  90.6832920  19.5953270   5.3595040  94.7566540
  19.9662100   4.5762360  94.3502510  20.2355200   6.0484140  94.5783840
  16.5787030   6.7431620 100.1696860  15.7646870   7.1728780 100.4322650
  16.9861230   7.3550030  99.5565910  18.6412470   4.7979310  87.0697130
  18.9161310   5.7058190  86.9416350  18.4523210   4.7341840  88.0059120
  18.5377810   2.7348300  92.0626560  18.1621410   1.9676230  91.6307850
  17.8080930   3.1171000  92.5501490   3.1273570   3.4135440  98.6835610
   3.4946610   3.3262840  99.5631630   2.5584390   2.6501990  98.5842470
  17.9277430   1.8819820 101.6966080  17.6963520   1.6532570 100.7964030
  18.1881980   2.8019370 101.6510970  16.6363080  11.4950220  93.6965130
  17.2322150  11.1734790  93.0199550  16.8941230  11.0222040  94.4878400
   4.5425650   7.9268130 103.8455760   4.4995280   7.5561040 104.7270220
   4.6736660   8.8645700 103.9857580   8.2431680   9.4827720  99.4465480
   8.0023040   9.7502280  98.5596000   9.1834320   9.6533450  99.5016340
  19.5035840  11.5022100 100.2476120  19.0094120  11.8990970  99.5303250
  18.8949130  10.8771310 100.6413400   4.3813680  10.8730380 100.9653540
   3.7874000  10.7415080 101.7043580   4.3737520  10.0368520 100.4995640
  17.1875290  12.1445520  97.5262860  16.7278260  12.8961330  97.1520880
  16.5587750  11.4251990  97.4677660   4.0125910   8.2388760  99.9161580
   3.2859970   7.6194050  99.8487530   4.0735060   8.6329370  99.0459660
   7.6171010  10.4533760  96.7010990   8.1336030   9.8421120  96.1759250
   8.2668390  10.9562540  97.1922000  10.3566510  11.3442250  97.5279970
  10.6444320  11.0896550  96.6512980  10.8689730  10.7919610  98.1185540
   3.9018610  10.2496380  90.5708480   3.3766230  10.6304410  89.8670440
   3.8263190  10.8747150  91.2918190  10.4238870  12.2658350 104.8948170
  11.3506180  12.0302620 104.9384130  10.4089300  13.0930350 104.4134200
  18.6583930  11.8083920  91.8922420  18.8336120  11.1221660  91.2483340
  17.9605500  12.3330970  91.4999090   6.5011580  12.1978760  89.4457730
   7.2330400  11.9138040  88.8981620   6.7605250  11.9592040  90.3357110
   5.6626370   8.3143490  89.4504060   5.0335250   8.7828590  89.9989890
   5.7774200   7.4692710  89.8850250  16.9916430  11.4928210 104.7189210
  17.7841750  10.9977440 104.5115170  17.2849580  12.1718350 105.3264820
  13.1176090   2.3649150  75.6005260  13.0370140   1.4503760  75.3296970
  12.7040510   2.8616220  74.8944970  11.2494130   4.1428170  77.4814530
  10.4736230   3.6628610  77.7713100  11.9007060   3.4633820  77.3070690
   5.2659960   4.4547980  78.3590290   4.4344840   4.1996690  78.7586800
   5.8740940   4.5258750  79.0948210  15.2701560   8.5488360  76.2613660
  14.8083090   7.7775600  76.5900830  16.0827110   8.5754430  76.7666110
   5.2461220   8.4888070  78.5548310   5.5489260   7.5985810  78.3758530
   5.9904810   9.0458290  78.3270560  11.4964870  10.8346370  75.8817650
  10.8776310  11.2903870  75.3112090  12.3516650  10.9897830  75.4807350
  10.6903120   6.8185360  77.4884690  10.6211400   5.8775300  77.3273820
  11.4522980   6.9086770  78.0607260  12.3628220   5.7185610  73.2749560
  11.7445490   6.1835060  72.7112280  12.8751470   6.4113090  73.6919070
   7.2259980   5.2461480  79.9533160   6.8929360   5.8730400  80.5954230
   7.4026660   5.7723360  79.1734830   6.4379080   7.2142280  81.7682340
   7.0553080   7.8893360  81.4866790   5.5772200   7.6230260  81.6769840
  17.3556670   8.6781690  79.6836980  16.6720190   9.3480800  79.6753650
  17.8950960   8.8762340  78.9181840  14.8915410  10.5225820  78.3982160
  14.9042570  10.1188110  77.5304420  14.3390630  11.2973110  78.2943590
  16.1860830   7.2442040  73.4872330  16.0757160   6.3016370  73.6121750
  16.1829080   7.6057680  74.3735090  14.2900850   5.4255660  79.7264770
  14.7069640   5.2115770  78.8918230  15.0140670   5.6828450  80.2973390
  11.7281110   2.8707360  72.8434820  10.8010390   2.8044740  73.0723290
  11.8805930   3.8087490  72.7290060  18.2362950   3.8242880  79.8181010
  17.4081580   3.8935970  79.3431140  18.8313430   4.4097190  79.3496840
  15.7578400   4.4327660  73.3470070  15.1390820   4.0947210  72.6996370
  15.7402850   3.7887420  74.0549260   7.3337750   3.3972100  75.6254550
   6.9294750   2.6849350  75.1300450   7.4200870   3.0525340  76.5142590
   7.8019450   7.0839660  77.7893760   7.5047740   6.4785130  77.1101540
   8.7519270   7.1216970  77.6783120  15.8905060  10.6571530  81.4516860
  15.4135620  11.4643720  81.2589470  15.2066850  10.0049860  81.6043070
   6.8937880   6.8221350  84.4401560   5.9966410   7.0461320  84.6874960
   6.9190750   6.9456290  83.4912960  13.9343100   3.6714470  70.3542820
  14.3736380   2.8336900  70.2080640  14.6471520   4.3043870  70.4406960
   5.7209100   3.6934670  83.0158930   5.5816870   4.5657470  83.3846330
   4.8390460   3.3507480  82.8706870  12.0438480   8.6110540  74.3224060
  12.4834390   9.3534870  73.9079450  11.9825370   8.8537110  75.2463020
   7.5189450   9.6356370  85.2244080   7.4904880  10.0399320  84.3572510
   7.3554420   8.7066730  85.0615680   4.0342380   2.2917080  73.1261200
   3.9139980   3.0179170  72.5142470   3.7243270   1.5219990  72.6489110
  19.4704270  10.4183470  86.5208250  19.9463990  10.8966360  87.1997330
  20.0911430  10.3500960  85.7953750   2.9175380   7.1632410  75.3436020
   2.5103460   7.3047000  74.4889620   3.8088390   6.8792570  75.1407230
  18.8737520   7.6096320  83.6808260  19.0000580   7.3708200  82.7625440
  18.9158900   6.7780860  84.1530340  12.7354260  11.3124320  82.2503070
  13.2498930  11.2232330  83.0525500  11.8923340  11.6584020  82.5430980
  14.7108660  11.5979660  71.6787070  14.5509800  11.3082600  72.5768900
  14.5455370  10.8219790  71.1432300   7.1897040  11.3778190  73.4558690
   7.0139520  10.4613730  73.2426490   6.3352780  11.7365480  73.6956490
  14.4134790   9.1067220  70.2385070  13.7199950   9.1044510  69.5787350
  15.1557650   8.6826540  69.8079240  13.9784720  10.7329930  74.3133560
  14.4341670   9.9519310  74.6272180  14.3177240  11.4436750  74.8574740
   8.2257070   1.9785800  69.7553380   7.6573970   1.5304050  69.1289290
   8.9346070   2.3378580  69.2218530   3.3026250   5.8797820  83.6320110
   2.9181040   5.2391490  84.2303070   3.6138440   6.5833940  84.2014840
   9.4523390   2.7274360  79.1128730   9.8193520   2.2532930  79.8590070
   9.2628450   3.6015930  79.4537070   7.2422760   1.7683000  81.4312940
   6.9379830   2.6474980  81.6563300   8.1969220   1.8282790  81.4670380
   5.7704550   5.9743990  72.0279790   4.9966810   5.4341610  71.8678510
   6.4999180   5.4550600  71.6897550  16.5292530   4.9709350  77.8206180
  17.2491650   5.4664640  77.4302290  16.3274350   4.2927240  77.1760050
  11.9111330   5.0418410  83.7075180  11.8448640   4.1214080  83.4532770
  11.2816470   5.1393850  84.4219820   5.8141950   5.6424370  75.6658600
   6.3320620   4.8392630  75.6115490   5.3625970   5.5803510  76.5075430
  10.7011450   6.9090650  70.9385900  11.0427150   7.6532880  70.4429220
   9.8724160   7.2221770  71.3010730   3.2986490   2.6085740  82.5784300
   2.9401430   3.2739590  83.1657640   3.0041050   1.7769290  82.9496920
   6.4999610   3.0669980  85.4623850   6.1999750   3.2127160  84.5651670
   7.2710850   2.5075270  85.3697240  11.8428060   7.8638980  83.4578980
  11.8572600   6.9319940  83.2397890  11.1353160   7.9498740  84.0968750
  16.9765130   2.0478800  69.7277590  16.8928850   2.4793020  68.8774030
  17.6959320   2.5077150  70.1604410  18.0539270   4.5046320  82.8047560
  17.3287460   5.0975100  82.6076950  18.5814730   4.4969860  82.0060930
  18.0052380   8.9021060  72.4559720  17.3628540   8.2476680  72.7303440
  17.6183040   9.3076150  71.6800390  13.5838860   6.2306490  76.3031410
  13.9362680   5.6334620  75.6432780  12.7001190   5.9050720  76.4739660
   9.6702140   6.9904180  73.7101820  10.3573270   7.5373390  74.0909410
   8.8834560   7.5344910  73.7451430   8.9729350   3.9950210  73.3227180
   9.4292130   4.8055460  73.5487370   8.6217560   3.6773350  74.1545670
  11.2761960   9.5056550  80.5519480  11.9204180   9.7115930  81.2292900
  11.6391400   8.7444950  80.0990330  12.5494040   7.5088900  79.2696930
  13.1916270   6.8082060  79.3829100  13.0743390   8.2887340  79.0893820
  16.3949760   7.7937520  68.9936070  16.1687340   7.0767960  69.5860710
  16.0045960   7.5449960  68.1557820  14.3231660   8.3083800  82.4732990
  14.6587900   8.8950490  83.1510910  13.4032000   8.1776510  82.7030780
   2.1765790  11.8204380  69.7680530   2.5363430  12.4193720  69.1137800
   2.0358130  12.3664270  70.5415560  15.9766010   5.7109460  70.6550230
  15.6887710   6.1722150  71.4428110  16.7718180   5.2507230  70.9234450
  10.1520240   8.3575130  85.6421050   9.8317110   7.6384370  86.1866740
   9.4778600   9.0330200  85.7157110   8.1934410   9.2035580  70.5854200
   8.1844510   9.9365270  69.9698710   7.2732770   8.9567160  70.6781160
   3.7941050   4.4250470  71.3300960   3.1869000   5.1649370  71.3396260
   4.2690400   4.5149830  70.5039160  11.1794010   9.2663820  69.2479390
  11.2805990   9.0627810  68.3181370  10.2795750   9.0122100  69.4527170
   9.8212120  11.7850140  73.9427060  10.0753620  11.7471530  73.0206430
   8.8724600  11.6583470  73.9355310  15.8264700   2.7042020  75.5185570
  14.8854840   2.7192250  75.6933260  16.1408770   1.9177980  75.9645870
   5.8046340   4.3861620  69.0789530   6.5709610   4.2742980  69.6414960
   5.8821030   3.6899590  68.4266300  17.8290280   9.8750870  77.1939830
  17.9537700  10.6982040  77.6663640  18.6955840   9.6641600  76.8463980
   5.3007810  11.9682080  76.8656960   6.0370290  11.4197540  77.1365530
   5.6848730  12.8338090  76.7262950   4.3066090  11.1528150  86.0542540
   5.1078820  11.4740200  86.4677940   3.7917910  10.7923730  86.7762450
   8.4110120  11.1412390  68.6882530   9.2038730  11.4301220  68.2364320
   7.8914470  10.7104560  68.0095010  13.1430720   7.2608020  86.0017950
  12.5368880   7.2839620  85.2613700  12.8384830   6.5291060  86.5385200
  14.5731090  10.9888310  84.6127360  15.5252840  10.9046330  84.5627600
  14.4259310  11.6530020  85.2861150  17.4640290  10.3682520  70.1119270
  17.1781800   9.9547660  69.2973450  17.2659840  11.2970230  69.9919790
   8.9287520   6.3615800  68.5524880   8.8238160   5.7468150  69.2786260
   8.7611740   5.8381690  67.7687890   9.0801840   5.0472600  84.5314110
   8.3147510   5.6157600  84.4468780   9.2617800   4.7548810  83.6382340
  12.1690250   5.4235830  69.1566870  11.6200350   5.8705130  69.8009610
  12.7909510   4.9185080  69.6804540  16.2225190   6.7777930  85.0889130
  16.9634660   7.1153690  84.5856590  15.4597870   6.9469990  84.5358900
   4.0586980   1.7831200  85.8928660   4.0992320   1.4845070  86.8013890
   4.9132480   2.1838810  85.7336180   7.8365370   4.3826750  71.0532170
   8.2581790   4.2166620  71.8963560   7.9616210   3.5726980  70.5587310
  10.3493010   3.4064360  68.3009270  10.8698670   2.6913380  67.9350420
  10.9961410   4.0450230  68.6009780  14.8970850   4.8292760  83.6244340
  15.3111870   4.9837840  84.4734760  13.9621850   4.9547980  83.7870120
  15.3693020   2.1688920  85.6283490  15.9513790   1.4141240  85.5403970
  15.5454790   2.6996360  84.8514970   9.6586080   4.7813240  81.5940270
  10.0774190   5.6245970  81.4216510   8.7394710   4.9185280  81.3647050
  11.9949980   2.5129420  82.9778110  12.1146190   1.9170560  83.7172950
  12.8543980   2.5499110  82.5579410  14.3337880   3.0666610  81.5540620
  13.8073100   3.5909230  80.9505760  14.6769220   3.6994000  82.1850350
   7.5093500  11.0866250  82.7098000   6.9714590  11.8112310  82.3906700
   7.7627460  10.6096590  81.9195340  10.3655710  12.3217460  82.9684650
  10.2914410  13.2252600  83.2757020   9.4634550  12.0029360  82.9406720
  10.9141040  11.4875970  70.5911010  11.8091830  11.8260940  70.6129770
  10.9458670  10.7655380  69.9635290   4.5537200   6.8603020  68.8198010
   4.9912070   7.4032690  69.4755590   5.0384930   6.0349970  68.8294350
   1.7683000   9.6492050  76.2718270   2.0986010   8.7813110  76.0396910
   2.1974000   9.8550570  77.1023230   6.3644920   7.9801060  73.9320240
   6.0640460   7.8566030  74.8324150   6.2582410   7.1209650  73.5235970
   2.2573210  10.5162640  79.0099900   1.8204200  10.6963440  79.8424050
   2.8250890  11.2737260  78.8681620  17.8935390  10.0179640  83.2977210
  17.2937380  10.0772200  82.5541130  18.0229290   9.0784620  83.4274060
  19.1336840   7.7597460  68.6346920  18.3029800   7.8274110  69.1054150
  19.3108670   8.6501580  68.3313780  18.5893300   4.5044940  71.1381120
  19.3512210   5.0741590  71.2440810  18.6047670   3.9372140  71.9089430
  19.5953270   5.3595040  75.9823050  19.9662100   4.5762360  75.5759020
  20.2355200   6.0484140  75.8040350  16.5787030   6.7431620  81.3953370
  15.7646870   7.1728780  81.6579160  16.9861230   7.3550030  80.7822420
  18.6412470   4.7979310  68.2953640  18.9161310   5.7058190  68.1672860
  18.4523210   4.7341840  69.2315630  18.5377810   2.7348300  73.2883070
  18.1621410   1.9676230  72.8564360  17.8080930   3.1171000  73.7758000
   3.1273570   3.4135440  79.9092120   3.4946610   3.3262840  80.7888140
   2.5584390   2.6501990  79.8098980  17.9277430   1.8819820  82.9222590
  17.6963520   1.6532570  82.0220540  18.1881980   2.8019370  82.8767480
  16.6363080  11.4950220  74.9221640  17.2322150  11.1734790  74.2456060
  16.8941230  11.0222040  75.7134910   4.5425650   7.9268130  85.0712270
   4.4995280   7.5561040  85.9526730   4.6736660   8.8645700  85.2114090
   8.2431680   9.4827720  80.6721990   8.0023040   9.7502280  79.7852510
   9.1834320   9.6533450  80.7272850  19.5035840  11.5022100  81.4732630
  19.0094120  11.8990970  80.7559760  18.8949130  10.8771310  81.8669910
   4.3813680  10.8730380  82.1910050   3.7874000  10.7415080  82.9300090
   4.3737520  10.0368520  81.7252150  17.1875290  12.1445520  78.7519370
  16.7278260  12.8961330  78.3777390  16.5587750  11.4251990  78.6934170
   4.0125910   8.2388760  81.1418090   3.2859970   7.6194050  81.0744040
   4.0735060   8.6329370  80.2716170   7.6171010  10.4533760  77.9267500
   8.1336030   9.8421120  77.4015760   8.2668390  10.9562540  78.4178510
  10.3566510  11.3442250  78.7536480  10.6444320  11.0896550  77.8769490
  10.8689730  10.7919610  79.3442050   3.9018610  10.2496380  71.7964990
   3.3766230  10.6304410  71.0926950   3.8263190  10.8747150  72.5174700
  10.4238870  12.2658350  86.1204680  11.3506180  12.0302620  86.1640640
  10.4089300  13.0930350  85.6390710  18.6583930  11.8083920  73.1178930
  18.8336120  11.1221660  72.4739850  17.9605500  12.3330970  72.7255600
   6.5011580  12.1978760  70.6714240   7.2330400  11.9138040  70.1238130
   6.7605250  11.9592040  71.5613620   5.6626370   8.3143490  70.6760570
   5.0335250   8.7828590  71.2246400   5.7774200   7.4692710  71.1106760
  16.9916430  11.4928210  85.9445720  17.7841750  10.9977440  85.7371680
  17.2849580  12.1718350  86.5521330  13.1176090   2.3649150  56.8261770
  13.0370140   1.4503760  56.5553480  12.7040510   2.8616220  56.1201480
  11.2494130   4.1428170  58.7071040  10.4736230   3.6628610  58.9969610
  11.9007060   3.4633820  58.5327200   5.2659960   4.4547980  59.5846800
   4.4344840   4.1996690  59.9843310   5.8740940   4.5258750  60.3204720
  15.2701560   8.5488360  57.4870170  14.8083090   7.7775600  57.8157340
  16.0827110   8.5754430  57.9922620   5.2461220   8.4888070  59.7804820
   5.5489260   7.5985810  59.6015040   5.9904810   9.0458290  59.5527070
  11.4964870  10.8346370  57.1074160  10.8776310  11.2903870  56.5368600
  12.3516650  10.9897830  56.7063860  10.6903120   6.8185360  58.7141200
  10.6211400   5.8775300  58.5530330  11.4522980   6.9086770  59.2863770
  12.3628220   5.7185610  54.5006070  11.7445490   6.1835060  53.9368790
  12.8751470   6.4113090  54.9175580   7.2259980   5.2461480  61.1789670
   6.8929360   5.8730400  61.8210740   7.4026660   5.7723360  60.3991340
   6.4379080   7.2142280  62.9938850   7.0553080   7.8893360  62.7123300
   5.5772200   7.6230260  62.9026350  17.3556670   8.6781690  60.9093490
  16.6720190   9.3480800  60.9010160  17.8950960   8.8762340  60.1438350
  14.8915410  10.5225820  59.6238670  14.9042570  10.1188110  58.7560930
  14.3390630  11.2973110  59.5200100  16.1860830   7.2442040  54.7128840
  16.0757160   6.3016370  54.8378260  16.1829080   7.6057680  55.5991600
  14.2900850   5.4255660  60.9521280  14.7069640   5.2115770  60.1174740
  15.0140670   5.6828450  61.5229900  11.7281110   2.8707360  54.0691330
  10.8010390   2.8044740  54.2979800  11.8805930   3.8087490  53.9546570
  18.2362950   3.8242880  61.0437520  17.4081580   3.8935970  60.5687650
  18.8313430   4.4097190  60.5753350  15.7578400   4.4327660  54.5726580
  15.1390820   4.0947210  53.9252880  15.7402850   3.7887420  55.2805770
   7.3337750   3.3972100  56.8511060   6.9294750   2.6849350  56.3556960
   7.4200870   3.0525340  57.7399100   7.8019450   7.0839660  59.0150270
   7.5047740   6.4785130  58.3358050   8.7519270   7.1216970  58.9039630
  15.8905060  10.6571530  62.6773370  15.4135620  11.4643720  62.4845980
  15.2066850  10.0049860  62.8299580   6.8937880   6.8221350  65.6658070
   5.9966410   7.0461320  65.9131470   6.9190750   6.9456290  64.7169470
  13.9343100   3.6714470  51.5799330  14.3736380   2.8336900  51.4337150
  14.6471520   4.3043870  51.6663470   5.7209100   3.6934670  64.2415440
   5.5816870   4.5657470  64.6102840   4.8390460   3.3507480  64.0963380
  12.0438480   8.6110540  55.5480570  12.4834390   9.3534870  55.1335960
  11.9825370   8.8537110  56.4719530   7.5189450   9.6356370  66.4500590
   7.4904880  10.0399320  65.5829020   7.3554420   8.7066730  66.2872190
   4.0342380   2.2917080  54.3517710   3.9139980   3.0179170  53.7398980
   3.7243270   1.5219990  53.8745620  19.4704270  10.4183470  67.7464760
  19.9463990  10.8966360  68.4253840  20.0911430  10.3500960  67.0210260
   2.9175380   7.1632410  56.5692530   2.5103460   7.3047000  55.7146130
   3.8088390   6.8792570  56.3663740  18.8737520   7.6096320  64.9064770
  19.0000580   7.3708200  63.9881950  18.9158900   6.7780860  65.3786850
  12.7354260  11.3124320  63.4759580  13.2498930  11.2232330  64.2782010
  11.8923340  11.6584020  63.7687490  14.7108660  11.5979660  52.9043580
  14.5509800  11.3082600  53.8025410  14.5455370  10.8219790  52.3688810
   7.1897040  11.3778190  54.6815200   7.0139520  10.4613730  54.4683000
   6.3352780  11.7365480  54.9213000  14.4134790   9.1067220  51.4641580
  13.7199950   9.1044510  50.8043860  15.1557650   8.6826540  51.0335750
  13.9784720  10.7329930  55.5390070  14.4341670   9.9519310  55.8528690
  14.3177240  11.4436750  56.0831250   8.2257070   1.9785800  50.9809890
   7.6573970   1.5304050  50.3545800   8.9346070   2.3378580  50.4475040
   3.3026250   5.8797820  64.8576620   2.9181040   5.2391490  65.4559580
   3.6138440   6.5833940  65.4271350   9.4523390   2.7274360  60.3385240
   9.8193520   2.2532930  61.0846580   9.2628450   3.6015930  60.6793580
   7.2422760   1.7683000  62.6569450   6.9379830   2.6474980  62.8819810
   8.1969220   1.8282790  62.6926890   5.7704550   5.9743990  53.2536300
   4.9966810   5.4341610  53.0935020   6.4999180   5.4550600  52.9154060
  16.5292530   4.9709350  59.0462690  17.2491650   5.4664640  58.6558800
  16.3274350   4.2927240  58.4016560  11.9111330   5.0418410  64.9331690
  11.8448640   4.1214080  64.6789280  11.2816470   5.1393850  65.6476330
   5.8141950   5.6424370  56.8915110   6.3320620   4.8392630  56.8372000
   5.3625970   5.5803510  57.7331940  10.7011450   6.9090650  52.1642410
  11.0427150   7.6532880  51.6685730   9.8724160   7.2221770  52.5267240
   3.2986490   2.6085740  63.8040810   2.9401430   3.2739590  64.3914150
   3.0041050   1.7769290  64.1753430   6.4999610   3.0669980  66.6880360
   6.1999750   3.2127160  65.7908180   7.2710850   2.5075270  66.5953750
  11.8428060   7.8638980  64.6835490  11.8572600   6.9319940  64.4654400
  11.1353160   7.9498740  65.3225260  16.9765130   2.0478800  50.9534100
  16.8928850   2.4793020  50.1030540  17.6959320   2.5077150  51.3860920
  18.0539270   4.5046320  64.0304070  17.3287460   5.0975100  63.8333460
  18.5814730   4.4969860  63.2317440  18.0052380   8.9021060  53.6816230
  17.3628540   8.2476680  53.9559950  17.6183040   9.3076150  52.9056900
  13.5838860   6.2306490  57.5287920  13.9362680   5.6334620  56.8689290
  12.7001190   5.9050720  57.6996170   9.6702140   6.9904180  54.9358330
  10.3573270   7.5373390  55.3165920   8.8834560   7.5344910  54.9707940
   8.9729350   3.9950210  54.5483690   9.4292130   4.8055460  54.7743880
   8.6217560   3.6773350  55.3802180  11.2761960   9.5056550  61.7775990
  11.9204180   9.7115930  62.4549410  11.6391400   8.7444950  61.3246840
  12.5494040   7.5088900  60.4953440  13.1916270   6.8082060  60.6085610
  13.0743390   8.2887340  60.3150330  16.3949760   7.7937520  50.2192580
  16.1687340   7.0767960  50.8117220  16.0045960   7.5449960  49.3814330
  14.3231660   8.3083800  63.6989500  14.6587900   8.8950490  64.3767420
  13.4032000   8.1776510  63.9287290   2.1765790  11.8204380  50.9937040
   2.5363430  12.4193720  50.3394310   2.0358130  12.3664270  51.7672070
  15.9766010   5.7109460  51.8806740  15.6887710   6.1722150  52.6684620
  16.7718180   5.2507230  52.1490960  10.1520240   8.3575130  66.8677560
   9.8317110   7.6384370  67.4123250   9.4778600   9.0330200  66.9413620
   8.1934410   9.2035580  51.8110710   8.1844510   9.9365270  51.1955220
   7.2732770   8.9567160  51.9037670   3.7941050   4.4250470  52.5557470
   3.1869000   5.1649370  52.5652770   4.2690400   4.5149830  51.7295670
  11.1794010   9.2663820  50.4735900  11.2805990   9.0627810  49.5437880
  10.2795750   9.0122100  50.6783680   9.8212120  11.7850140  55.1683570
  10.0753620  11.7471530  54.2462940   8.8724600  11.6583470  55.1611820
  15.8264700   2.7042020  56.7442080  14.8854840   2.7192250  56.9189770
  16.1408770   1.9177980  57.1902380   5.8046340   4.3861620  50.3046040
   6.5709610   4.2742980  50.8671470   5.8821030   3.6899590  49.6522810
  17.8290280   9.8750870  58.4196340  17.9537700  10.6982040  58.8920150
  18.6955840   9.6641600  58.0720490   5.3007810  11.9682080  58.0913470
   6.0370290  11.4197540  58.3622040   5.6848730  12.8338090  57.9519460
   4.3066090  11.1528150  67.2799050   5.1078820  11.4740200  67.6934450
   3.7917910  10.7923730  68.0018960   8.4110120  11.1412390  49.9139040
   9.2038730  11.4301220  49.4620830   7.8914470  10.7104560  49.2351520
  13.1430720   7.2608020  67.2274460  12.5368880   7.2839620  66.4870210
  12.8384830   6.5291060  67.7641710  14.5731090  10.9888310  65.8383870
  15.5252840  10.9046330  65.7884110  14.4259310  11.6530020  66.5117660
  17.4640290  10.3682520  51.3375780  17.1781800   9.9547660  50.5229960
  17.2659840  11.2970230  51.2176300   8.9287520   6.3615800  49.7781390
   8.8238160   5.7468150  50.5042770   8.7611740   5.8381690  48.9944400
   9.0801840   5.0472600  65.7570620   8.3147510   5.6157600  65.6725290
   9.2617800   4.7548810  64.8638850  12.1690250   5.4235830  50.3823380
  11.6200350   5.8705130  51.0266120  12.7909510   4.9185080  50.9061050
  16.2225190   6.7777930  66.3145640  16.9634660   7.1153690  65.8113100
  15.4597870   6.9469990  65.7615410   4.0586980   1.7831200  67.1185170
   4.0992320   1.4845070  68.0270400   4.9132480   2.1838810  66.9592690
   7.8365370   4.3826750  52.2788680   8.2581790   4.2166620  53.1220070
   7.9616210   3.5726980  51.7843820  10.3493010   3.4064360  49.5265780
  10.8698670   2.6913380  49.1606930  10.9961410   4.0450230  49.8266290
  14.8970850   4.8292760  64.8500850  15.3111870   4.9837840  65.6991270
  13.9621850   4.9547980  65.0126630  15.3693020   2.1688920  66.8540000
  15.9513790   1.4141240  66.7660480  15.5454790   2.6996360  66.0771480
   9.6586080   4.7813240  62.8196780  10.0774190   5.6245970  62.6473020
   8.7394710   4.9185280  62.5903560  11.9949980   2.5129420  64.2034620
  12.1146190   1.9170560  64.9429460  12.8543980   2.5499110  63.7835920
  14.3337880   3.0666610  62.7797130  13.8073100   3.5909230  62.1762270
  14.6769220   3.6994000  63.4106860   7.5093500  11.0866250  63.9354510
   6.9714590  11.8112310  63.6163210   7.7627460  10.6096590  63.1451850
  10.3655710  12.3217460  64.1941160  10.2914410  13.2252600  64.5013530
   9.4634550  12.0029360  64.1663230  10.9141040  11.4875970  51.8167520
  11.8091830  11.8260940  51.8386280  10.9458670  10.7655380  51.1891800
   4.5537200   6.8603020  50.0454520   4.9912070   7.4032690  50.7012100
   5.0384930   6.0349970  50.0550860   1.7683000   9.6492050  57.4974780
   2.0986010   8.7813110  57.2653420   2.1974000   9.8550570  58.3279740
   6.3644920   7.9801060  55.1576750   6.0640460   7.8566030  56.0580660
   6.2582410   7.1209650  54.7492480   2.2573210  10.5162640  60.2356410
   1.8204200  10.6963440  61.0680560   2.8250890  11.2737260  60.0938130
  17.8935390  10.0179640  64.5233720  17.2937380  10.0772200  63.7797640
  18.0229290   9.0784620  64.6530570  19.1336840   7.7597460  49.8603430
  18.3029800   7.8274110  50.3310660  19.3108670   8.6501580  49.5570290
  18.5893300   4.5044940  52.3637630  19.3512210   5.0741590  52.4697320
  18.6047670   3.9372140  53.1345940  19.5953270   5.3595040  57.2079560
  19.9662100   4.5762360  56.8015530  20.2355200   6.0484140  57.0296860
  16.5787030   6.7431620  62.6209880  15.7646870   7.1728780  62.8835670
  16.9861230   7.3550030  62.0078930  18.6412470   4.7979310  49.5210150
  18.9161310   5.7058190  49.3929370  18.4523210   4.7341840  50.4572140
  18.5377810   2.7348300  54.5139580  18.1621410   1.9676230  54.0820870
  17.8080930   3.1171000  55.0014510   3.1273570   3.4135440  61.1348630
   3.4946610   3.3262840  62.0144650   2.5584390   2.6501990  61.0355490
  17.9277430   1.8819820  64.1479100  17.6963520   1.6532570  63.2477050
  18.1881980   2.8019370  64.1023990  16.6363080  11.4950220  56.1478150
  17.2322150  11.1734790  55.4712570  16.8941230  11.0222040  56.9391420
   4.5425650   7.9268130  66.2968780   4.4995280   7.5561040  67.1783240
   4.6736660   8.8645700  66.4370600   8.2431680   9.4827720  61.8978500
   8.0023040   9.7502280  61.0109020   9.1834320   9.6533450  61.9529360
  19.5035840  11.5022100  62.6989140  19.0094120  11.8990970  61.9816270
  18.8949130  10.8771310  63.0926420   4.3813680  10.8730380  63.4166560
   3.7874000  10.7415080  64.1556600   4.3737520  10.0368520  62.9508660
  17.1875290  12.1445520  59.9775880  16.7278260  12.8961330  59.6033900
  16.5587750  11.4251990  59.9190680   4.0125910   8.2388760  62.3674600
   3.2859970   7.6194050  62.3000550   4.0735060   8.6329370  61.4972680
   7.6171010  10.4533760  59.1524010   8.1336030   9.8421120  58.6272270
   8.2668390  10.9562540  59.6435020  10.3566510  11.3442250  59.9792990
  10.6444320  11.0896550  59.1026000  10.8689730  10.7919610  60.5698560
   3.9018610  10.2496380  53.0221500   3.3766230  10.6304410  52.3183460
   3.8263190  10.8747150  53.7431210  10.4238870  12.2658350  67.3461190
  11.3506180  12.0302620  67.3897150  10.4089300  13.0930350  66.8647220
  18.6583930  11.8083920  54.3435440  18.8336120  11.1221660  53.6996360
  17.9605500  12.3330970  53.9512110   6.5011580  12.1978760  51.8970750
   7.2330400  11.9138040  51.3494640   6.7605250  11.9592040  52.7870130
   5.6626370   8.3143490  51.9017080   5.0335250   8.7828590  52.4502910
   5.7774200   7.4692710  52.3363270  16.9916430  11.4928210  67.1702230
  17.7841750  10.9977440  66.9628190  17.2849580  12.1718350  67.7777840
  13.1176090   2.3649150  38.0518280  13.0370140   1.4503760  37.7809990
  12.7040510   2.8616220  37.3457990  11.2494130   4.1428170  39.9327550
  10.4736230   3.6628610  40.2226120  11.9007060   3.4633820  39.7583710
   5.2659960   4.4547980  40.8103310   4.4344840   4.1996690  41.2099820
   5.8740940   4.5258750  41.5461230  15.2701560   8.5488360  38.7126680
  14.8083090   7.7775600  39.0413850  16.0827110   8.5754430  39.2179130
   5.2461220   8.4888070  41.0061330   5.5489260   7.5985810  40.8271550
   5.9904810   9.0458290  40.7783580  11.4964870  10.8346370  38.3330670
  10.8776310  11.2903870  37.7625110  12.3516650  10.9897830  37.9320370
  10.6903120   6.8185360  39.9397710  10.6211400   5.8775300  39.7786840
  11.4522980   6.9086770  40.5120280  12.3628220   5.7185610  35.7262580
  11.7445490   6.1835060  35.1625300  12.8751470   6.4113090  36.1432090
   7.2259980   5.2461480  42.4046180   6.8929360   5.8730400  43.0467250
   7.4026660   5.7723360  41.6247850   6.4379080   7.2142280  44.2195360
   7.0553080   7.8893360  43.9379810   5.5772200   7.6230260  44.1282860
  17.3556670   8.6781690  42.1350000  16.6720190   9.3480800  42.1266670
  17.8950960   8.8762340  41.3694860  14.8915410  10.5225820  40.8495180
  14.9042570  10.1188110  39.9817440  14.3390630  11.2973110  40.7456610
  16.1860830   7.2442040  35.9385350  16.0757160   6.3016370  36.0634770
  16.1829080   7.6057680  36.8248110  14.2900850   5.4255660  42.1777790
  14.7069640   5.2115770  41.3431250  15.0140670   5.6828450  42.7486410
  11.7281110   2.8707360  35.2947840  10.8010390   2.8044740  35.5236310
  11.8805930   3.8087490  35.1803080  18.2362950   3.8242880  42.2694030
  17.4081580   3.8935970  41.7944160  18.8313430   4.4097190  41.8009860
  15.7578400   4.4327660  35.7983090  15.1390820   4.0947210  35.1509390
  15.7402850   3.7887420  36.5062280   7.3337750   3.3972100  38.0767570
   6.9294750   2.6849350  37.5813470   7.4200870   3.0525340  38.9655610
   7.8019450   7.0839660  40.2406780   7.5047740   6.4785130  39.5614560
   8.7519270   7.1216970  40.1296140  15.8905060  10.6571530  43.9029880
  15.4135620  11.4643720  43.7102490  15.2066850  10.0049860  44.0556090
   6.8937880   6.8221350  46.8914580   5.9966410   7.0461320  47.1387980
   6.9190750   6.9456290  45.9425980  13.9343100   3.6714470  32.8055840
  14.3736380   2.8336900  32.6593660  14.6471520   4.3043870  32.8919980
   5.7209100   3.6934670  45.4671950   5.5816870   4.5657470  45.8359350
   4.8390460   3.3507480  45.3219890  12.0438480   8.6110540  36.7737080
  12.4834390   9.3534870  36.3592470  11.9825370   8.8537110  37.6976040
   7.5189450   9.6356370  47.6757100   7.4904880  10.0399320  46.8085530
   7.3554420   8.7066730  47.5128700   4.0342380   2.2917080  35.5774220
   3.9139980   3.0179170  34.9655490   3.7243270   1.5219990  35.1002130
  19.4704270  10.4183470  48.9721270  19.9463990  10.8966360  49.6510350
  20.0911430  10.3500960  48.2466770   2.9175380   7.1632410  37.7949040
   2.5103460   7.3047000  36.9402640   3.8088390   6.8792570  37.5920250
  18.8737520   7.6096320  46.1321280  19.0000580   7.3708200  45.2138460
  18.9158900   6.7780860  46.6043360  12.7354260  11.3124320  44.7016090
  13.2498930  11.2232330  45.5038520  11.8923340  11.6584020  44.9944000
  14.7108660  11.5979660  34.1300090  14.5509800  11.3082600  35.0281920
  14.5455370  10.8219790  33.5945320   7.1897040  11.3778190  35.9071710
   7.0139520  10.4613730  35.6939510   6.3352780  11.7365480  36.1469510
  14.4134790   9.1067220  32.6898090  13.7199950   9.1044510  32.0300370
  15.1557650   8.6826540  32.2592260  13.9784720  10.7329930  36.7646580
  14.4341670   9.9519310  37.0785200  14.3177240  11.4436750  37.3087760
   8.2257070   1.9785800  32.2066400   7.6573970   1.5304050  31.5802310
   8.9346070   2.3378580  31.6731550   3.3026250   5.8797820  46.0833130
   2.9181040   5.2391490  46.6816090   3.6138440   6.5833940  46.6527860
   9.4523390   2.7274360  41.5641750   9.8193520   2.2532930  42.3103090
   9.2628450   3.6015930  41.9050090   7.2422760   1.7683000  43.8825960
   6.9379830   2.6474980  44.1076320   8.1969220   1.8282790  43.9183400
   5.7704550   5.9743990  34.4792810   4.9966810   5.4341610  34.3191530
   6.4999180   5.4550600  34.1410570  16.5292530   4.9709350  40.2719200
  17.2491650   5.4664640  39.8815310  16.3274350   4.2927240  39.6273070
  11.9111330   5.0418410  46.1588200  11.8448640   4.1214080  45.9045790
  11.2816470   5.1393850  46.8732840   5.8141950   5.6424370  38.1171620
   6.3320620   4.8392630  38.0628510   5.3625970   5.5803510  38.9588450
  10.7011450   6.9090650  33.3898920  11.0427150   7.6532880  32.8942240
   9.8724160   7.2221770  33.7523750   3.2986490   2.6085740  45.0297320
   2.9401430   3.2739590  45.6170660   3.0041050   1.7769290  45.4009940
   6.4999610   3.0669980  47.9136870   6.1999750   3.2127160  47.0164690
   7.2710850   2.5075270  47.8210260  11.8428060   7.8638980  45.9092000
  11.8572600   6.9319940  45.6910910  11.1353160   7.9498740  46.5481770
  16.9765130   2.0478800  32.1790610  16.8928850   2.4793020  31.3287050
  17.6959320   2.5077150  32.6117430  18.0539270   4.5046320  45.2560580
  17.3287460   5.0975100  45.0589970  18.5814730   4.4969860  44.4573950
  18.0052380   8.9021060  34.9072740  17.3628540   8.2476680  35.1816460
  17.6183040   9.3076150  34.1313410  13.5838860   6.2306490  38.7544430
  13.9362680   5.6334620  38.0945800  12.7001190   5.9050720  38.9252680
   9.6702140   6.9904180  36.1614840  10.3573270   7.5373390  36.5422430
   8.8834560   7.5344910  36.1964450   8.9729350   3.9950210  35.7740200
   9.4292130   4.8055460  36.0000390   8.6217560   3.6773350  36.6058690
  11.2761960   9.5056550  43.0032500  11.9204180   9.7115930  43.6805920
  11.6391400   8.7444950  42.5503350  12.5494040   7.5088900  41.7209950
  13.1916270   6.8082060  41.8342120  13.0743390   8.2887340  41.5406840
  16.3949760   7.7937520  31.4449090  16.1687340   7.0767960  32.0373730
  16.0045960   7.5449960  30.6070840  14.3231660   8.3083800  44.9246010
  14.6587900   8.8950490  45.6023930  13.4032000   8.1776510  45.1543800
   2.1765790  11.8204380  32.2193550   2.5363430  12.4193720  31.5650820
   2.0358130  12.3664270  32.9928580  15.9766010   5.7109460  33.1063250
  15.6887710   6.1722150  33.8941130  16.7718180   5.2507230  33.3747470
  10.1520240   8.3575130  48.0934070   9.8317110   7.6384370  48.6379760
   9.4778600   9.0330200  48.1670130   8.1934410   9.2035580  33.0367220
   8.1844510   9.9365270  32.4211730   7.2732770   8.9567160  33.1294180
   3.7941050   4.4250470  33.7813980   3.1869000   5.1649370  33.7909280
   4.2690400   4.5149830  32.9552180  11.1794010   9.2663820  31.6992410
  11.2805990   9.0627810  30.7694390  10.2795750   9.0122100  31.9040190
   9.8212120  11.7850140  36.3940080  10.0753620  11.7471530  35.4719450
   8.8724600  11.6583470  36.3868330  15.8264700   2.7042020  37.9698590
  14.8854840   2.7192250  38.1446280  16.1408770   1.9177980  38.4158890
   5.8046340   4.3861620  31.5302550   6.5709610   4.2742980  32.0927980
   5.8821030   3.6899590  30.8779320  17.8290280   9.8750870  39.6452850
  17.9537700  10.6982040  40.1176660  18.6955840   9.6641600  39.2977000
   5.3007810  11.9682080  39.3169980   6.0370290  11.4197540  39.5878550
   5.6848730  12.8338090  39.1775970   4.3066090  11.1528150  48.5055560
   5.1078820  11.4740200  48.9190960   3.7917910  10.7923730  49.2275470
   8.4110120  11.1412390  31.1395550   9.2038730  11.4301220  30.6877340
   7.8914470  10.7104560  30.4608030  13.1430720   7.2608020  48.4530970
  12.5368880   7.2839620  47.7126720  12.8384830   6.5291060  48.9898220
  14.5731090  10.9888310  47.0640380  15.5252840  10.9046330  47.0140620
  14.4259310  11.6530020  47.7374170  17.4640290  10.3682520  32.5632290
  17.1781800   9.9547660  31.7486470  17.2659840  11.2970230  32.4432810
   8.9287520   6.3615800  31.0037900   8.8238160   5.7468150  31.7299280
   8.7611740   5.8381690  30.2200910   9.0801840   5.0472600  46.9827130
   8.3147510   5.6157600  46.8981800   9.2617800   4.7548810  46.0895360
  12.1690250   5.4235830  31.6079890  11.6200350   5.8705130  32.2522630
  12.7909510   4.9185080  32.1317560  16.2225190   6.7777930  47.5402150
  16.9634660   7.1153690  47.0369610  15.4597870   6.9469990  46.9871920
   4.0586980   1.7831200  48.3441680   4.0992320   1.4845070  49.2526910
   4.9132480   2.1838810  48.1849200   7.8365370   4.3826750  33.5045190
   8.2581790   4.2166620  34.3476580   7.9616210   3.5726980  33.0100330
  10.3493010   3.4064360  30.7522290  10.8698670   2.6913380  30.3863440
  10.9961410   4.0450230  31.0522800  14.8970850   4.8292760  46.0757360
  15.3111870   4.9837840  46.9247780  13.9621850   4.9547980  46.2383140
  15.3693020   2.1688920  48.0796510  15.9513790   1.4141240  47.9916990
  15.5454790   2.6996360  47.3027990   9.6586080   4.7813240  44.0453290
  10.0774190   5.6245970  43.8729530   8.7394710   4.9185280  43.8160070
  11.9949980   2.5129420  45.4291130  12.1146190   1.9170560  46.1685970
  12.8543980   2.5499110  45.0092430  14.3337880   3.0666610  44.0053640
  13.8073100   3.5909230  43.4018780  14.6769220   3.6994000  44.6363370
   7.5093500  11.0866250  45.1611020   6.9714590  11.8112310  44.8419720
   7.7627460  10.6096590  44.3708360  10.3655710  12.3217460  45.4197670
  10.2914410  13.2252600  45.7270040   9.4634550  12.0029360  45.3919740
  10.9141040  11.4875970  33.0424030  11.8091830  11.8260940  33.0642790
  10.9458670  10.7655380  32.4148310   4.5537200   6.8603020  31.2711030
   4.9912070   7.4032690  31.9268610   5.0384930   6.0349970  31.2807370
   1.7683000   9.6492050  38.7231290   2.0986010   8.7813110  38.4909930
   2.1974000   9.8550570  39.5536250   6.3644920   7.9801060  36.3833260
   6.0640460   7.8566030  37.2837170   6.2582410   7.1209650  35.9748990
   2.2573210  10.5162640  41.4612920   1.8204200  10.6963440  42.2937070
   2.8250890  11.2737260  41.3194640  17.8935390  10.0179640  45.7490230
  17.2937380  10.0772200  45.0054150  18.0229290   9.0784620  45.8787080
  19.1336840   7.7597460  31.0859940  18.3029800   7.8274110  31.5567170
  19.3108670   8.6501580  30.7826800  18.5893300   4.5044940  33.5894140
  19.3512210   5.0741590  33.6953830  18.6047670   3.9372140  34.3602450
  19.5953270   5.3595040  38.4336070  19.9662100   4.5762360  38.0272040
  20.2355200   6.0484140  38.2553370  16.5787030   6.7431620  43.8466390
  15.7646870   7.1728780  44.1092180  16.9861230   7.3550030  43.2335440
  18.6412470   4.7979310  30.7466660  18.9161310   5.7058190  30.6185880
  18.4523210   4.7341840  31.6828650  18.5377810   2.7348300  35.7396090
  18.1621410   1.9676230  35.3077380  17.8080930   3.1171000  36.2271020
   3.1273570   3.4135440  42.3605140   3.4946610   3.3262840  43.2401160
   2.5584390   2.6501990  42.2612000  17.9277430   1.8819820  45.3735610
  17.6963520   1.6532570  44.4733560  18.1881980   2.8019370  45.3280500
  16.6363080  11.4950220  37.3734660  17.2322150  11.1734790  36.6969080
  16.8941230  11.0222040  38.1647930   4.5425650   7.9268130  47.5225290
   4.4995280   7.5561040  48.4039750   4.6736660   8.8645700  47.6627110
   8.2431680   9.4827720  43.1235010   8.0023040   9.7502280  42.2365530
   9.1834320   9.6533450  43.1785870  19.5035840  11.5022100  43.9245650
  19.0094120  11.8990970  43.2072780  18.8949130  10.8771310  44.3182930
   4.3813680  10.8730380  44.6423070   3.7874000  10.7415080  45.3813110
   4.3737520  10.0368520  44.1765170  17.1875290  12.1445520  41.2032390
  16.7278260  12.8961330  40.8290410  16.5587750  11.4251990  41.1447190
   4.0125910   8.2388760  43.5931110   3.2859970   7.6194050  43.5257060
   4.0735060   8.6329370  42.7229190   7.6171010  10.4533760  40.3780520
   8.1336030   9.8421120  39.8528780   8.2668390  10.9562540  40.8691530
  10.3566510  11.3442250  41.2049500  10.6444320  11.0896550  40.3282510
  10.8689730  10.7919610  41.7955070   3.9018610  10.2496380  34.2478010
   3.3766230  10.6304410  33.5439970   3.8263190  10.8747150  34.9687720
  10.4238870  12.2658350  48.5717700  11.3506180  12.0302620  48.6153660
  10.4089300  13.0930350  48.0903730  18.6583930  11.8083920  35.5691950
  18.8336120  11.1221660  34.9252870  17.9605500  12.3330970  35.1768620
   6.5011580  12.1978760  33.1227260   7.2330400  11.9138040  32.5751150
   6.7605250  11.9592040  34.0126640   5.6626370   8.3143490  33.1273590
   5.0335250   8.7828590  33.6759420   5.7774200   7.4692710  33.5619780
  16.9916430  11.4928210  48.3958740  17.7841750  10.9977440  48.1884700
  17.2849580  12.1718350  49.0034350  13.1176090   2.3649150  19.2774790
  13.0370140   1.4503760  19.0066500  12.7040510   2.8616220  18.5714500
  11.2494130   4.1428170  21.1584060  10.4736230   3.6628610  21.4482630
  11.9007060   3.4633820  20.9840220   5.2659960   4.4547980  22.0359820
   4.4344840   4.1996690  22.4356330   5.8740940   4.5258750  22.7717740
  15.2701560   8.5488360  19.9383190  14.8083090   7.7775600  20.2670360
  16.0827110   8.5754430  20.4435640   5.2461220   8.4888070  22.2317840
   5.5489260   7.5985810  22.0528060   5.9904810   9.0458290  22.0040090
  11.4964870  10.8346370  19.5587180  10.8776310  11.2903870  18.9881620
  12.3516650  10.9897830  19.1576880  10.6903120   6.8185360  21.1654220
  10.6211400   5.8775300  21.0043350  11.4522980   6.9086770  21.7376790
  12.3628220   5.7185610  16.9519090  11.7445490   6.1835060  16.3881810
  12.8751470   6.4113090  17.3688600   7.2259980   5.2461480  23.6302690
   6.8929360   5.8730400  24.2723760   7.4026660   5.7723360  22.8504360
   6.4379080   7.2142280  25.4451870   7.0553080   7.8893360  25.1636320
   5.5772200   7.6230260  25.3539370  17.3556670   8.6781690  23.3606510
  16.6720190   9.3480800  23.3523180  17.8950960   8.8762340  22.5951370
  14.8915410  10.5225820  22.0751690  14.9042570  10.1188110  21.2073950
  14.3390630  11.2973110  21.9713120  16.1860830   7.2442040  17.1641860
  16.0757160   6.3016370  17.2891280  16.1829080   7.6057680  18.0504620
  14.2900850   5.4255660  23.4034300  14.7069640   5.2115770  22.5687760
  15.0140670   5.6828450  23.9742920  11.7281110   2.8707360  16.5204350
  10.8010390   2.8044740  16.7492820  11.8805930   3.8087490  16.4059590
  18.2362950   3.8242880  23.4950540  17.4081580   3.8935970  23.0200670
  18.8313430   4.4097190  23.0266370  15.7578400   4.4327660  17.0239600
  15.1390820   4.0947210  16.3765900  15.7402850   3.7887420  17.7318790
   7.3337750   3.3972100  19.3024080   6.9294750   2.6849350  18.8069980
   7.4200870   3.0525340  20.1912120   7.8019450   7.0839660  21.4663290
   7.5047740   6.4785130  20.7871070   8.7519270   7.1216970  21.3552650
  15.8905060  10.6571530  25.1286390  15.4135620  11.4643720  24.9359000
  15.2066850  10.0049860  25.2812600   6.8937880   6.8221350  28.1171090
   5.9966410   7.0461320  28.3644490   6.9190750   6.9456290  27.1682490
  13.9343100   3.6714470  14.0312350  14.3736380   2.8336900  13.8850170
  14.6471520   4.3043870  14.1176490   5.7209100   3.6934670  26.6928460
   5.5816870   4.5657470  27.0615860   4.8390460   3.3507480  26.5476400
  12.0438480   8.6110540  17.9993590  12.4834390   9.3534870  17.5848980
  11.9825370   8.8537110  18.9232550   7.5189450   9.6356370  28.9013610
   7.4904880  10.0399320  28.0342040   7.3554420   8.7066730  28.7385210
   4.0342380   2.2917080  16.8030730   3.9139980   3.0179170  16.1912000
   3.7243270   1.5219990  16.3258640  19.4704270  10.4183470  30.1977780
  19.9463990  10.8966360  30.8766860  20.0911430  10.3500960  29.4723280
   2.9175380   7.1632410  19.0205550   2.5103460   7.3047000  18.1659150
   3.8088390   6.8792570  18.8176760  18.8737520   7.6096320  27.3577790
  19.0000580   7.3708200  26.4394970  18.9158900   6.7780860  27.8299870
  12.7354260  11.3124320  25.9272600  13.2498930  11.2232330  26.7295030
  11.8923340  11.6584020  26.2200510  14.7108660  11.5979660  15.3556600
  14.5509800  11.3082600  16.2538430  14.5455370  10.8219790  14.8201830
   7.1897040  11.3778190  17.1328220   7.0139520  10.4613730  16.9196020
   6.3352780  11.7365480  17.3726020  14.4134790   9.1067220  13.9154600
  13.7199950   9.1044510  13.2556880  15.1557650   8.6826540  13.4848770
  13.9784720  10.7329930  17.9903090  14.4341670   9.9519310  18.3041710
  14.3177240  11.4436750  18.5344270   8.2257070   1.9785800  13.4322910
   7.6573970   1.5304050  12.8058820   8.9346070   2.3378580  12.8988060
   3.3026250   5.8797820  27.3089640   2.9181040   5.2391490  27.9072600
   3.6138440   6.5833940  27.8784370   9.4523390   2.7274360  22.7898260
   9.8193520   2.2532930  23.5359600   9.2628450   3.6015930  23.1306600
   7.2422760   1.7683000  25.1082470   6.9379830   2.6474980  25.3332830
   8.1969220   1.8282790  25.1439910   5.7704550   5.9743990  15.7049320
   4.9966810   5.4341610  15.5448040   6.4999180   5.4550600  15.3667080
  16.5292530   4.9709350  21.4975710  17.2491650   5.4664640  21.1071820
  16.3274350   4.2927240  20.8529580  11.9111330   5.0418410  27.3844710
  11.8448640   4.1214080  27.1302300  11.2816470   5.1393850  28.0989350
   5.8141950   5.6424370  19.3428130   6.3320620   4.8392630  19.2885020
   5.3625970   5.5803510  20.1844960  10.7011450   6.9090650  14.6155430
  11.0427150   7.6532880  14.1198750   9.8724160   7.2221770  14.9780260
   3.2986490   2.6085740  26.2553830   2.9401430   3.2739590  26.8427170
   3.0041050   1.7769290  26.6266450   6.4999610   3.0669980  29.1393380
   6.1999750   3.2127160  28.2421200   7.2710850   2.5075270  29.0466770
  11.8428060   7.8638980  27.1348510  11.8572600   6.9319940  26.9167420
  11.1353160   7.9498740  27.7738280  16.9765130   2.0478800  13.4047120
  16.8928850   2.4793020  12.5543560  17.6959320   2.5077150  13.8373940
  18.0539270   4.5046320  26.4817090  17.3287460   5.0975100  26.2846480
  18.5814730   4.4969860  25.6830460  18.0052380   8.9021060  16.1329250
  17.3628540   8.2476680  16.4072970  17.6183040   9.3076150  15.3569920
  13.5838860   6.2306490  19.9800940  13.9362680   5.6334620  19.3202310
  12.7001190   5.9050720  20.1509190   9.6702140   6.9904180  17.3871350
  10.3573270   7.5373390  17.7678940   8.8834560   7.5344910  17.4220960
   8.9729350   3.9950210  16.9996710   9.4292130   4.8055460  17.2256900
   8.6217560   3.6773350  17.8315200  11.2761960   9.5056550  24.2289010
  11.9204180   9.7115930  24.9062430  11.6391400   8.7444950  23.7759860
  12.5494040   7.5088900  22.9466460  13.1916270   6.8082060  23.0598630
  13.0743390   8.2887340  22.7663350  16.3949760   7.7937520  12.6705600
  16.1687340   7.0767960  13.2630240  16.0045960   7.5449960  11.8327350
  14.3231660   8.3083800  26.1502520  14.6587900   8.8950490  26.8280440
  13.4032000   8.1776510  26.3800310   2.1765790  11.8204380  13.4450060
   2.5363430  12.4193720  12.7907330   2.0358130  12.3664270  14.2185090
  15.9766010   5.7109460  14.3319760  15.6887710   6.1722150  15.1197640
  16.7718180   5.2507230  14.6003980  10.1520240   8.3575130  29.3190580
   9.8317110   7.6384370  29.8636270   9.4778600   9.0330200  29.3926640
   8.1934410   9.2035580  14.2623730   8.1844510   9.9365270  13.6468240
   7.2732770   8.9567160  14.3550690   3.7941050   4.4250470  15.0070490
   3.1869000   5.1649370  15.0165790   4.2690400   4.5149830  14.1808690
  11.1794010   9.2663820  12.9248920  11.2805990   9.0627810  11.9950900
  10.2795750   9.0122100  13.1296700   9.8212120  11.7850140  17.6196590
  10.0753620  11.7471530  16.6975960   8.8724600  11.6583470  17.6124840
  15.8264700   2.7042020  19.1955100  14.8854840   2.7192250  19.3702790
  16.1408770   1.9177980  19.6415400   5.8046340   4.3861620  12.7559060
   6.5709610   4.2742980  13.3184490   5.8821030   3.6899590  12.1035830
  17.8290280   9.8750870  20.8709360  17.9537700  10.6982040  21.3433170
  18.6955840   9.6641600  20.5233510   5.3007810  11.9682080  20.5426490
   6.0370290  11.4197540  20.8135060   5.6848730  12.8338090  20.4032480
   4.3066090  11.1528150  29.7312070   5.1078820  11.4740200  30.1447470
   3.7917910  10.7923730  30.4531980   8.4110120  11.1412390  12.3652060
   9.2038730  11.4301220  11.9133850   7.8914470  10.7104560  11.6864540
  13.1430720   7.2608020  29.6787480  12.5368880   7.2839620  28.9383230
  12.8384830   6.5291060  30.2154730  14.5731090  10.9888310  28.2896890
  15.5252840  10.9046330  28.2397130  14.4259310  11.6530020  28.9630680
  17.4640290  10.3682520  13.7888800  17.1781800   9.9547660  12.9742980
  17.2659840  11.2970230  13.6689320   8.9287520   6.3615800  12.2294410
   8.8238160   5.7468150  12.9555790   8.7611740   5.8381690  11.4457420
   9.0801840   5.0472600  28.2083640   8.3147510   5.6157600  28.1238310
   9.2617800   4.7548810  27.3151870  12.1690250   5.4235830  12.8336400
  11.6200350   5.8705130  13.4779140  12.7909510   4.9185080  13.3574070
  16.2225190   6.7777930  28.7658660  16.9634660   7.1153690  28.2626120
  15.4597870   6.9469990  28.2128430   4.0586980   1.7831200  29.5698190
   4.0992320   1.4845070  30.4783420   4.9132480   2.1838810  29.4105710
   7.8365370   4.3826750  14.7301700   8.2581790   4.2166620  15.5733090
   7.9616210   3.5726980  14.2356840  10.3493010   3.4064360  11.9778800
  10.8698670   2.6913380  11.6119950  10.9961410   4.0450230  12.2779310
  14.8970850   4.8292760  27.3013870  15.3111870   4.9837840  28.1504290
  13.9621850   4.9547980  27.4639650  15.3693020   2.1688920  29.3053020
  15.9513790   1.4141240  29.2173500  15.5454790   2.6996360  28.5284500
   9.6586080   4.7813240  25.2709800  10.0774190   5.6245970  25.0986040
   8.7394710   4.9185280  25.0416580  11.9949980   2.5129420  26.6547640
  12.1146190   1.9170560  27.3942480  12.8543980   2.5499110  26.2348940
  14.3337880   3.0666610  25.2310150  13.8073100   3.5909230  24.6275290
  14.6769220   3.6994000  25.8619880   7.5093500  11.0866250  26.3867530
   6.9714590  11.8112310  26.0676230   7.7627460  10.6096590  25.5964870
  10.3655710  12.3217460  26.6454180  10.2914410  13.2252600  26.9526550
   9.4634550  12.0029360  26.6176250  10.9141040  11.4875970  14.2680540
  11.8091830  11.8260940  14.2899300  10.9458670  10.7655380  13.6404820
   4.5537200   6.8603020  12.4967540   4.9912070   7.4032690  13.1525120
   5.0384930   6.0349970  12.5063880   1.7683000   9.6492050  19.9487800
   2.0986010   8.7813110  19.7166440   2.1974000   9.8550570  20.7792760
   6.3644920   7.9801060  17.6089770   6.0640460   7.8566030  18.5093680
   6.2582410   7.1209650  17.2005500   2.2573210  10.5162640  22.6869430
   1.8204200  10.6963440  23.5193580   2.8250890  11.2737260  22.5451150
  17.8935390  10.0179640  26.9746740  17.2937380  10.0772200  26.2310660
  18.0229290   9.0784620  27.1043590  19.1336840   7.7597460  12.3116450
  18.3029800   7.8274110  12.7823680  19.3108670   8.6501580  12.0083310
  18.5893300   4.5044940  14.8150650  19.3512210   5.0741590  14.9210340
  18.6047670   3.9372140  15.5858960  19.5953270   5.3595040  19.6592580
  19.9662100   4.5762360  19.2528550  20.2355200   6.0484140  19.4809880
  16.5787030   6.7431620  25.0722900  15.7646870   7.1728780  25.3348690
  16.9861230   7.3550030  24.4591950  18.6412470   4.7979310  11.9723170
  18.9161310   5.7058190  11.8442390  18.4523210   4.7341840  12.9085160
  18.5377810   2.7348300  16.9652600  18.1621410   1.9676230  16.5333890
  17.8080930   3.1171000  17.4527530   3.1273570   3.4135440  23.5861650
   3.4946610   3.3262840  24.4657670   2.5584390   2.6501990  23.4868510
  17.9277430   1.8819820  26.5992120  17.6963520   1.6532570  25.6990070
  18.1881980   2.8019370  26.5537010  16.6363080  11.4950220  18.5991170
  17.2322150  11.1734790  17.9225590  16.8941230  11.0222040  19.3904440
   4.5425650   7.9268130  28.7481800   4.4995280   7.5561040  29.6296260
   4.6736660   8.8645700  28.8883620   8.2431680   9.4827720  24.3491520
   8.0023040   9.7502280  23.4622040   9.1834320   9.6533450  24.4042380
  19.5035840  11.5022100  25.1502160  19.0094120  11.8990970  24.4329290
  18.8949130  10.8771310  25.5439440   4.3813680  10.8730380  25.8679580
   3.7874000  10.7415080  26.6069620   4.3737520  10.0368520  25.4021680
  17.1875290  12.1445520  22.4288900  16.7278260  12.8961330  22.0546920
  16.5587750  11.4251990  22.3703700   4.0125910   8.2388760  24.8187620
   3.2859970   7.6194050  24.7513570   4.0735060   8.6329370  23.9485700
   7.6171010  10.4533760  21.6037030   8.1336030   9.8421120  21.0785290
   8.2668390  10.9562540  22.0948040  10.3566510  11.3442250  22.4306010
  10.6444320  11.0896550  21.5539020  10.8689730  10.7919610  23.0211580
   3.9018610  10.2496380  15.4734520   3.3766230  10.6304410  14.7696480
   3.8263190  10.8747150  16.1944230  10.4238870  12.2658350  29.7974210
  11.3506180  12.0302620  29.8410170  10.4089300  13.0930350  29.3160240
  18.6583930  11.8083920  16.7948460  18.8336120  11.1221660  16.1509380
  17.9605500  12.3330970  16.4025130   6.5011580  12.1978760  14.3483770
   7.2330400  11.9138040  13.8007660   6.7605250  11.9592040  15.2383150
   5.6626370   8.3143490  14.3530100   5.0335250   8.7828590  14.9015930
   5.7774200   7.4692710  14.7876290  16.9916430  11.4928210  29.6215250
  17.7841750  10.9977440  29.4141210  17.2849580  12.1718350  30.2290860
  11.2494130   4.1428170   2.3840570  10.4736230   3.6628610   2.6739140
  11.9007060   3.4633820   2.2096730   5.2659960   4.4547980   3.2616330
   4.4344840   4.1996690   3.6612840   5.8740940   4.5258750   3.9974250
   5.2461220   8.4888070   3.4574350   5.5489260   7.5985810   3.2784570
   5.9904810   9.0458290   3.2296600  10.6903120   6.8185360   2.3910730
  10.6211400   5.8775300   2.2299860  11.4522980   6.9086770   2.9633300
   7.2259980   5.2461480   4.8559200   6.8929360   5.8730400   5.4980270
   7.4026660   5.7723360   4.0760870   6.4379080   7.2142280   6.6708380
   7.0553080   7.8893360   6.3892830   5.5772200   7.6230260   6.5795880
  17.3556670   8.6781690   4.5863020  16.6720190   9.3480800   4.5779690
  17.8950960   8.8762340   3.8207880  14.8915410  10.5225820   3.3008200
  14.9042570  10.1188110   2.4330460  14.3390630  11.2973110   3.1969630
  14.2900850   5.4255660   4.6290810  14.7069640   5.2115770   3.7944270
  15.0140670   5.6828450   5.1999430  18.2362950   3.8242880   4.7207050
  17.4081580   3.8935970   4.2457180  18.8313430   4.4097190   4.2522880
   7.8019450   7.0839660   2.6919800   7.5047740   6.4785130   2.0127580
   8.7519270   7.1216970   2.5809160  15.8905060  10.6571530   6.3542900
  15.4135620  11.4643720   6.1615510  15.2066850  10.0049860   6.5069110
   6.8937880   6.8221350   9.3427600   5.9966410   7.0461320   9.5901000
   6.9190750   6.9456290   8.3939000   5.7209100   3.6934670   7.9184970
   5.5816870   4.5657470   8.2872370   4.8390460   3.3507480   7.7732910
   7.5189450   9.6356370  10.1270120   7.4904880  10.0399320   9.2598550
   7.3554420   8.7066730   9.9641720  19.4704270  10.4183470  11.4234290
  19.9463990  10.8966360  12.1023370  20.0911430  10.3500960  10.6979790
  18.8737520   7.6096320   8.5834300  19.0000580   7.3708200   7.6651480
  18.9158900   6.7780860   9.0556380  12.7354260  11.3124320   7.1529110
  13.2498930  11.2232330   7.9551540  11.8923340  11.6584020   7.4457020
   3.3026250   5.8797820   8.5346150   2.9181040   5.2391490   9.1329110
   3.6138440   6.5833940   9.1040880   9.4523390   2.7274360   4.0154770
   9.8193520   2.2532930   4.7616110   9.2628450   3.6015930   4.3563110
   7.2422760   1.7683000   6.3338980   6.9379830   2.6474980   6.5589340
   8.1969220   1.8282790   6.3696420  16.5292530   4.9709350   2.7232220
  17.2491650   5.4664640   2.3328330  16.3274350   4.2927240   2.0786090
  11.9111330   5.0418410   8.6101220  11.8448640   4.1214080   8.3558810
  11.2816470   5.1393850   9.3245860   3.2986490   2.6085740   7.4810340
   2.9401430   3.2739590   8.0683680   3.0041050   1.7769290   7.8522960
   6.4999610   3.0669980  10.3649890   6.1999750   3.2127160   9.4677710
   7.2710850   2.5075270  10.2723280  11.8428060   7.8638980   8.3605020
  11.8572600   6.9319940   8.1423930  11.1353160   7.9498740   8.9994790
  18.0539270   4.5046320   7.7073600  17.3287460   5.0975100   7.5102990
  18.5814730   4.4969860   6.9086970  11.2761960   9.5056550   5.4545520
  11.9204180   9.7115930   6.1318940  11.6391400   8.7444950   5.0016370
  12.5494040   7.5088900   4.1722970  13.1916270   6.8082060   4.2855140
  13.0743390   8.2887340   3.9919860  14.3231660   8.3083800   7.3759030
  14.6587900   8.8950490   8.0536950  13.4032000   8.1776510   7.6056820
  10.1520240   8.3575130  10.5447090   9.8317110   7.6384370  11.0892780
   9.4778600   9.0330200  10.6183150  17.8290280   9.8750870   2.0965870
  17.9537700  10.6982040   2.5689680  18.6955840   9.6641600   1.7490020
   5.3007810  11.9682080   1.7683000   6.0370290  11.4197540   2.0391570
   5.6848730  12.8338090   1.6288990   4.3066090  11.1528150  10.9568580
   5.1078820  11.4740200  11.3703980   3.7917910  10.7923730  11.6788490
  13.1430720   7.2608020  10.9043990  12.5368880   7.2839620  10.1639740
  12.8384830   6.5291060  11.4411240  14.5731090  10.9888310   9.5153400
  15.5252840  10.9046330   9.4653640  14.4259310  11.6530020  10.1887190
   9.0801840   5.0472600   9.4340150   8.3147510   5.6157600   9.3494820
   9.2617800   4.7548810   8.5408380  16.2225190   6.7777930   9.9915170
  16.9634660   7.1153690   9.4882630  15.4597870   6.9469990   9.4384940
   4.0586980   1.7831200  10.7954700   4.0992320   1.4845070  11.7039930
   4.9132480   2.1838810  10.6362220  14.8970850   4.8292760   8.5270380
  15.3111870   4.9837840   9.3760800  13.9621850   4.9547980   8.6896160
  15.3693020   2.1688920  10.5309530  15.9513790   1.4141240  10.4430010
  15.5454790   2.6996360   9.7541010   9.6586080   4.7813240   6.4966310
  10.0774190   5.6245970   6.3242550   8.7394710   4.9185280   6.2673090
  11.9949980   2.5129420   7.8804150  12.1146190   1.9170560   8.6198990
  12.8543980   2.5499110   7.4605450  14.3337880   3.0666610   6.4566660
  13.8073100   3.5909230   5.8531800  14.6769220   3.6994000   7.0876390
   7.5093500  11.0866250   7.6124040   6.9714590  11.8112310   7.2932740
   7.7627460  10.6096590   6.8221380  10.3655710  12.3217460   7.8710690
  10.2914410  13.2252600   8.1783060   9.4634550  12.0029360   7.8432760
   2.2573210  10.5162640   3.9125940   1.8204200  10.6963440   4.7450090
   2.8250890  11.2737260   3.7707660  17.8935390  10.0179640   8.2003250
  17.2937380  10.0772200   7.4567170  18.0229290   9.0784620   8.3300100
  16.5787030   6.7431620   6.2979410  15.7646870   7.1728780   6.5605200
  16.9861230   7.3550030   5.6848460   3.1273570   3.4135440   4.8118160
   3.4946610   3.3262840   5.6914180   2.5584390   2.6501990   4.7125020
  17.9277430   1.8819820   7.8248630  17.6963520   1.6532570   6.9246580
  18.1881980   2.8019370   7.7793520   4.5425650   7.9268130   9.9738310
   4.4995280   7.5561040  10.8552770   4.6736660   8.8645700  10.1140130
   8.2431680   9.4827720   5.5748030   8.0023040   9.7502280   4.6878550
   9.1834320   9.6533450   5.6298890  19.5035840  11.5022100   6.3758670
  19.0094120  11.8990970   5.6585800  18.8949130  10.8771310   6.7695950
   4.3813680  10.8730380   7.0936090   3.7874000  10.7415080   7.8326130
   4.3737520  10.0368520   6.6278190  17.1875290  12.1445520   3.6545410
  16.7278260  12.8961330   3.2803430  16.5587750  11.4251990   3.5960210
   4.0125910   8.2388760   6.0444130   3.2859970   7.6194050   5.9770080
   4.0735060   8.6329370   5.1742210   7.6171010  10.4533760   2.8293540
   8.1336030   9.8421120   2.3041800   8.2668390  10.9562540   3.3204550
  10.3566510  11.3442250   3.6562520  10.6444320  11.0896550   2.7795530
  10.8689730  10.7919610   4.2468090  10.4238870  12.2658350  11.0230720
  11.3506180  12.0302620  11.0666680  10.4089300  13.0930350  10.5416750
  16.9916430  11.4928210  10.8471760  17.7841750  10.9977440  10.6397720
  17.2849580  12.1718350  11.4547370
 152.0624950 156.4178900 154.8929340  90.0000000  90.0000000  90.0000000
